/*--------------------------------*- C++ -*----------------------------------*\
| =========                 |                                                 |
| \\      /  F ield         | OpenFOAM: The Open Source CFD Toolbox           |
|  \\    /   O peration     | Version:  v1912                                 |
|   \\  /    A nd           | Website:  www.openfoam.com                      |
|    \\/     M anipulation  |                                                 |
\*---------------------------------------------------------------------------*/
FoamFile
{
    version     2.0;
    format      ascii;
    class       surfaceScalarField;
    location    "0.62";
    object      phi;
}
// * * * * * * * * * * * * * * * * * * * * * * * * * * * * * * * * * * * * * //

dimensions      [0 3 -1 0 0 0 0];
oriented        oriented;


internalField   nonuniform List<scalar> 
2708
(
-7.14765e-06
-1.79202e-05
3.43507e-06
2.16328e-05
-3.95162e-05
6.02821e-05
-9.14067e-05
7.06408e-05
0.00128595
0.000248526
-0.000946441
-0.000588039
-0.00032418
0.000183123
7.01553e-05
7.09017e-05
-1.46099e-05
8.45508e-06
3.10039e-05
-2.48491e-05
0.000233584
0.000159776
-0.000126723
-0.000266638
0.000121816
0.000192582
0.000607205
-0.000824958
0.00100552
-0.000787769
0.000154609
0.000474934
-0.000549997
-7.95458e-05
0.0001596
0.000448251
-0.000479066
-0.000128785
0.000217382
9.28612e-05
-5.3816e-05
-0.000256427
-9.81889e-05
0.000115763
-1.75739e-05
0.000123411
-9.50022e-05
0.000110153
-0.000138562
0.000840465
-0.000857352
4.63558e-05
-2.94688e-05
0.000138668
-0.000125416
5.53516e-05
-6.86032e-05
4.43477e-06
-0.0003385
0.000334066
-0.000206722
0.000196591
0.000148799
-7.01623e-05
0.000162564
-0.000107856
1.54546e-05
-2.33758e-05
-3.21316e-05
5.55074e-05
0.000164824
9.77034e-05
-4.51453e-05
-1.17561e-05
1.83872e-05
-6.50311e-06
-1.28032e-07
-0.000111477
-0.000339761
-8.42548e-05
4.07779e-05
0.000107246
-6.37695e-05
0.000808182
6.39134e-05
-3.16302e-05
0.000369037
8.00539e-05
-0.00040212
-4.69703e-05
0.000107323
-2.86341e-05
8.61355e-05
-0.000415775
0.000350388
-0.000146024
0.000211411
3.90149e-05
-2.19301e-05
-0.000874437
-0.00103833
8.2078e-05
0.000958582
-2.32609e-06
-0.000203024
1.66493e-05
0.000124508
6.18666e-05
-0.000424651
0.000947204
-0.000541807
1.92548e-05
0.000928764
0.000449983
-0.000614303
-0.000764443
0.000209202
0.000193502
-0.000402705
0.000169072
-0.000219602
5.05304e-05
0.000176098
-0.000242693
6.65953e-05
-0.000902742
0.000903609
0.000675085
-0.000675951
4.50866e-05
-6.63874e-06
-4.5151e-05
6.70317e-06
-0.00118941
0.00114604
-5.16708e-05
9.5044e-05
5.19154e-05
-4.7763e-05
-5.79267e-05
-0.00140431
-3.47014e-05
0.000249596
-0.000333067
-0.000242639
3.84427e-05
0.000537263
-6.03045e-05
-2.37068e-05
8.40113e-05
-6.87222e-05
9.73698e-05
-0.000215217
0.000186569
-8.32864e-05
0.000128487
-0.000227262
0.000182061
0.000136261
-4.39658e-05
-0.000219292
0.000126997
-3.22876e-05
-7.57357e-06
1.63752e-05
2.34859e-05
5.10625e-05
0.000703872
-0.000390442
-0.000364492
-1.8381e-05
2.73052e-05
-0.000951838
0.000942913
-0.000654055
0.00116051
-0.000873849
0.000367391
2.98871e-05
-0.00108573
0.00111213
-5.62864e-05
0.00018255
-5.1839e-05
-0.000181855
5.1145e-05
-0.000487026
0.000349396
0.00029723
-0.000667516
0.000430418
0.000391707
-0.000112156
0.000106519
-9.16348e-05
9.72719e-05
-0.000103304
0.000104209
-0.000132068
0.000131163
-0.000965725
0.000118351
0.000948275
-0.000100901
-5.26526e-06
-9.30661e-05
0.000302395
-0.000204063
-3.17705e-05
-0.000105438
0.000471739
-0.000334531
-0.000562115
0.000515377
3.70593e-06
2.08097e-05
-3.62717e-05
0.000335336
-0.000278118
-6.15487e-06
0.000217243
0.000163017
-0.000214302
-0.000165958
0.000459904
-0.000768876
-0.00059377
-0.000427124
0.000472478
0.00101288
-0.00105824
0.000846227
-0.000171573
-4.64827e-05
-0.000628172
3.53235e-06
2.19662e-06
-8.30246e-05
7.72956e-05
0.000232838
-2.55741e-05
-3.55926e-05
0.000155195
-9.19036e-05
-2.7699e-05
-0.000625161
0.00103077
-0.000735041
0.000329429
0.00010035
9.28116e-05
0.000125376
3.34193e-05
-0.000102174
-5.66216e-05
-0.000172744
2.42728e-05
-2.29323e-05
0.000171404
6.37098e-05
0.000145492
-2.38303e-05
-9.85824e-06
2.45263e-05
9.16219e-06
2.63307e-05
0.00067768
-0.000455485
0.000968943
6.13205e-05
-0.00101681
-1.34555e-05
0.000137048
-0.000263575
-6.68765e-05
0.000193403
-0.000954595
0.000927135
-0.000399664
-2.48219e-05
0.000179732
2.02401e-05
-0.00017515
0.000112816
-7.30588e-05
-1.2577e-05
-2.71802e-05
4.37692e-05
-0.000142022
0.000189174
-9.09206e-05
-0.000283128
-6.04613e-05
0.00020105
0.000142539
-2.00037e-05
1.32554e-05
-3.92112e-06
1.06694e-05
-9.38253e-06
-1.09363e-05
1.99118e-05
4.06951e-07
-0.000117143
-7.17677e-05
0.000136851
5.20603e-05
0.000764942
8.30789e-05
-3.98387e-05
-6.55967e-05
0.00012898
-0.000169605
0.000106222
3.38563e-05
0.000153675
-0.000150411
-3.71202e-05
-0.000214789
0.000187276
-8.96301e-05
4.29221e-06
1.1094e-05
-2.47687e-05
0.0011334
-1.66909e-05
2.93279e-05
2.31518e-05
-4.11557e-05
-0.000157499
0.000175503
1.97431e-05
-4.85112e-06
-1.1186e-05
1.18502e-05
-0.000174727
-9.86671e-06
-7.03823e-05
-0.00100432
0.00103276
4.19407e-05
6.99231e-06
-6.96452e-06
1.83005e-06
-1.85785e-06
-0.000798738
-0.000279968
6.08699e-05
-4.78296e-05
-4.86328e-05
3.17082e-05
-0.00108986
0.00109008
-3.19309e-05
-0.000111167
7.21563e-05
9.76841e-05
-5.86733e-05
4.39877e-05
-6.54259e-06
6.44234e-06
-4.38875e-05
0.000228614
2.27124e-05
4.50051e-06
-0.000255826
1.98498e-05
6.42928e-06
2.17849e-05
-4.8064e-05
0.00104136
-0.00146598
0.000183423
0.000241198
0.00044418
7.39261e-06
1.33544e-05
-0.000464927
8.611e-05
8.47559e-05
-0.00091928
-1.445e-05
-1.67869e-05
2.68021e-05
4.43477e-06
-1.52219e-05
0.000168139
-0.000207885
5.49674e-05
7.86682e-06
-4.64817e-05
4.21472e-05
0.000845679
-0.000578604
5.31953e-05
-0.000320271
-0.00017422
0.000181695
0.000209768
-9.91666e-06
1.39438e-06
0.000237136
3.0263e-06
-3.3966e-06
4.4358e-05
-0.000119947
-5.08271e-05
0.000100611
4.3648e-05
-2.32852e-05
-4.74758e-05
2.7113e-05
0.000707514
0.000103682
-4.62542e-05
0.000163731
0.000166033
-0.00114255
0.00114515
9.75876e-05
-0.000100194
-0.000253265
-0.000446022
-0.000205453
-0.000286838
0.00075303
0.000182725
-0.000807745
-0.000128011
-0.000994215
-0.000637547
0.00105573
0.000576033
1.529e-05
2.1409e-05
4.26946e-05
-7.93936e-05
0.000120479
-4.45912e-05
0.000631626
-0.000120594
6.51847e-05
7.96824e-05
1.02759e-05
2.57101e-06
-2.60254e-06
-1.02444e-05
0.000822901
-0.00104166
0.000356913
-0.000138157
-1.94114e-05
2.63775e-05
-4.37246e-05
3.67585e-05
-0.000325241
1.90701e-05
-0.000101374
-0.000759612
0.000860986
-0.000160912
-0.000124044
0.000173789
-3.60559e-05
2.08347e-05
1.95134e-05
-4.98366e-05
6.06253e-05
-0.000225578
0.000151853
6.40431e-05
-9.05197e-05
6.62054e-05
-5.66922e-05
2.30847e-05
-3.25979e-05
-6.67242e-06
2.84486e-05
-9.06991e-05
6.89229e-05
-0.000309431
-7.2127e-05
5.63164e-05
-0.000543797
6.88737e-06
0.000497046
3.98639e-05
-2.2992e-05
-5.44406e-05
4.13767e-05
0.000899947
-2.31382e-05
-0.000766901
-0.000109909
-0.000103099
0.00110636
0.000157253
-0.00110039
9.25544e-05
0.000860519
-0.0010285
-0.000263122
0.000431104
-0.000224517
-0.000989813
0.00119144
2.28885e-05
0.000145048
-1.02995e-05
-0.000114639
8.18266e-05
0.000184665
-0.000919448
0.00088042
-0.000278152
0.000317179
0.00127161
7.65761e-05
-0.000315956
-0.00103223
-5.08519e-05
0.000904228
-7.14844e-06
-0.000127609
0.000173658
-2.48971e-05
-2.11516e-05
-5.68399e-06
0.0001185
0.00015144
1.15779e-05
-0.000140801
3.20573e-05
-0.000930905
-0.000378513
0.000354822
-0.000197555
-0.000190095
0.000226738
0.000909357
0.000121686
-0.000185364
-0.000196064
0.000903144
-0.000887622
0.000180542
0.000142667
1.70049e-05
2.89257e-06
-0.00022543
0.000208494
-1.57307e-05
4.53977e-05
4.24893e-05
-4.76932e-05
0.000135917
-9.81404e-05
7.30473e-06
-2.44963e-05
-7.59635e-05
-2.93329e-05
9.00745e-05
6.57139e-06
-1.27829e-06
2.25603e-05
-9.74626e-05
7.69884e-05
-0.000107874
5.40905e-05
-7.02612e-05
-0.000939294
0.000189581
0.000870192
-2.89084e-06
0.0002615
-0.000254174
0.000367088
-0.000574123
-0.000540031
0.000747066
1.44741e-05
0.000238047
-0.000877682
-3.35961e-05
0.000919404
1.41391e-05
2.56566e-05
-3.87062e-05
1.30497e-05
5.72931e-05
-0.00010713
0.00108822
-0.00126488
-0.000151071
0.000327731
0.000192892
-4.6071e-05
-0.000130172
-0.000818246
-0.000360725
0.000854823
0.000324148
-8.5666e-05
0.00104784
-0.000950439
-1.17311e-05
-1.40505e-05
0.00013225
-3.16802e-05
-8.65196e-05
0.000134593
-0.000979017
0.000943609
-9.91843e-05
0.000120684
-0.00016464
-0.000130264
-0.000333922
0.00024786
0.000946581
-0.00092311
0.000910057
-0.000183012
0.000631188
-0.000602587
8.70369e-06
0.000553131
-0.00050121
-1.52442e-05
5.69701e-05
-0.000333296
-0.000909768
0.000312159
6.74093e-05
-0.000179884
0.000201049
-8.85739e-05
-0.000332192
0.000355297
-9.91643e-05
7.60584e-05
-1.02942e-05
0.00101863
-0.000893781
-0.000158444
0.000319158
-3.59265e-05
-1.03555e-06
-0.000282195
-0.000158492
0.000167796
0.00113585
9.1278e-06
2.21765e-05
0.00101005
0.000129614
0.000927213
-0.000995169
-6.16579e-05
-0.00010623
-0.000108072
-2.44036e-05
-3.96395e-05
-0.000206573
0.000277425
-7.08518e-05
-0.000204958
-0.000920377
0.000205887
-0.000304052
-6.78602e-05
3.88444e-05
-0.000198837
-0.000248514
-2.63221e-06
-1.08001e-05
4.00154e-05
0.00102442
-8.6251e-05
-0.000978181
2.69034e-05
0.000206312
-0.000185452
-4.77633e-05
-7.37757e-05
0.00106062
-0.000651444
-0.000265475
0.000677665
-1.08575e-05
-0.000891325
0.000135255
0.000806702
-0.000188928
0.000978288
0.000148612
-0.000159068
-0.000967832
9.28417e-05
-0.000103848
-8.20598e-05
9.70977e-05
-0.000106617
-9.5918e-05
0.000212448
0.000897949
-0.000201039
0.000222778
0.000138519
-0.000293888
-8.46476e-05
0.000114809
1.83551e-05
-4.85161e-05
0.000368992
-9.17203e-05
0.000584242
-0.000861513
0.000353065
-9.53027e-05
0.000515197
0.00122889
-0.00057234
-0.000374101
0.000810751
-0.000884253
-1.82181e-05
-0.00101969
-0.000835873
0.000590689
0.000828242
-0.000897945
-0.000123734
-0.00100979
5.53021e-05
0.00100084
0.000851497
-1.94802e-05
9.16739e-06
2.14068e-05
-0.00016849
0.000184791
0.000170975
0.00101366
0.000200534
-0.000536228
0.000969338
-0.00125807
-0.000420021
-0.000923921
0.000807715
-0.000616666
0.00087431
-8.00239e-05
-0.000993128
8.33385e-05
2.33463e-06
-6.43769e-06
-3.04458e-06
-0.00093839
0.000664865
-5.97711e-05
-8.09491e-05
7.96867e-05
-1.74692e-05
1.87315e-05
-0.0011115
-3.47883e-05
0.00107251
-0.000194837
0.000177605
-0.000440652
-6.89712e-05
0.000105799
0.000403824
-0.000517638
0.000645351
-0.000137296
1.71395e-05
-2.06445e-05
-0.000118929
4.08201e-05
-5.91876e-05
0.000757446
0.000292735
0.000256321
-0.0009977
0.000162088
-0.000975708
-9.44868e-05
0.00117521
-0.000105012
0.000105248
-7.0966e-05
0.000165799
-0.000146571
0.000790841
0.000496561
-0.00115779
0.000196353
-0.000261357
-0.000966199
0.000989714
-2.35155e-05
0.000179359
-0.000194598
1.52394e-05
-1.72746e-05
3.84115e-05
-0.000102086
-0.0010509
-2.44991e-05
0.0010754
-0.00100729
0.00101868
-1.13952e-05
-0.000936311
-4.32107e-05
-0.000709254
0.000119803
4.56539e-05
0.000247182
-0.000874705
-0.00102371
5.29397e-05
-0.000994899
0.00109249
0.000911214
-0.00022683
-0.000938435
-0.000125972
0.000946096
0.000118311
-0.000394342
-5.69185e-05
0.000576161
-0.000124901
0.00100129
3.16072e-05
0.00044877
-0.000981752
6.16905e-05
-5.56458e-05
9.40433e-05
-0.00102049
-3.41997e-05
-0.000902112
0.00103607
-0.000669319
-0.000124692
0.000118452
0.000103924
5.00484e-05
-0.000135302
-1.29348e-05
7.35742e-06
-1.01554e-05
-1.92024e-05
2.20004e-05
-0.000604171
-8.03476e-05
-5.32473e-05
-0.000750015
-1.76559e-05
1.23504e-05
8.49922e-05
-5.8847e-06
1.03179e-05
-8.90808e-05
-0.000146169
0.000195266
-0.000972339
-0.000417361
-0.000840622
0.000530387
0.000727595
-0.00100911
-0.00105306
-9.20641e-05
5.45779e-05
0.00109055
0.000551845
3.22195e-05
0.00116191
-1.36967e-05
-0.00118044
-0.000690586
-0.00054502
0.000118073
-5.41274e-05
0.000129998
-0.000193943
0.000976569
-0.00103864
-0.000392016
0.000212952
0.0012177
2.00682e-05
-4.22796e-06
-2.61344e-05
0.00020256
-0.00106668
0.000998715
1.29573e-05
8.50258e-05
-0.000115258
-0.00024304
0.000210241
-0.00134824
-2.40328e-05
0.000109642
-5.2237e-05
-6.30892e-05
0.000307992
0.00103174
-6.6685e-05
-0.00127304
0.000171113
4.0511e-05
7.45486e-05
-0.000102102
0.000378933
-0.000261594
-1.75739e-05
3.98886e-05
-3.54575e-05
3.28133e-05
0.000864757
-2.00407e-05
-5.60013e-05
8.15004e-05
-5.45836e-06
-3.30567e-05
-1.47041e-05
-0.000125467
9.31296e-05
-9.18409e-05
9.96229e-05
3.27289e-05
-4.23091e-06
-0.00049336
-0.00010658
3.98975e-05
-5.45987e-05
3.39574e-05
-1.92561e-05
0.000308049
-0.000984788
1.07761e-05
0.000134714
6.72568e-05
9.23176e-05
-5.29729e-06
3.67226e-05
0.000135466
7.26792e-07
-0.00040644
0.000412601
6.34997e-05
-6.48341e-05
-1.63214e-05
-4.42529e-05
0.000127418
7.69139e-05
-0.000160079
-9.40965e-06
0.000114986
0.00040546
0.000924492
-0.000402817
-7.63512e-05
-1.7158e-05
-1.70983e-05
0.000110607
0.00108096
4.10409e-05
-1.44087e-05
-4.15095e-05
1.48772e-05
0.000113663
-0.000100646
8.28734e-05
-9.58904e-05
-7.33814e-05
8.76588e-05
-1.92697e-06
1.60953e-05
0.000115344
-0.000311324
-3.67622e-05
-0.000263458
0.000231249
-0.000198767
-6.10781e-05
0.000162383
1.46828e-05
0.000114026
-4.19208e-05
-0.000208686
-0.000130785
-5.87395e-05
7.23242e-05
0.0001172
0.00117936
-0.000893008
-2.49141e-05
-6.02444e-05
0.000133022
9.86153e-05
-0.000253444
-0.000560187
0.000715016
1.1413e-05
-6.42642e-05
5.28512e-05
0.000104986
-0.000916543
-7.26968e-05
6.48853e-06
3.10294e-05
-3.7518e-05
-6.08541e-05
3.12596e-05
2.95945e-05
0.000132332
-0.000124236
-8.0965e-06
9.6015e-05
-6.38654e-05
-3.21496e-05
-5.01625e-05
2.10889e-05
2.90736e-05
6.86007e-05
-2.67632e-05
-4.18376e-05
0.000140702
-0.000125484
-1.52172e-05
-2.79816e-05
2.2371e-05
5.61061e-06
8.24794e-05
1.35356e-05
-7.10185e-05
2.08559e-05
-1.89227e-05
3.03356e-05
-0.00012209
0.000120419
1.67071e-06
3.37033e-05
-1.78969e-05
-1.58064e-05
0.000137438
-6.20581e-05
3.40764e-05
0.000163853
-1.89477e-05
1.55005e-05
3.44723e-06
-0.000130881
7.00266e-05
3.71906e-05
-3.07021e-05
-0.000185005
-9.59326e-06
4.96517e-05
-2.94907e-05
-2.0161e-05
2.0657e-05
-6.397e-05
2.16028e-05
2.17102e-05
9.10386e-06
7.57063e-05
-5.96984e-05
-5.65747e-05
7.67569e-05
-5.24391e-05
3.52027e-05
0.000136234
-0.000143686
0.000272781
-1.10216e-05
-5.90164e-05
2.65558e-05
0.000147269
4.06773e-05
-4.70416e-05
-8.04439e-06
1.7806e-05
-0.000331065
-0.000637181
-0.000338816
0.000387695
0.00106223
-0.000144527
2.2437e-05
-1.94245e-05
2.05354e-05
-1.11096e-06
-2.66748e-05
1.45162e-06
-2.41774e-06
-1.24064e-05
-2.11519e-05
-1.39628e-05
-1.55279e-05
3.44834e-06
-5.06508e-06
1.23119e-05
8.10276e-05
-4.99982e-05
-0.000339932
-0.000645886
0.000368887
0.000616931
0.00103932
-0.000267024
0.00013303
-1.80072e-05
-2.58021e-05
6.63802e-06
3.71713e-05
2.49382e-05
8.82733e-05
0.000915595
-0.000924912
9.22923e-05
-8.29759e-05
-7.47809e-06
6.86694e-05
-9.10498e-06
-5.20863e-05
3.66158e-05
-2.91249e-06
-3.15869e-05
-4.35467e-05
3.36241e-05
1.02789e-05
-0.000203725
-2.34398e-05
-5.45004e-05
3.4054e-05
4.38862e-05
0.00109717
-0.000287927
2.25227e-05
2.12423e-05
-3.86755e-06
0.00042485
-0.00108409
0.000967235
2.92605e-05
1.74565e-05
3.66149e-05
1.31662e-05
0.000157015
-0.000370591
0.000728773
-4.06613e-05
-2.91745e-05
3.41141e-05
0.000724759
0.000674317
-0.000495467
8.3239e-05
-7.72663e-05
0.000649863
-0.000349461
-0.000300403
-2.54045e-05
2.88039e-05
5.04588e-05
-5.38582e-05
-0.000680091
-0.000130596
0.000416345
-4.30731e-05
2.8711e-05
5.00012e-05
-3.56391e-05
5.95814e-05
3.76031e-05
-2.87022e-05
-7.38073e-05
7.87284e-05
-0.000149653
0.000144731
2.67553e-05
0.000147884
-0.000103595
-7.10443e-05
6.57994e-05
-7.19673e-05
-0.000190057
0.000196225
-0.000149965
-1.68247e-05
9.29824e-05
-5.56661e-05
5.04163e-05
-2.01547e-05
-0.000115276
-1.21612e-05
0.000193237
-5.38038e-05
6.82854e-05
-3.33418e-05
1.88602e-05
7.51814e-05
-3.73287e-05
-7.2825e-05
8.50537e-05
2.51e-05
-0.000146682
-0.000230365
2.38559e-05
0.000134541
-4.6546e-05
0.000106076
3.66162e-05
-3.86254e-05
-0.000104067
8.10145e-05
4.15808e-05
-4.57127e-05
-3.60638e-05
5.50435e-05
2.67329e-05
-0.000133149
0.000182162
2.9716e-05
-0.000133883
-3.3989e-05
0.000114068
-0.000148752
-0.000119786
7.84813e-05
8.87329e-05
0.000273058
-0.000272331
8.88547e-05
-0.000116661
0.000146993
-9.21273e-05
-1.47093e-05
-9.82937e-05
0.000113003
2.63114e-05
3.98005e-05
-3.98117e-05
-2.63002e-05
-1.67878e-05
3.96863e-05
3.4129e-06
-0.000203118
-4.19556e-05
0.00013
7.39371e-05
-0.000203937
-5.34812e-05
7.68833e-05
1.32141e-05
-8.21048e-05
-1.00019e-05
2.08969e-05
2.38423e-05
-1.79839e-05
-4.05771e-05
1.56891e-05
8.10024e-06
7.5563e-05
5.65779e-05
1.57435e-05
-2.961e-05
2.73142e-05
-0.000147357
-1.41507e-05
2.27905e-05
6.69232e-05
-7.95612e-06
3.33825e-05
-4.52947e-06
4.53854e-05
-3.04557e-05
8.9126e-06
3.44712e-05
7.08726e-05
4.40993e-05
0.000286684
-0.00028914
0.000265589
-0.000263133
0.000150783
1.17816e-05
-0.000162565
5.76151e-06
3.52084e-05
-9.09771e-05
-7.72032e-05
8.39255e-05
7.43881e-05
1.90073e-05
1.6325e-05
-8.32359e-06
6.63866e-05
3.88746e-06
-0.000475014
-0.000106956
0.000242038
-3.56439e-06
-0.000133791
4.63788e-05
5.50011e-05
-8.17491e-05
0.000525297
-0.000275551
0.000122054
-0.000114484
3.72903e-05
-4.486e-05
-4.41963e-05
1.84088e-05
0.000872475
-0.000222612
0.000115018
4.80655e-05
-0.000166648
5.45034e-05
2.92086e-05
-0.000834259
0.00071367
0.000678326
-0.000838269
0.000590211
-0.000482167
0.000247253
1.45865e-05
-0.000146173
0.000131587
-0.000164988
0.000131809
-6.43055e-05
5.45504e-05
-0.0001522
0.00102468
-0.00110851
-0.00115028
0.000143
-6.79058e-05
-0.000165577
-8.34292e-05
0.000121244
9.10391e-05
-2.74002e-05
-8.02574e-05
1.66184e-05
-2.61405e-06
-9.16294e-06
0.000105401
-9.36244e-05
0.000100197
2.98022e-05
1.90368e-06
0.000151074
-2.91106e-07
5.49786e-05
3.53479e-05
-4.03253e-05
-0.000788597
0.000944941
0.000557327
4.90072e-06
-5.41939e-05
0.00013689
4.91135e-05
-0.00042983
0.000100914
0.000328917
0.00019508
-7.019e-05
6.24231e-05
-0.000187313
9.46478e-05
-8.91032e-05
-0.000930456
-4.75169e-05
4.99612e-05
0.000192635
-0.000117824
8.24605e-05
0.000518881
0.000164256
-0.000683137
-4.07368e-05
7.94573e-05
2.95649e-05
-2.46139e-05
-8.44903e-05
7.17755e-05
-0.00011002
1.25811e-05
0.000209783
-0.000221565
4.15841e-05
4.71069e-05
6.23751e-05
2.26232e-05
-3.51795e-05
-0.000172868
0.000168615
3.96124e-06
0.00025777
1.52882e-05
4.17448e-05
0.000216025
8.56824e-06
0.000175103
-8.02813e-05
5.24222e-05
1.00056e-05
-0.000171092
0.00047994
8.9051e-05
8.52754e-06
-7.08496e-06
2.00036e-05
7.75368e-05
-0.000225165
-0.000196549
5.84142e-06
0.000221243
-0.000213896
-6.79722e-05
7.19093e-05
1.35194e-05
-8.10561e-05
-5.50486e-05
8.19108e-05
-0.000115112
9.27693e-06
8.39623e-05
1.39113e-05
-6.55044e-05
-3.23692e-05
0.000145633
-0.000144286
-0.00021531
2.73289e-05
0.00016033
4.90859e-05
-0.00113373
-8.54322e-06
-0.000935906
-0.000328594
-0.000175133
6.11884e-05
-1.72731e-05
5.34955e-05
6.80352e-06
-3.29906e-05
-2.72662e-05
3.38685e-05
2.63882e-05
0.000163652
4.66391e-05
-3.15513e-05
3.07747e-05
-0.000264994
0.000342016
0.000448869
-0.000525891
-2.93282e-05
-9.26334e-05
3.74713e-05
-4.98247e-05
-0.00019909
-3.74317e-05
-0.00015681
0.000167472
-3.80622e-05
0.000122417
-0.000963101
-2.24867e-05
0.000994716
-1.26337e-05
7.32471e-05
1.08181e-05
-4.87173e-05
4.48315e-05
-6.02481e-05
1.03224e-05
4.99257e-05
0.00098903
-0.0010407
-2.907e-06
9.96123e-05
2.96273e-05
-1.39989e-05
-7.34109e-05
1.84772e-05
-2.93388e-05
-2.28407e-05
3.37023e-05
4.39532e-05
-1.5387e-06
-0.000334689
3.9338e-05
-7.40345e-05
5.03855e-05
0.000124292
-0.000161087
0.000130289
-0.000109099
-2.71338e-06
0.000584995
-0.000311777
-6.29193e-05
-3.4462e-05
6.73242e-05
3.00571e-05
-9.70884e-05
9.77571e-05
-4.04803e-05
-0.000860959
6.53605e-05
0.000166585
8.23397e-05
-0.000173219
2.27618e-05
-0.00016211
-0.000125798
-1.08048e-05
0.000136603
0.000134177
-6.20553e-05
-7.95993e-05
0.000265971
-0.00036438
1.83837e-05
-4.10172e-05
0.000216328
-0.000135758
4.06114e-05
0.000162142
-2.05914e-05
-0.00016259
-3.52234e-05
0.000134893
0.000274915
-0.00101079
0.000137664
-2.55964e-05
-0.000742265
2.03616e-05
-2.90676e-05
6.84087e-05
2.17331e-05
3.05175e-05
-4.11667e-05
-1.10839e-05
0.000161546
4.69375e-05
3.25455e-05
-9.20451e-05
0.00110501
2.37686e-05
8.15545e-06
-0.00105372
-4.03753e-05
-0.000110265
0.00021357
-8.179e-05
0.000326589
0.00022694
0.000250083
0.00124872
0.00110534
0.000174766
0.000212239
0.00110606
6.16481e-05
3.82143e-05
-4.89842e-05
-5.3406e-05
-8.77699e-05
-0.00019167
-0.000922041
0.000122773
0.000107661
1.08387e-05
-6.55016e-05
5.30295e-06
-6.06071e-05
-3.6741e-05
3.82203e-05
8.21338e-05
3.98575e-05
0.000129199
8.63242e-05
6.79574e-06
-0.000223088
0.000108354
-1.29625e-05
-8.45731e-05
-0.000233592
0.000245662
-5.30866e-05
0.000857988
-0.000179357
-0.000654437
-2.41933e-05
-0.000768903
0.000708028
0.000335789
8.71036e-06
-4.37433e-05
8.73275e-06
-1.50639e-05
4.04179e-05
2.38611e-05
1.96804e-05
-0.000256604
0.000345689
0.000158717
-0.000986715
0.00010931
0.000651281
-0.000659677
4.95012e-05
0.000396184
-0.000403941
-2.07296e-05
2.30283e-05
1.10488e-05
-7.06407e-06
6.9685e-05
-0.000109499
-5.53917e-05
9.52062e-05
-1.8584e-05
1.16149e-05
0.000104344
-0.000122268
-8.99329e-05
2.48402e-05
0.000119059
-3.02364e-05
-7.88875e-05
7.4302e-05
0.00083453
-0.000121733
0.000109487
8.19306e-05
2.47721e-05
-3.51801e-05
-7.45292e-05
4.02489e-06
0.00010022
-0.00100915
0.00104277
-0.000282132
-4.41462e-05
-0.000251501
-6.11501e-05
2.99883e-05
0.000135506
0.000104505
-7.88486e-05
-0.00096813
-0.000199467
2.11542e-05
6.16373e-05
3.70744e-05
0.000790396
6.41389e-05
0.00105751
-0.00102463
7.20189e-05
-8.75029e-05
-4.56661e-05
0.000136177
3.99592e-05
0.000450264
-3.60848e-05
3.39633e-05
-0.000448143
-0.000309113
8.96339e-06
2.52417e-05
-2.54947e-05
-0.000165534
3.89392e-05
-3.44094e-05
3.57149e-05
0.000583305
-4.76388e-05
-5.82484e-05
8.50939e-05
1.69133e-05
-1.36152e-05
-4.23224e-05
2.66468e-05
2.62436e-05
3.94272e-05
0.00020988
-0.000170508
0.00100985
-0.00126425
0.000278173
9.0131e-06
-3.61496e-06
0.000723261
5.6436e-05
0.000946322
0.000277109
-9.92118e-05
-0.00112422
-0.000107283
3.88329e-06
3.75629e-05
5.14501e-06
-9.32091e-06
-5.86689e-06
3.60366e-05
-2.08488e-05
-4.92253e-05
0.000132596
-0.000159126
7.57552e-05
-0.000185482
0.000170113
0.00133612
9.79051e-05
4.33972e-05
3.46745e-05
0.00132652
0.000170242
-3.79499e-05
-5.77182e-06
0.000124726
1.27653e-05
-1.25514e-05
-0.00103316
8.03806e-05
-7.71743e-05
-1.94258e-05
4.30995e-05
1.38892e-05
-0.000985015
-0.00117134
0.000746265
-0.000102517
-8.53293e-05
-9.62428e-05
1.09572e-05
2.53258e-05
5.99597e-05
7.67341e-05
-5.2479e-05
-7.76909e-06
0.000160479
1.62582e-05
3.1634e-05
2.33361e-05
-5.01187e-06
0.000120337
-5.17216e-05
0.000164958
9.13637e-05
-0.00011159
-3.49554e-05
4.21694e-05
3.17251e-05
5.13476e-05
8.38339e-05
1.51284e-05
-4.79821e-05
3.37013e-05
-9.18739e-05
-1.2585e-05
-8.11034e-07
-0.000135784
5.11252e-05
1.97011e-05
-4.20063e-06
-4.47703e-05
4.13701e-05
0.000862698
0.000137939
-0.000123906
-0.000814349
7.39415e-05
2.52343e-06
-1.63417e-05
0.000459411
0.000405733
0.000159981
-0.000106444
0.00108554
-0.000468896
-2.4083e-05
3.33211e-05
-6.03282e-05
0.000151515
-6.0002e-05
-5.55397e-05
7.60702e-05
-4.93281e-05
0.000133321
-3.41229e-05
2.19917e-05
-0.000727649
0.000678343
4.93061e-05
5.10952e-05
-5.06076e-05
-5.43458e-05
-1.08608e-05
0.000343721
-1.37024e-05
0.000894299
0.000148941
-0.000789564
6.1915e-05
5.06107e-05
0.00107648
-8.88787e-05
-0.000951824
0.00101822
-0.000331733
0.000570606
4.42243e-05
-0.000283098
-0.00014777
-1.09997e-05
2.79851e-05
5.79175e-05
0.000620426
-8.13993e-05
0.000252833
0.000108137
-0.000279571
0.000145914
-4.71056e-05
4.03418e-05
-0.00013915
-0.000180832
4.1633e-05
0.000139199
7.63602e-05
-4.9772e-05
0.000113707
7.22987e-05
0.000102444
2.06112e-06
-0.000225044
4.42119e-05
-0.000269635
0.000329018
-0.000380506
-0.000280245
-0.000892615
0.000189305
7.98309e-05
-5.28083e-05
-0.000253707
-5.5077e-05
3.8315e-05
5.62199e-06
2.4557e-05
3.16586e-05
0.000348382
-7.5154e-05
0.000391602
0.000537162
5.41147e-05
-0.00011032
-2.26431e-05
-0.000473769
0.000453702
2.00673e-05
8.25919e-05
-0.000872156
6.81775e-05
-0.000120564
0.000132478
-1.19971e-05
-0.000349827
0.000859912
-0.000315889
0.000355728
-0.000387358
-0.000193284
1.34233e-05
-3.88704e-05
-3.30201e-05
0.000878454
-0.000194655
0.00035552
-0.000961255
0.000657365
0.000633319
-0.0010701
-4.98262e-05
0.000555274
0.000178528
-0.00013775
-0.000638455
0.000594431
0.000534235
-0.000632105
0.000351067
0.00058538
-0.000266889
-0.000267212
0.000144037
0.000244419
-5.4517e-05
-5.78748e-06
-0.000639565
0.00076802
-0.000497263
2.34943e-05
-0.000208671
5.54835e-06
0.000386286
0.000553107
-5.85304e-05
3.99264e-05
-3.4802e-05
-5.40247e-05
7.74536e-05
7.17772e-05
7.18785e-05
-0.000118425
0.000438757
1.49447e-05
-2.21812e-05
2.38103e-05
-1.095e-05
0.000112579
-0.000141085
-7.02648e-05
-5.29978e-05
-8.71647e-05
3.95166e-05
3.70645e-07
-8.44222e-06
-2.89894e-05
-0.000416827
-0.000313446
2.68084e-05
4.46515e-05
4.72031e-06
-0.000555757
0.000118762
-0.000135345
-6.97327e-05
-4.87998e-05
-3.47253e-05
5.67708e-05
-8.1813e-05
0.000117122
8.31432e-05
-0.000919262
0.000124543
-8.61004e-05
0.00010995
-0.000169447
0.00101353
-0.00096179
2.26668e-05
-1.79206e-05
9.62063e-05
9.07347e-05
0.000221289
0.000369254
-0.00109016
2.96351e-05
-9.62208e-06
7.58278e-05
1.26813e-05
2.1435e-05
-2.45778e-06
0.000932204
0.0001397
8.88817e-05
6.69904e-05
-1.49785e-05
3.46796e-05
-2.95631e-05
-5.34223e-06
-0.00100771
0.000675198
7.11584e-05
-6.12741e-06
0.000141168
7.62597e-06
0.000141838
9.20872e-07
9.2891e-06
0.00111894
6.95105e-05
-0.001084
-0.000571008
0.000721859
1.15812e-05
4.05913e-06
8.38832e-05
-0.000108535
0.0001617
0.000503388
-0.000728109
0.000224722
0.000435796
6.75912e-05
0.000446855
-1.10586e-05
-0.000310092
0.000467107
-0.000680683
-0.000604107
-0.00050547
-9.86372e-05
4.95715e-05
-0.000109773
-5.52889e-05
3.12894e-05
-0.000938696
-0.000121179
-0.000102451
2.15658e-05
-4.79313e-05
1.71971e-05
-1.14827e-05
-5.94115e-05
-4.56054e-05
3.9333e-05
7.6299e-05
-4.57028e-05
4.97798e-06
1.405e-05
-1.6781e-05
1.97609e-05
-0.000154733
-2.9473e-05
0.000439524
0.000820759
-0.000114314
-3.6688e-05
7.33038e-05
-3.50126e-05
0.000194778
-0.000169387
-0.000234011
-0.0010044
0.000150239
-3.22e-05
0.000219321
-0.00047765
-2.78195e-05
0.000292145
-0.000151077
-0.000636535
0.000133686
6.05782e-05
-4.75313e-05
-3.31685e-05
-0.000118371
-5.14716e-05
9.54666e-06
6.85718e-05
9.82205e-05
-0.00115453
0.00104261
-6.42311e-05
0.000136667
-0.000148701
-2.40493e-05
3.60839e-05
6.36399e-06
5.20361e-05
-1.62317e-05
-0.000108004
9.68583e-05
-6.15036e-05
7.91792e-05
-0.00119364
1.81176e-06
0.000684034
-0.000383527
4.39694e-05
-8.5002e-05
-7.91563e-05
-7.47115e-06
-3.48136e-06
7.96191e-06
-1.39868e-05
6.94575e-06
-0.000118626
0.000117153
-0.000139269
-1.45624e-05
-0.000176538
6.66201e-07
-0.000618291
-0.000391894
5.38981e-05
0.000153891
1.13147e-05
-0.000122978
7.56e-05
7.02351e-05
6.96703e-06
-0.000122808
0.000989896
0.000173131
3.07581e-05
0.000147214
8.5482e-05
4.53384e-05
-0.000141399
-3.9242e-05
-0.000804019
0.00112446
6.39494e-05
-8.66274e-05
-3.6165e-05
-5.40413e-05
-5.88287e-05
2.36698e-05
-4.99193e-06
0.00104083
-1.30928e-05
4.59241e-06
-9.41979e-06
5.43723e-05
0.000162302
-0.000105527
-0.0001152
9.5515e-05
-0.000860588
4.11258e-05
0.000651682
8.31797e-05
-1.91367e-05
-2.36605e-05
0.00108964
7.06777e-05
4.20366e-05
9.43813e-05
-0.000395736
3.98354e-05
6.36229e-05
-9.29777e-05
6.19458e-05
-0.000136193
0.000122325
9.08566e-05
-0.000136051
5.10032e-05
6.37966e-05
2.09152e-05
0.000131293
-6.75014e-06
-0.00015478
0.000144481
-0.000965485
0.00103097
-0.000249969
0.000184487
-1.71677e-05
8.27637e-05
3.32956e-05
-5.66714e-05
0.000146837
-0.000247429
0.000575723
-0.00050234
-0.000193078
-2.90363e-05
-2.33229e-05
-7.55076e-06
-4.74147e-05
4.76375e-05
-4.99375e-05
-0.00116128
-0.000107615
-6.00747e-06
-0.000216339
-2.40579e-06
4.0059e-05
-0.00107302
0.000971772
1.66559e-05
-1.69547e-05
0.000995015
-5.66494e-05
0.000558821
-0.00048251
-7.63109e-05
0.000445179
8.53888e-07
0.000115116
2.04706e-05
-4.19911e-05
4.45489e-05
-0.000898666
0.000908339
0.000201617
-0.000125024
0.000199585
-0.000244646
4.50609e-05
-0.000148732
9.49159e-05
5.08527e-05
-0.000281091
3.64456e-05
4.97706e-05
2.11365e-05
0.000320445
-0.00106803
5.89232e-06
5.14499e-06
-5.3608e-06
6.46114e-06
0.000164764
-0.000151369
2.3463e-05
3.21405e-06
-2.6677e-05
-3.88124e-05
0.000246412
-4.39427e-05
1.06092e-07
-0.000339281
7.80256e-07
-0.000113032
-0.000628936
0.000459465
-1.90722e-07
-4.0413e-05
-2.08962e-06
7.98195e-06
-0.000118415
3.2568e-05
-3.40957e-05
0.000516068
1.84938e-05
9.06577e-05
-4.2252e-05
9.69781e-05
-6.71325e-05
3.8727e-05
-9.28937e-05
1.2353e-05
1.99336e-05
1.92352e-05
4.22779e-06
-6.3314e-06
4.24179e-06
9.30184e-05
9.01043e-05
3.57844e-05
-2.73293e-05
9.48771e-06
-5.96435e-05
-1.49693e-05
-3.11653e-05
-4.47423e-05
0.00046608
-0.000479944
-8.84896e-05
1.36586e-05
-0.000257669
1.29701e-05
6.26508e-06
-2.95188e-05
-4.59916e-05
0.00105351
-1.55173e-05
-0.00101511
-0.000161986
0.000187994
0.000625273
-9.67728e-05
0.000386377
-0.000204908
-2.06701e-05
3.37483e-05
7.62838e-06
0.000297278
2.74024e-05
-2.281e-05
-0.000222155
0.000315174
-1.80975e-05
5.38819e-05
0.00141038
-0.00113988
-4.77262e-05
-0.000925126
-7.43929e-05
-3.28615e-05
-1.60465e-05
0.000147353
-1.80994e-05
0.000548115
-0.000719688
-0.000102958
9.61236e-05
3.80501e-06
1.9076e-05
0.000119252
0.00016693
-8.24787e-05
-0.000887998
-9.60342e-05
-0.000103692
-0.000371635
0.000391581
-0.00018994
0.000589419
0.00092455
-0.000265246
-1.98654e-05
-2.08797e-05
-1.30118e-05
-0.000231892
0.000166236
0.000683838
5.80183e-06
6.52084e-05
0.000141426
-1.01325e-05
8.10564e-05
0.000171006
2.39482e-05
-2.70893e-05
-0.000145627
-0.000329178
-6.63813e-05
0.000351413
-3.66037e-06
1.12281e-05
7.73167e-05
0.000103333
6.70262e-05
7.66853e-05
8.89329e-05
0.00014081
3.24045e-05
0.000899867
-0.000912205
-3.97264e-05
-3.34604e-05
1.78346e-05