/*--------------------------------*- C++ -*----------------------------------*\
| =========                 |                                                 |
| \\      /  F ield         | OpenFOAM: The Open Source CFD Toolbox           |
|  \\    /   O peration     | Version:  v1912                                 |
|   \\  /    A nd           | Website:  www.openfoam.com                      |
|    \\/     M anipulation  |                                                 |
\*---------------------------------------------------------------------------*/
FoamFile
{
    version     2.0;
    format      ascii;
    class       volScalarField;
    location    "0.19";
    object      epsilon;
}
// * * * * * * * * * * * * * * * * * * * * * * * * * * * * * * * * * * * * * //

dimensions      [0 2 -3 0 0 0 0];


internalField   nonuniform List<scalar> 
1431
(
1.9644
4.57316
17.3895
10.3783
0.951888
0.865632
3.8473
159.827
1.04716
3.79724
148.983
102.214
3.23102
7.58692
1.88706
4.05794
8.06764
0.474948
11.8924
3.03059
319.741
11.5557
1.51976
65.536
1.35383
4.26049
96.2887
1.46146
4.22155
6.54282
3.40424
2.70003
3.25844
3.06339
1.42676
2.54745
8.40929
0.400931
4.18739
2.24083
4.74164
5.61412
4.25757
9.57768
2.25056
1.26699
6.32457
81.7722
4.56511
1.43405
4.35646
9.52789
3.76207
149.4
2.3174
4.4457
1.0857
134.886
6.34191
0.603618
1.7367
6.05594
1.37717
0.596568
6.38797
4.60546
0.809607
1.67631
0.559055
16.0505
82.8412
4.48409
3.45166
2.65027
9.26999
1.66316
4.20733
0.732901
3.04962
0.309128
7.79549
1.06274
3.02408
4.8382
20.2466
10.3626
2.73661
1.4879
8.3421
5.97035
2.9926
1.46155
0.505256
4.52719
1.64614
5.86423
152.086
6.46094
9.49143
0.53456
2.8585
6.653
7.7452
0.282429
0.465583
10.3491
4.79303
108.575
1.75194
6.35638
0.35894
2.44829
41.0533
3.80259
2.67417
1.17292
6.87884
5.84483
4.10447
0.982038
22.3317
2.50704
105.48
12.3695
57.9438
3.10609
8.19015
1.39623
14.224
1.85048
11.179
0.807738
1.61627
12.4528
5.39545
1.44916
0.732129
7.30765
26.509
0.39697
2.55426
3.66073
8.42501
0.311057
2.20856
3.38435
1.87824
3.16693
3.27582
1.63628
1.45451
0.829639
2.41161
4.47757
3.59751
0.443542
16.3552
8.59605
4.59244
1.88234
21.1916
3.02821
3.07304
1.95233
75.0952
1.9958
2.68065
1.71526
1.01797
4.29999
12.7062
2.23042
2.32248
23.5768
5.7175
15.4815
1.52626
1.1141
3.9765
1.95747
4.41167
8.2528
4.98278
163.234
1.08516
10.4451
59.4238
6.96448
4.81629
13.2803
4.68269
4.36238
3.06035
211.044
4.53951
8.60501
9.56287
2.29055
0.3685
2.00004
7.36253
2.75834
102.736
2.33618
2.45355
5.47281
5.124
0.546924
31.5654
1.39039
45.9578
3.71426
4.48322
10.706
22.0909
1.69683
3.05172
2.60159
2.59801
99.7829
3.17603
5.10079
6.75922
2.30922
3.91928
50.9365
102.697
4.91989
3.37582
58.7586
91.5157
3.30596
10.9457
2.78645
2.8644
10.3669
4.1187
10.4993
4.3332
6.59027
2.0364
2.66619
38.9831
8.15335
5.12797
25.4225
9.50067
94.0677
3.43041
0.690612
1.23239
19.4535
1.99211
2.75534
5.06207
4.24875
2.11745
73.001
12.7017
3.27693
6.7246
23.5766
3.35336
1.57102
4.75831
125.923
0.923868
351.659
80.0514
1.00903
2.10339
3.65095
3.73679
6.30153
23.2724
2.39117
23.212
44.1669
10.7683
5.99285
2.03576
6.7962
3.5008
4.5751
1.97579
5.14102
4.90267
8.91955
20.979
7.04082
0.371249
0.988607
8.03793
1.93571
32.7398
3.78657
88.2231
11.7307
3.00341
12.0068
3.17328
0.407588
3.40664
2.96245
25.1201
2.25961
7.85072
4.09721
6.64945
3.90997
9.22925
2.72471
5.70964
141.332
0.87731
10.2774
2.21444
2.12849
0.878628
683.939
8.07395
9.60946
0.760396
1.54211
1.4088
24.5412
0.627868
1.32562
156.665
2.57725
17.1872
1.09189
1.11131
17.1932
1.83033
3.10814
2.09598
8.83815
1.25752
65.8065
0.442146
3.18553
9.15647
4.26619
0.956195
7.34751
5.84349
19.4233
6.77048
2.36935
1.9185
1.46479
1.65865
4.32625
1.43024
2.19378
33.048
33.8904
17.7283
5.24334
13.7486
8.2987
14.3755
3.19429
0.63513
23.4052
1.20066
276.444
4.87537
5.95302
123.458
1.1875
8.4714
3.24543
3.82989
137.305
7.17118
2.50124
32.9521
189.501
2.94998
1.00272
3.69533
1.55936
533.552
0.812927
3.0198
1.07366
1.62954
2.49976
2.39094
2.71942
2.52813
2.40253
15.5857
1.9861
1.43393
1.44924
1.37981
0.794014
4.04952
3.51879
12.1608
3.56191
7.65486
1.31669
0.835712
1.94359
1.80111
1.32688
6.1734
1.69593
1.3568
6.8078
0.987848
1.49717
2.45838
1.50561
0.941882
1.43274
5.24303
4.04496
3.41125
2.84024
1.55908
1.46108
3.20433
28.0895
36.3705
42.4857
13.9066
14.6282
12.141
14.7023
10.6481
8.73719
10.8143
6.02538
7.06859
4.77187
1.78003
28.2873
1.57378
1.46923
1.32123
1.17873
0.654786
0.58811
4.45207
8.07184
6.51858
1.74074
8.15192
0.776336
9.34277
6.59069
12.8787
84.5514
0.836208
3.22689
9.50441
1.48627
80.8248
8.35956
2.02153
1.38739
0.558309
79.3973
1.51162
79.4836
7.64803
8.49396
0.275038
22.7869
28.4586
23.4851
1.66721
0.867416
0.881024
6.43049
25.873
0.694762
30.8224
3.1626
0.630907
24.5279
0.386564
0.877067
11.7733
0.436028
38.3606
4.44697
18.4622
0.819444
27.6059
1.00411
29.7173
44.1794
5.89493
2.41808
15.4806
3.02925
0.740681
32.3704
43.6005
25.6658
1.65524
4.34274
6.95425
1.47998
1.67947
40.4305
2.88749
33.056
55.7303
5.46803
20.2021
1.38856
40.3694
29.9909
5.83362
6.40346
1.89058
2.49174
2.64267
3.23124
43.3714
2.21025
1.44377
1.89076
7.83483
6.77097
3.57594
65.1913
2.23562
41.9608
2.55559
6.56607
2.26549
1.6153
1.67172
11.2531
3.48851
6.17374
2.35748
2.42101
4.10249
8.34828
1.5135
3.16095
2.79188
19.5253
3.10128
1.73063
1.62462
34.0137
3.07104
11.7046
7.0017
434.779
4.36442
33.9615
11.1605
1.90617
644.562
1.7319
2.99617
2.12201
11.3571
2.64719
1.94068
17.3739
5.74299
3.96126
1.26722
2.01165
3.44243
3.76939
8.96347
16.8994
1.85903
10.5073
3.41094
2.86698
3.16063
3.03291
6.60401
5.95487
2.3157
1.45464
10.7718
4.89298
5.29048
2.74894
3.96708
1.76056
27.1353
2.87298
7.56191
26.719
13.0208
3.27951
1.17564
6.04535
4.15039
1.2605
128.566
4.96642
6.26932
1.46235
3.40424
1.96195
2.33055
7.19257
1.57381
1.65673
22.4656
1.80827
25.5718
2.15192
3.24501
7.69787
0.926072
1.90841
2.22999
2.76531
1.69122
1.13644
6.5526
3.02896
2.74349
4.49087
7.41683
4.77232
2.02775
3.11441
124.225
2.80671
2.31182
6.59471
1.6091
12.5052
3.48304
1.33396
4.08463
2.43178
2.79824
1.53501
64.2039
5.46916
15.0192
5.70875
3.71677
3.82738
1.48332
1.30008
1.19362
4.50474
43.2054
11.1773
17.8611
1.42755
3.42957
2.12969
8.89697
35.9096
6.44692
41.0347
4.09003
1.58742
1.75971
1.87747
30.6018
3.67485
19.7357
14.117
32.1433
17.3666
1.62501
5.32044
5.56893
2.00638
3.1952
29.6918
1.49022
3.26915
8.43806
1.81449
1.76238
3.37743
81.066
8.71896
3.18555
3.31762
3.4482
8.78172
4.51907
4.58449
3.63535
14.7853
3.91379
2.7465
1.77025
3.33652
3.4906
33.9016
3.61968
4.18354
5.10701
0.763166
1.56131
2.84085
21.4442
4.03024
39.1733
3.10652
8.69689
3.21947
6.23049
1.85733
3.46725
5.81227
18.6647
2.33788
0.476952
1.82368
38.5606
5.30525
89.035
220.307
1.02635
2.8772
27.3136
4.05868
103.957
9.04861
2.77634
4.97462
29.013
2.91866
4.08071
1.25372
4.59104
2.84596
14.4296
1.47976
13.9723
0.423122
1.46194
8.97258
2.0426
5.66819
1.63642
9.64282
115.46
1.34329
2.32597
1.37053
0.858436
2.57723
110.924
82.6617
10.2853
7.05797
0.708597
4.93087
5.86286
5.13422
1.07467
5.48834
6.85753
10.7545
1.30835
2.3113
1.92621
3.36777
3.60145
1.7535
0.979056
0.953406
2.47555
0.413489
2.29871
1.61964
3.47676
30.7241
1.27253
3.33248
2.34969
2.5847
63.0653
7.04081
4.26266
1.15503
5.0014
3.74857
6.25345
11.3671
6.7778
2.47895
2.30692
16.4014
0.734954
16.621
11.2838
704.857
6.18371
0.773054
1.56459
1.29961
332.427
2.2163
6.16125
19.2065
3.58458
94.159
14.0042
1.5067
8.49322
1.61732
0.431243
95.4183
1.98249
2.18794
3.65773
4.0311
3.01376
3.59249
1.26981
8.71552
7.19343
5.51989
29.3388
2.40758
4.05337
146.976
5.55274
10.7893
1.70776
3.71023
2.33168
0.645044
0.54648
7.48305
1.99905
11.9219
0.388502
179.1
2.04534
18.5958
5.43453
4.2273
3.00755
4.24954
1.65773
1.67619
1.72908
4.84809
8.74785
0.911876
4.04361
2.39483
2.84496
2.84653
4.00506
0.847117
5.65141
2.93703
18.2746
0.860682
3.11094
610.763
1.1167
4.06806
7.78287
0.64719
3.66308
2.79884
0.771108
2.68728
80.1461
9.2752
2.08974
81.2066
420.351
124.49
139.365
68.6368
3.83017
4.03604
4.29675
4.20992
84.8744
3.74308
5.43842
4.4256
4.97784
5.60018
42.891
97.2938
5.37479
16.3792
24.1433
5.2199
3.84532
3.97272
5.29263
4.09194
4.10755
5.50517
4.02553
7.0046
21.5016
1.53838
35.2189
1.30307
11.1453
5.80598
58.7864
4.56152
9.13736
7.43061
1.33193
2.32966
158.229
29.4141
1.36561
21.5468
3.38954
6.0588
4.93499
2.5414
110.351
0.976047
3.95218
1.4384
2.33812
3.11338
6.73427
15.7257
5.97386
10.289
5.30956
2.67913
1.65436
2.57679
34.1173
1.41
8.67233
1.42711
12.0541
2.23915
4.30533
5.96879
27.0415
3.8058
0.954036
7.59094
0.842003
0.907666
1.31964
17.3131
1.85586
3.35193
3.75731
0.29547
16.4049
2.85214
4.25182
1.26312
3.65045
3.09603
8.98432
30.6877
0.418466
12.1016
0.35382
17.8787
9.41596
681.146
1.0223
8.04177
5.19458
166.404
1.03195
7.09977
7.21359
2.74687
2.79587
1.08833
27.2666
1.94306
10.3157
449.368
28.9332
4.07268
1.00333
10.7916
13.3499
20.6379
4.62251
11.8306
1.42969
4.56438
53.9882
19.1752
113.758
6.22819
5.85471
1.74064
18.724
3.0999
16.5452
0.966779
1.83159
6.56715
3.00893
2.66472
2.67159
2.50239
23.0684
493.781
3.75308
4.24171
7.81308
1.80324
1.10084
152.156
5.76282
0.915729
3.23169
22.9793
18.8206
6.22648
5.94884
3.0951
2.1867
6.23896
13.185
4.44174
2.48523
3.91295
15.692
4.48289
1.4767
5.77517
42.2825
8.08925
121.112
30.1303
1.16776
49.4525
1.008
1.67197
1.33312
3.42302
2.72053
2.5199
2.41004
6.86788
0.760985
21.8917
4.12793
24.6669
1.18234
5.07906
4.25333
12.7838
0.841226
13.019
10.9352
2.27792
12.3689
4.21275
8.56165
9.59759
10.8131
13.2959
15.1678
15.9845
12.0448
16.1509
4.77766
5.58476
6.67162
5.07648
6.39006
6.46738
2.30221
8.73834
5.74227
10.6427
1.95097
5.81658
2.51786
22.6894
1.68857
5.26229
2.33553
7.69414
2.86774
1.88221
3.44182
0.972741
1.06059
1.97521
19.3293
3.62805
0.867244
46.2819
5.59573
2.32046
507.951
2.81866
0.852212
1.5866
2.1516
0.489009
2.67646
20.8673
0.544918
0.887109
2.90238
1.35084
6.61992
6.14765
9.36921
0.730121
2.79215
17.8128
0.630476
19.7571
2.43513
6.81732
0.365907
14.5698
5.99262
221.78
1.26375
20.5169
44.2389
1.66582
13.345
5.78944
0.921984
4.59592
29.0409
3.16214
1.4434
7.61137
62.6122
3.17789
6.10301
8.56969
1.125
3.86589
3.02802
2.17357
2.11747
25.799
47.9291
29.594
3.73576
4.39964
6.9726
6.1895
5.35235
1.05858
5.49336
8.7816
0.276994
68.0115
2.06838
8.23256
25.5417
3.30976
7.18037
2.36949
3.48001
5.77125
174.586
75.4985
1.06002
1.18967
1.53342
1.69914
21.5419
5.3493
21.6604
7.15035
1.87398
21.5724
108.158
3.82262
2.61835
1.81924
0.972835
2.84272
167.167
0.916481
3.80436
27.3487
12.3562
1.14752
2.47489
5.66015
12.0004
11.9601
8.36857
4.64354
1.84471
5.55536
18.2229
3.36786
1.22223
3.38604
2.49031
16.9969
1.71297
14.0644
1.23692
2.39689
3.22282
2.55604
12.0249
12.2228
1.84453
0.789378
6.97891
2.72316
345.572
5.73267
2.05516
2.59445
34.542
2.667
5.81239
2.19997
7.65679
3.16742
1.70372
2.45587
2.89532
3.76821
7.00013
6.8007
6.35453
6.53338
1.57666
91.399
2.51976
172.384
0.874042
2.39582
1.70449
2.18245
5.55998
0.914771
44.058
6.01707
6.0807
2.68915
230.165
2.44326
2.69917
1.46121
2.20191
7.83401
2.60586
3.73466
7.71363
1.36931
12.0538
16.5481
4.18074
2.62397
0.920175
2.20219
130.105
7.1017
4.26632
10.0941
13.8272
1.48731
16.2686
6.14462
3.29824
156.28
1.90099
0.30016
20.2774
1.21819
93.2858
6.78017
11.427
1.63107
151.11
5.02557
4.81792
1.17793
286.965
0.912925
1.34952
1.22639
1.15835
23.927
1.95669
127.403
6.55249
8.51935
2.27435
235.024
4.93405
173.258
5.34772
0.491127
6.78021
131.246
132.14
8.80849
36.9646
2.1627
1.5814
1.83407
6.89723
0.932325
31.0969
2.94868
1.87553
34.635
219.055
3.12393
13.2117
4.15489
13.2679
5.51468
5.23925
1.10935
147.01
4.31319
2.28378
3.87636
2.16619
10.1356
6.66759
1.01979
4.35874
7.69655
6.3555
195.884
7.96293
0.907227
0.994751
1.25465
4.85242
2.43489
5.79794
0.802364
7.20866
2.63385
3.28607
2.57944
6.20304
2.48332
4.14054
3.92444
27.0824
3.21924
5.58767
0.85063
12.1119
11.7037
3.80853
3.99335
2.6857
3.72147
5.00739
6.33196
8.43531
3.62112
2.5669
12.1422
7.9317
1.06504
3.4648
1.39505
1.42113
1.26659
0.828946
1.01324
7.72098
12.1261
4.48104
10.873
1.92208
6.04306
12.8556
2.21767
5.26649
4.39095
9.39267
1.93148
87.7778
0.791647
5.5634
29.5377
0.976618
2.11466
1.46585
2.4226
2.37189
5.15467
20.6492
89.4505
26.1596
5.24562
2.47957
5.13946
8.24251
6.13624
3.0658
1.2419
2.02129
7.9253
3.12326
2.15371
1.48698
7.63326
3.19391
1.17335
1.26915
)
;

boundaryField
{
    frontAndBack
    {
        type            empty;
    }
    wallOuter
    {
        lowReCorrection 0;
        type            epsilonWallFunction;
        value           nonuniform List<scalar> 
96
(
4.22155
6.54282
5.86423
30.6018
32.1433
29.6918
3.37743
3.31762
3.4482
4.51907
3.63535
3.91379
3.33652
33.9016
4.18354
4.97462
29.013
4.08071
3.60145
3.47676
3.74857
3.65773
4.0311
5.51989
29.3388
68.6368
3.83017
4.03604
4.29675
4.20992
84.8744
3.74308
5.43842
4.4256
4.97784
5.60018
42.891
97.2938
5.37479
16.3792
24.1433
5.2199
3.84532
3.97272
5.29263
4.09194
4.10755
5.50517
4.02553
3.95218
4.30533
5.96879
4.25182
3.65045
30.6877
4.07268
113.758
4.24171
7.81308
5.76282
6.23896
3.91295
4.48289
42.2825
12.7838
13.019
12.3689
4.21275
8.56165
9.59759
10.8131
13.2959
15.1678
15.9845
12.0448
16.1509
4.77766
5.58476
6.67162
5.07648
6.39006
6.46738
5.81658
3.44182
6.14765
6.10301
21.6604
3.38604
6.97891
7.71363
4.26632
10.0941
4.93405
36.9646
34.635
4.15489
)
;
    }
    inlet
    {
        type            fixedValue;
        value           nonuniform 0();
    }
    outlet
    {
        type            zeroGradient;
    }
    wallInner
    {
        lowReCorrection 0;
        type            epsilonWallFunction;
        value           nonuniform List<scalar> 
126
(
6.34191
0.603618
1.7367
6.05594
1.37717
0.596568
6.38797
4.60546
0.809607
1.67631
0.559055
16.0505
82.8412
4.48409
3.45166
2.65027
9.26999
1.66316
4.20733
0.732901
3.04962
0.309128
7.79549
1.06274
0.53456
1.17292
6.87884
5.84483
4.10447
0.982038
22.3317
2.50704
105.48
12.3695
57.9438
3.10609
8.19015
11.179
0.807738
0.39697
2.55426
8.42501
0.311057
1.87824
1.63628
0.829639
4.47757
75.0952
4.41167
10.4451
59.4238
4.53951
45.9578
1.00903
10.7683
5.99285
0.371249
88.2231
11.7307
12.0068
0.407588
2.72471
5.70964
141.332
24.5412
0.627868
17.1872
65.8065
0.442146
33.8904
8.2987
14.3755
1.94359
1.50561
32.3704
55.7303
1.89076
6.56607
11.2531
8.34828
19.5253
7.0017
1.26722
3.76939
2.3157
4.89298
13.0208
0.926072
7.41683
4.08463
3.71677
3.4906
3.61968
2.57723
4.06806
2.79884
1.31964
47.9291
3.12393
13.2117
9.39267
1.93148
0.791647
29.5377
0.976618
2.11466
2.4226
5.15467
20.6492
89.4505
26.1596
5.24562
2.47957
8.24251
6.13624
3.0658
1.2419
2.02129
7.9253
3.12326
2.15371
1.48698
7.63326
3.19391
1.17335
1.26915
)
;
    }
    procBoundary3to1
    {
        type            processor;
        value           nonuniform List<scalar> 
48
(
8.34522
4.30969
5.28222
6.28413
5.9985
1.74541
4.30969
44.0271
15.5246
0.721141
0.721141
0.645109
0.645109
3.60515
1.37937
0.377641
0.285695
0.278683
0.285695
0.634616
6.90293
18.7055
0.634616
0.75901
0.615449
3.14088
44.7986
18.7055
47.3948
9.94144
9.94144
46.2473
46.2473
15.5246
1.03896
8.9866
31.2726
0.615449
10.8873
6.25552
3.60515
25.7618
21.9364
0.634616
0.96403
4.58542
5.41125
4.08595
)
;
    }
    procBoundary3to2
    {
        type            processor;
        value           nonuniform List<scalar> 
29
(
1.42199
1.42199
4.82892
4.10916
0.878365
2.26245
2.58263
1.39758
3.6361
3.40883
1.62375
0.856695
1.54316
8.66135
2.98687
9.31082
5.95893
6.02525
1.36677
3.05427
2.99163
5.95893
4.74769
6.02525
2.81283
5.28428
6.02525
0.827632
0.827632
)
;
    }
}


// ************************************************************************* //
