/*--------------------------------*- C++ -*----------------------------------*\
| =========                 |                                                 |
| \\      /  F ield         | OpenFOAM: The Open Source CFD Toolbox           |
|  \\    /   O peration     | Version:  v1912                                 |
|   \\  /    A nd           | Website:  www.openfoam.com                      |
|    \\/     M anipulation  |                                                 |
\*---------------------------------------------------------------------------*/
FoamFile
{
    version     2.0;
    format      ascii;
    class       surfaceScalarField;
    location    "0.19";
    object      phi;
}
// * * * * * * * * * * * * * * * * * * * * * * * * * * * * * * * * * * * * * //

dimensions      [0 3 -1 0 0 0 0];
oriented        oriented;


internalField   nonuniform List<scalar> 
2708
(
-2.2698e-05
5.59535e-05
-5.85322e-05
2.52767e-05
7.86709e-05
0.000421611
-0.000390782
-0.0001095
0.000657384
0.000199862
-0.000669997
-0.000187248
5.34015e-05
-2.23162e-05
-5.71368e-05
2.60515e-05
-0.000246365
-5.86786e-05
0.000174828
0.000130216
0.000578039
-0.000576386
0.000218042
-0.000219695
0.000432521
-0.000338552
0.000344674
-0.000438643
-0.000100499
0.000268382
-4.94787e-05
-0.000118404
-0.000269961
0.000284956
0.000393039
-0.000408034
0.000354475
0.000640684
-0.000562639
0.00085982
-0.000897542
0.000281836
-0.000244113
0.000275751
-0.000364173
0.00093439
-0.000845968
-0.000367624
0.000406687
-0.000289386
0.000250323
-7.07055e-05
-0.000360786
0.000281394
0.000150097
0.000382084
-0.000405232
-0.000150237
0.000173385
0.000492671
0.00026011
-0.000398306
-0.000853952
0.000721813
-0.000250796
0.000382935
0.000147937
-0.000162949
8.4356e-05
-6.93435e-05
0.000450869
0.000125067
-0.000552063
-2.38732e-05
-0.000139835
-6.23739e-06
0.000159906
-1.38335e-05
-0.000362573
0.000697559
0.000524834
8.49145e-05
7.01479e-06
-0.000162635
-0.000394514
-0.000159075
0.000323903
0.000229686
-0.000260505
-0.00135293
0.00138366
0.000229776
-0.000413019
-0.000251456
-0.00020208
0.000118579
0.000313045
-0.000229544
-0.000862158
-0.000170506
0.000135122
-0.000169292
0.000238973
0.000148369
-0.000218049
2.68062e-05
-0.000229205
0.000202399
-2.2464e-05
-0.000383825
0.000406289
0.000502865
4.2351e-05
-4.6599e-05
-0.000498617
-0.000358355
1.72499e-05
-5.6614e-06
0.000346767
0.000477787
4.99487e-05
-3.14751e-05
-0.000496261
-0.000119581
8.06298e-05
3.06891e-05
8.2624e-06
0.000480179
0.000132062
-0.000530897
-8.13435e-05
-0.000117797
0.000402375
-0.000304063
1.94848e-05
0.000239137
0.000289952
-0.000242778
6.70863e-05
-3.85155e-05
-1.94629e-05
-9.10794e-06
0.000270468
-0.000220519
-0.000106761
5.68119e-05
5.01675e-05
0.000345761
-0.000386751
-9.1783e-06
-7.11025e-05
5.69853e-05
4.71243e-05
8.72707e-05
-0.00023174
-0.000337964
6.97247e-05
-7.14101e-05
-1.63038e-05
1.79891e-05
-0.000397711
0.000461562
-0.000397927
0.000334076
0.000144918
-0.000106301
-0.000108696
7.00792e-05
0.000179553
-0.000170467
-5.96304e-05
5.05445e-05
-0.000795763
0.000111782
-0.000178178
0.000181959
-0.000282307
-0.000238203
4.09097e-05
-6.24469e-05
-6.66607e-05
8.81979e-05
-0.000159061
-0.000298643
0.00036479
9.29134e-05
4.12636e-05
-9.87437e-05
7.58197e-05
-1.83396e-05
0.000220895
-0.000181997
-9.10086e-05
5.21106e-05
-7.50434e-06
0.000303334
-0.000147466
-0.000148364
5.55261e-05
0.000463776
-6.03551e-05
-0.000458947
-4.40233e-05
3.31855e-05
-2.73835e-06
1.35762e-05
3.88843e-05
-6.49395e-05
-2.82105e-05
5.42656e-05
-0.000546937
-0.000415611
0.000624458
0.00033809
0.000777474
-0.000220535
-0.000556939
-6.5885e-05
6.03263e-05
5.55869e-06
0.000212792
-0.000413589
0.000109189
0.000304399
-0.000125998
0.000204908
-7.89091e-05
8.71963e-05
-2.011e-05
0.000185686
8.47822e-05
0.000317399
0.000234884
-0.000342032
0.00010982
0.000196886
1.65e-05
3.78374e-05
5.26092e-06
-4.30983e-05
-0.000206732
0.000256944
-5.02121e-05
-0.00013077
0.000125303
5.46655e-06
-0.000164343
4.47619e-05
-0.000110352
-1.00107e-05
-1.79115e-06
8.24209e-05
-0.000297992
-6.27939e-05
0.000180275
-3.53573e-05
-0.000446782
0.00012549
0.000321292
-2.17204e-05
3.88408e-05
-1.71205e-05
0.000386655
0.00025403
0.000100129
4.78073e-05
-0.000697296
-0.000156657
-9.78602e-05
4.77526e-05
5.01076e-05
-0.000107357
5.90987e-05
0.000644577
-0.000596318
-0.000281708
0.000275714
0.000185547
-8.20684e-05
5.34473e-05
0.0012847
-0.00125608
3.04041e-05
0.000199955
-3.83262e-05
-0.000192033
0.000402347
-1.14823e-05
6.23678e-06
-0.000397102
0.000144272
-0.000169582
9.89571e-06
1.54146e-05
2.47849e-05
2.43256e-05
-0.000989536
0.000940426
-7.12454e-05
2.11317e-05
-0.000797805
0.000847919
1.57659e-05
9.56005e-05
-7.24821e-05
8.49315e-05
-8.83077e-05
1.91421e-05
1.11185e-05
-7.12072e-06
-4.25132e-05
-0.00023529
0.000276154
-0.000326197
0.000285333
0.000471008
-0.000454505
3.90231e-05
3.96543e-05
-0.000372277
0.000332623
-0.000401956
-0.000185964
-0.000496945
0.000546307
0.000136602
0.000175643
-8.38318e-06
-9.75348e-05
7.89202e-05
-4.8148e-05
-3.07721e-05
0.000116224
-0.000117757
-4.24908e-05
-0.000323554
8.56079e-05
-0.000519405
4.08443e-05
-9.33545e-05
0.000571915
5.10405e-05
-1.8177e-05
5.81835e-05
-9.10471e-05
-2.64515e-05
-1.25109e-05
1.7242e-05
-0.000423296
-1.12266e-05
0.00043199
2.53271e-06
-1.10887e-05
0.000396968
-0.000386837
9.58299e-07
-0.000140152
0.000559786
-0.000627414
0.00020778
0.000328078
-0.000141885
-0.000345268
0.000656452
-0.000398382
-8.19523e-05
6.71078e-05
-0.000333323
0.000279423
0.000460587
-0.000187299
-0.000556058
0.000613806
0.000129551
-1.51388e-05
2.16466e-05
5.04775e-05
5.59658e-05
0.000486481
-6.60901e-05
0.000117051
-5.69503e-05
1.48415e-05
1.55626e-05
-3.88021e-05
-4.22406e-05
-0.000164491
-8.87027e-05
-0.000316529
8.68934e-05
-9.43977e-05
-4.10479e-05
-1.07998e-05
0.000136103
0.000248337
0.000138318
0.000210602
-0.000100625
-0.000142412
9.28002e-05
0.000129209
0.000516776
-0.000446124
-0.000216663
0.000385434
6.56735e-05
-0.000234445
0.000235351
0.000486461
-2.10796e-05
-0.000141869
-0.000537556
-0.000121454
0.000442347
8.90515e-05
-0.000462588
0.000824406
-8.98932e-05
0.000155703
-0.000205645
7.5187e-05
-0.000114647
-0.000137486
1.55043e-05
2.92107e-06
-1.83718e-05
-5.35503e-08
-0.000162746
5.40743e-05
0.000217861
0.00133372
0.000102889
-0.00129475
-0.00014186
-8.3444e-06
-8.62407e-05
-0.000134278
0.00044989
1.52783e-05
7.14187e-05
-0.000536587
-6.75145e-05
0.000179468
0.000211949
9.88017e-05
0.00041864
-0.000222408
-0.000115141
0.00015438
7.69855e-05
0.000511411
0.000114931
-0.000132147
-6.84636e-05
-5.78171e-05
0.00037725
1.65873e-05
-0.000336021
-4.67193e-05
6.15608e-05
-0.000342409
-1.82016e-05
-2.0201e-05
0.000380812
3.91633e-05
-3.05521e-05
-1.57319e-05
-0.0012542
-0.000149439
0.00122708
0.000176559
0.000257542
0.000458064
-0.000381593
-0.000334012
-9.75707e-05
5.64406e-05
-0.000712716
0.000753846
-0.000437201
0.000426999
8.14185e-06
2.0604e-06
0.00101113
-0.000885341
0.000138599
-0.000264387
-0.000286948
-0.00039603
0.000393592
0.000447266
-0.000413882
-0.000215181
0.000181797
-1.99418e-06
-0.000449587
0.000448782
2.79948e-06
-4.89166e-05
0.00013581
-7.0861e-06
-1.48082e-05
-8.03721e-07
0.000482376
4.45984e-05
-6.30018e-05
8.38015e-05
0.000517544
-0.000539353
-3.6257e-05
5.80663e-05
-7.89353e-05
-0.000910272
1.99675e-05
0.000969239
-0.000138236
-0.000212152
0.000235248
-2.7932e-06
0.00043814
-3.90857e-06
-0.000431438
0.000301678
-0.00165501
1.14233e-05
0.00134191
0.000490812
-0.000164653
9.54523e-05
0.000325417
-0.00127794
-7.74794e-05
-0.000465422
5.34598e-06
0.000563014
-0.000382685
-0.000102526
0.000263412
6.00082e-05
0.000352314
1.40129e-05
-0.000289687
-7.66402e-05
-0.00024524
-4.78495e-05
-1.76481e-05
7.64871e-05
-0.000162114
0.000112788
-2.7161e-05
0.00122096
-0.00123152
-0.000249948
0.000294474
-0.000138838
0.000407379
-0.000300477
0.000289389
-0.000166813
2.66606e-05
8.73081e-05
0.000661045
-0.000524604
0.0001894
-4.68931e-05
0.000382098
-3.84039e-05
-5.40116e-05
-0.00107583
0.00116824
0.000449336
-0.000493894
0.00014336
0.000414828
-0.00035398
1.21465e-05
-7.29944e-05
0.000361894
-0.000497045
0.000185319
0.00045973
-4.38834e-05
0.00014394
-6.75354e-06
0.000295307
0.000664123
-0.000501367
-0.000340421
-0.000284175
0.000438632
0.000476428
-0.000453359
-2.27623e-05
-3.06851e-07
1.372e-05
-1.56447e-05
7.18559e-06
-1.44297e-05
6.84612e-05
7.63723e-05
-0.000130404
0.000202551
-0.00010686
-9.28156e-05
-2.87586e-06
-0.000113259
0.000448612
0.000111913
-0.000497408
-0.000433497
0.000664575
0.00026633
-2.16708e-05
0.000426109
-0.000408789
4.35006e-06
-5.67046e-05
0.000268831
-0.00033587
0.000123744
1.82026e-05
0.000493241
-0.000493043
-1.84003e-05
0.000111044
-0.000376178
0.000360222
-9.50877e-05
-2.11478e-05
-1.19338e-05
2.97566e-05
3.32503e-06
0.00123396
-0.00125572
-7.98149e-05
0.000101582
5.70935e-06
3.58145e-05
3.69309e-06
2.67075e-05
-3.04006e-05
-8.46415e-05
0.000131771
-0.000461011
0.000404265
1.96557e-05
-2.69532e-05
-0.000368967
-6.36114e-05
9.28273e-06
-0.000103016
-0.00124723
0.00126818
-2.67279e-05
-5.54227e-05
0.000161071
0.000402149
-0.000126671
-0.000333295
7.59698e-05
0.000486251
-8.57924e-05
0.000246667
-0.000150824
0.000214474
-0.000310316
0.00021094
-0.000523505
-0.000184843
0.000263201
0.000197098
-0.00038997
-7.03298e-05
-1.45945e-05
3.46098e-05
5.64717e-05
0.000250743
-0.000273451
0.000370726
-0.000348018
-1.74075e-05
0.000458253
1.4391e-05
-0.000455236
-0.000422653
0.000343445
-0.00121716
0.0012366
-0.000122455
-0.0004388
0.000617514
-0.000612211
-6.478e-05
8.53796e-05
-0.000237001
2.96631e-05
0.000404436
-0.000397868
6.90654e-05
0.000539742
-7.99429e-06
-0.000304377
0.000429257
-0.000116886
-7.03345e-06
6.70432e-06
0.000503194
1.27939e-05
-0.000431121
0.00043653
0.000222093
-7.62766e-05
0.000216077
2.66514e-06
-0.000366171
5.15077e-06
-0.000790081
-0.000143408
0.000842918
9.05716e-05
0.000404362
7.33818e-05
-7.34788e-05
2.54542e-05
-0.000228833
-0.000165588
-0.000108076
0.000320114
0.000237298
-0.000213551
0.000124289
0.000146707
-5.74455e-05
-0.000425323
0.000435647
-8.78038e-05
-0.000229643
0.000258744
0.000238207
-0.000267307
0.000116025
-9.9226e-05
-0.000250228
0.000376035
-0.000100353
-0.00011257
-5.36707e-05
-0.000176163
5.16834e-05
0.000178151
-0.000289661
0.000228744
-0.000331984
0.000767816
0.00018751
-0.000353399
-0.000224081
-3.29464e-05
-8.01243e-05
7.79165e-06
-2.82922e-05
-0.000367561
0.00119586
-0.000803519
-0.000454307
1.51118e-05
0.000464574
4.68865e-07
-3.76003e-05
4.92955e-05
-0.000219507
0.000177391
0.000239003
-0.000196887
-0.000467276
9.88575e-06
3.08355e-06
-0.000172724
0.00124596
0.000163364
-0.000664721
0.000789821
-0.000318288
0.000193188
1.61486e-05
0.000128493
8.61674e-05
-3.37285e-05
-0.000180932
6.96092e-05
-0.000390904
-9.81014e-05
0.000182654
-4.26894e-05
-0.000444404
1.66083e-05
-0.000251752
-0.000404739
-0.000557566
0.000187682
-0.00036054
-0.000258342
0.0004312
-8.12886e-06
0.000134642
0.000333217
0.000118097
-0.000685116
-1.68881e-05
-4.80514e-05
0.00015645
0.000104113
0.000374562
0.000124532
-9.47314e-05
-0.000408648
-4.24892e-05
-0.000265773
0.0001109
-5.86778e-05
0.00118869
-0.000256498
-1.9773e-05
0.00041102
0.0014591
-0.000162806
-0.000107599
-0.000471381
-0.000141725
2.49661e-05
0.000588139
-0.000234884
0.000247677
-0.000309045
0.000382426
-0.00023755
0.000282188
-0.000182874
-0.000331267
5.9743e-05
-0.000144921
0.000416445
-1.02929e-05
0.000320857
0.00034089
-0.000198508
0.000121976
-0.000264357
0.000455712
-8.25609e-05
-0.00044669
7.35395e-05
-0.00017965
0.00065813
-0.000585837
-0.000102327
0.000180145
-0.000297325
-0.000298064
6.66042e-05
-9.63013e-05
0.00122276
-0.00119307
0.000335144
-0.000228907
-0.000215736
-7.42775e-06
-0.000229445
0.000224347
-0.000402866
0.000407964
8.79023e-05
-0.000493103
-8.42492e-06
-0.000210059
5.7797e-06
0.000212704
3.58391e-05
-0.00061855
2.5127e-05
-0.000332458
0.000341885
-0.000508697
6.15939e-05
-0.000362071
-5.49445e-05
-6.75295e-05
9.57461e-05
-0.000229729
-5.15462e-06
8.95834e-05
0.000185568
-0.000120771
2.18621e-05
-8.9497e-06
-1.29124e-05
6.23123e-05
-0.000441238
-2.97224e-05
-0.00023437
0.000254675
1.37648e-05
-3.40698e-05
-0.00012402
-0.000358601
8.48023e-05
0.000397819
-0.000474529
-1.01549e-05
-0.000211102
-0.000387324
0.000255437
0.000179959
0.000146449
-0.000521531
6.94857e-05
-0.000590686
0.000666765
0.000219229
5.38324e-05
0.000194504
8.05479e-05
1.72228e-05
-2.53517e-05
0.00041675
-0.000405601
0.000273807
-0.00051427
0.000317997
-0.000157865
-0.000390204
9.47107e-05
5.90774e-05
3.3642e-05
-8.06208e-05
7.87607e-05
-3.17819e-05
-0.000524222
0.00055924
0.00065443
-0.000689447
0.000315065
-0.000299259
-0.000226909
0.000281538
-0.000131685
2.69149e-05
5.70476e-06
1.5133e-05
0.000196537
-2.00058e-05
-0.000184957
-0.000325059
0.00014301
0.000353116
-0.000171067
-0.000495402
-0.000174595
-2.12332e-05
0.000390981
-0.000225261
-0.000383857
0.000218137
0.00034139
-0.000362325
6.07229e-05
-3.97881e-05
0.00058357
-4.05699e-05
-7.84257e-05
0.000240956
-0.000304567
1.46839e-05
-5.73953e-05
-3.8687e-07
0.000403302
-0.000240238
-0.000392509
2.32233e-06
2.93417e-05
2.0653e-05
-5.2317e-05
-0.000421321
-4.66915e-05
-0.000271133
-1.99423e-05
-0.000210082
0.000284517
0.000177666
-0.000252101
-0.000156765
-0.000730887
-0.000375054
0.000334479
-0.000284484
-4.58941e-06
-2.3149e-05
-0.000310436
6.24523e-05
-0.000260305
0.000338033
-0.000596101
0.000518373
-0.000124756
9.33801e-05
5.30221e-05
-0.000275108
0.000272567
0.000419291
-0.000526121
0.000377685
0.00046855
3.09489e-05
-0.000302346
0.00077046
-0.000530048
0.00121869
-0.000303173
-0.000547819
-1.30097e-05
0.000210194
1.09076e-05
-0.000208092
6.64075e-05
-7.6602e-05
0.000586362
-0.000576167
-0.00013262
0.000151625
0.000104089
-0.000123094
0.000236416
-7.42479e-06
-3.24535e-05
0.000355565
0.000308003
-0.000364766
-0.000298802
-0.0001695
0.000163184
-0.000126305
0.000195673
-0.000213761
-0.000131577
0.000149666
0.000345209
-2.21628e-05
0.00117927
-0.00150231
-6.10604e-05
5.30661e-05
8.35288e-05
-0.00134273
0.00122079
2.57589e-05
3.88754e-05
2.02801e-05
-0.000442224
-8.15747e-05
3.26811e-05
-0.000796228
0.00120562
3.26262e-05
-0.000442017
-0.000266416
0.000256699
-0.000501104
0.000407788
7.00876e-05
-0.000361149
0.000317868
-4.54356e-05
-0.000470533
0.000493504
0.000770852
-0.000797418
-1.79529e-05
-0.000114406
7.36807e-05
-0.000554684
8.65584e-05
0.00109658
-0.000628453
-0.000260152
-0.000186766
0.000217274
0.000119116
0.000154409
0.00103271
-0.00104582
-0.000109343
0.000336618
1.4021e-05
2.48938e-05
-5.12057e-05
1.22908e-05
0.000647618
-0.000606453
-0.000441074
0.000399908
-0.000163993
0.00102398
0.000413207
-0.000394259
-0.000305896
-0.000458912
0.000378332
-2.10873e-05
1.62918e-05
8.57469e-05
-8.09514e-05
0.000184404
-0.000846095
-0.00073227
8.1495e-05
0.000387199
-9.59945e-05
-0.000372699
0.000317302
1.38006e-05
-3.43608e-05
-0.000296742
0.000349733
2.02978e-05
-0.000222799
-0.000147231
0.000566017
-0.000650539
6.17597e-05
-0.000272567
-0.000248889
0.000261305
0.000431579
-0.000117385
-0.000243152
-2.51132e-05
6.80796e-05
0.000200186
-0.00034205
-6.62335e-06
0.000105522
-0.000479964
-4.77519e-05
5.3187e-05
0.000846975
-0.000213919
-9.34936e-05
-0.000450052
0.000335606
-0.000208747
0.000323193
-0.000242841
2.50854e-05
-0.000232296
-0.000249495
0.000400238
0.000198749
-0.000425251
-0.000206566
0.000433069
0.000467922
-0.000455584
0.000295665
0.00012595
0.000170557
-0.000478025
0.000618594
0.000149723
0.000243691
-0.000154412
-8.85052e-05
-1.82294e-05
0.00010622
5.14314e-07
0.00034864
-0.000133415
2.07505e-05
-0.000235975
-0.000478952
0.000101315
3.16218e-05
-1.39088e-05
-1.7713e-05
-0.000112773
0.00010843
0.000363681
-7.83263e-05
6.32845e-05
0.000492352
-0.000281002
-6.83397e-05
0.000341988
-5.93357e-05
8.10296e-05
-0.000419338
7.51705e-05
-3.43136e-05
0.000378481
3.38182e-05
0.00039741
6.85368e-05
-0.000111418
4.85863e-05
0.000359756
0.000198636
-0.000336922
-0.00022147
1.05345e-05
4.61249e-05
-0.000643875
0.000321046
-6.08081e-05
8.17492e-05
-0.000103117
0.000436284
0.000222783
-0.000386528
-0.000241243
-0.000156696
0.000338525
0.000265522
-0.000270532
-6.9745e-05
8.80213e-05
0.00030277
1.52142e-05
-2.29852e-05
-1.01818e-05
-4.02087e-07
-0.000158469
0.000152634
0.000135127
0.000405979
-0.000416039
0.000517013
5.30448e-05
-0.000757357
-0.00021678
-0.00129183
0.000155684
-1.16948e-05
0.000486192
-7.96479e-05
-0.000394849
0.000474737
-0.000523129
0.000109645
-6.12522e-05
0.000487904
-2.48623e-05
0.000100915
8.0551e-05
0.000325962
-9.95415e-06
0.000299188
0.000198671
-0.000556994
0.000279805
-7.05899e-05
0.000347779
-8.07561e-05
-0.000278762
0.000312856
-0.000147584
0.000113489
0.000353349
-0.000352306
0.000156657
-0.000231203
0.000387403
4.05481e-05
-0.000140164
6.43682e-05
3.52477e-05
0.00114396
0.000570817
-0.000373304
-0.00134147
5.43584e-05
0.000149374
5.76892e-05
0.000148294
9.4595e-05
7.80307e-05
7.16634e-05
-2.00938e-05
-4.91852e-05
1.71567e-05
5.21223e-05
4.55078e-05
1.31591e-05
0.000246102
-0.00025279
-0.000292772
0.000299459
-8.36768e-05
6.96295e-05
0.000103005
-8.89574e-05
-0.000130489
-9.72857e-05
0.000144098
-2.90414e-05
-0.000121167
0.000133525
1.66835e-05
-0.000110979
0.000174996
7.81267e-06
-7.18303e-05
-2.12237e-05
-0.000122017
-4.74791e-05
9.60602e-05
0.000260895
-8.2518e-05
6.92663e-05
3.90106e-05
-0.00118075
6.3252e-05
0.00110014
1.73569e-05
0.000106869
-7.62246e-05
-5.18683e-05
0.000253827
0.000110177
-0.000397904
6.9031e-05
-8.19195e-05
-1.70274e-05
0.000141933
-0.0001204
-4.50568e-06
-0.00126893
9.96032e-05
1.8524e-05
-4.43399e-05
0.000121876
-0.000136767
0.000213711
0.000140784
-7.31579e-05
-8.46531e-05
-0.000125038
8.37732e-07
-0.0013966
0.00019728
0.000135804
-2.40621e-05
-0.000430388
-0.000863325
0.000124645
-4.30495e-05
-0.000153005
9.59706e-06
-4.30118e-06
-6.09737e-05
5.51076e-05
-7.86092e-05
-6.04592e-05
8.39608e-05
-0.00149309
0.000281871
0.000873621
-0.000637547
0.000907885
-7.06675e-05
-0.000108617
4.64142e-05
-2.93882e-06
-2.79711e-05
5.41524e-05
-3.16742e-05
0.00025822
2.75311e-05
6.26709e-05
-5.24103e-06
1.21156e-05
5.91934e-05
-0.00109219
0.000472718
-0.000219687
0.000355623
-0.000253733
-8.88427e-05
7.01862e-05
9.88849e-05
0.000126407
-0.000162621
-8.67097e-05
5.05514e-05
-4.24861e-05
-0.000535861
0.000392083
1.25848e-05
-1.0698e-05
6.05861e-06
-7.94539e-06
-0.000885544
0.000288842
-4.98991e-05
-0.00045863
-0.000447541
9.99654e-05
-3.04732e-05
-1.70975e-05
2.10194e-05
2.65514e-05
0.000122419
-0.000231444
0.000138178
-2.91541e-05
-9.13554e-06
5.91942e-05
-0.000118403
-0.000302526
0.000371998
-0.00140878
0.000149928
0.000153093
0.000170466
-3.47169e-05
8.39863e-05
0.000138294
-0.000137349
-1.95847e-05
-0.000493761
0.000475634
3.77121e-05
9.07774e-05
0.000130757
-0.000102955
-6.67211e-06
-7.66158e-05
-0.000423411
0.000403826
-0.000358223
-0.000994583
-5.59705e-05
-0.00124707
-0.000461957
9.7333e-06
3.09445e-05
0.000163738
0.000344978
8.36807e-05
-1.71997e-06
8.89944e-05
7.0707e-05
-7.57151e-05
2.10434e-05
3.92608e-05
0.000112273
0.000117063
-9.42085e-05
-0.000137966
0.000133965
-1.55638e-05
-0.000407847
0.000427973
0.000407594
-2.53079e-05
-0.000484017
-3.97092e-05
4.3655e-05
-0.000121373
0.000179975
-0.000834837
-0.000299133
0.000329469
-0.000200802
0.000229189
-0.000215537
0.000162646
-9.8669e-05
-0.000494554
-1.53824e-05
0.00010643
0.000475647
-0.000487321
1.51892e-06
-0.00156551
-0.000263908
0.000262928
6.55699e-06
-0.0001181
-1.58868e-05
1.97795e-06
1.77641e-05
-8.86166e-05
-7.96396e-05
-5.44776e-06
0.000173704
0.000214401
-0.000252932
-2.0212e-05
-2.16698e-05
-7.94911e-05
0.000283811
-0.000502652
-0.000217116
0.000435957
0.000390533
-1.9423e-05
1.80019e-05
0.00056637
-0.000499963
-1.90368e-05
0.000103207
2.22592e-05
-0.000129134
8.447e-05
-0.000310376
0.00039355
-0.000216589
-0.000392423
-3.171e-05
0.000424133
6.51942e-05
0.000127959
-6.7203e-05
-0.000101607
0.000242179
-0.000287164
0.000209921
-2.12887e-05
-0.000238205
0.000164228
-0.000642426
0.000782844
-0.000140418
0.000214462
-0.000189231
-0.000398123
-0.000190496
3.26066e-05
0.000556012
-0.000309375
0.000164111
-0.000115877
0.00026114
1.1403e-05
0.000114661
0.00020562
0.000216601
-0.000336557
0.000368554
-0.000248599
7.09716e-05
-8.1926e-05
-6.79548e-05
-2.59701e-06
-0.000193778
0.00045768
2.78527e-05
3.18885e-05
0.000455148
-7.60559e-05
-0.00066138
0.000489306
-0.000190498
9.1627e-05
-0.000333093
-0.00138146
-0.000346854
0.000640512
0.000307791
-3.15204e-05
-0.000157644
0.000176154
-0.000474256
0.000647592
-4.14262e-05
-0.000135285
0.00014519
0.000130595
1.17492e-05
8.7498e-05
-0.000529297
0.000473688
0.000171689
-0.000221099
-7.84152e-05
0.000127825
-0.000284857
0.000248288
-3.31767e-05
-0.000718182
0.000237692
0.000818524
-0.000227676
0.000349821
0.000315037
-7.16661e-05
-7.18134e-05
4.85641e-05
2.32492e-05
0.000565385
0.000503126
-0.000525137
-7.66582e-05
1.50196e-05
0.000327816
-0.000342836
-0.000165661
0.000432299
-0.000618944
0.000151513
-0.000573728
-0.000310983
-3.46813e-05
0.000272228
-0.000293358
-0.000697052
-0.000474051
0.000550539
-0.000375622
0.000436364
0.000170839
-0.000408567
0.000246302
0.000377218
-0.000386921
0.000548429
-0.000163111
-2.29271e-05
6.65982e-05
-0.00011324
-3.59371e-05
9.33433e-05
0.000105239
0.000476022
-0.000554185
7.74326e-05
-1.22384e-05
-0.000279193
-0.00044023
0.000350263
0.00030444
-0.000391565
-0.000139955
0.00017812
-0.00027461
0.000299332
-0.000355586
0.000330865
-8.46183e-05
0.000108318
0.000156275
8.82175e-05
0.000303867
-7.47821e-05
0.00105507
0.000175422
0.000324719
-0.000343503
0.000106806
5.97662e-05
0.000606408
-0.000583893
-0.00022003
0.000197515
0.00038775
0.000205012
-0.000258283
-0.00108047
0.000999535
0.000283051
-0.000535204
-2.02781e-06
0.00018707
-0.000121073
-6.39695e-05
5.91172e-05
-3.19461e-05
2.49158e-05
-8.61325e-05
-7.40678e-05
-0.000148165
7.6985e-05
-0.00027087
-0.000141256
0.000345879
-0.000349474
0.000398311
0.000373692
-0.000214628
0.000199437
-0.0003585
0.000139987
0.00112658
-0.000941147
1.49293e-05
-9.25156e-06
0.000629804
0.000178806
-0.000160992
0.00042108
-0.000178533
0.000109768
6.04018e-05
-0.000122188
-0.000159307
7.44056e-06
4.11236e-05
-0.000342395
0.000402808
-0.000208578
-0.000113011
-1.97166e-05
-0.000129649
0.000639955
-0.0004017
-0.00024232
0.00036941
-4.53543e-05
1.23453e-05
-2.04593e-06
7.77281e-05
0.000206168
-2.92213e-05
0.000131304
-0.000137868
0.000266901
-0.000231206
0.000314127
0.00011792
0.000153691
-2.33223e-05
0.000148157
0.000508933
0.000840414
-0.000996884
-0.000123418
-0.000185905
-0.000354239
0.000252981
-6.43504e-05
8.17797e-05
0.000378678
-0.000230247
0.000480484
0.000372803
-0.00036423
-9.63763e-05
-9.79363e-05
7.91883e-05
0.000343467
-6.05119e-05
0.000137945
-0.000121416
-0.000316053
-2.83514e-06
-0.000362602
-0.000278234
-0.000247477
-0.000583142
9.15565e-05
0.000337521
-0.000230947
-0.000303461
0.000348357
-2.05408e-05
0.000424813
0.000347617
0.000566723
-0.000150771
-0.000933961
-0.000181774
0.000273883
-0.000217393
1.72964e-05
-1.71608e-05
-1.26224e-05
0.000436061
0.000405002
9.00287e-05
-0.000132214
-0.000116148
0.000401198
3.88907e-05
0.000322754
3.559e-05
0.000507187
0.000958598
-0.000905151
0.000463808
2.13543e-05
7.6736e-05
-4.92456e-05
2.4193e-05
0.00104538
-8.67799e-05
-4.22527e-05
0.00039489
0.000424884
-0.000359751
6.04832e-05
-0.00043094
-0.000246664
-0.000302101
-0.000837312
-6.78384e-05
-9.88102e-05
8.96391e-05
5.61004e-05
-4.69292e-05
0.000228452
-0.000473251
0.000289418
-4.46195e-05
-4.17273e-05
0.000376494
-0.000386803
1.08712e-05
8.44415e-05
-0.000331018
0.000356304
-2.52865e-05
-0.000155303
1.42943e-05
0.000119339
0.000235339
0.000213694
0.000182108
-0.000309609
-2.14087e-05
-0.000257328
0.000283744
-2.64154e-05
-0.00010267
-0.000480172
0.000526346
-4.61746e-05
-0.000172684
0.000220445
-0.000236689
-2.06397e-05
0.000975293
0.000438426
-0.00040474
-3.3686e-05
-0.000122703
-0.000371656
-2.90105e-05
-0.000341309
-2.58653e-05
-7.0933e-05
0.000208878
-9.76551e-05
0.00114303
-2.57658e-05
0.000374123
-4.17454e-05
0.000195901
-0.000127914
0.000149288
0.00010502
-0.000106322
-0.000376047
0.000377349
-0.000243657
-8.55186e-05
-0.000152045
-0.000448554
-6.82621e-05
-0.000427368
0.000123596
0.00037386
0.000336004
-0.000217599
8.86914e-05
-0.000227654
0.000116852
-0.000316797
-6.58279e-05
-0.000225057
1.35821e-05
7.36241e-05
4.28635e-06
-0.000504363
-2.2795e-05
0.000581112
0.000261883
-0.000279986
-1.97115e-05
-1.85588e-05
2.93206e-05
2.67576e-05
-0.000459887
0.000468719
-0.00028192
-0.000398613
-0.000169218
0.000181304
-4.89791e-05
-0.000528917
0.000539398
7.48978e-05
0.000785319
-0.000215409
0.000372269
4.89726e-05
-0.000127601
9.29226e-05
0.00024042
8.3177e-05
-8.82582e-05
0.00023827
-0.000127095
0.000585445
-0.000770708
3.67833e-05
0.000436008
-0.000358809
0.0003549
-0.000193889
-0.000110702
0.000488557
-0.000396439
0.00054766
-0.000230869
-0.000659963
0.000145555
-6.58889e-05
-0.000346318
0.000318853
3.57361e-05
-0.000102591
0.000431392
-5.3621e-05
-5.8614e-05
-7.9783e-06
1.26688e-05
9.85169e-05
-8.72004e-05
6.43647e-05
-0.000444152
4.87241e-05
-0.000110047
0.000300313
-7.49388e-05
0.000480565
0.000184138
-0.00022253
3.25454e-05
2.40991e-05
-1.11367e-05
-0.000432356
-0.000121535
-0.000141511
-0.000202337
0.000347968
0.000106007
-0.000132528
0.000240734
-1.75471e-05
-7.74128e-05
-2.17228e-05
-0.000219093
0.000207264
9.5032e-05
-0.000356786
-0.000133533
0.000112618
-2.04751e-05
0.000602355
0.000315263
0.000107144
0.000385152
0.000102435
-0.000177874
0.000241418
-0.000273407
3.19899e-05
-0.000142476
0.000129911
-0.000481045
0.000298077
0.000407314
-1.76648e-06
-0.000174467
-0.000285158
-1.41792e-05
0.000244498
-7.23492e-05
0.000383062
-0.00129275
-0.000514938
0.000609249
-0.000322961
0.000439196
2.50406e-05
-0.000444332
-0.000218039
0.000295735
-0.000128287
-0.000182076
-0.000236745
3.47404e-05
4.72886e-06
5.64292e-05
0.000354269
-0.000373915
-0.000227675
9.25952e-05
-0.000223521
0.000384388
-0.000393374
1.05046e-05
0.000202291
8.03043e-05
6.64827e-06
-4.99734e-05
-4.83652e-05
-0.000681643
-0.00015204
4.54184e-05
-0.000602735
-0.000157501
0.000339944
8.85674e-05
0.000403651
2.59631e-05
-0.000162621
0.00064469
-0.000646061
-2.45018e-05
0.000455957
-9.2785e-05
9.27993e-05
-0.00123236
0.000101153
0.000121413
-0.000300586
-8.75273e-05
0.0002667
-4.62131e-05
0.00106654
-0.000614669
6.13331e-05
0.000292542
-0.000196541
3.2439e-05
-0.000347258
0.000319985
-0.000114451
-0.000113757
-0.000217286
0.000295318
-2.16784e-05
-0.000333768
0.000144006
0.000446704
6.68425e-06
-3.49788e-06
-0.000119163
-0.000189982
0.000107415
0.000259939
0.000637736
-5.22911e-05
-0.000660638
-0.00011007
3.46725e-05
0.00020798
-0.000103731
0.000358149
0.000446403
5.04427e-05
0.000115799
-0.000469114
0.000328453
-2.60854e-05
2.77525e-05
2.16403e-05
-0.000327712
3.26471e-06
5.44404e-06
-1.57654e-05
-2.90528e-06
0.000203961
-0.000301013
-6.04486e-05
0.000156394
-3.09977e-06
1.5053e-06
-0.000717975
-2.65245e-05
0.000698287
7.25073e-06
0.000115236
-0.000741628
0.00104193
-3.35253e-05
7.70024e-05
1.79645e-05
-4.17933e-05
0.000133374
-5.04956e-05
0.000163093
-0.000276673
3.40261e-05
6.40497e-05
0.000423421
7.04436e-05
-0.00026412
0.000190672
-0.000158463
0.000231911
0.000509175
0.000218203
-3.85357e-05
3.74059e-05
-0.000285365
-0.0003741
-0.000360535
0.000470515
-0.000372565
-0.000262936
-0.000139804
0.000369701
7.44048e-05
-0.000304302
-0.000264202
-0.00019265
0.000163302
0.00029355
0.000503963
0.000145766
-4.67897e-05
-0.000367504
0.000356214
-0.000344741
-0.000336527
0.000351577
-0.000214006
-0.000370936
0.000353648
0.000135289
-0.000111931
-0.000421741
0.000101408
1.43579e-06
0.000448998
-0.000245866
0.000316022
-9.75716e-05
-0.00037447
-0.00032012
-0.00013259
0.000991497
0.000209665
-0.000165215
-5.95476e-05
0.000116307
-0.000214684
-0.000284465
0.000604113
-0.000410044
0.000347546
0.00071547
-0.000594514
-0.000120956
-0.000252423
0.000270488
-1.80641e-05
-0.00022276
0.000197633
-0.000180215
-1.74181e-05
0.000833567
0.000273153
-0.000309277
0.000318301
-9.02371e-06
0.000335127
2.58504e-05
0.000366164
-4.78634e-05
-0.000525449
0.000945349
0.000408515
0.000489609
-0.00044992
-3.96895e-05
0.000415219
0.000267491
0.000262936
4.55505e-06
0.000403752
1.14673e-05
0.000263485
-5.48357e-07
0.000278482
-1.4997e-05
0.000295069
7.79779e-05
0.000783755
0.000499329
-4.58942e-05
0.00044766
0.000353447
-0.000204776
4.44941e-05
-5.95033e-05
-4.46211e-05
0.00100367
-0.000171261
-2.14878e-05
7.47903e-05
0.000264565
1.80849e-05
0.000500385
8.69759e-05
8.34011e-05
1.59254e-05
8.06731e-05
-2.81373e-05
0.000251785
7.89238e-05
0.000750594
-0.000754722
-5.64074e-05
0.000522611
0.000348467
-0.000107565
3.44386e-06
-9.88538e-06
-7.85096e-05
-9.31485e-06
-0.000107203
0.000301717
0.000540316
-0.000231577
0.000225574
-5.12555e-05
-4.7158e-05
4.4934e-05
-0.000118913
0.000908417
-0.00118041
5.66293e-05
0.000104409
-0.000172019
0.000836944
-4.74024e-05
0.000351924
-0.00114147
-5.2238e-05
-8.04412e-05
0.000150621
-0.000224151
-2.93766e-07
0.000167308
0.000217101
-0.00036586
0.000142449
3.33648e-05
5.45543e-05
1.13599e-05
0.000214918
0.000155816
-0.00026773
1.97708e-05
-9.20265e-05
-3.9689e-06
4.75116e-05
4.83743e-05
-0.000377992
-0.000187169
0.000356415
-0.000217031
0.000251926
-0.0001592
-4.58723e-05
-5.03879e-05
-5.6504e-05
7.21436e-05
0.00018625
-0.000382006
-2.89161e-05
-0.000292539
0.000299096
-2.57149e-05
-4.10823e-05
4.3812e-05
-0.000290115
0.000293559
0.000171544
-0.000447185
6.44228e-05
-0.000520651
3.36642e-05
0.000344196
-0.000487402
-0.000107589
-7.61981e-05
9.36277e-05
6.69263e-05
-0.000824184
-0.000146247
-0.000371131
9.53745e-05
-0.000130776
0.00035815
-5.85372e-05
-4.53515e-05
-0.000144374
0.00044765
-0.000239217
0.00012043
3.61836e-05
0.000407966
2.08165e-05
2.71493e-05
0.000533407
-0.000196677
3.86407e-05
-7.19656e-05
0.000139709
-0.000142861
-0.00013824
-0.00013191
5.95226e-05
-4.08458e-05
8.96412e-05
-0.000405545
-8.6843e-05
0.000168315
-1.77016e-05
0.000199856
-0.000729986
-0.000261842
0.000110966
6.06842e-05
0.000329768
0.00020443
-9.03954e-05
-2.78742e-05
-0.00011679
0.000301114
-0.000255237
-7.04515e-05
0.000245183
-0.000161684
1.12009e-05
5.53882e-05
-3.68325e-05
2.91715e-06
0.000315067
-0.000352345