/*--------------------------------*- C++ -*----------------------------------*\
| =========                 |                                                 |
| \\      /  F ield         | OpenFOAM: The Open Source CFD Toolbox           |
|  \\    /   O peration     | Version:  v1912                                 |
|   \\  /    A nd           | Website:  www.openfoam.com                      |
|    \\/     M anipulation  |                                                 |
\*---------------------------------------------------------------------------*/
FoamFile
{
    version     2.0;
    format      ascii;
    class       volScalarField;
    location    "0.36";
    object      nut;
}
// * * * * * * * * * * * * * * * * * * * * * * * * * * * * * * * * * * * * * //

dimensions      [0 2 -1 0 0 0 0];


internalField   nonuniform List<scalar> 
1466
(
0.00146272
0.00202085
0.00149024
0.00440597
0.00171505
0.00245281
0.00339468
0.00210974
0.000737503
0.00227272
0.00300416
0.00232072
0.000723229
0.00148023
0.00584993
0.00603045
0.00199089
0.0010533
0.00519322
0.00344751
0.00541305
0.00830928
0.00410826
0.00317683
0.000743799
0.00430111
0.00516031
0.00409391
0.000761096
0.00330499
0.00352496
0.00397669
0.00171847
0.00988657
0.0027672
0.0021162
0.00945046
0.00191702
0.00210927
0.00163058
0.00143487
0.00198915
0.00194157
0.001101
0.0011798
0.00172745
0.00197721
0.00081176
0.0015969
0.000759256
0.00114744
0.00163117
0.00179475
0.00109599
0.000992863
0.00100126
0.00133462
0.0021581
0.000981005
0.00196278
0.00620452
0.00358225
0.0029428
0.00358722
0.00576323
0.00258569
0.00857502
0.00388408
0.00181136
0.00103414
0.00814861
0.00117366
0.000975563
0.000891762
0.00385398
0.00227765
0.00352527
0.00277016
0.000995187
0.00343415
0.00278809
0.00510082
0.00140233
0.0033735
0.00510814
0.00530582
0.0087748
0.00292707
0.00243291
0.00291421
0.00537927
0.00461521
0.0043956
0.0018787
0.00228017
0.00127819
0.00185585
0.00186701
0.0008163
0.000814768
0.00156057
0.000917095
0.00075261
0.00175902
0.00227978
0.00219854
0.00155003
0.000879269
0.0019207
0.00142691
0.00619944
0.00272935
0.00189203
0.00179029
0.00151723
0.00714169
0.00304502
0.00166577
0.00290408
0.00337544
0.00721166
0.00337564
0.00432682
0.00107287
0.00111336
0.00184231
0.00229779
0.00427408
0.00337179
0.00435322
0.00171457
0.00196268
0.00362643
0.00290341
0.0057978
0.00136561
0.0015665
0.00144542
0.00199398
0.00210519
0.000961892
0.00460027
0.00489337
0.00473461
0.00883982
0.00716296
0.00396321
0.00521631
0.00431618
0.00326243
0.00572932
0.00345602
0.00208774
0.00203276
0.00475514
0.00818544
0.0037955
0.00722478
0.00436093
0.00209417
0.00385869
0.00298932
0.00146824
0.00486172
0.00831827
0.00347885
0.00445329
0.00511088
0.00527046
0.00307949
0.00552244
0.00279295
0.000795041
0.00191782
0.00105499
0.000853169
0.00299165
0.00381554
0.00596102
0.00644359
0.000807714
0.00409583
0.005253
0.000625384
0.00283193
0.00557748
0.00528393
0.00287559
0.00180456
0.0013077
0.0058059
0.00541468
0.00430395
0.00817247
0.00188481
0.00684174
0.000726131
0.00320437
0.00728556
0.00771452
0.00343886
0.00431019
0.00278798
0.00696644
0.0082505
0.00859356
0.00641938
0.00198333
0.00436124
0.00342318
0.00476255
0.0048345
0.00482677
0.00514026
0.00591464
0.00489277
0.00582863
0.00563813
0.00359452
0.00406957
0.00482623
0.00708784
0.00506261
0.00728891
0.00520169
0.00609108
0.00713901
0.00130705
0.00600361
0.00705909
0.00597851
0.0028589
0.00879281
0.0106301
0.00269919
0.00867207
0.00476841
0.00501252
0.00451772
0.0057205
0.00214684
0.00328486
0.00266946
0.00753786
0.00391238
0.00274271
0.00400943
0.000876223
0.0037068
0.002422
0.00590215
0.00624678
0.00185604
0.003933
0.00289174
0.00551974
0.00331688
0.00098477
0.00134432
0.00195071
0.00129615
0.00335843
0.00276913
0.00683357
0.00356627
0.000551644
0.000942024
0.0046199
0.00537882
0.0011206
0.00167389
0.00141736
0.001118
0.00418809
0.00544458
0.00750328
0.00667679
0.00431226
0.0053597
0.00411982
0.0063092
0.00820901
0.00522428
0.00283296
0.0109984
0.00111252
0.00449525
0.00460583
0.000806854
0.00154126
0.00152721
0.00116987
0.000764399
0.000611569
0.0033349
0.00105676
0.00155506
0.00126737
0.0042136
0.00664383
0.00155479
0.00697909
0.000557268
0.000822889
0.00623481
0.00349571
0.00325444
0.00157462
0.00265411
0.00957338
0.00195897
0.00585045
0.00405783
0.0043673
0.00396098
0.00318282
0.0104363
0.0024895
0.00110398
0.00578825
0.000985259
0.00148633
0.00151567
0.00627876
0.00766306
0.00138451
0.00121173
0.00247859
0.00573358
0.00564994
0.00405039
0.00145263
0.00202923
0.00291451
0.00570087
0.000823663
0.00579394
0.00471613
0.00320349
0.00300327
0.00255128
0.00210212
0.00192189
0.00328414
0.00335973
0.000498972
0.00268161
0.00259559
0.00186354
0.0051456
0.00165549
0.000864569
0.00363335
0.00797766
0.0116847
0.00780551
0.00321508
0.000639999
0.000972955
0.00263803
0.0105278
0.00691391
0.00516252
0.00888958
0.00107957
0.00957019
0.00187655
0.00179494
0.00122731
0.00322511
0.002677
0.00846981
0.00137342
0.00266533
0.00202669
0.00997746
0.00397758
0.00137347
0.00250173
0.00365689
0.00917867
0.00691507
0.00968341
0.00982031
0.00651898
0.00684175
0.00197753
0.00196758
0.00147585
0.00108063
0.00308951
0.00304469
0.00881107
0.0026934
0.00569605
0.00279674
0.00108715
0.00141486
0.00563702
0.000537459
0.00121712
0.00111814
0.00266594
0.000854787
0.0028098
0.0112858
0.00262886
0.00290385
0.00943647
0.00921949
0.00438236
0.00294913
0.0031853
0.0104423
0.00327867
0.00114798
0.00118393
0.00297703
0.0054302
0.00265976
0.00929681
0.0103561
0.00273039
0.0029328
0.00329233
0.00528121
0.00770721
0.00140646
0.00333646
0.00498457
0.00678729
0.00411077
0.00172755
0.00167201
0.00496986
0.000536153
0.00112694
0.000869464
0.00168672
0.00725868
0.00134897
0.000715629
0.00674938
0.0011874
0.00582182
0.00268326
0.00118853
0.00545383
0.0025171
0.00552682
0.00581301
0.00229151
0.000602025
0.000835787
0.00274527
0.000705618
0.00175577
0.00181079
0.000637129
0.00624737
0.001539
0.00262811
0.00156574
0.00276651
0.00559171
0.00284256
0.00372879
0.00166644
0.00102365
0.00401209
0.00112741
0.00198583
0.00669895
0.00153125
0.00682441
0.00305826
0.00380445
0.00936778
0.012874
0.00854362
0.00309107
0.00389853
0.00475852
0.0124197
0.0114211
0.00176505
0.00307501
0.00339633
0.0095002
0.00552968
0.0123352
0.00392954
0.00201777
0.00349501
0.00647616
0.0035538
0.00828487
0.00613833
0.00337687
0.0100612
0.00965617
0.0113244
0.00264965
0.00774877
0.00150538
0.0102045
0.00311579
0.00672681
0.00279787
0.00578728
0.0057166
0.0104504
0.00783201
0.00162497
0.00804418
0.00960029
0.00153616
0.000824555
0.00119468
0.00206616
0.00914649
0.00165459
0.011936
0.00204233
0.00970259
0.00222838
0.00141112
0.0046791
0.002063
0.0119524
0.00200533
0.00167481
0.00990244
0.0034114
0.00567365
0.00131718
0.00243223
0.0032538
0.00204464
0.0040728
0.00168102
0.00827447
0.00150173
0.00800484
0.00210559
0.00244971
0.00233051
0.00172437
0.0096426
0.00724231
0.00885651
0.00295418
0.00319864
0.00583284
0.00166151
0.00683859
0.00592613
0.00932549
0.00192956
0.00138157
0.0116171
0.0119537
0.00633447
0.00252062
0.00106905
0.00734691
0.00338527
0.0119023
0.00332979
0.0109946
0.00788213
0.0118244
0.00451234
0.00382258
0.00408206
0.00687134
0.000885608
0.0100741
0.00568672
0.00412803
0.00727169
0.0107828
0.00821829
0.00977311
0.00998708
0.00654966
0.0071002
0.000955212
0.00385374
0.00774978
0.00854797
0.00202411
0.0108215
0.00826042
0.00657562
0.00492013
0.00478879
0.00294621
0.0045274
0.00568944
0.00318405
0.00118458
0.00108588
0.00247713
0.00957524
0.0109336
0.00591959
0.00160742
0.00645468
0.0112608
0.00439731
0.00397209
0.00173729
0.00227382
0.00361563
0.00237025
0.00362658
0.00201336
0.0016264
0.00695986
0.00228073
0.00110282
0.00588422
0.00134748
0.00165143
0.00855451
0.00188583
0.0115232
0.0122195
0.00987481
0.0101623
0.00167521
0.00169481
0.00115176
0.0102367
0.00114692
0.00663927
0.00628745
0.00459982
0.00456574
0.00998238
0.00318347
0.00318428
0.00736867
0.0114893
0.0011757
0.0115283
0.0113189
0.00300452
0.00211496
0.0105393
0.000914791
0.00375422
0.00143389
0.0126688
0.0114955
0.00293899
0.00171975
0.00567503
0.000893883
0.0118738
0.00297408
0.00160991
0.00122353
0.0127872
0.00385446
0.00304691
0.00472595
0.00408658
0.00246914
0.00158676
0.00492223
0.00736689
0.00140562
0.00593358
0.00136389
0.0069791
0.00243296
0.00195154
0.00147196
0.00452565
0.00198997
0.00307402
0.00949805
0.00062452
0.00856004
0.000700775
0.000460473
0.0058322
0.000485922
0.0118558
0.00141821
0.0013419
0.00239008
0.00067523
0.000462077
0.00259896
0.00929171
0.000695178
0.00942584
0.0107978
0.000710964
0.000466817
0.0057888
0.0110213
0.0105201
0.00480765
0.00278053
0.000474711
0.0106019
0.00547995
0.00729933
0.00131299
0.00344376
0.0101435
0.00438878
0.00180359
0.0104783
0.0122627
0.00389295
0.00205074
0.00782935
0.00946982
0.00329474
0.00176533
0.0110327
0.00446272
0.00251163
0.00454397
0.00051091
0.00966303
0.00273785
0.0103458
0.00140899
0.0081671
0.00768898
0.00112358
0.00680737
0.000889783
0.00917779
0.00975414
0.00499785
0.0113138
0.00102821
0.00499194
0.00286958
0.000731344
0.000579445
0.00681767
0.00251796
0.00448209
0.00491532
0.00377601
0.00102992
0.00358632
0.00632547
0.00553922
0.00476062
0.00114262
0.00410638
0.00496588
0.0030134
0.00774056
0.00419598
0.0112512
0.00285937
0.00419542
0.00369096
0.00625374
0.00549491
0.00534362
0.0046292
0.00467167
0.00336372
0.00839138
0.00544865
0.00356659
0.000570112
0.00419039
0.00250102
0.00334154
0.00388693
0.0044476
0.00186693
0.0125469
0.00133164
0.00629009
0.00893126
0.010681
0.00316636
0.00646413
0.0128958
0.00542964
0.00390709
0.00430543
0.00126009
0.00865093
0.00317022
0.00200496
0.00315809
0.00299717
0.00759481
0.0105249
0.00201123
0.00165161
0.00103129
0.000460631
0.00105808
0.00850836
0.00493703
0.0011593
0.00510515
0.00433463
0.00324848
0.00800341
0.0020794
0.00548796
0.00429033
0.00560711
0.00725906
0.00304783
0.0105251
0.00206926
0.00398784
0.00545831
0.0031
0.00467793
0.00110526
0.00130658
0.00413196
0.00358055
0.00531958
0.00579749
0.0103941
0.001803
0.00317904
0.00290951
0.000522301
0.0045902
0.00535043
0.00670563
0.0107987
0.0114604
0.00189647
0.0104943
0.00183985
0.000742982
0.00995432
0.00280721
0.00452582
0.00826991
0.00253499
0.00405456
0.00379236
0.00616981
0.00519093
0.00295755
0.00288752
0.00352009
0.00414352
0.0100838
0.0104503
0.000863722
0.00361518
0.00456263
0.00122175
0.00373761
0.00200191
0.00462733
0.00437889
0.00809153
0.00241362
0.00881993
0.00446598
0.013108
0.00269294
0.0113836
0.00110905
0.00105583
0.00109739
0.000900249
0.000933413
0.00101777
0.000846087
0.00131693
0.00134964
0.00137746
0.00132493
0.001249
0.00118367
0.00123119
0.00128738
0.00136934
0.000953269
0.00107127
0.00132339
0.00123633
0.00138504
0.00117836
0.0011304
0.00113701
0.00117091
0.00105813
0.00282276
0.000723235
0.000575707
0.010642
0.00289188
0.0019658
0.00241261
0.00159582
0.00560214
0.00969093
0.00402227
0.011179
0.00355926
0.000713017
0.0011175
0.00615336
0.00258228
0.0102819
0.00606961
0.00340318
0.00460043
0.00241513
0.0116569
0.00793206
0.00117857
0.00315788
0.00286672
0.000911241
0.000484206
0.00082211
0.0021179
0.0041334
0.00985611
0.00932199
0.00104232
0.00517668
0.00305503
0.00207167
0.00401569
0.00159822
0.00988573
0.00361815
0.00348355
0.00466301
0.00116664
0.00185672
0.00125835
0.00808386
0.00359598
0.00371178
0.00783069
0.00317003
0.0104008
0.00390417
0.00551384
0.00717003
0.00335984
0.0113226
0.00166963
0.00106597
0.000748206
0.0039531
0.00644441
0.00102017
0.00382319
0.00402203
0.0101185
0.00128294
0.00572314
0.00854734
0.0055867
0.00476355
0.00192802
0.0075728
0.00562032
0.00237906
0.00516547
0.00159842
0.00441722
0.00563895
0.0111481
0.00113398
0.00112373
0.0109465
0.0036885
0.00785664
0.00351362
0.00266741
0.00176055
0.00676533
0.00296158
0.00701547
0.00980509
0.00370601
0.00961648
0.00141457
0.0019951
0.00829534
0.00682486
0.0123394
0.00106418
0.00113282
0.00362278
0.00443405
0.0013764
0.00574341
0.000731995
0.00156759
0.00757484
0.00102668
0.000424032
0.00229835
0.000892555
0.00794029
0.00606005
0.00194514
0.00912035
0.000946421
0.0015413
0.010289
0.00331335
0.0081337
0.00125334
0.00109326
0.00447807
0.00336073
0.00470868
0.00337119
0.00622414
0.00724262
0.00278936
0.00303728
0.00764882
0.0046959
0.00460013
0.00920279
0.000782375
0.00686659
0.000818767
0.0023661
0.00164846
0.000732035
0.00205287
0.00268194
0.000647401
0.00271615
0.0105042
0.00316089
0.00369136
0.00382876
0.00464203
0.00091965
0.00155204
0.00506632
0.00814393
0.00544871
0.0014915
0.00221538
0.000910623
0.000705988
0.000741666
0.00291187
0.00844807
0.00112169
0.00298983
0.00464687
0.000281711
0.00821801
0.00550994
0.000597318
0.0028922
0.00062029
0.00191254
0.000920044
0.000606846
0.000619938
0.00303575
0.00283591
0.000720733
0.0011109
0.00050089
0.000549255
0.000522145
0.000502866
0.000980335
0.00100134
0.000552073
0.000618924
0.000641881
0.000630346
0.000906699
0.0128171
0.00783743
0.00488346
0.00632187
0.0048171
0.0105128
0.00496123
0.00121823
0.00105491
0.0071093
0.00338348
0.00480496
0.00175563
0.00595272
0.00323988
0.0101676
0.00896635
0.000480511
0.0072738
0.00244012
0.00389198
0.000733694
0.00280023
0.00258777
0.00634604
0.00153652
0.0056507
0.00735433
0.00327051
0.000897415
0.00106532
0.00084061
0.00224474
0.00570583
0.00304328
0.00398247
0.00248851
0.00293005
0.00475806
0.00174296
0.00399108
0.00403132
0.00388748
0.00548919
0.00870868
0.00938549
0.0113429
0.00214055
0.00143711
0.0054789
0.00457477
0.00398622
0.00365057
0.00283599
0.00230747
0.00277229
0.0112686
0.00102995
0.00103681
0.00968183
0.0028542
0.00134256
0.00253871
0.00317041
0.00369569
0.0103366
0.0011291
0.00348799
0.00108727
0.000932172
0.00483356
0.0128789
0.00226376
0.0103814
0.00705084
0.00451687
0.00346863
0.00580491
0.0033797
0.0021445
0.00173597
0.0105371
0.00298234
0.0111112
0.00819001
0.0106632
0.0130499
0.00147954
0.00494483
0.00435201
0.00379267
0.00244001
0.0100414
0.00238787
0.00260276
0.00535849
0.00642348
0.00150401
0.0108013
0.00765989
0.0029751
0.0031209
0.00297812
0.00117931
0.00287774
0.00518059
0.00329964
0.00289766
0.00343265
0.00237973
0.00233059
0.00634623
0.00929008
0.000942854
0.00251521
0.00386026
0.000936897
0.00347813
0.00420634
0.003176
0.0033017
0.000893962
0.0040098
0.000891756
0.00295302
0.0108393
0.0113553
0.00165831
0.00281804
0.000847131
0.0108528
0.00271795
0.00182331
0.00687846
0.00314335
0.0101632
0.0111141
0.00384747
0.00368903
0.00154091
0.00200075
0.0015609
0.00760842
0.0018208
0.00174583
0.00694306
0.00116843
0.0106885
0.00368273
0.00221632
0.00285617
0.00669551
0.00587067
0.00109873
0.00963704
0.00216054
0.000826285
0.00932447
0.00721124
0.00365472
0.00294409
0.00176794
0.0107589
0.00238738
0.00743699
0.00364751
0.00410614
0.00558311
0.0047851
0.0077437
0.0108572
0.0116807
0.00248762
0.00212606
0.00171896
0.00426408
0.00075895
0.0031333
0.00332088
0.000500925
0.0110645
0.00158086
0.0031316
0.0106631
0.00251109
0.00664865
0.00380216
0.000903813
0.00286341
0.00435202
0.00201877
0.00156289
0.00208981
0.00352988
0.00367654
0.0100293
0.0109504
0.00550768
0.00180341
0.00128786
0.00121285
0.000890668
0.00152463
0.00591104
0.000968031
0.00456265
0.00493344
0.00681529
0.00607283
0.00334011
0.00816415
0.00088784
0.0039534
0.00683489
0.00506519
0.00208116
0.0029326
0.00279317
0.00338819
0.00277561
0.00252444
0.00635319
0.0110086
0.000940643
0.000438673
0.00445458
0.00264583
0.00289495
0.0105999
0.00641485
0.000762381
0.00299675
0.00057334
0.000870848
0.0015338
0.0019427
0.00316005
0.00916126
0.000439624
0.0109867
0.00375867
0.0038522
0.0017495
0.000970516
0.00784083
0.00096694
0.00409856
0.00232372
0.00401417
0.00779011
0.00133456
0.00341365
0.00317771
0.00309119
0.00245138
0.00293684
0.00110856
0.00557393
0.0029948
0.00732519
0.00101376
0.0033248
0.00302154
0.00413997
0.00298681
0.00319052
0.00964665
0.00286732
0.00308568
0.0025907
0.00286577
0.00857032
0.00328775
0.00151139
0.000279584
0.00041418
0.00282323
0.00464543
0.00275119
0.00655129
0.00454641
0.00119105
0.0020971
0.01044
0.00676742
0.00446489
0.00351949
0.00258719
0.00535855
0.0112232
0.0020233
0.0023207
0.00462529
0.00236635
0.00644986
0.00264043
0.00289856
0.00580822
0.0033859
0.00497712
0.00469946
0.00292048
0.00525806
0.00216647
0.00264847
0.00332883
0.00164942
0.0054496
0.00328541
0.00568127
0.00401673
0.00369797
0.00312727
0.00717108
0.00410041
0.00613616
0.0034381
0.00964394
0.0108797
0.00264195
0.00117987
0.00694735
0.00294999
0.00250423
0.00254191
0.00294625
0.00324471
0.00397104
0.00480101
0.00329815
0.00355865
0.000735815
0.00347409
0.0041301
0.00340319
0.00563706
0.00169178
0.00215183
0.000916549
0.00172747
0.000871718
0.000594085
0.00165134
0.00233795
0.000816671
0.00088375
0.0013124
0.000850776
0.00124008
0.00193655
0.00115316
0.000739921
0.00166352
0.00235161
0.00147763
0.00139677
0.00100999
0.00169262
0.000724596
0.000828703
0.00095139
0.00123284
0.00124615
0.00134973
0.00241312
0.000640254
0.000586006
0.00179984
0.000846392
0.00128082
0.00118692
0.0023725
)
;

boundaryField
{
    frontAndBack
    {
        type            empty;
    }
    wallOuter
    {
        type            nutkWallFunction;
        Cmu             0.09;
        kappa           0.41;
        E               9.8;
        value           nonuniform List<scalar> 
108
(
0.000124662
0.000138252
0.000115617
6.77286e-05
6.0607e-05
7.55433e-05
8.44776e-05
5.58262e-05
5.90072e-05
8.15239e-05
5.59257e-05
8.3798e-05
8.5689e-05
5.66686e-05
5.7403e-05
6.19357e-05
0.000131713
8.79492e-05
7.06441e-05
6.90941e-05
5.61259e-05
0.000135605
6.33862e-05
8.92891e-05
0.000130341
0.000124394
0.000129097
0.000106875
0.000110666
0.000120025
0.000100753
0.000152825
0.000157521
0.00016054
0.00015376
0.000145396
0.000138223
0.000143645
0.000150736
0.000159672
0.000113069
0.000126131
0.000154708
0.000145235
0.000161603
0.000138912
0.00013235
0.000133067
0.000136789
0.00012479
6.95699e-05
8.58347e-05
0.000137628
5.86127e-05
0.000137326
0.000125261
8.98893e-05
0.000131619
0.00013401
5.12147e-05
0.000112572
0.000146925
0.000129119
9.80198e-05
8.80161e-05
7.81816e-05
0.0001095
8.50348e-05
8.9134e-05
0.000133096
3.31701e-05
3.31701e-05
7.23052e-05
7.55122e-05
7.39048e-05
7.54514e-05
0.000130257
6.0899e-05
6.69398e-05
6.33341e-05
6.12532e-05
0.000116337
0.000118695
6.70259e-05
7.51034e-05
7.79055e-05
7.66326e-05
0.000108067
0.000143108
0.00012479
5.81059e-05
8.89735e-05
0.000106857
0.000126235
0.000121902
0.00012266
0.000128672
0.000110888
0.000106363
6.07368e-05
0.000106132
0.000114952
5.30117e-05
6.99407e-05
5.31491e-05
3.30881e-05
5.00958e-05
0.000140283
)
;
    }
    inlet
    {
        type            calculated;
        value           nonuniform 0();
    }
    outlet
    {
        type            calculated;
        value           nonuniform 0();
    }
    wallInner
    {
        type            nutkWallFunction;
        Cmu             0.09;
        kappa           0.41;
        E               9.8;
        value           nonuniform List<scalar> 
126
(
0.000217569
0.000236773
0.000185585
0.000160467
0.000226335
0.000221597
0.000122947
0.000134575
0.000193833
0.000224593
9.97334e-05
0.000186268
9.20663e-05
0.00013533
0.000187541
0.000206835
0.000131947
0.000114737
0.000118731
0.000150797
0.000243454
0.000113234
0.000221673
0.000120296
0.000146101
0.00021124
0.000213071
9.77939e-05
0.000100087
0.000180991
0.000108598
9.26595e-05
0.000203535
0.000257001
0.00024694
0.000181017
0.000107477
0.000218635
0.000160004
0.000205516
0.000175212
0.000118496
0.000127247
0.000195433
0.000223412
0.000158979
0.000181801
0.000165975
0.000115057
0.000169155
0.000125048
8.61762e-05
0.000155891
0.000219861
0.000151255
6.77215e-05
0.000112186
0.000191088
0.000163666
0.000131842
0.000132625
7.66008e-05
0.000125095
0.000178171
0.000117134
0.000170944
0.000174049
7.74193e-05
0.000144618
0.000159867
0.000159877
0.000164358
6.54438e-05
0.000163439
0.000198861
0.000191826
6.75391e-05
0.000107154
8.73373e-05
7.20063e-05
8.4299e-05
7.60726e-05
0.000186712
0.00019208
0.000190624
0.000214674
0.000197241
0.00020204
0.000144704
0.000226735
0.000179207
0.000156052
0.000130889
0.000193488
0.000109279
0.000199195
0.000104055
7.36935e-05
0.000190382
9.37167e-05
0.000102463
0.000152959
0.000102016
0.000146191
0.000219904
0.000134942
8.8034e-05
0.000190891
0.000262726
0.000170838
0.000163516
0.000120137
0.000194128
8.72289e-05
9.9169e-05
0.000113072
0.000138341
0.000142191
0.000153834
0.000269005
7.87469e-05
7.1504e-05
0.000204732
9.97533e-05
0.000149809
0.000139557
)
;
    }
    procBoundary1to0
    {
        type            processor;
        value           nonuniform List<scalar> 
29
(
0.00426116
0.00426116
0.00173294
0.00273601
0.00598163
0.00252271
0.00265179
0.00153192
0.00242887
0.00257223
0.00260094
0.00252271
0.00173294
0.00255228
0.00189255
0.00103167
0.00598163
0.00490845
0.00273601
0.00530386
0.000803093
0.000734295
0.00308889
0.000703796
0.000703796
0.00308889
0.000715782
0.000899053
0.000715782
)
;
    }
    procBoundary1to2
    {
        type            processor;
        value           uniform 0.00388532;
    }
    procBoundary1to3
    {
        type            processor;
        value           nonuniform List<scalar> 
48
(
0.00919839
0.00567482
0.00774015
0.00774015
0.0039865
0.00432368
0.00432368
0.00357782
0.00715172
0.00086556
0.000853879
0.00086556
0.00127479
0.00537765
0.00514017
0.00127479
0.0013428
0.0013428
0.00169623
0.00169623
0.00522536
0.00479695
0.0018622
0.00193092
0.00193092
0.00167218
0.004492
0.004492
0.00362091
0.00306797
0.0018073
0.00362091
0.00357782
0.00517429
0.00172405
0.00306797
0.00432756
0.000853879
0.00871603
0.00293719
0.00563327
0.00439398
0.00517429
0.00172405
0.0044732
0.00102217
0.00369296
0.00563327
)
;
    }
}


// ************************************************************************* //
