/*--------------------------------*- C++ -*----------------------------------*\
| =========                 |                                                 |
| \\      /  F ield         | OpenFOAM: The Open Source CFD Toolbox           |
|  \\    /   O peration     | Version:  v1912                                 |
|   \\  /    A nd           | Website:  www.openfoam.com                      |
|    \\/     M anipulation  |                                                 |
\*---------------------------------------------------------------------------*/
FoamFile
{
    version     2.0;
    format      ascii;
    class       volScalarField;
    location    "0.19";
    object      epsilon;
}
// * * * * * * * * * * * * * * * * * * * * * * * * * * * * * * * * * * * * * //

dimensions      [0 2 -3 0 0 0 0];


internalField   nonuniform List<scalar> 
1431
(
6.72945
4.87683
120.727
70.6334
2.37524
8.16029
0.752719
4.4528
17.873
2.76191
5.54085
49.8187
13.4563
58.5687
10.8729
13.0817
11.8734
14.6809
2.52883
5.18187
3.04728
3.67771
5.05381
65.0081
55.0373
5.1327
61.7987
52.8981
22.4796
12.3877
48.8421
12.8239
4.50363
1.53476
1.5918
90.2943
5.04602
10.6601
9.24444
10.1944
147.277
3.58037
2.26757
1.29735
35.5806
6.32605
58.7387
5.06138
18.0371
17.0403
15.0394
2.81627
5.13612
6.63035
1.03795
4.93585
1.75564
2.52876
58.1792
2.32855
71.1382
3.6962
100.296
9.8054
34.966
13.573
107.32
9.71172
9.02648
12.467
1.14089
1.79897
3.59999
9.46879
12.9835
6.61623
3.42016
76.4147
5.74978
89.1396
8.10298
17.4823
3.93725
93.9366
104.767
2.54002
2.11445
20.5904
72.6461
4.95383
11.8012
32.4378
2.19625
10.5586
14.5158
2.5075
20.7082
8.61409
2.00162
30.4177
9.32005
5.64781
6.70988
1.86655
23.9164
4.97263
6.59627
159.671
63.8303
3.00777
106.597
7.85386
5.60452
4.22821
21.1814
1.74396
15.2577
12.5079
82.1446
29.4511
9.2765
7.0283
1.79382
53.2018
9.32562
5.2107
94.3948
10.5143
5.54386
26.3231
5.49537
126.598
52.0663
6.24383
2.27222
51.7068
3.62412
7.35199
8.30554
139.11
4.45281
1.9306
9.79904
18.5371
21.0862
16.1737
8.71457
158.559
3.63696
14.3052
28.1103
38.2763
3.85596
5.81008
3.95239
15.6623
8.97098
5.11875
5.18053
8.23399
15.3652
4.64673
6.92764
17.3893
1.83597
151.663
2.68522
9.9981
13.2738
5.22971
32.7284
21.6148
48.0492
17.3737
9.30308
8.1391
2.91341
26.6712
10.3501
5.88073
10.7376
33.2002
5.28132
4.44476
14.103
16.1701
6.52068
51.9766
5.0809
10.0661
19.183
64.3934
2.79363
7.34801
20.1788
8.3976
6.28406
7.91593
3.84215
2.84884
3.98454
77.9515
11.9367
164.429
6.93725
77.5996
2.62998
10.0411
5.88701
23.9994
7.94928
5.34213
74.7551
9.71755
1.459
2.12643
4.82949
31.2345
32.4935
9.98838
9.22721
74.1374
21.4147
158.771
11.047
30.4439
25.762
4.49504
18.4103
49.277
2.21632
37.2461
10.9941
4.60973
4.42269
4.81549
10.0348
6.44339
8.19345
5.06988
10.3564
9.84392
5.02802
123.244
22.1802
18.5407
10.357
0.899508
2.66838
26.4533
8.65157
9.29885
3.27409
24.9891
81.9663
38.494
23.4483
4.43989
32.246
35.8182
40.6287
16.7218
1.944
3.24894
4.50541
17.8801
29.6737
7.99614
20.7613
2.37469
7.31963
22.5368
8.56493
8.52905
43.1775
8.92908
8.17886
61.2501
25.9134
2.39514
28.2671
5.24499
14.4161
7.93803
32.8351
49.8017
2.34931
4.36189
22.3726
9.24644
17.7417
11.9575
4.45453
13.7748
10.0742
5.78056
3.64182
8.24124
4.56361
7.04437
11.1007
26.1432
5.10135
6.42094
4.24498
5.04575
8.60782
36.904
33.9867
1.13113
9.98142
13.0556
82.4556
1.88154
4.66293
5.17709
5.8406
4.58697
4.4518
13.1201
5.66875
17.6397
4.7492
4.92924
2.68655
10.3468
7.38427
9.92907
77.4767
9.3564
22.0659
7.68392
4.59551
16.9284
8.82623
9.4505
10.6621
6.02666
12.1115
10.1381
2.99191
7.60148
9.45905
18.4462
69.2275
4.59395
11.375
1.62738
0.401749
0.476948
0.921115
1.95439
7.53395
25.6945
9.11456
1.18775
1.70564
6.95291
22.672
8.46194
20.9642
8.19524
26.279
0.448159
0.377847
1.0839
25.2162
6.88583
44.2923
40.3417
4.50017
4.3623
14.8437
12.7865
21.5881
109.691
16.2732
11.4896
13.9053
18.5358
1.88709
0.854941
0.377382
2.5707
6.50371
26.1992
6.72419
8.39232
24.5186
0.428314
2.36786
111.272
20.6795
13.9161
10.5179
3.30449
1.65382
10.7369
5.17673
9.09151
6.26984
14.9362
10.2478
13.2756
20.9543
13.5657
4.79702
8.0533
0.996418
27.545
41.2897
37.8165
12.1878
78.4016
19.693
51.6738
9.46846
2.68167
7.35507
1.14107
4.66633
4.36378
4.7352
16.1356
5.6366
8.156
15.8744
19.0165
60.6851
6.43633
60.6987
20.0521
20.1285
18.2428
5.62319
5.31732
4.06964
18.5285
30.049
8.35694
0.868934
3.97617
19.2813
20.2617
35.3848
5.03944
4.90779
44.5898
126.729
19.1684
18.016
5.84206
11.4236
4.41388
4.93441
4.74173
6.9397
6.6114
5.42726
6.2354
84.4218
18.3869
8.31625
5.26272
7.23628
8.24478
0.794319
66.2869
6.53327
8.64996
70.2557
19.2578
6.09827
56.1561
6.05995
11.289
119.891
133.031
85.1277
14.958
7.57466
20.7957
60.6353
4.89041
10.5584
1.4304
4.85114
7.26558
5.48737
90.197
59.9632
16.4799
7.34215
103.586
15.3005
22.348
43.5572
25.0221
11.3705
25.8986
5.28476
76.1132
18.3794
8.68331
9.46775
53.2354
11.7763
5.99227
8.72811
6.26153
7.81323
48.531
6.59136
35.894
11.2948
9.93796
96.086
59.9333
8.02636
4.88128
57.8568
38.3455
32.0046
0.555827
19.9823
4.3507
10.5157
6.37328
35.9691
20.5581
10.8425
6.77559
30.895
34.2502
5.64323
5.45651
17.4334
20.8127
11.1103
63.7753
14.7884
87.5449
11.4678
2.24933
2.06083
8.27204
18.7457
5.3421
5.92217
7.41974
28.13
2.87423
32.8483
4.66757
5.02853
17.2545
16.5786
15.1602
33.54
4.4792
16.4492
25.1119
16.3963
25.5651
7.07495
0.600243
6.89812
4.88972
71.7473
17.6187
2.74526
6.563
77.0624
8.79494
139.466
6.6664
5.12235
16.307
19.2637
23.0595
23.6773
5.62707
15.2528
6.47703
2.18894
23.1257
10.7208
12.6457
16.521
17.8492
2.04894
3.95394
13.7233
11.2334
9.87564
25.2343
0.423097
23.8719
5.03642
3.39425
11.664
8.5341
11.9851
18.4787
17.7349
7.43139
4.51948
7.71291
8.80201
121.789
78.2904
3.19263
0.876535
19.7061
101.33
5.05203
33.812
9.09581
18.3481
6.07756
14.3091
3.49409
14.2687
9.67838
29.2061
9.71524
14.4136
0.546405
3.68333
5.91396
5.50925
15.308
9.96824
6.34846
5.16239
5.07321
11.7336
4.77412
30.8517
13.8474
20.1246
11.0912
6.81174
2.94468
51.9857
17.3279
21.4105
3.92113
3.19823
13.2596
26.0911
5.44847
8.91241
36.9198
3.317
4.59534
7.23193
11.8054
19.0855
3.83415
8.09741
1.13764
12.6496
12.5886
8.69226
3.16725
13.6815
6.21603
5.63627
46.5049
0.616362
7.6503
13.7331
9.03437
11.3494
11.4314
4.37033
1.45637
14.0542
26.8433
25.9118
3.9253
19.3092
5.57217
24.2255
6.39976
6.14231
16.9564
27.3114
2.27964
63.9794
9.64809
18.6001
6.29342
3.7625
11.6348
0.430366
3.00529
8.10819
5.04106
18.3716
8.46609
4.15524
12.33
2.43519
35.1222
34.3807
3.03789
13.925
166.59
14.8981
0.338085
13.4271
3.98469
19.1706
25.1606
6.72119
25.0825
5.37176
6.76626
23.8967
9.61752
5.36002
20.6136
13.6533
26.2863
3.17357
20.211
30.6104
18.4574
17.0408
15.3944
29.0105
28.793
15.7276
4.23079
8.72766
73.4774
3.04008
10.8793
14.1976
3.27542
13.5148
10.2535
40.3888
22.22
5.54551
19.8615
41.0158
6.11397
2.69801
4.36898
29.279
31.9046
11.3806
7.12925
13.055
29.0184
19.0546
110.414
7.3909
50.5825
47.3855
48.6005
10.2341
3.83646
3.18485
49.576
42.8766
30.3412
49.1197
63.4275
0.412028
10.5089
9.69332
38.059
1.74624
65.7651
17.1014
8.10403
5.3676
2.46695
33.6403
4.16909
0.893128
113.131
0.347298
8.37264
4.10586
131.398
9.69211
4.30754
85.7477
42.1683
13.9625
10.3405
0.500743
12.4404
23.6759
5.98582
12.7568
13.7366
5.88118
14.1653
0.454123
4.04636
61.151
16.4454
4.4267
4.25003
8.55438
6.21177
3.65729
0.699169
88.2633
31.2371
37.2339
40.6222
46.6233
35.128
27.8209
31.8626
35.6983
7.77183
1.96488
17.145
4.32585
15.7662
13.7992
0.62331
24.9856
0.326031
2.14287
1.26095
4.29565
29.3041
16.1599
31.9409
4.64665
14.0122
4.37807
8.12898
8.49258
34.6887
67.6314
6.70784
11.8777
4.36647
5.29758
6.20177
8.94845
4.41482
3.74603
0.582453
49.911
4.96501
3.00535
3.63945
11.0447
12.8185
5.66689
9.80949
7.23269
16.6368
3.68989
5.23397
5.29402
5.05603
0.568363
6.59413
11.3874
51.4412
12.9008
4.76964
0.374027
7.77877
5.59481
1.21327
40.958
6.78324
1.82176
13.7929
9.1808
0.64492
10.338
6.442
6.42073
83.1933
64.9625
11.2064
21.3764
26.2506
6.56175
7.93389
4.4747
105.027
0.352758
6.35918
11.6972
11.3148
21.258
23.3431
7.77748
7.83288
64.3152
56.262
25.4797
5.74011
0.469267
1.06884
13.4392
5.58324
24.7137
14.0534
7.82234
14.2034
29.2596
13.7866
25.1205
17.4723
13.8909
5.5305
8.70087
6.01938
5.07613
46.1038
16.8164
34.6942
7.03776
36.8917
19.1385
4.32629
3.99777
7.06326
7.79704
7.53749
6.13151
8.02023
8.40699
9.00417
0.897978
2.05788
6.90336
8.6144
5.99651
3.25568
106.144
3.19718
17.8176
8.0297
9.18982
2.15168
21.0002
16.8788
94.1202
6.85909
8.40308
17.7274
15.5099
13.209
3.11177
14.1578
6.15215
17.8797
5.84886
7.66264
7.8809
72.8683
3.66003
57.9613
3.69984
8.18281
5.89377
37.2498
10.9844
6.55982
6.35524
7.90492
7.8156
3.13959
5.5816
18.7136
15.7939
39.6768
4.35558
53.2556
2.21981
119.652
7.96231
36.3399
2.63458
6.99386
9.04485
4.45913
11.6633
6.61591
18.2243
43.6717
130.857
2.90919
3.7832
25.6667
23.0344
4.75912
1.31273
4.56373
6.68282
23.5362
13.0635
10.9425
19.8645
3.38692
5.78034
8.55121
59.0348
30.249
61.8192
5.51377
14.463
5.63209
7.13514
4.04525
5.63403
46.7913
43.9004
6.27174
4.8522
29.5143
5.79768
155.43
12.1753
3.59059
5.96078
139.383
8.17469
6.18495
102.192
10.7602
10.5016
9.79991
38.1649
2.17665
0.442627
7.67968
10.0227
7.19121
70.8099
2.77277
4.31471
10.162
6.67622
30.6365
2.75966
35.503
2.52021
1.09228
14.347
18.0584
16.1912
4.93765
6.32212
15.5086
12.9853
43.0139
5.33092
10.0112
13.8258
11.0619
11.4782
4.86298
11.9425
4.63808
26.5616
51.5218
6.55679
31.7948
2.1196
75.0757
14.1715
14.1333
2.32131
7.90847
27.6775
0.513705
7.20607
2.24836
27.6554
58.451
22.7223
14.8993
14.4855
17.9328
18.3833
4.98618
43.3958
8.29615
2.06319
12.0785
5.99259
90.2056
118.713
6.6239
18.7979
87.731
3.12903
15.2179
7.47044
0.550796
13.9852
45.1251
5.85984
13.0818
7.23442
62.9808
3.24158
82.0186
5.44718
5.25682
23.9898
7.60219
4.84076
24.1736
15.2773
5.76518
115.355
7.91979
42.2278
19.9177
7.61337
1.07588
14.447
0.812675
6.44697
20.9914
1.97873
4.51464
3.65944
33.2461
4.4525
0.327098
3.12885
10.5445
26.9015
3.00972
8.20642
4.85722
64.3904
2.0404
86.742
7.37494
66.3481
0.413261
6.14647
12.5818
2.92129
14.4348
32.592
47.9544
47.0677
8.91106
122.117
5.30137
0.383472
1.7937
10.3167
60.0826
114.748
0.367061
4.56669
7.88384
12.1209
7.605
17.3842
106.122
38.9104
14.3818
4.89217
0.696781
1.64713
6.92132
110.268
77.4014
4.40975
4.7329
9.98688
43.6289
132.971
17.4984
28.463
0.368784
9.82036
94.0221
30.6669
5.93607
17.7133
2.42986
69.9988
6.46535
6.44524
10.9661
10.4704
1.86391
13.4216
31.6828
15.2155
46.7125
12.6521
15.2811
2.6095
13.2131
14.2256
66.7698
7.60602
4.89384
32.2418
0.707226
73.0124
2.97327
3.43439
95.5056
16.661
8.7103
35.3231
3.95698
12.8522
4.58155
4.77489
8.49329
19.7293
12.62
36.911
102.324
2.67708
101.85
5.62309
5.61291
59.1113
2.38691
5.5303
7.88215
17.3534
131.595
61.1961
2.06724
1.40576
4.83573
1.95627
7.09915
48.944
9.33146
1.96734
19.1296
4.6431
14.673
181.866
2.50356
101.948
30.9093
2.25259
16.0988
14.3964
3.7591
32.4675
3.52362
18.256
12.3824
15.4744
62.9181
2.15728
20.7528
5.55666
45.3652
0.44378
7.64932
6.31702
5.67169
16.2715
4.67842
34.3389
40.8265
4.8089
4.6789
6.04467
15.5526
4.58986
140.367
8.37839
16.5247
3.19542
14.628
38.0096
56.0281
6.06109
11.6055
6.21828
13.0979
14.9397
11.0766
14.7189
1.10975
5.41217
6.00226
20.1646
20.9259
3.22062
18.0455
3.84605
12.5059
4.02035
6.81348
11.854
20.1897
5.67424
10.638
5.36985
3.44376
7.73023
20.5817
16.2268
35.8823
4.79516
7.41501
4.24898
3.83684
3.93704
112.379
55.4854
13.3181
5.91161
9.65435
6.88744
4.05219
5.66
5.45636
5.36496
12.8046
77.7809
5.92038
31.1883
2.06625
7.34272
5.54788
21.5375
137.003
4.59382
9.50561
7.58675
5.106
1.67734
13.4497
12.0682
35.9321
6.9059
6.63968
24.7588
5.70277
15.3571
30.1274
5.07291
8.50508
7.15623
4.67944
7.57334
6.53531
111.665
18.6132
4.97047
4.97802
8.55034
20.1613
37.1605
5.57366
8.33025
9.30603
5.79902
14.6796
9.27697
9.00298
6.99272
7.24601
7.76134
69.5195
6.23762
158.056
6.19329
44.1496
114.93
12.0908
5.01123
1.59687
20.7266
4.95057
58.1566
7.85937
3.52391
13.9998
48.4131
11.3686
6.13082
10.2484
6.36075
12.6068
8.259
60.9696
10.8172
53.5057
41.3439
34.0029
41.3541
4.84106
4.1661
7.52596
23.2575
2.91677
11.8323
12.2661
22.99
3.52063
23.9487
2.7826
11.9479
23.7205
5.03039
49.306
19.0605
0.997454
2.59803
106.179
1.94472
1.88933
6.31922
)
;

boundaryField
{
    frontAndBack
    {
        type            empty;
    }
    wallOuter
    {
        lowReCorrection 0;
        type            epsilonWallFunction;
        value           nonuniform List<scalar> 
90
(
13.0817
25.1606
23.8967
26.2863
30.6104
29.0105
28.793
40.3888
22.22
29.279
31.9046
42.8766
30.3412
38.059
33.6403
85.7477
31.2371
37.2339
40.6222
46.6233
35.128
27.8209
31.8626
35.6983
34.6887
64.3152
56.262
34.6942
36.8917
7.06326
7.79704
7.53749
6.13151
8.02023
8.40699
8.6144
8.0297
2.15168
21.0002
8.40308
7.66264
7.8809
72.8683
3.66003
7.90492
7.8156
7.96231
36.3399
2.63458
43.6717
59.0348
5.79768
30.6365
43.0139
26.5616
2.32131
2.24836
27.6554
58.451
17.9328
43.3958
8.29615
6.6239
87.731
45.1251
62.9808
82.0186
5.76518
115.355
7.91979
47.0677
5.30137
114.748
7.88384
106.122
110.268
28.463
30.6669
5.93607
69.9988
35.3231
101.85
5.62309
30.9093
4.8089
7.41501
137.003
4.59382
35.9321
20.1613
)
;
    }
    inlet
    {
        type            fixedValue;
        value           uniform 14.855;
    }
    outlet
    {
        type            zeroGradient;
    }
    wallInner
    {
        lowReCorrection 0;
        type            epsilonWallFunction;
        value           nonuniform List<scalar> 
138
(
49.8187
2.52883
4.50363
1.53476
1.5918
3.58037
107.32
9.71172
1.14089
1.79897
6.61623
52.0663
5.81008
3.95239
8.1391
2.91341
3.84215
2.84884
3.98454
77.9515
158.771
38.494
23.4483
32.246
35.8182
40.6287
29.6737
43.1775
32.8351
36.904
33.9867
2.99191
4.59395
1.62738
0.401749
0.476948
0.921115
1.95439
7.53395
25.6945
9.11456
1.18775
1.70564
6.95291
22.672
8.46194
20.9642
8.19524
26.279
0.448159
0.377847
1.0839
25.2162
6.88583
18.5358
1.88709
0.854941
0.377382
2.5707
6.50371
26.1992
6.72419
8.39232
24.5186
0.428314
2.36786
6.26984
37.8165
51.6738
20.1285
3.97617
35.3848
126.729
18.3869
56.1561
14.958
60.6353
90.197
59.9632
16.4799
15.3005
43.5572
76.1132
6.26153
7.81323
59.9333
2.06083
2.87423
32.8483
33.54
2.74526
3.39425
9.96824
3.16725
3.9253
0.430366
3.00529
18.4574
15.3944
13.5148
7.3909
3.18485
9.69332
2.46695
42.1683
0.454123
24.9856
31.9409
4.64665
0.582453
1.06884
46.1038
0.897978
2.05788
3.25568
37.2498
53.2556
2.21981
3.7832
25.6667
16.1912
2.1196
75.0757
3.12903
0.812675
1.97873
64.3904
2.0404
0.696781
1.64713
3.95698
12.2661
49.306
19.0605
0.997454
106.179
1.94472
6.31922
)
;
    }
    procBoundary0to1
    {
        type            processor;
        value           nonuniform List<scalar> 
29
(
0.715967
0.766668
7.1934
7.1934
19.7755
19.7755
123.659
11.6329
103.327
11.5616
11.4644
7.04891
1.77735
0.879492
67.5515
25.9759
52.9451
56.0057
11.5925
0.78015
11.1881
6.25179
62.7954
10.8006
10.844
56.0057
8.52072
69.0591
10.8006
)
;
    }
    procBoundary0to2
    {
        type            processor;
        value           nonuniform List<scalar> 
42
(
4.00289
3.92423
1.76068
1.44569
6.31172
4.00289
1.76068
1.84028
2.34266
2.10386
16.7896
12.0572
16.7896
10.4091
8.68424
4.43177
8.68424
1.73465
2.04507
0.985605
0.985605
1.73465
1.06817
1.24102
1.24102
0.463177
2.13556
0.333338
3.75374
4.25219
4.25219
0.414389
0.542108
0.602691
0.671182
1.76068
5.5141
1.93493
3.75374
1.84028
1.3834
0.91229
)
;
    }
}


// ************************************************************************* //
