/*--------------------------------*- C++ -*----------------------------------*\
| =========                 |                                                 |
| \\      /  F ield         | OpenFOAM: The Open Source CFD Toolbox           |
|  \\    /   O peration     | Version:  v1912                                 |
|   \\  /    A nd           | Website:  www.openfoam.com                      |
|    \\/     M anipulation  |                                                 |
\*---------------------------------------------------------------------------*/
FoamFile
{
    version     2.0;
    format      ascii;
    class       volVectorField;
    location    "0.19";
    object      U;
}
// * * * * * * * * * * * * * * * * * * * * * * * * * * * * * * * * * * * * * //

dimensions      [0 1 -1 0 0 0 0];


internalField   nonuniform List<vector> 
1431
(
(-0.848353 0.638721 -2.75423e-17)
(2.21268 -0.229466 -1.29927e-16)
(6.04721 1.35131 9.05654e-17)
(-2.78309 1.45613 -4.47032e-17)
(0.303522 2.64274 -1.19504e-16)
(-3.27756 0.0880929 2.29912e-16)
(-1.49451 -0.544842 -1.98144e-16)
(9.81234 0.567426 -2.07268e-16)
(-1.7751 1.04266 0)
(-3.09621 -0.0142547 -1.06771e-16)
(0.357013 -3.42865 0)
(1.00337 -0.231889 6.72369e-17)
(1.52617 -0.114834 0)
(9.23871 0.459445 1.81176e-18)
(1.99279 1.09845 -2.24088e-16)
(0.282857 0.322703 0)
(1.88694 1.39219 -3.26643e-16)
(-4.36237 -0.807357 0)
(0.205101 -0.673915 1.33952e-16)
(0.0665066 -3.38689 3.50358e-17)
(-0.372113 1.60358 -1.60738e-17)
(-2.39808 0.389081 -2.49105e-18)
(-3.49052 0.0178772 -3.74476e-17)
(8.97551 0.508824 -2.9305e-17)
(1.74486 3.10653 -1.20223e-16)
(-0.173774 -3.22328 -9.48192e-17)
(-1.34074 4.56106 1.09471e-16)
(9.47466 0.411657 -2.35795e-20)
(10.8338 0.574225 5.84028e-18)
(-3.58592 0.437726 -3.29966e-16)
(7.94266 0.275827 2.2157e-16)
(7.34189 -0.185533 -1.66541e-16)
(-1.72834 0.33214 -9.83341e-17)
(-0.0119157 0.191167 0)
(-1.6749 -0.216355 9.51886e-17)
(3.44302 7.37345 1.25226e-16)
(-0.63076 -2.01683 9.85119e-17)
(9.79425 -0.0122571 0)
(-4.12858 -0.319393 -1.1939e-16)
(9.71673 -0.00598267 0)
(5.38893 0.116757 1.23753e-16)
(0.459802 0.0267458 -7.61855e-17)
(-0.596425 -0.219606 0)
(-2.20142 -0.504098 -5.97664e-17)
(0.0585584 -0.0169887 1.34544e-16)
(-2.04935 0.805758 -3.47266e-16)
(1.38945 4.0227 2.17551e-16)
(7.44915 1.16766 -5.4578e-17)
(9.1451 0.507995 1.50798e-16)
(9.56978 0.0947015 3.46343e-17)
(-3.70208 0.641741 -6.17164e-17)
(-2.62758 -0.268114 1.20692e-16)
(-1.569 0.455987 7.84999e-17)
(-1.38916 -0.236902 -1.54269e-17)
(-1.7747 -0.750016 -1.23587e-16)
(8.23205 1.6524 0)
(-2.79823 -0.430591 5.91322e-17)
(-1.0346 0.272115 -3.28247e-16)
(-0.433597 6.21427 0)
(0.175805 0.648735 -7.78596e-16)
(0.3437 1.08567 0)
(-2.23876 -2.25198 -1.17223e-16)
(2.16234 6.21689 -1.42481e-16)
(10.6084 0.116579 0)
(10.0698 0.292835 -1.72864e-17)
(-1.85973 0.00280252 0)
(6.23933 0.587702 0)
(-2.16898 0.141719 0)
(-1.30211 2.15916 1.3128e-16)
(10.7978 0.0826277 0)
(-0.105803 0.0595972 9.84629e-17)
(-2.21695 -0.21406 -8.61876e-17)
(0.800082 -3.43437 0)
(-4.52954 -0.240005 -2.20449e-16)
(1.86093 -2.21923 5.8152e-19)
(-1.23716 0.653934 2.25297e-16)
(-0.171594 2.55911 4.16447e-17)
(7.10235 1.93972 2.1676e-16)
(10.0288 0.151707 1.23154e-17)
(1.01664 -3.0638 -2.00345e-17)
(9.97376 0.0940089 -2.40377e-16)
(-3.78274 0.598068 -1.50558e-18)
(1.91021 -2.91896 1.37346e-16)
(0.731734 -0.02614 -8.2006e-17)
(-2.5827 1.09905 4.47438e-17)
(0.312107 2.50498 -3.99201e-16)
(0.404863 1.78063 -9.14632e-17)
(-0.227793 0.916231 1.75448e-16)
(8.64148 0.553137 8.79859e-17)
(-0.656219 -3.01832 -4.34348e-17)
(-3.45429 -0.965862 1.33818e-16)
(-1.17031 0.955659 2.51805e-16)
(0.417789 1.61117 0)
(9.8533 0.0273317 0)
(-4.40413 0.213411 1.47566e-18)
(-0.00534996 1.85861 1.31186e-19)
(1.74242 -1.32285 -2.21272e-19)
(10.4094 0.502818 3.13188e-18)
(0.319697 1.43808 1.92026e-16)
(9.10704 0.478643 -4.23747e-16)
(-1.65062 1.64402 -1.45226e-16)
(9.95802 0.153659 -6.37075e-17)
(-1.9808 -0.792093 0)
(0.28403 2.32418 1.98398e-20)
(-0.268727 1.86165 1.76741e-16)
(1.27385 0.0516722 7.78273e-17)
(10.0552 0.0582794 -1.00458e-16)
(5.06854 -0.0307364 7.13723e-17)
(7.22448 0.0275339 9.03325e-17)
(0.187714 2.86682 5.92446e-17)
(-0.643942 -2.65643 1.70468e-16)
(-0.833552 -0.0116616 -7.25158e-17)
(9.76106 0.777861 0)
(-1.58044 -2.19367 -1.30529e-16)
(0.604078 1.81227 0)
(0.204879 2.20322 0)
(-4.36443 -0.824991 0)
(1.46418 0.154332 7.01325e-19)
(8.21465 0.574928 -6.03125e-17)
(0.0432033 0.0357552 -1.3986e-16)
(9.96973 0.249831 -1.92092e-17)
(-1.05333 0.511373 -1.92705e-16)
(-3.27636 -0.229665 -4.07665e-16)
(9.08164 0.797525 -1.11794e-16)
(10.1449 0.161918 0)
(3.1887 0.14471 -6.7357e-17)
(7.70781 0.568209 1.58835e-17)
(2.70788 -2.50669 4.374e-17)
(-1.10142 1.52824 7.26302e-17)
(10.6712 0.422063 -6.97153e-17)
(-0.18735 -0.227508 -1.43378e-16)
(4.52141 -0.152152 2.32808e-16)
(7.32478 0.225271 0)
(-1.92512 -1.30669 -1.49836e-16)
(0.339646 1.49274 -1.00764e-17)
(-1.95596 1.30146 -2.64883e-16)
(0.120281 -3.38854 0)
(-0.759898 0.209854 1.23669e-16)
(-2.64027 -0.0904071 3.91907e-17)
(3.74471 -0.0742943 -3.78851e-16)
(-1.55839 1.18058 0)
(0.221094 0.782831 3.37769e-17)
(10.5559 0.0532669 -7.25241e-18)
(9.12213 0.366802 -1.94413e-17)
(8.82498 0.159903 0)
(11.408 0.279501 4.20505e-17)
(10.3909 0.335773 3.25249e-17)
(4.85764 -0.0580771 0)
(-0.476917 -3.44604 -9.0798e-17)
(9.48414 0.891979 -4.99299e-17)
(10.9002 0.0423425 7.55378e-17)
(9.98958 0.408841 -1.4993e-17)
(3.13533 -0.477952 -1.35334e-16)
(1.66198 -1.37177 7.66057e-17)
(-2.07372 -0.839355 1.3251e-16)
(2.84411 -1.98833 -2.74471e-17)
(10.115 0.106514 8.30207e-17)
(-1.78651 -1.55367 -3.37912e-16)
(9.65889 0.875013 0)
(9.58828 1.09117 -9.24973e-17)
(-4.14174 -0.486275 -1.76631e-19)
(-0.044199 -3.68118 2.99551e-17)
(-2.03095 -0.216611 0)
(1.16903 0.956541 -3.57236e-17)
(0.255546 2.05257 -1.84261e-16)
(-0.742802 -0.613834 -1.81796e-16)
(0.120335 2.48854 -9.65516e-17)
(9.90629 0.0980455 0)
(-3.64418 0.544445 2.96921e-16)
(-1.43679 -1.37571 -1.44858e-16)
(9.88931 0.876483 -1.29208e-17)
(0.943438 0.321421 3.16501e-17)
(8.78809 0.546264 -1.09256e-16)
(11.0907 0.0458485 0)
(10.5405 0.0339963 1.37523e-17)
(-1.92113 0.213517 0)
(0.0258604 0.19569 8.88517e-17)
(9.42116 0.559244 -1.70865e-17)
(-3.42173 0.287196 2.26654e-16)
(9.59384 1.02008 9.47765e-17)
(9.77443 0.278719 3.9506e-17)
(0.447481 0.0221066 1.17785e-16)
(9.00931 1.61137 0)
(-1.08016 -2.56363 2.63602e-16)
(11.2721 0.112107 9.21929e-17)
(10.0086 1.04356 -1.28991e-17)
(9.90909 0.650141 9.81531e-17)
(-2.64277 4.5531 -1.27823e-16)
(-0.317733 -2.925 1.33716e-16)
(10.2973 0.101914 -2.56935e-20)
(-3.32847 0.116289 -4.24579e-18)
(0.892416 0.86828 -1.34992e-16)
(-0.309294 2.24739 -2.83765e-16)
(10.0986 0.0384552 -6.06919e-17)
(-1.03057 2.82682 -2.93506e-19)
(10.1129 0.400016 3.81842e-17)
(10.0571 0.077297 0)
(7.51435 2.07993 -1.01171e-16)
(-1.27456 -2.34136 0)
(-0.201389 -1.12299 0)
(0.838831 -1.80092 -1.4889e-16)
(2.82706 2.48406 -2.71424e-16)
(9.47844 0.98667 -2.60794e-17)
(4.01578 0.126351 -4.27433e-16)
(10.0752 0.0467285 3.33756e-17)
(-2.22891 2.26296 -2.85993e-16)
(0.223613 2.05974 7.5855e-16)
(9.81639 0.199967 2.37467e-17)
(1.36131 -3.36292 1.0023e-17)
(9.34044 0.22352 0)
(10.1619 0.0628513 7.52732e-18)
(9.97545 0.309611 5.96077e-17)
(8.30852 0.654469 1.30087e-17)
(9.88893 0.18734 2.28238e-17)
(-2.88053 -0.527164 0)
(-0.82457 0.0359662 3.98214e-16)
(9.55498 0.960194 0)
(-2.49987 -0.549833 0)
(-0.642897 -0.415196 0)
(10.1344 0.227925 -5.9656e-17)
(9.91279 0.160551 0)
(0.257361 1.04024 1.40292e-16)
(11.1587 0.0273734 -1.21163e-16)
(3.33183 0.810729 -7.16641e-17)
(10.7337 0.34632 0)
(9.40417 0.866573 0)
(9.61731 0.906647 -6.9186e-17)
(-1.51285 -1.82906 0)
(10.6412 0.59142 0)
(7.99609 0.221933 -6.80827e-17)
(0.426817 2.2186 0)
(-2.37383 1.99501 3.25147e-16)
(10.6564 0.0804019 6.73374e-20)
(9.95285 0.452601 -1.79084e-16)
(9.83981 0.394228 8.23577e-17)
(9.8618 0.350648 4.63795e-17)
(10.5246 0.231122 -2.50115e-17)
(-1.46952 0.562498 1.87123e-16)
(9.88421 0.103122 0)
(2.42301 -0.328888 1.54885e-16)
(9.6012 0.17204 -3.03031e-17)
(9.54448 1.06647 7.83776e-17)
(-2.55371 0.724649 -2.45525e-16)
(1.20967 2.46551 -3.33007e-16)
(2.64077 -1.00628 -1.21482e-19)
(2.27903 -0.12274 7.89897e-20)
(10.5495 0.266988 -1.68771e-16)
(-1.54913 -0.307155 0)
(0.0350801 -0.0471931 0)
(10.1737 0.843801 0)
(10.1635 0.896265 -8.90607e-17)
(-2.07011 0.762138 0)
(-2.46132 -0.0189868 1.16533e-16)
(6.48945 3.13426 1.98662e-17)
(1.58189 4.56035 -1.64724e-16)
(8.21112 0.0373187 -4.23432e-17)
(-3.35784 0.302792 1.3635e-17)
(2.74713 -0.430375 1.70741e-19)
(8.35013 -0.00288572 6.02782e-20)
(8.30242 0.008806 8.21503e-17)
(8.17352 0.0524878 8.13575e-17)
(1.26448 0.421248 2.58508e-17)
(0.242653 1.71417 3.72331e-16)
(-3.22963 1.1831 -4.61263e-17)
(9.82434 0.28946 -7.24165e-17)
(10.7456 0.500346 6.41993e-18)
(8.20756 0.00348888 -7.62431e-17)
(9.97554 0.821889 0)
(8.53922 2.53957 2.65762e-17)
(-3.22062 1.1256 -1.46232e-17)
(9.87684 0.946754 0)
(9.32692 0.703876 2.87891e-16)
(10.2949 0.777977 2.60249e-17)
(10.3335 0.681631 0)
(8.13673 0.0576546 -5.02151e-17)
(10.0629 0.595805 9.8869e-19)
(-2.45515 -0.89463 -9.17116e-17)
(-1.17311 -0.313402 2.60059e-20)
(-1.33831 0.183951 -3.30284e-17)
(-3.42379 0.00631879 1.77322e-16)
(-1.71519 1.68972 0)
(2.34029 -0.148661 -3.30429e-17)
(-0.629698 -0.349545 0)
(-2.27049 -1.28939 2.32304e-16)
(8.27172 -0.0108759 -4.16733e-17)
(-3.20809 3.16864 5.47207e-17)
(0.372467 2.32734 9.22254e-17)
(9.28924 1.08633 4.87422e-17)
(10.3729 0.775463 1.94508e-19)
(9.70811 0.165836 6.32305e-17)
(11.1818 0.432057 1.44419e-16)
(9.63583 0.0129534 -5.66233e-17)
(9.50737 0.958348 0)
(-3.75434 0.414105 0)
(10.1363 0.970981 -4.15549e-17)
(9.54909 1.24989 4.4751e-18)
(-0.654115 2.12051 0)
(9.23758 1.90219 1.45462e-18)
(2.61312 -0.484633 -1.48305e-16)
(9.62055 1.07526 2.67206e-17)
(9.70707 0.323512 2.70572e-17)
(9.44505 0.792716 6.92556e-17)
(3.27139 -2.376 0)
(8.17591 0.132365 0)
(-1.70097 -1.42989 -1.95867e-16)
(2.21709 -0.429758 1.24549e-16)
(9.95518 0.118618 7.67094e-17)
(8.261 0.021328 -8.30279e-17)
(8.31087 0.00176085 -7.99459e-17)
(0.713958 -0.395612 1.74785e-16)
(9.71133 0.224844 -1.26543e-17)
(10.8262 0.203918 5.10265e-17)
(0.0746134 -0.212702 -1.56858e-17)
(0.327454 0.861321 -1.74991e-17)
(-0.18746 0.107075 -4.58016e-19)
(2.10295 -0.375313 -1.40184e-16)
(-2.1007 -0.0348603 -5.2733e-17)
(1.56552 0.183577 -7.20039e-17)
(9.86681 0.298181 -4.34206e-17)
(-0.438548 4.384 -9.74053e-17)
(1.84638 -0.352758 -2.4163e-16)
(0.149104 2.49573 1.95429e-16)
(-1.19356 0.570794 -3.80763e-19)
(1.57498 -0.123993 -2.75433e-20)
(-2.83998 0.964799 -1.38245e-16)
(-0.796056 3.68085 -5.21277e-17)
(9.88597 0.0698754 1.64287e-16)
(-1.42584 2.61366 -5.34146e-17)
(8.05412 0.465161 0)
(9.81012 0.163442 -6.362e-17)
(-0.500892 -0.846402 -8.42892e-17)
(3.88092 -0.596176 0)
(2.96735 -0.165312 0)
(-3.77871 0.308013 1.29414e-16)
(10.3209 0.110404 0)
(-2.46609 0.884281 -1.25937e-16)
(-3.33935 0.360223 -4.5428e-17)
(0.543153 1.17244 0)
(-3.60549 0.449185 -1.22804e-17)
(0.613512 -0.201984 1.57274e-16)
(0.525488 -0.981568 0)
(9.86811 0.0851155 -7.40708e-17)
(-1.39342 2.85398 5.80389e-17)
(10.067 0.208067 3.13841e-17)
(6.51018 3.30072 -2.43222e-16)
(-0.42105 0.501492 1.65475e-16)
(10.5305 0.23385 1.36261e-17)
(0.441872 -0.0616722 1.63063e-16)
(0.152382 -0.054732 -8.65399e-17)
(0.488409 -0.0981817 -7.6241e-17)
(0.575187 0.0811012 -1.20334e-16)
(0.0542386 0.0667081 -4.54302e-16)
(0.0567512 -0.0780981 0)
(-4.44366 0.00998949 -1.01778e-16)
(0.63887 0.591074 0)
(0.492104 0.0565231 0)
(-0.050787 -0.00601946 0)
(-0.223909 0.595061 -3.37659e-16)
(-3.68872 -0.358764 0)
(2.36219 -0.0815518 3.63575e-16)
(-2.98622 0.261052 -1.393e-17)
(1.38446 0.524621 1.13883e-16)
(-4.36368 0.172994 1.5746e-18)
(-0.00965395 -0.0361793 -9.29919e-17)
(0.220172 -0.101778 2.71147e-16)
(0.583386 0.0119232 -1.58728e-16)
(-3.75175 0.294088 0)
(2.16965 0.250655 0)
(-0.578362 -0.189664 -2.19938e-17)
(-0.130347 -0.536654 0)
(2.39069 -0.317593 4.22546e-16)
(2.97461 -0.329982 9.26989e-17)
(-0.519959 3.94915 -9.51081e-17)
(10.1009 1.02511 4.82716e-17)
(-3.40016 0.0867044 0)
(-0.718822 -1.57077 1.72764e-16)
(-0.233365 -0.909323 8.61302e-17)
(9.83855 0.267308 2.93786e-17)
(10.0042 0.0301876 7.70518e-17)
(-3.01773 -0.286251 4.4229e-16)
(0.278831 0.0482752 2.7287e-17)
(0.61245 0.0611814 3.76349e-17)
(0.365277 -0.0992309 -2.50585e-16)
(-0.0655707 -0.0536201 0)
(1.88373 0.443729 1.09549e-16)
(-4.09185 0.256901 0)
(2.26957 0.136108 0)
(0.191374 0.641243 1.72861e-16)
(-4.21282 -0.192374 9.7073e-17)
(0.071631 -0.0443513 1.69973e-16)
(0.201068 -0.147332 0)
(5.51115 4.8572 1.61574e-16)
(9.87975 1.01223 -2.61336e-17)
(9.98762 -0.000335129 0)
(-0.842502 3.4964 7.02959e-19)
(-0.0474224 0.0752874 -1.7559e-16)
(0.76793 0.300004 -1.62077e-16)
(9.96898 0.18339 0)
(-1.94791 0.892805 0)
(10.4749 0.0716395 0)
(2.3031 -0.151318 -4.65663e-17)
(-0.496107 -0.787765 1.52468e-16)
(10.0317 0.201015 2.58538e-17)
(-3.85451 0.46693 2.14067e-17)
(-0.764878 -0.588834 9.86035e-18)
(10.0513 0.799508 0)
(1.61089 0.247312 9.62723e-17)
(8.91219 0.0111924 1.54962e-16)
(0.519871 -0.546379 -2.8831e-17)
(-0.278526 -0.788091 -1.18864e-16)
(9.75916 0.077829 6.03571e-17)
(-0.275225 -0.849841 0)
(-0.583451 0.00439801 3.21152e-20)
(4.51957 7.33601 -3.44089e-16)
(8.99433 0.222635 -2.05784e-17)
(1.79414 4.64588 6.09217e-17)
(0.797424 -0.614236 -1.46519e-16)
(-3.19974 0.897107 2.31379e-16)
(3.40592 0.54274 -1.6171e-17)
(0.83305 -0.109774 -3.8157e-20)
(1.53533 0.0439151 4.1565e-17)
(-2.25618 0.277591 1.28067e-16)
(-2.66457 0.445536 4.79186e-17)
(2.14069 -0.384439 -2.16989e-16)
(-2.11132 0.122327 0)
(1.32629 -0.420825 1.44068e-16)
(2.56656 -0.280622 3.76994e-17)
(-2.34746 1.45115 7.92494e-18)
(1.90301 0.0804927 -9.52761e-17)
(2.79381 0.304136 -2.74024e-16)
(5.34363 1.61432 0)
(1.54446 -0.345891 -1.68053e-16)
(-0.38424 -0.21636 0)
(-3.67606 1.214 1.71703e-16)
(2.28284 0.0335691 -7.75662e-18)
(2.39913 0.110573 0)
(-2.37053 0.388488 -1.88908e-16)
(-2.07185 1.04503 1.82542e-18)
(2.0769 -0.822252 4.90048e-16)
(-1.95909 -0.342958 1.54787e-16)
(-1.58024 -0.665589 6.64059e-19)
(-0.187737 -0.340285 -4.86e-17)
(-2.76368 0.759415 0)
(-1.82234 0.430851 3.93163e-17)
(0.393938 -0.277584 0)
(-2.75701 0.5868 7.9389e-18)
(-2.77415 0.737073 -4.35955e-18)
(1.24818 -1.04769 -9.62693e-17)
(0.68209 -2.3366 0)
(-3.50625 1.55337 9.41809e-17)
(-3.8496 1.22871 -6.75711e-17)
(-2.20104 0.516862 3.47429e-16)
(-3.06467 0.844314 -1.2594e-16)
(-2.89772 0.747804 -1.23038e-16)
(-1.72957 0.532725 7.41334e-17)
(-2.6615 1.18235 -1.86583e-16)
(-2.26317 0.992882 -2.69207e-16)
(-1.78137 0.640017 -6.08861e-18)
(-2.53624 1.08008 0)
(2.25442 0.192134 0)
(6.27025 3.52374 1.75988e-16)
(-0.450536 2.63198 0)
(-3.15802 -0.294324 0)
(-3.83618 0.061408 -1.6052e-16)
(2.24805 0.29025 1.65422e-16)
(2.17384 0.247836 -3.55172e-16)
(0.324979 -0.587683 -1.63208e-16)
(6.18484 5.5506 7.00639e-17)
(-3.42337 -0.152991 -1.67643e-16)
(2.95656 0.41578 -3.97976e-16)
(5.07388 6.42218 1.38592e-16)
(-2.89158 0.200421 0)
(8.2215 0.0877376 -1.44022e-17)
(1.11491 7.21508 -5.33548e-17)
(-2.95748 -0.102012 2.36431e-16)
(2.80692 0.275407 -1.36982e-16)
(4.51011 5.03313 -2.79163e-16)
(3.56918 4.84791 2.7877e-16)
(1.45952 1.63125 2.09577e-16)
(-0.912291 -0.116602 0)
(-1.26956 0.421933 -4.36651e-17)
(-2.89128 0.338186 0)
(0.744695 8.73667 -4.12522e-17)
(10.004 0.338312 -1.70872e-17)
(8.90825 0.142114 -3.00201e-17)
(-1.84386 -0.879893 -1.5339e-16)
(-3.58066 0.0825007 -1.00985e-16)
(-1.13852 0.325993 1.398e-16)
(-1.45084 0.848536 -9.74453e-17)
(0.720642 -2.2299 0)
(0.639244 -1.37889 -9.61752e-18)
(-0.510588 1.98533 0)
(3.59545 0.477329 1.60954e-17)
(3.03083 2.77927 7.22092e-17)
(-0.593943 1.06812 0)
(-2.93897 0.436551 0)
(-0.453216 1.92865 0)
(-0.61926 -0.662387 3.48919e-17)
(9.93539 0.146975 -1.27684e-17)
(0.422633 -0.954292 0)
(-2.8758 0.0118557 -7.29629e-19)
(-0.013435 2.42538 1.86579e-17)
(-0.998256 1.28836 -6.83163e-23)
(2.75811 0.585553 0)
(2.79523 0.25307 1.6432e-16)
(0.407909 -2.32568 0)
(3.0424 0.251924 -6.96919e-20)
(-1.8672 0.159734 -6.94567e-17)
(-0.835463 1.73735 -3.71266e-17)
(0.370005 -1.20703 -9.12748e-17)
(0.65312 0.242103 0)
(0.933634 -2.03768 2.51225e-17)
(9.74991 1.10089 0)
(-0.663514 -0.228948 3.68004e-17)
(10.5368 0.1147 -8.84615e-17)
(-0.840312 2.22101 0)
(2.14141 2.22325 -4.82524e-16)
(-0.350329 2.58794 9.58632e-18)
(-0.917753 1.10559 3.98419e-17)
(1.46178 0.197605 0)
(-0.206976 -1.95553 3.63487e-19)
(1.68571 -1.32352 -8.71394e-17)
(-0.316024 -1.35316 5.0741e-17)
(0.512904 -0.359713 -1.65968e-16)
(-1.89787 0.35958 8.86477e-19)
(-1.93693 0.580872 0)
(-0.331899 -0.206073 1.59048e-16)
(-1.28852 1.31199 0)
(1.22678 -1.6981 2.96643e-17)
(-0.69156 0.0241316 -9.47834e-17)
(8.87025 0.173784 4.13569e-17)
(8.13625 0.149562 -1.19759e-16)
(2.03586 -0.973972 3.94467e-17)
(0.486663 -1.66852 -1.24785e-17)
(-1.52181 0.482962 1.97281e-17)
(-1.39692 0.925591 -3.73808e-17)
(-0.11053 1.70152 3.36165e-17)
(0.391055 -0.194797 0)
(-3.03934 0.712338 2.88204e-16)
(2.86656 3.63224 0)
(2.71776 0.639723 -1.02071e-16)
(0.592114 1.34111 1.9054e-16)
(0.132586 -0.72537 1.5298e-16)
(-1.53933 -0.719009 0)
(0.326645 0.0166616 4.43041e-17)
(-0.936143 0.417049 6.31528e-17)
(-0.818825 0.686317 2.20569e-17)
(9.83455 0.0910607 0)
(-1.65652 0.240605 0)
(3.851 0.345886 -1.09379e-19)
(1.3721 -1.08841 -3.49195e-17)
(-0.511264 -0.391584 2.05626e-16)
(8.21029 -0.0528541 4.02406e-17)
(-1.5633 0.722415 7.27843e-17)
(2.99388 0.0357495 2.57209e-17)
(-0.816856 -0.477127 -4.95484e-17)
(0.62545 1.99879 -6.3521e-17)
(0.217687 -0.806301 -1.58579e-16)
(8.11751 -0.048148 -4.85413e-19)
(9.38574 1.10011 4.35955e-17)
(-3.67334 1.02738 -2.48059e-16)
(2.45795 -0.438655 0)
(0.303036 2.35623 0)
(1.71548 1.47863 8.45059e-16)
(-1.68328 0.522445 -1.06004e-16)
(0.770015 -0.0291231 -4.92165e-16)
(-2.81869 0.4868 0)
(9.75562 0.876243 1.23239e-16)
(0.688635 0.332625 0)
(2.7389 0.155396 1.09559e-16)
(-0.254856 -0.12899 -5.85099e-16)
(-1.7731 1.10316 1.87827e-16)
(1.68987 1.85433 0)
(-1.00627 0.843761 1.08819e-17)
(2.37465 3.97079 0)
(-1.8735 -1.37187 1.96589e-16)
(-2.65314 0.319462 1.00116e-16)
(-3.59269 0.316351 7.32868e-17)
(2.68608 -0.216546 -9.68002e-17)
(8.87262 2.17399 -2.74383e-17)
(-3.02666 0.514386 -3.1983e-18)
(9.83511 0.0720765 2.08334e-16)
(-0.789773 -0.403757 0)
(2.56711 0.501308 -2.35546e-18)
(0.532712 0.0161368 -2.42754e-17)
(1.46704 -0.401453 0)
(-0.208925 -0.346339 3.05611e-16)
(9.94126 0.907528 0)
(-3.75115 0.654147 3.03752e-18)
(10.8356 0.411176 -3.0938e-18)
(-2.31281 -0.605136 0)
(-1.87199 0.127217 -1.1089e-16)
(10.0003 0.0650547 -1.04978e-16)
(9.88706 1.11761 0)
(9.77819 1.38152 -4.90692e-18)
(2.34542 -0.478151 0)
(0.0276086 -0.265406 -9.20942e-17)
(-1.88224 -0.107768 -1.39553e-17)
(9.79792 0.788092 6.70206e-18)
(-0.086274 0.109747 -1.81915e-16)
(-0.262852 -0.574882 -1.97139e-16)
(0.525487 -0.188739 -3.81829e-16)
(3.3132 0.133814 -3.05802e-17)
(0.313442 0.51433 -5.21011e-18)
(0.143784 1.14098 5.52812e-19)
(-1.33442 0.700876 -9.34183e-17)
(0.419758 -3.69696 0)
(4.08987 0.0755932 6.90293e-20)
(-0.7466 1.06249 6.12817e-17)
(5.45554 1.07075 -4.31237e-17)
(6.87137 2.12096 5.96513e-18)
(-2.6943 0.644092 -1.3483e-16)
(0.791205 0.0205295 0)
(-3.03452 1.66565 -1.17052e-16)
(6.14125 1.51534 0)
(9.84333 0.684529 -1.2441e-17)
(-0.92184 3.03145 0)
(0.457106 0.155371 6.0155e-17)
(-1.22686 1.81751 -7.8936e-17)
(-1.33195 0.362105 2.30499e-19)
(2.46002 -0.228037 8.04332e-17)
(0.846462 0.0109652 0)
(-3.99097 -1.01798 1.98352e-16)
(4.3774 -0.702675 -4.23727e-17)
(-1.2928 -0.818694 1.13437e-20)
(6.86998 1.63978 -5.81683e-17)
(2.58633 -0.391098 6.64781e-17)
(-0.0919515 -0.264569 9.22484e-17)
(-2.41121 0.57293 -1.2305e-17)
(9.8393 0.0481356 0)
(-1.83913 1.25713 4.84049e-17)
(-3.10366 -0.711893 -6.6277e-17)
(-2.1157 -0.114912 -1.02737e-16)
(9.84259 0.0414794 -4.35363e-17)
(1.81126 -0.289878 5.59764e-17)
(-1.51348 0.509219 3.65877e-17)
(3.58585 -0.0797556 -5.84466e-17)
(9.2259 1.12833 3.47595e-17)
(8.91474 1.48235 1.96923e-17)
(-2.64865 -0.904772 1.64627e-16)
(1.43986 0.288716 -1.5953e-17)
(-0.0453152 0.684606 0)
(9.85173 0.0535757 1.72239e-16)
(-2.66061 0.725953 3.17266e-16)
(-0.963645 -1.15081 -1.56595e-17)
(0.973884 1.51645 0)
(2.39753 0.0848075 2.50228e-17)
(-2.17837 0.491995 -8.45074e-17)
(-2.07529 -0.321032 6.47052e-17)
(-2.18221 -0.634687 2.24998e-16)
(-0.738054 -0.111729 0)
(1.34993 -0.203897 2.31356e-17)
(9.56078 1.64757 4.09203e-17)
(8.64773 0.937139 0)
(-2.90595 0.602299 9.61389e-17)
(-1.92344 0.605976 -6.33037e-17)
(9.82919 0.0638725 7.74334e-17)
(9.9244 0.150195 -2.13577e-17)
(-3.01496 0.28419 -1.9926e-16)
(-2.30104 0.722558 -3.48191e-16)
(2.64398 0.684538 1.40923e-17)
(0.0704266 0.222711 9.90329e-17)
(-2.81684 -1.24341 -2.39599e-16)
(-3.49573 -1.26882 -5.46322e-19)
(9.83176 0.12336 0)
(-0.519938 0.367917 1.65346e-16)
(10.0115 0.0656672 3.70116e-17)
(-1.98168 0.178384 -5.77097e-17)
(-1.69236 0.632071 1.4181e-16)
(0.107105 -0.193329 -5.05314e-17)
(-0.188932 -0.100789 -9.14848e-17)
(9.85423 0.0801383 -2.42407e-17)
(-3.44084 -1.17254 -1.15566e-16)
(2.38813 0.969395 -1.87818e-17)
(8.81518 0.265347 0)
(8.94204 0.704027 7.51916e-17)
(-1.72664 -0.0541979 6.32706e-17)
(-2.35693 -0.772019 1.56573e-16)
(3.1768 -0.764438 0)
(8.95714 1.80194 -2.96831e-17)
(0.851318 0.183148 -1.50104e-16)
(-0.0233651 -0.184925 1.42563e-19)
(1.71608 0.612056 -2.66029e-17)
(-0.410983 0.0962038 2.10204e-17)
(-3.05344 -0.190039 -1.43088e-16)
(2.61969 -0.308826 2.48367e-19)
(-2.5868 0.127067 3.29549e-16)
(1.91177 1.26265 -3.03704e-17)
(-0.180454 -0.759578 0)
(0.63807 0.280241 1.57156e-16)
(7.42202 0.111808 2.078e-17)
(2.54982 1.09018 0)
(2.23288 0.708724 -1.38673e-17)
(-1.3742 -0.0980372 -6.38681e-17)
(-2.63397 0.476592 9.69848e-17)
(3.75059 -0.364177 -2.78476e-17)
(-0.0357731 -0.0273909 -7.93293e-17)
(-0.101003 -0.19048 3.29911e-16)
(9.84529 0.105231 0)
(9.12835 1.16521 -5.62775e-17)
(1.26416 0.941043 0)
(4.27652 -0.289392 1.04391e-16)
(9.4908 0.948292 -6.2083e-17)
(3.68063 -0.63685 5.16081e-17)
(0.138709 1.36375 2.59476e-16)
(4.92699 2.87305 9.07378e-17)
(8.80864 1.19011 -3.11318e-19)
(-2.48116 0.929513 -1.77519e-16)
(10.007 0.0736823 -1.07888e-17)
(5.76676 0.328341 2.26405e-16)
(-3.54177 0.417828 1.58954e-16)
(0.107467 -0.267081 4.28361e-18)
(2.26142 -0.100289 -8.13425e-17)
(-2.89315 0.295626 -3.29596e-17)
(-2.2276 1.9243 -6.39865e-17)
(8.13437 0.297173 4.76615e-21)
(1.31599 -0.417074 2.69752e-16)
(-2.00528 2.82142 -9.74694e-17)
(9.00128 1.16827 -8.43665e-19)
(-2.03505 0.424064 7.19118e-17)
(8.50866 0.329467 0)
(9.62324 0.0994607 2.10861e-17)
(9.84857 0.0943434 1.18256e-17)
(0.806459 2.09339 1.87075e-16)
(1.11981 -0.409307 -3.94631e-16)
(7.71314 0.293996 -2.20497e-17)
(-3.03258 0.51604 0)
(-3.12424 1.47087 9.25915e-17)
(2.199 0.15042 -2.44797e-16)
(-2.71466 0.122206 0)
(-0.522655 3.25851 0)
(-2.51204 -0.352857 1.18306e-16)
(2.69862 0.16218 2.28361e-16)
(3.10151 0.192821 0)
(1.37808 1.85263 -2.39243e-16)
(9.57791 0.847578 -6.72792e-18)
(-1.95311 -1.27998 1.30612e-16)
(0.0673541 -1.41239 1.026e-16)
(-2.70666 0.797524 0)
(-2.25215 -1.26176 -2.4965e-16)
(2.46439 1.08111 1.13211e-16)
(-2.88714 0.858627 1.18597e-16)
(6.11657 -0.280246 0)
(-3.06141 -0.37819 0)
(5.34624 0.0996496 0)
(8.93201 0.351669 7.40242e-18)
(9.30558 1.45487 1.01753e-17)
(10.5205 0.682347 -1.27035e-17)
(9.51799 0.869946 6.84407e-17)
(2.74585 -1.44088 1.4714e-16)
(-3.45367 0.984498 4.35368e-17)
(9.14579 1.2382 -1.24399e-16)
(3.53375 0.198929 0)
(4.2803 0.167354 4.56335e-17)
(-2.95486 -1.30524 0)
(-0.615969 -0.531683 -1.06988e-16)
(9.94645 0.0323347 5.61115e-18)
(10.978 0.0481404 0)
(9.55315 0.113312 5.06454e-18)
(7.12713 0.52644 -1.52304e-16)
(-2.82371 -0.0386543 -3.05396e-16)
(7.01779 0.667496 1.1662e-16)
(4.54033 4.3736 0)
(3.02857 5.16701 1.62461e-18)
(9.65682 0.0105931 9.6364e-17)
(-3.67423 0.281192 -1.55307e-16)
(0.390174 0.03036 -6.46183e-18)
(2.29238 6.49473 -3.41406e-17)
(5.51066 0.160306 6.42092e-19)
(3.93988 0.189818 7.39364e-19)
(-2.04086 -0.473643 -8.80303e-19)
(1.74736 1.88422 0)
(0.0331478 -0.174253 1.72493e-16)
(1.33631 -0.329398 1.42394e-16)
(-0.0395206 0.169619 -1.70976e-16)
(5.09035 0.0915645 0)
(0.223171 0.628953 8.26377e-17)
(0.626715 1.16818 3.19247e-17)
(-3.86273 0.82763 -1.06608e-16)
(4.07357 -1.15652 -1.22516e-17)
(2.8465 -2.99243 -7.22102e-17)
(0.350906 -0.0226023 6.0807e-17)
(4.57532 0.138383 -4.72878e-17)
(-3.21147 0.76946 0)
(0.675365 0.0629477 1.71433e-16)
(2.84449 1.04484 -3.9561e-16)
(0.123928 -0.192226 -9.69689e-17)
(1.30165 -0.21379 -1.24149e-16)
(-0.0509352 -0.0204181 -2.88633e-20)
(6.40569 0.449602 -1.1151e-18)
(-2.79962 -1.00948 1.24203e-16)
(9.64451 0.759769 0)
(1.77882 0.0338091 0)
(3.41509 1.71849 -9.25248e-17)
(9.99381 -0.0125373 2.67073e-18)
(9.88095 0.199594 0)
(-0.0717872 -0.149238 -8.95868e-17)
(1.37599 -0.406563 0)
(1.56867 1.57974 -1.32791e-16)
(9.92117 0.102357 2.36862e-17)
(-3.19861 0.670795 1.64806e-16)
(2.07438 1.5235 0)
(8.87415 1.12264 2.66398e-17)
(2.55576 -0.544928 -8.93558e-17)
(-0.123619 0.0135795 8.79778e-17)
(0.88048 -0.0883362 -1.85509e-16)
(2.26616 7.47094 9.15527e-17)
(-3.96357 -0.0464301 -2.42242e-17)
(-3.0207 0.197399 4.02193e-16)
(-0.402293 2.38254 0)
(9.74844 0.133515 -7.94796e-17)
(9.89257 0.0687078 -2.56843e-18)
(-3.09865 0.468148 -8.98505e-17)
(-0.206562 0.205057 9.48472e-17)
(2.40483 -1.79282 -1.15257e-16)
(6.19034 0.0463393 3.09798e-17)
(5.70042 0.218407 -4.2836e-17)
(4.65922 -0.294521 -1.9323e-16)
(5.26386 0.172787 0)
(5.63668 0.056669 -1.42258e-16)
(7.28038 -0.0470506 0)
(6.13754 -0.0799249 3.55113e-17)
(4.84098 0.110588 5.43621e-18)
(0.283413 -0.0371142 -7.76285e-16)
(0.440814 -0.00314623 -4.13711e-16)
(11.1214 0.434089 4.91008e-17)
(1.63382 -3.41015 -1.85665e-17)
(1.52219 1.74476 1.6023e-17)
(2.00172 -0.601865 4.71637e-16)
(-0.144557 0.157373 1.30949e-21)
(0.132179 -0.223277 0)
(0.216728 -0.0922376 -2.05903e-16)
(0.828567 -0.0423341 -3.76081e-17)
(0.184941 0.19724 0)
(-0.419011 -0.0211068 3.0825e-16)
(9.05104 0.544987 2.84545e-16)
(-3.98839 0.615061 -1.55202e-16)
(8.35273 -0.0267571 3.89391e-17)
(2.19475 -0.229432 -5.58157e-17)
(-3.56646 0.594838 -9.16953e-17)
(9.71515 0.666579 0)
(8.73987 0.857001 -3.84165e-17)
(10.3996 0.423817 0)
(5.95306 0.116822 0)
(3.26488 5.79788 9.26694e-18)
(8.78076 1.02038 1.0649e-19)
(2.09417 0.0107932 3.32864e-17)
(2.61362 -0.365324 -3.13093e-16)
(1.22203 -0.11517 2.81792e-16)
(9.77915 0.016704 1.02079e-17)
(0.598296 -0.440779 1.24343e-16)
(2.90074 -0.234587 1.99863e-16)
(3.05189 -0.51342 1.15349e-16)
(0.603018 -0.0976098 -3.27563e-16)
(3.27719 4.86394 3.36593e-17)
(-1.40324 -1.10346 1.83066e-16)
(-1.95697 -0.591818 -4.87445e-17)
(-2.13527 0.277355 0)
(9.89932 0.189007 0)
(9.61504 0.0243872 5.5533e-17)
(9.82694 0.0507403 -8.13733e-17)
(-2.56518 -1.30871 -1.64256e-16)
(3.65754 -0.068711 -2.85541e-17)
(-1.81258 0.309051 2.88884e-17)
(1.10926 0.16376 0)
(-0.575312 2.03192 0)
(9.99241 0.234032 6.07674e-17)
(8.64807 1.67811 0)
(-0.0740092 0.0809411 -8.73756e-17)
(0.016948 -0.230779 -2.68274e-16)
(8.71446 0.393644 1.51677e-17)
(1.95647 7.2222 0)
(-3.61975 -0.832159 1.87574e-16)
(2.55891 -0.0209465 0)
(0.334414 -0.216134 1.89986e-16)
(8.79161 2.11135 -9.44405e-17)
(-1.54316 -0.146298 0)
(-1.94117 -0.894157 -1.06755e-16)
(-2.30248 0.0459777 -6.02213e-17)
(9.824 0.0543118 -7.30904e-17)
(0.230424 0.966759 1.60503e-16)
(2.0066 -0.464663 0)
(-1.00436 -0.282265 7.15643e-17)
(0.681075 -0.295772 -8.16567e-17)
(10.5587 0.0853722 0)
(-0.745111 1.1734 0)
(-1.14677 -0.928185 1.99028e-16)
(3.35672 2.28614 -8.12628e-17)
(5.15041 2.47825 0)
(7.02083 0.0730174 1.71288e-16)
(9.46206 0.122446 0)
(0.307882 2.48473 -1.84446e-17)
(-3.83513 -0.000873889 -9.8826e-17)
(9.77901 0.113694 5.98399e-17)
(-0.986611 -2.04384 -1.50882e-16)
(6.5914 2.65099 -2.06527e-16)
(0.198485 -0.243596 -1.23793e-16)
(1.26312 -0.0669632 0)
(-3.54867 0.373106 -1.58926e-16)
(3.77271 -1.98032 2.04135e-17)
(-3.36663 0.572578 0)
(-3.26286 0.59885 -1.32366e-17)
(-1.82017 1.15135 1.7409e-16)
(-1.3221 1.62484 6.10822e-17)
(1.76777 0.0588851 0)
(2.05705 -0.00509966 4.6942e-19)
(11.2452 0.172993 -4.57913e-17)
(-1.32208 -0.762326 3.4352e-17)
(0.341622 -0.36292 5.7208e-16)
(0.819978 -0.0717258 9.75226e-17)
(-4.00405 -1.19186 2.15239e-16)
(9.84151 0.0740839 5.69053e-17)
(-1.12084 3.09132 0)
(-4.07952 0.430024 1.50493e-18)
(-2.01933 1.6548 -1.77087e-16)
(1.04737 -0.204875 -2.84952e-16)
(-0.639198 -0.665669 -8.54721e-17)
(9.59294 0.0399187 9.17926e-20)
(1.74123 -0.284194 0)
(3.46935 -1.32752 3.53287e-18)
(-3.73028 0.425263 -7.50245e-17)
(9.99853 0.211998 2.69149e-17)
(-1.28881 -0.907518 1.99097e-16)
(9.82999 0.0306484 1.24629e-21)
(9.83329 0.122729 0)
(7.92516 0.0782711 4.5982e-17)
(2.83075 -0.632752 0)
(5.86464 -0.0460393 -1.90041e-16)
(-2.03142 0.179407 -1.85098e-16)
(2.16114 0.0672015 0)
(-1.56085 2.25715 -5.82641e-17)
(8.67392 1.32656 -1.8781e-17)
(-1.09144 -3.47477 6.71478e-17)
(0.418206 -1.77258 -7.98119e-18)
(0.162722 -2.86482 0)
(0.315162 -2.42103 7.20631e-18)
(0.404452 -1.02832 2.03488e-17)
(0.0156092 -3.03461 2.72109e-17)
(-0.0855241 -2.92909 -5.62591e-17)
(-0.171936 -0.0145962 1.97806e-16)
(0.104039 0.0760926 0)
(-0.754458 -0.102206 3.16427e-16)
(9.80251 0.0666569 1.04708e-17)
(-0.13672 -2.71839 -7.92457e-20)
(-0.666604 1.62684 0)
(-1.07822 -0.583321 6.46117e-17)
(0.270927 -2.71761 1.33801e-18)
(0.00353025 2.81115 -1.51597e-16)
(-3.82654 0.381604 -3.03119e-18)
(-0.268591 -0.292547 -2.05849e-16)
(-0.68019 0.58851 -1.07017e-16)
(0.0303906 1.41063 -1.093e-16)
(0.385632 1.1116 6.71554e-17)
(-3.96261 0.953296 2.29113e-16)
(2.57581 1.77108 0)
(3.50881 0.320046 -1.30087e-16)
(-0.168157 -2.46791 -8.78905e-18)
(-2.93107 -0.0205938 2.69404e-17)
(-3.55201 0.83489 -8.45352e-17)
(-2.00785 -0.305609 -3.20185e-17)
(-3.5801 0.638654 1.31294e-16)
(-2.83652 1.10499 6.2601e-17)
(3.05731 0.577275 9.39733e-17)
(-3.80666 0.499839 1.51652e-18)
(1.16457 -0.0475395 -2.14349e-17)
(-0.253831 -0.823194 1.78848e-16)
(-0.220814 -2.17071 -1.82532e-17)
(-1.5673 0.360887 -6.32595e-17)
(0.108129 2.0532 0)
(-0.258068 -0.245116 3.65584e-17)
(-2.75554 0.785724 1.58647e-16)
(-1.92665 2.00646 7.50247e-17)
(1.53701 -0.204922 2.83942e-19)
(4.51951 0.291797 -2.72478e-16)
(0.248346 0.452778 2.42918e-17)