/*--------------------------------*- C++ -*----------------------------------*\
| =========                 |                                                 |
| \\      /  F ield         | OpenFOAM: The Open Source CFD Toolbox           |
|  \\    /   O peration     | Version:  v1912                                 |
|   \\  /    A nd           | Website:  www.openfoam.com                      |
|    \\/     M anipulation  |                                                 |
\*---------------------------------------------------------------------------*/
FoamFile
{
    version     2.0;
    format      ascii;
    class       volScalarField;
    location    "0.01";
    object      epsilon;
}
// * * * * * * * * * * * * * * * * * * * * * * * * * * * * * * * * * * * * * //

dimensions      [0 2 -3 0 0 0 0];


internalField   nonuniform List<scalar> 
1431
(
10.2213
8.41066
7.83871
7.78185
8.1833
8.44635
7.94805
9.89635
8.14855
8.33424
33.8522
8.27856
8.10377
7.71838
7.79579
7.94559
8.04427
7.79963
9.71446
8.34762
54.4764
7.76834
8.95985
29.5152
8.36368
8.78683
28.1587
7.80962
14.0599
18.1126
10.8195
8.99227
9.67844
9.81779
7.9868
9.53224
7.86377
7.6723
8.44482
8.39725
8.10379
7.9194
8.3126
7.83168
12.0584
7.97519
9.7979
27.7835
7.88211
7.85465
8.21907
7.92856
8.11925
8.31514
8.17522
9.32188
10.3859
8.23722
8.50189
8.08227
7.30781
7.85564
8.37529
7.69963
10.0304
10.4933
8.27037
8.27977
8.34076
9.39776
8.91453
8.4805
8.89969
9.94079
7.69824
8.99739
8.80541
8.40822
7.43734
7.83588
8.26787
8.7849
8.64096
9.29011
10.504
7.92281
7.99295
8.49147
8.25116
8.49308
10.3184
10.0181
7.98818
7.88292
8.18021
18.9269
8.51595
8.77765
7.76408
8.31399
8.75414
7.66669
7.88602
7.85903
7.92176
15.9753
10.0276
38.2113
8.74426
8.02082
7.8282
7.98538
9.12956
8.39322
8.27631
7.21729
8.03949
8.19223
9.17762
9.07809
9.38314
7.99761
12.0397
9.11074
11.116
9.01271
7.98794
7.97611
7.93652
8.07635
10.0039
8.97165
7.95751
15.3077
10.0639
7.89121
7.94018
7.86838
7.97388
8.89849
8.07085
8.85471
9.51807
9.17837
10.4247
9.81389
8.44533
8.37626
7.80482
8.43894
7.89254
7.54192
8.54484
8.71758
10.8292
7.98123
8.98531
8.67541
8.60142
7.85795
9.09968
7.96506
8.37945
7.86268
10.3758
8.89472
8.71173
8.23791
7.86562
8.58342
8.33152
8.17176
9.4642
8.20051
8.49982
8.87948
7.91558
9.5666
8.03196
7.94585
9.91848
8.0486
9.1669
47.6353
8.89311
13.3131
26.8139
8.59133
11.1362
9.02123
9.51125
9.3801
8.41261
70.1492
9.00608
9.04657
8.9701
7.99329
8.14764
9.46478
8.34694
8.08419
33.4652
7.97788
8.15049
11.4773
8.80056
9.5717
8.71435
8.68883
12.753
9.18039
9.51378
18.1377
10.9546
12.3775
8.29015
8.11758
8.89739
28.1733
9.61383
9.11954
9.17792
7.8939
11.1933
11.5904
34.7154
8.65974
9.0376
22.691
13.3379
10.1581
13.6429
8.47505
8.87848
8.62025
8.90085
19.2534
9.13241
8.41713
7.92221
8.0973
9.51799
18.2412
10.2924
11.1269
17.3811
32.4791
9.60264
7.89427
8.12046
8.03952
7.8524
7.87078
10.2763
8.03438
7.85027
18.228
9.25087
8.35407
11.7742
8.0933
9.01466
7.8973
11.5165
30.3322
7.89861
128.716
28.7815
10.9932
9.05665
8.50573
8.22604
8.32228
8.82332
9.93796
8.42129
15.4661
15.3959
10.3888
8.02142
7.96107
9.5679
8.6235
8.05905
8.67474
7.98478
8.95961
10.2965
8.54282
9.27181
7.89171
8.7731
8.40766
17.8071
8.86769
31.1509
13.365
10.351
15.9163
8.20042
9.83115
8.15091
8.65533
13.6843
7.84984
8.54748
8.92853
7.89529
8.4869
9.8583
10.0843
9.09573
19.1026
8.00549
9.10621
7.94392
8.11299
8.05848
110.013
8.48407
9.0937
8.18991
9.30979
7.97997
8.7725
9.41334
8.09033
11.8662
7.87653
20.0374
7.98412
8.00018
7.83748
7.88889
8.45477
8.00646
8.71819
8.02919
19.6099
9.37694
8.42679
11.2404
8.28363
8.34365
9.49371
8.40262
8.18654
9.70658
8.74821
8.93725
7.88437
8.78851
8.55545
7.86701
10.4567
13.1235
13.8696
8.12659
8.01055
7.88525
12.3176
17.4859
8.10733
8.0159
17.4923
8.12016
71.4439
8.38542
10.1473
35.6906
7.92177
8.42557
8.20806
8.45775
14.301
8.67694
10.401
8.63163
30.9414
7.89765
8.27767
10.3638
7.84168
102.754
8.18556
7.91052
8.92953
8.08795
8.04448
7.96918
7.93113
7.94528
7.8524
9.22429
8.3638
7.89686
7.87659
8.27622
8.14349
8.784
8.32181
9.35111
8.0548
8.85073
7.92088
8.53998
11.2971
8.00389
7.90306
8.99191
7.91034
7.88522
8.26706
8.65736
7.94422
8.17346
12.1445
8.13409
7.87616
8.49105
8.03704
9.09594
8.36141
7.88743
7.866
8.22534
9.7754
8.50198
19.6275
7.97433
7.93737
7.92173
7.89216
7.90985
7.90881
7.91321
7.9067
7.90757
7.90156
7.84829
8.05647
7.86293
7.91161
7.93249
8.02022
8.55958
8.37627
8.53167
8.05659
8.32035
7.84503
7.86215
7.88704
7.87234
7.85944
7.889
8.44486
7.93755
7.86133
7.93441
7.8591
8.19298
7.85226
7.85487
7.85819
7.85272
8.0584
7.85376
8.00947
7.85887
7.87962
7.85411
7.89949
7.95777
8.00688
7.88858
7.90585
8.20892
7.89964
7.90365
8.62125
7.99344
8.15384
8.86632
8.03626
7.87462
8.08625
7.91445
8.1099
8.08542
7.97076
7.97331
8.3503
8.24078
7.91411
8.20774
8.27018
8.11915
9.72675
11.1512
9.17333
8.4497
13.2451
8.49764
8.12593
7.85891
8.25548
8.34546
8.99382
8.41705
9.29579
8.1751
8.20884
15.8662
7.86818
12.8097
8.52599
9.73141
8.32347
10.2965
8.62686
8.76065
7.85897
8.86906
7.85467
9.0779
8.40928
7.84965
10.9449
8.34152
8.57998
8.70115
13.7473
7.87764
8.54347
10.6678
12.1788
8.87388
7.85807
7.96959
10.3678
9.88236
8.59448
9.06545
11.2325
8.52647
13.507
7.93876
7.89641
7.88996
11.8447
8.20516
7.94898
7.86505
17.4146
7.85242
9.91221
12.5971
92.6742
7.89783
9.58327
9.8316
10.3536
93.2285
10.9959
10.1601
7.87011
8.98621
8.00314
7.90632
16.9594
7.88996
8.64298
12.1816
8.29974
7.86339
12.8731
7.98566
7.9126
7.9132
14.2718
10.3441
8.23009
8.49986
9.32452
16.62
8.48666
12.6629
8.52895
8.29092
13.9618
8.17268
8.1646
9.36576
7.88476
8.66428
7.89089
8.6994
8.3548
15.4204
8.76016
7.89195
9.02844
9.34761
8.16094
34.267
9.2753
8.45104
7.90982
7.85798
11.4161
7.96951
7.94467
9.72759
8.05388
12.0513
7.8688
9.56525
7.94153
8.36932
8.37529
11.7583
7.9603
10.8529
9.48199
7.86793
8.41716
10.4034
9.77948
8.56341
8.38565
10.0436
7.87939
7.91446
8.3662
9.34373
8.038
9.09815
8.46817
8.48586
9.66982
7.96115
7.93652
12.4297
10.6926
8.71714
8.00982
13.7734
8.45124
9.39938
7.95545
12.9642
8.74954
7.79198
8.07357
8.69728
10.5317
8.55663
8.20152
9.07245
7.8704
8.42723
8.5927
9.1315
12.3833
8.60763
8.80067
8.15883
7.89928
7.91168
8.30676
17.5712
7.88771
9.90474
12.2598
18.2513
7.83512
9.87689
8.21271
8.21601
10.5218
8.25686
17.0308
7.84605
7.84855
8.11321
8.62518
7.85678
13.8986
15.7545
8.87275
8.97466
13.6321
13.7524
7.93863
15.5082
9.67495
14.2749
12.7384
15.1609
8.04417
7.94119
13.531
11.3059
18.9371
13.0525
15.3807
8.3732
7.95935
10.1589
11.0497
12.375
8.45673
8.93479
8.78063
8.61555
9.91012
8.19246
8.85241
10.3343
12.9142
8.01708
8.10765
9.41157
8.40953
15.9415
8.21376
31.8272
53.5672
7.87413
8.55786
8.17474
8.03489
14.5364
9.00667
8.45678
15.4833
16.8347
7.85156
14.9959
9.36682
8.13008
9.43706
8.09446
8.61109
7.8747
7.852
9.01779
7.8467
9.51084
8.74242
8.13137
7.84687
44.0415
8.68308
8.05877
9.86574
8.4584
13.3672
31.6622
20.7038
10.2001
7.88
8.06027
10.8557
7.8735
7.86835
7.87412
8.82729
8.55732
15.0339
9.52763
8.27642
8.20297
8.1674
13.6392
10.3077
7.8753
8.50779
8.03544
7.88655
8.06544
7.85983
14.1931
10.5571
8.42232
7.92902
8.85032
7.9655
11.5089
8.50477
8.50159
7.86647
9.04054
14.5458
7.85838
11.8151
7.85579
8.30536
8.37672
7.86884
8.2124
7.98463
8.05199
100.776
9.70418
8.15216
10.3333
8.56661
59.0589
8.04554
8.59504
9.76105
7.92005
8.98861
8.44501
7.8202
7.94644
8.45998
8.40886
19.1751
8.10059
7.87802
14.6811
14.5496
8.03291
8.85154
7.70173
8.05461
7.92949
15.4884
17.3501
8.51488
8.24292
8.59265
8.47635
7.89686
7.9646
8.98785
8.14452
8.22039
7.97364
10.0951
7.97951
8.49354
8.09939
9.21236
9.83437
10.36
8.24607
9.26435
9.26103
10.1917
7.85097
7.85584
8.05367
9.7845
7.91703
7.90447
10.1908
8.12245
9.34079
8.3113
7.93382
7.92769
7.94291
7.85234
8.08951
7.91598
7.87397
121.222
7.87138
15.1323
7.93081
7.86021
7.95827
9.76715
7.95537
9.63649
8.08683
7.8938
9.23364
13.0299
108.288
8.10325
12.5034
32.0452
14.5285
14.975
16.4038
15.7577
32.0742
14.7189
20.3555
16.4933
18.7192
19.5083
30.1798
32.0237
17.7491
24.8097
27.333
17.121
15.4085
15.9661
17.3092
16.319
15.9568
17.898
15.297
8.02129
13.3914
7.86155
9.76849
8.28915
7.75347
11.2053
11.7294
8.55876
11.8794
7.95516
8.26633
10.0433
8.16963
8.36066
7.94884
11.9209
9.33781
7.92511
8.74257
7.98309
10.1486
9.20456
14.9458
7.9649
7.97675
10.7593
9.07293
8.37987
11.2883
7.89352
8.03701
8.11365
9.72741
8.74052
14.4463
7.86324
7.9918
7.83892
7.86417
8.02153
12.9919
17.5068
11.5914
7.97975
8.59827
8.00313
7.90639
9.45577
12.4789
9.21155
7.93058
8.0088
9.78491
7.85585
7.87747
7.91071
15.9068
7.88045
12.1456
8.1131
10.1616
19.4484
8.77357
8.00976
7.87176
8.43718
7.85927
119.561
7.88413
11.249
8.19873
9.01132
7.90359
8.74183
7.85794
8.11818
7.8578
7.91537
8.18235
7.93359
11.7756
151.011
13.8572
15.3807
7.90205
7.87803
13.7447
8.17201
8.25494
10.9374
8.18961
9.19007
14.8725
7.96755
32.167
7.93863
7.87394
7.83702
8.66272
9.94331
19.5289
7.97497
7.94579
8.4424
7.8933
12.9811
7.90161
7.92577
14.1547
72.0863
8.2805
15.3382
19.7697
7.86641
7.87859
8.18266
17.2719
8.47946
9.74901
10.3358
8.09979
8.00106
9.74983
8.92765
7.91839
15.6081
8.71242
7.92165
7.94705
12.3044
16.6938
12.3757
7.94845
8.65159
20.6808
7.91341
8.66277
11.5589
7.93071
10.8863
7.94832
7.87999
8.57043
8.2835
7.87616
7.95004
7.92353
7.95293
8.1265
8.30049
7.89839
10.124
7.8514
7.86742
7.88384
15.9096
7.91485
14.0097
7.89114
7.91336
16.2573
15.2588
17.1258
18.1997
18.8178
14.0468
15.6316
16.0472
17.5312
15.6672
12.2866
13.0064
14.1806
13.201
16.3206
14.0929
8.23558
11.8993
7.91098
17.0652
7.94455
17.4339
7.86856
7.96761
7.84783
7.87053
8.05892
7.93705
8.35682
8.27162
12.05
8.27018
9.05969
8.56065
7.89811
8.63187
7.99823
17.2612
8.71174
8.01094
97.9442
8.84151
9.31744
8.64607
8.40089
8.14968
8.96908
11.8147
7.99959
7.90755
8.33495
7.90892
7.85663
19.7053
7.9264
7.85936
8.12003
8.16061
7.90452
8.00279
8.49082
7.97558
8.38033
8.26774
8.23806
43.4345
7.87718
10.1174
25.6608
8.08714
9.07316
7.98728
7.91166
9.08292
14.4177
8.09638
7.9718
10.1736
25.4859
7.89984
18.6709
11.1277
7.98929
7.92241
7.93666
9.77898
7.95383
19.019
12.8548
19.2491
8.6153
11.7745
8.45712
9.95982
8.17146
9.30506
7.87023
7.89756
7.85784
8.00785
8.07337
8.27929
15.9444
8.07214
8.02763
7.88875
9.50504
11.2557
33.3312
27.579
7.99691
7.89355
11.1988
10.3409
10.9232
7.92198
20.5232
8.34363
8.03642
8.656
10.3422
8.63118
10.4454
7.90089
7.96662
7.8555
8.46054
8.15998
9.15071
8.12314
8.30094
7.9175
7.91952
7.87346
17.1743
17.5116
8.31067
8.60977
7.9104
8.59743
7.93999
7.86562
9.42315
12.4215
8.64057
8.7955
7.87939
8.71671
7.95362
8.02722
7.948
10.5013
7.91769
9.12429
8.10257
7.97042
15.7834
7.89086
74.1004
9.50157
8.18622
7.94547
16.1162
7.93818
7.94226
10.7683
9.29147
9.56745
11.1263
11.0839
11.3388
9.86864
12.7866
8.4757
8.79954
7.85645
7.93332
10.7821
7.96973
43.6423
8.24323
10.7952
7.9108
7.93905
8.19519
8.02119
11.2912
8.26924
7.8712
7.89816
11.1084
7.91519
7.89672
7.86531
7.86283
9.90805
7.89843
10.0079
16.3246
7.89142
7.91217
8.20382
11.3825
7.92251
7.9253
7.99531
17.9078
9.31615
16.3909
22.2737
17.3886
8.3413
28.0374
14.6262
10.0222
8.10825
8.23041
7.87225
7.94837
7.90521
31.183
9.28471
15.3584
7.85612
8.92297
9.23261
7.87714
7.87129
59.4757
8.13992
7.8651
7.86745
7.86086
14.209
8.2142
8.38161
8.29888
7.86735
8.25368
20.005
12.5733
11.6806
8.548
8.22464
10.1928
22.2783
8.47094
7.9383
19.7749
8.19924
11.0912
8.33946
10.9146
8.5308
17.1175
8.02111
8.48667
25.6111
30.8173
10.8272
13.0136
12.3206
8.85361
7.93657
8.12188
8.01909
9.87027
7.90745
8.27059
9.44464
8.61604
13.7732
9.84393
8.29118
7.86261
7.95158
8.73478
10.7467
7.88937
8.11341
8.07128
7.87804
10.3945
8.75743
8.16883
7.96173
7.87628
10.6655
10.9916
9.05603
8.56847
9.01586
9.40056
8.86063
16.145
7.86423
7.88413
7.95485
8.0533
7.89225
9.1211
11.6179
8.5846
8.6686
11.0546
8.82666
8.24278
13.5944
10.2125
7.80686
7.89836
7.89848
8.79051
7.8576
7.87762
7.85446
7.87267
8.7703
7.86935
8.23616
8.73637
13.1674
7.9941
12.4643
8.15226
7.90915
7.87418
9.73226
11.9166
9.95021
11.2431
8.07262
9.50119
11.3079
11.8379
9.71642
11.182
11.0558
10.5404
11.9515
14.1771
10.6473
15.6448
9.44314
12.6482
13.7403
11.9584
15.954
11.0145
12.3577
11.065
9.37084
10.6384
9.63551
9.73109
10.2986
8.52633
9.11469
9.77963
)
;

boundaryField
{
    frontAndBack
    {
        type            empty;
    }
    wallOuter
    {
        lowReCorrection 0;
        type            epsilonWallFunction;
        value           nonuniform List<scalar> 
96
(
14.0599
18.1126
18.9269
17.5712
18.2513
17.0308
13.8986
13.6321
13.7524
15.5082
14.2749
15.1609
13.531
18.9371
15.3807
15.4833
16.8347
14.9959
13.6392
14.1931
14.5458
14.6811
14.5496
15.4884
17.3501
32.0452
14.5285
14.975
16.4038
15.7577
32.0742
14.7189
20.3555
16.4933
18.7192
19.5083
30.1798
32.0237
17.7491
24.8097
27.333
17.121
15.4085
15.9661
17.3092
16.319
15.9568
17.898
15.297
14.9458
12.9919
17.5068
15.9068
12.1456
19.4484
15.3807
32.167
15.3382
19.7697
17.2719
15.6081
12.3044
12.3757
20.6808
15.9096
14.0097
16.2573
15.2588
17.1258
18.1997
18.8178
14.0468
15.6316
16.0472
17.5312
15.6672
12.2866
13.0064
14.1806
13.201
16.3206
14.0929
17.4339
12.05
19.7053
18.6709
20.5232
12.4215
15.7834
16.3246
16.3909
22.2737
12.5733
19.7749
25.6111
12.3206
)
;
    }
    inlet
    {
        type            fixedValue;
        value           nonuniform 0();
    }
    outlet
    {
        type            zeroGradient;
    }
    wallInner
    {
        lowReCorrection 0;
        type            epsilonWallFunction;
        value           nonuniform List<scalar> 
126
(
8.50189
8.08227
7.30781
7.85564
8.37529
7.69963
10.0304
10.4933
8.27037
8.27977
8.34076
9.39776
8.91453
8.4805
8.89969
9.94079
7.69824
8.99739
8.80541
8.40822
7.43734
7.83588
8.26787
8.7849
8.31399
7.21729
8.03949
8.19223
9.17762
9.07809
9.38314
7.99761
12.0397
9.11074
11.116
9.01271
7.98794
10.0039
8.97165
8.89849
8.07085
9.51807
9.17837
8.44533
8.43894
7.54192
8.71758
10.3758
9.91848
13.3131
26.8139
9.00608
12.753
10.9932
15.3959
10.3888
9.27181
31.1509
13.365
15.9163
9.83115
10.0843
9.09573
19.1026
8.7725
9.41334
20.0374
19.6099
9.37694
13.8696
12.3176
17.4859
11.2971
12.1445
13.2451
15.8662
10.9449
12.1788
10.3678
13.507
11.8447
12.5971
12.1816
12.8731
12.6629
13.9618
15.4204
11.7583
10.0436
12.4297
12.9642
11.3059
13.0525
13.3672
15.1323
9.76715
12.4789
12.8548
10.8272
13.0136
11.9166
9.95021
8.07262
11.3079
11.8379
9.71642
11.0558
11.9515
14.1771
10.6473
15.6448
9.44314
12.6482
11.9584
15.954
11.0145
12.3577
11.065
9.37084
10.6384
9.63551
9.73109
10.2986
8.52633
9.11469
9.77963
)
;
    }
    procBoundary3to1
    {
        type            processor;
        value           nonuniform List<scalar> 
48
(
7.8558
8.38568
8.07733
7.87157
8.47241
8.98279
8.38568
8.40416
7.87995
7.93802
7.93802
7.86509
7.86509
7.864
7.85163
7.8487
7.85125
7.85054
7.85125
7.89161
7.88437
8.04967
7.89161
8.94317
8.34275
8.2841
8.2979
8.04967
8.62623
8.94998
8.94998
8.61991
8.61991
7.87995
8.03232
8.9148
8.20581
8.34275
7.8638
8.12837
7.864
7.9842
7.88532
7.89161
7.85802
12.2827
8.2375
7.85238
)
;
    }
    procBoundary3to2
    {
        type            processor;
        value           nonuniform List<scalar> 
29
(
7.93494
7.93494
9.68317
9.22347
9.62616
9.30808
9.61652
7.90787
7.91692
8.07142
7.94172
7.94645
8.24557
7.90226
7.87614
7.98795
7.91432
7.86717
7.95346
7.86317
7.85929
7.91432
11.9913
7.86717
8.06813
8.02393
7.86717
7.8846
7.8846
)
;
    }
}


// ************************************************************************* //
