/*--------------------------------*- C++ -*----------------------------------*\
| =========                 |                                                 |
| \\      /  F ield         | OpenFOAM: The Open Source CFD Toolbox           |
|  \\    /   O peration     | Version:  v1912                                 |
|   \\  /    A nd           | Website:  www.openfoam.com                      |
|    \\/     M anipulation  |                                                 |
\*---------------------------------------------------------------------------*/
FoamFile
{
    version     2.0;
    format      ascii;
    class       volScalarField;
    location    "0.56";
    object      p;
}
// * * * * * * * * * * * * * * * * * * * * * * * * * * * * * * * * * * * * * //

dimensions      [0 2 -2 0 0 0 0];


internalField   nonuniform List<scalar> 
5794
(
98.2512
98.4288
95.8247
102.522
96.3045
98.7268
94.708
99.4143
94.5424
95.6324
129.511
92.8267
93.8974
93.8935
96.915
98.3799
35.583
98.7554
96.8276
98.2919
96.9286
98.6448
93.3742
99.4301
95.8832
45.6118
41.3821
100.337
97.8372
96.6339
97.6314
86.8597
110.578
99.2681
94.321
92.7635
102.843
94.1051
94.2389
95.8541
98.2186
100.283
121.338
97.8543
96.7712
111.894
88.2059
101.111
97.0604
96.9925
99.092
89.4696
93.6801
97.2741
98.2885
113.928
90.7196
100.257
121.519
41.1889
108.966
98.1772
97.7608
86.412
110.201
97.8938
95.8026
95.8199
99.9965
98.3805
88.5087
96.0853
21.8638
97.8
98.8204
100.459
99.6715
51.3472
97.7994
98.5143
98.3526
98.1588
98.8775
95.6383
95.0807
100.657
88.159
115.417
99.4048
94.665
118.734
90.2325
99.6529
98.9799
99.0728
88.2446
114.649
100.47
90.6071
109.89
85.3782
88.0239
121.467
95.4543
96.2679
100.172
98.3309
130.562
87.729
97.7865
99.7475
96.7323
78.688
97.3596
97.992
97.9772
97.1066
99.8693
108.083
96.5932
100.038
96.9632
98.2461
100.585
96.6931
127.755
90.7438
98.4907
91.4034
129.329
98.0107
98.0158
88.7931
55.4592
100.065
96.9455
121.33
98.191
99.1943
99.483
96.9511
95.3991
96.6565
96.1403
99.212
50.4729
99.147
119.264
96.8898
97.1417
126.083
97.3169
100.407
95.2349
45.28
87.1134
96.5011
96.0075
111.369
96.1425
96.9317
97.1946
99.4838
92.7833
87.7031
89.4614
94.2716
99.2547
99.5982
96.7549
96.9462
89.0497
93.9575
94.9112
99.2825
92.9325
97.0155
96.0226
99.3288
91.3304
98.8779
88.9306
100.6
112.414
97.3932
44.0032
87.627
111.326
96.5108
88.1986
129.261
86.8908
110.636
99.5052
98.5333
97.6295
98.2941
99.2869
96.807
119.771
93.1894
88.5763
100.626
97.9842
87.6148
111.514
97.9083
130.799
92.8055
94.2534
97.9068
101.838
92.6047
97.4463
99.3926
94.1382
92.9336
89.3017
129.856
103.04
101.969
92.3762
117.092
100.155
116.273
41.5474
95.2244
94.991
95.163
97.0519
94.5099
94.8757
99.1151
88.4166
94.6085
51.3327
74.1304
123.996
95.8075
98.3209
98.4038
130.922
97.4224
96.2885
95.0043
99.8254
96.6632
97.4915
115.597
100.777
90.7998
97.8479
41.6143
97.9173
124.825
92.2009
120.475
120.232
130.857
96.778
121.725
92.9456
98.3621
97.8103
96.9953
97.4352
97.0625
127.257
96.914
110.956
86.8871
97.9928
98.9975
87.8776
103.4
97.0612
97.25
96.459
97.2978
94.029
99.2495
110.337
97.9018
100.121
95.635
100.463
88.9054
98.8317
95.1702
99.749
93.2074
93.4951
99.2943
97.2122
117.806
54.5129
96.6552
99.7328
95.893
97.7372
98.0935
85.4479
98.3846
96.0145
97.544
125.776
97.3303
97.2803
110.307
86.2367
97.2803
110.718
97.1148
97.5156
102.822
105.032
130.528
99.9198
87.6131
98.6103
100.054
96.158
99.3932
97.0452
98.4412
91.172
97.0408
94.588
96.172
129.735
89.397
122.602
97.0494
110.924
87.2183
96.0274
95.1727
99.5046
97.0091
111.557
99.4475
96.066
93.3248
93.1771
97.1288
100.252
114.329
91.1114
90.2534
94.3303
93.5597
51.8107
111.121
87.4351
100.642
40.7092
96.6107
90.6559
93.938
98.977
130.711
91.9358
122.391
93.5416
99.2782
96.0507
88.5332
112.609
89.1622
100.823
97.2648
97.6903
95.6969
98.5174
130.485
87.665
114.131
90.6731
100.652
97.3939
98.038
97.3618
103.243
92.7344
95.3329
99.3666
97.759
93.7522
99.4227
95.4986
99.7553
97.1695
98.4145
99.3169
94.5173
95.3227
99.0331
98.0933
96.9557
93.2996
99.3627
95.1664
48.1515
100.03
96.8298
125.258
95.1141
98.8793
98.395
115.081
99.9327
90.0574
128.784
89.2383
111.192
87.1865
99.3991
103.567
87.9427
114.823
90.6447
100.484
130.182
97.2055
93.0731
95.2901
99.3937
97.2692
98.2049
98.4521
88.9685
103.214
96.9765
79.8449
96.6995
97.0546
97.4738
97.7537
92.7847
96.0962
99.4371
102.844
98.2578
99.3335
95.9253
97.5335
98.2839
99.0948
96.2578
95.9834
94.9151
98.1899
87.1377
98.5735
100.44
97.8828
113.248
91.7548
98.5586
99.3978
98.7145
98.1389
94.5774
99.6272
110.827
129.203
48.974
94.4422
129.044
97.7897
97.8551
84.7588
128.763
94.9656
96.7283
112.423
65.7522
100.35
98.2018
98.0716
95.2912
98.6775
95.7794
95.0818
130.501
129.047
101.516
96.4847
52.688
98.4156
98.1032
100.172
98.6602
97.7623
94.4468
99.5526
96.9523
97.2585
98.945
124.683
95.677
64.7749
105.167
90.2967
96.9307
98.1685
98.8067
119.219
128.794
97.5684
87.4731
97.3805
98.0232
97.8797
97.8528
95.3268
98.5255
97.8436
101.669
50.0262
98.9475
98.4427
96.0596
99.747
128.98
98.4979
98.2246
102.145
98.3107
98.7319
95.7476
97.9126
47.7147
96.9086
95.4243
95.1895
102.936
119.41
129.045
121.213
98.5334
81.5266
98.2107
92.4383
97.2065
98.5132
103.398
96.0289
97.6739
98.3898
95.3168
97.3124
96.9094
97.6926
98.5905
96.7271
95.2286
98.7991
98.3298
94.614
25.6093
97.1458
126.516
97.308
93.4599
97.9522
98.3972
95.7976
98.3175
97.471
111.709
89.4932
90.2649
97.7945
48.9129
99.9794
95.259
94.9384
100.077
97.159
99.5291
94.398
128.444
49.6762
90.9857
114.529
97.2583
100.469
90.5307
114.241
97.4676
98.5505
98.1806
97.6374
96.0948
106.538
97.5123
102.563
98.2198
94.9685
98.7854
112.512
98.0364
97.7867
97.8561
128.737
57.3901
95.4353
98.2756
100.394
91.7162
90.5663
93.4316
94.9555
98.6326
97.0589
124.296
129.399
118.74
99.3986
98.0463
128.766
128.112
130.652
98.1676
98.5284
98.4889
95.4681
131.64
97.3373
98.3349
98.3485
97.7409
98.9153
98.5198
95.6177
67.6618
102.699
95.4051
99.2521
97.5191
121.92
130.041
90.2338
120.547
97.5199
98.9158
109.768
97.9902
98.206
98.5684
98.1246
97.3994
97.169
98.9712
124.986
51.061
98.9017
35.1284
99.4964
97.548
95.9397
98.6498
96.7266
98.0574
99.0336
97.1363
100.59
89.1168
110.471
124.083
98.408
43.9185
97.3515
97.4307
98.3828
97.2417
96.2793
92.444
98.3376
98.5222
131.055
97.1777
98.8979
94.4566
120.082
99.9393
96.956
97.2703
97.7731
96.8704
105.782
72.4624
99.1981
96.9377
101.168
130.629
97.9145
98.6731
101.958
97.4008
94.6743
97.6965
120.39
94.8043
122.394
95.4189
95.2378
97.7185
130.14
121.64
100.245
98.5626
94.8018
128.729
100.839
104.557
47.6967
127.057
96.1656
130.746
68.7723
119.913
95.9735
94.3247
98.2709
118.955
103.533
130.097
106.169
98.9398
70.1275
103.856
125.498
97.117
95.6818
33.6249
128.834
90.3031
100.077
116.15
99.0896
98.8535
93.0813
96.5614
100.551
90.1824
112.448
94.0766
102.855
98.596
97.9115
97.0489
97.8876
97.6242
97.9586
104.229
100.129
99.059
113.869
97.5727
76.4361
100.44
99.1666
97.8235
100.353
91.4795
117.065
97.9357
100.494
91.1924
115.102
95.1891
97.7947
95.186
98.2197
98.4786
98.2748
94.2338
98.5039
130.536
50.0304
94.6688
98.8297
98.2946
100.121
92.1493
130.67
98.4306
95.409
99.2467
124.882
113.834
89.9769
99.7864
93.2466
98.1549
78.0262
98.4829
61.1922
100.84
130.599
99.3578
98.4064
98.5536
97.3098
130.147
131.341
123.997
110.129
99.8042
96.7995
98.0308
112.436
101.781
99.583
91.8799
111.568
130.294
98.3542
98.8783
94.5916
118.134
49.4959
97.4756
103.742
97.2793
94.995
96.361
90.3699
100.497
113.655
102.467
96.5403
100.447
95.0673
99.5648
43.2522
98.402
98.6679
94.7584
98.4194
128.792
99.172
104.481
98.0039
96.9615
110.411
102.898
84.3586
98.1178
97.2258
98.7648
96.9352
126.962
127.344
50.2553
95.9903
97.8944
98.209
110.797
94.4602
97.7683
95.241
107.633
99.185
77.2085
128.749
96.8991
98.2461
99.2068
102.252
126.351
98.7193
58.8849
97.2687
97.4625
60.6658
113.503
101.824
94.4303
98.7132
129.604
120.068
98.0302
97.2479
92.4133
127.715
97.797
102.829
127.279
95.8081
98.9951
97.7411
96.0548
103.174
96.3157
98.4139
98.1808
95.0604
97.3805
97.6365
98.4149
98.8663
124.9
98.0811
102.634
97.3666
95.5308
96.5446
100.516
99.5286
128.816
129.002
58.5476
94.5616
99.2382
102.943
97.6526
53.1895
110.206
87.3881
123.451
100.806
90.033
99.2953
98.41
97.3622
111.279
98.2356
98.7785
98.5211
97.6902
98.4062
122.639
96.7807
100.531
115.405
90.7952
100.512
95.7253
117.428
98.3956
98.8673
96.2663
97.502
90.8283
130.218
115.023
102.86
100.342
81.7368
98.1637
98.5204
88.8953
47.3463
103.309
96.8636
106.906
101.121
96.7779
95.6143
98.1883
97.1076
98.7824
98.1215
98.1384
98.9135
98.3521
97.4359
98.4431
98.2134
102.634
98.8449
103.499
97.3189
97.3368
115.181
103.211
96.3736
99.2969
95.5258
97.988
129.601
105.264
95.77
98.3304
94.758
128.692
98.2736
102.907
99.0531
98.4015
102.904
75.4598
102.139
92.7871
107.243
97.8064
103.582
97.6885
96.8532
116.266
74.0611
99.0702
107.059
98.5654
97.9382
97.4747
98.4951
108.131
112.274
47.862
87.7458
98.084
97.8706
97.3412
100.717
89.0389
109.893
119.552
98.2593
98.6747
98.2298
96.2123
103.119
96.5495
101.076
99.5906
102.466
103.19
104.312
98.8968
98.4261
98.2631
96.1037
98.5816
128.816
98.373
102.807
93.0121
97.8075
95.1762
96.7044
95.5466
130.452
97.8456
130.738
98.0976
104.741
130.549
98.2882
95.4249
115.739
97.5993
99.926
95.9472
97.7458
95.863
93.752
98.9107
98.4187
93.8996
97.566
97.7246
102.158
98.2339
97.577
99.2987
94.5132
93.372
103.196
111.333
109.124
97.5843
97.1948
97.6199
98.2104
95.941
100.118
98.7505
100.412
97.6952
124.052
98.0979
96.5692
97.2675
128.583
97.2552
88.0156
97.0044
97.6474
103.74
96.7654
99.162
95.6105
96.2888
102.488
103.06
97.5308
103.59
97.8822
97.5106
94.3518
98.2892
98.8584
96.3577
98.4734
129.704
96.9467
56.7694
97.3843
98.9689
98.5682
102.734
98.1725
107.195
98.1855
97.497
101.658
109.824
91.0547
94.0711
98.0793
99.3982
96.0562
100.207
96.6017
102.91
100.278
101.029
125.548
119.254
99.157
108.051
107.008
96.7203
97.6384
96.4715
97.7839
33.9002
103.227
97.8762
98.2623
128.749
128.992
99.6299
98.5183
98.2731
97.9178
96.7886
97.906
94.6472
96.0372
97.7135
100.431
95.6372
98.7685
98.2272
95.2486
94.9728
98.1325
99.6277
98.1997
94.2789
98.6412
92.2003
97.8313
97.8944
109.059
110.146
104.036
100.749
102.739
108.892
97.2104
96.4213
96.8069
110.654
105.688
98.2441
98.3951
121.593
95.0167
123.622
99.6854
95.6666
108.825
95.7858
122.023
112.063
97.666
97.4996
103.045
117.903
97.7142
98.5397
98.0494
56.5541
97.8732
97.3743
94.1834
98.9785
98.79
104.969
96.0411
122.274
98.6147
97.3766
107.191
101.259
86.2367
97.2762
98.2313
98.5768
97.1244
128.558
129.891
95.7885
102.976
97.794
98.66
99.1099
86.4521
110.424
131.127
121.169
103.435
95.0638
97.4622
99.2896
99.8886
102.746
100.619
95.9583
97.337
98.2141
99.2305
82.0032
94.6624
54.6828
98.5978
97.7808
120.202
103.828
99.2045
97.7023
102.313
95.6807
98.4057
98.1942
99.4953
98.6767
97.9153
94.5028
95.8061
99.7678
97.8218
100.625
97.5451
96.4793
81.9331
94.8717
124.609
102.027
99.6848
98.386
97.6745
115.153
91.8703
100.405
98.9471
95.9072
130.127
51.4082
95.8268
97.0287
97.5349
87.8025
98.4175
98.9172
96.5193
100.725
95.316
96.0449
99.6505
98.784
97.0405
98.4187
97.9203
102.734
98.4126
97.9778
99.0212
116.695
103.525
129.918
129.407
93.1401
98.2646
99.1575
98.3555
130.679
95.8907
96.9801
97.8335
98.1206
96.9159
98.2831
93.5863
98.8907
93.035
97.5017
97.1656
94.4541
38.6319
95.1036
35.2232
48.5296
96.0292
102.573
98.2563
99.1291
100.03
95.7906
100.147
97.0666
98.6104
86.3512
110.096
109.359
100.921
98.5634
95.1221
86.7459
95.8402
98.3691
98.8702
129.909
97.004
98.676
97.4638
98.2667
98.8548
118.976
99.2194
96.81
93.5839
98.2424
96.7679
98.7058
96.6945
98.2376
102.841
98.6423
135.429
129.54
97.7477
41.1873
130.137
98.5189
95.3001
96.8168
108.852
97.7154
98.3333
98.9942
95.066
12.519
103.538
100.306
88.7778
115.685
56.4231
120.311
95.9372
99.0377
97.9595
98.9071
99.0624
95.3698
96.4072
97.8575
96.8099
99.1828
98.862
97.262
95.4432
99.2046
98.0156
99.1019
95.1963
96.3941
98.548
95.3681
97.9843
99.0742
98.2247
98.2813
99.2299
94.792
96.9372
99.05
98.9491
99.1315
95.3945
96.8485
97.9325
98.9424
98.0295
99.0464
98.8466
95.8407
97.8623
99.0888
98.9132
98.0815
96.6075
95.2281
92.002
93.1677
56.4584
97.9894
99.634
108.19
99.6286
94.4948
97.4206
97.7484
101.212
97.332
95.4663
100.452
52.1354
93.5596
97.826
95.9507
97.4482
97.4776
98.3583
99.0112
98.294
99.4595
98.4315
95.8169
95.3024
99.3679
128.911
94.8641
98.8445
100.776
96.1479
48.846
97.1355
95.4237
99.9026
112.081
100.326
96.3187
94.449
93.9338
125.227
93.9889
95.865
97.8056
97.6174
102.27
101.504
13.4225
96.4257
98.1309
98.5456
97.4295
95.0732
96.7556
144.535
97.4814
97.8149
98.9847
96.7917
95.6592
99.0026
96.5544
99.1373
97.9606
99.0015
99.0222
95.2986
96.624
98.1787
95.1856
98.89
95.4178
97.6844
98.1231
98.6391
99.1622
98.9954
95.8566
98.0189
105.928
95.2876
130.974
114.974
98.8597
102.258
93.9724
97.8159
125.115
94.4918
95.365
134.615
95.5725
98.6153
97.9226
95.7876
123.536
95.3193
78.9582
99.1057
97.1542
97.7341
99.0124
104.869
96.8508
99.5675
104.601
100.577
98.1782
96.9853
98.7894
98.1905
96.8177
95.3464
91.1186
98.4178
98.6552
98.1147
98.7355
98.7483
98.2054
97.6751
100.397
98.2085
98.2015
99.1285
96.3531
99.6365
103.243
98.8867
93.9027
99.9924
96.5676
86.8031
98.2809
102.908
113.113
100.22
127.699
94.5558
98.0606
97.0473
95.8252
98.2355
103.168
96.1599
99.1557
96.4688
95.7252
97.5539
94.6652
94.1341
98.2882
99.2122
98.165
100.823
99.3756
95.9426
102.575
99.1379
97.7674
91.3805
94.8942
97.376
100.474
96.1194
95.9933
97.7247
94.8636
97.0418
97.3042
122.044
97.8728
97.5906
93.0603
93.6303
98.6261
97.6666
96.5013
95.8732
94.0605
97.0943
118.217
100.612
100.072
100.554
94.7969
124.503
123.925
98.303
95.2539
92.8772
105.806
96.8864
113.64
101.135
147.009
96.2709
93.2088
110.589
121.041
93.2942
92.0511
99.5715
136.995
99.7797
114.345
91.4972
137.332
100.05
95.5307
32.0913
95.818
95.9069
100.055
97.7226
98.9222
95.3016
102.255
98.64
97.9848
95.0567
100.614
100.651
96.5257
96.9668
100.645
96.8319
100.303
96.2581
100.328
100.485
97.2197
97.8233
100.483
97.3479
100.65
100.696
100.485
96.9411
96.4304
94.8937
45.3449
97.0321
97.192
97.6862
96.7105
97.6791
96.5901
99.2077
99.9624
100.134
97.9309
96.8939
95.712
99.5652
95.5089
95.4907
97.5303
96.301
97.3071
96.7681
97.6215
95.4894
126.338
96.9498
95.824
98.6326
95.6458
98.3184
95.4368
98.1597
95.5324
98.4677
98.1778
95.3767
96.0819
97.1815
96.3155
97.5844
97.0798
113.519
97.0493
88.7947
87.0615
94.0961
111.048
87.8495
97.0633
113.314
111.693
87.6185
88.8672
99.411
96.9539
87.5021
110.17
115.799
97.0562
93.4021
113.539
87.5182
112.551
96.9588
97.0206
96.9146
86.5115
94.0132
52.6348
97.0715
93.8619
97.2916
97.0584
86.5282
99.3705
94.5634
111.502
110.291
92.4617
51.9934
87.0983
96.8987
87.2691
97.0344
96.1557
92.2812
99.3744
113.207
94.4176
51.0966
92.4011
95.9222
99.3812
87.2689
47.3319
96.7225
151.126
87.9555
95.7045
92.5091
94.6622
96.6585
97.8615
110.32
86.2817
88.2157
46.851
46.5938
95.2353
95.4736
94.8022
97.855
95.5166
99.3331
99.4098
90.8613
98.6387
95.0048
98.0251
129.445
95.5885
95.7552
96.5955
96.4133
95.5423
97.3897
99.5748
101.133
95.5381
97.0639
99.5373
100.015
99.3328
92.7739
93.4955
96.6331
96.2858
95.5295
95.5082
98.9689
99.1253
94.8527
95.8588
99.7318
96.0175
98.3474
99.3534
86.4707
110.495
99.5965
96.0966
96.9628
95.8188
98.765
98.9915
95.2105
99.9401
99.4691
99.6479
94.1204
95.5763
99.2881
45.8984
98.6711
99.0911
100.048
98.7776
95.5658
97.5654
98.6357
98.1784
99.8874
98.9116
99.7658
99.9045
95.793
97.9206
98.5511
96.9239
98.6675
99.8339
97.6829
98.0178
98.1236
97.7867
97.5009
96.5242
98.526
99.6891
99.6051
97.9211
97.0091
99.6888
97.8223
94.8606
98.5832
98.6264
86.606
99.6553
110.586
96.6388
97.1584
99.6759
98.8825
98.5573
129.681
90.8581
93.1292
99.1292
98.8491
97.8966
93.5255
99.356
93.0413
98.7083
99.2493
98.7081
44.0092
122.017
99.3952
96.2409
94.2232
96.6032
94.8533
98.6048
97.6764
129.894
93.7789
99.5191
94.3077
99.4685
94.9267
98.6912
97.6055
111.516
87.8803
99.9029
130.089
91.9263
94.7583
99.7753
97.6195
41.7173
121.899
99.3307
93.7064
99.1656
98.408
96.7263
95.3997
99.9173
90.874
94.0627
100.137
95.0826
98.7651
97.6207
96.8039
98.1123
99.8896
129.942
92.6084
98.6651
41.9653
47.5771
96.4785
121.958
97.4282
97.682
98.6206
94.2128
96.6153
96.8863
93.4904
91.7375
99.8018
98.3896
90.8576
113.578
99.4026
120.752
94.7375
99.8374
99.644
96.3482
96.4867
97.9307
98.1554
97.2958
97.4771
99.3506
94.2421
97.7204
100.098
92.2134
99.4905
95.2112
98.8797
97.6378
90.4186
113.429
99.4609
130.106
95.2525
94.777
95.956
95.0087
99.9664
97.1857
97.0588
98.8819
45.0659
96.0723
106.838
97.1363
100.879
121.891
100.598
96.3303
99.4518
94.6979
95.9423
94.4079
96.9836
89.2214
99.7758
96.8049
94.6042
106.149
95.5097
99.7896
97.2859
94.3082
94.7744
97.5522
99.7107
99.7553
99.7991
95.4387
98.9833
97.8159
97.8519
99.677
95.1426
96.4703
99.7341
100.203
124.745
96.4919
99.5401
95.441
100.15
97.3497
99.0143
40.5558
95.8255
95.9244
96.5452
101.656
102.914
94.8452
95.4891
100.964
98.2308
97.5607
94.4259
94.3991
94.4141
103.313
98.7677
98.866
98.8838
99.4004
98.4149
96.4983
95.3969
99.5413
94.5671
99.8276
95.7258
100.228
98.2384
96.8622
99.2072
130.923
98.6666
98.6936
90.2113
95.6489
97.8067
97.4338
93.7337
100.099
95.3989
95.6159
95.649
95.0639
99.0498
95.3188
98.9658
97.774
98.331
98.4317
98.2329
93.0134
115.294
99.5939
100.124
100.161
97.2741
99.7038
97.5058
96.6085
100.729
97.2454
100.35
95.1603
104.08
96.1564
95.0936
102.911
98.1297
124
99.7228
99.6593
97.9107
130.22
96.9189
95.7345
100.291
94.22
90.8963
97.2405
94.9367
98.0636
99.0048
95.1345
95.3729
100.09
95.4873
98.7186
97.6598
129.172
95.858
96.7826
99.1209
96.0402
94.2482
98.7902
98.8231
95.3447
95.9778
100.397
99.1048
98.6719
99.7139
100.283
95.8794
97.2956
97.3968
95.2968
99.7298
98.1222
95.4608
97.7094
121.892
122.795
98.0543
95.4242
99.7327
95.3182
122.233
99.9064
97.2247
99.5879
97.128
123.163
95.3769
99.8067
92.9252
92.4182
95.4264
95.9027
98.2059
98.9156
98.0939
100.061
96.9919
101.901
95.5217
99.4903
130.046
95.628
98.6164
99.7514
95.818
96.0266
97.058
98.6844
97.9962
100.265
97.0478
95.4449
97.5975
97.278
102.698
97.6123
96.7471
95.7803
94.4976
100.022
97.2326
95.4347
98.9813
97.9883
94.6103
82.678
98.0499
95.3935
97.5312
98.7109
95.9497
88.3775
100.1
98.6665
99.9738
94.4285
97.1914
101.954
97.0196
99.808
99.4276
99.3169
97.093
97.6858
108.247
99.9299
133.098
94.97
98.6062
99.8932
96.3508
95.5597
99.4446
95.417
98.7741
95.8482
124.836
91.6539
114.739
100.089
96.1472
99.7924
95.6595
98.5346
95.0113
111.928
99.0596
100.894
106.777
112.701
99.9158
99.2251
95.7104
95.6215
98.7007
98.1089
130.315
88.3094
95.4539
93.31
97.1827
54.823
97.4531
95.8386
100.473
98.7943
99.305
96.1163
88.5111
98.843
98.2026
96.1429
98.1268
96.5863
100.415
100.206
100.113
95.9612
44.3484
97.8805
100.39
116.749
97.77
87.5809
96.7492
39.6915
108.188
96.8056
96.132
99.8942
94.2728
129.817
96.186
95.5519
97.514
137.486
95.1376
94.9807
100.209
97.6011
96.4911
98.2185
99.9562
98.9617
97.4638
100.156
96.767
123.243
95.5068
98.9352
95.0822
97.7053
98.4029
99.2692
99.0122
97.2715
98.6209
97.7564
141.527
96.9527
99.0739
96.4185
97.8638
97.4889
96.4469
128.805
98.955
95.6164
99.0666
99.0816
73.7061
129.347
99.079
99.0864
100.575
96.3705
105.297
95.8541
95.7524
96.6075
102.77
96.0248
95.2609
92.3146
98.066
95.4752
106.708
99.1368
95.738
99.7412
92.8892
95.1356
95.4416
98.4536
95.6151
98.2694
99.4488
96.6112
95.908
95.5648
100.984
99.6689
96.1046
100.439
96.3413
97.7041
98.7899
106.287
100.557
96.1208
99.7658
96.2184
95.4707
97.0773
100.497
101.693
102.928
95.4895
98.9799
97.9649
79.3781
97.2631
99.8578
99.3217
96.7195
118.55
100.14
95.6096
95.5894
107.078
90.3613
99.2384
93.1456
98.9104
98.8258
92.0604
116.9
91.3635
95.7459
95.6229
96.751
99.2108
96.8837
99.0768
98.3142
100.086
91.0609
115.514
98.3246
96.3421
95.2201
95.2986
98.963
97.9624
93.7268
97.0816
95.4175
100.173
97.8826
100.375
95.3915
100.118
96.7316
98.0843
98.0046
97.765
95.7678
95.8758
100.508
94.5402
99.5023
95.1539
98.9284
98.1454
137.474
113.824
96.8699
96.1965
106.928
114.487
113.819
100.292
99.7768
98.4039
97.7922
99.1618
97.3207
100.967
129.533
96.077
97.2054
99.6528
88.6513
112.138
98.1999
98.7794
94.7596
97.0878
100.168
95.4314
100.121
94.0294
50.8164
72.926
97.5996
95.9424
98.3952
95.8224
99.2965
96.7211
106.039
96.9229
121.603
96.3138
100.467
97.1655
99.4186
100.398
98.2383
95.3866
96.9448
95.1153
105.186
99.1256
100.322
98.7411
128.867
98.264
95.1227
86.8547
94.2436
128.957
129.892
99.449
97.8273
98.864
98.2263
92.9122
95.6732
21.0329
97.439
124.675
88.1963
99.5562
97.6315
94.8627
128.952
95.1948
94.5391
98.9226
98.1147
98.773
120.332
98.0146
96.8694
97.4835
95.2936
98.2883
97.3099
99.7319
96.4406
102.644
129.172
109.402
98.5992
96.8321
100.279
96.6906
97.6838
98.2742
98.6565
98.2991
96.8295
96.2544
97.7008
100.476
96.3949
123.092
98.1987
96.524
102.644
95.575
44.8007
96.9521
99.9007
95.0188
98.9104
98.1305
110.577
97.2588
98.7072
96.2729
94.9867
99.6861
97.6337
99.0628
99.1857
99.4064
97.2729
97.9786
100.742
95.0665
99.3159
98.2872
97.7723
95.4399
99.8509
99.5282
100.64
100.616
97.2904
97.28
102.697
98.3491
99.69
96.2562
122.997
124.772
95.6231
97.6924
99.8195
98.4111
98.8183
95.3959
96.9609
95.0462
96.4224
96.0761
107.053
97.165
95.5101
95.8493
99.9941
98.8275
96.1334
88.5561
99.794
98.7791
116.501
97.3871
97.678
98.2737
98.3561
96.4991
92.3556
95.6614
99.9804
97.1167
97.2969
99.3149
84.3898
105.505
99.5068
94.8222
97.9711
95.974
99.8103
99.7541
96.6978
102.987
102.678
98.9395
95.6602
97.1346
97.7944
99.8496
96.4782
97.784
95.6312
97.5818
98.7952
97.9342
97.6199
96.8379
98.3706
97.9132
98.0687
103.287
94.2796
98.9454
98.5259
100.493
96.9352
99.0519
97.3253
99.3957
96.6908
99.867
98.104
129.342
90.9117
37.167
95.572
96.7081
97.8724
97.7702
95.8393
98.8733
98.1515
98.1004
98.8514
98.1662
102.902
95.0267
120.307
97.8389
98.3329
97.8853
95.6947
121.739
97.8513
97.3753
99.0945
99.5976
121.083
94.9335
95.5704
99.5537
92.5791
130.598
102.036
97.3791
98.3627
112.386
86.5921
94.9812
95.7119
96.2559
98.6153
97.5491
94.4056
98.8646
98.3531
96.1342
97.8092
96.084
95.6613
96.7127
98.9857
98.3614
99.4227
98.0709
98.3083
98.0367
97.2741
97.7546
95.4417
95.8641
98.886
97.5319
89.6267
97.8813
119.98
95.5744
94.6213
96.5232
35.4149
97.7544
126.353
97.6048
95.4623
94.109
100.292
99.2062
98.4252
98.5793
97.4824
99.8021
99.7575
97.9433
122.614
94.8387
89.3456
98.4611
98.2148
131.122
98.5206
97.3863
97.1437
99.572
96.3069
101.523
99.1286
95.1103
94.1952
98.8653
98.1933
98.8937
95.4788
97.9919
99.1327
96.8096
84.0712
97.0118
95.955
100.588
57.0175
103.016
112.196
98.3393
95.411
129.31
72.525
116.384
100.449
94.2462
98.8778
98.2226
99.4135
107.196
93.0193
98.4608
98.0962
97.3593
100.214
123.66
135.129
95.6938
116.046
101.386
128.667
98.8552
96.3543
100.044
97.3078
96.0786
96.8488
114.921
100.134
97.9698
99.2364
95.9359
129.21
96.7058
116.443
93.9917
100.061
100.379
96.0324
96.6219
97.8117
98.9924
95.3054
97.7764
97.2016
97.5342
100.28
95.4301
98.1487
97.9314
96.8072
97.8238
103.627
40.7976
128.819
97.8043
96.1211
98.2195
100.506
99.5904
100.515
95.7842
97.0893
99.255
95.6627
98.3194
114.351
100.167
89.3
113.55
98.3023
98.4647
98.1047
103.459
35.6831
97.1749
86.2498
110.197
91.9145
95.4546
104.489
102.494
95.675
95.3731
94.7652
93.3617
130.836
97.5941
93.821
97.6377
104.059
44.4305
98.3641
100.197
95.5412
99.3471
97.3809
92.6164
97.5377
113.248
97.0494
97.673
99.2501
121.353
100.033
100.391
98.9685
98.8887
98.6178
98.2348
97.4734
97.7
98.3442
98.8397
112.685
97.3474
112.074
97.01
95.6863
99.3949
96.2342
130.454
98.4631
98.3896
106.139
116.778
94.8624
99.9571
97.7369
98.5121
99.5178
95.772
128.144
96.189
98.8733
99.4248
98.2606
97.655
127.517
128.643
100.515
97.2537
97.2548
99.3462
98.57
97.8432
89.8666
97.0786
97.2907
97.9257
98.0384
96.4283
98.5665
82.183
95.5222
128.493
99.5874
99.712
99.7922
95.8936
92.8822
123.332
100.693
98.5738
121.635
98.0136
118.527
112.179
97.3036
127.993
97.3614
128.695
98.2698
98.5968
98.2852
105.578
99.1071
109.584
95.1541
104.117
28.7912
97.9831
127.193
96.6254
108.069
97.4409
109.09
94.8965
127.793
128.577
98.7633
113.479
94.6243
93.4759
98.9299
98.7101
95.4394
99.5946
109.683
96.8279
111.418
109.872
97.2974
98.5159
98.0777
129.746
96.711
97.5833
98.4664
102.742
96.8151
103.079
103.435
96.7817
113.25
99.4145
99.3593
94.7057
96.1282
97.8223
111.316
128.985
96.8935
117.648
109.083
95.5058
97.8587
97.936
98.2268
97.2481
98.29
128.737
102.41
96.436
93.9544
95.7748
116.464
90.6935
100.494
99.9229
96.4054
95.0817
99.5173
98.507
95.2124
102.068
97.266
100.818
100.289
96.4117
99.6939
116.216
105.1
94.8871
98.2629
98.3304
99.104
110.678
96.2676
97.4242
99.9356
97.904
98.5759
89.8997
96.5197
48.3106
99.979
97.4356
104.203
99.0094
95.3877
97.994
128.468
97.2318
121.633
97.8799
99.372
88.3676
94.4862
98.3542
98.5905
98.807
107.023
93.9113
116.253
100.231
98.7936
98.0004
95.7835
100.652
97.641
56.4392
55.6619
95.6605
99.4732
98.5054
98.7109
98.3745
98.9091
92.7892
98.57
98.5441
95.2086
95.6485
97.2261
97.322
96.0827
100.784
130.804
97.5694
98.7186
94.4565
95.458
109.045
99.3802
95.8453
100.581
95.0682
117.715
95.599
100.363
99.5726
94.9229
45.9426
98.964
98.3655
111.829
129.278
97.0681
94.9128
98.3431
98.8593
95.6519
99.4142
97.292
95.2437
95.7854
97.5985
99.0436
95.4729
97.8413
97.3428
98.4801
91.9416
113.958
100.883
95.7356
100.774
98.5358
98.2566
100.368
96.193
110.14
86.1796
95.7874
97.9681
95.8511
96.91
96.5931
94.087
92.5708
105.121
98.3418
116.314
126.05
146.346
94.9805
97.1159
131.026
95.6584
98.6296
96.8097
125.947
99.4643
102.078
11.0126
103.132
99.3772
94.8883
97.645
98.9436
98.0884
95.0076
99.6386
98.561
93.4923
97.7738
99.5105
102.097
96.0148
130.527
95.5283
116.609
96.3754
97.7661
93.7326
98.8299
97.961
97.2977
94.9484
95.3418
95.32
93.0512
36.4151
118.09
94.9156
101.405
96.9584
100.192
94.4897
99.4038
98.7219
94.3516
96.7302
96.858
98.3773
97.0429
94.9608
97.3718
97.1426
99.6604
95.1227
122.74
98.2629
98.423
98.5789
98.4327
103.547
111.054
100.513
102.248
100.471
89.7535
93.8032
99.413
95.6476
98.1875
99.7377
98.2207
95.5416
94.9757
130.631
98.8492
98.1055
130.266
98.1441
96.0402
97.6301
84.9706
104.305
104.091
97.7295
101.556
97.7591
101.585
101.707
104.957
103.107
96.7033
98.7809
97.68
98.5307
93.394
108.182
97.7818
99.2068
97.9476
95.3417
95.2282
103.729
96.9941
99.385
96.5539
99.7574
98.5629
95.4581
98.0239
98.1265
101.525
48.2419
93.3821
98.8447
98.0417
96.9544
99.2125
99.03
95.5655
97.7793
98.7563
94.1908
97.8745
127.478
97.738
98.0375
96.4498
93.3297
95.8182
102.354
93.9302
96.0576
94.9574
97.8702
95.8665
98.0549
94.631
118.877
116.051
94.1257
99.586
99.4046
98.3255
97.8959
98.9708
97.3471
129.35
104.233
95.5258
120.409
97.0776
99.049
93.1356
98.9417
99.4558
87.0756
97.6643
104.769
96.928
97.3793
96.5393
101.443
94.8539
92.2825
132.767
91.7822
95.156
97.928
97.2812
97.2405
118.692
128.273
98.8123
98.6276
97.115
113.887
99.7133
95.5096
97.7765
99.7477
95.2952
97.576
98.1178
96.2168
95.8765
100.764
95.7867
86.2561
110.148
98.1148
95.9174
95.3932
100.537
96.1958
106.029
100.595
96.6433
100.707
95.6431
99.6815
97.8712
102.721
95.765
18.8098
101.586
95.8022
97.929
97.2074
95.7874
98.8688
95.4843
98.3298
98.8635
97.997
96.6146
96.3394
128.28
93.0827
129.15
98.6451
97.2533
97.321
99.8488
97.536
95.4396
55.2189
122.005
102.926
97.6855
98.9366
97.0836
89.1573
91.0697
95.6461
98.5756
102.981
102.61
98.0947
94.9329
46.8672
98.2424
94.7427
98.9181
100.359
95.8152
96.0983
100.076
94.9146
53.3458
100.523
97.4921
99.3812
98.3188
98.3886
93.4067
95.3218
97.3919
101.165
114.108
100.705
100.792
97.6883
98.2988
96.7534
91.2091
96.4166
131.017
122.526
96.9908
87.1149
98.2235
98.8353
94.1576
97.9924
100.113
121.559
99.8629
105.252
98.175
95.8108
98.3322
99.9861
103.367
95.7963
116.116
100.07
90.0138
98.9642
97.6808
130.649
98.1609
93.8119
95.6402
96.7435
100.473
91.6949
44.5232
112.89
97.3686
99.3773
93.932
94.1152
99.2057
97.865
96.7176
98.5541
97.8256
98.3301
98.8984
130.225
100.132
98.4831
94.3494
98.5415
52.1314
96.5626
89.6101
114.284
100.367
97.8453
96.1072
102.908
96.3386
98.149
98.852
92.928
98.3793
97.5384
96.6627
128.458
99.335
97.6686
97.7815
98.6723
97.3141
92.395
99.7442
99.4417
97.1123
97.546
96.4801
103.237
98.3007
98.4059
120.689
70.6443
99.1352
54.8206
98.6296
97.294
90.4708
89.0317
98.4418
97.0064
80.7438
98.4011
122.683
100.355
89.7934
116.352
127.595
120.704
98.6198
98.5753
94.5694
98.1625
95.4666
88.0608
92.6982
96.8839
99.3369
111.282
110.9
104.758
93.6961
99.3903
93.7924
103.157
97.9205
97.7703
96.3361
97.9697
97.9054
128.388
95.4437
95.3902
95.4608
99.8219
96.2419
97.0934
93.5969
98.3518
99.0139
95.4064
97.7268
98.8682
93.0897
99.3265
96.6387
100.514
92.6468
93.5481
96.4658
96.1715
94.3564
112.007
99.1765
97.7132
97.7445
99.2101
117.36
125.634
99.1986
97.3138
119.551
99.6559
104.919
98.4839
98.1404
98.8045
97.5945
99.1914
98.0957
98.586
93.7784
96.7457
98.4526
129.819
97.4671
97.6094
94.5133
97.6418
97.6457
97.2368
92.0838
98.0232
98.4412
102.514
124.667
95.9419
96.3437
100.518
95.7583
100.493
96.2103
97.9432
100.515
96.586
98.2311
98.0502
99.0833
51.2765
95.889
128.899
99.2125
96.9702
100.217
127.103
95.7894
53.9845
103.292
98.0066
98.0972
98.3039
97.2684
98.3855
98.9098
94.2501
98.2583
93.1283
98.9654
98.475
96.1713
99.3463
103.35
129.416
99.0595
94.3365
99.1848
99.7428
98.4306
97.5848
110.652
86.6869
94.6757
102.705
98.2255
101.822
99.771
102.702
122.185
97.2396
96.984
98.4221
96.4694
130.711
95.3917
98.0807
94.832
95.8005
99.7794
99.2017
97.2864
129.426
104.707
98.3756
98.9343
93.1716
103.175
97.406
100.364
95.6949
98.8796
97.9607
96.557
44.6838
100.612
97.6266
114.052
130.555
97.5146
94.8015
97.433
128.905
97.4714
101.213
95.411
35.5566
59.2151
98.7991
47.5128
97.5479
34.5846
96.8915
114.475
98.0093
96.713
98.413
98.4076
98.3762
98.3934
98.8001
98.7994
98.7714
98.7108
98.4092
98.6317
63.1593
99.0548
98.8796
99.0477
98.9036
56.6582
99.3377
100.104
92.0618
95.1605
93.7093
90.8223
68.8853
49.3647
90.2465
78.4894
73.7373
90.5809
99.366
97.7353
97.8081
97.8445
97.3714
99.3122
98.5558
97.7689
100.817
98.3961
99.2807
98.9209
99.8118
98.865
97.7703
100.783
116.082
117.305
99.0321
102.168
99.8931
91.189
99.0264
104.081
115.775
119.955
109.267
106.706
123.768
127.643