/*--------------------------------*- C++ -*----------------------------------*\
| =========                 |                                                 |
| \\      /  F ield         | OpenFOAM: The Open Source CFD Toolbox           |
|  \\    /   O peration     | Version:  v1912                                 |
|   \\  /    A nd           | Website:  www.openfoam.com                      |
|    \\/     M anipulation  |                                                 |
\*---------------------------------------------------------------------------*/
FoamFile
{
    version     2.0;
    format      ascii;
    class       volScalarField;
    location    "0.07";
    object      k;
}
// * * * * * * * * * * * * * * * * * * * * * * * * * * * * * * * * * * * * * //

dimensions      [0 2 -2 0 0 0 0];


internalField   nonuniform List<scalar> 
1466
(
0.103091
0.0987016
0.108856
0.134573
0.10551
0.104338
0.172121
0.106681
0.330069
0.100931
0.118155
0.110739
0.290887
0.106242
0.106148
0.152497
0.105577
0.0850347
0.133564
0.128889
0.136542
0.151198
0.110521
0.131035
0.246547
0.0876188
0.320757
0.11891
0.109137
0.150028
0.109167
0.0931429
0.099547
0.112797
0.553521
0.145329
0.110331
0.101225
0.0924731
0.104505
0.103257
0.124631
0.101463
0.0936268
0.0954498
0.121232
0.304285
0.0853827
0.0869964
0.0873275
0.0918444
0.0957046
0.102161
0.0983557
0.0845179
0.244865
0.0933925
0.123396
0.0924353
0.0970224
0.11155
0.114511
0.113659
0.104409
0.156412
0.175402
0.122606
0.182603
0.143938
0.109362
0.120363
0.0916499
0.124405
0.196063
0.104644
0.444865
0.110121
0.109392
0.0910543
0.12504
0.10176
0.115266
0.13568
0.125755
0.195227
0.160899
0.121454
0.15592
0.0983071
0.163258
0.0939082
0.260797
0.207608
0.169237
0.125981
0.0974739
0.102459
0.163867
0.286632
0.0930754
0.0984522
0.0926021
0.0847627
0.0829453
0.104896
0.104689
0.0929223
0.0886249
0.105188
0.0998751
0.108122
0.357429
0.107717
0.106382
0.0947315
0.104307
0.183407
0.118024
0.152945
0.147228
0.118638
0.108093
0.10728
0.0948306
0.0957553
0.143685
0.123256
0.100707
0.14121
0.134522
0.0917854
0.192014
0.104364
0.129871
0.0981412
0.122663
0.112812
0.0950875
0.132762
0.131564
0.095477
0.126914
0.159301
0.124877
0.126195
0.18106
0.0942793
0.11269
0.134993
0.194008
0.0975405
0.103891
0.127603
0.138957
0.140548
0.179451
0.110101
0.134504
0.102104
0.199945
0.0958501
0.120086
0.130383
0.131681
0.152614
0.113869
0.151532
0.112432
0.131826
0.134994
0.132792
0.113536
0.0937339
0.134187
0.0887094
0.181089
0.163488
0.14086
0.102986
0.112691
0.227342
0.105058
0.163666
0.101902
0.167164
0.168617
0.204496
0.131026
0.157404
0.142622
0.144521
0.109751
0.296309
0.152894
0.185295
0.104606
0.0935504
0.228919
0.127287
0.185541
0.192733
0.134501
0.137289
0.12363
0.119711
0.129986
0.13489
0.175674
0.110418
0.131332
0.125733
0.213633
0.124313
0.126144
0.139486
0.158427
0.170802
0.219544
0.146969
0.144989
0.107935
0.103757
0.152071
0.109322
0.135074
0.165484
0.116756
0.126601
0.0983784
0.103485
0.106342
0.188773
0.14768
0.152057
0.134506
0.132977
0.156897
0.118606
0.129511
0.139133
0.160578
0.123836
0.165162
0.188976
0.124408
0.119481
0.0923353
0.179596
0.12742
0.173402
0.160409
0.143522
0.187407
0.21637
0.100322
0.10752
0.108355
0.197047
0.127239
0.128217
0.0935659
0.101044
0.129975
0.103927
0.220377
0.0768862
0.0844595
0.139338
0.116749
0.192624
0.144399
0.147193
0.0934745
0.115461
0.0961072
0.113615
0.102199
0.212004
0.13563
0.135358
0.103922
0.204107
0.233461
0.130283
0.216409
0.108696
0.143671
0.145963
0.0943996
0.19113
0.125856
0.1027
0.258538
0.0778552
0.225311
0.112765
0.208947
0.103219
0.140637
0.103515
0.106048
0.106062
0.0587714
0.176092
0.127742
0.269373
0.227764
0.105615
0.156311
0.113453
0.126026
0.109616
0.164109
0.152354
0.157081
0.165537
0.182527
0.173813
0.106235
0.10676
0.0999476
0.176544
0.121111
0.103203
0.13535
0.220314
0.104628
0.178349
0.101608
0.106607
0.0971951
0.207315
0.110781
0.189257
0.213835
0.157366
0.193596
0.12395
0.20999
0.114988
0.110714
0.16413
0.104503
0.184287
0.131789
0.0571057
0.136856
0.17268
0.17495
0.193561
0.228429
0.159002
0.161376
0.185837
0.192267
0.21143
0.157945
0.149147
0.168649
0.16512
0.198992
0.222891
0.195203
0.120036
0.104479
0.127515
0.156157
0.140003
0.140599
0.178814
0.148556
0.20759
0.168937
0.159756
0.108167
0.110206
0.116115
0.157646
0.139941
0.241494
0.129719
0.136189
0.123352
0.118813
0.126041
0.12968
0.105674
0.105582
0.105622
0.106225
0.306985
0.17015
0.135507
0.177344
0.164136
0.296171
0.109131
0.150357
0.17164
0.117491
0.125018
0.120309
0.145794
0.141409
0.141031
0.14731
0.139591
0.156358
0.123166
0.226841
0.11225
0.158056
0.162471
0.187158
0.174514
0.118587
0.128402
0.16496
0.107976
0.116223
0.288227
0.223101
0.129212
0.153765
0.130002
0.126104
0.360033
0.187302
0.152109
0.141972
0.105836
0.240534
0.160219
0.228112
0.104794
0.106625
0.109768
0.131564
0.10584
0.106106
0.12466
0.13051
0.106347
0.109694
0.104814
0.107962
0.344108
0.104978
0.110149
0.107775
0.105251
0.11775
0.158779
0.294714
0.225775
0.104821
0.164412
0.148258
0.110616
0.10496
0.104923
0.251146
0.151627
0.161293
0.114386
0.119578
0.146289
0.204823
0.219188
0.149322
0.191703
0.171672
0.116017
0.128038
0.104743
0.127576
0.121474
0.116537
0.1297
0.134853
0.161162
0.155188
0.136232
0.121188
0.131374
0.195064
0.16163
0.150615
0.188272
0.174989
0.142806
0.117306
0.106753
0.146639
0.124497
0.141352
0.112208
0.12508
0.166343
0.120416
0.115448
0.111441
0.156372
0.131821
0.164864
0.113029
0.155547
0.105439
0.18257
0.121244
0.108267
0.12338
0.122237
0.159367
0.112147
0.119712
0.204773
0.268705
0.193337
0.108207
0.114682
0.236422
0.116284
0.186868
0.118772
0.18333
0.22565
0.211973
0.18216
0.116208
0.192308
0.200316
0.209036
0.145161
0.124448
0.21261
0.234532
0.166298
0.209616
0.15072
0.203167
0.124592
0.162239
0.136905
0.180865
0.201297
0.179738
0.237022
0.121664
0.105113
0.180171
0.217973
0.235775
0.125007
0.175959
0.11575
0.120023
0.13404
0.248474
0.231233
0.113865
0.185932
0.10455
0.17765
0.176904
0.147693
0.146727
0.114699
0.176593
0.110533
0.133386
0.114083
0.132508
0.155495
0.13945
0.122536
0.170831
0.1107
0.122961
0.120958
0.128354
0.110611
0.113229
0.114083
0.127525
0.125217
0.118365
0.144309
0.136912
0.144254
0.120502
0.209181
0.243005
0.114191
0.162628
0.161262
0.142374
0.192059
0.13875
0.145421
0.18453
0.224594
0.214866
0.169004
0.141733
0.2471
0.106591
0.111844
0.107748
0.113435
0.143364
0.154374
0.209956
0.247538
0.168847
0.174763
0.153116
0.188758
0.124672
0.119563
0.178503
0.106136
0.107235
0.248912
0.253134
0.114647
0.202472
0.227374
0.191133
0.109816
0.144464
0.173917
0.125682
0.229648
0.111097
0.169869
0.132657
0.142677
0.147466
0.178518
0.121576
0.235913
0.172096
0.106252
0.109886
0.240827
0.219766
0.111712
0.1798
0.185645
0.11128
0.185915
0.182367
0.104653
0.189823
0.110702
0.22347
0.163719
0.101948
0.145138
0.120567
0.231031
0.189578
0.204664
0.156436
0.130267
0.145498
0.140287
0.130814
0.206675
0.104397
0.118951
0.222533
0.116535
0.110794
0.105853
0.105971
0.0851779
0.104934
0.163909
0.180933
0.105354
0.0812768
0.140833
0.113188
0.213704
0.130659
0.0834217
0.142832
0.0926668
0.201549
0.142302
0.185344
0.13365
0.119646
0.0804312
0.135126
0.215859
0.135672
0.115211
0.110164
0.125387
0.0874322
0.10213
0.116413
0.117717
0.13138
0.245894
0.0779936
0.120878
0.14208
0.112616
0.136276
0.159302
0.120569
0.151006
0.203988
0.114096
0.195765
0.134436
0.498886
0.129729
0.132948
0.213389
0.180589
0.112306
0.17823
0.188024
0.179891
0.0587584
0.22635
0.178169
0.226141
0.110116
0.147861
0.15127
0.10242
0.137851
0.147066
0.12099
0.110025
0.105585
0.11067
0.12354
0.151085
0.162823
0.148384
0.0611768
0.139276
0.120493
0.180107
0.148074
0.0846263
0.149033
0.140622
0.172145
0.166129
0.17701
0.135018
0.127456
0.20235
0.19442
0.109959
0.154932
0.138948
0.149499
0.113755
0.221678
0.128942
0.162953
0.112614
0.17275
0.106903
0.107257
0.295925
0.147338
0.167668
0.106161
0.156915
0.152989
0.241986
0.253913
0.122596
0.202178
0.192587
0.107084
0.106212
0.110441
0.114517
0.145447
0.145898
0.170839
0.151756
0.197008
0.106617
0.128747
0.125526
0.34599
0.121851
0.272822
0.239017
0.207961
0.114092
0.106316
0.179915
0.103086
0.0548252
0.158583
0.218177
0.162036
0.103508
0.140378
0.0985723
0.137043
0.114526
0.106704
0.279895
0.118549
0.0945536
0.134003
0.157326
0.112437
0.165477
0.134681
0.111531
0.112584
0.179873
0.13179
0.129393
0.0969353
0.126405
0.221108
0.161616
0.14108
0.110048
0.139308
0.119194
0.0990841
0.185168
0.179752
0.15351
0.11183
0.112715
0.106217
0.175058
0.132171
0.15212
0.116077
0.10945
0.185582
0.145245
0.147348
0.129573
0.152396
0.155401
0.118778
0.154045
0.1005
0.106433
0.137015
0.168659
0.11125
0.203982
0.188556
0.0970142
0.153872
0.130875
0.222937
0.113496
0.13204
0.14293
0.0774259
0.246852
0.10574
0.14161
0.200593
0.112009
0.117249
0.11342
0.120217
0.102058
0.108148
0.10192
0.1035
0.111275
0.0968223
0.0988801
0.108933
0.113068
0.114248
0.103977
0.0944627
0.100319
0.0919248
0.0971842
0.0993954
0.0956761
0.0888454
0.0902025
0.11469
0.114491
0.113604
0.122668
0.304299
0.31931
0.0605783
0.23271
0.164162
0.122028
0.225322
0.106172
0.105667
0.114332
0.0990864
0.111203
0.108167
0.144523
0.14256
0.1086
0.217241
0.270241
0.105513
0.141982
0.104759
0.131965
0.11373
0.115367
0.111963
0.107887
0.106887
0.154804
0.0739199
0.15912
0.17174
0.106886
0.25098
0.121499
0.14213
0.139726
0.146695
0.103856
0.120401
0.0983346
0.118016
0.122746
0.120854
0.130636
0.0850567
0.199441
0.130947
0.124071
0.119529
0.126742
0.347851
0.261379
0.200179
0.0980358
0.105435
0.262475
0.218867
0.11394
0.119011
0.106725
0.156034
0.21547
0.116875
0.114006
0.105251
0.169864
0.202136
0.131275
0.204859
0.122578
0.170801
0.105284
0.101733
0.106801
0.157065
0.143282
0.0964687
0.116215
0.215234
0.118289
0.110548
0.233564
0.109535
0.110943
0.10472
0.121952
0.21204
0.0831396
0.106895
0.106341
0.146166
0.110387
0.137651
0.132549
0.27551
0.110995
0.112621
0.138319
0.169231
0.192965
0.145361
0.0870008
0.134605
0.129837
0.107204
0.104079
0.2829
0.161005
0.112543
0.102201
0.0601491
0.161275
0.11991
0.116714
0.10567
0.128486
0.12013
0.085552
0.197042
0.165947
0.184322
0.127675
0.0854551
0.127023
0.117905
0.131759
0.108015
0.108495
0.140038
0.10681
0.121096
0.159979
0.165416
0.141311
0.104593
0.17589
0.19532
0.110258
0.173479
0.105257
0.101709
0.160686
0.115121
0.100711
0.0679963
0.19718
0.116336
0.11392
0.111152
0.0899823
0.140622
0.181797
0.236197
0.117522
0.145279
0.104502
0.08919
0.211623
0.154951
0.14035
0.166455
0.0847884
0.116631
0.0831242
0.110546
0.10941
0.0454126
0.149738
0.160384
0.0692985
0.198722
0.0715041
0.104368
0.160859
0.0705774
0.0720223
0.132067
0.123716
0.364951
0.105012
0.0647295
0.0687177
0.0635636
0.06647
0.192774
0.207237
0.0730104
0.0729068
0.0728113
0.0725202
0.302238
0.1842
0.249064
0.129016
0.104142
0.24202
0.113657
0.105149
0.0863016
0.127713
0.148385
0.119571
0.117939
0.142891
0.147515
0.121914
0.119351
0.137227
0.0759198
0.11574
0.115729
0.134009
0.0697742
0.499548
0.425407
0.154498
0.124533
0.153482
0.115524
0.197308
0.125366
0.0885134
0.138649
0.117567
0.101773
0.157476
0.11147
0.161663
0.153736
0.106635
0.110102
0.210398
0.198626
0.13259
0.126087
0.124247
0.169258
0.110062
0.126876
0.10432
0.103417
0.159438
0.129621
0.122619
0.317909
0.296469
0.140766
0.110566
0.224194
0.246557
0.119754
0.106302
0.131824
0.0997136
0.109799
0.18854
0.111788
0.265615
0.151696
0.0866569
0.126515
0.216075
0.172991
0.138037
0.140043
0.134551
0.111659
0.11254
0.159039
0.160616
0.109635
0.106267
0.15068
0.12642
0.183754
0.11897
0.117367
0.156284
0.330682
0.107889
0.129207
0.112014
0.142471
0.11547
0.262297
0.282842
0.194852
0.213732
0.160293
0.126765
0.110203
0.108375
0.103706
0.157591
0.209596
0.13516
0.0965156
0.139329
0.0958762
0.112122
0.126826
0.150395
0.105287
0.191932
0.219186
0.187537
0.127819
0.190075
0.0859487
0.159463
0.109438
0.107543
0.145054
0.109211
0.280899
0.178786
0.113154
0.112167
0.125738
0.167417
0.138234
0.156785
0.222325
0.106747
0.106955
0.105771
0.118563
0.168706
0.132711
0.0970957
0.160235
0.142498
0.14572
0.116771
0.118289
0.105964
0.106091
0.160026
0.114548
0.163024
0.162159
0.0938258
0.132127
0.100364
0.104589
0.112427
0.215183
0.146789
0.113808
0.13585
0.13521
0.108393
0.224202
0.114033
0.106577
0.135811
0.190264
0.162391
0.105781
0.161633
0.115401
0.125843
0.128268
0.178458
0.187184
0.170839
0.240654
0.217504
0.103864
0.138651
0.0723469
0.112296
0.2531
0.12465
0.112278
0.119051
0.110201
0.157981
0.149698
0.221439
0.121874
0.0871677
0.289779
0.154893
0.241098
0.238637
0.155046
0.110269
0.224198
0.141935
0.158801
0.13844
0.087486
0.164052
0.0972472
0.267602
0.132267
0.16049
0.172105
0.10579
0.306739
0.210424
0.154371
0.173837
0.113444
0.286472
0.110423
0.206078
0.211784
0.108557
0.107544
0.109159
0.104663
0.114201
0.138341
0.0599158
0.213797
0.144163
0.160263
0.112142
0.314654
0.0630507
0.201747
0.0571663
0.166873
0.114567
0.149064
0.0984665
0.174984
0.0647944
0.112804
0.22727
0.217468
0.134355
0.137612
0.127275
0.133006
0.0917897
0.152804
0.0925657
0.126344
0.0923322
0.25475
0.154647
0.14817
0.187374
0.140426
0.0888295
0.102815
0.144957
0.120224
0.130816
0.129744
0.121478
0.112691
0.155427
0.15081
0.11192
0.102204
0.192473
0.0957134
0.127995
0.122086
0.188868
0.0851911
0.0412559
0.0602864
0.128703
0.163611
0.1775
0.116535
0.130007
0.0906012
0.102356
0.122185
0.135429
0.194723
0.256552
0.163646
0.368432
0.122273
0.135786
0.190435
0.12889
0.108485
0.139034
0.0877958
0.10959
0.139616
0.120773
0.133183
0.130455
0.264928
0.112262
0.12961
0.135595
0.0893273
0.104565
0.104434
0.0962662
0.189678
0.141742
0.101061
0.135217
0.156773
0.128924
0.148834
0.0881426
0.111934
0.115018
0.107847
0.121277
0.118796
0.215733
0.129868
0.148218
0.15326
0.106938
0.314033
0.109511
0.102868
0.0896114
0.394098
0.124008
0.101601
0.207433
0.0981292
0.105277
0.10179
0.0897128
0.0954156
0.163118
0.0908184
0.10392
0.152514
0.0979534
0.138183
0.110687
0.0989516
0.153782
0.211722
0.103415
0.0909924
0.128814
0.195824
0.116299
0.0795981
0.100049
0.114458
0.355494
0.197306
0.170513
0.0958877
0.0943783
0.0977846
0.130044
0.0913203
0.0968807
0.0860325
0.089287
0.0973317
0.0875835
0.101892
)
;

boundaryField
{
    frontAndBack
    {
        type            empty;
    }
    wallOuter
    {
        type            kqRWallFunction;
        value           nonuniform List<scalar> 
108
(
0.0850347
0.0916499
0.124405
0.0587714
0.0571057
0.113188
0.130659
0.0834217
0.0926668
0.119646
0.0804312
0.135672
0.125387
0.0874322
0.0779936
0.0587584
0.10242
0.148384
0.0611768
0.106161
0.0548252
0.103508
0.0990841
0.15212
0.117249
0.11342
0.120217
0.102058
0.108148
0.10192
0.1035
0.111275
0.0968223
0.0988801
0.108933
0.113068
0.114248
0.103977
0.0944627
0.100319
0.0919248
0.0971842
0.0993954
0.0956761
0.0888454
0.0902025
0.11469
0.114491
0.113604
0.122668
0.0605783
0.144523
0.111963
0.0739199
0.0850567
0.106725
0.156034
0.109535
0.0870008
0.0601491
0.085552
0.0854551
0.127023
0.173479
0.160686
0.0679963
0.181797
0.14035
0.166455
0.0831242
0.0454126
0.0454126
0.0692985
0.0715041
0.0705774
0.0720223
0.105012
0.0647295
0.0687177
0.0635636
0.06647
0.192774
0.207237
0.0730104
0.0729068
0.0728113
0.0725202
0.302238
0.0863016
0.127713
0.0759198
0.0697742
0.125366
0.0885134
0.224194
0.246557
0.0866569
0.126515
0.280899
0.0723469
0.087486
0.267602
0.0599158
0.0571663
0.0647944
0.0412559
0.0602864
0.0906012
)
;
    }
    inlet
    {
        type            fixedValue;
        value           nonuniform 0();
    }
    outlet
    {
        type            zeroGradient;
    }
    wallInner
    {
        type            kqRWallFunction;
        value           nonuniform List<scalar> 
126
(
0.101225
0.0924731
0.104505
0.103257
0.124631
0.101463
0.0936268
0.0954498
0.121232
0.304285
0.0853827
0.0869964
0.0873275
0.0918444
0.0957046
0.102161
0.0983557
0.0845179
0.244865
0.0933925
0.123396
0.0924353
0.0970224
0.0910543
0.0974739
0.102459
0.163867
0.286632
0.0930754
0.0984522
0.0926021
0.0847627
0.0829453
0.104896
0.104689
0.0929223
0.0886249
0.105188
0.0998751
0.106382
0.0947315
0.0948306
0.0957553
0.0917854
0.192014
0.122663
0.112812
0.0950875
0.095477
0.130383
0.0887094
0.0935504
0.127239
0.128217
0.0935659
0.0768862
0.0844595
0.144399
0.147193
0.0934745
0.1027
0.0778552
0.112765
0.208947
0.0999476
0.176544
0.121111
0.149147
0.140599
0.168937
0.157646
0.150357
0.117491
0.187302
0.160219
0.228112
0.106625
0.131564
0.13051
0.158779
0.104821
0.110616
0.159367
0.200316
0.175959
0.202472
0.163719
0.180589
0.153872
0.222937
0.197042
0.0923322
0.0888295
0.105277
0.0897128
0.0954156
0.163118
0.0908184
0.10392
0.0979534
0.138183
0.110687
0.0989516
0.153782
0.211722
0.103415
0.0909924
0.128814
0.195824
0.116299
0.0795981
0.100049
0.114458
0.355494
0.197306
0.170513
0.0958877
0.0943783
0.0977846
0.130044
0.0913203
0.0968807
0.0860325
0.089287
0.0973317
0.0875835
)
;
    }
    procBoundary1to0
    {
        type            processor;
        value           nonuniform List<scalar> 
29
(
0.15918
0.15918
0.155395
0.172889
0.340631
0.242093
0.650616
0.154453
0.481047
0.177641
0.175392
0.242093
0.155395
0.145977
0.584215
0.394256
0.340631
0.396757
0.172889
0.158376
0.332183
0.34838
0.419776
0.406511
0.406511
0.419776
0.391075
0.340113
0.391075
)
;
    }
    procBoundary1to2
    {
        type            processor;
        value           uniform 0.155484;
    }
    procBoundary1to3
    {
        type            processor;
        value           nonuniform List<scalar> 
48
(
0.109521
0.124756
0.117306
0.117306
0.178662
0.142971
0.142971
0.247445
0.114717
0.132497
0.153295
0.132497
0.11011
0.114603
0.126289
0.11011
0.105698
0.105698
0.106005
0.106005
0.10725
0.108884
0.108166
0.154528
0.154528
0.133578
0.1167
0.1167
0.182521
0.20679
0.177913
0.182521
0.247445
0.126521
0.111684
0.20679
0.19177
0.153295
0.109949
0.133587
0.108182
0.144316
0.126521
0.111684
0.139244
0.12523
0.149296
0.108182
)
;
    }
}


// ************************************************************************* //
