/*--------------------------------*- C++ -*----------------------------------*\
| =========                 |                                                 |
| \\      /  F ield         | OpenFOAM: The Open Source CFD Toolbox           |
|  \\    /   O peration     | Version:  v1912                                 |
|   \\  /    A nd           | Website:  www.openfoam.com                      |
|    \\/     M anipulation  |                                                 |
\*---------------------------------------------------------------------------*/
FoamFile
{
    version     2.0;
    format      ascii;
    class       volScalarField;
    location    "0.27";
    object      k;
}
// * * * * * * * * * * * * * * * * * * * * * * * * * * * * * * * * * * * * * //

dimensions      [0 2 -2 0 0 0 0];


internalField   nonuniform List<scalar> 
1431
(
0.671205
0.355109
2.21247
1.13077
0.466553
0.340817
1.32175
0.196681
0.460166
0.930326
0.398974
0.430318
0.485317
0.90044
0.863891
0.269006
1.22253
0.269867
0.0648312
0.4341
0.261384
0.72547
0.470408
0.975766
0.925439
0.468441
0.983688
0.831349
0.497782
0.333917
0.772657
0.322767
0.922925
0.350992
0.797213
1.51393
0.578487
0.31519
0.486461
0.30771
1.78304
0.0969862
0.523637
1.60448
1.57593
0.310215
1.41075
0.208549
0.37902
0.39918
0.278564
0.969662
0.512403
0.646219
1.51727
0.2026
1.34872
0.511622
0.790061
0.183505
1.80204
0.347707
1.77299
0.292402
0.589152
0.415019
1.99898
0.298209
0.367845
0.322731
0.320021
0.954978
0.379164
0.345814
0.471445
0.70774
0.409745
1.82275
0.224137
1.42684
0.269553
0.244785
0.304824
1.78863
1.6047
0.564768
0.539001
0.485074
1.05993
0.507819
0.347476
0.560408
0.500697
0.314801
0.260652
0.373316
0.622124
0.262839
0.334346
0.53821
0.391137
0.223637
0.481865
0.490102
0.575541
0.811058
0.240207
2.11042
1.05555
0.414014
1.69571
0.462781
0.21611
0.468411
0.512818
0.436159
0.261862
0.662485
1.15779
1.23197
0.295643
0.483711
1.30235
0.804805
0.29362
0.599228
1.27728
0.447136
0.488491
0.487357
0.374434
1.8775
0.744819
0.467925
0.540825
0.693085
0.393659
0.474589
0.350397
1.94794
0.234506
0.105896
0.289852
0.393728
0.451018
0.373789
0.266283
2.15445
0.40763
0.324445
0.506679
0.631897
0.360361
0.258328
0.222374
0.546829
0.283212
0.430251
0.207909
0.242732
0.262436
0.447795
0.46333
0.480376
0.523838
2.2829
0.464025
0.307077
0.301501
0.571997
0.573616
0.524259
0.74804
0.385697
0.282748
0.218808
0.200657
0.500228
0.345305
0.211417
0.316539
1.3381
0.208422
0.544098
0.348512
0.352739
0.232732
0.811315
0.499547
0.299345
0.441373
2.52762
0.313168
0.254276
0.409689
0.279597
0.234391
0.268983
0.309724
0.267417
0.27586
0.739983
0.291444
1.89284
0.246357
1.25235
0.579865
0.305131
0.37589
0.476048
0.264346
0.215809
1.03594
0.299684
1.74492
0.498829
0.200841
0.507993
0.679279
0.304316
0.291831
1.33956
0.430688
2.45498
0.318542
0.533823
0.470419
0.521129
0.398797
0.805376
0.643293
0.679896
0.302368
0.201198
0.196723
0.204799
0.28628
0.538969
0.274524
0.441453
0.311441
0.263944
0.673241
2.51009
0.660001
0.561075
0.309285
0.914151
0.525818
0.498647
0.256554
0.557083
0.844059
0.632942
1.74989
0.668186
0.163458
0.413607
0.625209
0.64911
0.68192
0.503471
0.419613
0.428146
0.198736
0.39186
0.5776
0.255666
0.508764
0.693568
0.244405
0.433699
0.25835
0.259334
0.698726
0.274533
0.417
0.699943
0.483393
1.15847
0.423128
0.46269
0.417075
0.412527
0.605401
0.827673
0.628287
0.190451
0.44849
0.292533
0.391736
0.33481
0.191359
0.416039
0.274625
0.217258
0.29437
0.264365
0.410139
0.227064
0.322855
0.477332
0.312279
0.217384
0.37249
0.390627
0.281666
0.657311
0.635667
0.0769812
0.304608
0.33752
1.59384
0.126584
0.30567
0.37422
1.03872
0.585632
0.197859
0.285723
0.405102
0.259966
0.221225
0.485035
0.725623
0.294902
0.257443
0.350912
1.07799
0.293957
0.75601
0.538355
0.429809
0.432727
0.277966
0.618722
0.300579
0.20628
0.293423
0.569652
0.262035
0.263638
0.318063
0.436484
1.34872
0.262116
0.32328
0.374189
0.0331403
0.0330985
0.281306
0.241635
0.335771
0.157194
0.373645
0.216348
0.268003
0.31212
0.167016
0.365718
0.209067
0.41133
0.153118
0.0295973
0.0388388
0.326447
0.146379
0.385918
0.973003
1.17758
0.34703
0.414279
0.305265
0.309606
0.44409
1.32632
0.62063
0.327947
0.362151
0.183862
0.288529
0.283435
0.0417795
0.303065
0.423008
0.148985
0.396256
0.345617
0.161445
0.0304413
0.4051
1.81353
0.409164
0.362255
0.334856
0.387665
0.134807
0.315591
0.300645
0.279609
0.316978
0.535834
0.307995
0.29058
0.640237
0.341297
0.632588
0.249476
0.0887576
0.970738
0.617594
0.387607
0.5439
1.4788
0.419725
0.843939
0.426447
0.730377
0.562003
0.0867476
0.531897
0.320307
0.574593
0.299618
0.356774
0.441014
0.286058
0.355363
2.27385
0.367472
1.85564
0.31133
0.240382
0.422402
0.487379
0.40054
0.315511
0.398349
0.349543
0.648471
1.46961
0.166177
0.429788
0.41169
0.227276
0.627694
0.702054
0.40717
0.525235
0.419237
0.461197
0.473461
0.622899
0.649336
0.26134
0.588955
0.461754
0.41438
0.560212
0.510186
1.82742
0.132864
0.559955
0.498929
0.522031
0.535757
0.0996839
1.65483
0.560551
0.460464
1.53857
0.305312
0.211933
0.890069
0.585913
0.415923
1.90228
2.11804
2.75832
0.219272
0.309113
0.295045
0.924215
0.207561
0.285481
1.24302
0.567752
0.36896
0.319067
0.415268
0.314705
0.125977
0.563946
2.51117
0.156089
0.290686
0.867878
0.434938
0.325239
0.436235
0.594681
1.41803
0.344869
0.341476
0.310288
0.453989
0.416585
0.463898
0.22488
0.126333
0.125203
0.442149
0.231822
0.805853
0.315692
0.262156
2.72912
1.09766
0.232521
0.6726
0.512257
0.454287
0.465508
0.0846932
0.387115
0.254136
0.383494
0.272408
0.462575
0.410684
0.286143
0.223531
0.407568
0.452199
0.361134
0.241202
0.305703
0.406276
0.596547
1.40218
0.291098
2.19363
0.446358
1.03164
0.236647
0.41227
0.379489
0.217327
0.400909
0.570772
0.444178
0.154816
0.618378
0.265515
0.453617
0.546868
0.308498
0.596958
0.614271
0.193516
0.524329
0.308649
0.367494
2.11551
1.19628
0.0471693
0.553312
0.199252
1.54454
0.272456
0.345916
0.298876
1.61269
0.323824
2.39342
0.386424
0.424175
0.402938
0.280997
0.531565
0.29145
0.223355
0.485002
0.4296
0.398307
0.391453
0.399448
0.330333
0.260135
0.390875
1.16174
0.563925
0.359643
0.310047
0.289299
0.339624
0.0580452
0.432337
0.202089
0.171272
0.426235
0.323048
0.433457
0.367715
0.330979
0.30946
0.418838
0.554059
0.33536
1.74043
1.33567
0.555154
0.0791299
0.364298
1.57202
0.203521
0.760742
0.433792
0.316341
0.337898
0.52331
0.472366
0.322257
0.457781
0.47647
0.313444
0.52822
0.047999
0.322623
0.229939
0.30307
0.357515
0.22235
0.238416
0.445076
0.303074
0.446899
0.195042
0.622215
0.398826
0.343043
0.549268
0.24718
0.424556
0.574834
0.29575
0.301305
0.598333
0.892049
0.425067
0.582205
0.340839
0.274496
0.678024
0.692227
0.268422
0.256813
0.332174
0.438641
0.306896
0.400642
0.0566949
0.401225
0.373446
0.282753
0.199902
0.359096
0.561025
0.29074
1.32709
0.044756
0.264331
0.366905
0.518883
0.290445
0.285392
0.541315
1.42746
0.496251
0.5775
1.30017
0.170464
0.521171
0.512825
0.456436
0.32383
0.367051
0.293556
1.00893
0.137458
1.02654
0.435489
0.287094
0.580875
0.474006
0.451338
0.0294064
0.402821
0.27256
0.197677
0.309832
0.507582
0.186935
0.458959
0.435692
0.81162
0.65787
0.343269
0.362782
1.92167
0.354238
0.0777625
0.528275
0.726556
0.333951
0.4214
0.359634
0.360534
0.201421
0.409132
0.413619
0.299473
0.218281
1.48964
0.65752
0.427527
0.772551
0.4613
0.477333
0.26497
0.269912
0.2223
0.476994
0.483712
1.44724
0.189019
0.380082
0.65017
0.597956
0.396035
0.31789
0.747362
0.325267
0.29122
0.592973
0.40472
0.213088
0.417115
0.669333
0.361328
0.652508
0.190381
0.495169
0.522949
0.38645
0.383434
0.350119
0.5206
0.422932
1.42584
0.282054
0.803935
1.07025
1.14436
0.30748
0.604185
0.13149
1.12908
0.613463
0.508506
0.604789
2.67201
0.0558644
0.753787
0.153343
0.573434
0.0813205
1.56518
0.439567
0.442864
0.346585
0.194536
0.538577
0.378241
0.0599131
3.28858
0.069529
0.781385
0.376625
1.61474
0.388323
0.191521
0.887304
0.737045
0.362674
0.30966
0.049476
0.725395
1.95897
0.230453
0.544113
0.367348
0.207916
0.542203
0.0298347
0.41205
1.35228
0.247125
0.630187
0.454199
0.280706
0.234995
0.65859
0.0474287
1.30068
0.537529
0.52749
0.518848
0.528068
0.50308
0.508702
0.509142
0.555352
0.284102
0.225434
0.385071
0.372718
0.329276
0.58982
0.0486202
0.372858
0.074815
0.817947
0.0527051
0.543438
0.583017
0.444249
0.622077
0.297388
0.483718
0.194005
0.239223
0.262195
0.505816
1.58141
0.219064
0.542029
0.373218
0.266433
0.237257
0.360192
0.358659
0.383454
0.0280683
1.09492
0.336368
0.977049
0.576973
0.320646
0.34605
0.225158
0.390996
0.66435
0.395788
0.629271
0.54816
0.216258
0.204403
0.044542
0.715393
0.288
1.20238
0.304184
0.377416
0.088691
0.25799
0.61335
1.4956
0.515466
0.248271
0.149331
0.512291
0.455716
0.0710296
0.292863
0.686274
0.343046
1.88844
1.72887
0.296894
0.448912
1.26263
0.433323
0.269726
0.580159
2.19638
0.0901165
0.804452
0.362949
0.4399
0.325902
0.310172
0.410697
0.328094
0.810948
0.732909
0.487836
0.595862
0.0945193
0.0305778
0.337939
0.223136
0.550567
0.283789
0.412959
0.645391
0.831202
0.358156
0.667669
0.566208
0.441112
0.219693
0.39242
0.233183
0.211581
0.718559
0.55324
0.53014
0.855444
0.511052
0.302308
0.18755
0.422707
0.264795
0.322988
0.297666
0.222471
0.343448
0.361503
0.315491
0.0334581
0.268651
0.250597
0.375967
0.645418
0.162853
1.70356
0.400982
0.232478
0.482537
0.456389
0.2896
0.373785
0.477152
3.05213
0.774655
0.383969
0.320424
0.528745
0.422697
0.631019
0.588566
0.771785
0.234807
0.252369
0.438773
0.393908
0.848593
0.330853
1.22459
0.730778
0.389264
0.276839
0.616592
0.570949
0.387808
0.239935
0.422131
0.411186
0.393152
0.376028
0.399581
0.478639
0.603542
1.28843
0.659872
0.137951
2.49065
0.451924
0.639862
0.348133
0.252733
0.489028
0.354987
0.328082
0.857991
0.329635
0.657279
1.89091
0.412832
0.323332
0.726733
0.454721
0.57523
1.62343
0.198162
0.332484
1.84861
0.350444
0.371736
0.426875
0.725423
0.228258
0.260855
0.775797
0.984774
1.43224
0.177919
0.252842
0.295673
0.475656
0.519331
0.476737
1.41176
0.713402
0.817652
0.366634
0.382126
0.180681
1.92453
0.615534
0.686402
0.315925
2.18181
0.288991
0.267152
1.87101
0.316478
0.386383
0.479316
0.751291
0.48225
0.0452594
0.865995
0.434165
0.505315
1.75508
0.395007
0.188413
0.627038
0.746108
0.461112
0.424022
1.2252
0.567447
1.75362
0.298285
0.392579
0.305663
0.195331
0.401006
1.08491
0.349506
0.596401
0.206353
0.338093
0.450021
0.3094
0.327445
0.273268
0.428226
0.202229
0.464936
1.25025
0.244254
0.48059
0.145471
0.787302
0.353125
0.355109
0.312377
0.316287
0.4087
0.0517721
0.228892
0.33243
0.544782
0.773356
0.445986
0.420945
0.200274
0.385007
0.344477
0.198056
0.507744
0.431525
0.483714
0.334494
0.54465
1.73746
1.62669
0.400333
0.551499
0.908021
0.163816
0.376481
0.49673
0.0472901
0.688829
0.634976
0.507433
0.690408
0.372848
0.672408
0.486072
0.889069
0.358686
0.532773
0.596133
0.257838
0.485128
0.297982
0.366705
0.361155
1.06309
0.441833
0.510882
0.149822
0.603832
1.42843
0.356007
0.0246012
0.691612
0.312951
0.113724
0.468575
0.223395
0.611349
0.422966
0.0608483
0.863617
0.447126
0.355105
1.01336
0.393021
0.207222
0.747201
0.154962
1.26275
0.259493
1.6748
0.0475416
0.882953
0.474712
0.754351
0.272077
0.451469
0.768225
0.498466
0.287552
1.32323
0.335619
0.0764144
0.774543
0.502099
0.892911
0.960475
0.0518878
0.884025
0.450591
0.336467
0.498452
0.489427
0.961915
0.603271
0.366324
0.20256
0.0254362
0.151425
0.373416
0.840336
1.81369
0.187993
0.364286
0.375237
0.634399
2.64837
0.300365
0.432448
0.101095
0.570614
1.70816
0.544273
0.377926
0.884302
0.768406
0.801533
0.467242
0.389289
0.299807
0.494134
1.75098
0.549758
0.400026
0.588427
0.67336
0.346146
0.521001
0.390155
0.351677
0.359983
1.23284
0.331692
0.473419
0.389369
0.0629581
1.79673
0.25022
0.562178
1.27385
0.479118
0.341927
0.430798
0.144192
1.29482
0.189941
0.38976
0.245816
0.412216
0.344115
0.609393
1.56771
0.442254
0.991783
0.347747
0.737152
0.839404
0.520525
0.578019
0.288675
0.23681
2.15079
1.14717
0.498
1.68583
0.519835
0.197888
0.450936
1.23148
0.271472
0.543842
0.50885
0.201887
0.249347
2.56083
0.505355
1.52907
0.462272
0.609796
0.340015
0.488709
0.392721
2.10284
0.520941
0.395598
0.340854
0.621683
1.56543
0.605358
0.69629
0.406787
0.633952
0.0625109
0.26514
0.371346
0.22623
0.396579
0.544711
0.566884
0.669471
0.174418
0.21549
0.228622
0.406725
0.332881
2.04251
0.682597
0.504245
0.805911
0.405388
1.79475
0.929022
0.375506
0.582603
0.599105
0.350873
0.247947
0.769437
0.527527
0.0568677
0.725501
0.229061
1.30497
0.357791
0.801318
0.486749
0.643131
0.32847
0.376673
0.639209
0.333781
0.416862
0.219222
0.34123
0.318047
0.213822
0.465005
0.319679
0.212877
0.495693
0.247428
0.428118
0.465168
0.804132
0.418571
1.89251
0.783438
0.35588
0.482679
0.369153
0.337694
0.36234
0.362146
0.68226
0.212502
0.835636
1.30036
0.231617
0.661115
0.55194
0.237912
0.198075
0.406716
1.09189
0.328384
0.900464
0.374314
0.212744
0.357112
0.74813
0.867947
0.522039
0.397433
0.291752
0.381541
0.728663
0.249241
0.533371
0.555308
0.308773
0.468546
0.524165
0.241842
0.496254
2.10803
0.208135
0.529514
0.203547
0.428947
0.394975
0.623555
0.587234
0.394672
0.327675
0.3296
0.269435
0.598883
0.408726
0.242911
0.730855
0.36441
1.42393
0.5671
2.01316
0.235142
0.706961
1.53681
0.336567
0.123686
0.397838
0.488776
0.605527
0.918066
0.102137
0.772317
0.490216
0.781177
0.450572
0.562859
0.387272
0.590404
0.342467
0.276168
0.929813
0.311412
1.10317
0.634907
0.585477
0.647585
0.206369
0.379546
0.379803
0.374642
0.85057
0.311856
0.303884
0.324509
0.893919
0.403489
0.892897
0.70561
0.459539
0.205654
0.914017
0.403185
0.301092
0.55729
2.01867
1.20608
1.78252
0.321141
)
;

boundaryField
{
    frontAndBack
    {
        type            empty;
    }
    wallOuter
    {
        type            kqRWallFunction;
        value           nonuniform List<scalar> 
90
(
0.269006
0.4214
0.413619
0.427527
0.477333
0.476994
0.483712
0.592973
0.40472
0.495169
0.522949
0.613463
0.508506
0.573434
0.538577
0.887304
0.537529
0.52749
0.518848
0.528068
0.50308
0.508702
0.509142
0.555352
0.505816
0.810948
0.732909
0.53014
0.511052
0.264795
0.322988
0.297666
0.222471
0.343448
0.361503
0.375967
0.482537
0.2896
0.373785
0.383969
0.438773
0.393908
0.848593
0.330853
0.422131
0.411186
0.451924
0.639862
0.348133
0.657279
0.775797
0.180681
0.461112
0.596401
0.464936
0.312377
0.33243
0.544782
0.773356
0.385007
0.507744
0.431525
0.400333
0.908021
0.634976
0.672408
0.889069
0.361155
1.06309
0.441833
0.498466
0.335619
0.960475
0.450591
0.961915
0.840336
0.432448
0.544273
0.377926
0.801533
0.430798
0.991783
0.347747
0.462272
0.174418
0.428118
1.09189
0.328384
0.522039
0.394975
)
;
    }
    inlet
    {
        type            fixedValue;
        value           uniform 0.375;
    }
    outlet
    {
        type            zeroGradient;
    }
    wallInner
    {
        type            kqRWallFunction;
        value           nonuniform List<scalar> 
138
(
0.430318
0.0648312
0.922925
0.350992
0.797213
0.0969862
1.99898
0.298209
0.320021
0.954978
0.70774
0.744819
0.258328
0.222374
0.218808
0.200657
0.309724
0.267417
0.27586
0.739983
2.45498
0.668186
0.163458
0.625209
0.64911
0.68192
0.5776
0.698726
0.605401
0.657311
0.635667
0.262035
0.262116
0.374189
0.0331403
0.0330985
0.281306
0.241635
0.335771
0.157194
0.373645
0.216348
0.268003
0.31212
0.167016
0.365718
0.209067
0.41133
0.153118
0.0295973
0.0388388
0.326447
0.146379
0.385918
0.183862
0.288529
0.283435
0.0417795
0.303065
0.423008
0.148985
0.396256
0.345617
0.161445
0.0304413
0.4051
0.316978
0.387607
0.843939
0.240382
0.166177
0.227276
0.525235
0.132864
0.890069
0.219272
0.924215
0.415268
0.314705
0.125977
0.156089
0.867878
1.41803
0.126333
0.125203
1.09766
0.236647
0.154816
0.618378
0.614271
0.345916
0.171272
0.22235
0.199902
0.170464
0.0294064
0.402821
0.26497
0.2223
0.325267
0.282054
0.13149
0.153343
0.194536
0.737045
0.0298347
0.372858
0.622077
0.297388
0.0280683
0.0305778
0.718559
0.0334581
0.268651
0.162853
0.616592
0.659872
0.137951
0.323332
0.726733
0.305663
0.145471
0.787302
0.163816
0.0246012
0.113724
0.747201
0.154962
0.0254362
0.151425
0.144192
0.303884
0.914017
0.403185
0.301092
2.01867
1.20608
0.321141
)
;
    }
    procBoundary0to1
    {
        type            processor;
        value           nonuniform List<scalar> 
29
(
0.84152
1.43159
0.755851
0.755851
1.95974
1.95974
1.91173
0.284679
1.79164
0.49318
0.370766
1.23851
0.523516
0.689129
1.13794
0.537685
2.72876
1.95343
0.586572
1.53889
0.300171
0.215988
1.67034
0.29618
0.296567
1.95343
0.258726
0.818012
0.29618
)
;
    }
    procBoundary0to2
    {
        type            processor;
        value           nonuniform List<scalar> 
42
(
0.777872
0.580757
0.476733
0.357732
0.215606
0.777872
0.476733
0.275622
0.165367
0.0948064
0.270847
0.254846
0.270847
0.272341
0.307867
0.846876
0.307867
0.0959006
0.118088
1.28616
1.28616
0.0959006
0.112645
1.16519
1.16519
0.111775
1.01309
0.0894354
0.95639
0.548839
0.548839
0.0624441
0.0478018
0.0429223
0.0456629
0.476733
0.416339
0.26623
0.95639
0.275622
0.0943346
0.0597505
)
;
    }
}


// ************************************************************************* //
