/*--------------------------------*- C++ -*----------------------------------*\
| =========                 |                                                 |
| \\      /  F ield         | OpenFOAM: The Open Source CFD Toolbox           |
|  \\    /   O peration     | Version:  v1912                                 |
|   \\  /    A nd           | Website:  www.openfoam.com                      |
|    \\/     M anipulation  |                                                 |
\*---------------------------------------------------------------------------*/
FoamFile
{
    version     2.0;
    format      ascii;
    class       volScalarField;
    location    "0.83";
    object      p;
}
// * * * * * * * * * * * * * * * * * * * * * * * * * * * * * * * * * * * * * //

dimensions      [0 2 -2 0 0 0 0];


internalField   nonuniform List<scalar> 
1431
(
91.7497
92.2812
89.6892
93.0348
87.5016
89.1045
92.7399
39.0567
90.232
92.7782
44.8562
44.8968
90.8969
84.1634
88.0757
92.7831
85.7307
88.8597
87.5115
88.0251
39.8833
84.0134
90.3095
19.6206
89.9241
90.8919
50.9539
89.1737
90.2033
83.7203
86.7059
89.7941
86.9447
84.7891
90.9434
93.0242
89.3066
91.0763
92.6964
89.3779
89.548
89.4883
90.8846
92.7344
86.6632
89.8211
85.2855
55.1134
92.7124
91.2255
92.6993
92.7546
92.6113
52.4762
92.8937
92.8979
88.3147
47.9218
84.5114
90.0933
89.2776
92.6948
91.3716
91.1805
92.7107
92.7067
88.5433
91.3305
89.3742
86.1364
46.7633
84.5304
92.8993
84.899
84.4862
90.1621
89.4954
91.3026
92.8339
89.8195
85.2118
89.8203
85.421
85.7396
39.4836
93.1773
93.1657
87.0752
52.0734
69.1227
89.0175
87.7313
91.0013
92.8113
93.0337
86.8723
44.5431
85.4639
92.7205
88.5837
92.858
92.7129
84.5987
90.1913
91.2524
86.6461
89.9864
55.2091
88.5714
84.0686
90.4116
90.8321
89.326
89.14
92.5518
88.8364
84.2844
92.9753
93.1852
91.2901
87.2863
87.5161
54.4021
85.1507
43.3614
92.901
89.6909
86.2553
89.7382
93.116
86.3541
88.5122
93.1273
87.2349
89.1791
91.3183
91.0975
92.6986
49.41
91.0262
92.7044
85.766
84.7739
90.2161
92.0294
86.8252
91.364
92.8306
92.8305
89.8067
91.3399
90.0147
89.2713
93.2855
89.2622
90.987
48.0932
90.0361
77.9615
93.1772
62.5305
90.734
92.9986
93.168
53.7484
90.0527
88.7133
92.8055
91.1997
89.5953
61.8667
92.6367
88.5191
49.8933
91.561
47.6924
93.1127
87.8614
92.7676
91.3905
92.7535
92.7289
93.1689
22.8723
88.6613
89.3945
50.6521
90.1451
88.5075
50.6687
86.8405
88.5882
89.3116
57.5148
93.0984
86.9097
84.2082
90.2906
89.1663
89.276
93.0185
93.0437
65.9519
93.1211
91.0134
86.8954
89.6411
89.4923
49.2975
88.5208
37.8592
92.976
89.8196
86.8666
41.3219
89.4136
89.2135
89.4792
92.8011
70.007
89.565
93.2749
90.0225
93.1168
89.3217
44.692
66.8862
87.8252
89.3805
68.152
36.1527
86.8353
86.9276
89.3111
89.7247
70.7954
89.7449
87.5833
87.0879
93.2914
93.1612
92.0701
47.5993
87.7092
88.6533
86.4079
87.8705
60.5832
89.9429
91.0936
85.8855
50.7036
93.1655
92.9101
86.8822
90.0342
93.136
39.9007
77.8298
89.1651
89.4442
50.5759
92.9985
93.1302
89.5481
73.9774
90.7622
58.4951
59.9163
87.8675
89.11
89.5366
92.7942
93.4181
57.7731
88.4581
53.7486
82.9155
86.969
89.7694
92.3385
89.9336
86.6784
92.6976
93.1416
83.6785
89.7959
82.1469
46.0086
91.988
89.244
90.4737
86.5732
92.1366
71.4239
89.2399
49.8656
89.9527
89.0917
86.4578
92.6332
91.0607
93.0608
91.0298
88.0467
93.0959
91.5609
88.9477
89.7387
91.01
83.3244
92.8955
92.6692
57.0422
90.2788
85.0665
90.8328
93.0704
88.5436
31.3915
91.2646
86.7079
89.6329
92.3141
91.1041
89.577
89.0565
89.8202
56.2962
92.9465
85.7906
89.1327
90.1401
84.3691
93.1626
90.9232
90.4168
75.477
90.4634
55.4108
91.1348
90.759
78.0991
89.1988
89.7367
87.4386
92.7825
51.9023
83.7696
91.6786
89.7645
89.0732
92.4693
89.8104
89.4047
92.73
41.7876
36.7806
49.8866
89.6366
83.8512
89.4506
85.6217
93.1757
88.8822
40.4216
89.9769
10.8335
89.7547
84.1395
56.1482
87.2598
55.7619
92.5771
90.0715
49.1694
89.804
93.584
89.2625
45.2393
90.5246
89.7002
92.9308
89.8889
11.554
90.5235
92.1632
89.6437
90.4025
92.5391
93.1808
92.0011
91.9758
93.0536
72.6748
92.6997
90.895
91.1988
89.7502
90.0674
87.6977
90.1669
80.679
90.1024
92.8861
91.3111
89.1628
93.0829
93.1463
91.3162
87.3639
91.386
91.4464
90.3339
90.0361
89.298
90.4277
92.7803
89.7325
91.6202
89.5933
90.7364
92.7781
90.0383
91.7677
87.375
87.5435
88.1586
89.373
29.3374
89.5204
89.4953
89.5872
89.2693
89.3703
89.7717
89.5295
90.1996
90.0996
90.2023
88.831
47.7548
89.0802
88.7308
88.6584
88.3469
88.2922
88.4929
85.4856
84.1922
84.5363
91.2879
92.7011
87.8988
92.6812
92.7209
84.0319
52.0506
87.0922
88.3963
83.9143
91.3029
52.1857
92.7216
87.9925
91.2944
89.2425
51.9325
91.2834
49.1322
92.7528
92.7672
88.5145
84.2552
48.783
48.6376
91.1571
91.1036
88.1148
92.8004
84.5097
88.2332
48.1988
92.9212
88.3728
84.7096
87.3541
88.3404
89.5546
90.8956
46.9261
92.864
89.5855
90.8681
85.6937
87.038
89.4973
45.3439
92.8274
87.9478
89.8087
90.906
87.2665
90.082
45.6007
49.5
89.3733
92.88
92.798
86.5433
90.8804
87.6365
87.3726
89.4283
89.9009
92.8778
89.5443
90.8473
87.0456
47.9582
85.6295
92.8245
87.1019
93.0111
90.8442
93.0899
44.5693
89.2179
88.9054
93.2333
92.6952
92.9429
91.1268
88.7151
90.4404
89.3129
93.1732
91.2646
90.8712
87.4731
91.118
90.515
89.5064
92.9441
88.1121
93.3624
92.9248
80.8871
91.0036
89.9947
91.897
90.2904
89.9589
91.7879
91.317
87.6383
93.1365
90.0543
86.5946
53.4428
90.0179
47.6056
82.2265
91.8154
37.5773
91.982
92.9261
93.1473
89.88
90.5424
91.926
69.8741
90.1816
92.9448
92.3887
89.161
93.0008
88.5417
89.773
89.3584
91.7237
76.6149
86.5132
89.2568
88.3565
89.8423
87.5029
92.9133
92.225
86.6007
89.7867
87.5507
92.676
92.5733
90.0054
90.7551
86.0992
91.9808
88.2967
49.8692
70.8673
90.9836
91.4816
92.7139
84.0305
89.9253
20.6707
84.7515
93.4539
88.8867
93.0441
91.6594
92.3795
90.0435
89.1685
89.4757
45.035
93.1721
89.3152
91.4403
91.9499
92.2113
92.4946
91.9032
91.5002
86.0063
90.57
85.9494
81.1331
93.49
91.4128
92.9953
92.7168
90.2584
92.1455
88.0405
41.6096
93.1993
88.8978
92.8715
89.4621
80.8282
93.2346
91.2404
88.2703
91.3809
86.8378
91.007
35.5085
91.2058
89.6351
89.2439
88.4373
86.321
89.3149
91.0296
90.1794
81.5973
89.2467
56.1325
67.3692
90.6485
90.8716
91.9558
90.3066
89.6473
88.418
89.2472
92.8375
89.675
92.0118
92.3599
39.1193
90.4591
89.4011
85.9383
33.912
84.0915
87.5557
93.2099
93.1214
92.7024
91.2395
42.9653
91.3381
88.8259
90.0092
88.923
89.1679
93.6323
89.9365
88.5686
89.7318
93.5696
93.3233
89.7296
89.6933
86.137
93.2196
77.9164
92.5836
90.0966
91.5537
93.4504
90.1637
27.1025
88.6388
91.429
92.6141
90.8678
89.1652
92.7331
85.7341
89.8831
89.564
90.538
90.1193
88.9672
93.4138
89.3809
89.4952
86.8005
49.7283
91.5886
91.144
92.921
89.1773
90.7241
56.7559
54.9448
91.1542
88.8347
89.3314
93.2654
90.4872
89.0156
90.3905
87.2839
44.8778
93.1754
88.9134
89.2584
93.2842
87.6917
89.7181
91.6657
83.9767
89.8957
89.1625
92.7183
90.9796
93.3045
93.1319
92.7335
9.65745
88.8248
90.5676
88.6281
89.4305
92.4625
33.0298
89.9529
90.5681
92.6895
86.599
90.0923
92.7753
92.7473
91.4508
93.4985
90.587
86.8048
88.4466
90.7538
90.0782
92.7606
93.1143
92.4452
90.6518
87.6927
90.7989
91.065
91.8274
91.2909
93.5542
50.7223
89.0855
92.3659
88.455
92.5124
89.5855
87.9118
89.5059
90.4273
88.6737
93.1485
93.1998
87.0491
93.096
90.9888
89.2837
83.9789
86.6008
89.4359
89.8134
17.0475
89.1051
90.3938
92.2416
88.7423
51.9171
93.1048
93.0031
44.6983
90.1336
51.9322
89.6345
88.2665
89.9278
89.3513
88.9192
86.3181
92.4287
90.5826
93.2449
88.6535
90.2444
85.5441
88.5289
92.7801
89.9177
84.1785
44.1018
88.9761
92.0599
53.2405
86.1305
89.3806
91.4889
92.9859
91.3752
90.876
90.9853
88.9928
92.1823
66.2414
90.9843
54.1292
92.7599
75.0175
89.6619
85.1613
91.1507
93.3362
88.757
91.3828
93.1354
93.059
89.6526
91.2046
93.1541
91.3682
91.7613
92.7801
90.5002
91.1478
90.2801
92.8793
51.8619
91.2348
90.2439
51.518
90.4243
88.4938
84.1955
89.8108
92.6934
91.738
90.8043
89.1755
47.5095
93.2358
89.7388
37.4417
57.1059
49.7764
36.6994
62.0079
89.6017
89.2465
88.8789
89.0004
56.095
89.9932
87.2613
88.8686
88.0928
86.8048
67.0393
49.1028
86.6415
75.3824
71.245
86.9547
90.0427
89.7183
87.34
89.3536
89.1853
87.318
89.1814
90.1395
75.0804
91.2564
89.249
91.3821
84.3843
85.0098
40.4637
89.6396
82.1802
83.8329
87.2742
92.988
52.9435
86.1695
87.0356
75.0912
88.7953
90.2684
84.9456
93.1474
51.1753
87.4503
89.3354
90.8907
92.1073
93.4928
92.7629
49.1911
88.9929
84.2316
90.4987
90.1649
92.1085
91.4736
57.3123
91.1972
92.7246
89.492
93.0013
91.9938
90.3885
84.8225
89.3232
92.5949
90.8894
84.4098
88.0053
91.2209
92.6996
47.0436
91.0255
92.3759
88.9073
89.1997
84.3416
93.218
89.1245
86.5539
93.1436
92.5149
86.6007
42.1193
88.8307
84.8574
88.2997
89.3892
92.7032
27.5107
91.2848
89.4441
92.6917
41.3093
91.0949
79.9577
92.7437
92.9055
93.1997
86.2267
89.6004
91.9359
86.8719
58.5079
36.2038
89.376
90.9593
92.9523
87.5695
85.2474
89.5521
86.1945
86.5601
89.8144
88.6555
89.3627
39.268
90.0415
93.2359
91.3161
86.202
89.8286
86.4366
88.8843
91.6457
92.0965
92.278
89.1881
91.8389
92.0722
27.2977
18.8144
92.7119
89.4867
81.9713
93.1704
90.9727
50.7729
85.3021
89.8437
87.014
68.5959
49.1875
93.327
84.8435
89.3683
91.7739
80.4627
50.0245
89.9522
91.6726
93.1555
49.8899
93.1346
89.761
92.9884
7.94326
89.9277
42.5798
57.5469
90.1885
89.3381
91.3484
93.1531
90.9297
93.1213
93.2108
93.0831
92.1466
90.0421
90.1359
89.3834
89.9799
62.8102
91.2895
89.3119
90.2451
53.7123
91.2135
52.9072
89.8189
90.746
54.4985
88.777
67.962
64.245
60.601
51.4833
51.5122
50.7525
57.0326
51.6094
92.9552
93.0842
93.0663
92.9754
92.9656
92.9725
91.3914
85.3756
89.8478
88.2355
90.0743
85.4949
92.9707
89.3902
91.2802
92.6958
92.4909
92.8048
89.3529
93.2682
93.1247
87.1178
86.3102
91.4796
89.4252
89.9383
90.8327
78.1402
93.526
91.5306
45.7989
89.7395
88.571
87.3951
91.6315
90.8904
92.7742
34.2024
90.9868
90.528
92.9569
86.2194
93.151
86.3403
84.0046
88.7693
92.921
85.0127
87.397
89.6849
90.4486
89.7505
90.9905
85.6577
92.87
17.4035
91.2727
43.4061
8.26514
93.1494
48.8604
84.6995
89.1891
88.5858
43.9364
93.1467
91.4564
91.0771
72.9288
90.156
85.8861
89.4154
85.8376
92.8527
90.178
92.8504
92.1055
59.3334
40.6311
17.7552
86.6377
88.0713
92.7326
89.8417
93.3369
88.3475
88.8924
84.8622
89.5614
49.3508
91.2281
92.744
42.2181
92.208
84.0274
90.393
92.6337
90.1666
80.9766
64.6757
91.0464
91.21
87.4804
90.2958
46.7381
89.8086
47.6478
92.7184
87.352
86.2676
39.1727
82.0004
90.3844
90.1341
90.3662
92.9021
53.7507
86.7093
88.3734
85.2017
85.2431
87.7281
90.3614
92.9505
86.7014
88.9181
53.4079
84.4524
90.9538
90.8856
84.8439
92.9595
88.3917
93.1131
88.0963
86.455
90.3823
46.5539
91.5444
91.1332
92.4078
88.062
92.8953
85.8326
87.9373
90.7917
76.2763
91.679
28.869
89.0723
93.2137
91.0115
62.1794
90.6877
92.6792
92.8979
90.8198
90.7479
91.6238
89.7807
90.8871
94.5517
85.2802
92.6573
84.5937
93.0442
90.8954
55.1879
90.4808
57.4766
90.1264
91.2249
91.3003
92.2547
84.7826
87.0079
89.5012
84.2463
92.9977
91.4983
38.5578
91.3674
91.6813
91.3239
88.3195
86.0531
91.2041
88.6629
72.0318
90.2201
89.4767
49.948
85.0119
92.1868
91.2279
92.0234
89.123
88.8705
88.9791
79.174
86.9742
86.3831
84.9583
86.8615
89.7843
51.6668
92.2719
88.1077
84.4256
91.0315
57.1774
86.4428
90.4598
87.4509
54.6418
90.9575
88.8511
91.2591
38.0885
90.3995
90.4981
91.2656
87.8716
43.0804
93.2627
52.9449
93.3835
93.2784
93.1286
54.0434
93.108
37.1611
73.5651
90.877
89.6147
86.8682
49.2158
89.463
17.203
93.1622
89.0053
93.1846
89.7744
86.444
64.9086
93.1641
92.3918
43.8317
57.1894
88.9239
86.7466
93.1522
50.9103
93.2864
85.2245
87.9518
55.1347
92.6834
93.097
90.9297
90.086
85.06
89.2871
85.8271
92.9054
93.35
58.4905
54.4689
93.3176
89.9573
86.1424
91.1698
88.6341
89.3603
84.0406
90.367
92.9029
87.6504
87.3168
89.6841
64.8939
89.5198
93.0525
89.5268
74.9849
92.929
93.2625
90.5834
84.9672
93.1108
86.3518
87.8375
89.645
93.0917
93.0162
61.1976
51.029
86.4286
92.8412
93.0484
89.2738
91.1877
89.9993
91.345
91.2911
88.1758
88.2422
87.2719
92.9386
58.1985
89.5259
79.1782
91.037
85.6031
48.3759
91.8386
92.9275
84.7311
88.4139
88.064
38.9896
90.8982
90.9927
89.5161
91.7745
92.5849
92.7206
93.2912
92.9921
93.4244
21.265
56.4374
85.2417
100.431
84.8811
86.1569
86.1158
92.4701
95.4152
88.4575
88.696
93.276
96.207
89.1665
91.3397
85.863
88.0874
88.9637
87.6716
)
;

boundaryField
{
    frontAndBack
    {
        type            empty;
    }
    wallOuter
    {
        type            zeroGradient;
    }
    inlet
    {
        type            zeroGradient;
    }
    outlet
    {
        type            fixedValue;
        value           uniform 0;
    }
    wallInner
    {
        type            zeroGradient;
    }
    procBoundary3to1
    {
        type            processor;
        value           nonuniform List<scalar> 
48
(
89.712
89.6506
89.6767
89.3957
89.0143
87.6048
89.6506
89.3861
89.3989
87.4908
87.4908
88.7964
88.7964
88.4533
87.9488
89.2613
87.8688
88.9306
87.8688
87.0151
89.4701
89.494
87.0151
88.3202
87.0253
87.6425
89.4357
89.494
89.3662
88.0629
88.0629
89.3278
89.3278
89.3989
87.3069
89.0055
89.3497
87.0253
89.7446
89.2207
88.4533
89.4033
89.4039
87.0151
87.7965
89.7319
88.7481
89.0921
)
;
    }
    procBoundary3to2
    {
        type            processor;
        value           nonuniform List<scalar> 
29
(
91.2247
91.2247
92.6452
92.6921
88.7028
91.2883
92.8452
91.0267
92.6748
92.6805
91.1657
88.3836
91.237
92.8426
92.8839
92.8574
92.6686
92.6782
91.0755
92.8621
92.8722
92.6686
92.9307
92.6782
92.8948
92.6511
92.6782
87.95
87.95
)
;
    }
}


// ************************************************************************* //
