/*--------------------------------*- C++ -*----------------------------------*\
| =========                 |                                                 |
| \\      /  F ield         | OpenFOAM: The Open Source CFD Toolbox           |
|  \\    /   O peration     | Version:  v1912                                 |
|   \\  /    A nd           | Website:  www.openfoam.com                      |
|    \\/     M anipulation  |                                                 |
\*---------------------------------------------------------------------------*/
FoamFile
{
    version     2.0;
    format      ascii;
    class       surfaceScalarField;
    location    "0.83";
    object      phi;
}
// * * * * * * * * * * * * * * * * * * * * * * * * * * * * * * * * * * * * * //

dimensions      [0 3 -1 0 0 0 0];
oriented        oriented;


internalField   nonuniform List<scalar> 
2708
(
-0.000503399
1.10925e-05
0.000207422
0.000284884
0.000167069
0.000244833
-0.000193996
-0.000217906
-7.45792e-05
1.11574e-05
2.57309e-05
3.76909e-05
-2.40876e-05
3.10757e-05
-1.37542e-05
6.76608e-06
-0.000334529
-0.000216496
0.000265333
0.000285693
0.000760001
-0.0009791
0.000478738
-0.00025964
2.50708e-05
-3.15004e-05
1.83896e-05
-1.196e-05
-0.000132789
0.000229449
-2.01271e-05
-7.65328e-05
-0.000657779
0.000697276
0.000684369
-0.000723867
9.81851e-06
1.37375e-05
1.51484e-06
0.000925984
-0.000958045
0.00029602
-0.000263958
0.000280572
-0.000347
0.000757392
-0.000690963
-0.000197446
0.000254195
-0.00027585
0.000219101
-0.000108492
-0.000363684
0.000340675
0.000131501
0.000280426
-0.0004507
-8.17827e-05
0.000252056
3.77348e-05
1.58642e-05
-4.37804e-05
-0.00070602
0.00054424
-0.000159222
0.000321002
0.000241501
-0.000334154
0.000198516
-0.000105862
0.000300312
0.000130566
-0.000395748
-3.51307e-05
-0.000155453
-8.06821e-05
0.000217539
1.85967e-05
-0.000407511
0.00077887
0.000554624
6.54416e-05
-4.07778e-05
-0.000133156
-0.00066411
-0.000373399
0.00052354
0.000513968
-0.000273412
-0.00125188
0.00129318
0.000232109
-0.000738162
-0.000583726
-0.000115051
4.55297e-05
0.00019112
-0.000121599
-0.000930879
-0.000166561
0.000139395
-0.000201505
3.35944e-05
0.000239467
-7.15566e-05
5.8768e-05
-0.000499722
0.000440954
-1.82673e-05
-0.000525289
0.000543556
0.000645949
4.91547e-05
-4.91412e-05
-0.000645962
-0.000628405
5.44746e-05
-2.55877e-05
0.000599518
0.000614014
4.73908e-05
-2.50135e-05
-0.000636392
-0.000238038
0.000172777
7.31682e-05
-7.90774e-06
0.000729958
0.00034639
-0.000756736
-0.000319611
-1.5875e-05
2.92229e-05
-1.7027e-05
3.67918e-06
0.000246628
0.000785587
-0.000156518
-6.62176e-05
4.10248e-05
7.09236e-05
-4.57308e-05
-8.85475e-06
4.14627e-05
-1.57614e-06
-3.10318e-05
0.00010128
0.000543216
-0.000622165
-2.23305e-05
-0.000536621
0.00049472
0.000906526
0.000991317
-0.000167692
-0.000144805
-2.71515e-05
-1.7635e-05
1.5999e-05
2.87875e-05
-0.000439724
0.000645077
-0.000490271
0.000284919
7.7542e-05
6.2037e-05
-0.000130009
-9.57019e-06
0.000149124
-9.36853e-05
-6.84984e-05
1.30597e-05
-0.000881249
0.000109204
-0.000158833
2.11804e-05
-1.99869e-05
-3.26939e-05
4.61691e-05
-1.21007e-05
-4.53139e-05
1.12455e-05
6.8323e-05
-0.000331408
0.000367201
-0.000104116
4.57702e-05
-3.909e-05
-1.47345e-05
8.05433e-06
0.000439844
-0.000211432
-0.000227384
-1.02797e-06
3.33245e-06
0.000323483
-0.000155687
-0.000171129
9.79936e-05
0.000192593
-0.000133796
-0.000156791
-0.000120394
0.000228392
2.4127e-05
-0.000132125
0.000127244
-0.000203607
-8.66787e-05
0.000163042
-0.000452279
-0.00038647
0.000508215
0.000330535
0.000743545
-0.000167593
-0.000575952
0.000112897
7.48896e-05
-0.000187787
7.89218e-05
1.1827e-05
-7.51878e-06
-4.3082e-06
2.96567e-06
2.16802e-05
-2.46458e-05
-2.93516e-05
-3.6866e-05
-1.51673e-06
-7.33802e-06
-7.97545e-06
-3.6939e-06
0.000362321
-5.04045e-05
3.99476e-05
2.97774e-05
-0.000118358
0.000157918
-3.95606e-05
-0.000132188
0.000209238
-7.70504e-05
-0.000169021
0.00011295
5.60705e-05
-0.000249538
1.14999e-05
1.35435e-05
-1.73075e-06
4.73178e-05
0.000125459
-0.000276193
-8.74908e-05
0.000165663
-8.81214e-05
0.000117174
6.23187e-05
-0.000179493
-4.92049e-05
3.3381e-05
1.58238e-05
7.69303e-06
6.04444e-06
7.42125e-05
0.000167288
-0.000604581
-0.000101439
1.7249e-05
-9.14028e-05
7.41537e-05
-0.000158516
8.04197e-05
0.000514784
-0.000436688
-0.000189514
0.000162719
0.000175919
-7.96986e-05
5.42712e-05
0.00120501
-0.00117958
1.83394e-05
6.36028e-05
-2.74283e-05
-5.4514e-05
3.47013e-05
1.53894e-05
-7.02011e-06
-4.30705e-05
0.0001657
-0.000181968
2.4478e-05
-8.21052e-06
2.72529e-05
2.47711e-05
-0.000996838
0.000944814
-0.000113468
4.31504e-05
-0.0007493
0.000819618
-7.45361e-06
0.0002271
-9.24028e-05
0.000213602
-0.000210626
-1.04288e-05
1.05252e-05
-3.20899e-05
6.25895e-05
-1.08849e-05
2.95719e-05
-4.8779e-05
3.00919e-05
0.00016104
-0.000123387
6.03409e-05
3.38113e-05
-0.000453723
0.000419911
-0.000340728
-0.000277937
-0.000406557
0.00047239
0.000212104
-2.16769e-05
-2.3854e-05
1.83794e-05
-0.000232117
0.000219578
1.25388e-05
0.000295566
-0.000222132
-0.000193828
7.45411e-06
-1.7304e-05
-0.00045982
2.06007e-05
-3.66834e-05
0.000475902
-3.25697e-05
-6.46381e-05
0.000151434
-5.42264e-05
-6.61075e-05
-2.89661e-05
4.58687e-05
-0.000612932
1.643e-06
0.00062447
-1.31806e-05
6.47746e-06
0.000635134
-0.000616665
-2.49467e-05
-0.000117934
0.000676486
-0.000729974
0.000171422
0.000460098
-0.000308394
-0.000525102
0.00058398
-0.000300255
-9.57447e-06
8.99017e-05
-0.000390106
0.000183988
0.000460313
1.2536e-05
9.20746e-06
-2.15789e-05
-1.64573e-07
-0.000685083
0.000615032
0.00056477
0.000116555
0.000243108
-0.000168866
9.11372e-05
-1.05441e-05
5.6735e-05
-3.83956e-05
-2.63859e-05
-5.55526e-05
-7.6635e-05
-6.13613e-05
-0.000389338
0.000152412
-0.00014908
-6.69551e-05
-6.13742e-05
0.000174325
8.37308e-07
6.85572e-06
4.25948e-05
-5.75375e-05
-0.000184193
0.000159947
8.89648e-05
-0.00014147
6.36626e-05
-4.0314e-05
4.42212e-05
1.08418e-05
-1.4749e-05
0.000208028
0.000336212
-6.3424e-05
-0.00027073
-6.86789e-05
-4.33821e-05
7.1747e-05
6.00379e-05
-0.000301081
0.000541356
-0.000158657
0.000252134
-0.00024893
3.51697e-05
-1.02726e-05
-5.61685e-05
4.44042e-05
-4.81672e-05
1.3745e-05
-9.98198e-06
4.28932e-05
-1.36959e-05
-3.67161e-05
0.00116655
0.000116429
-0.0011281
-0.000154878
8.14488e-05
-6.22308e-06
4.76858e-05
0.000608983
2.99184e-05
7.30483e-05
-0.00071195
-0.000173522
0.000361703
0.000335359
0.000106779
0.000541047
-5.29238e-05
-0.00026529
0.000258143
0.000302713
3.28943e-05
9.61709e-05
-4.15163e-05
-5.63208e-05
-7.88299e-05
0.000616154
1.96248e-05
-0.000556949
-2.84416e-05
8.51766e-05
-0.000557224
-9.42256e-06
-6.98996e-05
0.000636547
-3.70047e-05
4.22331e-05
-3.73182e-05
-0.00116966
-0.000125132
0.00113231
0.00016248
0.000460194
0.000351475
-0.000306344
-0.000505325
-0.000150624
8.01476e-05
-0.000610139
0.000680616
-6.94139e-05
6.44945e-05
2.88436e-05
-2.39242e-05
0.00102799
-0.000895857
0.000198667
-0.000330804
-0.00032011
-0.000219875
0.000264135
9.52469e-05
-9.36706e-05
-3.20715e-05
3.04953e-05
2.40304e-05
-6.88294e-05
5.95707e-05
-1.47717e-05
-5.98421e-05
0.000212254
-0.000817192
0.000364981
-5.11876e-05
0.000203101
7.44937e-05
1.96357e-05
-1.03326e-05
0.000399679
-0.000379799
-0.000163823
0.000143944
-0.000123094
-0.000919002
5.31753e-05
0.00098892
-0.000287053
-0.000312566
0.000334329
4.43054e-05
0.00063043
-2.87323e-05
-0.000646003
0.000260528
-0.00146234
2.86854e-05
0.00117313
0.000350983
-0.000311935
0.000205784
0.000306877
-0.00121601
-1.55146e-05
-5.23765e-05
-7.878e-07
0.000941978
-0.000621701
0.000104488
0.000392939
-5.75836e-05
0.000577494
-0.000127148
-0.000429454
-2.08923e-05
-6.46061e-06
-1.92249e-06
4.61165e-05
0.000215524
-0.000236814
9.43798e-05
-7.30899e-05
0.00115303
-0.00113103
-0.000295417
0.000532796
-7.20483e-05
0.00048123
-0.000470149
0.000476627
-0.000345526
0.000227592
0.000215912
0.000595266
-0.000805509
0.000370774
-0.000113358
0.000548092
-2.4428e-05
-5.41562e-05
-0.00106447
0.00114306
0.000628288
-0.000684828
0.000163319
0.000677449
-0.000576081
-2.36853e-05
-7.7683e-05
0.000583163
-0.000828437
0.000346554
0.00060034
-7.01058e-05
0.000146252
-7.31989e-06
0.000188614
0.000805804
-0.000642943
-0.000306544
-0.000349691
0.000378298
0.000667381
-0.000632069
-0.000152464
0.000117153
0.000112352
-1.38594e-05
5.94252e-05
-0.000168827
0.000150051
0.000258742
-0.000239966
0.000210734
-0.000215824
0.000113713
-0.000108623
-8.87228e-06
9.10375e-05
1.30817e-05
-0.000642141
-0.000388261
0.000780412
0.00024999
8.55701e-06
2.60151e-05
-2.80217e-05
-6.55037e-06
4.24218e-06
0.000293938
-0.000346731
4.85506e-05
1.18002e-05
0.000678901
-0.000677298
-1.34033e-05
0.00016296
-0.00065398
0.000659573
-0.000168553
-0.000122567
-2.62219e-06
9.51663e-05
3.00226e-05
0.00106945
-0.00109029
-6.57264e-05
8.65718e-05
-0.000174031
1.62963e-05
0.000104588
1.03479e-05
-0.000114935
-2.01591e-05
2.46333e-05
-9.81448e-05
0.000654765
5.1081e-05
-7.07114e-05
-0.000541637
-3.60329e-05
-3.52621e-05
-0.00010035
-0.00114193
0.00116258
-0.000103812
-1.04014e-05
-0.000117903
0.000674546
-0.000192522
-0.000560854
5.82612e-06
0.000667387
-5.83284e-06
0.000260065
-2.9147e-05
4.32177e-05
-0.000274136
0.000223586
-0.000587863
-0.000277864
0.000468525
0.000330516
-0.000647784
-0.000151257
-8.38081e-05
0.00019665
0.000102682
0.000269778
-0.000250762
0.000436125
-0.000455141
1.71899e-05
7.96441e-05
-1.00602e-05
-8.67739e-05
-0.000650904
0.000562205
-0.00105878
0.00108728
-0.00012885
-0.000625176
0.000734424
-0.000497509
-0.000171359
0.00016448
-0.000442774
3.80984e-05
0.000735191
-0.000487357
5.87406e-05
0.000652202
-2.9793e-05
-0.000204068
0.000324032
-9.01713e-05
-1.23474e-05
1.24748e-05
0.000645821
9.82519e-07
-0.000622748
0.000633566
0.00039723
-0.000135433
0.000321365
-1.43012e-05
-0.000651091
3.69873e-05
-0.000758751
-0.000213523
0.000833803
0.00013847
0.000657234
0.000143296
-0.000145765
-2.08282e-05
-0.000386921
-0.000133888
-0.000125212
0.000416909
0.000336591
-0.00010936
8.80232e-05
0.000210704
-0.000189368
-6.88357e-05
7.91525e-05
-2.58314e-05
-0.00014509
0.000345296
0.000156593
-0.0003568
0.000105013
-9.43471e-05
-0.000354416
0.000530596
-0.000197008
-8.37539e-05
-0.000132176
-7.24012e-05
8.85817e-05
0.000115996
-0.000370563
0.000201868
-0.000267463
0.000846007
0.000319264
-0.000557455
-0.000409592
-6.30998e-05
-5.00231e-05
4.10266e-05
-4.8541e-05
-0.000352244
0.00118842
-0.000808921
-7.77267e-05
3.23433e-05
8.91454e-05
-4.8858e-06
-2.9834e-06
4.14635e-05
-0.00115579
3.02783e-05
0.000916108
0.000209405
-8.47166e-05
2.92539e-05
-2.2264e-05
-0.000191179
0.00111569
0.000162775
-0.000612806
0.00076927
-0.000433176
0.000276712
9.06903e-06
0.000294172
0.000156857
-8.6929e-05
-0.0003641
8.62588e-05
-0.000382055
-5.90374e-05
8.2289e-05
4.47121e-06
-4.82907e-05
3.97812e-05
-0.000371422
-0.000642891
-0.000570148
0.000455349
-0.000490932
-0.000617741
0.000653324
-6.00071e-05
0.000176538
0.000483809
0.000110051
-0.000789432
-7.1427e-05
-0.00013218
0.000199531
8.70447e-05
0.000637712
0.000193211
-0.000173689
-0.000174949
-0.000152842
-9.61144e-05
0.000122926
-0.000136171
0.00119907
-0.000294165
-4.7481e-05
0.000564553
0.00145913
-0.000172933
-8.71343e-05
-0.00070833
-8.91966e-05
-1.27505e-05
0.000810277
-0.000447647
0.000448629
-0.000527708
0.000671004
-0.00032305
0.000380847
-0.000344849
-0.000271411
0.000303846
-0.000548459
0.000516025
7.59426e-08
0.000415759
0.000288054
-0.000157728
-9.10986e-05
-3.92281e-05
0.000124366
-9.10795e-05
-9.4603e-05
6.13168e-05
-0.00025969
0.000569037
-0.000467862
-0.000979737
0.00013878
-0.000314834
-0.000400106
6.80469e-05
-8.77597e-05
0.00115377
-0.00113406
0.000195638
-0.000134129
-0.000279415
-1.02143e-05
-0.000639109
0.000582362
-0.000650206
0.000706953
-1.27927e-06
-0.000476623
3.81294e-05
-0.000275065
-4.78418e-05
0.000284778
2.09969e-05
-0.000786218
3.53221e-05
-0.000629353
0.000263013
-0.00060854
6.38828e-05
-0.000534032
3.04495e-05
-0.000171398
3.71367e-05
-0.000440968
-6.67919e-06
0.000279174
0.000272162
-0.000293193
0.000101804
-9.22284e-05
-9.57603e-06
0.000111605
-0.000154992
-0.000131563
-0.000238436
0.000269433
-4.63798e-05
1.53829e-05
-0.00027389
-0.000563397
0.000137453
0.000699834
-8.86655e-05
2.11388e-05
-0.000422641
-0.000656446
0.000477595
0.000374912
0.000863033
-0.000313983
0.000150096
-0.000714914
0.000782829
0.0001207
-7.02643e-06
7.86374e-06
2.37825e-06
-0.000157486
9.74794e-05
0.000693426
-0.00067874
0.00068259
-0.000585714
0.000234744
-0.00038864
-0.000503189
0.00025976
7.91798e-05
8.98202e-06
-6.84242e-05
0.000117171
-5.77293e-05
-0.000622797
0.00058935
0.000754277
-0.00072083
0.000270694
-0.000316192
-0.000377142
0.000174909
4.51809e-05
-0.000117581
5.77445e-05
-3.15658e-05
0.000253306
9.76714e-06
-0.000224944
-0.000588077
0.000310652
0.000447546
-0.00017012
2.74663e-06
2.29843e-05
0.000101997
0.000739464
-0.00069468
-0.000693232
0.000648447
0.000353502
-0.000367779
9.47991e-05
-8.05228e-05
0.000114527
-1.79933e-05
-7.38817e-06
0.000439325
-0.000475358
9.6517e-05
-6.29495e-05
-7.31281e-05
0.000738507
-0.000683308
-0.000694308
-2.98155e-05
1.91999e-05
5.58434e-05
-4.52278e-05
-6.38647e-05
-4.9986e-07
-0.000247493
1.32991e-05
-0.000730647
0.00052086
0.000641567
-0.000431781
-0.000236378
-0.000672997
-0.000715764
0.00040842
-0.000280733
3.5697e-05
-1.63658e-06
-0.00022766
-1.81962e-05
-0.000187687
0.000311872
-0.00072704
0.000602854
-0.000301701
0.0010633
-0.000146563
-0.000613512
0.000437698
0.000869239
-0.000836168
0.00054648
0.000706597
-9.18712e-05
-0.0001951
0.000749205
-0.000521781
0.00123171
-0.000216352
-0.000686249
3.88925e-05
0.000264177
-5.61328e-05
-0.000246937
7.86862e-05
-4.33334e-05
0.000758688
-0.000794041
5.5407e-05
0.000154141
-8.09515e-05
-0.000128596
0.000342631
6.14402e-07
-8.99392e-05
0.000492179
0.000230865
-0.000488092
-0.000234953
-0.000175846
0.000199619
3.16334e-05
0.000188596
-0.000140981
-2.18009e-05
-2.5814e-05
0.000333258
-1.77627e-05
0.000993543
-0.00130904
2.42416e-05
-5.40346e-05
0.000107343
-0.00130136
0.00116959
-2.76981e-06
-5.02295e-07
6.87137e-05
-0.000121086
-0.000124985
9.16397e-05
-0.000744586
0.00112878
0.000110283
-0.000494479
-0.000682556
0.000682901
-0.000560979
0.000434842
0.000123228
-0.000669545
0.000605085
-4.17462e-05
-0.000649174
0.000672653
0.000838287
-0.000858596
-0.000155858
-7.36421e-05
1.30044e-05
-0.000569664
9.38346e-05
0.00109882
-0.000622988
-0.000324622
-0.000120045
0.000299577
0.000935993
0.000266083
0.000910208
-0.000894663
-0.000144395
0.000257548
-8.238e-05
7.09114e-05
-6.12562e-05
7.27247e-05
0.000120049
-9.73566e-05
-5.19888e-05
2.9296e-05
-0.00022658
0.000945609
0.000308943
-0.000232205
-0.000396848
-0.00066005
0.000477082
-2.35932e-05
0.000132267
3.22879e-05
-0.000140962
-4.60802e-05
-0.000940209
-0.000731926
5.59673e-05
0.000719864
-5.75865e-05
-0.000718245
0.000436076
0.000197525
-0.000199849
-0.000433752
0.000635887
-1.27442e-05
-0.000434166
-0.000188978
0.000795078
-0.000926
-2.15426e-05
-0.000360437
-0.000126123
0.000161939
9.39876e-05
-5.82172e-05
-0.000405542
8.60768e-05
1.38047e-05
0.00030566
-0.00053103
0.000103456
2.20332e-05
-9.08626e-05
8.98483e-06
-6.78776e-06
0.000848066
-0.000315174
-0.000192067
-0.000676534
0.00049591
-0.000138746
0.00031937
-0.000397749
-0.000105914
-0.000172872
-0.000682766
0.000738923
0.00021292
-0.000761592
-0.000227633
0.000776305
0.000601747
-0.000598503
0.000227621
6.00748e-05
0.000906197
-0.000589341
0.000567532
-1.27646e-05
0.000818563
0.000110309
6.07275e-06
8.59556e-05
-8.2876e-06
-8.37408e-05
0.000499181
-6.88828e-05
-6.17408e-05
-0.000368557
-0.000798708
3.2528e-05
-5.6838e-05
3.41413e-05
2.26967e-05
-6.90118e-05
4.61558e-05
0.000519117
7.95173e-06
-2.78881e-05
0.00069599
-0.000436066
5.0728e-05
0.000493879
2.64832e-05
-1.24546e-06
-0.000154717
6.95565e-05
-7.25922e-05
0.000157753
-4.22315e-06
0.000696078
6.66376e-05
0.000100523
-0.000109416
0.000490886
0.000133878
-0.000475311
-0.000149453
-8.04312e-05
0.000269318
-0.00100142
0.00047337
1.25791e-05
7.93007e-06
-0.000116672
0.000614409
0.000216055
-0.000173111
-0.000214456
9.10662e-05
0.000265311
0.000195091
-0.000192297
-1.26882e-05
2.48176e-05
0.000461241
7.70315e-05
-7.28118e-05
-0.000160078
-0.00012035
-9.50471e-05
0.000134715
0.000182564
0.00024229
-0.000294288
-4.02269e-05
5.00578e-06
4.77572e-05
-0.000219772
-0.00118828
0.000156167
-0.000164343
0.000320276
4.32361e-05
-0.000199169
0.000329505
-0.000298898
0.000177635
-0.000208242
0.00044663
-0.000281468
0.000157953
-5.38167e-05
0.000270716
0.000181532
0.000266112
-1.01359e-06
-0.000368844
0.000411538
-0.000282475
0.00023978
0.000132964
-0.000113532
0.000408874
-0.000278235
-1.7106e-05
0.000368702
-7.06964e-05
-2.4476e-05
-5.19662e-05
0.000485316
-1.78083e-05
-0.000270566
0.000156078
0.000132296
0.00103575
0.000520475
-0.000294567
-0.00126166
-2.66706e-05
0.000208481
-1.8979e-05
0.000146449
7.59082e-05
-9.0222e-05
-1.1495e-05
-6.94416e-05
-1.49291e-07
3.23909e-05
3.72001e-05
7.85925e-05
-3.08627e-05
0.000194024
-0.000179615
-0.000239937
0.000225528
-5.86919e-05
4.79992e-05
5.89811e-05
-4.82885e-05
-7.9876e-05
-7.51066e-05
9.62907e-05
-4.33174e-05
-3.45758e-05
4.26878e-05
3.52054e-05
-4.38445e-05
4.45002e-05
1.8034e-05
-1.86897e-05
-9.47808e-05
-0.0001552
1.25375e-05
2.10448e-05
4.46357e-05
-4.84384e-05
4.60762e-05
-4.07579e-07
-0.000975596
4.22963e-05
0.000913287
2.00125e-05
5.64002e-05
-6.09946e-05
-9.01864e-05
-7.34699e-05
-0.000142899
8.66923e-05
2.5433e-05
-2.58722e-05
-3.80093e-06
5.98852e-05
-3.82953e-05
-1.7789e-05
-0.00104817
0.000101259
1.9949e-05
-4.99099e-05
5.10058e-05
-2.26668e-05
-9.85791e-05
6.80424e-05
-3.33761e-05
-3.84672e-05
-0.000287863
-0.000153777
-0.00116117
0.00019926
6.0228e-05
-3.5503e-05
-0.000330251
-0.000714491
4.13851e-05
-4.27272e-05
-1.62928e-05
1.8294e-05
-0.000197515
-0.000134722
5.3624e-05
-1.44971e-05
-7.3825e-05
3.46982e-05
-0.00129071
0.000269957
0.000813062
-0.000635485
0.000858177
9.68248e-06
-8.4777e-05
3.86068e-05
2.04376e-05
-1.46403e-05
-6.30011e-06
-5.34415e-06
4.06046e-05
7.26139e-06
-1.30728e-06
2.51157e-05
3.06761e-05
-4.58535e-06
-0.000914408
0.000436759
-1.74716e-05
1.06607e-05
-9.06417e-06
0.000134551
-9.13361e-05
2.84905e-05
0.000103475
-0.000133273
-0.000117853
-2.07971e-05
3.89848e-05
8.19339e-05
-0.00017079
-1.46051e-06
5.64784e-06
1.11913e-05
-1.53786e-05
-0.000740933
3.21266e-05
-5.61247e-06
-4.39857e-05
2.54911e-05
-7.47127e-05
-1.71673e-05
6.75463e-06
-1.13522e-05
2.17649e-05
0.000126752
-0.000186647
4.15527e-05
1.8342e-05
-2.64606e-05
4.82256e-05
-4.40806e-05
5.43107e-05
-6.90466e-05
-0.00120612
0.000170616
3.4554e-05
7.5535e-06
-9.98093e-06
0.000101322
0.000299073
-0.000186793
1.15812e-05
-7.9849e-05
9.14814e-05
-2.32135e-05
1.1374e-05
0.000133229
-9.90736e-05
0.000316531
6.37435e-05
-2.3241e-05
3.48221e-05
-0.000333934
-0.000865795
-6.38769e-06
-0.00115322
-0.000460684
0.000103679
-2.5206e-05
-3.47947e-05
8.00095e-05
4.55867e-05
-3.19605e-05
0.000190134
5.95041e-05
-0.000148316
4.29809e-05
-4.87743e-05
0.000168492
3.41899e-05
-2.01177e-05
-3.07801e-06
-2.0217e-05
-1.70321e-05
-6.20888e-06
5.36961e-05
4.97369e-05
-3.03184e-05
-6.65627e-05
-9.32639e-06
5.90619e-05
-0.000106902
0.000143218
-0.00073795
-0.00022104
0.000317894
-0.000190539
9.67476e-05
-0.000288537
0.000170277
-4.34435e-06
-9.53905e-05
2.79821e-06
0.000121105
7.86855e-05
-7.81972e-05
2.06505e-05
-0.00140339
-0.000200359
0.000407386
3.96969e-07
5.34418e-07
2.28815e-05
1.12598e-05
-0.000160552
0.000139528
-0.000174699
-0.000144734
0.000179905
0.000183723
-0.000182561
-6.04165e-05
2.08369e-05
-6.73225e-05
0.000487685
-0.000417875
-0.000585149
0.000515339
3.00972e-05
0.000111825
4.31392e-05
0.000659232
-0.000580546
-2.23441e-05
0.000121434
2.20144e-05
-2.13396e-05
0.000201839
-0.000433334
0.000518065
-0.000153613
-4.94727e-05
-2.65921e-05
7.60648e-05
1.48031e-05
0.000775548
-0.000730276
9.79396e-05
0.000138337
-0.000442389
0.000452924
5.23262e-05
-0.00028769
0.000262024
-0.000730465
0.000859113
-0.000128648
0.000184586
-0.00012201
-0.000576877
3.21799e-05
-0.000237265
0.000781962
-0.000340926
0.000323577
-0.00028945
0.000306799
-1.46506e-05
4.59546e-05
0.000847477
0.000430933
-0.000432855
0.000494928
-0.000493006
-1.49134e-05
-1.91715e-05
9.43914e-06
0.000123096
-0.000255914
7.68234e-05
3.11159e-05
-2.73388e-05
0.00010417
-7.12328e-05
-0.000750867
0.000597678
-0.000254322
-0.000142585
-0.000458768
-0.00128541
-0.000290906
0.000752974
0.000204764
1.28856e-05
-0.000182199
0.000208206
-0.000535223
0.000691296
8.99037e-07
-0.000150116
0.000162102
0.000191736
-1.14493e-05
-3.03955e-05
-0.000150427
0.000153484
0.00019948
-0.000679255
3.09965e-05
0.000448778
-0.000397006
0.000363415
2.09031e-05
-0.000835684
0.000368065
0.000779491
-3.66813e-05
0.000353417
8.82546e-05
8.96944e-05
-0.000113512
0.000115368
-1.85528e-06
0.000757571
7.85742e-05
-8.05001e-05
-2.41841e-06
6.01068e-05
0.000467717
-0.000527824
1.89995e-05
0.000295655
-0.000385351
0.000142554
-0.000283499
-0.000416713
3.22856e-05
0.000264927
-0.000269464
-0.000831147
-0.000449959
0.000646926
-0.000418008
0.000593049
0.000112877
-0.000572047
0.000189637
0.00063235
-0.000648587
0.000756925
-0.000261591
0.000113622
-0.000133013
-0.000112613
-6.2972e-05
0.000129332
0.000103917
0.000219991
-0.000231387
0.000586139
-0.000571336
-0.000318019
-0.000460893
0.000172587
0.000331524
-0.000587744
-0.000236719
0.000267008
-0.000468965
0.000290054
-0.00028522
0.00046413
-0.000134503
8.55619e-05
0.000192159
0.000275818
0.000402526
-0.000242269
0.00112404
0.000174678
0.000512776
-0.000544821
5.68624e-05
4.54052e-05
0.000761619
-0.000754295
-0.000176549
0.000169226
0.000667745
0.000198325
-0.00045765
-0.00113577
0.00105361
0.000234885
-0.000693514
-1.45212e-05
0.000102145
-7.47114e-05
-1.29129e-05
2.57703e-05
9.36181e-06
-1.0363e-05
-0.000117719
-2.20339e-05
-0.000375619
0.000227383
-0.000382794
1.17818e-05
0.000247192
-0.000581243
0.000637126
0.000733388
-0.000732744
0.000654843
-0.000655487
0.000143333
0.00108354
-0.00092
-1.76361e-05
1.8266e-05
0.000137034
3.79603e-05
-5.49453e-05
0.000682658
-0.000125968
2.08045e-05
0.000134909
-0.000273741
-0.000203004
4.10679e-06
0.000111261
-0.000470122
0.000546948
-0.000452446
-0.000117239
-7.53222e-05
-0.000103113
0.000790569
-0.000385437
-0.000524715
0.000441187
-5.3491e-05
0.000142178
-0.000155074
0.000142197
0.000226765
-9.95286e-05
0.000203384
5.93739e-06
0.000101753
-7.34102e-05
0.000325074
0.0001005
0.000251232
1.16835e-05
9.98378e-05
0.000680426
0.000693001
-0.000832177
-9.61101e-05
-0.000413957
-0.000627968
0.000599537
-0.000214004
8.62036e-05
0.000735834
-0.000697127
0.000398376
8.40712e-05
-7.26262e-05
-3.72764e-05
-2.85875e-05
4.02085e-05
0.000501155
-2.94547e-05
0.000615594
-9.27616e-05
-0.000618651
3.94477e-05
-0.000219274
-0.00039228
-0.000219814
-0.000144666
-2.89743e-05
0.000874228
-9.02214e-05
-0.000574602
0.000462925
4.79263e-06
0.00049664
0.000584825
4.62891e-06
-0.000138748
-0.000952697
-0.000261314
0.000348727
-0.000456421
-4.04348e-05
2.95471e-05
-4.25997e-05
0.000120177
0.000216006
8.6322e-05
-8.60255e-05
-0.000167679
4.39336e-05
0.000271127
0.000533153
8.17387e-05
0.000256272
0.000982589
-0.000928317
0.000619248
-3.79501e-05
-2.65563e-05
3.39963e-05
8.11417e-05
0.00106948
-8.68909e-05
-3.6075e-05
0.000676348
0.00021295
-0.000127231
0.000129534
-0.000179449
-0.000178121
-0.000406457
-0.000859922
-6.83953e-05
-1.47718e-05
-3.96738e-06
3.30805e-05
-1.43413e-05
-0.000193193
0.000259851
-2.64746e-05
-4.01832e-05
4.38333e-05
0.00018794
-0.000655904
-3.33561e-05
0.000164228
-6.63648e-05
0.000100972
-3.46074e-05
-0.000304702
9.30467e-05
0.000232492
0.000227934
0.000278344
0.000792047
-3.91964e-05
-2.71684e-05
-4.54983e-06
1.82883e-05
-1.37384e-05
-0.000287775
-0.000299547
0.000367198
-6.76514e-05
-0.000116221
0.000244602
2.77706e-06
-7.32688e-06
0.00109162
0.00023862
-0.00018591
-5.271e-05
-5.11093e-05
-0.00052677
5.19317e-05
-0.000442161
-2.09081e-05
-5.59893e-05
0.000671583
-9.82403e-05
0.00116772
5.64014e-06
0.000457285
-6.09267e-05
0.000153633
-0.000125505
0.000271449
7.16456e-05
-6.00229e-05
-0.000695122
0.000683499
-0.000407575
-0.000186412
-3.32283e-05
-0.000679545
-7.05312e-05
-0.000679266
0.000179026
0.000623468
1.94215e-05
-3.82538e-05
0.000783188
-0.000373651
7.45612e-05
-8.40399e-05
-8.66358e-05
-0.0005749
-0.000500091
3.5899e-05
4.95756e-06
-0.000694603
-2.47919e-05
0.000577725
0.000337003
-0.000341204
-7.52166e-05
5.5554e-05
-7.25659e-05
4.10351e-05
-0.000162142
0.000202845
-0.000455496
-0.000139455
-0.000129821
9.61653e-05
-3.65937e-05
-0.000350545
0.000394264
0.000120761
0.000192471
-5.51002e-05
0.000100415
0.000100631
-5.31895e-05
4.56052e-05
0.000280146
-5.59643e-06
-4.66159e-05
0.000843906
-0.000107847
0.000447618
-0.000791875
3.5387e-05
7.37797e-05
-0.000489209
0.000460477
-0.000404043
2.16696e-05
0.000509035
-0.000249471
0.000287761
4.94627e-06
-0.000998772
0.000183188
-9.49888e-06
-0.000261953
0.000234768
-0.000108626
-2.78034e-05
0.000662646
-2.07267e-05
4.55382e-05
-3.28594e-05
5.88062e-05
9.54876e-05
-9.42408e-05
0.000101524
-9.29681e-05
4.87606e-05
-2.10431e-05
0.000313449
-3.80896e-05
0.000706375
0.000271433
-0.000802599
6.26197e-05
9.1158e-05
-7.51852e-05
-0.000736289
-0.000100509
-0.000113659
-0.000235112
0.000175028
0.000141609
-0.000103952
0.000298073
4.55718e-05
3.92903e-06
1.16342e-05
-4.92076e-05
1.92449e-05
2.93478e-05
-0.000566238
-8.82344e-05
5.02781e-05
-7.28196e-05
0.000811723
0.00101494
0.000100397
0.000803058
-0.00012833
3.4639e-05
-5.38675e-06
4.17266e-06
1.21409e-06
-0.000173056
0.00018693
-0.000701202
0.00065307
0.000630494
9.13122e-05
-0.000114346
-0.000412074
-4.14364e-05
0.000328854
1.37419e-05
0.000142007
-0.00124632
-0.00069578
0.000915775
-0.000417823
0.000487018
1.83303e-05
-0.000688018
-0.000421911
0.00023406
-0.000208791
-0.000458389
-0.000411045
0.000101154
-2.60969e-06
3.44152e-05
7.09418e-05
-6.997e-05
-0.000401018
0.000155014
-0.000317394
6.62823e-05
-6.12669e-05
1.5635e-05
0.000214798
3.276e-05
3.05731e-06
1.51641e-05
6.02136e-05
-0.000271005
3.53739e-05
9.83643e-05
-0.000667449
-0.000229012
0.000628924
6.09378e-05
0.000730572
-1.28088e-05
-0.000268143
0.000660151
-0.000618588
-3.6456e-06
2.88729e-05
-0.000239201
0.000126721
-0.00113112
9.42087e-05
-7.6339e-05
-0.000721764
0.000179059
0.000619044
-4.75051e-05
0.000895065
-0.000224988
0.000175971
0.000237262
-0.00052605
0.000140851
-0.000581699
0.00052475
-3.2248e-05
-0.000218057
-0.000297061
0.000411192
-4.3903e-05
-0.000470879
6.29693e-05
0.000612971
1.34057e-05
-1.73942e-05
-6.65367e-05
-4.30464e-05
3.1143e-05
0.000265391
0.000525015
-7.73965e-05
-0.000679907
-0.000111969
4.0733e-05
0.000320809
-0.000103237
0.000366878
0.000426944
3.68577e-05
-0.000145521
-0.000449753
0.000313806
8.3855e-05
0.000162648
9.54947e-05
-0.000352844
-1.06899e-06
-5.47226e-06
1.11766e-05
-2.80572e-05
0.000453285
-0.00060138
-8.09178e-05
0.000341658
2.68479e-05
-6.97448e-05
-0.000625951
-4.11044e-05
0.00061955
-2.45256e-05
0.00021207
-0.000895514
0.00102987
-6.21806e-05
0.000117188
2.15778e-05
-5.77803e-05
0.000157201
-0.000175838
-5.05486e-05
0.000219676
2.66583e-05
-1.48256e-06
6.66787e-05
2.36984e-05
-0.000268442
0.0001759
-0.000157371
0.000249912
-0.000193855
9.49801e-05
1.61259e-05
4.34879e-05
-0.000399317
-0.000413642
-0.000457386
0.000602586
-0.000180948
-0.000265712
-7.06629e-05
0.00066234
3.44984e-05
-0.000626175
-0.000128914
-0.000160215
0.000153017
0.000136113
3.31176e-05
6.63243e-06
-3.78958e-05
-0.000640996
0.000610321
-0.000195475
-0.000402637
0.000465092
-0.000580731
-0.000527864
0.000384465
0.000131663
-6.65042e-05
-0.000365414
0.000156422
-0.000175146
2.21145e-05
-2.04033e-05
0.00077198
-4.64544e-05
-0.000706254
-0.000619443
-0.000329107
0.000807681
6.95765e-05
-0.000513512
-3.4607e-05
8.51599e-05
-0.000346177
-0.000324603
0.000541111
-0.000363147
0.000271662
0.000777125
-0.000664364
-0.00011276
-0.000467263
0.000481464
-1.42009e-05
-0.000429164
0.000393842
-0.000373964
-1.98782e-05
0.000887176
0.000467162
-0.000365086
0.000366998
-1.91152e-06
0.000412996
4.79099e-05
0.00042108
-5.40826e-05
-0.000605624
0.00099638
0.000470235
0.000584627
-0.00055571
-2.89166e-05
0.00048271
0.000441575
0.000421106
2.04691e-05
0.000478736
3.97359e-06
0.00041271
8.39556e-06
0.000429398
-1.66875e-05
0.000449022
-1.35669e-05
0.000906695
0.000389688
-2.00044e-05
5.56607e-05
1.75689e-05
-0.000164803
3.78845e-05
-1.0314e-05
-9.60689e-05
0.000834085
-0.000131448
-5.43488e-05
0.000147737
0.000511697
2.41146e-06
0.000657491
8.32618e-05
0.000116953
-0.000122773
0.000279968
-7.14492e-06
5.11319e-05
6.77854e-05
0.000649103
-0.00065108
-2.78691e-05
0.000409557
0.000296251
-9.6772e-05
-8.21144e-06
1.4891e-05
-9.39452e-05
-7.27615e-05
-0.000224544
0.00045208
0.000872127
-0.000352604
0.000157743
-6.45176e-05
-7.00146e-06
-5.26123e-05
-0.000119748
0.000862318
-0.00112463
9.48405e-05
0.000261951
-0.000130697
0.00086572
9.72201e-06
0.000257212
-0.00113265
-4.14494e-05
-7.88307e-05
-1.69787e-05
-4.10196e-05
-4.84776e-06
3.21132e-05
0.000301915
-0.000503711
2.70583e-05
-0.000129
6.36958e-05
1.73805e-05
0.000171769
9.35836e-05
-0.000206371
0.000152555
-0.000124478
-8.90716e-05
4.72854e-05
8.67351e-05
-0.000475247
-9.53863e-05
0.000431887
-0.000374589
0.000403082
-0.000313109
-0.000108401
-0.000208429
-1.68896e-05
1.93553e-05
0.000141588
-6.99801e-05
-3.14592e-06
-0.000429749
0.000430146
9.49797e-05
-0.000125496
-4.22955e-05
-1.42347e-05
6.02331e-06
0.000272161
-0.000667041
-5.80782e-06
-0.000536573
0.000107366
0.000277609
-0.000393818
-4.30129e-05
-6.92597e-05
9.53667e-05
0.000172409
-0.000257991
-8.7567e-05
-0.000592594
2.51104e-05
-0.000154437
0.000699607
7.81892e-06
3.20745e-05
-0.000172654
0.000691145
-0.000297537
0.000172752
3.21033e-05
7.052e-05
-3.13354e-05
0.00013932
-2.66408e-05
-0.000244551
7.98828e-06
-0.00011669
0.000137076
-3.21835e-05
-1.93802e-05
-0.000310034
9.49006e-05
-9.39483e-05
8.46096e-05
-0.000599872
-7.98537e-05
0.000205691
4.76045e-05
0.000120466
-0.000248917
-0.000205061
0.00075326
3.28701e-05
7.0175e-05
0.000149411
-1.28042e-05
-3.4409e-05
-0.000163609
0.000397549
-0.000414775
-0.000151172
0.000463885
-0.000172747
5.47485e-05
0.00012588
-8.54623e-05
-0.000168275
0.000467277
-0.000498852
0.000205033
-0.00125519