/*--------------------------------*- C++ -*----------------------------------*\
| =========                 |                                                 |
| \\      /  F ield         | OpenFOAM: The Open Source CFD Toolbox           |
|  \\    /   O peration     | Version:  v1912                                 |
|   \\  /    A nd           | Website:  www.openfoam.com                      |
|    \\/     M anipulation  |                                                 |
\*---------------------------------------------------------------------------*/
FoamFile
{
    version     2.0;
    format      ascii;
    class       volScalarField;
    location    "0.07";
    object      p;
}
// * * * * * * * * * * * * * * * * * * * * * * * * * * * * * * * * * * * * * //

dimensions      [0 2 -2 0 0 0 0];


internalField   nonuniform List<scalar> 
1431
(
88.9668
46.5785
82.5804
78.2852
90.7003
92.1449
92.742
80.8578
91.2603
92.6628
84.4899
93.0142
76.8813
91.9467
71.2568
80.1978
77.0951
89.2621
92.4029
84.9622
90.8604
92.8856
91.8378
92.8436
67.607
85.2729
57.4872
90.9466
78.6153
93.3501
101.288
114.07
85.4864
91.4547
92.494
84.5377
87.0435
79.0933
91.5153
79.7504
96.3177
72.2633
89.2781
90.9033
81.5343
88.4513
83.9758
111.367
103.643
82.8144
92.8009
92.3621
89.7224
90.2207
91.3725
103.304
91.6474
89.2788
65.7321
90.8318
74.9451
88.8561
84.3726
82.0822
86.1474
90.5964
84.8998
92.2554
92.8628
82.491
90.3133
91.7407
83.3547
91.9742
79.1304
85.5695
90.1649
80.9102
82.0057
61.5923
82.0868
92.0852
80.9583
74.1602
63.5124
90.6815
90.2825
78.4045
93.6291
86.3689
85.6804
78.6317
90.6645
78.1043
91.3906
90.3418
78.2225
85.7496
89.4546
101.15
92.8703
78.2135
87.7339
90.5727
80.8109
75.7378
81.7719
102.859
106.956
90.4589
58.2901
90.5794
81.5407
88.9962
80.4137
90.6942
88.729
59.8746
94.2624
81.9334
74.5424
89.5837
92.2778
95.4256
82.2463
70.6048
94.7526
78.5754
89.3704
82.4792
90.1407
106.772
88.9126
88.1601
90.9097
78.5999
84.4
91.3218
87.2113
105.927
93.6709
91.0938
81.1385
105.045
107.42
80.4338
84.3716
104.967
85.6806
100.373
82.9542
87.6141
61.3962
75.4693
89.6303
77.007
82.202
89.038
82.9947
96.2652
90.1967
85.2033
87.7921
79.1126
90.3079
55.9929
90.2636
76.4703
93.1601
87.9482
94.7159
79.0955
97.8897
83.0537
81.6102
90.2096
76.9314
85.1056
93.7525
92.3607
83.2785
65.9028
94.6149
87.6158
81.7848
95.3478
79.3937
70.5401
85.6086
82.2783
93.5315
71.067
90.3382
81.6286
89.3836
72.5959
81.7406
108.979
87.7863
86.2873
83.9288
104.314
99.2036
95.5135
81.7644
58.4336
90.6449
83.4483
81.631
86.8011
81.705
82.2931
95.3302
83.1797
91.1972
88.683
85.1872
93.1725
61.1849
82.7776
82.7042
56.5967
81.4666
83.4429
83.4598
79.1854
96.7575
88.485
90.6305
103.199
90.8071
79.1636
82.2868
77.5463
80.0582
81.5942
83.9699
88.803
82.268
70.7963
84.8372
97.8889
92.5593
75.9957
76.8474
77.5204
81.9172
92.5019
91.5259
94.0064
91.4523
91.8766
92.7712
108.591
83.9209
82.8872
92.5542
66.5765
80.4879
81.7687
82.9463
78.3313
89.87
93.5465
80.7521
89.3838
69.9754
78.8985
96.8031
93.1705
80.7211
100.524
89.9279
88.4713
82.6961
75.4337
87.2263
92.9666
92.2663
92.6999
90.8903
73.2355
61.0297
87.8257
74.3846
73.9318
90.7197
91.0319
92.9844
83.8955
80.4588
81.2424
90.7785
93.5721
92.9865
87.0278
90.0682
93.3193
62.2507
94.3258
83.5494
97.9626
75.781
108.74
89.622
56.7921
82.5497
82.382
81.1381
92.0151
83.9543
81.9602
70.1192
90.3886
77.2302
53.1391
93.0418
75.3751
79.1025
92.1607
63.9275
91.9574
93.7669
74.2521
93.5739
92.244
81.8551
92.4189
96.2513
83.4512
69.3653
70.7335
71.0518
93.7631
81.7351
92.9527
93.4147
92.1488
92.9311
76.119
84.3998
82.1892
92.5255
77.1808
97.9132
74.8378
83.5361
76.1888
91.3239
91.8372
76.0432
91.6759
92.5533
90.8989
75.4015
76.16
91.9762
76.1392
89.8856
66.8983
93.0004
74.8085
91.3157
90.8616
91.5201
76.1148
92.1301
72.8068
68.7163
72.2781
47.1593
69.0806
91.9356
94.2816
93.3386
60.3172
65.581
82.8048
82.1593
89.3846
91.2827
76.0577
91.6844
92.274
74.0543
91.7225
71.0386
76.0843
90.4677
91.1103
76.2541
78.7654
96.1404
82.7707
92.0747
90.9529
92.1802
83.3674
93.6142
82.0476
64.6774
66.5531
83.1594
92.517
69.3911
75.0615
75.3578
108.472
91.9102
69.0642
79.4382
61.6285
92.2642
84.207
106.528
114.933
56.8043
92.9705
75.3103
92.1121
75.3208
94.1669
93.0693
70.0554
94.2051
53.9577
65.7015
91.4464
82.9434
56.1324
81.2211
74.462
61.3229
92.8395
74.1863
50.8214
94.0842
91.9912
76.0284
91.2345
92.2455
94.0211
92.6268
91.9356
81.7028
93.838
93.6524
82.5014
92.6545
93.0141
93.2456
93.1118
93.6566
92.9471
94.0621
92.8732
92.9361
93.2071
92.9047
74.582
77.501
93.1866
90.9164
90.5393
74.8775
75.3062
91.824
78.7376
89.4474
75.0704
81.651
91.0408
108.09
104.949
88.4923
75.44
79.9649
80.3177
74.9978
94.1043
94.1044
91.384
96.5469
76.4417
107.808
90.3315
89.6034
93.4085
93.4739
91.2068
88.0944
93.5857
75.6483
81.2672
93.8625
91.7113
88.9881
91.3586
83.5521
89.293
88.3693
86.2119
89.9471
63.3461
61.7012
90.9255
75.6885
93.2468
93.5093
93.505
93.5201
87.9782
83.4307
64.5345
82.4669
93.1686
78.8287
87.2465
93.8943
75.545
92.4503
82.788
92.0069
91.84
91.6775
93.9438
63.4938
93.5089
87.3098
90.6675
107.928
109.278
81.1133
90.2444
93.3913
93.8485
87.8976
88.2899
93.7797
92.5005
70.4291
74.7332
61.4504
91.3059
90.9858
93.3581
90.1787
81.0899
93.3087
75.865
86.0257
89.5525
78.8448
93.7276
72.2212
68.1109
85.7876
62.0797
76.9268
88.0009
93.6078
72.7824
86.7639
78.4338
85.4725
92.1185
93.9302
89.9938
76.8291
69.3247
76.3195
93.5044
84.4085
93.4664
78.6814
88.6963
94.0495
93.4148
66.9951
90.787
92.0348
81.2864
64.7163
55.8277
76.3815
84.4197
63.9986
77.6561
92.4366
88.0566
91.1082
88.4142
81.3507
80.5847
84.1443
78.3621
91.1119
92.5319
88.1924
72.6115
63.9412
59.7824
75.8283
87.5638
87.4495
93.5357
84.3413
75.5713
93.443
74.7016
86.6567
93.804
92.1306
92.2735
80.0668
86.4858
89.5521
93.3504
90.072
93.4949
75.8628
75.9387
88.4485
70.4614
92.9712
114
75.2964
90.677
93.8965
81.3429
93.4938
89.2287
88.0684
81.4995
70.2338
93.6043
75.5576
92.7259
80.094
88.4927
83.4976
93.2364
81.6872
93.7851
93.1341
84.4995
77.4163
90.9642
92.7056
89.4584
92.5268
64.6211
88.4882
73.5806
92.023
93.7903
82.2321
83.0613
93.0963
93.7617
62.4713
89.2123
87.0826
85.997
83.0079
72.8976
80.2063
93.2092
93.6523
72.9394
89.9931
82.3282
87.3641
66.853
107.466
104.511
87.8919
90.4722
72.4252
85.1566
65.8945
89.8756
78.6427
91.9869
93.4984
65.0418
94.2805
79.476
66.9036
92.1283
105.152
69.8267
77.8107
88.5055
93.9438
74.1957
90.6012
76.2727
82.5803
94.9628
83.5613
73.496
88.4972
72.313
90.5741
115.131
76.5997
93.6403
78.828
95.2525
93.2887
91.3706
75.91
93.0705
91.4717
83.7096
51.9765
90.5754
97.6506
88.0501
83.6183
84.2483
80.4731
85.036
75.1644
84.0584
92.8901
92.8664
94.9537
93.5372
92.0946
87.7418
94.6681
94.2866
84.2191
86.6353
88.0266
93.1456
93.7754
87.444
73.568
93.0626
110.622
86.7633
88.2001
84.3436
90.6464
91.8143
95.1984
72.1487
92.9104
92.2484
93.8245
92.6377
86.496
89.5144
83.1827
82.69
82.9954
95.1021
91.6441
92.0075
104.934
98.6672
80.6127
91.0395
75.6169
102.689
87.3686
93.2802
93.1866
83.613
91.082
76.0751
59.3673
89.7989
89.1184
77.8165
93.3319
69.4375
78.8538
90.6179
91.8983
93.5777
92.1803
85.9008
91.3342
76.0074
90.5758
95.2319
86.6825
84.7627
96.9711
122.081
82.4929
83.268
90.6984
75.9053
82.3883
79.2361
93.916
77.6331
100.112
74.3742
90.4513
75.0517
89.706
90.7057
89.3352
89.9068
83.2132
79.8895
90.9586
89.1641
67.6517
84.3085
84.3046
82.0803
81.0281
81.1247
84.4413
82.5911
91.0279
61.3386
75.9441
83.606
81.3062
81.8487
74.4602
89.5301
92.796
91.5125
75.9677
90.0578
76.5029
66.4201
93.6888
79.8582
58.9759
93.924
83.1618
104.123
84.8497
80.9394
87.6265
102.254
75.772
50.1629
59.7792
81.3933
57.4055
49.878
59.9484
91.9687
110.32
89.3563
92.1112
89.5964
83.2043
81.7694
81.0655
87.1554
74.1793
91.3502
75.7
89.6745
77.172
98.9307
90.0858
75.86
106.423
94.9741
85.8323
47.5539
91.6278
98.4449
88.7859
90.4624
92.929
82.0049
88.9148
75.0692
90.1026
91.9548
82.4561
89.1982
88.8973
79.9256
78.7731
107.79
84.395
85.9423
91.3137
82.6738
87.6036
79.4522
91.5146
75.8744
93.659
74.8582
92.9375
92.6682
92.9868
93.1939
98.3118
104.191
84.9929
87.9954
91.7161
92.2845
86.2292
80.7225
89.616
92.1238
92.7949
59.0335
69.8681
82.3114
78.168
74.6737
93.7542
82.1362
88.6158
81.4597
80.9436
83.9466
75.6896
82.7851
93.1006
95.0377
90.3532
98.6637
86.8122
82.9351
84.4963
83.868
81.8695
84.8598
85.1366
60.5599
90.5746
76.6217
82.2847
85.468
89.4273
89.6737
57.9559
90.1808
91.4041
88.2726
93.3154
90.8596
81.0481
93.5093
88.1561
75.9949
85.9194
90.6499
93.7789
90.0874
92.3819
93.3176
74.5748
91.7428
56.899
88.1098
86.5286
85.1415
90.7106
69.8299
93.7182
92.6704
55.3223
55.4173
93.2322
92.7788
81.7529
87.6755
87.1478
91.2715
48.2451
86.8318
93.7433
90.4861
93.2241
73.1032
91.2129
81.5555
89.1403
85.6666
90.8461
82.2956
93.9776
46.5319
83.7863
75.9768
89.0257
90.4441
62.2124
90.4922
93.5539
90.0535
83.3873
88.0643
90.2195
81.8532
91.763
72.3229
81.8782
86.1309
92.9638
92.9297
81.2209
87.0476
100.232
87.9084
86.6724
93.5398
91.0245
93.4669
54.6928
92.9553
73.4548
84.2501
88.3267
75.5969
71.367
92.2953
80.1845
97.988
93.3365
92.8862
57.2171
75.5352
71.5597
93.4617
79.918
83.1282
93.8156
91.639
81.8416
90.7551
90.4058
75.9962
93.9235
74.6026
84.416
93.3781
95.1826
73.2039
75.1303
81.5934
93.3787
66.0865
90.54
91.6906
87.4563
87.1544
94.257
108.304
94.1857
83.377
80.303
69.828
111.652
86.2963
79.7874
82.4541
82.8528
93.4931
88.3712
79.1689
82.3582
92.0405
81.8082
93.0823
90.9172
83.1031
84.0255
84.0646
90.8758
94.4127
92.9688
92.0178
109.149
90.8036
83.9352
102.331
83.2062
83.46
92.0297
87.3398
93.0895
110.202
80.0334
89.2081
76.1882
84.1084
89.0183
88.8151
71.6642
89.8511
79.0756
65.6397
90.2564
82.71
58.6321
90.1458
75.3679
88.7868
68.6888
81.4731
94.1235
105.036
91.717
107.047
51.282
66.8095
102.675
103.629
64.7716
92.3551
83.7508
90.1775
65.1519
89.1104
92.7612
92.2816
89.4898
90.8
83.9312
92.1978
88.6201
90.5856
76.6531
87.5463
72.3563
68.2324
63.2023
91.3237
76.0577
89.4119
91.4956
92.9337
87.0264
79.5697
66.2035
91.1942
65.9568
82.4419
77.7939
90.7856
76.1432
79.3063
75.7717
91.7537
90.2182
89.6622
95.1219
83.1995
70.6217
90.435
91.7562
75.9078
93.2834
98.6269
106.187
91.0922
76.1412
89.3775
83.5827
90.9119
87.6159
80.1256
80.8662
81.883
107.596
92.0888
76.4014
93.2255
96.0126
78.4836
102.057
89.681
92.6089
78.2423
81.2792
88.5272
84.157
91.577
75.5681
89.9929
85.3112
90.0496
85.8412
93.2996
69.2165
92.8265
79.8124
82.9701
75.11
92.5728
90.4465
92.8153
85.0175
85.4644
79.8179
73.3551
93.494
83.633
83.2989
92.9968
93.3961
85.8817
92.5779
92.0575
83.5249
75.4462
75.8364
61.2152
91.9717
93.4289
81.2939
91.2694
81.2839
105.248
83.1745
107.289
81.1996
82.6977
84.1937
71.6361
90.6472
63.3239
90.3107
93.628
65.4541
90.906
72.5521
88.0718
91.0618
71.5266
90.4359
88.5999
90.7221
92.8335
89.6919
77.2832
71.3073
109.143
90.1317
78.8265
80.6588
90.6706
71.7111
93.6033
69.2967
77.6041
93.5102
90.0591
71.6178
64.5078
86.7736
93.4301
82.1223
81.7407
59.7299
87.2418
75.9653
88.1452
48.3029
92.7567
91.8975
82.572
83.5885
80.7438
71.0631
86.6624
82.7566
87.7628
80.8531
66.6825
114.24
118.345
58.3134
70.0772
93.4209
92.4784
92.8417
90.9979
88.1565
91.9648
94.3354
72.9106
88.2556
82.4515
90.157
78.3078
73.8802
88.7639
93.252
81.9524
67.6208
92.3372
92.9756
93.3482
92.8825
82.3713
54.8993
93.1733
82.3926
85.8615
89.7424
92.375
49.7096
90.5088
53.3313
91.5554
88.7888
92.5342
89.6347
89.6302
67.6598
93.0629
67.0753
82.4958
74.5963
78.8202
92.8111
86.3816
68.5481
52.2462
88.8317
72.2602
83.09
76.2817
61.2437
80.9854
79.8771
90.5178
110.536
60.8825
93.1184
71.8388
90.5952
75.3217
94.075
80.0759
91.4629
75.5406
75.9028
80.7088
94.3203
55.0482
91.9928
73.5555
89.4531
83.3896
86.5678
58.0235
90.9708
69.2189
108.353
74.3266
78.9622
92.7222
85.9227
84.9329
71.026
85.855
84.3741
87.4796
80.3059
94.0553
49.465
86.9638
65.165
71.2419
115.488
93.1389
82.2871
98.5827
73.7344
100.506
80.2474
86.6542
68.8203
82.603
65.1442
90.7474
79.6399
87.8414
71.0976
92.1934
93.4679
71.6887
82.7101
69.7529
88.4819
80.9596
87.991
84.2607
82.7364
85.5348
92.7895
88.3075
80.6724
82.4708
82.8809
80.7825
64.0429
92.7115
92.3186
92.9139
83.1238
107.805
91.6332
93.0065
91.9985
92.8289
63.2249
82.3465
84.0339
86.0495
119.922
89.8329
90.2373
93.6697
91.7739
92.5413
94.3199
)
;

boundaryField
{
    frontAndBack
    {
        type            empty;
    }
    wallOuter
    {
        type            zeroGradient;
    }
    inlet
    {
        type            zeroGradient;
    }
    outlet
    {
        type            fixedValue;
        value           nonuniform 0();
    }
    wallInner
    {
        type            zeroGradient;
    }
    procBoundary0to1
    {
        type            processor;
        value           nonuniform List<scalar> 
29
(
93.161
92.9744
91.8527
91.8527
85.6452
85.6452
107.676
92.457
86.8778
92.0501
92.3001
87.2883
92.3026
93.0943
107.6
107.744
85.3251
84.5528
91.894
92.741
107.588
107.623
87.1059
108.021
108.259
84.5528
108.063
107.836
108.021
)
;
    }
    procBoundary0to2
    {
        type            processor;
        value           nonuniform List<scalar> 
42
(
92.8775
92.8879
90.4437
90.6655
92.2731
92.8775
90.4437
89.5865
92.2839
92.0786
92.234
92.5393
92.234
92.5922
92.7069
92.9662
92.7069
91.9524
92.1892
91.9999
91.9999
91.9524
91.7786
90.8089
90.8089
91.61
91.9733
91.4348
92.6096
92.8602
92.8602
91.1878
90.7666
90.0472
89.0911
90.4437
92.8445
90.9419
92.6096
89.5865
88.6534
88.5133
)
;
    }
}


// ************************************************************************* //
