/*--------------------------------*- C++ -*----------------------------------*\
| =========                 |                                                 |
| \\      /  F ield         | OpenFOAM: The Open Source CFD Toolbox           |
|  \\    /   O peration     | Version:  v1912                                 |
|   \\  /    A nd           | Website:  www.openfoam.com                      |
|    \\/     M anipulation  |                                                 |
\*---------------------------------------------------------------------------*/
FoamFile
{
    version     2.0;
    format      ascii;
    class       volScalarField;
    location    "0.63";
    object      p;
}
// * * * * * * * * * * * * * * * * * * * * * * * * * * * * * * * * * * * * * //

dimensions      [0 2 -2 0 0 0 0];


internalField   nonuniform List<scalar> 
1431
(
98.8389
94.7438
96.8825
95.5296
92.2851
94.7908
97.7328
35.428
98.7373
97.7011
45.29
41.3533
100.419
88.0349
93.7549
97.6968
89.2352
98.6317
91.1805
96.9889
40.7718
87.6574
99.2666
21.1259
98.4383
100.54
51.0282
94.2107
98.5296
88.4318
91.0805
99.1003
91.294
89.1467
96.2872
97.5123
97.0643
100.206
97.738
98.2052
97.2244
97.1921
100.45
97.7097
91.904
96.963
90.0695
55.1485
97.7156
99.8997
96.4402
97.7533
97.0741
50.2119
95.2114
97.8045
95.3618
45.1007
88.6876
94.9944
95.4569
97.6249
99.7759
100.072
97.7097
97.7768
93.4119
99.5111
99.3221
89.8718
43.8241
88.8207
96.2942
89.2242
88.1197
96.1445
95.669
99.7875
97.7401
98.2463
88.8787
97.4198
90.4887
90.8353
40.5765
94.9795
94.7785
94.6007
50.9304
72.4464
96.1369
95.0971
100.313
97.7247
95.6264
91.4478
41.457
90.0504
97.6884
97.5739
97.7654
97.6995
88.4212
96.5637
99.9056
89.7227
99.4896
53.9555
96.9383
87.8755
96.0043
100.206
97.1002
97.0127
95.2643
93.4813
88.4034
95.8762
95.1216
99.9125
91.6051
94.1682
51.6094
88.6448
40.4884
97.6798
96.5821
91.9287
96.6575
94.8329
89.8978
98.2584
94.679
90.7445
97.9089
99.4109
99.9908
97.6386
47.7276
100.326
97.7287
90.5761
88.6467
97.4327
102
91.2915
99.4288
97.7581
97.7085
96.7955
99.5504
98.9502
98.4643
94.8409
98.7364
100.228
48.1353
92.9001
82.6237
94.7011
64.5196
100.242
95.6531
94.8329
52.1648
97.7717
96.7677
95.7976
99.9938
93.6212
63.6294
97.8125
95.874
49.3371
94.3985
47.0199
94.6267
93.5275
97.0191
96.1557
97.7397
97.7506
94.7422
24.7802
94.3757
99.2324
48.3517
93.4718
94.9371
49.2622
91.1967
96.66
98.286
56.7297
95.3784
90.1008
88.5309
93.7584
99.0295
96.8893
94.6097
95.4524
67.6007
94.7105
100.073
90.9966
99.0546
99.0908
50.1029
96.6914
35.2697
95.8362
99.289
89.8808
42.8578
97.6413
98.5484
92.5457
95.1498
72.5937
98.7306
94.8145
97.0553
95.0789
98.7538
46.5872
68.649
92.2007
98.6239
70.19
33.862
91.0852
90.9621
97.9507
99.022
74.5872
99.2097
92.1517
91.7375
94.6328
94.5345
94.1393
48.9878
92.8337
95.9706
90.7066
93.8371
60.8642
98.8993
100.107
91.9292
49.1993
94.8024
96.1512
91.0934
97.9044
94.92
42.1265
82.2688
98.3744
98.9854
49.6422
94.8297
94.6387
98.7714
77.3218
98.889
58.1233
60.4394
94.5606
97.9056
99.0229
94.8684
94.5648
57.9997
95.1242
52.922
87.4816
90.8038
99.3403
97.708
98.575
91.3739
96.927
94.8682
88.5888
97.642
86.7595
46.452
94.2866
99.1082
99.0008
90.7619
97.9403
74.2321
98.3501
46.9965
99.7589
97.7128
89.8512
97.4261
100.055
94.7964
99.8661
93.2216
95.0558
94.0203
97.611
97.4583
94.6069
86.4587
97.5451
97.5261
56.0051
98.549
89.0732
94.5231
95.0499
98.1039
33.1577
93.5524
90.3206
97.476
97.8006
95.7343
96.9838
97.5029
98.0589
55.9139
95.9055
87.0844
98.8995
98.514
87.8029
94.567
100.179
98.294
79.9318
95.4715
54.0247
99.9949
100.244
80.8756
96.77
98.1035
92.3313
94.6864
50.958
86.5916
98.4064
93.2826
97.4376
97.7867
92.1658
96.2057
95.484
38.9749
35.2684
48.1518
97.2835
87.6353
99.0952
87.6316
94.6667
98.6492
40.6989
98.318
11.9661
98.242
89.0329
55.9184
91.2082
55.7581
94.516
97.513
51.0502
92.354
94.9859
97.175
47.671
99.9806
94.8637
94.3466
96.7701
12.8297
98.1126
95.8526
97.99
94.4316
94.7724
94.5366
96.4609
96.6687
95.216
76.9226
98.0302
99.6467
100.066
97.7942
96.1955
90.2229
97.4925
84.8196
98.0622
97.7868
99.2285
95.4568
94.1157
94.7262
98.8275
90.1244
95.5334
98.4624
99.698
97.9544
97.5442
92.8037
94.1193
94.9947
98.161
97.8952
100.269
96.5037
92.3298
97.9125
91.3224
96.1467
91.9577
97.0713
31.133
97.8711
97.5024
97.8312
96.8377
97.7619
98.5545
98.1198
99.1845
99.097
99.317
93.6852
45.2117
96.3277
97.6307
97.4967
97.6096
97.7383
98.123
90.4397
88.4986
89.0721
99.7261
97.6758
92.7443
97.5995
97.7007
87.9179
51.8924
93.0433
93.3534
87.9456
99.7341
51.3903
97.6867
92.6069
99.6121
93.7772
50.6089
99.5606
46.9841
97.7147
97.7269
96.1853
87.7479
46.5672
46.4016
99.2554
100.009
97.5068
97.727
87.8692
97.496
45.6836
97.6579
97.3901
88.0084
97.1298
97.3686
96.1838
100.171
43.9297
97.6996
96.6917
100.368
89.0385
96.7315
96.9172
41.7734
97.7305
95.5097
98.7384
100.594
95.5284
99.141
42.046
47.4219
96.8653
97.6674
97.7737
93.6733
100.493
91.3981
95.741
96.8883
98.6372
96.1689
98.1921
100.451
91.0173
45.1638
90.449
97.7293
94.7507
95.4125
100.548
95.0563
40.8735
97.8066
93.3424
94.0363
94.6201
97.7246
100.681
93.0993
99.6332
97.0153
94.3309
94.1422
100.331
92.0018
99.2445
99.8018
96.424
97.741
95.8344
94.5991
94.7072
82.837
99.5157
99.0169
94.8289
99.52
97.3218
97.2736
99.8007
92.0743
94.9119
99.1819
88.3296
54.1656
98.9517
44.7371
85.773
98.1722
39.0562
97.4874
94.8711
94.9453
98.9334
98.5945
98.015
72.7818
99.3512
97.5324
97.055
92.5176
95.4086
97.3297
98.7356
97.1014
98.2042
79.139
91.5897
91.8067
90.8067
99.2259
91.7968
97.4504
96.5035
93.8966
98.7967
94.2546
96.9252
95.1645
98.7506
99.9514
89.6509
95.3971
92.0974
49.9823
72.9395
100.366
97.7031
97.658
86.5713
95.1504
21.0131
87.3702
94.6784
98.2015
95.2179
98.5378
97.1463
99.2157
97.4939
97.4939
44.1544
94.6214
97.5243
95.8965
95.0913
94.1559
97.285
96.9582
98.7761
88.6661
99.7256
92.489
83.7438
94.9822
99.4408
97.9134
97.7274
99.5553
97.9449
90.7301
37.2996
94.5582
96.4668
94.4365
97.2273
84.6746
94.4873
97.2071
95.1601
99.2638
89.5914
95.1315
35.0875
93.3457
98.4659
97.4337
96.4867
88.8665
98.3706
95.7784
98.935
84.1182
96.9767
56.2869
70.7685
99.6624
100.473
98.0805
99.5849
93.9078
96.7008
97.052
97.5189
97.5806
97.7886
95.7799
39.8953
99.7009
97.9394
90.1253
34.8126
87.6404
93.0955
94.5646
94.6678
95.9868
93.3532
43.5397
99.6994
94.0325
99.1969
97.0568
94.3591
97.1364
94.7926
96.6516
96.6347
96.6967
95.7714
98.333
94.8312
91.3792
95.404
80.8056
97.1992
92.897
98.5442
96.218
96.9248
28.0096
95.861
96.3497
94.4107
97.706
97.7418
94.7059
90.8604
98.3743
97.1411
98.0315
99.3477
96.2417
94.4974
96.95
96.6386
90.7279
47.9993
98.4993
100.034
96.6037
94.0419
100.207
55.9349
55.0961
99.9849
93.4241
97.1103
94.4549
95.2914
97.1853
97.3547
92.5202
45.0996
94.7828
96.0924
97.7955
94.4716
93.3319
98.1802
96.5722
87.7153
94.9141
96.8034
97.6802
100.006
94.7539
95.3791
97.6932
10.5303
95.6724
98.1594
98.1952
96.1654
93.5186
35.3404
94.5673
98.8267
97.5991
93.5402
99.5853
97.7063
97.706
98.0545
94.82
99.9824
90.5601
94.4673
97.7507
97.3672
95.8528
94.8946
97.5174
99.2311
96.0799
93.3851
100.001
98.1821
99.4856
97.4406
48.5978
94.5133
95.7423
96.3895
95.1471
94.0049
96.0259
99.02
99.2089
97.7734
95.1137
94.7828
92.132
95.0943
99.7261
98.3342
87.6747
94.2974
97.6005
98.5821
18.3788
97.6285
97.4506
97.4208
94.2883
54.0785
94.7476
94.6036
45.8487
98.5625
52.4805
98.4206
92.3259
98.3358
97.3512
98.6818
91.0485
97.9384
99.9172
97.5071
96.3263
98.2728
90.4365
92.6253
97.7521
98.7347
89.3506
43.7733
97.1794
94.0057
51.6414
91.3943
97.3976
99.0522
97.3664
98.9523
100.375
100.145
98.0193
97.3859
69.1147
100.059
54.0842
97.7931
78.8273
98.0061
90.1149
100.122
94.7119
93.7507
99.6144
94.9417
101.091
96.139
99.8924
94.6296
93.5797
98.5434
94.8696
99.9862
98.7385
99.6672
97.6851
50.8247
97.9159
99.5972
53.1131
99.1402
94.9984
88.2704
93.9798
97.7289
98.1101
98.1057
96.2153
44.5396
94.7878
96.7934
35.6622
58.2835
47.2838
34.6246
63.098
98.8199
98.4849
97.9626
98.1815
56.5023
99.1672
92.9227
95.6175
94.3719
91.7619
68.9292
49.1662
91.1417
78.6665
73.8762
91.3378
99.2434
99.0075
91.8258
98.7114
98.5068
91.9034
98.3613
99.4448
78.4315
99.7904
97.2168
96.7258
87.8886
89.6959
37.4452
98.2914
86.7428
87.6944
95.0771
97.2281
51.5788
89.5979
96.2138
78.6217
95.2035
99.5747
89.6645
94.7168
52.3956
94.3762
98.2935
95.8967
94.4242
94.6964
97.7986
48.2216
98.4663
88.1817
99.9472
97.6458
97.8604
98.905
57.2001
99.356
97.7432
94.7002
95.521
97.9989
98.551
89.6346
97.571
96.4447
100.3
88.7641
93.1368
100.198
97.3417
47.7311
100.049
96.6916
95.6168
96.3019
87.9597
94.5198
97.6669
90.8374
94.8062
97.1426
90.8975
41.1699
98.5124
88.2978
97.9791
97.8405
97.661
30.272
98.3505
97.2351
97.7502
38.0885
99.0075
84.7646
97.697
97.622
94.6698
90.6565
96.9661
97.542
90.9973
58.6731
37.9631
98.132
98.5254
95.7934
92.5274
88.5938
97.9163
91.2923
93.0952
98.3352
93.9171
97.2922
39.3543
98.0839
94.6535
99.6603
89.9444
99.1584
91.0409
97.4259
96.568
94.0139
95.2628
98.8154
95.8264
94.7072
28.5883
19.7457
97.7674
98.1172
86.4334
94.7438
99.3982
48.4037
90.0674
97.1684
91.3
72.1919
47.197
94.5093
89.535
98.6782
95.898
85.3679
49.0745
98.3344
94.3328
94.8517
52.5753
95.0372
98.2766
94.6479
8.32142
97.9799
38.5496
58.351
98.7377
97.244
97.3146
94.6747
100.459
95.1157
94.5823
95.2478
96.5044
98.4734
96.7163
97.4927
98.6669
65.7235
99.7852
95.1516
99.6487
52.9887
98.3375
51.9367
97.5397
100.13
54.1995
96.9397
70.7992
66.2068
61.7374
50.2883
50.363
49.6215
57.4124
50.7058
96.2507
95.3385
95.4747
96.0859
95.9132
95.7816
99.4751
89.9592
98.6509
93.035
98.4373
90.1023
95.6483
97.0346
99.8391
97.6839
97.465
97.7379
98.7207
96.145
94.7804
95.2449
92.8502
95.9352
96.9418
98.5982
96.8392
81.9725
94.7517
93.9511
48.3123
99.1211
97.493
95.3318
95.486
100.268
95.8084
35.4674
100.082
98.8863
96.0465
91.0914
94.932
90.8719
88.0794
93.034
96.2576
88.2962
97.6605
96.8443
94.7043
98.0172
100.133
89.1472
97.4566
17.9823
99.9107
44.2309
8.81755
95.1289
47.1673
89.0824
93.7557
95.1912
41.4079
94.9739
96.8091
100.109
74.6805
98.8744
90.3826
97.9344
91.0367
97.7143
98.587
97.853
97.7918
61.0602
37.4439
18.8114
91.4556
93.7402
94.442
99.4806
94.6929
97.5772
94.4865
88.5542
97.6278
46.9319
99.675
97.777
40.8695
96.7563
88.0802
99.4253
97.7542
99.0485
84.6261
66.0277
96.6847
99.8631
93.0533
99.4545
46.6012
98.3953
46.4913
97.7099
96.7539
89.5785
35.5569
86.979
97.502
98.909
98.7952
96.0722
53.0813
92.0264
94.7179
88.4778
88.3558
98.0212
98.991
95.6742
90.6129
95.8166
52.7487
88.787
100.093
100.391
88.2365
95.6307
97.8116
94.7925
93.0773
90.641
99.3915
45.6677
97.1937
100.425
96.393
94.0628
96.1666
88.9547
97.6463
97.2055
80.6959
94.9424
31.2221
98.4925
95.431
93.847
62.4113
93.7604
97.5486
96.8143
100.194
97.0452
98.604
98.9882
97.4042
100.961
89.7972
94.3972
89.1906
95.2674
95.6076
53.93
98.7721
56.6968
98.2406
99.5235
95.7049
96.8107
89.3362
93.7213
97.6634
88.5796
95.4547
94.3962
35.3707
94.9782
95.4517
99.6524
93.1371
90.9657
94.4181
97.7229
75.7437
99.0104
97.3605
48.6303
89.6014
96.3144
97.5202
97.8571
94.1164
97.1976
97.8803
83.1716
90.9516
93.221
89.3903
90.7099
99.1857
49.7164
97.8902
97.0362
87.8325
99.2774
56.8146
91.3728
98.184
91.5631
53.5476
100.523
94.266
99.7963
40.7552
95.973
99.439
99.5032
92.3647
41.7109
95.7782
50.1227
94.66
94.6333
95.0005
55.373
95.1777
34.9878
77.6753
100.244
98.1936
91.609
46.4578
97.6918
17.8831
95.1613
98.6023
96.4604
99.3587
92.4098
65.7767
94.8609
96.4787
42.642
57.4685
97.9389
90.1069
94.9243
49.7628
94.5084
89.8955
94.2872
54.388
97.6849
94.8001
100.553
94.852
89.0278
98.543
91.536
95.9817
94.5418
59.1123
55.0221
94.5589
95.5778
91.0588
99.4127
97.9576
98.6376
88.0982
98.1221
96.0507
93.1108
92.0784
99.0053
67.2682
98.8374
95.4792
98.504
78.172
95.8439
94.5669
98.5943
88.4054
95.1699
90.9667
92.8189
99.0011
95.2957
95.6769
62.5909
49.5893
91.4116
97.7362
95.3476
95.2626
99.8923
98.7839
99.5567
99.4691
92.7845
92.8925
93.4909
95.8181
58.9509
98.3126
83.319
99.8337
90.1375
46.5005
95.7128
95.8453
89.2826
94.5655
95.5614
35.6093
100.394
100.462
97.0329
99.8629
97.6929
97.5992
97.1149
96.3252
94.6647
25.4041
55.4428
88.3714
110.376
88.9594
91.0952
90.1932
98.7561
106.748
95.114
98.5399
101.532
101.814
94.6602
99.6879
90.7375
96.4398
94.8389
93.3765
)
;

boundaryField
{
    frontAndBack
    {
        type            empty;
    }
    wallOuter
    {
        type            zeroGradient;
    }
    inlet
    {
        type            zeroGradient;
    }
    outlet
    {
        type            fixedValue;
        value           uniform 0;
    }
    wallInner
    {
        type            zeroGradient;
    }
    procBoundary3to1
    {
        type            processor;
        value           nonuniform List<scalar> 
48
(
97.2225
97.3997
97.365
96.9386
97.1941
96.2995
97.3997
96.9485
96.8049
93.2279
93.2279
93.3493
93.3493
93.5655
92.6696
94.7766
97.0848
95.742
97.0848
96.8616
95.9887
96.7072
96.8616
96.8703
94.6566
95.9882
96.9284
96.7072
96.9567
96.0609
96.0609
96.9587
96.9587
96.8049
96.4318
96.9709
96.8343
94.6566
97.136
97.4681
93.5655
96.7707
96.6624
96.8616
92.3531
97.942
97.0646
94.9512
)
;
    }
    procBoundary3to2
    {
        type            processor;
        value           nonuniform List<scalar> 
29
(
99.0396
99.0396
97.4485
97.8494
93.7827
99.5519
96.657
99.3763
97.6994
97.759
99.44
93.2356
98.8417
96.4525
96.3252
96.4411
97.5046
97.6295
99.0397
96.3032
96.2498
97.5046
96.3624
97.6295
96.3829
97.4232
97.6295
92.4774
92.4774
)
;
    }
}


// ************************************************************************* //
