/*--------------------------------*- C++ -*----------------------------------*\
| =========                 |                                                 |
| \\      /  F ield         | OpenFOAM: The Open Source CFD Toolbox           |
|  \\    /   O peration     | Version:  v1912                                 |
|   \\  /    A nd           | Website:  www.openfoam.com                      |
|    \\/     M anipulation  |                                                 |
\*---------------------------------------------------------------------------*/
FoamFile
{
    version     2.0;
    format      ascii;
    class       volScalarField;
    location    "0.24";
    object      nut;
}
// * * * * * * * * * * * * * * * * * * * * * * * * * * * * * * * * * * * * * //

dimensions      [0 2 -1 0 0 0 0];


internalField   nonuniform List<scalar> 
1431
(
0.0030126
0.00259423
0.0035813
0.0016049
0.00128033
0.00173365
0.00313991
0.000786051
0.00288885
0.000823712
0.0015823
0.00108883
0.00138512
0.00130665
0.00290485
0.000517405
0.0028708
0.00319936
0.000195008
0.00183101
0.00106348
0.000755727
0.00179231
0.00139931
0.00147392
0.00203893
0.00146044
0.00122047
0.00101074
0.00176038
0.00134505
0.000729371
0.00184584
0.00101115
0.00125623
0.00322963
0.00243114
0.000860634
0.00245823
0.000859047
0.0022071
0.000395448
0.00268259
0.00240693
0.00403306
0.00188895
0.00342293
0.000796747
0.000845564
0.000871034
0.00155738
0.00102538
0.00251883
0.00393171
0.00274186
0.00076238
0.00141036
0.00232529
0.00101309
0.000850787
0.00476835
0.00176568
0.00369213
0.00078283
0.000900286
0.00388121
0.00287938
0.000896716
0.00200083
0.000749947
0.00100065
0.00132234
0.00181404
0.00220892
0.00153605
0.00116595
0.00175902
0.00412022
0.000784306
0.00211939
0.000805333
0.00183893
0.000947181
0.0039586
0.00217401
0.00162643
0.00162902
0.000962878
0.00149851
0.00259941
0.00316497
0.000891999
0.0017339
0.000864465
0.00178855
0.00149904
0.00167349
0.000729622
0.00132478
0.00103381
0.00196949
0.0008049
0.00338769
0.00118615
0.00119359
0.00276886
0.000785341
0.00279106
0.00188404
0.00142894
0.00243616
0.00352232
0.000753404
0.00315927
0.0010852
0.00103301
0.00271709
0.00324281
0.00160644
0.00329461
0.000863209
0.00226722
0.00103893
0.00129617
0.00083111
0.00196129
0.00172991
0.00164204
0.00245592
0.000808873
0.0022618
0.00265105
0.00101924
0.0035146
0.0017529
0.00091199
0.00190315
0.0037521
0.00263833
0.0026155
0.00140801
0.000634586
0.000769587
0.000893125
0.00102922
0.000775088
0.00073384
0.00289334
0.00199167
0.000776292
0.000818238
0.000950159
0.00177568
0.000522055
0.000661297
0.00171816
0.000802809
0.00343287
0.000754099
0.00070842
0.00318372
0.00230736
0.00313454
0.00113071
0.00134552
0.0030057
0.00166734
0.000866728
0.00156334
0.00343206
0.00102873
0.00118413
0.00126963
0.000768264
0.000771385
0.000722113
0.000470335
0.000878143
0.00170203
0.000718421
0.000839169
0.00431449
0.000746734
0.0030901
0.000772938
0.00078903
0.000751749
0.0011698
0.0021394
0.000799203
0.00366263
0.00490224
0.00139201
0.000790026
0.00266936
0.000850077
0.000784764
0.000838981
0.000809083
0.000688934
0.000672785
0.000666135
0.000736827
0.00218607
0.000785641
0.00187319
0.00180165
0.000834158
0.00166071
0.000880893
0.000789254
0.000782826
0.00153684
0.000831593
0.00170219
0.00177063
0.000754957
0.00393743
0.00237825
0.000833677
0.000830212
0.00227503
0.000776467
0.00241766
0.000825708
0.000878337
0.00092063
0.00340167
0.000817835
0.00145538
0.00166885
0.00114547
0.000746717
0.000795721
0.000789902
0.000783433
0.000736541
0.00300402
0.000826662
0.00221138
0.000841494
0.000717335
0.00271564
0.00537858
0.00175777
0.00145588
0.000830348
0.00229206
0.00228539
0.000942393
0.000723288
0.00289642
0.000843051
0.00136086
0.00393469
0.0011013
0.000619462
0.00211817
0.00113697
0.00111068
0.00108945
0.00123708
0.00134339
0.00158641
0.000789636
0.000801173
0.00103692
0.000744787
0.00112611
0.00200159
0.000742157
0.00089387
0.00072722
0.000727535
0.00107872
0.000766487
0.00339636
0.00376145
0.00370243
0.000817824
0.00278194
0.00220859
0.00242504
0.00355846
0.00103359
0.00127352
0.00168447
0.000755091
0.000883625
0.00083224
0.000776189
0.00087127
0.000752114
0.00267851
0.000727539
0.000739901
0.00138719
0.000775327
0.00221968
0.000708495
0.000843698
0.000950596
0.000991959
0.000727549
0.00293275
0.00230894
0.000828415
0.00110865
0.0011188
0.000716909
0.000835875
0.000783508
0.00395405
0.000961076
0.000970448
0.00240192
0.000629352
0.00231813
0.000794657
0.00211008
0.00231488
0.00174917
0.00122058
0.0022275
0.00196759
0.00199282
0.000806419
0.00200881
0.001636
0.000830834
0.00359986
0.00149811
0.00199275
0.00334074
0.000785951
0.00291673
0.00114177
0.00137042
0.00114664
0.00174724
0.000653494
0.000822354
0.00173155
0.00093541
0.00245732
0.000620729
0.000826259
0.00070133
0.000233708
0.00026821
0.000766755
0.000595684
0.000874807
0.000641179
0.000751955
0.000649274
0.00070781
0.000671244
0.000664507
0.000568047
0.000684265
0.000974725
0.000621245
0.000225207
0.000299701
0.000652931
0.000598493
0.000753638
0.00326383
0.00394134
0.00239321
0.00201404
0.00201907
0.00074881
0.00303577
0.00211458
0.00363277
0.000841898
0.000848843
0.000749187
0.000644301
0.000639177
0.00033459
0.000799745
0.00095007
0.000604286
0.000777555
0.000700347
0.0006583
0.000223441
0.000755703
0.00464236
0.000850884
0.000848691
0.00217444
0.00223292
0.000909929
0.000834633
0.00164041
0.000771999
0.000609526
0.00332059
0.000832662
0.00123253
0.00315382
0.000799928
0.00238709
0.000714075
0.000733078
0.0039819
0.000830146
0.000704992
0.00342003
0.00305918
0.000952162
0.00114097
0.00328848
0.0022407
0.0017234
0.000744502
0.00224485
0.00167123
0.00164896
0.00113533
0.00182683
0.00315832
0.00116231
0.00347688
0.00517314
0.00197289
0.00401156
0.000983044
0.000625615
0.0036376
0.00221824
0.00251359
0.0015748
0.0037194
0.00147664
0.00378877
0.00262366
0.000451252
0.00388097
0.00396337
0.000717853
0.00208085
0.00218519
0.00163203
0.0010547
0.00358297
0.00348244
0.00177832
0.0027642
0.0012871
0.00182759
0.00122045
0.00183818
0.00171578
0.00147045
0.00223848
0.00443781
0.000431768
0.00280402
0.0023232
0.00224917
0.00225467
0.0007045
0.00326494
0.00272558
0.00176238
0.00308204
0.0033708
0.000727594
0.00118939
0.00293997
0.00175677
0.00466951
0.00485605
0.00527746
0.000651312
0.00198758
0.00312277
0.00120604
0.00079933
0.00079899
0.00206963
0.00245959
0.00167113
0.00168545
0.000935224
0.000838606
0.000468066
0.00165386
0.00565776
0.000554214
0.00283593
0.000888577
0.00398496
0.000837182
0.00324038
0.0029316
0.00120901
0.00318615
0.00172361
0.00156379
0.00205975
0.00169807
0.00181022
0.0015968
0.000431319
0.000401672
0.00173569
0.000740005
0.00288849
0.000792281
0.00160661
0.00551092
0.00101968
0.00178899
0.0024258
0.00284049
0.00191684
0.00375496
0.000712398
0.00357025
0.00165248
0.00286467
0.00174163
0.00224978
0.00382006
0.000784173
0.000728633
0.00185795
0.00287425
0.00164406
0.00180078
0.00260316
0.00316913
0.00266551
0.0030663
0.00143593
0.00528602
0.0033766
0.00177046
0.000604538
0.00170242
0.00348331
0.000795743
0.0016981
0.00160846
0.00245329
0.000785109
0.0010853
0.00168343
0.0019774
0.00302531
0.0021781
0.00362243
0.00104572
0.000756563
0.00311893
0.00138794
0.0022769
0.00370718
0.00222342
0.000714309
0.0021128
0.000744833
0.00389325
0.00129698
0.000726489
0.00171243
0.00363754
0.00167924
0.00511692
0.00343146
0.00167957
0.00265645
0.00124718
0.00113427
0.00253674
0.000797698
0.00286902
0.00227596
0.00147876
0.00236762
0.00304946
0.000802214
0.00165279
0.000789697
0.00164457
0.00272987
0.000848178
0.000792312
0.000780662
0.00169662
0.000664661
0.0040563
0.000743741
0.000471894
0.00314192
0.00267011
0.00164491
0.00295939
0.00275542
0.00161359
0.0021093
0.00156361
0.00164343
0.0026925
0.00226722
0.00170845
0.00080516
0.00351971
0.00254353
0.00074782
0.00225762
0.000651327
0.0029618
0.00158936
0.00206076
0.00190446
0.00357423
0.00145328
0.00409517
0.00092983
0.00196725
0.000683812
0.00155927
0.000804249
0.00171131
0.00380497
0.000915886
0.000805097
0.00226637
0.00159811
0.00161
0.00073729
0.00120993
0.00387403
0.00227747
0.000984984
0.000806241
0.00167967
0.00399314
0.00217485
0.00168808
0.00270553
0.00105224
0.00390708
0.00347827
0.00216502
0.00077524
0.00121321
0.00253644
0.00156606
0.000820245
0.000841077
0.00381953
0.00159616
0.00198278
0.000926428
0.00375556
0.00361689
0.000827449
0.000539377
0.00084808
0.00164616
0.00156007
0.00415715
0.000744961
0.000821826
0.00375901
0.00222598
0.000774661
0.000741476
0.00309593
0.00203344
0.00166256
0.00117661
0.00378241
0.000732782
0.00123036
0.00328178
0.00352843
0.00137648
0.00166642
0.00178022
0.00411779
0.000900769
0.00175694
0.00198145
0.00171365
0.00327459
0.00166938
0.00159313
0.000228614
0.000781075
0.00082434
0.000727677
0.00221071
0.00150763
0.000765646
0.00160038
0.00160929
0.00157906
0.00122318
0.00172695
0.000850274
0.0022924
0.00203914
0.000603735
0.00218614
0.00121445
0.00323606
0.000635531
0.00292259
0.00286027
0.000720697
0.0026762
0.000644492
0.000838339
0.000803063
0.0027453
0.00203824
0.000626361
0.000748187
0.00324233
0.000687498
0.000774552
0.00157885
0.000853364
0.000708242
0.000726465
0.00290308
0.000767867
0.00344933
0.00358831
0.00181774
0.00355184
0.00154764
0.00238014
0.000704229
0.00209566
0.000786204
0.000663519
0.000742583
0.000844348
0.00114084
0.0010558
0.00193175
0.00075281
0.000746718
0.000766816
0.00360662
0.00266661
0.000845058
0.000839929
0.000874506
0.00187242
0.000550455
0.00121526
0.00223044
0.00254921
0.000855279
0.0022116
0.000368151
0.00235558
0.000793569
0.000760607
0.00380782
0.00516965
0.000791857
0.00260184
0.000592801
0.000778892
0.00101467
0.00409009
0.00353212
0.0013413
0.00126168
0.000537882
0.000773534
0.00128283
0.000632208
0.00456491
0.000743489
0.00271608
0.00220153
0.00204389
0.00342319
0.000772664
0.000882423
0.00102966
0.000847847
0.000834462
0.000801817
0.00245125
0.00366418
0.000806823
0.00271426
0.00169509
0.000715399
0.00191
0.000237775
0.00190857
0.00289074
0.00296724
0.00266955
0.00192339
0.000828447
0.000808598
0.00252438
0.000873954
0.00179642
0.000833789
0.000673932
0.000597699
0.000538565
0.00064893
0.000837282
0.000732129
0.000777109
0.00231897
0.000886216
0.000776298
0.00173706
0.00187087
0.00196189
0.000892422
0.000951336
0.000719974
0.00241726
0.000747318
0.00178853
0.00106429
0.00334067
0.00113293
0.000675736
0.00283861
0.000778739
0.000717895
0.000732408
0.000663726
0.00239726
0.000712093
0.00230633
0.00234098
0.00200454
0.000818794
0.00304244
0.00210233
0.00204966
0.000235843
0.00215316
0.00286984
0.00132372
0.00279935
0.000837691
0.000868719
0.000805466
0.00358287
0.00174223
0.00373712
0.00226429
0.00224554
0.000802381
0.000753007
0.000755127
0.0022028
0.000758734
0.00262536
0.00264544
0.00239151
0.000720885
0.000781675
0.00350563
0.00253462
0.00335929
0.000817629
0.00114221
0.00156984
0.00348098
0.000718286
0.000745827
0.00289987
0.00293855
0.00329756
0.0037126
0.000712636
0.000878389
0.00250313
0.00220586
0.000824891
0.00312604
0.00506594
0.000671397
0.00277402
0.00199663
0.00142118
0.00198631
0.00207991
0.0018538
0.00182016
0.000970357
0.000950001
0.000842911
0.00335579
0.000687888
0.000204918
0.00346839
0.000804938
0.00274647
0.00136528
0.0018967
0.00344923
0.00340196
0.000865508
0.00161273
0.00164281
0.00278514
0.0007835
0.00316837
0.000813574
0.000793913
0.00107045
0.00156302
0.000729991
0.000699278
0.00068454
0.00283493
0.000749699
0.00209275
0.000499479
0.000577311
0.000544116
0.000451161
0.000595829
0.000593147
0.0022957
0.000262375
0.000600939
0.000818632
0.000571665
0.00268907
0.00068219
0.00250073
0.00162227
0.00241192
0.000674519
0.00156342
0.000525334
0.000624736
0.00333807
0.00571603
0.0019853
0.00055257
0.00356666
0.00297292
0.00390263
0.00198311
0.0030856
0.00214286
0.00210558
0.00216382
0.000650205
0.000579938
0.000911661
0.000564229
0.00362726
0.002022
0.00178158
0.00223806
0.00100221
0.00074324
0.00130173
0.000815545
0.000617805
0.000612633
0.00225043
0.00278354
0.000776737
0.00313677
0.00172695
0.000700608
0.000764852
0.000470211
0.00592739
0.000764094
0.00103608
0.00069934
0.000822934
0.00218172
0.00238402
0.000830265
0.00214863
0.00252848
0.000895158
0.00243192
0.00131262
0.00056959
0.000704174
0.000808584
0.00336425
0.00233793
0.000776982
0.00127357
0.00342268
0.00084597
0.00337602
0.00337341
0.000935785
0.000811963
0.000728313
0.000990911
0.00237445
0.00336789
0.000971464
0.00202236
0.00172602
0.00283246
0.00173228
0.00197287
0.00321806
0.00106593
0.00211307
0.00202284
0.00311117
0.000415454
0.0024294
0.00292558
0.000818411
0.00159696
0.0038256
0.000731645
0.00107366
0.00381357
0.000837411
0.0019982
0.00375564
0.00130274
0.00125544
0.000766707
0.00254716
0.00212426
0.0018533
0.0038578
0.00179884
0.000751366
0.0024359
0.00207931
0.000624114
0.00172971
0.00438586
0.00333113
0.00286515
0.00316358
0.000781152
0.000853475
0.0007515
0.00166811
0.00273049
0.000846284
0.000783216
0.000761015
0.0028
0.00124083
0.000776918
0.000840424
0.00160549
0.00371135
0.000797073
0.000757191
0.00287826
0.000820445
0.00321395
0.000436803
0.000786322
0.000791378
0.000802762
0.000571431
0.00118086
0.00270989
0.000746649
0.000735277
0.000699428
0.00099329
0.00102868
0.000792247
0.00207871
0.00126657
0.000743931
0.00201302
0.000762744
0.000534211
0.000664584
0.00166491
0.000833597
0.00274614
0.00340963
0.00241123
0.000765211
0.00136482
0.0008923
0.000533808
0.000867009
0.00260821
0.000834903
0.0022676
0.000808349
0.00122662
0.00248556
0.0016542
0.000700899
0.00310875
0.000912877
0.00203743
0.00152355
0.00128728
0.000800512
0.00156786
0.0022655
0.000790572
0.000677706
0.000921416
0.000741199
0.00344785
0.000754407
0.00321789
0.00239179
0.000788515
0.000210255
0.00298169
0.00280974
0.000326477
0.00258842
0.00140121
0.00109511
0.00158011
0.000760969
0.00253956
0.00358271
0.00305854
0.000715626
0.003081
0.000799116
0.000821451
0.000526698
0.00211046
0.000821508
0.0033165
0.000770537
0.00260396
0.00202121
0.00247151
0.00155465
0.00265223
0.00113962
0.000510711
0.000834825
0.00136828
0.000553128
0.000751125
0.00231905
0.00129767
0.00144838
0.000768893
0.000771463
0.00260762
0.000767288
0.000840555
0.00252528
0.00252282
0.000810842
0.000838067
0.000839723
0.000775326
0.000221694
0.000435364
0.0017573
0.000618014
0.00442234
0.0007489
0.00166491
0.00211608
0.00082709
0.00564717
0.00251593
0.000592148
0.000597453
0.00237641
0.00305983
0.000870287
0.000745169
0.00272045
0.00206414
0.000876564
0.00156636
0.0016784
0.000738944
0.00207851
0.00103723
0.00180602
0.00275599
0.00244716
0.00087843
0.000851154
0.00158658
0.00179324
0.000842456
0.00081975
0.00216683
0.00129513
0.00244325
0.00289371
0.000742531
0.00283606
0.00125641
0.00208912
0.00182548
0.0037841
0.00151778
0.000473803
0.000500748
0.00287113
0.000748835
0.00187344
0.000729338
0.000772298
0.000844362
0.000904562
0.00212701
0.00129672
0.000912032
0.000608049
0.00236635
0.00111012
0.0017252
0.00199645
0.00185172
0.00270802
0.00419674
0.00211595
0.00227468
0.00202882
0.00111034
0.00119924
0.00128204
0.00378424
0.000720418
0.00146891
0.00113327
0.000790577
0.00222236
0.00428921
0.00176696
0.00284974
0.000621997
0.00195206
0.00371492
0.00158347
0.00193252
0.0038497
0.00152943
0.000768959
0.000844079
0.0035543
0.00282911
0.00201091
0.00272222
0.00270368
0.00358223
0.00075383
0.000827852
0.00135815
0.000813843
0.000883936
0.00268718
0.000838397
0.00100393
0.000401562
0.00158315
0.000791849
0.000939552
0.00162942
0.00364539
0.00270459
0.00309893
0.000737006
0.00384207
0.00281958
0.00133656
0.00076985
0.00162807
0.00234167
0.000845881
0.00232219
0.00259963
0.00168775
0.000966496
0.00256029
0.000784654
0.00332878
0.00335159
0.000896849
0.00328222
0.000979518
0.000774443
0.00217108
0.00127768
0.00084512
0.000779961
0.000788648
0.00210852
0.00239707
0.00086596
0.00302696
0.00314259
0.00117686
0.00356076
0.00101746
0.000763455
0.00187991
0.000938969
0.00187182
0.00336446
0.00104843
0.000854706
0.00131079
0.0031538
0.00123163
0.00213924
0.00206303
0.00201879
0.000759564
0.00244361
0.00202435
0.000817715
0.00123556
0.00141717
0.000710418
0.00162844
0.00268877
0.000811688
0.000535247
0.00237305
0.00164155
0.000801057
0.00176623
0.00217899
0.00240738
0.000683397
0.00171863
0.00257354
0.00336055
0.00209663
0.002351
0.000853854
0.00231332
0.00156132
0.00365834
0.00191952
0.00071274
0.00195874
0.00532125
0.000733635
0.00220989
0.000755428
0.00121059
0.000696426
0.000943784
0.00234681
0.00153392
0.00123282
0.00262668
0.00206554
0.00280348
0.0013101
0.000771006
0.000927424
0.00122575
0.00279828
0.00196678
0.0025938
0.000810692
0.00102338
0.00223291
0.000842888
0.000827827
0.000953915
0.00104064
0.00301949
0.00137655
0.000634649
0.0022054
0.00152463
0.00119918
0.00145719
0.00161058
0.00118465
0.0023003
0.000837301
0.000831391
0.00136078
0.00185308
0.00186445
0.000876117
0.000908122
0.000911474
0.000792108
0.0016388
0.00149094
0.00326099
0.000727211
0.00074079
0.000679039
0.0030931
0.000760332
0.00313547
0.000716052
0.00308397
0.000801183
0.000760781
0.00127968
0.000763281
0.00102286
0.000828699
0.00171129
0.00121278
0.00119075
0.000532946
)
;

boundaryField
{
    frontAndBack
    {
        type            empty;
    }
    wallOuter
    {
        type            nutkWallFunction;
        Cmu             0.09;
        kappa           0.41;
        E               9.8;
        value           nonuniform List<scalar> 
90
(
6.25733e-05
7.67529e-05
7.78078e-05
7.56719e-05
8.28398e-05
8.52244e-05
8.7329e-05
9.42955e-05
8.00428e-05
8.96764e-05
9.20176e-05
9.51497e-05
9.12896e-05
9.34446e-05
9.28046e-05
0.000105343
9.97524e-05
8.12672e-05
7.22803e-05
6.52174e-05
7.83318e-05
0.000100148
8.80448e-05
9.32284e-05
8.00674e-05
0.000115236
0.000113064
8.78001e-05
8.25721e-05
5.88823e-05
6.8214e-05
6.42058e-05
5.31852e-05
7.05339e-05
7.04064e-05
6.80402e-05
8.17718e-05
5.94514e-05
7.53976e-05
6.59045e-05
7.838e-05
6.92855e-05
0.0001085
6.49764e-05
7.42509e-05
7.33745e-05
9.23993e-05
0.000122499
7.96044e-05
0.000106757
0.000117598
4.98986e-05
7.54033e-05
9.39894e-05
9.08759e-05
6.48292e-05
7.93035e-05
0.000117726
0.000121919
8.94116e-05
6.4691e-05
8.06252e-05
9.15059e-05
0.000106414
9.68522e-05
8.44868e-05
0.000108811
8.0225e-05
0.000109685
8.9983e-05
6.19015e-05
6.47074e-05
9.23822e-05
9.24845e-05
9.7067e-05
7.4745e-05
7.16204e-05
0.000103914
8.85678e-05
0.000104646
5.73797e-05
0.000108634
7.16057e-05
7.51542e-05
4.75244e-05
9.17205e-05
9.71774e-05
6.2132e-05
8.23736e-05
8.38914e-05
)
;
    }
    inlet
    {
        type            calculated;
        value           uniform 0.000851986;
    }
    outlet
    {
        type            calculated;
        value           nonuniform 0();
    }
    wallInner
    {
        type            nutkWallFunction;
        Cmu             0.09;
        kappa           0.41;
        E               9.8;
        value           nonuniform List<scalar> 
138
(
0.000132332
2.24803e-05
0.000200341
0.000113602
0.000126684
4.78262e-05
0.00031737
0.000108917
0.000112968
0.000124749
0.000132053
0.000120859
6.18027e-05
8.13594e-05
8.95745e-05
5.48921e-05
9.72198e-05
8.27676e-05
7.96058e-05
8.04329e-05
0.000267807
0.000129986
7.65463e-05
0.000133913
0.000131015
0.000128676
0.000122781
0.000127489
0.000122414
0.000130796
0.000131908
7.78787e-05
7.36307e-05
8.10231e-05
2.68152e-05
3.15402e-05
8.75167e-05
7.08459e-05
0.000106805
8.13641e-05
8.95243e-05
7.41895e-05
8.51322e-05
7.96976e-05
8.41276e-05
6.70144e-05
8.28588e-05
0.000114693
7.86642e-05
2.59271e-05
3.542e-05
7.54975e-05
7.48396e-05
8.80833e-05
9.41488e-05
7.51664e-05
7.37708e-05
3.94848e-05
9.68639e-05
0.000109165
7.61351e-05
9.07174e-05
8.38735e-05
8.34986e-05
2.56209e-05
8.72961e-05
7.2147e-05
8.61383e-05
0.000134154
7.7227e-05
5.47635e-05
8.9622e-05
0.000129559
5.45764e-05
0.000139626
7.83076e-05
0.000141644
0.000115605
0.000104207
5.85803e-05
6.75151e-05
0.000103908
0.000136628
5.39763e-05
4.94267e-05
0.000117395
6.80863e-05
9.71147e-05
0.000128181
0.000123773
8.37992e-05
5.59913e-05
0.000112852
6.41247e-05
9.02336e-05
2.6361e-05
9.01109e-05
9.20548e-05
0.000105819
8.47552e-05
7.11275e-05
4.3329e-05
7.33938e-05
6.08192e-05
0.000121562
2.75969e-05
0.000116414
0.000133463
7.98684e-05
2.76659e-05
2.37443e-05
0.000126573
3.11756e-05
6.9294e-05
8.48329e-05
0.000119124
9.18223e-05
5.56045e-05
5.61001e-05
8.34495e-05
0.000100365
5.31207e-05
9.44068e-05
6.38457e-05
2.44593e-05
3.78639e-05
9.83997e-05
6.10341e-05
2.59178e-05
5.03361e-05
6.20904e-05
8.18152e-05
0.000149377
9.16043e-05
0.000117008
0.000191878
0.000114175
6.30627e-05
)
;
    }
    procBoundary0to1
    {
        type            processor;
        value           nonuniform List<scalar> 
29
(
0.00286956
0.00295612
0.00441519
0.00441519
0.00427796
0.00427796
0.00277331
0.00120801
0.00231423
0.00259402
0.00210816
0.00188388
0.00146335
0.00162833
0.00204993
0.00119168
0.00579506
0.0041727
0.00319607
0.00256679
0.0008348
0.000718022
0.00378788
0.000741366
0.000737165
0.0041727
0.000721332
0.000921073
0.000741366
)
;
    }
    procBoundary0to2
    {
        type            processor;
        value           nonuniform List<scalar> 
42
(
0.00077976
0.000840952
0.00128677
0.000906302
0.00143806
0.00077976
0.00128677
0.00123372
0.00103401
0.000781658
0.00202738
0.00203353
0.00202738
0.00178554
0.00150882
0.00089451
0.00150882
0.000781919
0.000816571
0.002274
0.002274
0.000781919
0.000710894
0.00211674
0.00211674
0.000596008
0.00186013
0.00050798
0.0014117
0.000976499
0.000976499
0.000544179
0.000566511
0.000631865
0.000811416
0.00128677
0.00123527
0.000525153
0.0014117
0.00123372
0.00108085
0.00100108
)
;
    }
}


// ************************************************************************* //
