/*--------------------------------*- C++ -*----------------------------------*\
| =========                 |                                                 |
| \\      /  F ield         | OpenFOAM: The Open Source CFD Toolbox           |
|  \\    /   O peration     | Version:  v1912                                 |
|   \\  /    A nd           | Website:  www.openfoam.com                      |
|    \\/     M anipulation  |                                                 |
\*---------------------------------------------------------------------------*/
FoamFile
{
    version     2.0;
    format      ascii;
    class       surfaceScalarField;
    location    "0.24";
    object      phi;
}
// * * * * * * * * * * * * * * * * * * * * * * * * * * * * * * * * * * * * * //

dimensions      [0 3 -1 0 0 0 0];
oriented        oriented;


internalField   nonuniform List<scalar> 
2708
(
-0.000149274
1.61965e-05
7.00542e-05
6.30229e-05
-0.00010905
0.000145888
1.10094e-05
-4.78479e-05
0.00121404
0.000243398
-0.000704029
-0.000753408
-0.000310222
0.000165883
5.00466e-05
9.42927e-05
-2.86183e-05
2.13979e-05
0.00025815
-0.000250929
0.000110027
4.47275e-05
-8.61746e-06
-0.000146137
0.000102392
7.71344e-06
0.000596798
-0.000830715
0.00101133
-0.000777409
-7.64302e-06
0.000221189
-0.000262469
4.89227e-05
-0.000412935
8.57087e-05
-3.10587e-05
0.000358285
-0.000297918
4.57641e-05
-3.6011e-05
0.000288165
-4.26734e-05
9.49794e-06
3.31754e-05
-0.000186854
0.000231013
-7.05996e-05
2.64405e-05
0.000867224
-0.000878476
3.47047e-05
-2.34526e-05
0.000152881
1.00958e-05
1.07989e-05
-0.000173776
4.37791e-05
-6.10847e-05
1.73056e-05
-5.43366e-06
0.000119055
3.92605e-05
0.000184115
-0.000387955
0.000223902
-2.00622e-05
-1.67149e-05
1.55798e-05
1.1351e-06
-0.000294466
1.26106e-05
-1.6063e-05
1.81175e-07
6.86775e-05
-9.32657e-06
-5.95321e-05
0.000226237
-0.000130344
-1.13387e-05
2.22483e-06
5.8838e-05
-4.97241e-05
0.000841675
5.11956e-05
-2.56469e-05
0.000378869
6.90126e-05
-0.000404036
-4.38457e-05
-0.000277778
5.25459e-06
-2.19422e-05
-0.000406361
0.000333447
-0.00016285
0.000235764
2.87094e-05
-1.61317e-05
-0.000891054
-0.0010369
8.40814e-05
0.000956653
-3.83962e-06
0.000321025
-0.000356242
-7.00521e-05
0.000105269
-0.000456914
0.00102597
-0.000589968
2.0916e-05
0.000955259
0.000465014
-0.000633017
-0.000787255
0.000241472
0.000162512
-0.000403984
-0.000245476
0.000306448
-6.09721e-05
-0.000174752
0.000289914
-0.000115162
-0.000815084
0.000940752
0.000403749
-0.000529417
-0.00010411
2.32515e-05
0.000302755
-0.000221896
-0.00118737
0.00114375
-5.32882e-05
9.69023e-05
-0.000162211
0.00019892
0.00015165
-0.00140233
-3.59356e-05
0.000250896
-0.000398739
-0.000282148
5.09129e-05
0.000629974
-5.884e-05
-2.48414e-06
6.13241e-05
0.000101638
-9.67144e-05
0.00014369
-0.000148614
0.000228866
-0.000316804
-9.80274e-05
0.000185965
5.16375e-06
0.000101761
-0.000202718
9.57933e-05
4.16501e-05
-0.000366746
-8.12634e-06
0.000333222
4.45954e-05
0.000561236
-0.000305206
-0.000300625
-3.19367e-05
4.05901e-05
-0.000984565
0.000975911
-0.000665511
0.00118709
-0.00088446
0.00036288
2.98114e-05
-0.00108421
0.00111071
-5.63147e-05
-0.000360612
-5.17569e-05
0.000363837
4.85325e-05
-0.000108581
7.38101e-05
-0.000378165
-0.000234797
0.000141419
8.57346e-05
-0.000111968
1.07618e-07
0.000156021
-4.41613e-05
-0.000628412
0.000278418
0.000357826
-7.8321e-06
-0.000990719
9.52063e-05
0.000977921
-8.2408e-05
0.000415237
-0.00031037
-0.000295397
0.000190531
-4.63884e-05
4.82297e-05
0.000174735
-0.000176576
-0.000565726
0.000538234
2.36969e-05
6.63926e-05
-8.99083e-05
0.000182982
-0.000156721
1.83338e-05
-0.000188866
-0.000136623
0.000214028
0.000111461
0.000289003
-0.000631211
-0.000472876
-0.000427131
0.00047272
0.00101197
-0.00105755
0.000851799
-0.000170925
-4.91998e-05
-0.000631675
-2.63529e-05
3.45046e-05
0.000275164
-0.000283316
0.000161295
3.03711e-05
-4.03174e-05
-3.25171e-05
3.3839e-05
3.89955e-05
-0.000624573
0.00102934
-0.000735251
0.000330485
-0.000143838
5.41137e-05
-0.000280208
8.89813e-05
0.000280693
-8.94658e-05
0.000180965
0.000154411
-0.000118861
-0.000216515
8.31311e-05
0.000158341
-8.03798e-05
-0.00026121
0.000324525
1.70647e-05
7.52481e-05
0.00104529
-0.00087714
0.000967697
6.53858e-05
-0.00101564
-1.74387e-05
0.00013703
-0.000266047
-7.14596e-05
0.000200476
-0.000953973
0.000926426
-0.000399584
-5.59589e-06
-0.000355625
1.1159e-05
0.000350062
0.000208314
-0.000302024
0.000263639
-0.000169929
-7.84592e-06
-9.14062e-05
0.00014565
-4.63982e-05
-0.000262411
-6.07724e-05
0.00019658
0.000126604
-0.000169017
0.000238726
-0.000121357
5.16478e-05
-0.000137729
3.09756e-05
0.000180944
-7.41904e-05
-0.000137324
3.43847e-05
9.7081e-05
5.85862e-06
0.000806235
7.00901e-05
-3.46499e-05
5.62395e-05
-9.042e-05
0.000272558
-0.000238378
-0.000221795
-0.000192653
0.000151566
0.000262882
-0.000272852
0.000178267
-4.27391e-05
-9.56331e-05
-3.28347e-05
-9.26151e-06
0.00113048
-1.87999e-05
3.20747e-05
2.8245e-05
-3.44448e-05
0.000325809
-0.000319609
0.000120215
-0.00016511
6.85915e-05
0.000207072
8.56587e-05
-0.000111765
-6.00399e-05
-0.00100426
0.00103247
3.18305e-05
0.000131507
5.10305e-05
-0.000105806
-7.67309e-05
-0.000827864
-0.000294561
-7.34461e-05
-5.64985e-05
8.96272e-05
2.77063e-05
-0.00108809
0.00108809
-2.77131e-05
9.15049e-05
-7.54147e-05
-0.000211972
0.000195882
0.000273045
-7.57669e-05
8.80631e-05
-0.000285341
0.000180995
-3.09004e-05
7.91944e-05
-0.000229289
-0.000270929
0.000216993
1.55933e-05
3.83425e-05
0.00104035
-0.00146475
0.000185405
0.000238995
0.000527435
1.05374e-05
1.17767e-05
-0.000549749
9.12214e-05
9.44505e-05
-0.00101854
-6.73955e-05
-0.000205916
0.000299385
-2.60736e-05
8.87861e-06
0.000173284
-0.000228061
4.58988e-05
-1.70267e-05
0.000211902
-0.000221228
0.000847904
-0.000582821
4.28538e-05
-0.000307936
0.000156606
-0.000182557
-0.000162915
0.000112269
-7.01328e-05
0.000138859
4.23316e-05
-3.91103e-05
0.000269824
0.000237037
0.00017667
-0.000229591
5.30859e-05
2.08449e-05
-9.14389e-05
1.75081e-05
0.0007569
9.19861e-05
-4.26512e-05
4.7553e-05
0.000120122
-0.00113865
0.00114013
9.30169e-05
-9.44972e-05
-0.000101547
-0.000179638
0.000508488
-0.000201833
0.000804981
0.000171781
-0.000850037
-0.000126725
-0.000993697
-0.000637392
0.00105532
0.000575765
0.000128852
-0.000235555
-0.000131198
0.000237902
0.000111336
-4.27262e-05
0.00068829
0.000373184
-1.96047e-05
-0.000199168
0.000138554
-7.04562e-05
9.90103e-05
-0.000167108
0.000822669
-0.00104135
0.000356779
-0.000138102
0.000160925
-0.000149671
4.70183e-06
-1.59565e-05
-0.000397532
2.24957e-05
-0.000101554
-0.000757293
0.000858847
0.000101696
0.000200935
-0.000211126
-2.68501e-05
-4.30015e-06
-6.44828e-05
-4.40423e-05
3.42779e-05
-0.000263087
-0.00027235
4.18346e-05
-4.96925e-05
2.07054e-05
3.03184e-05
-0.000284125
0.000233101
0.000299755
-0.000295623
5.73353e-05
-6.14673e-05
-0.000372888
-9.4313e-05
6.96692e-05
9.69786e-05
8.61478e-05
-0.00011185
-7.12763e-05
-5.21771e-06
-9.0071e-05
6.84385e-05
0.000899313
-2.35436e-05
-0.000766622
-0.000109147
-0.000105221
0.00113808
0.000154232
-0.00113901
9.5551e-05
0.000860204
-0.00102817
-0.00026302
0.000430984
-0.000231579
-0.000988365
0.00119035
2.95907e-05
0.000171126
-1.65788e-05
-8.43979e-06
2.31866e-06
-0.000266229
-0.000929384
0.00089717
-0.000271617
0.000303831
0.00127113
7.68312e-05
-0.000316077
-0.00103188
-4.83773e-05
0.000911899
-1.1722e-05
0.000152446
-0.000194226
0.000305275
-0.000263495
0.00017727
3.10438e-05
-8.33017e-05
-5.33213e-05
0.000183762
0.000396493
-0.000930385
-0.00037838
0.000354792
0.000197204
0.000102026
-0.000197534
0.000913053
0.000104754
-0.000169904
-0.000176823
0.000908358
-0.000892684
0.000161148
-0.000360206
-3.40526e-05
6.30347e-06
0.000292693
-0.000288522
0.000209458
-4.80618e-05
-0.000236811
9.25236e-05
7.95697e-05
-5.98243e-05
7.82385e-05
-0.000192276
-6.13122e-05
-7.28767e-06
7.74785e-05
0.000186378
-0.000133559
1.95348e-05
-0.00014285
0.000103262
0.000158732
-0.000174428
0.000216631
-0.000965312
0.000172725
0.000903923
0.000124209
-9.36822e-06
-7.10612e-05
0.000374234
-0.000603414
-0.000576663
0.000805844
1.37201e-05
0.000238967
-0.00087726
-3.43699e-05
0.000918769
1.49137e-05
-0.000345226
4.10069e-05
0.00030422
4.36079e-05
-8.76503e-05
0.00108595
-0.00126196
-0.000151761
0.000327771
-9.75144e-05
-0.000285103
2.63761e-05
-0.000831695
-0.000337246
0.000861292
0.000307649
-8.51167e-05
0.00104731
-0.000950099
-1.20993e-05
-8.95332e-06
-1.92829e-05
-2.16976e-05
4.99339e-05
0.000104888
-0.000992043
0.000962856
-7.57013e-05
-0.000268046
0.000237955
0.000186697
-0.000333811
0.000247848
0.000946168
-0.000935376
0.000927114
-0.00016856
0.000625059
-0.000611083
-9.72345e-06
0.000554913
-0.000510911
1.95208e-05
-0.00024106
-0.000333157
-0.000909332
0.000312104
0.000256261
5.95398e-05
-0.000174715
-0.000141086
-0.00013997
0.000165951
-3.03525e-05
4.3708e-06
-0.000176812
0.00101779
-0.000893073
-0.000159083
0.000279489
5.82972e-05
-7.95631e-05
-0.000258223
-0.000146831
0.000162403
0.00112456
6.73663e-06
2.46144e-05
0.001009
0.000105688
0.000967336
-0.0010298
-4.32258e-05
0.00016889
4.51383e-05
0.000171208
-0.000213043
-0.000207061
0.000278676
-7.16147e-05
-0.000191971
-0.000926781
0.000189368
-0.000364293
-8.69739e-05
5.25281e-05
-0.000197239
-0.00024973
-3.12939e-05
4.86551e-05
4.03833e-05
0.00102392
-8.65172e-05
-0.000977788
0.000135058
-0.000275276
0.000245066
-0.000104849
-7.43186e-05
0.00105871
-0.000650862
-0.000265754
0.000673263
-1.50749e-05
-0.000889768
0.000127634
0.000877018
-0.000199671
0.000977838
0.000148814
-0.000159207
-0.000967445
-0.000277618
-0.000241933
0.00020918
4.11238e-05
0.000160479
-0.000153374
0.000191313
0.000905691
-0.000183951
4.32708e-05
0.000162108
5.08817e-05
-5.48543e-05
9.77625e-05
2.44983e-05
-6.74065e-05
0.00036899
-9.1778e-05
0.000584007
-0.000861219
0.000353132
-0.000101125
0.000515565
0.00122829
-0.000358288
-0.000345741
0.000810553
-0.000884041
-1.829e-05
-0.00101922
-0.000832567
0.00058983
0.000856824
-0.000921161
0.00017338
-0.00101672
4.11327e-05
0.00101029
0.000931282
-0.000205807
1.32521e-05
0.00015972
-0.000183918
0.000179801
0.000182384
0.00101272
0.00020202
-0.000526829
0.000955795
-0.00125968
-0.000413127
-0.000925401
0.000811699
-0.00061771
0.000877846
-8.50089e-05
-0.000991721
8.83655e-05
5.85705e-05
-0.000293344
8.54997e-05
-0.000937926
0.000664501
-5.97323e-05
0.000205267
-0.000248204
2.21455e-05
2.07916e-05
-0.00111056
-3.52595e-05
0.0010715
-0.000177734
0.000159311
-0.000184099
0.000143937
-0.000123495
0.000163657
-0.000297735
0.000446769
6.60632e-05
-0.000224531
0.00034223
-2.21211e-05
-0.000200625
0.000288809
0.000757168
-0.000144637
-0.000238739
-0.00101668
0.000143359
-0.000976478
-7.57827e-05
0.00117892
-0.000126661
-6.81515e-05
0.000105241
-0.0003841
0.000325062
0.00080488
0.000457023
-0.00115621
0.000123706
-0.000193682
-0.0009641
0.000987474
-2.33736e-05
-0.000152177
0.000154501
-2.32472e-06
0.000229081
-0.000170763
0.000146949
-0.00104765
-2.36375e-05
0.00107129
-0.00100484
0.00101593
-1.10893e-05
-0.000934289
-0.000116451
3.94772e-05
2.72277e-05
3.02737e-05
0.000241142
-0.000873927
-0.00102881
4.08005e-05
-0.000982797
0.00107581
0.000908867
-0.000240954
-0.000930732
-9.0511e-05
0.000942385
7.88573e-05
-7.87041e-05
-0.00012464
-2.5066e-05
0.00022841
0.00100256
1.10594e-05
0.00044354
-0.000982382
4.50155e-05
-3.91119e-05
7.9326e-05
-0.00102057
-3.42057e-05
-0.000900083
0.00102239
-0.000677678
2.90871e-05
-0.00020247
-3.85889e-05
-0.000188938
-4.4008e-05
0.000190273
7.97822e-06
-9.15108e-06
0.000248935
-0.000247762
9.69231e-05
0.000380507
-7.97049e-06
-0.000356046
-1.7718e-05
5.62456e-05
-0.000286731
4.04602e-05
-6.45874e-05
-3.07271e-05
3.01744e-05
-0.000212213
-0.000963263
-0.000403345
-0.00085788
0.000540019
0.000721206
-0.00102238
-0.00105244
-9.23613e-05
5.49477e-05
0.00108985
0.000551669
3.17172e-05
0.00116043
-1.31291e-05
-0.00117901
-0.000682516
-0.000552524
0.00020516
0.000232225
-0.000392999
-4.43854e-05
0.000985035
-0.00104502
-0.000366352
0.000182803
0.00122857
0.000113774
-0.000163547
-0.000127039
0.000164466
-0.00107651
0.00101694
0.000130583
-6.84032e-05
0.000166901
-0.000222383
0.000190992
-0.00134744
-1.82069e-05
0.000308237
-0.000432488
0.000301521
0.000310779
0.00103828
-6.50663e-05
-0.00128399
-0.000144191
0.000190672
-0.000205529
0.00014544
0.000378729
-0.000261331
-1.73685e-05
-3.85396e-05
2.88707e-05
1.11152e-05
0.000864414
-4.60284e-05
-8.43289e-06
5.16058e-05
2.85541e-06
-8.25681e-05
6.80889e-05
-1.51922e-05
1.60611e-05
0.000112361
-1.76847e-05
9.59957e-05
0.000315795
0.000151264
-0.000370136
-0.000241665
0.000238896
4.18313e-05
-3.90623e-05
0.000299984
-0.000984243
-0.000178065
-8.53759e-05
-0.000236153
-3.77797e-05
9.09835e-05
-0.000121481
-8.28346e-05
5.97412e-05
6.51836e-05
-3.87769e-05
-0.000225177
0.000211589
-4.12974e-06
0.000221149
0.000158786
-0.000205857
-0.000174078
-0.000200905
-7.8564e-05
0.000405518
0.000923721
-0.000402812
8.20964e-05
0.00015205
-0.000188427
-4.57192e-05
0.00108037
-1.21605e-05
-9.9387e-05
4.10059e-05
7.05415e-05
0.000168393
-0.000383714
0.000302159
-8.68379e-05
0.000266856
-0.000318725
0.000108115
0.000352522
-0.000274107
-1.88749e-05
0.000176565
-0.000210418
0.00017779
0.000371518
-6.01956e-05
-0.000454172
2.29184e-05
-5.39467e-05
-2.48438e-05
0.000344605
0.000134769
4.50505e-05
-0.000102933
-7.68864e-05
0.00117863
-0.000892512
-0.000221545
-6.132e-05
0.000135536
0.000131858
-0.000247718
-0.000523092
0.000638952
-0.000145578
0.00011209
3.34878e-05
0.000105097
-0.000916363
-7.27759e-05
3.76541e-05
-1.47477e-05
-2.29064e-05
-3.08428e-05
4.33532e-05
-1.25104e-05
-2.1135e-05
3.36931e-05
-1.25581e-05
9.30368e-05
-6.63891e-05
-2.66477e-05
-0.000106753
4.8597e-06
0.000101893
0.000102143
-2.67807e-05
-7.53625e-05
-0.000228218
0.000255884
-2.76661e-05
-0.00013224
0.000153114
-2.08743e-05
6.34312e-05
2.96056e-05
-0.000111586
4.83338e-06
-0.000159523
1.39449e-05
0.00030219
-0.000279818
-2.23715e-05
0.000175662
-0.000152075
-2.35866e-05
-0.00017702
-7.10029e-05
-6.1237e-05
-0.000199973
-5.50763e-05
6.66835e-05
-1.16072e-05
-8.9219e-06
-2.19209e-05
5.28315e-05
-1.51774e-05
0.00017293
-1.84285e-05
-9.72127e-06
6.64314e-05
-5.67102e-05
5.84121e-05
-4.63953e-05
-2.91586e-05
1.71418e-05
-5.69288e-05
3.69224e-05
-0.000179947
0.000154391
-8.34935e-05
0.000118238
-0.000130366
-7.64915e-05
2.9743e-05
-9.91363e-05
0.000274553
-8.18754e-05
1.85605e-05
0.000161077
-1.00794e-05
1.54376e-05
-0.000104745
1.7546e-05
-0.00033049
-0.000637154
-0.000338875
0.000387782
0.0010622
0.000378053
-7.58639e-05
0.000100485
3.51955e-06
-0.000104004
-1.35576e-05
-3.00569e-05
-9.44334e-06
-8.07241e-05
-2.70428e-05
0.000144861
-7.84291e-05
-6.40857e-06
-2.39344e-05
-1.17231e-05
1.63581e-05
-3.11058e-05
-0.000202605
-0.000773209
0.000209677
0.000766137
0.0010393
-0.000267064
-5.688e-05
-9.67197e-06
0.000153002
-0.000151078
7.748e-06
-6.77611e-06
-3.4272e-05
0.000915328
-0.0009247
9.24891e-05
-8.31175e-05
-8.432e-05
-4.87906e-06
0.000157049
-6.78501e-05
0.000223903
-4.82411e-05
-9.83835e-05
5.18015e-05
8.75879e-05
1.2699e-05
0.000329581
8.22662e-05
-7.00383e-05
-6.22934e-05
5.00655e-05
0.00108443
-0.000302989
-9.81329e-06
-0.000196289
-3.55626e-05
0.000435107
-0.00111338
0.000989048
-3.8934e-05
4.82364e-05
-6.25721e-06
-6.07511e-05
0.000157235
-0.000370571
0.000728901
-5.73771e-05
-0.000186505
0.00018504
0.000948729
0.000379425
-0.000387402
8.29451e-05
-8.387e-05
0.000657527
-0.000364717
-0.000292811
-5.15913e-05
8.11765e-05
1.7843e-05
-4.74282e-05
-0.000165281
0.000172914
-8.63373e-05
0.000293483
-4.94092e-05
-0.000355591
0.000111517
-2.29249e-05
3.53015e-05
-2.15831e-05
0.000210079
-0.000350464
-4.37902e-05
0.000184175
0.000139539
3.40194e-05
3.23869e-05
-0.000205945
0.000345912
-0.000283083
0.000193535
-0.000256365
-7.66711e-05
0.000166119
0.000120631
-8.21623e-05
4.3901e-05
-1.333e-05
0.000127133
0.000255597
-3.68177e-05
8.50075e-05
-0.000125773
7.66946e-05
-3.59293e-05
-3.17306e-05
0.000141964
-5.56872e-05
0.000217193
-0.00030347
-0.000681448
1.32282e-05
-0.000181196
-0.000115115
-1.69169e-05
2.49151e-05
-0.000187878
-3.49665e-05
0.000197929
-0.000319183
6.77527e-05
0.00011131
-0.000184721
0.00012869
-5.52797e-05
2.29596e-05
-4.55133e-05
-0.00032791
0.000117044
4.8961e-05
-8.09974e-05
-9.69571e-05
7.20522e-05
0.00021844
-4.87887e-05
5.37106e-06
5.43701e-05
-1.84493e-06
0.000143804
-2.49223e-05
7.20383e-05
5.90411e-05
-6.94993e-05
1.04583e-05
-0.000359948
9.04038e-06
0.000323302
2.76052e-05
3.34845e-05
-0.000129223
-0.000264209
-8.92374e-05
0.000161507
0.000188096
1.94227e-05
-0.000207519
0.0001559
-0.000249401
-9.43764e-05
0.000226937
-0.000106003
8.13717e-05
5.22719e-05
5.89509e-06
0.000273295
9.09432e-05
-0.000330753
8.58093e-05
0.000174183
-0.000225973
0.000153574
-0.000196888
-4.75783e-07
5.81633e-05
-0.000140134
0.00016778
-7.83395e-05
4.88965e-05
0.000110815
-5.13387e-06
2.93083e-05
2.80975e-05
0.000154007
-0.00034376
6.64086e-05
0.000444078
-0.000476249
0.000572373
-0.000540202
-3.3543e-05
-1.44517e-05
4.79946e-05
0.000164685
-1.45536e-05
-4.36812e-05
5.96108e-05
-2.72683e-05
-0.000475749
0.000122175
-0.000136305
0.000137963
-0.000477407
9.69191e-05
-0.000867675
-3.45153e-05
0.000699585
0.000138078
-2.98546e-05
-0.000151905
-0.000335568
0.000492747
0.00030316
-0.000222106
-0.000338854
0.000333871
3.98464e-05
-3.48633e-05
-4.41202e-05
1.76047e-05
0.000868066
-0.000210538
5.06534e-05
5.65999e-05
3.08248e-05
-0.000431629
4.6652e-05
-0.000771333
0.000301283
0.000262353
-0.000654261
0.000315217
-0.000196257
4.69919e-05
-9.92889e-05
-6.03597e-05
0.000159649
-2.23861e-05
-0.000341367
-3.32164e-05
3.5729e-05
-0.000149056
0.00101712
-0.00110653
-0.00115382
0.000294812
0.000349501
8.74572e-05
-5.91555e-06
0.00011618
-6.90907e-05
-3.32144e-05
5.69842e-05
4.53209e-05
4.85599e-05
-4.10404e-05
-1.74807e-05
9.96127e-06
0.000134755
5.33411e-05
6.52554e-05
-4.00382e-06
-2.95391e-05
-3.3075e-05
-0.000374748
5.22315e-05
-0.000500462
0.000301254
0.000500492
-6.43635e-05
-2.43298e-05
-0.000339605
2.25678e-05
-0.000274828
-7.50866e-06
0.000282337
3.36072e-05
-8.37737e-06
1.43795e-05
-3.96093e-05
9.48607e-05
-8.92528e-05
-0.000930308
-9.01965e-05
0.00010382
1.9984e-05
-2.23783e-05
7.30626e-05
0.00025354
-7.57531e-06
-0.000245964
-2.79838e-05
-0.000133602
3.58128e-05
-0.000238214
0.000123392
0.000256786
2.08162e-05
-0.000314718
0.000144142
-0.000166544
7.57427e-05
-0.000457258
-7.44558e-06
5.51887e-05
-9.18926e-05
2.19224e-05
-6.77772e-06
-4.46838e-05
6.15078e-05
-5.61368e-05
2.45597e-05
3.69482e-05
0.00012016
0.000148854
-5.14148e-05
4.24204e-05
-2.61219e-05
3.35926e-05
7.71075e-05
-2.12885e-05
-9.35273e-05
0.000129985
-0.000188311
1.11619e-05
-0.000158283
-5.85711e-05
0.000123121
0.000101902
-9.91171e-05
5.42126e-05
-4.73609e-05
4.13847e-05
0.000311069
-2.46699e-05
-0.000310729
2.71673e-05
-0.000201096
3.41178e-05
-4.36128e-05
-1.3142e-05
2.2637e-05
-1.19454e-05
1.58214e-05
-8.74478e-05
0.000149037
-3.27127e-05
2.21699e-05
-0.00113594
-5.03942e-06
-0.000940829
-0.000338125
6.71148e-06
0.000188461
-3.7459e-05
-8.71535e-06
-0.000105949
-0.000117688
0.000172709
-0.000164211
0.000109191
-4.37255e-05
0.000114832
0.000207779
7.45557e-05
-0.000214344
0.000293574
0.000362609
-0.000441838
-0.000336629
9.66252e-05
0.000363396
-1.76937e-06
0.000418297
9.08127e-05
0.000108544
-9.68105e-05
-4.49477e-05
-8.68112e-05
-0.000962195
-2.46886e-05
0.00099362
2.36249e-05
1.31185e-06
-0.00040169
2.56308e-05
0.000175732
-5.6708e-05
3.00306e-05
2.66774e-05
0.000982063
-0.00103535
-9.62619e-05
-0.000415762
0.000164789
8.18844e-05
-4.60135e-05
0.000147261
-0.000173373
-0.000168718
0.00019483
7.00343e-06
-9.39056e-05
-0.00031854
0.000121689
0.00024106
-0.000271805
0.000157449
0.000188124
0.000226845
-0.000197493
0.00011791
0.00021565
-0.000143976
1.51368e-05
2.93095e-05
-3.92394e-05
-5.20685e-06
4.55044e-05
-6.14203e-05
0.000339218
-0.000861502
5.23245e-05
0.000120705
2.57415e-05
-0.000109524
-0.000398984
8.31716e-05
-4.96329e-05
-2.88526e-05
7.84855e-05
-7.55457e-05
-8.82157e-05
7.94414e-05
0.00018588
-0.000279519
4.69027e-05
-1.39046e-05
-0.000198797
3.14369e-05
-0.000381554
-5.82771e-05
0.000394318
-9.9167e-06
0.000271884
1.40621e-05
0.000226226
-0.000992492
-0.000337086
-8.1145e-06
-0.000742351
1.91512e-05
0.00016318
0.000165323
3.72676e-05
6.76848e-05
-0.000102781
-2.1715e-06
-6.97045e-05
0.000201711
-5.93113e-05
-3.0315e-05
0.00109461
8.7099e-07
2.0911e-05
-0.00105739
-3.14654e-05
-0.000337182
0.000460081
2.39915e-05
8.42456e-05
6.64977e-05
0.000250295
0.0012486
0.00110049
0.00014298
0.000175321
0.00110797
0.000306881
5.50151e-05
-4.46536e-05
3.67684e-05
0.000108042
-7.56132e-05
-0.000923159
0.000106672
-5.96003e-05
9.06441e-05
-7.75482e-05
-5.66755e-06
-2.6795e-05
2.14763e-06
-0.000471892
1.59458e-05
0.000119509
-9.14878e-05
-0.000131781
9.90079e-05
0.000288764
6.08901e-05
-0.000429898
-3.26828e-05
0.00011301
-0.000137711
1.07962e-05
0.000782013
-0.000138743
-0.000601276
-4.19944e-05
-0.000713052
0.000666878
0.0002724
-0.00011366
0.000425193
-0.000283928
1.31443e-05
-3.22795e-05
-0.00012927
-4.3437e-05
-0.000207349
0.00027631
0.000143752
-0.000987585
-3.21631e-05
0.000310191
-0.000285537
0.000101936
-0.000117075
3.96988e-05
0.000167099
4.14229e-05
7.13624e-05
-2.41671e-06
-0.000394311
-6.27704e-05
0.000409772
4.73094e-05
0.000176703
-0.000161018
-0.000233934
0.000215875
0.000241961
0.0004755
0.000301791
-0.000608898
5.21959e-05
6.3917e-05
0.000871483
-0.000126441
7.09543e-05
-0.000338823
6.56258e-05
3.54779e-05
7.35321e-05
-0.000312299
-8.91432e-05
-0.00100819
0.00104121
-0.000282752
-2.65666e-05
5.13613e-05
0.000145812
-3.85138e-05
-0.000341232
-0.000450945
0.000105719
-0.0009673
-0.000199969
-3.77221e-06
-3.36148e-05
-0.000473773
0.000797781
4.98872e-05
0.00102898
-0.0009924
-0.00016777
0.000202042
0.000111539
-9.7692e-05
0.000207915
-0.000142431
-0.000123962
0.000105642
0.000160751
-0.000309333
0.000219838
-0.000180538
-0.000152959
5.60215e-05
-0.000142734
-0.000194851
0.000292361
0.000133025
-5.97579e-05
-0.000446292
-0.000242767
3.64831e-05
-0.000185389
-2.78966e-05
0.000103379
-0.00013714
-4.01799e-06
0.000170862
-0.000139406
0.000978613
-0.00122858
0.000250841
-0.000155751
-0.000161179
0.000722753
5.62968e-05
0.000946072
0.000277301
-9.94442e-05
-0.00112393
-0.000106524
6.45876e-05
0.00020681
0.000213156
4.93557e-05
-6.67492e-05
1.3062e-05
4.33152e-06
0.000201679
-0.000187057
0.000186464
-0.000201085
0.000195805
-0.000215922
0.0013354
9.811e-05
5.24898e-05
3.49988e-05
0.00132641
-5.72808e-05
-0.000131422
-3.07601e-05
5.02444e-05
6.87897e-05
2.26583e-05
-0.00103258
8.03376e-05
0.000230859
-1.34097e-05
0.000209289
1.09307e-05
-0.000986747
-0.00117739
0.000736467
4.2737e-05
-0.000265298
0.000354632
0.000233108
-0.000395693
-0.000192048
3.45045e-06
4.45295e-06
-6.11609e-05
1.46634e-05
-0.000135719
0.000175012
1.4861e-05
0.000304267
0.000147644
-0.000251563
-0.000159378
0.000135259
0.000208294
-0.000270269
-9.37076e-05
0.000221243
-8.45077e-05
-1.76908e-05
-2.31116e-05
-2.38702e-05
0.000223617
0.000118717
0.000148038
0.000119991
-0.000151222
-0.000448992
7.64511e-05
-9.76768e-06
-3.32747e-05
4.14829e-05
0.000869987
0.000118786
-0.000105619
-0.000818739
0.000207431
7.70452e-06
2.9593e-05
0.000472345
0.000396452
0.000129192
-0.000168947
0.00108479
-0.000536402
-2.75623e-05
-0.000278839
0.000205667
3.12003e-06
3.9695e-05
-3.32215e-05
2.15825e-05
0.000404135
-0.000120597
-0.000142629
1.90023e-06
-0.000727478
0.000678126
4.93526e-05
3.39246e-05
1.83179e-06
-8.31846e-05
-3.80468e-05
0.000283848
3.36878e-05
0.000900999
0.000130136
-0.000789446
6.1968e-05
5.09501e-05
0.0010755
-9.08616e-05
-0.000950691
0.00101686
-0.000131359
0.000203582
-5.17385e-05
-2.04842e-05
0.00019353
0.000107053
-0.000165814
5.79447e-05
0.000620181
0.000214601
0.000128399
-0.000269581
-7.34194e-05
0.000227049
0.000166833
-0.000143881
-0.000250002
-0.000233285
4.47651e-05
0.000188519
-0.000237216
6.48804e-05
-5.81404e-05
-8.32315e-05
-0.000342263
-0.000108682
-0.000278031
4.47461e-05
-0.000320757
7.48393e-05
-0.00019178
-1.44181e-05
-0.000896018
-0.000194224
5.41816e-05
-5.87544e-05
-0.000141999
-0.000232554
-0.000204333
0.000140364
-0.000148124
0.000245818
0.000148869
0.000187703
0.000403505
0.000551754
-0.00040506
0.000123572
0.000387206
-0.000488532
0.000472932
1.55999e-05
8.26451e-05
-0.000872092
9.7121e-05
-0.000114674
0.000185927
0.000212954
-0.0001715
0.000868214
-0.000363408
0.000398058
-0.000423705
0.000202329
0.00013384
0.000201638
-3.62602e-05
0.000878402
-0.000194757
0.000355655
-0.000961268
0.000658714
0.000633039
-0.00106842
-4.99865e-05
0.000618362
0.000137993
-0.000135768
-0.000636583
0.000532582
0.000510223
-0.000585781
0.000316049
0.000510106
-0.000265538
-4.44545e-05
0.000111655
4.89788e-05
-5.73364e-05
-1.50356e-06
-0.000613864
0.000719374
-0.000508477
1.99453e-05
-2.66702e-05
-9.29431e-05
0.000284434
0.000109763
-4.18549e-05
5.42099e-05
2.44133e-05
0.000281043
-0.000270003
3.6269e-05
-9.57936e-06
-7.33755e-06
0.000463289
9.64288e-06
7.90356e-05
6.74196e-06
-3.64218e-05
7.94036e-05
0.000210741
-0.000119336
-0.000146679
-0.000435709
0.000198674
-0.000188454
1.36953e-05
7.71174e-05
-0.000447157
4.28671e-05
4.95442e-05
-3.47382e-06
1.50924e-05
-0.00035141
0.000139866
-0.000146743
-2.82019e-05
2.60421e-05
0.000280944
2.16815e-05
-4.42977e-05
-0.000144668
-1.35052e-05
-0.00092217
0.000177424
-0.000126511
0.000107629
-0.000169475
0.00101352
-0.000961473
6.6277e-05
2.34108e-05
-0.00024886
4.98113e-05
-5.42595e-06
0.000128133
-0.00108861
3.26025e-05
0.000273239
-0.00012688
0.000123218
0.000143469
-2.08693e-05
0.000937835
0.000122475
-0.000185318
5.39256e-05
-9.8663e-06
8.63174e-05
0.000145661
2.69115e-05
-0.000916606
0.000635775
8.71485e-05
-3.81627e-05
-0.000353264
3.12202e-05
0.000112854
-0.000208523
6.10876e-05
0.00111823
6.9735e-05
-0.00108257
-9.24744e-05
4.95772e-05
4.48792e-06
5.94796e-05
7.9511e-05
-0.000105445
0.000162964
0.000506686
-0.000730959
0.000224273
0.000439782
6.69041e-05
0.000451429
-1.16467e-05
-0.000310332
0.000467568
-0.000680904
-0.000604073
-0.000505332
-9.87408e-05
1.76694e-05
-3.6479e-05
-5.13661e-05
6.17145e-05
-0.000938472
-0.000121163
0.000245822
0.000175743
0.00024132
9.64464e-06
-7.19059e-05
-4.2187e-05
-2.5878e-05
-2.4237e-05
2.81941e-05
-1.42926e-05
-0.000150577
0.000151312
-7.32596e-05
3.75352e-06
2.06936e-05
9.16475e-06
0.000427323
0.000810894
-0.000204452
0.000288737
-6.48337e-05
0.000411751
-0.000213573
7.50619e-05
-0.00021878
-0.00100889
0.000135333
-2.36095e-05
0.000209703
-0.00047746
-2.78716e-05
0.000619555
-0.000183188
-0.000823769
0.000118313
4.27716e-06
0.000392412
-0.000135758
6.81718e-05
0.000147885
-7.34245e-05
2.89187e-05
9.87295e-05
-0.0011536
0.00104174
-4.5393e-05
6.78256e-05
-3.09932e-05
0.000299927
-0.00033676
-0.000248795
0.000221471
-8.83119e-07
3.45762e-05
-0.000139398
2.66439e-05
7.94598e-05
-0.00119227
2.16631e-06
0.00068303
-0.000384174
0.000237586
-4.10465e-05
0.000298558
0.000167164
-7.27418e-05
-0.000139994
-0.000143594
7.50649e-05
-0.000112932
9.01383e-05
-0.000118002
-7.34813e-05
9.88941e-05
-3.32539e-06
-0.000620542
-0.000346287
-0.000257886
-0.000339827
-0.000233226
-4.34743e-05
9.19796e-05
2.11768e-07
-5.73192e-05
3.12295e-05
0.00101656
-5.93818e-06
-9.06686e-05
0.000432079
-0.000470466
-0.000258793
-3.21787e-05
0.000246964
-0.000803604
0.00112354
-0.00013352
0.000261599
1.26735e-05
0.00020393
4.87892e-05
1.65386e-05
-2.76147e-06
0.0010401
8.07964e-05
7.50151e-05
-0.000139615
-0.000168122
0.000502877
-0.000489839
-0.000726213
0.000140558
-0.000883159
4.12366e-05
0.000253376
-5.737e-05
-5.06944e-05
1.48086e-05
0.00108894
7.07708e-05
-0.000198777
0.000164209
-0.000473539
-5.22272e-05
-0.00038627
0.000245981
0.000452033
0.000318946
-0.00027005
5.43663e-05
0.000331043
3.64353e-05
4.75871e-06
-4.28175e-05
0.000189073
-1.16486e-05
-0.000211657
0.000195078
-0.000966287
0.00103434
-0.000248901
0.000180848
0.000169492
-7.76104e-06
-2.58956e-05
9.18069e-06
-0.000242949
-0.00024851
0.000303765
-0.000277631
0.000322312
0.000102587
-4.82709e-05
6.62446e-05
-6.70974e-05
-2.07338e-05
-4.97402e-05
-0.0011599
0.000143468
0.000444742
-1.23346e-07
-7.07931e-06
-0.000114607
-0.00107215
0.000970915
1.97542e-05
-2.00072e-05
0.000993873
0.000361678
0.000560428
-0.000483456
-7.69726e-05
-7.66273e-05
0.000249992
0.000160957
4.3308e-05
-0.000206816
0.00020493
-0.000911299
0.000923433
-0.000258997
3.79058e-05
-0.000174356
0.000115057
5.92986e-05
0.000228599
-0.00026461
5.42428e-05
5.65348e-05
5.85223e-05
-0.000280673
-0.000275418
0.00032005
-0.00106736
-0.000255897
7.93563e-05
-1.52843e-05
-1.49498e-05
-0.000348289
0.000349574
0.000179202
-2.7468e-05
-0.000151734
-7.23974e-05
-0.000110262
-0.00021931
1.18061e-05
-0.000129006
6.7921e-05
0.00022929
-0.00025669
0.000189714
0.000207648
-2.7449e-06
-0.000247022
-8.87504e-06
0.000330213
0.000188735
4.5071e-05
-1.02677e-05
0.000268093
0.000135522
5.30978e-05
-0.000317049
0.000183227
2.434e-05
-2.4894e-05
-5.83709e-05
5.64698e-05
0.000197697
-1.84944e-05
-0.000245883
-1.13909e-06
4.12382e-05
0.000124645
0.000262596
-0.000241198
1.2474e-05
-0.000140628
-0.000130594
4.47537e-05
0.000105306
0.000445883
0.000129238
-0.000226296
-2.77597e-05
-0.000257943
0.000222632
-2.49347e-05
-0.00011724
6.55578e-05
0.001056
-9.57616e-06
-0.00101684
-5.45081e-05
1.85925e-05
0.000346107
-0.000185073
-0.000302139
-0.000224807
-3.82806e-05
8.22038e-05
-1.37652e-05
0.000453479
4.11423e-06
7.09009e-05
-0.000188801
0.000230039
-7.15906e-05
0.000334187
0.00140937
-0.00113906
0.000356003
-0.000924991
-7.44895e-05
0.000207757
2.55223e-05
0.000244487
-9.72052e-05
0.000556855
-0.000727779
-0.000122984
9.15027e-05
-1.80599e-05
0.000196089
-0.000148125
0.000227829
-8.08834e-05
-0.000888165
6.76236e-05
0.000254239
-0.000365606
0.000399896
-8.68887e-05
0.000589261
0.000924718
-0.000265381
0.000140738
-0.000238882
0.000311339
-0.000134553
0.000123181
0.000682982
5.18075e-06
5.26947e-05
0.00019988
-1.0807e-05
-5.3449e-05
0.000136806
-5.52149e-05
-3.61566e-05
0.000334299
9.48256e-05
2.61371e-05
-0.000147529
5.90816e-05
-2.18304e-05
-3.97556e-05
3.90103e-05
2.82327e-06
-0.000352177
9.23898e-05
0.000110864
2.49912e-05
0.000912876
-0.000922268
0.000167606
9.23818e-05