/*--------------------------------*- C++ -*----------------------------------*\
| =========                 |                                                 |
| \\      /  F ield         | OpenFOAM: The Open Source CFD Toolbox           |
|  \\    /   O peration     | Version:  v1912                                 |
|   \\  /    A nd           | Website:  www.openfoam.com                      |
|    \\/     M anipulation  |                                                 |
\*---------------------------------------------------------------------------*/
FoamFile
{
    version     2.0;
    format      ascii;
    class       volScalarField;
    location    "0.76";
    object      k;
}
// * * * * * * * * * * * * * * * * * * * * * * * * * * * * * * * * * * * * * //

dimensions      [0 2 -2 0 0 0 0];


internalField   nonuniform List<scalar> 
1431
(
2.23695
1.90748
0.205618
0.105505
0.342926
1.84335
0.158647
6.12875
1.96712
0.120183
2.39955
6.22463
3.06971
0.599343
0.620201
0.132654
0.796141
0.423554
0.775648
0.58021
4.02096
1.03592
1.757
7.23138
1.84928
2.15565
1.83264
0.470075
0.81183
0.469196
0.701597
1.01616
0.64556
0.340056
2.51817
0.161486
3.41001
0.0706489
0.0496751
0.856486
2.27179
2.63573
2.70746
0.0911465
1.50152
0.424344
1.08023
1.62264
0.171001
0.091378
2.14079
0.082598
2.50904
6.61909
1.3201
1.46647
0.276801
6.77045
0.955044
0.327421
0.490989
0.0593853
0.0686093
0.047391
0.0366048
0.0669141
0.199464
0.111411
0.208084
0.589963
3.52276
0.383987
0.0729793
0.263873
0.546947
0.354448
0.12107
0.0322354
0.08828
0.330494
0.804508
0.152339
4.20211
1.24999
3.38481
0.160441
0.173227
0.837363
4.47963
5.18739
0.668517
0.365175
0.182941
0.113727
1.21449
0.475197
6.43317
4.66073
0.0882238
0.448906
2.04946
0.0742453
0.992966
0.297736
0.0497175
0.933156
1.2301
2.14775
1.37049
0.967919
0.300392
3.31331
1.02921
2.10759
1.7926
0.345768
0.489753
0.0868198
0.107353
0.05277
0.693087
0.750442
3.18353
0.547006
2.62523
0.0682843
0.0962324
0.593214
0.177936
0.369651
0.709769
0.486074
0.340465
0.694733
0.765767
0.142278
0.0666487
0.11037
4.91313
0.0797128
0.0374677
0.60778
0.865706
0.20249
1.81944
0.626609
0.101075
2.32789
0.116163
0.290196
0.102703
0.253071
0.921758
0.113546
1.20259
0.14266
4.10546
3.16306
4.95758
0.212985
6.00135
3.38375
0.0643738
0.173677
2.78707
2.11832
2.01416
1.63996
0.0854083
3.53904
5.86351
2.69884
0.760042
4.98471
2.498
3.9576
0.295175
1.6716
2.47179
2.64367
0.0861564
0.070498
1.41871
9.92187
1.68117
1.17656
1.54529
3.16185
0.777055
3.82438
0.659938
0.831201
0.868244
2.63076
0.103605
3.70681
4.67344
2.25329
0.194512
0.962812
1.61591
0.0767846
2.02584
0.242388
3.14398
0.707694
0.984237
0.176274
5.64536
0.827542
1.92843
0.0558881
1.17756
0.958443
4.88183
0.663774
0.951118
2.29753
1.50009
1.85901
1.18736
1.37652
1.45758
0.115274
1.27399
6.80367
2.34737
4.08269
1.14393
1.24782
4.62085
0.684868
0.904711
0.836931
1.05927
5.9932
1.11763
0.991183
0.63922
1.02005
0.268274
2.313
6.14108
0.852708
0.810737
1.37144
0.938034
1.99079
1.24986
0.0772179
0.502097
4.83355
0.184465
0.078781
0.683578
2.34553
0.154379
7.66946
5.78342
0.909552
0.873271
4.83053
1.42844
0.264567
1.38378
2.31721
2.61858
3.64579
1.56364
0.242769
1.44475
1.05699
1.43421
0.564581
5.71219
0.728504
5.42523
1.19963
0.728062
0.985216
2.95769
3.42839
0.623135
1.64251
0.644528
4.98113
2.3973
5.26156
3.3182
1.99383
0.157727
2.39377
4.17964
2.83154
0.936457
1.13328
1.91851
1.3413
0.78051
0.798423
2.56136
0.282206
1.0394
2.72589
1.19985
0.127222
2.56699
0.86332
2.80744
2.96923
4.07291
0.0613099
0.0634481
1.26109
2.11651
4.52595
2.3148
0.938517
0.184912
11.0958
2.55903
4.15925
0.243907
2.45461
2.08032
0.328207
0.313818
2.14517
6.63322
0.0747264
1.00255
0.284725
2.14848
1.22945
0.252547
2.73176
2.13911
5.82455
2.00337
1.19775
0.103412
2.75566
3.51897
2.14698
1.97443
0.765633
1.58303
5.2512
3.5738
2.87677
1.78815
0.216485
2.42785
2.84639
0.372466
1.0644
3.97174
1.62795
4.37352
2.34207
1.13619
1.05745
0.889162
0.695071
0.238398
2.94781
1.97904
10.9004
1.15839
0.621207
2.218
0.424078
4.88836
2.07532
2.11821
8.70139
2.99449
0.52735
1.93636
9.69155
3.57015
1.85491
0.69628
0.403173
12.2906
1.94659
2.63801
1.93268
1.99159
2.17073
0.307428
2.76909
2.79541
0.106003
6.07466
2.5296
3.23964
3.22422
1.98087
2.02857
3.06233
2.06169
5.23799
2.28461
0.905867
3.07299
1.79909
0.23257
0.44559
3.08188
3.36378
2.23875
3.09055
3.00862
1.8871
0.215163
2.60136
0.250371
2.03116
3.09589
1.47148
3.14501
1.63562
2.71131
3.10368
0.436503
0.443016
1.23922
0.827808
6.21416
3.5027
3.53386
3.61894
3.63103
3.66239
3.61772
3.59329
3.60505
3.6498
3.62946
0.412552
4.9008
0.345041
0.212841
0.191657
0.163444
0.187451
0.187934
1.26937
0.976254
0.94151
0.122963
0.157486
0.220626
0.158593
0.154697
1.19039
6.98616
0.234715
0.213513
1.06069
0.102843
6.68859
0.138519
0.238567
0.128535
0.247445
6.45872
0.141173
6.19611
0.108472
0.0974964
0.293839
1.49864
4.9439
4.71877
0.171079
0.0654176
0.171584
0.0992475
1.46034
0.213068
5.0295
0.111801
0.301854
1.44654
0.310733
0.229864
0.173718
0.361236
5.22213
0.0938663
0.311801
0.73905
1.38486
0.33134
0.510486
5.21703
0.147124
0.761851
2.22738
1.42605
0.521539
1.0315
5.07777
4.85835
0.371789
0.325486
0.406442
0.488316
0.930347
1.55485
0.246175
0.589435
1.08957
0.101567
2.19848
1.15129
1.6537
4.94142
1.42269
0.770268
0.896295
0.0909653
1.67069
0.135928
4.85029
0.843807
0.427789
0.248436
1.91056
1.73188
2.30326
2.39682
3.41957
0.988573
0.735496
1.7906
1.72868
0.523018
3.2563
1.20438
2.21483
1.28162
1.31546
0.816327
1.76615
1.62623
3.25826
3.34376
2.51589
1.0404
2.01637
2.94489
0.116008
1.7434
0.16056
2.25361
1.65132
5.03689
3.41664
4.73043
4.60716
2.5596
7.80584
2.12948
1.02563
0.142185
2.79117
2.2433
3.15676
3.46346
3.66159
0.764174
0.996437
2.0133
0.100794
1.6473
3.44813
3.41074
3.17926
2.68431
1.57025
2.60781
2.80299
1.08813
0.786751
1.5852
1.29663
0.711064
3.14675
1.99629
2.12623
2.00849
1.35002
3.39313
1.30659
2.61019
3.74774
5.26992
1.83281
2.26864
2.88677
1.5313
2.46248
1.79643
1.50203
3.11809
0.150142
0.225478
0.115199
2.26401
2.80985
3.47962
1.88136
2.15261
3.35812
0.236149
2.28891
2.6312
2.35976
2.19334
0.841155
2.84397
2.58372
1.85613
3.30409
0.443879
2.96824
1.00035
2.78519
2.12297
0.046672
3.66273
3.13706
2.45007
6.06623
0.433754
1.75712
1.49172
1.96019
5.01847
0.238355
2.91387
1.74134
2.45983
2.15793
2.04636
3.33199
2.55685
2.70271
2.90821
1.42606
2.72292
0.362517
1.87989
1.89576
2.0769
1.51498
5.3608
6.17653
3.1666
2.57219
2.85642
2.33893
1.62448
0.707525
1.30411
2.35028
0.216156
3.10339
2.14971
2.27383
3.64276
2.5473
1.03989
2.32462
1.30245
1.55649
0.845411
1.24801
1.07003
2.52149
2.28873
0.0725023
0.166812
3.21421
1.67084
0.426177
0.675676
2.40071
1.16713
2.13985
0.50745
0.276052
3.60945
1.90235
1.4929
0.210332
4.10664
1.34743
2.48889
3.20191
0.377136
1.56877
2.42611
1.26465
1.61887
2.01307
2.21739
1.95346
0.745329
0.961557
1.29262
0.625195
2.19714
2.87718
1.39863
0.276347
1.88972
2.29917
0.730931
4.70364
3.10986
0.689033
1.77685
1.58794
2.83676
2.13856
2.99845
0.0699933
3.80275
2.31685
0.282905
3.16323
1.16758
2.09518
2.20564
2.31163
0.185488
0.535344
1.96142
0.467713
1.58618
3.29034
1.78134
1.37487
0.286041
1.82224
0.113164
1.79668
1.21914
0.875176
0.112583
8.2728
1.76019
2.01734
0.315656
1.80988
0.32475
8.68342
3.13554
1.25099
0.148072
0.177954
1.27093
0.122757
0.147696
2.85844
0.744766
2.54539
0.920342
1.64232
2.0462
2.02089
2.12936
0.15198
1.87538
2.68186
0.671638
2.53134
0.0861106
3.08616
0.15284
0.876957
4.87492
1.66731
2.4765
0.796666
2.31336
2.32026
0.480201
1.00167
2.93756
0.922069
0.173612
0.182081
0.87673
0.146921
3.08669
0.889645
1.31359
0.295994
3.2987
3.39207
9.92856
0.919833
1.94003
1.99695
1.65446
10.0836
0.277843
1.61623
4.52759
2.72902
7.38215
3.04783
0.420865
3.57546
1.87938
0.216463
2.15666
2.89717
3.5106
1.09872
0.55017
2.24923
0.59871
0.432446
0.0962903
3.53542
2.46119
2.35664
0.827454
2.28473
6.60334
1.26153
3.68115
3.23212
1.21683
3.1288
0.464137
0.126285
1.00023
2.94274
5.99481
0.232376
8.04694
1.75202
5.71491
1.22268
0.605936
2.28229
1.11096
0.184477
0.0935626
0.463092
1.8235
0.154141
0.0482403
1.04134
2.48811
1.89356
1.85487
3.43923
2.44312
3.41023
0.0995943
5.05708
2.51191
3.63442
8.57505
2.68966
1.13808
1.25148
0.316908
0.179692
1.47678
2.22221
1.76267
6.05833
0.167412
1.84611
2.93783
8.37333
7.04343
5.60778
0.77838
0.698945
0.718987
0.716483
0.716086
0.893515
0.672449
0.494189
0.520346
0.504926
0.509169
0.635101
0.989127
0.515586
0.51131
0.54483
0.508007
0.647108
0.62335
0.496806
0.602311
0.596651
0.486085
0.591696
3.28088
4.96634
0.0967859
1.66413
1.75789
0.958758
0.681415
4.69286
1.11501
0.635662
0.788862
0.563985
0.49611
7.65136
1.37503
0.224448
5.41936
1.57912
3.49893
1.02884
0.206108
7.93281
0.309992
0.576258
2.38456
2.36134
0.154955
0.736851
4.11863
0.810679
1.26814
3.20778
1.99638
2.50626
2.86314
4.65318
0.160734
0.0747983
0.451365
0.126524
3.05827
0.850866
0.466749
2.01308
2.47424
1.15239
1.20621
0.279887
1.22855
0.718704
4.27046
3.36367
2.67573
1.24328
0.312836
1.4279
0.231502
0.54685
0.460766
0.107413
2.66004
0.8389
2.36659
0.208592
1.09659
0.366718
2.88643
0.143027
12.1442
2.83732
0.975893
0.11444
6.27593
2.82174
5.48782
0.132641
0.0933657
0.206982
0.412085
0.447304
3.06876
0.886224
5.53166
5.44482
0.559406
2.82148
0.115857
0.961119
1.19757
1.37039
0.838659
0.715538
1.42033
1.60092
3.08521
1.11555
2.94201
0.19529
0.133587
1.14903
1.2102
1.07028
0.23917
2.71825
2.2587
2.4937
0.426176
2.67529
2.43271
3.93271
5.926
0.161774
0.770418
0.470843
0.206283
2.90899
7.35154
0.466202
1.84326
0.667242
5.84789
4.49254
0.210641
0.775381
1.10337
2.58533
2.67896
3.52906
2.82012
2.48237
0.0928273
2.47535
0.0617595
2.4247
1.70745
2.96923
3.44098
6.2519
5.27423
2.40639
1.30302
2.6231
0.237239
0.512797
0.0911841
0.222511
0.0936884
2.74126
3.32043
1.95967
2.66211
3.1318
5.86383
0.0539159
0.158234
3.59984
2.88983
2.47484
3.00363
3.68594
3.47288
2.95057
0.556225
2.86382
2.78872
2.81681
2.88227
2.73512
2.59173
2.94918
2.47771
0.0401374
0.0411887
0.0407819
0.0366153
0.0330443
0.0385034
3.1114
1.17764
3.45893
1.12871
2.40742
0.469614
0.0803933
2.85986
0.11134
0.175428
2.79946
0.0885925
0.99005
1.02936
0.122208
0.464851
0.354933
2.69584
3.26895
1.21881
2.34895
1.169
0.306182
2.47481
10.9657
1.03868
0.420229
0.935772
2.69925
0.38126
1.59491
3.59029
0.163692
2.37466
0.0569386
0.512432
0.165584
0.465727
1.22968
0.265426
0.0612066
1.22319
0.36961
0.291927
3.24643
3.07749
0.407995
1.01184
2.03405
2.71281
0.0987846
3.33248
5.30613
0.626974
4.03044
1.16386
0.351709
1.54968
3.65477
0.115309
2.70437
1.5309
2.17765
2.99737
0.469999
1.06721
0.431787
0.100662
2.66598
1.59409
3.06239
3.56799
2.01622
4.54992
4.39387
0.742738
1.87421
0.978234
0.119794
0.323706
0.162529
1.00185
0.343701
5.92676
3.27277
0.246263
3.18992
2.68633
0.846902
3.13542
0.437127
1.4252
3.39928
1.47268
2.52063
0.0684878
1.58334
1.95642
3.34845
3.2575
2.34368
0.0681717
0.407071
1.11541
5.55858
4.64919
2.30297
2.77013
2.14206
0.0918238
7.82256
0.33934
1.44308
1.39933
0.932352
0.439116
2.74705
0.105105
0.779284
1.09781
4.68834
0.555707
3.39427
2.2997
1.19516
0.0929849
0.311909
0.13857
3.69786
1.04872
3.09427
3.73474
2.79086
3.22447
2.66054
0.707574
0.105465
0.811202
0.515704
2.25365
2.82481
2.55404
11.9153
0.97268
0.561122
2.50034
4.6543
2.43798
0.106767
0.928493
1.77593
1.45982
1.83692
1.91148
2.33651
2.04563
0.568274
1.95004
0.707516
0.128992
2.36073
4.13732
2.42666
4.00962
1.9588
2.06941
2.34571
2.75077
1.19785
0.295474
1.41498
0.763163
0.114474
2.49828
6.30799
2.51399
2.62247
0.110098
0.215429
0.75292
2.46252
0.735767
2.87109
2.73758
3.6409
4.22694
0.474026
2.72608
2.56333
3.04189
3.31168
1.37754
0.732432
0.479127
0.904983
0.683749
1.27535
0.756013
1.14434
7.57113
2.8393
0.324913
1.44617
3.02301
1.98661
0.733092
1.21154
0.466692
6.73534
1.76806
0.166289
0.0656494
10.7987
2.06032
3.00574
0.14376
0.249273
3.28016
0.759314
5.78038
0.128105
0.17335
0.339397
9.14185
0.048368
5.79916
5.13751
0.672025
1.46346
3.75742
6.09289
3.50883
2.64766
0.427215
0.338187
1.37145
0.941891
0.354923
4.51554
0.143044
2.23459
2.33558
7.40044
0.599857
0.603534
0.0782548
3.66537
0.210823
1.17072
0.4255
6.56353
0.187478
0.305443
1.11328
3.18567
1.29134
0.982063
0.397885
0.0979991
0.184012
4.78243
8.41954
0.177834
2.16051
0.421271
0.162788
0.758995
0.946232
0.618701
2.25469
0.104488
0.712952
0.715439
0.982869
5.11284
0.962568
0.0541057
1.13971
0.87444
0.0904117
0.204194
2.33389
0.950919
0.1497
0.62302
0.719747
1.00551
0.0700545
0.045648
4.95094
4.32099
1.32599
1.06289
0.136958
0.1605
0.0571701
1.16434
0.135064
0.151933
0.212363
0.221859
0.305903
0.107929
5.64414
1.11643
0.657332
3.31783
1.54954
4.41929
2.50546
0.100994
0.534822
1.19075
0.660563
2.97555
0.375883
1.16666
0.79696
0.737287
0.136362
0.706087
0.0959219
0.370571
0.106994
2.14286
2.79896
1.12856
1.49269
0.298816
1.05621
0.576072
0.786948
1.27148
0.29227
0.384857
0.92745
1.41735
0.154424
0.0466909
1.02708
0.944053
0.465402
0.297704
)
;

boundaryField
{
    frontAndBack
    {
        type            empty;
    }
    wallOuter
    {
        type            kqRWallFunction;
        value           nonuniform List<scalar> 
96
(
0.81183
0.469196
0.475197
2.27383
2.32462
2.28873
0.675676
0.50745
0.276052
1.90235
0.210332
1.34743
0.377136
2.42611
1.61887
2.20564
2.31163
0.535344
0.15198
0.876957
0.173612
1.09872
0.55017
2.46119
2.35664
0.77838
0.698945
0.718987
0.716483
0.716086
0.893515
0.672449
0.494189
0.520346
0.504926
0.509169
0.635101
0.989127
0.515586
0.51131
0.54483
0.508007
0.647108
0.62335
0.496806
0.602311
0.596651
0.486085
0.591696
0.576258
0.850866
0.466749
0.54685
0.107413
2.36659
0.559406
1.11555
0.770418
0.470843
0.466202
2.67896
0.0928273
0.0617595
2.96923
2.88983
3.00363
2.95057
0.556225
2.86382
2.78872
2.81681
2.88227
2.73512
2.59173
2.94918
2.47771
0.0401374
0.0411887
0.0407819
0.0366153
0.0330443
0.0385034
0.469614
0.122208
0.465727
0.469999
2.34368
0.13857
2.82481
2.87109
0.732432
0.479127
0.048368
2.64766
2.33558
0.0782548
)
;
    }
    inlet
    {
        type            fixedValue;
        value           nonuniform 0();
    }
    outlet
    {
        type            zeroGradient;
    }
    wallInner
    {
        type            kqRWallFunction;
        value           nonuniform List<scalar> 
126
(
0.955044
0.327421
0.490989
0.0593853
0.0686093
0.047391
0.0366048
0.0669141
0.199464
0.111411
0.208084
0.589963
3.52276
0.383987
0.0729793
0.263873
0.546947
0.354448
0.12107
0.0322354
0.08828
0.330494
0.804508
0.152339
0.448906
0.345768
0.489753
0.0868198
0.107353
0.05277
0.693087
0.750442
3.18353
0.547006
2.62523
0.0682843
0.0962324
0.709769
0.486074
0.0797128
0.0374677
0.865706
0.20249
0.101075
0.290196
0.253071
0.113546
2.78707
0.0861564
1.17656
1.54529
0.103605
1.92843
0.242769
0.728062
0.985216
0.157727
1.91851
1.3413
0.798423
0.282206
0.0613099
0.0634481
1.26109
0.328207
0.313818
1.00255
1.19775
0.103412
1.62795
1.05745
0.889162
0.23257
0.250371
1.0315
1.08957
0.248436
1.7906
1.20438
1.62623
1.0404
1.65132
0.996437
1.6473
1.29663
1.99629
1.83281
0.841155
0.046672
1.74134
1.42606
1.56877
1.26465
0.32475
1.13808
1.47678
0.718704
2.01622
0.599857
0.603534
1.19075
0.660563
0.375883
0.79696
0.737287
0.136362
0.0959219
0.106994
2.14286
2.79896
1.12856
1.49269
0.298816
0.576072
0.786948
1.27148
0.29227
0.384857
0.92745
1.41735
0.154424
0.0466909
1.02708
0.944053
0.465402
0.297704
)
;
    }
    procBoundary3to1
    {
        type            processor;
        value           nonuniform List<scalar> 
48
(
3.35386
2.16881
2.31456
3.02412
1.50373
1.91343
2.16881
1.55281
3.50966
0.189731
0.189731
0.217892
0.217892
0.211756
0.24431
0.230862
0.285944
0.270231
0.285944
0.268815
0.177913
0.356735
0.268815
0.947511
0.176086
0.210267
0.591765
0.356735
0.786234
0.46405
0.46405
1.19896
1.19896
3.50966
0.208826
1.36947
2.07723
0.176086
3.63987
1.30525
0.211756
2.68838
3.14744
0.268815
0.259529
0.886407
1.45569
0.169522
)
;
    }
    procBoundary3to2
    {
        type            processor;
        value           nonuniform List<scalar> 
29
(
0.165374
0.165374
0.0848409
0.0974703
0.226548
0.150355
0.0652453
0.176486
0.196747
0.183768
0.171816
0.238952
0.127941
0.101108
0.0837756
0.0945849
0.156644
0.17749
0.180339
0.101014
0.0944892
0.156644
0.043565
0.17749
0.0664758
0.113467
0.17749
0.258938
0.258938
)
;
    }
}


// ************************************************************************* //
