/*--------------------------------*- C++ -*----------------------------------*\
| =========                 |                                                 |
| \\      /  F ield         | OpenFOAM: The Open Source CFD Toolbox           |
|  \\    /   O peration     | Version:  v1912                                 |
|   \\  /    A nd           | Website:  www.openfoam.com                      |
|    \\/     M anipulation  |                                                 |
\*---------------------------------------------------------------------------*/
FoamFile
{
    version     2.0;
    format      ascii;
    class       volScalarField;
    location    "0.76";
    object      nut;
}
// * * * * * * * * * * * * * * * * * * * * * * * * * * * * * * * * * * * * * //

dimensions      [0 2 -1 0 0 0 0];


internalField   nonuniform List<scalar> 
1431
(
0.00449919
0.0121
0.000863965
0.000895125
0.00146828
0.00828104
0.00206803
0.00952692
0.00694795
0.00125525
0.00405877
0.0127007
0.0148805
0.00224934
0.00161509
0.00181659
0.00199018
0.00116666
0.00204074
0.00160228
0.00540328
0.00532911
0.00555444
0.0150905
0.00584511
0.0114613
0.00360011
0.00157726
0.000894107
0.000705575
0.00204552
0.00258113
0.00193488
0.00124887
0.0125886
0.00182862
0.0119554
0.00101538
0.000614897
0.00233118
0.00574771
0.00788246
0.013273
0.00123314
0.00383269
0.00192613
0.00352438
0.00340605
0.00230229
0.00132943
0.0131282
0.00119664
0.0142607
0.0126205
0.00919595
0.00786593
0.000887843
0.0135295
0.00173763
0.00100053
0.00142796
0.000469279
0.000451319
0.000421775
0.000261367
0.000346079
0.000778053
0.00058034
0.000772055
0.00123378
0.00367289
0.00116588
0.000449244
0.000854671
0.00148445
0.000937153
0.000566341
0.000314162
0.000599348
0.00106437
0.00168858
0.00065506
0.0123844
0.00408193
0.00654482
0.00195479
0.00138283
0.00298533
0.0103262
0.0129485
0.00149648
0.00143588
0.00214292
0.00169621
0.00814513
0.00066594
0.0119492
0.0201138
0.00110853
0.00125918
0.010997
0.000806043
0.002643
0.00111836
0.000422199
0.00237517
0.00299705
0.0032005
0.00422442
0.00223626
0.00110065
0.0154842
0.00562392
0.00480186
0.0113738
0.00120957
0.0013819
0.000545953
0.000531989
0.000363821
0.00129015
0.00156289
0.00247819
0.00124456
0.00254591
0.000441282
0.000574179
0.00257668
0.00099714
0.00345635
0.00130771
0.0010886
0.00381065
0.00155035
0.00175421
0.00154485
0.000956639
0.00120585
0.0135455
0.000452228
0.000351548
0.00194077
0.00146576
0.00066612
0.00541182
0.00182669
0.000537292
0.0129707
0.0015512
0.000931858
0.0009785
0.000967326
0.00246733
0.000582157
0.00334338
0.00210458
0.0100723
0.0172796
0.0132715
0.00264654
0.0187648
0.0156093
0.000679491
0.00176741
0.00275487
0.00431865
0.00408134
0.00993774
0.00128021
0.0174751
0.017907
0.0146353
0.00221277
0.0135668
0.014624
0.0094646
0.00337724
0.00607579
0.0143238
0.0137007
0.000414429
0.00103266
0.00942115
0.0179672
0.00657947
0.00132802
0.0015086
0.01706
0.00241074
0.00741265
0.0022567
0.0024511
0.00258316
0.00356661
0.000521999
0.0187012
0.0207187
0.0125784
0.000870197
0.0015895
0.0105379
0.000786015
0.00405155
0.00210443
0.0155441
0.0023759
0.00234903
0.000698276
0.0147193
0.00232907
0.0020085
0.000549911
0.0029717
0.002396
0.0121466
0.00150689
0.00276495
0.0128964
0.0102069
0.00389721
0.00316759
0.00884999
0.00255082
0.00110858
0.00347666
0.0163015
0.00429339
0.0188438
0.00280491
0.00296195
0.00617133
0.00204179
0.00238298
0.00251089
0.00269869
0.0193174
0.00295334
0.00265173
0.0021706
0.00696934
0.00349453
0.0143444
0.0154734
0.00253812
0.0024626
0.00409156
0.0026721
0.00380148
0.0033419
0.00134825
0.00252312
0.0142075
0.00221537
0.00131248
0.00233564
0.00748978
0.00179677
0.0170351
0.0210713
0.00263655
0.00170026
0.0132496
0.00976104
0.00302398
0.00370405
0.00457799
0.0109638
0.00438008
0.00335402
0.000623597
0.00442969
0.00292616
0.00979294
0.00417812
0.0174467
0.00204967
0.0164353
0.00308082
0.001008
0.00151828
0.0154281
0.0128293
0.00181888
0.010504
0.00562338
0.0188061
0.00734503
0.0210146
0.00571297
0.0125544
0.000552334
0.00916928
0.0197489
0.0150875
0.00257872
0.00258537
0.00181936
0.00149059
0.00221571
0.00105264
0.0141917
0.000849432
0.00769444
0.014846
0.002861
0.00145775
0.0150797
0.00245903
0.0089191
0.0158125
0.0185166
0.000375711
0.00040477
0.00132015
0.00823528
0.0205091
0.0127865
0.00725299
0.00145578
0.013548
0.015247
0.019772
0.00081548
0.0129417
0.0104942
0.00095072
0.000861686
0.00722874
0.0126986
0.00112826
0.00116498
0.00166831
0.00749801
0.00604481
0.0033198
0.0147158
0.00728519
0.0195332
0.00971492
0.00129272
0.000544898
0.0144991
0.0153405
0.00531367
0.00743398
0.00231445
0.0104602
0.0158609
0.0173603
0.015206
0.00713555
0.00117318
0.0129879
0.0163511
0.001522
0.00731873
0.00799579
0.0018435
0.012188
0.00659907
0.00556715
0.00132595
0.00109811
0.00571834
0.00156402
0.00529888
0.00646366
0.0175182
0.00263764
0.00199813
0.00384148
0.00212133
0.011633
0.0132504
0.0055761
0.0182773
0.0168346
0.00294185
0.0122591
0.0184653
0.0157938
0.00840478
0.00382985
0.00145485
0.0167233
0.00803867
0.0149652
0.00711857
0.0106031
0.0136471
0.00363777
0.0150116
0.0150041
0.00124328
0.0206678
0.0138014
0.0142265
0.0138249
0.00601618
0.00946025
0.0167203
0.00568401
0.0211713
0.0075285
0.00607464
0.0137505
0.00769255
0.000591604
0.00447448
0.0140418
0.017702
0.0118066
0.0143397
0.0143678
0.00712063
0.000862817
0.0152969
0.000618712
0.00989927
0.0146105
0.00372016
0.014928
0.0106738
0.0158125
0.0148817
0.00193124
0.00173735
0.00368887
0.00549837
0.0141304
0.0150871
0.0147818
0.0146088
0.014606
0.0146352
0.0148487
0.0151995
0.0144776
0.0153527
0.0147696
0.00168694
0.0138455
0.00158716
0.00132298
0.00105825
0.0012082
0.00150205
0.00149369
0.00440763
0.00465551
0.00419408
0.00153233
0.00214954
0.00110189
0.00209361
0.00215731
0.00563012
0.0162158
0.00107219
0.00156832
0.00513317
0.00110764
0.015568
0.0018902
0.00191273
0.00128359
0.00115717
0.0149577
0.00153263
0.0142614
0.00151828
0.00139926
0.00122443
0.00620719
0.0136425
0.0136998
0.00177267
0.00113244
0.00135646
0.00150603
0.00633512
0.00143788
0.0137115
0.00165422
0.00136265
0.00597354
0.00143499
0.00122966
0.00116649
0.00363807
0.0134503
0.00150499
0.00197422
0.00630722
0.00481878
0.00166122
0.00291097
0.0128795
0.00192856
0.00210709
0.00896814
0.00900657
0.00141012
0.00120412
0.012586
0.0140796
0.00180309
0.00313455
0.00352764
0.001881
0.00708731
0.00506948
0.00137074
0.00422124
0.00110257
0.0017881
0.00925918
0.008474
0.00521256
0.0137354
0.0039748
0.00561684
0.00284892
0.00115224
0.0107273
0.00176777
0.011861
0.00229778
0.00162646
0.000598243
0.0121201
0.0103013
0.0129434
0.00585154
0.0139727
0.00776881
0.00403363
0.00171884
0.0112178
0.00167936
0.0151101
0.00158724
0.00512373
0.00826381
0.00351154
0.00424084
0.0116322
0.00157545
0.0146831
0.0130522
0.0147295
0.00130006
0.00578094
0.014596
0.00142437
0.00355585
0.00209938
0.00911984
0.00161817
0.00624791
0.0132386
0.0123458
0.0196333
0.0134022
0.00899784
0.00902818
0.00699023
0.00139469
0.0135456
0.00777125
0.0156625
0.0115971
0.0156946
0.00561681
0.00123823
0.0107038
0.00142185
0.00164694
0.0158456
0.0148861
0.0155577
0.00938157
0.00430291
0.0149108
0.0157528
0.00316397
0.00242463
0.00997976
0.00144528
0.00269756
0.0154091
0.00165881
0.0128262
0.0128536
0.00358892
0.0145859
0.00510247
0.0148551
0.018712
0.0140853
0.00169824
0.01325
0.0135219
0.00885244
0.0123951
0.00796302
0.00181074
0.0160604
0.00116018
0.0014855
0.00153385
0.0113207
0.0149432
0.0160384
0.00510276
0.0072108
0.00487574
0.00303613
0.013113
0.0139047
0.0136775
0.0135631
0.00113643
0.014565
0.0138479
0.00716496
0.0137248
0.00221286
0.013921
0.00606322
0.0149863
0.0120801
0.000299299
0.0159784
0.0157101
0.0136295
0.0105371
0.00423466
0.00432088
0.00977891
0.00561499
0.0205527
0.0031962
0.0138839
0.00167535
0.013527
0.0112944
0.0107133
0.004209
0.0153482
0.0134593
0.0101059
0.00147829
0.0147268
0.00187332
0.00908339
0.00650354
0.00780202
0.0108556
0.0152202
0.0201589
0.0133056
0.0135185
0.0151423
0.00952732
0.00436007
0.00223987
0.00906039
0.013427
0.00100935
0.0151531
0.0118086
0.00170366
0.0150627
0.01339
0.00328591
0.00172733
0.00632514
0.00493337
0.00625141
0.00862485
0.00741185
0.0152242
0.00169844
0.00061024
0.000801067
0.0155346
0.0047655
0.00187269
0.000875485
0.00508741
0.00279289
0.00500763
0.000758848
0.000531557
0.0140183
0.00143479
0.00434365
0.000437459
0.0154944
0.00119365
0.0142976
0.0154253
0.000644747
0.00173479
0.00178872
0.0013734
0.00131106
0.0128885
0.0099641
0.00602294
0.00415699
0.00265634
0.00337134
0.0016995
0.00484513
0.0137716
0.00307084
0.00252582
0.0047993
0.00532599
0.0023936
0.0136923
0.0157529
0.00262465
0.00777166
0.00338511
0.0134189
0.00334351
0.00442653
0.00118084
0.0163817
0.0134934
0.00311215
0.00657973
0.00299569
0.00505795
0.00157327
0.00167915
0.0024725
0.000768643
0.00688023
0.0040213
0.00463581
0.0152125
0.00779838
0.00523604
0.00120324
0.00506204
0.00137688
0.0111659
0.00790341
0.00653176
0.00148842
0.0156189
0.00507624
0.00637886
0.00134308
0.0073397
0.000711053
0.0174839
0.00621524
0.00334895
0.00185337
0.00113746
0.00302755
0.00179239
0.00207466
0.0131385
0.00485117
0.0113559
0.00237941
0.00465228
0.00530804
0.00589455
0.0132757
0.000390933
0.00816679
0.010942
0.00192236
0.0148873
0.000811324
0.0157914
0.00174623
0.000994126
0.0133688
0.00667907
0.0146264
0.00233059
0.0141603
0.00602291
0.00154522
0.00248904
0.0121092
0.00244434
0.000388899
0.00251004
0.00229742
0.00200124
0.0155403
0.00243363
0.00609296
0.00114995
0.0150169
0.0155133
0.0114953
0.00252484
0.00835474
0.00849485
0.00632108
0.0165529
0.00239857
0.0104724
0.011348
0.00980272
0.0169044
0.0151981
0.0019052
0.0133071
0.00533367
0.00130023
0.00455713
0.015354
0.0149434
0.00109537
0.000781652
0.00762903
0.00193281
0.00205206
0.00141558
0.013877
0.00169385
0.00160916
0.0023637
0.0142306
0.0132151
0.00293429
0.0138992
0.0153068
0.00813625
0.0157003
0.00456098
0.00190987
0.00245233
0.0151369
0.0187186
0.00178187
0.0169155
0.00781972
0.0201233
0.00290622
0.00195589
0.0133652
0.00686696
0.000819236
0.00062336
0.00419243
0.00555471
0.000869302
0.000646642
0.00689999
0.0150306
0.00644934
0.012152
0.015856
0.0104929
0.0159428
0.00140148
0.0150841
0.0113994
0.0154759
0.0104283
0.0106691
0.00117437
0.00393642
0.00118784
0.00223318
0.00197025
0.00969655
0.00364965
0.013448
0.00207507
0.0041958
0.00430372
0.0116305
0.0145627
0.00731894
0.000810192
0.000871206
0.000837792
0.000729143
0.000774533
0.000940301
0.000857738
0.000587436
0.000707772
0.000630215
0.000637219
0.000684982
0.00103428
0.00071717
0.000631228
0.000634208
0.000751059
0.00080742
0.000760952
0.000743283
0.000724275
0.000729956
0.000714037
0.000754125
0.0156415
0.0168914
0.00123145
0.01002
0.00764719
0.00488935
0.00269466
0.00865269
0.00240899
0.00204212
0.00372197
0.00132009
0.00394852
0.0160455
0.00532274
0.00159482
0.0183947
0.00476631
0.0161094
0.00392682
0.00171191
0.0176333
0.00123128
0.00076179
0.0120889
0.0144605
0.000699665
0.00480015
0.0109411
0.00175767
0.0047426
0.0152245
0.0059701
0.0130937
0.0151879
0.0120707
0.00152231
0.000980651
0.00201605
0.0017013
0.0157953
0.000992529
0.000708916
0.0103997
0.0144995
0.00834122
0.0046881
0.00108712
0.00721052
0.000960642
0.0106386
0.0153465
0.0149586
0.00198471
0.00124306
0.00547666
0.00324079
0.000695315
0.00230254
0.000363829
0.0146428
0.00237048
0.0014293
0.00132675
0.00356388
0.00122545
0.0149131
0.00186515
0.0149748
0.0127798
0.00267262
0.00125751
0.0108037
0.0122397
0.0194228
0.00188069
0.00133098
0.00282349
0.00241555
0.00163991
0.0154098
0.00239255
0.00659651
0.0131323
0.00072886
0.0124461
0.00160701
0.00225368
0.00549819
0.00353269
0.00240345
0.00275103
0.00370343
0.00365541
0.0148375
0.0011349
0.00977797
0.00273287
0.00163399
0.00463772
0.00248603
0.00193727
0.000856932
0.0139679
0.0140328
0.0147448
0.00104906
0.0147121
0.0146125
0.00819646
0.00683793
0.00186706
0.000796238
0.000674873
0.00218792
0.0123631
0.0145704
0.000708052
0.0071722
0.00202026
0.0186397
0.0123883
0.00270087
0.00339954
0.00278364
0.0138903
0.00178567
0.0068368
0.00997371
0.0147273
0.00032958
0.00418596
0.000257411
0.00895609
0.0111234
0.00210478
0.0122303
0.0116631
0.0151076
0.00898849
0.00556595
0.0123599
0.00261877
0.00404782
0.000699919
0.00309845
0.000913749
0.0145675
0.0119479
0.00879787
0.0143369
0.0116764
0.0182614
0.000596969
0.000813578
0.0160964
0.0019661
0.0109434
0.00222441
0.0135744
0.0154231
0.00192452
0.000734953
0.00178575
0.00167972
0.00164119
0.00221141
0.00195853
0.00186864
0.00178241
0.00188807
0.000225532
0.000194136
0.000175202
0.000196371
0.000142275
0.000174767
0.0155794
0.00312539
0.0133341
0.00257664
0.00880163
0.000698645
0.0011235
0.0144396
0.00149078
0.00239035
0.0149809
0.00137204
0.00292828
0.00556903
0.000395457
0.00161041
0.00188589
0.00974394
0.0147908
0.00315453
0.0110974
0.00305167
0.00211933
0.0148585
0.0152878
0.00306163
0.00161913
0.00330338
0.0135646
0.00414372
0.0106364
0.00728888
0.0018426
0.00944945
0.000665266
0.00247589
0.00225438
0.000630081
0.00489966
0.00113132
0.000789945
0.00425427
0.00152774
0.00137612
0.0150439
0.0106906
0.00242807
0.00456889
0.012096
0.00345444
0.00130469
0.0061138
0.0105646
0.00519943
0.00800814
0.00348141
0.00113733
0.00487013
0.0073329
0.000880953
0.0134164
0.00375407
0.00368526
0.0112395
0.00065632
0.0026519
0.00259251
0.00156018
0.00967704
0.00735586
0.0157088
0.0075699
0.0018805
0.00940416
0.0177003
0.00229311
0.0119407
0.00162068
0.000772046
0.00153491
0.00107847
0.00296806
0.00122373
0.0138133
0.0156092
0.00236591
0.00581996
0.01486
0.0041819
0.0122622
0.00275666
0.00378335
0.00610608
0.00326423
0.0121685
0.00100353
0.00419736
0.00626873
0.00538155
0.0120673
0.00139927
0.00075686
0.00171819
0.00346885
0.0094385
0.0130383
0.00498367
0.0106817
0.00785964
0.00161717
0.0165446
0.0015484
0.0046407
0.00588376
0.00274009
0.00155516
0.0102877
0.00163719
0.00118888
0.00288648
0.0110531
0.00263107
0.0150693
0.0105916
0.00581278
0.00141736
0.00143785
0.000411848
0.0115526
0.00359887
0.0124226
0.00845355
0.0134107
0.0155207
0.0149851
0.00188583
0.00148387
0.00206817
0.00155966
0.0104078
0.00184862
0.0145186
0.0184729
0.00228134
0.00365079
0.014612
0.0116652
0.0139429
0.00102796
0.00645256
0.00615951
0.00208626
0.00801393
0.00459128
0.00447151
0.00637626
0.00206122
0.0124481
0.00372865
0.00179775
0.012168
0.00696788
0.00872861
0.00567388
0.00773871
0.0119419
0.012281
0.0143956
0.00444831
0.00109895
0.00383794
0.00398984
0.00167936
0.0145559
0.00842335
0.0139184
0.0145303
0.000972757
0.00141459
0.00226577
0.0140076
0.00199387
0.00184283
0.0107299
0.0141424
0.0115262
0.00227957
0.0148438
0.0118958
0.0157675
0.00623804
0.0034469
0.000727619
0.000635213
0.00148245
0.00278445
0.00218754
0.00240638
0.00326076
0.0155054
0.0151513
0.00121627
0.00567352
0.0132517
0.0036965
0.002273
0.00290645
0.00170907
0.0138442
0.00901964
0.00101015
0.000830408
0.0180237
0.00993249
0.0122414
0.00127815
0.00203825
0.00395547
0.00454454
0.0104587
0.000944768
0.00219276
0.0023187
0.0173169
0.00022074
0.00781322
0.0132408
0.00565738
0.00376565
0.00682713
0.011505
0.0129115
0.00191454
0.00291738
0.00119527
0.00667543
0.0016713
0.00181411
0.011083
0.001109
0.00885416
0.00108859
0.0127998
0.000958386
0.000951323
0.000297674
0.00708787
0.00295343
0.00315148
0.00117762
0.0133384
0.00246325
0.00235444
0.00676105
0.0106434
0.00246338
0.00235316
0.00242177
0.00165616
0.00231209
0.0105076
0.0171865
0.00226755
0.0103707
0.00237356
0.00138568
0.0018438
0.00246086
0.00266359
0.00955562
0.00174175
0.0018824
0.00202454
0.00248867
0.0123318
0.0024471
0.000392788
0.00257779
0.00247143
0.00148551
0.00288733
0.00966774
0.00463507
0.00182488
0.00195104
0.00220987
0.00299002
0.000533582
0.000296434
0.0114516
0.00965671
0.00237703
0.00457855
0.00171953
0.00100076
0.000857784
0.00295176
0.00102439
0.00101274
0.00134231
0.0012575
0.00105899
0.0017091
0.0168066
0.00235007
0.00208129
0.0155096
0.00351139
0.01107
0.0136136
0.00166544
0.00274418
0.00127971
0.00101283
0.00444263
0.00107709
0.00531827
0.00120424
0.00116652
0.000527384
0.00179015
0.000459294
0.00259458
0.000367792
0.00243852
0.00286589
0.00180369
0.00188631
0.00073236
0.00125305
0.000934037
0.00115131
0.0015006
0.000660755
0.000808564
0.0016772
0.00163627
0.000559943
0.000301541
0.00142194
0.00160133
0.000995185
0.000763741
)
;

boundaryField
{
    frontAndBack
    {
        type            empty;
    }
    wallOuter
    {
        type            nutkWallFunction;
        Cmu             0.09;
        kappa           0.41;
        E               9.8;
        value           nonuniform List<scalar> 
96
(
0.000106352
8.4881e-05
8.021e-05
0.000194972
0.000197472
0.000194425
0.000104778
9.15974e-05
6.51042e-05
0.000166161
5.40408e-05
0.000140009
7.84885e-05
0.000203952
0.000152796
0.000180992
0.000192387
9.20075e-05
4.85172e-05
0.000118032
4.80896e-05
0.000129229
9.34978e-05
0.000193808
0.000184956
9.74063e-05
0.000103669
9.98878e-05
8.74305e-05
9.26573e-05
0.000112308
0.000102124
7.0894e-05
8.49819e-05
7.59288e-05
7.67785e-05
8.27658e-05
0.000122914
8.61238e-05
7.62827e-05
7.66909e-05
9.00612e-05
9.63784e-05
9.10405e-05
8.91793e-05
8.68046e-05
8.74775e-05
8.58057e-05
9.02802e-05
9.11722e-05
0.000117443
8.52495e-05
8.34928e-05
4.53531e-05
0.000165694
8.73705e-05
0.000134135
9.51897e-05
8.13203e-05
8.51374e-05
0.000203515
4.10495e-05
3.19182e-05
0.00023702
0.000222543
0.000249305
0.00021819
8.81018e-05
0.00020359
0.000192394
0.000188325
0.000247977
0.000221772
0.000212381
0.000203269
0.000214424
2.5718e-05
2.25269e-05
1.95271e-05
2.18699e-05
1.44382e-05
1.9184e-05
8.40342e-05
4.92922e-05
7.60058e-05
7.9086e-05
0.000162472
5.12975e-05
0.000210151
0.000209567
8.72698e-05
7.66882e-05
2.66365e-05
0.000217176
0.000128454
3.70912e-05
)
;
    }
    inlet
    {
        type            calculated;
        value           nonuniform 0();
    }
    outlet
    {
        type            calculated;
        value           nonuniform List<scalar> 9(0.0175182 0.0167233 0.00181074 0.0156189 0.0114953 0.00683793 0.00210478 0.00345444 0.0105646);
    }
    wallInner
    {
        type            nutkWallFunction;
        Cmu             0.09;
        kappa           0.41;
        E               9.8;
        value           nonuniform List<scalar> 
126
(
0.000199312
0.000118693
0.000166651
5.76731e-05
5.51042e-05
5.11482e-05
3.11311e-05
4.22113e-05
9.35723e-05
7.13389e-05
9.42351e-05
0.000144808
0.000394882
0.000137073
5.60163e-05
0.000102214
0.000171904
0.000112819
6.91232e-05
3.73731e-05
7.32534e-05
0.000125714
0.00019418
7.84603e-05
0.000146013
0.000143227
0.000160741
6.80099e-05
6.58218e-05
4.4045e-05
0.000151131
0.000180559
0.000274899
0.000145914
0.00028252
5.40266e-05
7.03017e-05
0.000153226
0.000128538
5.37342e-05
4.20645e-05
0.000170267
8.00946e-05
6.59277e-05
0.000112555
0.000116829
7.18104e-05
0.000303549
5.08329e-05
0.000154375
0.000174516
6.48224e-05
0.000226077
7.58955e-05
0.000119087
0.000174776
6.79261e-05
0.000207646
0.000171909
0.000124085
9.53427e-05
4.56132e-05
4.98652e-05
0.000154471
0.000114745
0.000101708
0.00013657
0.000151093
5.95535e-05
0.000209779
0.000154126
0.000129164
6.93156e-05
7.11763e-05
0.000142614
0.000131466
7.07725e-05
0.000197014
0.000183826
0.00018172
0.000152862
0.000186316
0.000143668
0.000188992
0.000166368
0.000189321
0.000194663
0.000132371
3.61586e-05
0.000191035
0.000171058
0.000197316
0.000159843
8.12878e-05
0.000138156
0.000222027
0.000112868
0.000213739
0.000113957
0.000113682
0.000150012
0.000118933
0.000127768
0.000142904
0.000133713
6.23429e-05
5.34955e-05
4.51128e-05
0.000271143
0.000315297
0.000205625
0.00021471
8.8301e-05
0.000111116
0.000134978
0.000173312
7.98628e-05
9.65661e-05
0.000191923
0.000186488
6.82352e-05
3.70064e-05
0.0001655
0.000184392
0.000117316
9.25184e-05
)
;
    }
    procBoundary3to1
    {
        type            processor;
        value           nonuniform List<scalar> 
48
(
0.0114507
0.00466212
0.00594798
0.0096731
0.00366591
0.00351966
0.00466212
0.0110171
0.0145297
0.00113667
0.00113667
0.00114922
0.00114922
0.00160217
0.0021167
0.00117924
0.00136029
0.00122567
0.00136029
0.00152779
0.00136906
0.00271814
0.00152779
0.00200894
0.00110556
0.00130083
0.00488357
0.00271814
0.00675169
0.00125083
0.00125083
0.00941739
0.00941739
0.0145297
0.00146242
0.00304667
0.0126942
0.00110556
0.0132032
0.00321403
0.00160217
0.0140338
0.0146743
0.00152779
0.00230369
0.00106408
0.003659
0.00123958
)
;
    }
    procBoundary3to2
    {
        type            processor;
        value           nonuniform List<scalar> 
29
(
0.00175855
0.00175855
0.000426957
0.000473123
0.000673008
0.000569767
0.000377657
0.00149212
0.00250614
0.00202031
0.00101335
0.00113911
0.00100306
0.00175078
0.00147619
0.00132954
0.00194072
0.00242111
0.00195852
0.00186279
0.00173281
0.00194072
0.000242855
0.00242111
0.000922114
0.000984697
0.00242111
0.00202772
0.00202772
)
;
    }
}


// ************************************************************************* //
