/*--------------------------------*- C++ -*----------------------------------*\
| =========                 |                                                 |
| \\      /  F ield         | OpenFOAM: The Open Source CFD Toolbox           |
|  \\    /   O peration     | Version:  v1912                                 |
|   \\  /    A nd           | Website:  www.openfoam.com                      |
|    \\/     M anipulation  |                                                 |
\*---------------------------------------------------------------------------*/
FoamFile
{
    version     2.0;
    format      ascii;
    class       volScalarField;
    location    "0.76";
    object      p;
}
// * * * * * * * * * * * * * * * * * * * * * * * * * * * * * * * * * * * * * //

dimensions      [0 2 -2 0 0 0 0];


internalField   nonuniform List<scalar> 
1431
(
92.0599
92.6231
90.3767
93.9065
88.3844
91.115
94.5771
38.0597
91.984
94.6556
44.7815
43.8824
92.9269
85.968
89.3239
94.6863
87.4663
89.8289
89.252
88.6316
39.9305
85.8006
91.8282
19.696
91.5316
92.9121
50.7826
90.4005
91.3437
85.741
88.5624
91.8062
88.8073
86.67
92.957
95.0577
89.9053
93.015
94.7517
91.3254
90.3562
90.1922
92.8499
94.7017
88.732
91.6877
87.2573
54.9976
94.5128
93.0561
94.336
94.7982
94.5524
51.4585
93.159
95.1069
90.0248
46.9498
86.4232
90.8087
90.628
94.5274
93.0602
93.0667
94.7099
94.4819
89.3455
92.8903
91.4184
87.9041
45.7543
86.4003
93.8324
86.7769
86.2573
91.8479
90.3143
93.1074
94.7719
90.889
87.0154
91.488
85.8465
87.8794
39.226
93.8245
93.5432
88.6689
51.6154
69.3973
90.6496
89.4131
92.9954
94.7884
93.2762
88.7926
43.5772
85.9347
94.6537
90.6453
95.0536
94.6105
86.4604
91.185
93.1448
88.3602
92.286
54.2656
90.2307
85.9012
91.2904
92.8972
89.8736
90.1332
92.8432
89.9185
86.1219
93.8895
93.9124
93.0872
89.1222
88.9306
53.2506
86.8937
42.3706
94.8474
90.4306
87.5081
90.4399
93.4295
88.0521
89.3432
93.4203
88.7715
90.0385
92.8925
93.1134
94.5153
48.6301
92.9877
94.7974
87.8566
86.6396
91.2269
93.3257
88.7342
92.9049
95.0117
94.7811
91.3456
92.9639
92.1872
91.2858
93.8359
91.4027
93.026
47.5465
90.4224
78.3838
93.5263
62.6475
92.6811
93.8333
93.6095
52.7778
90.9798
89.9247
93.0597
93.0636
89.9986
61.9651
94.8231
90.4389
49.2416
91.9283
47.0106
93.4119
89.9535
94.6064
93.2869
94.613
94.8324
93.9307
23.0421
90.7123
92.0531
49.378
90.5461
90.351
50.0508
88.7355
90.5945
91.2821
56.588
93.9669
87.3116
84.6809
91.6083
91.2161
90.1848
93.4465
93.8578
66.663
93.4315
93.2114
88.7015
91.6425
91.4866
48.886
89.71
37.3668
93.8238
91.9448
88.5358
41.1386
91.3903
91.2405
90.5976
93.9188
71.2204
91.4433
93.9959
92.7918
93.7971
91.4815
44.5675
67.507
88.2655
91.3184
69.16
35.8069
88.6684
88.7015
91.263
91.7325
71.1497
91.7715
89.3213
89.0498
93.7958
93.4462
92.8333
47.3289
89.5167
90.5884
88.3139
89.7111
60.547
91.6386
93.0433
87.1493
50.198
93.5992
93.7853
88.7225
90.8659
93.6871
39.9103
78.2617
91.1965
91.4439
49.8833
93.906
93.4306
91.4749
75.4104
92.8316
57.6217
60.1096
89.4166
90.6139
91.544
93.1057
93.8539
57.6956
90.3202
53.5017
84.7648
88.677
91.8017
94.5342
91.0605
88.6526
94.5588
93.3934
84.1538
90.5884
82.6176
45.5797
92.3961
91.3099
92.3514
87.027
94.3881
72.7512
91.0192
48.1409
92.701
91.1362
88.1692
94.7279
93.2104
93.3544
93.2716
90.2577
93.7671
91.9427
90.9362
90.3976
91.3781
83.6996
94.9342
94.4113
55.8557
92.1998
85.4895
92.2563
93.3228
90.5929
31.5451
91.7231
87.0862
91.3641
94.5571
92.8963
90.2434
90.999
91.4167
55.5075
93.8009
87.3607
91.1952
91.8547
86.155
93.4544
93.1333
91.8623
75.9106
92.3858
54.278
93.1591
92.9032
78.598
89.9019
91.7049
89.518
93.1502
51.5231
84.2176
93.9228
91.2077
90.9495
94.7135
90.3306
91.121
94.0457
41.2873
36.5363
49.1701
90.3379
85.6561
91.7126
87.2471
93.4498
90.9251
40.3953
91.6393
10.9173
90.955
86.1832
55.6726
88.0323
55.5324
93.3612
90.7487
49.003
90.2463
94.3495
89.8043
45.2505
92.3661
91.6979
93.7815
91.4913
11.657
92.532
93.702
91.6498
91.9824
93.4719
93.4598
93.8578
93.9171
93.8146
73.0795
94.9269
93.0342
93.2974
91.3327
92.1198
88.2271
90.8088
81.0998
91.0848
95.1034
93.5279
91.1802
93.7218
93.4132
93.5528
87.8031
93.0158
93.6836
92.0232
92.0543
91.1527
91.1835
93.4691
91.7483
93.8531
90.504
92.6334
94.4143
90.663
93.9919
88.2296
88.0182
89.9871
89.9041
29.3511
90.3712
90.1415
90.3846
89.7246
90.2833
90.937
90.5489
91.5716
91.4415
91.694
90.1239
47.0189
90.926
90.6979
90.699
90.444
90.3814
90.5467
87.6368
86.0719
86.4608
93.0068
94.4898
88.7076
94.4197
94.5489
85.8605
51.4241
88.2944
89.3005
85.7467
93.0454
51.4703
94.5723
88.7863
92.9627
89.9477
51.1564
92.9374
48.2293
94.7071
94.7622
89.4746
86.0609
47.9577
47.9273
92.6623
93.0773
90.2845
94.8118
86.2985
90.3403
47.3586
95.0089
90.5048
86.5038
88.1444
90.4868
90.2898
93.0974
46.0538
94.9409
90.1857
93.0752
87.4831
87.5861
90.047
44.412
94.9933
89.6845
91.3152
93.0032
88.7966
91.7731
44.6981
48.9069
91.2507
95.044
95.016
88.0712
93.0206
89.4817
87.8353
89.9604
91.4004
93.7673
90.8071
93.0539
88.9506
47.2911
87.6198
95.0408
88.8104
93.8216
93.028
93.7607
43.759
91.1449
90.0443
93.6319
93.0994
95.0923
93.2609
90.7537
92.1803
89.7757
93.8453
92.6418
93.1283
88.5131
93.3445
92.3381
89.9348
95.1019
89.8771
93.9854
93.7118
81.9535
93.1956
91.5521
93.0664
92.0835
90.7112
93.9292
93.0469
89.7249
93.6946
91.691
87.6712
53.2388
91.4522
47.0746
82.588
94.043
37.7146
94.1844
93.9598
93.7098
91.3606
91.8432
94.1722
70.4467
91.6725
95.0509
94.5591
90.4764
93.801
91.0478
91.0832
89.8633
93.9746
77.4787
88.5631
90.064
89.0106
91.9157
89.2614
94.9396
94.379
88.2079
91.1639
87.784
94.538
93.7253
91.4415
92.7609
87.9133
93.3763
88.7162
49.3203
71.794
93.2092
93.6749
94.9124
84.8818
91.9518
20.7499
85.3284
93.9788
90.8748
93.7981
93.8879
94.3935
91.5263
91.4131
91.0161
44.3237
93.4783
90.0808
93.2455
92.2782
92.681
94.6961
93.9445
93.7378
87.1836
92.4667
87.295
81.8068
94.2615
93.6648
95.1545
94.656
91.864
94.378
88.9423
40.5598
93.4668
90.5124
93.4158
90.9883
81.2082
93.5306
93.4269
88.8599
93.6216
87.8807
92.6043
35.3952
91.7412
90.9362
90.1586
90.8665
87.0465
91.3766
92.8565
91.8848
82.6469
89.6993
55.946
67.6649
92.6542
92.9566
94.2043
92.0262
91.4833
89.0737
89.7449
94.8914
91.4102
94.2128
92.6421
38.8016
92.0979
90.4444
87.7315
33.6582
85.8865
89.6821
93.5759
93.494
94.2324
91.8691
42.589
93.0598
89.7528
91.5274
90.583
90.5955
93.7869
92.0632
89.2391
90.3103
93.7595
93.6129
90.7757
90.0155
88.3189
93.5467
78.2768
92.7906
91.078
93.8077
93.6903
90.9514
26.9136
90.7835
91.6926
93.2933
92.9785
91.3075
93.8253
87.8028
91.0579
90.1216
91.2877
91.7225
90.59
93.7768
90.9008
89.9888
88.5929
49.1275
93.8407
93.3699
93.1334
91.3495
92.5558
56.0634
54.5591
93.0604
89.2434
89.807
93.5591
92.4738
89.7543
91.1926
87.6576
44.4132
93.62
90.7635
91.2731
93.5968
89.9429
90.6153
93.4989
85.8111
90.7407
91.3174
94.5886
93.2439
93.9545
93.3785
94.6459
9.68681
90.8578
91.7398
90.6326
91.4702
93.1292
33.1449
91.7529
91.5621
94.4523
88.0796
92.4903
94.7085
94.6113
93.6566
94.1528
92.3553
88.5733
90.3791
91.7389
91.4806
94.1173
93.4616
94.6727
92.6831
89.15
91.7048
93.134
94.0831
92.9034
93.7002
50.3728
91.2814
93.8089
90.4376
93.6229
91.5337
88.4914
91.5077
92.4304
90.7113
93.495
93.6751
89.2716
93.7969
93.2139
91.2782
85.7834
88.23
90.1714
90.9608
17.2736
91.074
92.4579
94.4536
90.9158
51.8034
93.4277
93.6293
44.3996
91.423
51.4397
90.8285
89.2663
90.8473
90.9486
90.9554
88.1185
94.6595
92.4621
93.4101
90.5884
91.4106
87.6394
89.5071
94.9232
91.1459
84.5816
43.5035
90.947
92.7136
52.3034
88.4525
90.0788
93.7492
94.9849
93.6201
92.978
93.0658
91.0198
94.309
66.4799
93.152
53.4668
94.9751
75.348
90.7232
87.2422
93.4131
94.0537
89.5877
93.0395
93.4234
95.9354
90.4716
93.1074
93.9683
92.1146
94.2867
93.7229
92.3027
93.2238
91.9479
94.8724
51.4355
93.3905
91.9556
51.4814
92.3193
90.4933
86.079
90.4361
94.464
92.5531
92.9006
90.6811
46.5527
93.7466
91.1367
37.1189
56.755
48.8412
36.34
62.6064
91.5362
91.1524
90.5437
90.7981
56.3278
91.914
89.199
90.6922
89.9796
88.7263
68.0167
49.1083
88.5278
76.9208
72.5438
88.7967
91.9677
91.6887
89.1663
91.3775
91.2346
89.1755
91.217
91.7464
75.4281
93.0351
89.8651
93.4307
86.1566
86.9376
39.8832
90.9847
84.1164
85.6367
88.787
94.9771
52.0724
87.9897
87.5587
75.393
91.2932
91.8712
86.9323
93.467
50.8366
88.9831
91.3176
92.8349
93.0093
94.126
94.9857
48.5316
90.9897
86.0996
92.2545
91.1293
94.3411
93.7176
57.2123
92.7559
94.7313
90.8978
93.8448
94.2471
91.4226
86.8828
90.1885
94.249
93.161
86.3261
88.8715
93.4784
94.8853
46.6319
93.1809
94.2089
90.3925
90.1842
86.1871
93.518
91.0823
87.4536
93.5034
94.5127
88.5259
41.386
90.8348
86.6602
89.2479
90.3102
94.5105
27.8142
93.4936
91.3675
94.8628
40.3251
93.2427
80.4296
94.6338
94.9515
93.5606
87.0542
90.2085
94.1468
88.6699
57.8901
36.127
91.3219
93.1388
93.833
89.7997
87.0335
90.5632
88.3212
87.9848
90.9659
90.7775
89.9441
39.2413
90.8481
93.6251
92.9842
87.9815
91.3049
88.5334
90.8744
93.617
92.6586
93.5255
91.1809
93.4686
93.1214
27.2041
19.041
94.5245
90.8011
83.9048
93.5234
93.0656
49.8162
87.38
91.8938
88.8451
68.9267
48.4886
93.6757
86.7752
91.3437
93.4438
80.8644
49.3864
91.0638
92.6812
93.57
50.3776
93.7359
91.3656
93.6857
7.88601
90.6565
41.5103
57.5077
91.9292
89.9653
93.4799
93.4619
92.9473
93.8092
93.5276
93.8496
93.9493
91.0545
92.2099
90.0662
91.3393
63.0595
93.091
90.2376
91.9372
53.3215
93.3524
52.4459
90.3649
92.7315
54.2042
90.7543
68.142
64.3167
60.5637
50.9414
50.9496
50.1623
56.8713
51.0449
93.8289
93.8361
93.8514
93.828
93.805
93.8033
93.6527
87.2882
91.1426
89.9875
91.623
87.5655
93.8086
89.8272
93.0511
94.4637
94.6033
94.8692
91.3846
93.4857
93.4656
88.721
87.5665
91.7637
89.8288
91.308
92.9293
79.747
94.1171
92.4126
45.9052
91.7648
90.6782
89.0793
91.9543
93.0465
94.1368
34.0297
93.1131
92.4879
93.8198
87.2738
93.7439
88.3255
85.8591
89.3871
93.8053
86.7852
88.1115
90.315
90.8131
90.6184
93.1926
87.4119
94.8926
17.5693
93.0697
43.0689
8.24475
93.4127
48.2357
86.6585
89.8226
91.2175
43.5178
93.7332
93.538
92.976
73.3271
91.6549
87.921
91.4177
86.8577
94.8729
91.6071
95.0315
94.3466
59.5549
39.7103
17.7267
87.0876
89.9008
93.2468
91.8735
93.8437
90.4336
89.8338
86.7202
90.615
48.4652
93.4685
94.9513
41.9395
94.1383
85.8596
92.0414
94.829
91.7326
82.3732
65.3311
93.1251
93.053
89.4476
91.9924
46.1827
91.0058
46.9755
94.6845
87.8815
88.0052
38.3628
82.4415
90.8579
91.7507
92.1775
93.7709
52.9776
87.6772
90.9171
86.9979
86.901
88.4351
91.9256
93.7831
88.4037
90.8151
53.0497
86.3284
93.0415
92.7744
86.6398
93.7857
90.4328
93.454
88.4816
88.2585
92.1335
45.8593
93.704
93.2891
94.0936
89.9135
93.8
87.4268
88.5904
92.9021
76.6411
92.9758
29.0981
91.1039
93.4932
92.057
62.1524
91.8248
94.4296
94.7619
92.6341
91.7633
93.8409
91.7347
90.9549
96.8119
87.1856
93.2521
86.5134
93.8193
92.7721
54.2263
91.9874
56.4794
92.0885
93.4448
93.0581
94.134
86.763
88.3912
90.3614
86.1223
93.8112
92.6052
37.9442
92.8072
93.1959
93.0219
89.1495
88.1909
92.433
90.7206
72.3209
91.9689
90.0606
49.259
86.9271
93.9154
93.3791
94.268
91.1601
89.7333
90.4745
80.9426
88.7109
87.8689
86.8045
88.653
91.9025
50.7395
94.5189
89.0445
86.2272
93.2094
56.7449
88.5898
92.3608
88.4149
53.7575
92.8996
89.8153
93.0619
38.2402
92.4105
92.3961
92.8672
88.5606
42.2909
93.5087
51.8129
93.8683
93.7036
93.4585
53.6933
93.8002
36.7653
73.9325
93.1304
90.7858
88.7079
48.1274
90.2555
17.0773
93.4716
90.9889
93.3886
91.7972
87.5547
64.9689
93.6351
92.6337
43.0945
56.5354
89.7967
88.3465
93.6519
50.2889
93.6199
87.3042
89.0475
54.2927
94.4237
93.4192
92.936
90.4209
86.8856
91.2785
86.8952
93.7661
93.7413
58.3692
53.9332
93.7097
92.0111
87.0083
92.704
90.6673
91.3709
85.8706
92.4534
93.788
89.4978
89.1593
91.6802
65.0535
91.5091
93.8485
91.2075
76.4479
93.777
93.6117
92.6338
86.7288
93.8668
88.3716
89.6385
91.6279
93.8485
93.8314
61.2168
50.4765
88.4002
95.0194
93.8554
90.1771
93.0773
91.5286
92.9722
92.8402
88.9135
88.9543
88.5655
93.8036
58.1434
90.9949
80.9356
93.2379
87.5297
47.7026
93.3682
93.7836
86.6413
91.0181
89.2179
38.2157
92.8328
92.8835
89.8722
93.9022
94.7252
94.8721
95.0195
94.5896
93.9837
21.5294
55.4756
86.4193
103.522
86.7299
88.1179
87.8218
94.0789
96.3882
89.9444
90.7121
94.7532
95.2951
90.005
93.036
88.0131
89.6749
89.8508
88.8265
)
;

boundaryField
{
    frontAndBack
    {
        type            empty;
    }
    wallOuter
    {
        type            zeroGradient;
    }
    inlet
    {
        type            zeroGradient;
    }
    outlet
    {
        type            fixedValue;
        value           uniform 0;
    }
    wallInner
    {
        type            zeroGradient;
    }
    procBoundary3to1
    {
        type            processor;
        value           nonuniform List<scalar> 
48
(
90.2376
90.6277
90.5194
90.0225
89.8075
89.0969
90.6277
89.7519
89.7723
88.4897
88.4897
89.4984
89.4984
89.3595
88.7072
90.1064
88.8202
89.8868
88.8202
87.6683
90.2115
90.0805
87.6683
89.8027
88.446
88.159
89.9137
90.0805
89.8225
88.6177
88.6177
89.7395
89.7395
89.7723
87.9015
89.6517
89.7095
88.446
90.1723
90.1616
89.3595
89.7427
89.7258
87.6683
88.454
90.7327
89.6492
90.0334
)
;
    }
    procBoundary3to2
    {
        type            processor;
        value           nonuniform List<scalar> 
29
(
92.7122
92.7122
94.3143
94.4412
89.563
92.7341
93.8046
92.4668
94.3855
94.4206
92.6398
89.2015
92.6666
93.7651
93.7739
93.7853
94.3706
94.4049
92.509
93.7611
93.7579
94.3706
93.8264
94.4049
93.7932
94.3309
94.4049
88.5902
88.5902
)
;
    }
}


// ************************************************************************* //
