/*--------------------------------*- C++ -*----------------------------------*\
| =========                 |                                                 |
| \\      /  F ield         | OpenFOAM: The Open Source CFD Toolbox           |
|  \\    /   O peration     | Version:  v1912                                 |
|   \\  /    A nd           | Website:  www.openfoam.com                      |
|    \\/     M anipulation  |                                                 |
\*---------------------------------------------------------------------------*/
FoamFile
{
    version     2.0;
    format      ascii;
    class       surfaceScalarField;
    location    "0.22";
    object      phi;
}
// * * * * * * * * * * * * * * * * * * * * * * * * * * * * * * * * * * * * * //

dimensions      [0 3 -1 0 0 0 0];
oriented        oriented;


internalField   nonuniform List<scalar> 
2776
(
0.000854816
0.000213198
-0.000849019
-0.000218996
-0.000931478
0.00102215
0.000333681
-0.000424357
0.000226831
-0.000100871
-0.000104311
-2.1649e-05
-6.63118e-06
0.000176933
0.000599192
-0.000769494
-0.000110781
-5.28387e-05
0.000140796
2.28236e-05
-0.000242443
-0.000540593
0.000527988
0.000255048
0.000223911
-0.000128137
3.46389e-05
2.12298e-05
-6.63642e-05
1.04956e-05
0.00103146
0.000906462
-0.000910658
-0.00102727
-0.000865518
0.000529851
-0.000114718
0.000450386
-0.000571948
-0.001483
0.000764009
0.00129094
0.000290455
0.000120766
-0.000383709
-2.75121e-05
0.000898849
0.000116283
-0.00138811
0.000372977
-0.000104929
-4.5233e-06
-1.32865e-06
0.000137183
-0.000161905
-0.000217722
0.000833541
-0.000357046
-0.00104844
-8.49353e-05
-0.000331066
0.00021235
0.000203652
2.66665e-05
-0.000550999
0.000524333
0.000505873
-0.000122035
6.05967e-05
-0.000444435
0.000644871
7.29007e-07
2.23756e-05
-0.000667975
-0.000794724
4.37121e-05
-3.43838e-05
0.000785396
-2.78676e-05
0.000228935
-0.000310446
0.000109378
0.000568266
1.09585e-05
-1.63518e-05
-0.000562872
0.0005345
6.58213e-05
-1.81185e-05
-0.000582203
0.000315382
-0.00038795
-0.00119716
0.00126973
1.07958e-05
-2.86526e-05
4.79581e-05
-3.01013e-05
-0.00018673
9.76615e-05
0.00017031
0.000754572
-0.000858349
-6.65324e-05
0.000159124
-0.000137134
0.000143872
-0.000165862
-0.000356707
0.000411273
0.000624846
-0.000679412
0.000824828
-0.00122778
-0.000142264
0.000545211
0.000129957
-7.87908e-06
6.40701e-06
-0.000128484
-0.000323259
0.000510465
6.72364e-05
-0.000254442
-0.000305858
0.000371088
-0.000179177
0.000113947
4.43943e-05
8.32682e-06
0.000402305
0.000176349
0.000129426
-0.000146651
-0.000124422
0.000228087
-0.000485957
-5.02964e-05
0.00119754
-0.000295078
-0.000902465
-2.09117e-06
-0.000443087
0.000445178
4.57183e-05
-0.000655352
0.000609634
-0.000581433
0.00062048
-3.90473e-05
-0.000626224
0.0006093
1.69243e-05
0.00056661
3.12166e-05
-0.000597827
0.00023985
0.000135692
-0.000375543
-0.000330068
0.000193533
0.00107521
2.39785e-05
0.000186669
-0.000101157
-8.55122e-05
-9.44696e-05
0.000202657
-0.000108187
-0.000398426
0.000372207
2.62195e-05
-0.000336156
0.000229117
0.00010704
-0.000237804
-0.000693674
-0.000343098
-0.000197495
2.42811e-05
-7.71198e-05
-0.00028075
-4.25086e-05
-0.00111375
0.00142913
-0.000607784
0.000212138
0.000395646
-0.00115461
-0.000328397
0.000243986
-0.000459471
0.000215486
-0.000831619
-3.3899e-05
3.61452e-05
-3.05769e-05
4.69736e-05
-5.25418e-05
0.000398561
-0.000319216
-3.3627e-05
0.000274729
-0.00021334
-6.34803e-05
-0.000232769
4.53378e-05
0.000686882
-0.000499451
0.000836745
-0.000722695
-0.000157045
4.29943e-05
1.23872e-05
-2.89594e-05
1.67263e-05
-1.54084e-07
0.000330609
-0.00011121
-1.17367e-06
-0.000218225
-0.000133879
-0.000144536
-0.000607355
0.000901293
-0.000905096
7.18438e-05
-6.80408e-05
-1.79902e-05
-6.89549e-05
-0.000150107
0.000237052
0.000208056
-0.000173925
-4.23222e-05
8.19117e-06
4.17881e-05
-0.000520375
0.000478587
3.0925e-05
-0.000266623
0.000235698
0.00107862
-0.000460261
-0.0008257
0.000207343
-1.48012e-05
1.67124e-05
3.4234e-05
-0.000664807
-7.8879e-05
0.000324665
0.000419021
-2.17553e-05
0.000432124
-1.18072e-05
3.41776e-05
0.000310187
-6.96353e-05
-0.000536667
0.000443713
9.29549e-05
0.000108195
-0.000413494
0.000365121
-5.98222e-05
-0.000828647
-4.42091e-05
4.56928e-05
0.000827164
-0.000543268
0.000734738
0.000572539
7.59713e-05
-8.52851e-05
-7.30697e-05
8.23835e-05
-0.000351829
-6.65018e-05
0.00032304
9.52904e-05
-0.000802403
5.6624e-05
0.000808292
-6.25128e-05
-4.88383e-05
0.000656444
-0.000636452
2.88472e-05
-0.000290381
0.000144921
-0.000160399
4.18348e-05
-1.69893e-05
0.000350069
-0.000374914
0.000875828
-0.000506932
5.45307e-06
9.38534e-05
8.93048e-05
-0.000188611
1.40667e-05
-3.20704e-05
2.87994e-05
-0.000242757
4.52836e-05
1.07434e-05
9.29124e-05
-0.000326907
0.000227363
0.00010957
-0.000354763
0.000545164
-0.00029997
4.72262e-05
7.63382e-07
-2.67598e-05
-5.39197e-05
0.000865704
0.00015645
-7.93993e-05
-8.22811e-05
0.000120534
2.02619e-05
0.000191831
3.89988e-05
0.000190118
-5.35604e-05
0.00024023
-4.73125e-05
-4.71571e-05
-0.000633061
6.83668e-06
-6.37194e-06
-5.99923e-05
-0.000140441
-7.68761e-05
0.000503956
0.000786985
0.000247033
-1.26704e-05
-5.56275e-05
3.7721e-05
0.000558147
-0.000589897
2.62348e-05
5.51542e-06
4.78594e-05
0.00065495
-0.000489612
0.000240967
0.000288884
3.38208e-05
-8.73538e-05
4.70424e-05
6.49048e-06
0.000450461
-7.27378e-05
3.08828e-05
-0.000261371
0.000520944
-2.92688e-05
0.000268804
-1.56242e-05
9.03877e-05
0.000178927
-0.000195398
-0.000964787
0.000792851
0.00034887
-0.000126999
-8.65098e-05
0.000125776
8.77335e-05
0.000108017
-0.000161774
0.000141721
-8.79638e-05
-2.58226e-05
0.000592433
6.31259e-05
0.000176725
0.000154885
-9.69041e-05
-0.000706586
0.000181226
0.000630669
-0.00010531
-0.000271641
0.000755372
6.62829e-05
-0.000550014
-0.000212075
0.000642593
2.3298e-05
-0.000453816
-6.8669e-05
1.72244e-05
9.91392e-05
-4.76946e-05
9.0989e-05
0.000519065
0.000131323
0.000434102
-2.86878e-05
-6.04383e-05
1.90118e-05
7.01143e-05
0.000461361
0.000218329
0.000193689
7.48124e-05
-4.58306e-05
0.000112039
-9.02047e-05
0.000845411
1.24597e-05
-0.000767666
0.00079984
7.07669e-05
-4.11033e-05
-0.000829503
0.000517295
-3.53683e-05
3.09202e-05
-0.000512847
0.000244401
-0.00012779
-0.000107382
-9.22889e-06
-0.000605907
-9.60299e-05
7.94517e-06
0.000693992
0.00013817
2.6466e-06
-1.08603e-05
8.9692e-05
-5.07774e-05
1.96239e-06
-4.0877e-05
0.000149792
-0.000124714
2.92326e-05
-5.43109e-05
0.000187534
-0.000164794
-1.72877e-05
4.26183e-05
5.26927e-06
0.000267031
-0.000503157
0.000569807
-0.000842826
-9.52274e-05
0.000231468
-6.31757e-06
-3.50974e-06
5.70535e-05
-0.000199286
-2.78823e-05
-5.85512e-05
0.00028572
0.000219333
-2.9445e-05
0.000194279
0.000726796
-0.000100792
-0.000820283
-7.88461e-06
-0.000143941
-0.000138556
1.50709e-05
6.99054e-05
3.30342e-06
-8.82798e-05
-0.00075722
0.000253601
0.000489266
1.4353e-05
-4.8492e-06
-1.61086e-05
0.000159128
-0.000650126
0.000194809
0.000563513
-0.000301403
0.000252565
0.000685668
-0.000903451
-0.000249177
0.00046696
-8.31188e-05
0.000157961
-0.000333284
0.000258441
5.72043e-05
-0.000445865
0.000732429
-0.000778497
0.000177391
0.000577483
-0.000526927
4.04321e-05
0.000808053
-0.000652016
-0.000156788
7.50793e-07
6.00941e-05
0.00161195
-0.00127916
-0.000392882
0.000706517
-0.000960325
0.000424118
-2.19496e-05
4.78999e-05
5.00904e-05
-7.60407e-05
0.000226661
1.85621e-05
0.000126983
-3.89276e-05
9.73948e-05
0.000440949
-0.000555122
0.000114173
-0.000412419
0.000295405
-0.00130467
0.00142169
-0.000437695
-2.36809e-05
0.000600811
-0.000139434
0.000232195
-0.000189113
-0.000399789
-3.84832e-05
1.74536e-05
8.35917e-06
0.000105471
-1.43156e-05
0.000116901
-0.00135108
0.00118918
-0.000255928
0.000417829
0.000458524
-0.000377431
-0.000140106
5.9013e-05
0.000159333
-0.00061682
0.000589691
-0.000132204
-0.000227694
3.00829e-05
0.000134696
6.29159e-05
-2.79442e-05
5.33452e-07
0.000383539
-0.000356128
0.000675628
2.53449e-05
-4.45294e-05
-0.00077242
7.57338e-05
-0.000105717
-0.00036253
-0.000164807
0.000175509
-0.00102371
-0.000175715
0.00029433
-0.000168125
-5.0847e-06
-0.000363458
0.000790644
-0.000210178
-0.000670671
2.15145e-05
-2.68945e-05
5.23536e-05
-5.53986e-05
6.16241e-05
8.66869e-05
0.000354303
0.000401655
-0.000651264
-0.000104694
0.00013559
0.000148514
-0.00104132
2.08906e-05
1.50114e-05
-7.43853e-05
-5.43617e-05
-1.45933e-05
-0.000498825
0.000392948
0.000631926
-0.000526049
-0.000286636
1.72687e-05
8.16493e-05
0.000187718
-0.000769515
0.00051791
-2.7145e-05
-0.000110043
8.17898e-05
0.000127388
-4.62647e-05
-0.000504947
0.000449687
0.000363996
-0.000308736
-0.000545115
0.000549418
-9.45258e-06
5.14961e-06
-0.000153466
-5.69292e-05
3.64702e-05
-0.000264284
-0.000507755
7.42471e-05
0.000835164
0.000486316
0.000782511
-0.000412088
-0.000856738
-3.82815e-05
3.272e-05
5.65558e-05
-5.09944e-05
4.73965e-07
0.000618329
2.60677e-05
3.42387e-05
0.000544993
-7.33587e-05
-8.71641e-05
4.78125e-05
-0.000825934
0.000865286
-1.32693e-06
1.03051e-05
-0.000290721
0.000281743
0.000561488
-0.000224756
0.000369784
-3.48656e-06
-0.000793165
1.92799e-06
0.00013338
-0.000758163
0.000970936
-0.000346153
0.000699529
0.000119525
-0.000143426
-0.000745068
0.000106028
-0.000269799
-0.000354905
0.000262173
-0.000145088
0.000709447
0.00016807
-0.000138002
0.000513519
0.000201966
-3.72712e-05
4.22078e-05
-9.22904e-05
2.11299e-05
-9.36251e-05
6.08535e-05
-9.55904e-05
9.88806e-05
-0.000392126
0.000280289
-0.000129854
5.08267e-05
5.24817e-05
2.65461e-05
4.45027e-05
7.50625e-05
1.64768e-05
-0.000136042
-2.50245e-05
1.13832e-05
-7.81379e-05
1.03658e-05
3.05009e-05
6.27852e-05
-9.70305e-05
-8.0769e-06
-4.54846e-05
0.000320338
-0.000557884
0.000283031
0.00011946
-0.000485196
-0.000285528
-2.53326e-05
0.00041799
-0.000372334
-2.03229e-05
0.000171292
0.000192786
-0.0001675
-0.000196578
9.60444e-06
-0.000265697
5.4515e-05
-0.000100345
0.000112662
-6.68314e-05
-1.03476e-05
0.000223345
0.00013931
-0.000142133
-0.000220522
8.26165e-05
-4.88171e-05
-0.000447293
0.000459893
-0.000271207
-0.000378848
5.97573e-05
-1.30768e-06
-4.04982e-05
-1.79514e-05
7.66172e-05
-0.000644127
-5.38398e-06
6.11787e-06
-0.000123758
0.000123024
-0.000263229
0.000929429
-0.000303432
0.000255897
-1.9434e-05
6.69684e-05
-0.000302216
0.000738428
0.000666584
0.000227363
-0.000194418
0.000871507
-0.000415174
0.000895468
-0.000216172
0.000214281
0.000776219
-0.000774327
-2.15055e-05
9.93312e-05
-0.000116107
0.000120154
-1.53915e-05
-0.000104594
0.000582213
-0.000799194
-0.000972602
0.00121755
0.000554242
-0.000669171
0.000716983
-0.00027791
0.000397435
4.33518e-05
-3.30466e-05
-1.4845e-05
0.000395908
-1.79101e-05
0.000306925
-1.60217e-05
-9.08039e-05
0.000450585
-0.000441582
-0.000522105
0.000513102
-1.03309e-06
-0.000419419
0.000481544
-6.21249e-05
-5.46741e-05
7.5446e-05
-0.000687896
-0.000134084
-0.00132001
0.000654904
0.000214572
-0.000515975
-0.000616046
-5.31246e-05
4.03022e-05
3.04961e-06
5.99199e-05
2.02392e-05
-4.7439e-05
-1.59737e-05
0.0001008
-7.91431e-05
8.74548e-05
-1.00524e-05
-0.000729507
0.000274743
-0.000184002
0.000638766
-0.000676069
0.000585542
0.00017439
-0.000222393
-7.67106e-05
1.95206e-05
3.32642e-05
-2.09101e-06
-5.06938e-05
-0.000693508
0.000272235
0.000415561
5.7116e-06
0.000337977
-0.000189211
0.000430587
-0.000579353
-0.000581105
0.000527712
0.000143519
0.000117897
-0.000336661
7.52452e-05
-0.000155126
0.000146225
0.000288131
-0.000279231
0.000352852
-0.000435817
2.82915e-05
-9.82504e-06
0.000334795
-0.000374257
8.90908e-05
-0.000174305
0.000938464
-0.000849531
-0.000501021
0.000556458
0.000388163
-0.000763395
-0.000701346
-0.000147673
-0.000840183
6.94557e-05
-0.000833969
0.000442439
2.61997e-05
-0.000191007
0.000559422
-0.000483688
0.000315304
-5.13075e-06
-0.000283954
-7.35714e-06
-1.15654e-05
2.90075e-06
-0.000125853
-5.69568e-06
0.000121903
9.64586e-06
-0.000135218
-2.4175e-05
0.000200618
-4.12255e-05
5.51133e-05
-9.74392e-06
-4.53694e-05
-0.000571625
0.00143025
-0.00112185
-0.00011294
-2.53871e-06
-0.000212515
0.000461852
-0.000740048
-0.000553911
5.25829e-05
0.00023911
-0.000239875
-5.18171e-05
-0.000189662
0.000235221
0.000182961
-0.00022852
-0.000903795
0.000938012
0.000389438
-0.000423655
-0.000442637
0.000339979
-0.000882831
0.000985489
-0.00111851
0.000544206
0.000769113
-0.000196326
0.000438204
-0.000373505
0.000870877
0.000160109
0.000292112
-0.000184568
-0.000267653
8.64374e-05
-0.000454929
3.82023e-05
0.000330289
0.000630666
-4.89499e-05
1.90942e-05
-1.28135e-05
8.32506e-05
1.89856e-05
-8.94227e-05
0.000693262
-2.78132e-05
0.000327449
-0.000992897
-6.05554e-06
7.47022e-06
-0.000191077
4.09355e-06
-3.85798e-05
0.000171669
-3.14418e-05
4.91497e-05
-2.5065e-05
-0.000360114
-9.33779e-05
0.000183836
0.000269656
-0.00098932
0.000467284
0.00101709
-0.000495055
0.000178741
-0.000444806
0.000582348
0.00055572
-4.39578e-05
5.80945e-05
-0.000126133
0.000277277
0.000425555
-0.000576699
5.01058e-05
-0.000613636
0.000590197
-0.000466029
-0.000184795
-0.000112846
0.00019677
0.000793054
-0.000886573
0.000368263
-0.000189357
0.000276684
0.000363258
0.00124092
-0.000578651
0.00028769
-0.000949964
0.000419781
-4.58525e-05
-0.000238338
0.000105027
9.40747e-06
-9.13158e-05
-0.000356579
0.000138334
0.000309561
-0.000213567
-8.56187e-05
0.000216451
8.27342e-05
-8.05162e-05
0.000126958
2.7839e-05
-7.4281e-05
-0.000411011
-5.36698e-06
-0.000440361
0.000295145
-0.000432522
0.000284036
-0.000442553
0.000521943
-0.000363426
0.000564222
0.00113779
-9.00585e-05
-8.63265e-06
6.3746e-05
-0.00060177
-1.82621e-05
0.000807718
-0.000692479
0.000386494
-0.000501733
-0.00015534
-0.000837618
-3.07524e-05
0.000231799
0.000506416
-0.000539255
-0.000730013
0.00157863
0.000392304
-7.90136e-05
-0.00118526
0.00134173
-7.74541e-05
2.96293e-05
0.000144641
0.000102104
-0.000163495
0.000106459
-7.81874e-05
0.000126568
0.000127969
-8.91183e-05
-0.000489532
0.00135552
-0.000561884
-0.00152365
0.000367877
-0.000463954
0.000100489
7.37817e-05
0.000325527
-7.89421e-05
8.26245e-05
-7.41434e-05
0.000630285
-0.000185762
-0.000547689
0.000648485
8.49661e-05
0.000445556
-0.00036252
-9.76417e-06
0.000354577
-1.42042e-05
0.000691376
-0.000638599
-0.000526089
0.000473313
0.000693313
-0.000882402
0.000655101
-0.000466012
-0.00015279
6.36718e-05
0.000234261
0.000641417
-0.000507942
0.000345052
0.0011009
0.000285556
-3.41718e-05
0.000510398
-0.000293971
-0.000216427
0.000595667
-0.000869348
-0.000322572
0.000163829
-2.60523e-05
-0.00037233
-0.000358729
0.000432495
0.000298564
0.000183769
0.000339582
-0.000402585
0.000725164
-0.000214767
0.000340478
5.27497e-05
-0.000283658
0.000502697
-0.000718792
0.000369281
-0.000417396
0.000409507
-0.000361393
-0.000416025
0.000334758
0.000396433
-0.000315166
0.000397619
-0.000444362
0.000509628
0.000454586
-0.000566595
-0.000395888
0.000553933
0.000469661
-0.000627705
0.000448498
0.000298167
0.000232199
4.2983e-05
0.000155388
9.97959e-05
0.000134119
9.18247e-05
0.000109285
3.23038e-05
0.00024841
-0.000408321
-0.000442593
0.000602503
-0.000574251
-0.000548074
0.0005656
0.000556725
-5.6682e-05
-0.000505099
0.000465086
9.66952e-05
-0.000587806
-0.00053613
0.000549686
-0.000169608
-7.7612e-05
0.000223912
2.33076e-05
4.24886e-05
-9.25313e-05
0.000113345
-6.33025e-05
0.00010362
0.00015189
-0.000271505
0.000996669
5.67575e-05
-0.000140076
-8.62891e-05
0.0001029
-6.04112e-05
-0.000213602
0.000225923
9.12989e-05
0.000195383
-0.000120853
-0.000544216
0.000144165
-0.000582287
0.000982338
-5.86564e-05
0.000156158
-0.00117117
-0.000269083
0.00115527
0.000284989
-0.000270392
0.000171329
-8.87661e-05
0.000187829
0.000637623
-0.000282323
-0.000899517
1.9867e-05
0.000245279
-0.000600543
0.000273466
0.000493143
-0.000166067
0.000368048
-0.000386545
-0.000254318
0.000272816
5.29808e-05
7.34309e-05
-4.14411e-05
-8.49706e-05
-2.93974e-05
0.000811186
-0.000594611
0.000585081
-0.000183007
0.000280663
-0.000342829
-0.000399817
0.000374547
0.000368098
0.000146049
-2.74011e-05
0.00014643
-5.90381e-05
8.09347e-05
-0.000178485
7.46437e-05
-1.75693e-05
0.000367922
-1.66692e-05
0.000187591
-0.000538844
0.000145393
-0.000147448
-0.00038449
-4.6447e-05
8.83346e-06
0.000265938
-0.000247271
0.000349255
-0.000787629
0.000136308
0.000140951
-1.13212e-05
0.000251936
0.000318882
-0.00011089
3.6556e-05
0.000289595
-9.93501e-06
-2.19265e-05
-0.000172416
6.6206e-05
-2.73935e-05
-0.000336101
-1.57956e-05
0.000209377
7.98501e-05
-0.000272487
-1.67405e-05
2.0251e-05
-7.23591e-05
-4.04232e-05
-3.57064e-05
-0.000117084
0.0011342
5.07832e-05
-0.00118498
0.000177329
-0.000210916
0.000300618
0.000129716
-2.68161e-05
-0.000102379
6.31929e-05
9.98122e-05
-0.000174663
7.48508e-05
0.000125487
-0.000109208
0.000183367
0.000171455
-4.79107e-05
-0.000304536
0.000552946
-6.64239e-05
0.00028996
-0.000332744
0.00046737
-0.000311222
0.000172668
0.000107715
-0.000103055
-0.000361122
-1.67101e-06
0.000410653
0.00018239
-0.000200326
0.00114932
0.000223266
-0.000294655
0.000244058
-0.000302594
-0.000167028
0.000108499
0.000296404
-0.000392313
1.8139e-05
7.77701e-05
-0.000134078
0.000353375
0.000136953
-0.00035625
-0.000146478
0.000184362
-8.2134e-05
-0.000137345
0.000219479
0.00143991
-5.43024e-05
-0.000465385
-0.000540874
0.000597938
-9.0446e-05
-0.00021409
2.26971e-05
-4.20568e-05
-1.99952e-05
3.93548e-05
-6.68634e-06
-2.54279e-05
-5.31709e-05
-0.00017258
0.000198726
-0.000109538
0.000423973
-0.000264912
-0.000291905
-0.000364778
-5.91401e-05
7.51509e-05
0.000233004
-0.000153177
0.000158135
0.000215767
-0.000190134
-0.000126359
3.26301e-05
-0.000337242
0.000408404
0.000482771
-0.000179468
-0.000285017
0.000114438
-0.000150845
-0.000138626
0.000175033
0.000382329
-0.000271072
-0.000202375
-5.88993e-05
-4.22976e-05
0.000102972
-7.46911e-05
-4.21847e-05
-2.02917e-05
9.63565e-05
3.72674e-05
-0.000138926
-2.47e-05
-0.000268525
-1.55737e-05
-0.000364162
-7.25013e-05
-0.000455025
4.1216e-05
0.00048631
0.000313751
-0.000116687
-0.000259695
6.26314e-05
0.0001924
0.000335174
-0.000231362
-0.000296212
0.000107532
0.00112955
0.000137608
-0.000251054
-0.000116669
0.000369973
6.0446e-05
-0.0002525
0.000328213
0.00112738
0.000235375
0.000178181
-0.00012654
-1.4374e-05
-0.000237657
-0.000698737
-1.51222e-05
-1.80503e-05
0.000318728
-0.000159785
-0.000190356
9.7641e-05
0.000565382
-3.55661e-05
0.000121977
-0.000626882
0.000555051
0.000480236
-0.000501404
-0.000116212
-0.000498673
-0.000511311
0.00046191
0.000377873
0.000447256
-0.000372205
-0.000452923
-0.000657593
0.000500371
0.00068929
-0.000503485
3.65938e-05
0.00044151
2.53806e-05
-0.000837231
0.000664112
-0.000502057
-0.00069553
0.000360357
-0.000111472
6.22415e-05
0.000115689
-7.4959e-05
-0.000499806
-0.000505272
-0.000188429
0.000507939
-0.00084512
0.000963053
0.000349132
0.0001006
-0.000151012
4.55352e-05
0.000362149
-0.000427521
0.000443245
0.00028316
-0.0001161
-0.000208442
4.13817e-05
0.000397727
-0.000186183
-8.44234e-05
8.6152e-05
-0.00106573
0.000986717
0.000430091
0.000228843
-0.000211679
8.83183e-05
-0.000382325
-0.000249958
0.000347266
0.000716013
0.000732477
0.000208107
2.60977e-05
-0.000966682
0.000117854
9.6293e-05
0.000553702
-0.000547184
3.20225e-05
-0.000267682
8.48143e-05
-4.44044e-05
0.000491743
-0.000458869
1.15306e-05
-0.000832545
0.000715187
9.09912e-05
-0.000148289
0.000295271
0.000296478
-0.00020942
0.000155855
-0.000262458
5.66362e-05
-0.000103138
1.07953e-05
0.000395716
0.00041656
6.04257e-05
-0.00016085
0.000200237
0.00109464
3.95553e-05
2.20482e-05
5.46859e-06
-0.000586183
-0.000500296
-0.000489583
0.000460702
-0.000557303
-0.00091551
0.000584238
-0.00069201
-0.000482896
-0.00023779
0.000124343
-0.000623535
0.000918367
6.32736e-05
4.97945e-05
0.000143728
-0.000568471
9.25616e-05
-0.000512694
0.000467871
-0.000930225
0.000486091
-0.000609133
-0.000980054
0.000669453
-0.000604909
2.32731e-05
-3.77207e-05
0.000711765
-0.000697318
0.000267207
0.000586911
-9.40045e-05
-0.000710834
0.000217927
0.00011237
-0.000210799
-0.000648481
0.000629193
-0.000618405
2.89135e-05
-0.000180672
0.00041032
7.77858e-05
0.000423894
0.000407998
-0.000586498
8.95975e-06
0.000448816
4.35664e-05
-0.000110941
-0.000552684
-0.000690919
0.00126806
0.00036714
-0.000352191
0.000523976
0.000420343
0.00033331
-0.000407438
-0.000346215
-0.00017603
0.000287604
-0.000471688
-5.25161e-05
3.76761e-05
0.000538816
-0.000513704
0.000224812
-0.000399329
0.000470778
-0.000296261
0.00145963
-0.00107527
0.000512669
-0.000897033
0.000471947
0.00049544
-0.000447427
-0.000478131
0.00113397
-0.000896705
-0.000481872
0.000244605
0.000424881
-0.00027589
-0.000277076
0.000251657
-0.000417841
-0.000498983
-9.0712e-05
-0.000437427
0.000388694
0.000412979
-0.000364245
-0.00116731
-0.000176262
0.000378789
0.000825545
8.88376e-05
0.000213765
-0.00112815
0.000392448
0.000512708
0.000364157
9.96788e-05
-0.000219239
0.000361621
-0.000918752
0.000572764
-0.000115617
-0.000202766
0.000103974
0.000214409
-0.000479703
0.00072395
-0.000724767
0.000865948
-0.000437441
0.000490915
4.67053e-05
0.00116935
-0.00116527
-0.00029957
-0.000375649
0.0009589
-0.000949915
-0.000337061
0.000529355
-0.000433688
0.000978258
-0.0010106
0.00093238
-0.00092474
-0.000427411
-9.62408e-05
3.84556e-05
-0.000169252
0.000104003
0.000165738
1.50466e-05
0.000226267
4.18468e-05
-5.679e-05
0.000108911
-0.000215344
-9.82749e-06
0.000150481
-0.000606873
-0.00046178
0.000621522
-0.000266957
-0.000404033
-3.29168e-05
0.000669068
-0.000810599
0.000104302
-0.000214124
0.000831571
0.000802246
-7.5379e-05
-0.000170409
-0.000150317
-0.000902603
-0.000252058
-8.44865e-05
8.85411e-05
-0.000890681
8.14121e-06
1.68629e-05
0.000882299
-0.000907304
-0.000544406
7.66887e-05
6.98194e-05
-0.000146508
-0.000182765
1.89062e-05
-0.000138834
0.000174362
-0.000328721
-0.000223976
-0.000167171
-0.000569166
-0.000239647
0.000407478
-0.000530673
-0.00046116
0.000816926
-0.000781422
-0.000797097
-0.000827844
0.000946555
0.000678386
5.55085e-05
-4.11801e-05
0.000944571
0.000132359
0.000240638
0.000265728
-0.000365069
0.000714758
-0.000145485
-0.00109951
0.00113958
0.000105409
-0.00116772
1.13753e-05
5.25967e-05
-0.000137034
-0.000584805
-0.000630844
0.000520118
-2.03407e-05
-0.000487178
-0.000199666
0.000498414
-0.000729103
-0.000348754
-0.00105444
-0.000483351
0.000478982
0.000164478
1.7925e-05
-0.000100155
6.41801e-05
-0.000595347
-0.000596331
0.000260164
-5.05668e-05
-2.60237e-05
7.65906e-05
-1.32171e-05
-4.43596e-05
4.96976e-05
0.000282978
-0.00129643
-5.55422e-05
0.001069
-0.000438925
4.05022e-05
-9.4806e-06
-8.30661e-06
0.000563333
-0.000545545
-9.74329e-05
5.24858e-05
-0.000957378
-0.000138999
8.25378e-05
-0.000133895
-6.2315e-05
-2.0628e-05
3.66783e-05
0.000357975
-0.000256261
0.000101126
0.000316953
0.000317794
5.2671e-05
-4.90634e-05
0.000110806
-2.64094e-05
-0.000758837
9.17386e-05
0.000186642
-0.000305593
0.000135428
2.01051e-05
-1.03007e-05
4.26773e-05
0.000135707
-0.00010623
-1.1345e-05
2.55937e-05
-2.28814e-05
0.000330993
-0.000772056
0.000532143
-9.10807e-05
0.00087164
-0.000136009
8.91787e-05
2.94444e-06
4.3886e-05
-0.000151882
4.23583e-05
-7.40969e-05
7.19446e-05
-1.38213e-05
-2.81106e-05
5.49748e-06
0.000138302
-1.92574e-06
-1.27259e-05
1.46516e-05
-5.04123e-05
7.83415e-05
-6.78811e-05
4.75123e-05
2.03688e-05
-4.53387e-05
3.10617e-05
1.4277e-05
-0.000175441
-0.000420341
-2.48152e-05
2.26698e-05
2.14548e-06
-1.07783e-05
-0.00111962
0.00118924
-0.00048304
-0.00160572
-2.50328e-05
2.31071e-05
-6.72883e-05
0.00046081
-4.19078e-06
0.000130292
-9.18303e-05
2.39492e-05
-2.21253e-05
0.000581653
-0.000678867
-0.00053363
2.24795e-05
6.24649e-06
3.10081e-06
-0.000401435
-0.000504707
-0.000328861
0.000332944
0.000223196
-1.09038e-05
-9.14368e-05
2.41486e-05
-0.000430138
0.000524544
0.000102128
-0.000506996
3.85949e-05
0.000518506
0.000563419
-0.000719601
0.000665498
-0.000120866
-6.46976e-05
0.000108358
0.000671097
0.00030741
-0.000210992
0.000715055
8.52474e-05
0.000581501
-0.000429279
-6.39043e-05
2.19348e-05
-4.28719e-05
0.00011985
0.000135929
-0.000195013
-6.07664e-05
-0.00031027
-7.60473e-05
-0.000866485
1.92526e-05
-0.000435432
-0.000375795
0.000417567
0.000393661
0.000191603
-0.000350195
-0.000121683
0.000266397
-0.000291736
-0.000331239
7.36011e-05
-9.8551e-06
9.77393e-05
6.02445e-05
-0.000144942
-0.000255251
0.000125367
0.000125693
-0.000144268
0.000139691
9.26748e-05
-0.00019348
0.000106302
3.33504e-05
-0.00035703
-0.000530835
0.000430044
0.000891249
0.000159029
-8.02419e-05
7.90992e-06
-0.000693697
0.000421028
7.01656e-05
-0.000503437
0.000478964
-0.000650605
0.000281859
-0.000142201
0.000125859
-6.10365e-05
7.73788e-05
-0.000335861
-0.000197554
-0.000182534
-0.000162676
0.00013815
2.45261e-05
3.76996e-05
-2.46879e-05
-1.30117e-05
9.80012e-05
-8.88365e-05
2.95696e-05
-0.000264141
0.000992857
0.000405256
-4.00282e-05
0.000132193
0.000216884
-0.000153694
-0.00015753
0.000271201
0.000139268
-0.00056462
-0.000106631
0.000306183
0.00124274
-0.00118375
3.84044e-05
4.02073e-05
7.27041e-05
0.000113855
-0.000156849
0.000140334
0.000430592
-3.79175e-05
3.08686e-05
0.000425039
-0.000287831
-0.000396948
-4.39799e-05
-0.000933091
-0.000565826
-0.000332817
-0.000160414
9.83995e-05
-0.000391328
0.000342177
9.64666e-05
-0.00023043
-0.000208214
6.03288e-05
-0.000186524
-7.7631e-05
-5.10392e-05
-0.000100148
-0.000375278
0.000123327
0.000492564
-1.98932e-05
7.16734e-06
-0.000224835
-0.00108313
0.000439766
0.000707857
2.65931e-05
5.04154e-05
-2.32856e-05
-0.000335934
-0.000252106
0.00042719
-9.97844e-05
0.000278021
-0.000306655
0.000385614
-0.000291273
-7.2354e-05
8.41882e-05
-0.000150833
-0.000132729
0.000719022
5.2565e-05
-2.32615e-05
-0.000213285
-0.000274826
-0.000789011
0.00100677
-0.000756629
0.000417572
-0.000488788
5.59153e-05
0.00115131
-0.000162353
0.000102439
-5.29325e-05
-0.00100965
0.000868268
-0.000598661
-0.000213207
-6.32127e-05
3.65447e-05
4.70307e-05
4.22713e-05
-0.00019244
0.000237169
-0.000196138
-0.000318107
0.000111743
0.000145677
0.000304691
7.65374e-06
3.00458e-05
-0.000113208
0.00120555
-7.29213e-05
0.000107493
-0.000574815
1.0573e-05
-0.000952578
0.000634009
4.41733e-06
0.000116946
-3.35718e-05
0.000224977
-0.000118754
0.000254593
0.000143073
2.07474e-06
7.08623e-05
5.71661e-05
0.000667343
0.000100152
-0.000272808
0.000351469
0.000144852
-0.000196979
-0.000115998
-0.000291655
0.000245677
6.17712e-05
0.000121097
5.76562e-05
-0.000195423
0.000492429
-0.00056632
-5.8838e-05
-0.000710811
-0.000528692
0.000450492
-3.13027e-05
5.16761e-05
0.000107828
-4.61382e-05
0.000103827
0.000340479
-0.000558058
0.000419118
0.00030549
-0.000304565
4.37309e-05
0.00022999
-0.000136816
0.000152252
-0.000182936
2.77654e-06
7.66726e-05
0.000911975
-0.00049291
-7.90857e-05
0.000464367
0.000732921
0.000169062
-0.000350102
8.46582e-07
0.000432948
-0.0012239
-0.00029218
-0.000179665
0.000256242
-0.000179471
-0.000161253
-0.000588082
0.000511531
-0.000136345
6.15329e-05
-3.72035e-05
-0.000937772
-0.000557871
-0.000978673
-0.000490683
0.000569851
-0.000525025
-0.000182896
0.000316331
0.00014693
-0.000280365
0.000264331
-0.000151562
-2.44743e-05
0.000258369
-0.000282712
-0.000182499
0.00046533
-0.000408965
0.000282944
-0.000121722
-0.000668154
0.000858884
-0.000987599
-1.06115e-05
0.000388463
-0.000253719
0.000332825
0.000175508
-0.00037
7.49807e-06
1.22224e-05
-2.26687e-06
-0.000261083
-0.00128652
-0.000253139
-0.000422409
0.000359555
0.000259047
-2.71014e-05
3.50313e-05
-0.000102172
-5.16399e-05
1.74669e-05
-2.1966e-05
-0.000199972
-5.30771e-05
-0.000336288
-0.000113523
-0.000289245
0.000289719
-0.000266869
0.000284742
4.97733e-06
-0.00032545
0.000250371
7.50782e-05
-0.000232477
-3.43927e-05
1.78948e-05
-0.000763008
0.000759522
-0.000523686
0.000536727
-1.30411e-05
-0.000489447
-0.000713065
-4.99435e-05
0.000725138
0.000690577
3.45605e-05
-0.000638818
-0.000428851
0.000563372
-0.000514357
-4.90143e-05
-0.000355317
-7.3534e-05
-0.000282377
-7.29395e-05
0.000240455
-0.000223186
-4.19222e-05
0.000671202
1.93757e-05
0.000685665
-1.44633e-05
0.000698125
6.00341e-07
0.000565687
-0.000379725
8.89364e-05
-1.53353e-05
-0.000309371
-0.000417829
0.000430939
-0.000320866
0.000163287
-4.55748e-05
0.000306072
4.34541e-05
-0.000214599
-0.0006898
0.000319638
-2.57777e-05
7.85911e-05
0.000537383
-0.000464256
0.000517926
-0.000489102
0.000211039
0.000215679
0.000116305
2.18453e-05
-0.000855956
-0.000109074
0.000234173
0.000105804
-9.40588e-05
0.00010941
-0.000683898
-0.000226806
-0.00156565
0.000533651
0.000260431
-0.000193105
-6.04891e-05
0.000674839
0.000299969
-0.000412301
0.000160707
-0.000259355
0.00108391
-0.00129047
0.000112942
1.6263e-05
-0.000129205
0.00128266
3.43806e-05
8.92701e-05
0.000266268
-0.000238062
2.04617e-05
-1.41703e-05
0.000208118
0.000219511
-0.000298098
-0.000117551
-0.000140799
-0.000233662
-0.000327944
0.000208222
0.00056067
0.000384923
-0.000473115
-0.000191533
-5.28708e-05
-0.000107688
-0.000151482
0.00029899
-0.000226225
0.000219347
-0.000582302
-0.000821001
-0.000240312
-8.23149e-05
0.000286354
-0.000154541
0.00020674
-0.000338552
0.000258282
0.000228045
-0.000230431
0.000225937
-0.000320832
-1.05327e-05
1.20105e-05
6.01464e-05
0.000166891
0.000180589
-6.87688e-06
3.02994e-06
-9.26739e-05
0.000299151
0.00059727
-0.000920878
6.92894e-05
-0.000149946
0.000669366
0.000573462
-0.000239476
-0.000125778
-0.000420134
-0.000608307
0.000572741
-0.000189303
9.63766e-06
-0.00108491
0.000898529
-0.000187124
-0.000327845
0.000165601
-3.40822e-05
0.00021392
0.000535539
-0.000700591
5.03332e-05
0.000194903
-4.87485e-05
-7.19285e-05
7.61577e-05
-0.000804642
8.07039e-05
-3.30901e-05
1.32605e-05
0.000495199
0.000100277
0.00045763
0.000453412
-0.000263871
0.000133327
3.13415e-05
-8.61034e-05
6.77865e-06
6.32154e-05
-1.48988e-05
-7.33815e-05
0.000600108
-4.22329e-05
-5.66923e-06
-0.000451031
-0.00138257
0.0011435
0.000575827
-0.0004277
0.000763847
0.000252298
5.71535e-05
-3.97788e-05
0.000129332
-0.000241225
0.000273269
-6.81054e-05
3.13438e-05
0.000107624
0.000138888
-0.000186646
-9.03227e-06
0.000184797
-0.000258656
6.4032e-05
0.000771404
0.000536702
-0.000465084
-3.42388e-05
0.000237933
-0.000175236
-0.000354352
-0.000100914
0.00014952
-0.000350643
0.000394876
-0.00034329
-5.99454e-05
0.000463385
-0.000546482
0.000143042
2.42347e-05
-4.62404e-05
0.000120601
-5.78157e-05