/*--------------------------------*- C++ -*----------------------------------*\
| =========                 |                                                 |
| \\      /  F ield         | OpenFOAM: The Open Source CFD Toolbox           |
|  \\    /   O peration     | Version:  v1912                                 |
|   \\  /    A nd           | Website:  www.openfoam.com                      |
|    \\/     M anipulation  |                                                 |
\*---------------------------------------------------------------------------*/
FoamFile
{
    version     2.0;
    format      ascii;
    class       volScalarField;
    location    "0.83";
    object      k;
}
// * * * * * * * * * * * * * * * * * * * * * * * * * * * * * * * * * * * * * //

dimensions      [0 2 -2 0 0 0 0];


internalField   nonuniform List<scalar> 
5794
(
0.0423867
0.0613567
0.450758
2.49749
2.40843
0.0743434
0.284891
0.103052
1.52951
0.059378
0.912352
0.280085
0.35344
1.79941
0.117609
0.109552
6.23771
1.99024
0.095594
0.0347868
0.982807
0.0359358
0.69279
0.137442
0.360069
2.15294
6.26481
2.68038
2.09766
0.0871747
0.282513
0.562665
0.76679
0.11237
0.168877
0.233736
0.196668
0.617866
0.962619
2.717
1.26891
0.416912
0.277908
0.368955
0.105488
1.11265
0.717026
0.383495
0.0487099
0.0756302
0.296825
1.42158
0.0683537
0.0896792
0.0093336
1.06495
0.673722
0.535345
0.217049
3.6176
0.932471
0.0490936
0.245976
0.955333
1.29372
0.0584476
1.67133
0.446485
1.82284
0.0524471
2.3945
1.72984
7.15867
0.134727
1.8913
1.82487
0.172277
1.63847
0.330169
0.0947365
0.042939
0.0317147
1.06561
0.711114
0.436674
0.842252
0.49566
1.06354
0.196148
1.0328
2.47661
0.751825
1.60578
2.60434
1.04093
2.46945
1.90013
1.40386
0.696208
1.01824
0.886972
0.329228
0.247917
2.44782
0.450052
3.47387
0.0387591
0.631263
1.60085
0.294787
0.0822584
0.0486397
0.893918
0.106684
0.88597
1.99307
0.133145
2.36949
0.855127
0.49844
2.81272
0.049355
0.20251
2.31582
0.0766396
1.42001
1.51575
0.0914617
1.66451
0.691911
0.301018
0.393264
0.97028
1.44388
3.36679
0.125251
2.00507
0.0519184
0.408983
0.0702882
0.110682
2.35776
0.0754762
2.58228
0.4825
6.45209
1.10637
0.89302
1.68565
1.56753
0.314613
0.0774022
3.45349
0.238521
6.71904
0.887035
0.781955
0.383875
1.39717
0.462647
0.0432832
0.122462
0.0549486
0.144707
1.16722
1.27846
0.149635
0.112336
0.0479093
0.0272087
0.0532888
0.826862
0.119613
0.105437
0.0783668
0.521765
0.0502071
0.246214
0.0781781
1.29359
0.157096
0.546777
0.16235
0.922416
0.179167
3.52169
0.368878
0.454193
0.0396519
0.255076
0.927367
0.511637
0.7366
0.209107
0.347191
0.257382
0.132695
0.0814005
0.0621036
0.276154
0.356652
1.23066
0.303792
0.242186
0.732717
1.12713
0.186513
1.09049
4.5229
1.00111
0.279317
0.31288
0.257281
0.170611
0.118399
0.24974
0.453389
1.16469
1.07929
2.23983
0.305859
0.933775
3.83931
1.54392
1.95054
3.4438
0.252967
0.0872576
0.0621463
0.137155
0.11893
0.110428
0.0938753
1.17284
0.842507
4.61342
5.42633
0.863229
0.31625
0.0637038
0.0312514
2.16876
0.967795
0.723947
0.312642
0.215641
0.0942913
1.46701
1.36583
0.958925
0.505854
0.0617028
6.44913
0.032491
0.211163
5.17564
0.263763
0.422651
0.779458
0.0742341
1.47525
0.25207
0.162015
0.0467298
0.526384
0.490038
2.10592
1.70478
0.0620948
1.38208
0.910886
0.288522
0.682519
2.09759
0.397188
0.121206
0.0870229
0.110925
0.0444687
0.352247
0.186049
1.71307
1.07205
0.242417
1.96996
2.40876
0.998227
1.30203
2.96453
2.89234
0.187111
0.131887
0.118801
0.0848344
0.203536
1.98872
0.834775
0.160765
1.25008
0.0597288
0.0257636
0.766297
0.0470855
1.20579
0.201502
1.60567
0.0392035
1.46981
1.35745
0.895
0.301635
1.16302
1.11047
0.10813
0.292347
0.593452
0.815678
2.96014
1.55964
2.48519
0.642767
0.183257
2.17878
2.21667
0.149317
0.648394
0.143627
0.268135
0.352708
0.844205
1.20053
0.280679
0.206598
0.616837
0.464322
0.047818
0.0605477
0.0455826
0.0377352
0.336423
0.106111
0.297219
1.41154
0.598351
0.0607021
0.146474
1.21701
0.633821
1.47901
0.762912
1.1827
3.24434
0.782589
0.509812
0.182425
2.62736
0.0455821
1.29791
0.306587
0.0929114
0.964461
0.574775
1.78149
0.330906
0.139665
0.268951
1.15355
0.993771
0.633455
0.451487
0.0994516
0.0432506
0.254797
0.29009
1.22518
1.31699
0.888088
0.613818
0.740117
0.0409396
0.398158
0.0938114
0.322829
0.201001
0.150134
0.102045
2.69811
0.265837
0.161439
0.170549
0.121074
1.09757
0.0389205
0.253362
0.0949489
0.0867693
0.0701967
0.135409
0.0892684
0.618706
0.119506
0.282728
5.01836
0.0931012
0.0563021
1.10832
0.294525
0.0638913
0.0402817
1.89695
1.39888
0.658829
1.27035
0.616045
1.21456
0.795656
0.191937
1.92292
1.10117
1.77023
0.677647
1.32893
0.906343
0.103023
0.144926
0.123953
0.0745437
0.0999274
0.0385974
0.039175
1.40627
0.224078
2.3782
1.31234
0.0930844
0.105502
0.244886
0.524694
0.159185
0.131422
0.0815677
0.269507
0.212879
0.196873
0.111617
2.2186
0.95062
0.293648
0.0612892
1.26559
0.0673017
0.0428628
1.33493
0.0367001
1.98463
0.0394419
1.93948
2.58886
1.2701
3.66686
0.0539125
0.0537357
0.318247
0.249598
1.11563
0.695774
4.19114
3.70615
1.02176
0.271868
0.0274284
5.24726
1.58346
0.0786633
0.0768071
1.82146
6.32377
2.98263
0.182757
0.0505302
0.622823
0.0530203
0.0529895
0.0620977
0.90752
1.12755
0.311983
0.122989
2.75938
0.0420253
0.0427153
2.27162
2.08445
1.95732
0.275622
0.0740362
0.0883342
0.100485
0.183624
0.995346
4.05122
6.12682
0.265066
0.430204
2.70331
0.0516431
0.0567367
0.613139
1.4583
0.057924
2.42928
0.0366596
0.485092
0.0401669
0.0976762
0.801531
1.79655
0.038939
0.222854
5.06144
0.0661494
0.0478747
3.03006
2.47202
0.764699
0.0447935
0.278035
1.05861
0.040927
0.0526078
0.491119
0.0447296
4.04854
0.0966389
0.159065
0.0941269
0.240165
2.28871
0.674231
1.21245
0.0343696
1.52554
0.0344544
1.6538
0.194899
0.138233
0.214987
2.57275
0.0869421
0.0632108
2.58687
0.054141
0.0580332
0.212389
0.0737406
0.094719
0.462914
0.0566126
0.0397528
1.90448
9.60563
0.0651086
1.4489
0.0778366
1.64386
0.11858
0.0704839
1.06293
0.0365437
0.0561869
1.23005
0.9267
1.4652
1.20902
1.50583
0.292293
3.71923
1.66939
0.257915
1.04639
2.13095
0.836512
2.99502
3.9229
1.78762
0.906862
0.0889045
1.76082
0.706355
2.19336
0.0579756
0.077054
0.0593445
2.37888
0.898396
1.19177
0.0302836
0.293591
0.0490216
0.13032
0.0446929
1.36994
0.931954
2.56722
0.0482426
0.51707
2.39402
0.0557221
0.0105429
0.804324
4.19199
5.21894
2.22327
0.107459
0.143983
0.168561
0.906908
0.588271
0.268512
1.19417
0.0359209
1.23974
1.662
0.879125
0.0410294
0.0509695
0.328832
2.10929
2.22803
0.0799302
0.0531157
0.0422765
0.0269264
0.0751411
0.0463134
0.0523287
1.78765
0.487224
0.100898
2.82114
0.215014
0.285163
1.11355
0.757862
1.98496
2.8095
1.0655
0.735584
0.0817359
0.0429084
0.0513544
0.260763
0.0965448
0.142406
0.140123
1.60614
5.67042
1.06054
2.05671
0.40682
0.0391525
0.0511409
0.0513648
0.876662
0.0489471
1.25502
3.06456
2.4977
1.02403
1.21081
0.884109
0.167973
4.93793
0.757405
0.680378
1.01632
2.77098
0.216059
2.2689
0.110627
0.0362131
1.16091
0.101198
0.193858
2.00822
2.06085
2.35691
0.0990877
0.0519217
0.038921
1.67386
3.99411
1.62642
1.24033
0.08185
0.963821
1.09457
0.0266991
0.0784115
0.289862
0.0390564
0.262563
0.0422065
0.441712
1.82004
2.41457
1.37253
0.0516267
0.0946284
2.92459
0.507218
4.05178
1.34463
1.67425
1.42541
0.373724
0.267014
6.74285
1.2605
1.50148
1.89544
2.11959
2.32416
0.106571
4.60173
0.208945
0.360745
0.506742
2.87147
0.638704
1.17243
1.12321
3.04268
0.82379
0.083074
0.19107
4.58172
0.760275
0.735378
1.5421
2.22119
0.0326351
0.0399794
0.0271277
0.143187
2.1927
0.963482
2.57841
0.0939519
0.283158
0.0588689
0.206849
0.0992402
0.0396994
0.892526
2.3651
0.207047
2.77967
1.08552
0.258165
0.129691
6.3302
2.10771
1.19932
3.12598
2.57349
1.05687
1.44358
0.316217
1.61772
0.685143
2.0815
1.47896
0.0932783
0.160349
0.0674403
0.040632
0.170648
2.69717
0.0636811
1.26026
6.12983
0.294001
0.0554944
0.0533256
2.19537
0.911869
1.25276
2.28438
0.875019
0.430849
2.26928
2.15591
1.27993
0.204361
1.00175
0.0425988
1.95168
0.0389651
1.77785
0.303977
0.888388
0.391332
0.0801426
0.0508719
0.0808358
1.22966
1.61131
1.66701
4.30598
1.3109
0.111356
0.280737
0.630646
4.03337
0.105997
0.463566
0.700297
2.52805
0.0413425
0.0591953
0.458458
0.855087
5.01126
0.0863413
0.385861
0.0725066
0.0683366
0.0738892
0.731763
1.89854
2.08866
0.282747
0.0954224
2.51826
0.0625984
0.302791
7.53879
0.040804
0.01647
0.124473
0.0367106
1.03384
0.515097
0.497446
0.0859673
0.122811
0.218012
0.316506
6.22704
0.97773
2.71413
0.90124
1.14712
1.65636
1.12479
4.92529
1.28385
0.0950831
0.0546235
0.207136
1.95843
0.24105
0.114376
4.15588
1.4637
2.01765
0.866722
0.0885533
2.58505
0.447823
0.348456
1.33089
0.0646536
3.27017
0.0650605
0.0953977
1.38789
0.386714
0.231031
0.203122
1.55845
0.672758
0.261702
0.059873
0.0964074
0.783445
1.7615
0.275132
0.299285
1.00553
0.134491
1.13365
3.00431
1.86521
2.43323
1.89277
0.0414918
0.0376318
0.927118
0.0740359
0.0554255
0.0439868
0.075891
0.754601
0.0435277
0.254227
0.0755712
2.89255
1.38702
0.761566
0.276158
0.524441
0.996977
5.99764
0.769575
1.67207
0.234325
0.0672918
5.67639
0.372109
1.08494
0.262367
1.32179
0.784266
1.02706
0.0462791
1.64357
1.13107
0.135836
0.0847714
0.0589228
0.0377143
0.036959
0.728576
2.91318
3.3797
1.68483
0.676201
1.2951
1.97157
0.319654
0.0421917
0.061871
0.81506
0.0681605
5.40862
1.21031
2.03048
0.246338
2.56211
1.06327
0.0486364
0.0404279
5.75209
3.37327
0.305116
0.299257
0.473469
1.60747
0.0797517
2.52512
0.0664673
0.140988
0.117923
0.0543127
0.0503947
0.09977
0.126465
0.0575078
0.0381899
0.0781188
0.264298
2.42105
0.215781
0.045604
0.0762037
1.16911
0.299676
0.498941
0.0974827
0.606719
0.0568881
0.642056
0.200303
0.10206
0.0908132
0.480222
1.52481
0.0854824
0.304291
0.174876
0.118327
0.291815
1.19312
0.430768
4.7452
1.8408
0.0551753
0.31852
0.530618
2.75255
0.532193
0.875136
1.14935
2.44722
0.0606386
0.234372
0.0724164
0.0572609
0.415397
0.393899
1.8445
1.72848
1.3751
0.0150715
0.765731
1.48617
0.857201
0.826784
0.936197
0.041005
0.0446714
0.0487185
0.701137
0.302476
2.60076
0.20091
0.644544
0.196731
0.204805
0.287116
0.459028
0.0490207
0.0722205
1.43977
2.44693
0.763744
0.0415915
0.274489
1.17714
0.0616503
0.0610168
0.0760342
0.156295
0.858886
0.068897
1.3979
0.0470535
0.311275
1.06969
0.07211
3.10901
0.285232
0.044649
0.315177
2.57652
0.0439086
1.57476
0.097887
0.0572895
0.0486051
0.109349
0.0327512
0.058127
0.309262
0.0816165
0.0332398
0.0913251
0.122798
0.147624
1.67753
0.540971
0.266811
2.49887
0.933093
0.0375668
0.0614563
2.74502
0.360162
1.19497
2.99138
0.0509443
0.502669
0.0476995
3.46492
0.0601566
1.63364
0.0568739
4.39714
1.12815
0.0263071
0.66205
0.0667975
0.219514
0.158343
0.0574832
0.620258
0.643664
0.0392587
0.675284
0.0173425
0.0313512
0.154812
0.0539851
0.056117
1.8038
0.289517
1.13749
0.0400638
1.17346
0.043086
0.0569256
0.0458141
0.198716
2.12656
0.403656
0.247536
0.57348
0.250404
0.424673
5.06171
2.29248
0.0522771
0.322542
2.0287
0.863472
1.22261
0.239731
2.0761
2.11389
1.4804
0.487898
2.62749
0.265154
0.264059
0.0632232
0.141686
0.190431
0.0547299
10.3127
0.691453
0.052294
0.239425
1.69779
1.65465
0.271588
0.0439915
0.277149
0.454356
0.121554
0.0698124
3.07779
0.188894
1.33401
0.472328
2.4914
0.0669507
0.114541
0.151325
0.358493
0.242245
0.601365
0.046701
0.78214
0.0394965
4.68193
0.269067
0.304298
0.191061
0.479986
0.292496
0.391666
0.33303
0.193248
0.165938
0.117585
2.42971
0.289877
0.214656
0.0344981
0.0430579
0.610172
2.00479
0.655784
0.153295
0.236856
0.253559
0.196374
0.253264
0.237887
0.3652
0.32198
0.322733
0.547297
0.0389315
2.21323
0.0534542
6.27483
0.0493552
0.0416057
0.0459975
0.0548155
0.0442782
1.31407
0.0689381
0.228901
0.0696678
0.184596
0.661346
1.9941
1.06967
0.0502005
0.0737091
0.190514
0.254107
1.67369
1.118
0.250022
0.281631
0.0211814
2.19502
0.232943
1.11061
1.59553
0.173184
0.279042
0.651566
0.116269
0.0357352
2.41086
2.4429
0.630525
1.17295
0.448404
0.40215
0.0342529
2.25995
6.19677
1.92728
1.18461
0.0745107
0.104764
1.09735
0.30457
0.268162
0.0334507
0.337467
1.14031
0.162364
0.0526221
0.611627
0.0736461
0.0404531
0.121882
0.28801
2.40259
0.0722641
0.508302
1.39689
3.5301
3.56752
0.159595
0.866537
0.197789
2.22719
0.206576
1.98636
2.60059
0.810365
1.64576
0.348365
2.08825
1.32306
5.47172
0.22752
0.0710151
0.0573759
3.79954
0.157066
0.22666
1.50444
0.72859
0.181752
1.20899
0.929984
0.453445
2.71902
0.132226
0.0389401
0.257407
0.496021
0.0564757
0.254315
1.23267
0.293943
1.5278
1.2891
1.71952
0.0512096
3.43977
0.16787
0.994065
0.628669
0.272696
0.191738
0.0788639
2.43582
0.0731062
0.0720119
0.0401106
3.24303
0.0339778
0.257183
1.66759
4.0655
0.130661
1.63913
4.51039
0.126096
0.277916
0.0216671
1.11542
0.39765
2.31502
2.48079
0.131426
0.113692
1.05138
1.37454
0.624377
1.6931
1.09165
1.39825
0.951069
0.995489
0.150588
0.124479
1.03103
0.0833602
2.57489
0.0413098
0.0837054
0.0566622
0.52907
0.367274
0.132745
0.067651
0.168063
0.215827
0.0588981
0.0832734
0.0541167
0.263621
0.560959
1.00875
0.920447
0.0834593
2.98266
1.34507
2.01294
0.437331
0.100938
0.964351
0.0667978
0.0408313
0.0223398
0.0368649
10.4692
0.323266
1.17587
0.652617
1.79942
2.00117
0.563622
0.0303955
0.0245101
0.0504521
0.0718131
0.0926785
0.0698555
0.0644412
0.059955
0.0550141
0.145322
0.0832744
0.0612034
0.0632427
0.0354905
0.041381
0.10685
0.0981264
0.0539406
0.0496156
0.0453053
0.0619336
0.0283388
0.0419134
0.0186041
0.277192
0.0726413
0.0665986
0.0277096
0.102919
0.0391474
0.0724411
0.0621582
0.0437522
0.0216853
0.0352622
0.0463294
0.0669286
0.0280038
0.0563496
0.172981
0.0340527
0.0352428
0.0657305
0.0830189
0.35026
0.46116
5.05246
0.0524596
0.646424
1.09367
2.40767
2.51377
0.0583319
0.0522003
0.390088
0.0604821
0.7267
2.20377
8.42905
3.47697
2.57103
0.845032
0.0358456
0.0335928
0.0970259
0.0860714
0.0295541
1.03674
0.171446
0.376012
0.131978
0.573836
1.01676
0.84814
0.312977
1.48365
0.657573
9.30898
0.105116
0.230552
0.235095
0.333165
3.1938
0.111031
0.99595
1.79548
0.893458
1.21399
0.622884
0.62625
0.301076
0.327922
0.362149
11.6108
0.0933033
0.0664364
0.0386715
1.93705
2.70989
0.0322624
1.66077
1.94542
0.0609616
0.0797093
0.0700537
0.0393155
0.0602328
0.0518312
0.125072
0.0404617
0.036491
0.134382
0.0878993
0.0638404
0.0293581
0.0822788
0.0320361
0.0545568
0.0612053
0.0416242
0.0618995
0.0325573
0.0180076
0.0337694
0.0436095
1.26977
1.39517
0.176999
0.456414
0.639235
0.362255
1.92031
0.0447786
1.41754
2.54246
0.285795
1.14816
2.78767
0.399993
0.0271492
2.80016
0.946088
0.0625735
6.47754
2.30263
2.54165
0.035403
3.04835
0.775532
0.0685176
3.05755
0.36215
1.58351
0.137065
0.211172
0.136325
2.02703
0.0561415
1.98456
3.3424
0.195088
3.15646
0.0617296
3.10865
0.0858193
0.135262
0.0375261
2.15049
0.0516137
0.0661549
0.344261
0.0714797
3.04418
0.315583
1.7394
0.378481
0.808211
0.671551
5.73203
0.0308336
0.279632
0.301484
2.46137
1.14166
0.0600925
0.0540366
1.15489
0.561221
2.9217
0.30798
0.0822582
0.316222
0.130003
0.571631
0.0543239
1.7686
0.444277
0.0142685
0.0272222
3.12867
2.70137
0.328303
0.47875
2.00496
0.26559
2.93163
3.74936
2.17701
2.94742
2.49872
0.077426
2.09814
0.0460686
0.146425
0.0813924
1.88887
0.250698
0.261243
0.315237
2.82915
0.551696
0.0737763
0.101229
0.107767
0.714574
1.96662
2.96514
4.47834
1.52386
0.6179
2.70658
0.259182
0.795571
0.764913
0.952088
2.00214
3.0181
1.20493
2.98772
1.05135
3.23503
1.30544
0.14858
1.21492
0.982741
0.470954
0.515132
0.393429
3.58261
0.700872
0.380131
1.5262
1.05381
1.32348
0.491908
0.214312
6.2001
0.62465
2.22471
0.874952
0.10166
0.0540733
0.116311
1.53558
0.075937
0.117571
0.171513
3.18051
3.27007
2.3506
2.11083
3.39615
2.60623
3.40087
0.0731635
3.44387
3.3582
2.80945
2.44808
3.2777
2.30214
3.386
3.31484
3.38625
0.564791
0.525313
0.34129
5.06904
0.350042
0.224038
0.161678
0.230549
0.0295822
0.0374809
1.03837
2.05244
0.689785
0.0864478
0.117061
1.86748
1.97167
1.05377
0.395555
0.215483
0.221142
0.154889
0.23504
0.782925
0.169712
1.33101
0.174345
0.696745
0.368921
0.243697
0.0650541
0.929379
0.077191
0.203566
0.328181
0.029589
0.943043
0.179653
0.144946
0.165013
0.137986
0.144804
1.46471
0.137127
1.18958
0.910517
0.235214
1.24633
3.63155
0.143794
1.59978
1.00619
0.86793
3.6698
0.0817257
0.120715
3.49194
1.185
1.81883
0.143762
0.292724
2.0851
3.66055
1.65742
0.122086
0.134997
0.118328
1.105
0.251472
6.88682
0.141985
0.343947
0.186967
0.133509
0.992564
0.0650005
0.233224
1.31608
1.4626
0.494025
6.62143
2.99239
0.108345
3.15076
0.130601
0.20734
0.523476
0.0831532
2.05386
0.273673
6.41731
0.400602
0.202715
0.0915802
2.25635
6.18577
0.0892401
1.28348
1.73089
0.726866
0.333774
0.211166
0.0822356
0.261194
2.0259
1.3524
1.79433
5.06375
4.87926
0.152173
0.61
0.218151
1.32132
0.453221
0.112754
0.171789
2.05267
0.0610631
0.151596
0.0999693
1.32625
0.169313
0.78398
0.287023
0.299181
0.486994
0.111641
0.602535
0.648901
0.14129
0.156636
0.692506
0.698884
0.119774
0.251119
0.168693
0.0871389
1.34237
0.347634
0.275599
0.601476
0.544552
0.0658337
0.227887
0.28383
0.445677
0.0478451
0.247031
1.30128
1.95708
0.500628
0.295588
0.184477
0.715638
0.473155
0.561299
0.123002
0.668496
0.488388
0.462077
0.0729373
0.80299
0.839075
5.16233
0.400018
0.878897
0.622493
0.439665
0.570705
0.645268
0.420457
0.252832
0.71095
0.620325
0.480217
0.606289
0.680694
0.811182
0.335914
0.288193
0.413134
0.689366
0.136162
0.203147
0.791442
0.61936
0.526189
0.294875
0.355236
0.539996
0.401235
0.714357
0.308097
0.723981
0.0924403
0.148211
0.0627613
0.178349
1.27626
0.263051
1.99811
0.427158
0.251851
0.656912
0.554214
0.371096
1.32411
1.29631
0.350407
0.135941
0.553544
0.206795
0.188275
0.129827
0.316493
0.246765
0.567744
0.204388
5.35649
0.60639
0.160386
0.433352
0.505278
0.145726
0.138939
0.0661711
0.0928401
1.4075
0.295087
0.156759
0.223788
0.770704
0.122679
0.0663849
0.0985588
1.92233
1.19327
0.26763
1.44256
1.62119
0.24808
0.276279
0.269904
5.35834
0.32656
0.140535
0.26446
1.46233
0.384272
0.379189
0.828415
1.69738
0.388816
0.750203
1.18916
0.122936
0.0564316
0.0961749
0.659288
0.327545
0.764402
1.40022
1.5043
0.184464
5.2377
5.0462
0.118211
0.222847
0.353529
0.247059
0.944918
0.211234
0.742446
0.719555
0.470744
0.414367
0.829302
1.12306
1.34033
1.78613
0.199055
0.738916
0.231455
0.321445
0.7788
0.0801738
0.0820967
1.93625
0.80064
0.546568
1.78026
0.126125
0.302689
0.652789
1.62233
0.655859
1.04743
0.10211
0.0574357
0.106289
1.49076
1.95963
0.182299
1.42622
1.33948
1.27324
1.85804
0.21332
0.343322
0.0921789
0.222804
0.217411
5.13399
0.11277
0.760927
2.33638
0.207063
0.310808
4.01259
0.065233
0.146012
0.316936
0.49531
0.543158
0.72519
1.35836
2.08637
1.08464
0.98207
1.13401
0.0651729
0.707803
0.404843
0.0476758
0.0397205
0.137688
0.347551
0.315149
1.43251
0.106689
0.0504061
0.0981375
2.01883
2.21305
0.0695953
0.0418251
3.76287
3.07156
0.704313
0.0577726
1.46421
0.199481
0.487452
0.0933258
0.253393
5.02949
0.108851
0.0889206
0.0834093
3.60429
2.15342
1.13003
0.144933
3.40098
1.92112
0.875317
0.374329
0.60344
0.382579
0.325236
0.474011
0.424186
0.531428
0.473486
2.08722
1.38939
0.142002
0.118117
0.637352
2.53228
2.42681
3.41638
2.56133
1.88624
0.499141
1.31562
0.413921
0.357646
1.4454
2.40882
2.98406
3.40117
1.22817
2.00269
0.996597
0.900161
0.610437
0.0812712
0.512817
0.0940618
0.0490328
0.101502
0.281492
0.307988
0.233517
2.26025
2.7278
0.435862
3.26315
0.723991
0.754875
0.595048
0.254846
1.14316
0.538506
0.990672
0.405793
0.0989142
0.227993
2.82791
0.589941
0.315635
0.0588557
1.57389
0.573071
0.617034
0.292158
1.5453
1.62878
0.205705
0.647527
1.14123
1.29141
0.232571
0.131206
0.0282351
0.243081
0.0784964
0.111868
3.05262
0.0908467
0.080202
0.0986085
1.30215
0.14862
0.346598
2.72362
0.0894795
1.7365
0.45893
0.436532
0.40862
1.75396
1.78382
1.54845
0.3989
0.683966
3.45568
2.29075
0.0831708
0.329151
0.0965537
0.679781
1.13803
0.270972
0.103833
0.312476
0.235503
0.0538021
0.155987
0.681301
0.0898375
0.306894
0.732726
0.501202
0.50052
0.30661
0.532981
1.59528
0.718253
0.810183
0.508911
0.27718
0.434448
3.02676
0.497765
3.0781
0.959854
0.618929
1.00264
0.961677
4.13126
0.827604
1.44295
0.301912
2.30001
0.577442
0.621298
0.0779029
0.0551931
2.45454
0.756936
0.891946
0.529383
1.31653
0.820787
0.217312
1.8543
1.56926
1.42782
1.08199
0.733162
0.620101
0.0997658
0.0493262
0.0922271
2.24608
1.56499
1.49139
0.14629
0.0515049
3.55053
0.447699
1.95726
3.53039
3.04124
3.28307
2.64779
0.0476956
0.614015
0.378291
0.72961
2.40247
2.82611
0.101637
0.966235
0.976921
0.803515
1.71384
0.137679
1.31508
2.10031
2.87728
0.4979
0.0874247
2.04233
2.15244
0.689345
0.66335
1.73379
2.93084
0.591223
0.0954093
0.531716
1.63945
1.66983
0.0705133
0.933719
1.84418
0.6103
0.193439
0.694926
1.76991
3.57532
0.534843
0.247032
0.0516458
0.0732531
1.519
1.59603
2.47805
2.84436
1.74416
4.54025
0.143499
0.259898
0.841884
2.68825
0.523351
1.86389
1.05314
0.133701
0.09199
0.290994
0.0696825
0.0994781
3.26245
3.33628
3.12166
2.05783
4.94158
1.13656
0.739823
0.538389
3.42956
5.00853
2.45399
7.13374
0.201701
0.0827508
2.07208
3.49487
1.619
1.24702
1.09458
0.572166
0.0889479
1.09067
0.0550518
0.0432704
2.233
0.0857693
0.858245
0.0849519
2.41476
0.465164
1.14237
0.803602
0.873094
0.440668
1.3762
2.24716
1.40004
0.0531425
4.10264
0.544528
0.442625
0.0852865
0.0573557
0.185428
1.77525
3.02315
3.64697
0.234797
2.68015
4.08702
0.112773
1.16608
0.413494
0.367191
0.140227
0.293062
3.40044
1.52561
0.472607
0.420854
3.28778
1.21221
0.449822
1.00276
0.106232
0.839029
0.223326
2.83965
0.428949
1.92917
0.0833907
0.0744206
0.363586
3.53574
0.867119
2.95498
1.81469
0.172004
0.283607
1.69856
0.448726
0.0895729
3.62411
0.12323
0.0847568
1.70509
0.316423
3.33498
0.110668
3.00634
2.54973
0.0556698
0.912937
0.399205
3.10494
2.40735
0.123561
0.745519
1.22147
3.01878
0.359638
0.296388
0.27648
0.278778
0.0444256
0.0876727
2.56695
1.44804
0.849402
0.325316
2.73811
0.3129
2.6488
1.54812
0.157727
0.2046
1.57185
2.84625
0.0246617
0.0168091
0.0346971
2.72032
0.789282
2.98791
0.509743
0.426338
2.43448
3.23387
0.0845787
1.15217
3.15612
2.0793
0.84222
1.93135
0.0937476
1.85847
1.27206
0.089734
0.0471827
0.093445
0.720668
0.105864
0.559233
1.38487
0.0907077
2.60982
1.02603
0.767659
0.692392
2.18675
0.314763
1.0359
0.0925985
2.30314
2.08939
2.36991
0.862339
0.0929846
0.0509876
0.0842853
1.27645
0.447486
1.10212
1.36409
0.442651
0.931571
4.71189
1.41684
3.16642
0.0669633
2.67906
0.368568
0.180929
0.996274
1.36046
0.457821
0.149072
0.178574
1.16074
1.64925
0.124022
0.11351
2.68278
3.22246
0.641142
1.07622
0.845472
4.31748
5.3232
1.76256
0.093997
0.841862
1.19842
2.30502
2.00288
2.80405
0.205289
1.66895
0.685702
1.39342
0.529631
1.26716
0.29696
0.78719
0.03766
1.57464
0.585755
0.0797879
0.979737
0.334659
0.706373
2.12274
0.964054
0.0492327
0.191229
2.38711
1.73392
1.50769
0.820548
0.593184
0.145429
0.047018
0.0699347
0.0736952
0.0987244
1.37606
0.0868989
0.703725
3.24262
0.182384
0.0744157
0.181882
0.30764
2.77248
0.0781518
0.0517515
0.0765645
0.392883
0.887286
0.157326
0.221239
0.0332866
0.0715205
0.0877159
0.094618
0.767589
0.377385
0.229907
1.2609
0.562747
0.279069
2.15835
0.793178
1.12684
0.142895
0.105986
0.0219834
0.0420554
0.0986237
2.80205
0.0914446
3.0178
1.90155
0.883829
2.23993
0.0880376
0.238383
0.197334
3.41475
0.469748
0.752378
0.0865532
0.0527626
0.0832947
0.198104
0.0966314
3.14142
2.18166
0.0939377
0.682712
0.0460731
0.569279
0.307444
0.545553
0.08043
2.68604
1.77352
2.59135
3.07872
0.0918996
0.154442
0.568789
3.61511
0.605859
2.55663
0.636746
1.46885
0.0957301
0.247147
0.0838091
0.830765
0.566764
0.682965
0.729258
0.0873167
0.086116
0.648746
0.135367
0.251229
1.53609
2.82637
2.70505
0.866455
2.80006
0.475589
2.43487
0.549045
2.28088
0.211387
1.07191
0.0924058
1.76694
3.15601
3.48554
0.40362
0.0919822
0.151951
0.103435
0.0602949
0.138031
0.387233
0.255539
0.766362
2.62484
0.0846735
0.174912
2.93954
0.262577
0.621245
1.38544
2.54509
2.32335
0.202947
0.744535
0.429485
0.256799
0.332168
0.352252
0.186677
2.21584
0.0586093
0.800368
0.514485
0.0748352
1.04252
0.0842197
0.0679692
0.0515114
0.0267496
0.0322753
0.0751743
0.175971
0.202035
0.28274
0.029243
0.0175797
0.03824
3.25736
3.0267
0.359082
0.908307
0.317084
0.546277
0.770725
2.34964
1.60136
2.44305
6.12957
0.574936
1.8298
2.07271
3.73528
0.94486
0.0601026
0.0670263
0.0648205
0.0551992
0.0659972
0.264325
1.97916
1.74035
0.0280142
0.0763069
0.162012
1.23468
0.318175
2.01882
0.0371984
0.223643
1.4459
0.312633
0.590331
0.452128
0.105634
0.0691588
1.30885
0.495842
3.60288
0.137629
0.448558
5.4736
0.16894
1.393
2.83433
0.0319873
0.0623835
0.276388
0.0573536
0.0530608
0.16133
0.0734679
0.105878
0.178855
0.177135
0.595727
0.071049
0.495767
1.92293
2.65882
0.0563114
0.0645111
0.0596841
1.43003
0.787732
0.15437
2.28643
2.06806
0.0784445
1.16902
1.25812
1.98016
3.59592
3.26736
1.42181
0.851161
0.0950723
0.992584
3.01852
2.12634
0.461035
0.0627566
3.45482
0.0757481
3.05198
0.693297
0.0865806
0.34506
1.47384
2.76619
0.0518607
0.112396
1.21757
0.234732
0.314537
0.103036
0.774777
0.321772
4.01902
0.448703
1.80892
0.0819024
0.0573195
0.0738661
0.0308034
0.034619
0.0253639
1.92717
0.0687421
1.96771
3.51195
0.345831
1.12044
5.55845
0.272551
0.202672
1.82226
1.01781
0.94371
6.54121
0.248508
4.19127
0.0846343
0.0511022
0.0773291
3.03729
0.188034
0.0747557
0.045858
0.0432445
0.0789642
2.21955
1.80139
0.670737
0.245287
0.457315
3.55208
1.15118
0.590883
0.755228
0.845923
0.362744
1.88686
2.74113
2.09941
1.88885
0.0631908
0.500828
0.107835
1.40648
0.105776
1.59621
1.48656
0.659929
0.900208
0.207203
2.43388
0.184124
0.0475383
0.0809258
0.0968818
0.099682
0.931161
0.667869
1.45542
0.215337
0.444344
3.0051
2.51379
0.421424
2.29734
0.984831
0.0728199
0.113226
0.0731631
3.37598
0.645787
1.98077
0.549402
0.0794339
0.340257
3.09124
2.01373
0.208669
0.291501
0.998664
1.88197
0.0978798
0.0367938
0.0710378
0.413631
2.34996
0.24101
1.18495
1.66784
1.55651
1.26378
0.299296
0.218081
1.7304
1.68356
1.61276
0.0689871
0.399936
0.0127311
2.91302
0.0109447
0.427567
2.31183
1.05354
0.465129
2.04063
0.0539232
0.180797
0.450408
0.0155693
0.477675
0.0645066
0.0105732
0.342902
0.583045
2.01537
2.68337
0.825931
0.305615
0.0294904
0.040215
0.0195
0.011541
0.0256992
0.0557523
0.471439
1.74846
0.475758
0.50198
0.337646
0.759511
1.68328
0.573462
0.184712
0.0465827
0.189908
4.03981
2.2066
1.16708
0.175267
0.0482107
2.20681
0.087462
0.357982
0.687983
0.559431
0.550687
3.29764
0.260002
0.452771
0.206894
3.45375
2.06012
0.0759986
1.40348
0.0620572
0.176833
1.45382
0.16369
0.0433232
0.0306759
0.0847179
0.103661
0.0776625
4.20383
1.3151
0.251534
1.48661
0.999199
0.316243
2.28139
2.5549
0.316625
3.85642
0.0551626
0.565101
0.0490299
0.507818
1.3191
0.0369882
0.385257
3.01382
0.201343
0.393622
0.0362168
0.0773434
0.592296
1.73786
1.25173
2.7022
0.404725
2.45332
0.0845069
0.4691
2.37049
0.211152
3.61903
0.440257
1.29717
0.427467
0.223713
1.76919
0.745479
2.48615
0.0424783
0.0353149
0.053899
1.94823
0.230555
0.190674
0.126359
0.486897
0.51655
0.0406255
0.063134
0.226732
0.925671
3.01876
0.19201
0.0749527
0.350118
2.19367
0.521664
0.420767
0.140043
1.54278
0.608473
0.144249
0.810531
2.65943
0.0285633
0.792336
1.23655
1.98322
0.804078
0.850985
0.362833
0.085109
0.0721845
0.0690844
0.0701029
0.0759456
0.205841
0.305931
2.74452
1.34176
1.04477
3.27965
0.931785
1.33974
0.372262
0.213387
1.14292
0.171525
0.691691
0.19978
1.60014
3.79994
2.27779
2.34576
1.50898
0.67502
0.90514
0.614018
0.425673
0.0150595
0.0414379
2.16293
0.500924
0.110319
1.93858
2.39774
0.087939
1.01475
0.783082
2.93356
4.86866
3.04948
0.0352988
1.54921
0.0401939
0.0718589
0.0728633
1.61607
2.9184
1.29966
0.085626
0.522437
3.04972
0.256116
0.0353667
0.810808
2.02656
0.571382
1.53919
4.05265
1.38672
0.0607082
0.0522081
1.07812
2.3906
1.97854
1.97141
2.69903
0.260715
0.0954073
3.58455
2.0331
0.0650862
0.0349996
0.0600221
0.0422891
0.0782906
0.0732343
4.23402
1.13542
0.08502
1.10946
1.89704
0.191788
2.5044
1.84528
2.66371
0.244217
0.533601
0.319177
1.62147
0.778935
0.34518
3.5272
2.96769
1.16365
2.14228
2.36752
2.33481
0.173366
0.0932796
2.46245
2.53469
0.14191
0.0754803
0.0269168
0.0499106
0.57613
1.21845
1.99004
0.732239
0.100513
2.55633
0.0457737
0.0717358
0.0816754
0.219144
0.0931421
1.59949
1.75944
2.89025
0.204149
3.38572
0.0491645
0.272379
3.53616
1.72431
1.81996
1.26377
0.297426
3.48685
1.83624
0.0916176
0.19058
0.215686
0.373928
0.192084
1.66206
0.893428
0.522209
0.614151
1.6704
1.04258
0.330533
1.34403
0.0309337
0.0913207
1.2211
0.530124
0.362675
8.11196
0.309654
2.01436
1.77015
0.0471386
0.0462165
0.0640677
0.0731303
2.11602
1.72194
1.88427
0.205227
0.856477
0.22964
0.289024
0.632861
1.6522
0.218037
0.252057
0.256643
0.0749727
0.0432378
0.016927
0.068495
2.14728
1.79232
0.211997
0.743358
8.46423
2.87116
3.03368
1.26964
0.113929
0.968249
0.231829
0.564608
1.33976
3.17367
0.0993067
0.113994
0.0380332
2.77617
1.15245
2.11591
0.124515
0.126925
1.19379
0.440708
0.0405572
0.0408426
0.036844
0.071574
0.280675
2.17017
2.10095
0.234326
2.30439
0.983025
1.64626
2.08428
0.380178
2.07883
0.151902
0.775126
1.746
2.40021
1.48939
0.0620199
0.0605854
1.48308
0.250246
0.0799929
0.0966878
1.20973
0.537636
0.527391
0.0396466
0.518531
0.0435467
0.528184
0.503145
0.508763
0.509185
1.89622
2.659
0.836811
0.0892558
2.69863
0.551851
0.0740116
0.309217
0.08845
0.396284
0.198221
0.385001
2.93304
0.102917
0.121514
0.985532
0.154667
1.83428
0.0553737
0.0770355
4.21068
5.12456
0.071063
0.0650994
0.0539426
0.0643511
0.191268
0.049911
0.0629321
0.0729479
0.0926482
0.0642608
0.0419961
1.26209
0.188208
0.0835877
0.575441
1.6336
0.170089
0.617396
0.0563053
0.192152
2.62655
1.92863
0.839099
0.0441773
2.58797
2.24401
2.23458
2.15241
0.435132
0.0831803
0.015461
0.0864079
1.079
2.9331
1.27322
0.19427
0.700689
0.258206
0.0855879
0.135798
0.309572
2.87392
0.362339
2.39861
0.0278475
0.263449
2.68237
1.00123
0.10895
0.50585
0.0855437
1.53269
1.31145
0.907038
0.0771573
0.135592
0.0837369
0.0888181
0.23288
0.324799
0.364619
2.78727
1.59254
1.82041
1.50745
0.657328
0.108332
0.669843
0.0857248
2.11425
0.918917
0.825528
0.283747
3.48242
0.242617
1.20812
1.68744
0.0778163
0.10006
0.393706
3.58831
2.93102
1.18354
2.9492
1.85976
2.9751
0.337328
0.629964
0.0275652
0.237093
0.518795
9.21462
3.55821
0.360274
2.54252
0.994241
0.194236
0.210188
0.478598
0.134002
0.0848547
0.0586369
1.92067
1.98138
0.886965
1.62047
1.2518
0.057497
0.165392