/*--------------------------------*- C++ -*----------------------------------*\
| =========                 |                                                 |
| \\      /  F ield         | OpenFOAM: The Open Source CFD Toolbox           |
|  \\    /   O peration     | Version:  v1912                                 |
|   \\  /    A nd           | Website:  www.openfoam.com                      |
|    \\/     M anipulation  |                                                 |
\*---------------------------------------------------------------------------*/
FoamFile
{
    version     2.0;
    format      ascii;
    class       surfaceScalarField;
    location    "0.83";
    object      phi;
}
// * * * * * * * * * * * * * * * * * * * * * * * * * * * * * * * * * * * * * //

dimensions      [0 3 -1 0 0 0 0];
oriented        oriented;


internalField   nonuniform List<scalar> 
11117
(
1.521e-05
-3.85238e-05
-3.77479e-06
2.70886e-05
-3.18969e-05
9.32246e-06
1.48922e-05
7.68228e-06
-3.96753e-05
5.01086e-05
-0.000158589
0.000148156
-0.000503399
1.10925e-05
0.000207422
0.000284884
0.000167069
0.000244833
-0.000193996
-0.000217906
2.43194e-05
-2.69471e-06
0.00017144
-0.000193065
-0.000435477
-4.26653e-05
0.000339158
0.000138985
-7.45792e-05
1.11574e-05
2.57309e-05
3.76909e-05
0.00123929
0.000236519
-0.000913955
-0.000561855
-2.40876e-05
3.10757e-05
-1.37542e-05
6.76608e-06
-0.000875157
0.000946149
0.000303347
-0.000374339
-0.000334529
-0.000216496
0.000265333
0.000285693
-0.000455494
-0.000218881
0.00028111
0.000393264
0.000760001
-0.0009791
0.000478738
-0.00025964
2.50708e-05
-3.15004e-05
1.83896e-05
-1.196e-05
9.79768e-05
-9.86514e-06
2.62601e-05
-0.000114372
-0.000132789
0.000229449
-2.01271e-05
-7.65328e-05
-0.000657779
0.000697276
0.000684369
-0.000723867
9.81851e-06
1.37375e-05
1.51484e-06
-7.99059e-06
6.04068e-06
3.89357e-05
-3.69858e-05
-0.000326099
0.000184306
6.25357e-05
7.92569e-05
1.4593e-05
-5.51613e-06
-8.46439e-05
7.5567e-05
0.000457165
0.00035205
-0.000238758
-0.000570457
9.37645e-05
0.000105867
-5.08204e-05
-0.000148811
0.000288694
0.000187717
-0.000338933
-0.000137478
0.000925984
-0.000958045
0.00029602
-0.000263958
0.000280572
-0.000347
0.000757392
-0.000690963
-0.000197446
0.000254195
-0.00027585
0.000219101
0.000131132
-4.13288e-05
0.00100348
-0.00109328
7.33776e-06
-1.02491e-05
1.07012e-05
-7.7898e-06
-0.000122555
0.000110036
0.000114687
-0.000102168
-0.000108492
-0.000363684
0.000340675
0.000131501
-0.000119182
-0.000450582
0.000379586
0.000190179
-3.12714e-05
8.15305e-05
-4.67831e-05
-3.47601e-06
-0.000128838
6.76848e-05
-3.46203e-05
9.57738e-05
-0.000123658
6.33944e-05
-2.42672e-05
8.45314e-05
0.000602206
-0.000825882
0.00100623
-0.00078255
0.000280426
-0.0004507
-8.17827e-05
0.000252056
0.000486777
-0.000117172
-0.000655188
0.000285582
0.000193105
0.000317031
-0.000412613
-9.75228e-05
0.0001574
0.000262261
-0.000296147
-0.000123514
-3.25209e-05
0.00019284
-0.000230863
7.05437e-05
0.00100851
0.000886976
-0.000890714
-0.00100477
0.000257768
1.60562e-05
-2.37951e-05
-0.000250029
3.77348e-05
1.58642e-05
-4.37804e-05
-0.000940506
0.000745782
-0.000226195
0.000420919
-0.00070602
0.00054424
-0.000159222
0.000321002
0.000241501
-0.000334154
0.000198516
-0.000105862
1.39421e-05
-2.35685e-05
1.88417e-05
-9.21536e-06
-4.97875e-05
0.000127749
-7.79618e-05
-1.28402e-05
-1.36551e-05
2.64952e-05
-0.000337946
-0.0011431
0.00051423
0.000966815
2.17369e-05
-3.4378e-05
-1.12201e-05
2.38612e-05
6.17168e-05
-6.3981e-05
2.29133e-06
-2.71131e-08
1.03539e-05
-1.03539e-05
0.000421294
0.0001769
-0.000552324
-4.58704e-05
0.000300312
0.000130566
-0.000395748
-3.51307e-05
-0.000155453
-8.06821e-05
0.000217539
1.85967e-05
0.000884423
0.000114816
-0.00136526
0.000366018
-0.000407511
0.00077887
0.000554624
0.000851273
-0.000865744
4.13902e-05
-2.69184e-05
0.000129094
-6.6856e-05
-6.039e-05
-1.84788e-06
-0.00013098
-0.000118275
0.0001267
6.54416e-05
-4.07778e-05
-0.000133156
0.000117014
-3.85461e-05
-0.00019765
-2.27266e-05
-0.000125472
0.000102939
4.52589e-05
0.000136025
-0.000140056
5.96519e-05
-5.56213e-05
-8.32778e-07
-0.000326044
0.000326877
-0.00066411
-0.000373399
0.00052354
0.000513968
1.36598e-05
4.50702e-05
-3.55711e-06
-5.51728e-05
0.000468769
-0.000139451
-0.000667264
-0.000219372
0.000197831
0.000157567
-0.000273412
-0.00125188
0.00129318
0.000232109
-8.6941e-05
0.000243658
-0.000187921
3.12036e-05
-0.000738162
-0.000583726
-0.000115051
4.55297e-05
0.00019112
-0.000121599
-4.55428e-06
-2.2125e-05
2.66793e-05
-0.000930879
-0.000166561
0.000139395
0.000256482
4.23519e-05
-4.1066e-05
1.38902e-05
1.50472e-05
-2.89375e-05
-7.49902e-05
-4.06401e-05
1.05708e-05
0.000105059
-1.17067e-05
4.16936e-06
3.31462e-07
7.20586e-06
0.000128224
-0.000110244
0.000145944
-0.000163923
-0.000270058
0.000236897
0.000259748
-0.000226587
-0.000201505
3.35944e-05
0.000239467
-7.15566e-05
5.8768e-05
-0.000499722
0.000440954
-1.82673e-05
-0.000525289
0.000543556
3.17722e-05
-0.000483232
0.00045146
2.5793e-05
1.22422e-05
7.666e-05
-0.000114695
-3.82288e-05
7.31181e-05
0.000270589
-0.000305478
0.000527647
-0.00015645
7.92047e-05
-0.000450402
0.000645949
4.91547e-05
-4.91412e-05
-0.000645962
0.000727412
-4.80688e-05
5.55248e-05
-0.000734868
-0.000697101
3.83998e-05
-2.71741e-05
0.000685875
-0.000628405
5.44746e-05
-2.55877e-05
0.000599518
-5.37762e-07
0.000224469
-0.000326011
0.00010208
0.00059027
2.2592e-05
-2.27224e-05
-0.000590139
0.000692376
4.59279e-05
-3.10349e-05
-0.000707269
0.000614014
4.73908e-05
-2.50135e-05
-0.000636392
0.000821853
5.86091e-05
-2.91897e-05
0.000376573
7.74085e-05
-0.00040621
-4.77711e-05
-0.000238038
0.000172777
7.31682e-05
-7.90774e-06
0.000308583
-0.000381318
-0.00117264
0.00124537
0.000729958
0.00034639
-0.000756736
-0.000319611
-1.5875e-05
2.92229e-05
-1.7027e-05
3.67918e-06
-0.000875697
0.000246628
0.000785587
-0.000156518
1.8204e-05
-5.18625e-05
0.000100866
-6.72077e-05
1.57695e-05
1.44092e-06
2.41914e-05
-4.14018e-05
-0.000243682
3.74384e-06
0.000101398
0.00013854
0.000231826
-5.75379e-05
8.2194e-05
-6.62176e-05
4.10248e-05
7.09236e-05
-4.57308e-05
-8.85475e-06
4.14627e-05
-1.57614e-06
-3.10318e-05
-0.000414809
0.000345802
-0.000155024
0.000224031
-1.27098e-05
1.60548e-05
3.52586e-06
-6.8708e-06
0.00010128
0.000543216
-0.000622165
-2.23305e-05
0.000123654
0.000643987
-0.00072797
-3.96721e-05
-7.97728e-06
-1.19677e-05
2.06202e-05
-6.75254e-07
-0.000536621
0.00049472
0.000906526
-0.000864624
3.455e-05
-1.94145e-05
-0.00088088
-0.00103805
8.35611e-05
0.000958576
-4.08887e-06
0.000991317
-0.000703463
-0.000824475
8.50214e-05
-7.46373e-05
-1.03841e-05
0.000148565
-0.000120482
0.000179576
-0.000207659
-0.000167692
-0.000144805
-2.71515e-05
-1.7635e-05
1.5999e-05
2.87875e-05
-0.000355652
0.00040779
0.000626752
-0.00067889
-0.000439724
0.000645077
-0.000490271
0.000284919
9.48943e-07
-0.000150115
0.000147016
2.15e-06
0.00055921
-0.000827549
-0.000111441
0.000379781
4.49165e-05
-5.35455e-06
4.77489e-06
-4.43369e-05
7.7542e-05
6.2037e-05
-0.000130009
-9.57019e-06
0.000154955
1.2636e-06
-0.000177424
2.12059e-05
0.000149124
-9.36853e-05
-6.84984e-05
1.30597e-05
-0.000881249
0.000109204
-0.000158833
-0.000333324
0.000295434
-0.00068758
0.00072547
2.11804e-05
-1.99869e-05
-3.26939e-05
-0.000420316
3.83299e-05
9.0897e-06
0.000372896
3.71671e-05
0.00010843
-1.65032e-05
-0.000111664
7.36981e-07
0.00012127
-1.03428e-05
4.61691e-05
-1.21007e-05
-4.53139e-05
1.12455e-05
-0.000230284
0.000143488
0.000101252
-1.44567e-05
6.8323e-05
-0.000331408
0.000367201
-0.000104116
4.57702e-05
-3.909e-05
-1.47345e-05
8.05433e-06
0.000439844
-0.000211432
-0.000227384
-1.02797e-06
-9.53884e-05
9.79772e-05
-4.94102e-05
4.68214e-05
3.33245e-06
0.000323483
-0.000155687
-0.000171129
0.000295978
-0.000148129
7.16286e-07
-0.000436128
0.000977349
-0.000560508
1.92879e-05
9.79936e-05
0.000192593
-0.000133796
-0.000156791
-0.000120394
0.000228392
2.4127e-05
-0.000132125
0.000930319
0.000449987
-0.000614564
-0.000765741
-1.26106e-05
1.24954e-05
-5.05156e-05
5.06308e-05
-0.000477545
-5.69079e-05
-0.000341244
0.000127244
-0.000203607
-8.66787e-05
0.000163042
-0.000452279
-0.00038647
0.000508215
0.000330535
0.000743545
-0.000167593
-0.000575952
0.000216719
0.000112897
7.48896e-05
-0.000187787
0.000958014
-0.000231069
-0.000726945
7.89218e-05
1.1827e-05
-7.51878e-06
-4.3082e-06
-7.90485e-05
0.000227023
-0.000147974
2.96567e-06
2.16802e-05
-2.46458e-05
-4.00904e-05
0.000260684
-0.000220594
-0.000480613
0.000545677
-6.50642e-05
-0.000487184
0.000481151
6.03326e-06
-0.000164577
-2.96139e-05
0.000194191
1.52975e-05
-7.92012e-05
6.39036e-05
-2.93516e-05
-3.6866e-05
-1.51673e-06
-7.33802e-06
-1.20495e-05
6.68645e-06
5.36304e-06
0.000210739
0.000196173
-0.000406912
0.000117858
-0.000143866
2.60074e-05
0.000103404
-0.000145201
4.17974e-05
0.000101037
-9.51253e-05
-5.91191e-06
-0.000479207
0.000567772
-8.85646e-05
1.16693e-05
-7.97545e-06
-3.6939e-06
-0.000311916
0.000362321
-5.04045e-05
-6.9725e-05
3.99476e-05
2.97774e-05
0.000931316
-0.00101696
8.56403e-05
-0.000118358
0.000157918
-3.95606e-05
-0.000132188
0.000209238
-7.70504e-05
0.000244972
-0.000236315
-8.65735e-06
-0.00027294
0.000317203
-4.42633e-05
-8.93899e-05
0.000159655
-7.02646e-05
-0.000169021
0.00011295
5.60705e-05
-0.000249538
1.14999e-05
-0.00023121
0.000150048
8.11617e-05
1.35435e-05
-1.18128e-05
-1.73075e-06
4.73178e-05
0.000125459
-0.000212176
-0.000662981
-0.000276193
-8.74908e-05
-0.000363353
-8.72291e-05
0.000188727
-7.86909e-05
0.00026084
-0.000105885
0.000165663
-8.81214e-05
0.000117174
6.23187e-05
-0.000179493
-4.92049e-05
3.3381e-05
1.58238e-05
7.69303e-06
6.04444e-06
-0.00108886
0.00139745
0.000412566
-7.1534e-07
-0.00041185
-0.000947866
-0.000195233
7.42125e-05
0.000167288
-4.8796e-05
-2.15763e-05
7.03723e-05
-0.000604581
-0.000101439
-0.000795858
-0.000144648
1.7249e-05
-9.14028e-05
7.41537e-05
2.56474e-05
-1.69718e-05
1.86341e-05
-2.73097e-05
-0.000158516
8.04197e-05
0.000514784
-0.000436688
-0.000876915
0.000874503
0.000674012
-0.0006716
0.000145318
-2.89603e-05
-0.000179435
6.30768e-05
-0.00118646
0.00114317
-5.22653e-05
9.55487e-05
-0.00013546
0.00011705
-2.16808e-05
-6.90177e-05
7.51548e-05
-8.51856e-05
-4.19792e-05
3.06536e-05
-4.16492e-05
5.29748e-05
9.3791e-05
-0.000107462
-0.000132778
0.000146449
5.7431e-05
-6.26183e-05
-0.000124954
0.000130142
-0.000189514
0.000162719
0.000175919
-0.000205499
5.04395e-05
0.000596385
-0.000441326
0.000791264
-0.000685548
-0.000186732
8.10163e-05
-0.0014009
-3.51501e-05
0.000249589
0.00022143
-0.000265579
5.59141e-05
-1.17654e-05
0.000255169
5.43688e-06
-4.55687e-05
-0.000215037
0.000713792
-0.00020358
-5.56567e-05
-0.000454556
-0.000359023
-0.000257331
4.24682e-05
0.000573886
-7.96986e-05
5.42712e-05
0.00120501
-0.00117958
0.000114744
-1.57281e-05
-9.90157e-05
1.83394e-05
6.36028e-05
-2.74283e-05
-5.4514e-05
3.47013e-05
1.53894e-05
-7.02011e-06
-4.30705e-05
1.22984e-05
-1.5048e-05
-3.00253e-05
3.27749e-05
-3.612e-05
4.99243e-05
-0.000131102
0.000117298
-4.92116e-05
7.52555e-05
-0.000133287
0.000107243
-5.98137e-06
-1.85075e-06
-9.26883e-05
0.00010052
0.000141631
-5.07259e-05
-0.000221874
0.000130969
0.0001657
-0.000181968
2.4478e-05
-8.21052e-06
2.72529e-05
2.47711e-05
-0.000996838
0.000944814
-0.000113468
4.31504e-05
-0.0007493
0.000819618
0.000871627
-0.000874442
6.89223e-05
-6.61072e-05
0.000182842
-0.000282662
-0.000153186
0.000253007
7.41743e-05
0.000138014
-9.90919e-05
-0.000113097
2.82945e-05
-4.8844e-05
-1.61826e-05
3.67321e-05
0.000162733
-0.000144918
-7.15987e-06
-1.0656e-05
5.34577e-05
0.00067669
-0.00037469
-0.000355458
-7.45361e-06
0.0002271
-9.24028e-05
0.000213602
-0.000210626
-1.04288e-05
1.05252e-05
-3.20899e-05
6.25895e-05
-1.08849e-05
2.95719e-05
-4.8779e-05
3.00919e-05
0.00016104
-0.000123387
6.03409e-05
5.36408e-05
-0.000546697
0.000493056
5.23705e-05
-0.000546473
0.000494103
3.38113e-05
-0.000453723
0.000419911
6.93825e-05
-7.27744e-05
-1.93347e-05
-0.000340728
-9.73522e-06
3.34351e-05
-4.18143e-05
1.81145e-05
-1.76629e-05
2.80603e-05
-0.000956598
0.0009462
-0.000277937
-0.000406557
0.00047239
0.000212104
0.00105701
-0.000451513
-0.000808452
0.00020296
-0.000656172
0.00116385
-0.00087125
0.000363569
1.00789e-05
-2.75577e-05
4.31263e-05
-2.16769e-05
-2.3854e-05
1.83794e-05
-0.000631538
-7.18264e-05
0.000306254
0.00039711
-3.00898e-05
-0.000131773
2.6403e-05
-0.000121848
-3.12401e-05
8.40708e-05
2.33713e-05
8.14896e-05
-6.30948e-05
-4.17661e-05
-0.000200236
0.000103803
9.6433e-05
-0.000232117
0.000219578
1.25388e-05
0.000295566
-0.000222132
-0.000193828
0.000107051
-0.000390895
0.00034342
-5.95759e-05
7.45411e-06
-1.7304e-05
-0.000592397
3.3289e-05
-5.65189e-05
0.000615627
-0.00045982
2.06007e-05
-3.66834e-05
0.000475902
-3.25697e-05
-6.46381e-05
0.000151434
-5.42264e-05
-1.82491e-05
0.000205277
-0.000273803
8.67748e-05
-0.000288332
0.000470482
0.00033208
3.00234e-05
-0.00108278
0.00110922
-5.6466e-05
-3.12041e-06
2.16981e-05
-6.27934e-06
8.53893e-06
5.69473e-05
-3.76946e-06
0.000225628
-1.99283e-06
-0.000231164
7.52948e-06
-5.0163e-05
5.99622e-05
1.16486e-05
-2.14478e-05
3.98342e-05
0.00024877
-9.77951e-06
-0.000278824
-6.61075e-05
-2.89661e-05
4.58687e-05
-0.000341017
-6.37291e-05
0.000297632
0.000107114
-0.000433161
0.000275008
0.000315553
-0.000171491
0.000100133
3.88371e-05
-0.000561138
0.000324892
0.000429351
-0.000561598
1.66047e-05
0.000556376
-1.13826e-05
-0.000612932
1.643e-06
0.00062447
-1.31806e-05
6.47746e-06
0.000635134
-0.000616665
-2.49467e-05
-3.69062e-05
0.000590689
-0.000578571
2.47879e-05
-0.000620887
0.00105348
-0.000765916
-4.56497e-05
5.03738e-05
-5.13454e-05
4.66213e-05
-3.52695e-05
4.95518e-05
-8.35499e-05
6.92676e-05
-6.91219e-05
4.39016e-05
2.41014e-05
1.11891e-06
7.67745e-05
-6.88089e-05
-5.58803e-06
-2.37752e-06
-0.000970648
0.000114351
0.000953514
-9.72162e-05
-0.000117934
0.000676486
-0.000729974
0.000171422
-7.2384e-05
-8.73422e-05
0.000461035
-0.000301309
4.88339e-05
-7.77255e-05
8.85476e-05
-5.96561e-05
-0.000141098
-7.02799e-05
0.000621834
-0.000410456
3.11687e-05
7.54455e-05
-6.25328e-06
-0.000100361
-3.62809e-06
2.60235e-05
-3.4102e-05
-0.000567868
0.000529632
-4.60532e-05
9.45759e-05
-0.000123513
0.000329896
-0.00027566
-7.78297e-07
0.000120607
8.06561e-05
-7.67801e-05
-0.000124483
4.08263e-05
-1.6701e-05
0.000327402
-0.000351528
-4.48717e-05
1.72253e-05
-2.25165e-05
0.000460098
-0.000308394
-0.000525102
0.000762569
-0.000396953
0.00058398
-0.000300255
-9.57447e-06
8.99017e-05
2.89946e-05
2.33097e-05
7.80105e-05
-0.000130315
0.000459366
-0.000744213
-0.000592068
5.96592e-06
-9.25671e-06
-9.41905e-06
-0.000426817
0.000472306
0.00101201
-0.00105749
0.000847937
-0.000171121
-4.76386e-05
-0.000629177
2.35071e-06
8.96256e-06
4.45621e-06
-0.000390106
0.000183988
0.000460313
-0.000238614
6.47668e-05
-6.98351e-05
0.000234041
-0.000787736
0.000684827
1.2536e-05
9.20746e-06
-2.15789e-05
-1.64573e-07
2.95497e-06
0.000161555
-0.000232806
6.8296e-05
-0.000685083
0.000615032
0.00056477
0.000116555
0.000243108
2.13296e-05
-2.76374e-05
0.000109693
-0.000103385
-5.77934e-05
-0.000241807
0.000182429
-4.02395e-06
8.6184e-06
-0.000255166
0.000250571
-0.000168866
-0.000194654
0.000807308
0.000138841
-1.65506e-05
-8.03572e-05
0.000141078
-2.63909e-05
0.000148376
9.11372e-05
-1.05441e-05
5.6735e-05
-3.83956e-05
-2.63859e-05
2.1293e-06
2.27267e-05
0.000127321
2.40395e-05
-2.32226e-05
0.000222334
-2.20425e-05
8.54893e-06
1.12255e-05
0.000233747
-4.05377e-05
-0.000232402
-5.55526e-05
-7.6635e-05
-0.000517548
3.03642e-05
-6.13613e-05
-0.000389338
-7.49462e-05
-0.000580241
0.000152412
-0.00014908
-4.61496e-05
-6.69551e-05
-4.75886e-05
-6.13742e-05
0.000174325
8.37308e-07
6.85572e-06
0.000370153
0.000596662
-2.29113e-05
4.25948e-05
-9.88375e-06
-1.91934e-05
1.21053e-05
-5.75375e-05
-0.000184193
0.000159947
0.000523434
-0.00055097
2.50304e-05
2.50533e-06
6.13292e-05
-0.000317163
0.000213168
8.89648e-05
-0.00014147
6.36626e-05
-4.0314e-05
4.42212e-05
1.08418e-05
-1.4749e-05
0.000275273
0.000470509
0.000208028
0.000336212
-6.3424e-05
-0.00027073
-4.96206e-05
5.28661e-05
-5.02329e-07
-2.74313e-06
-8.93702e-05
6.61775e-06
8.34333e-05
-6.80836e-07
-6.86789e-05
-4.33821e-05
7.1747e-05
-7.25536e-05
-6.46068e-06
4.25614e-05
3.64528e-05
-7.25685e-06
-8.33991e-05
3.01299e-05
6.05261e-05
0.00042548
-0.000118416
0.000136996
-0.000424639
0.000708936
6.00379e-05
-0.000301081
0.000541356
-0.000158657
0.000252134
-0.00024893
-4.36579e-06
1.40912e-05
-1.23122e-05
2.58674e-06
2.66941e-05
8.06177e-05
-4.91328e-05
-5.81789e-05
3.34336e-06
-4.58623e-05
-7.10166e-06
-0.000624535
0.00102956
-0.000734703
0.000329674
3.61542e-05
-0.000117468
-4.23445e-05
4.78197e-05
-0.000110397
-6.62612e-05
3.51697e-05
-1.02726e-05
-5.61685e-05
-0.00105513
0.000943045
7.07537e-05
-1.84838e-05
5.00458e-05
-4.52605e-05
1.36985e-05
-8.80151e-05
5.7535e-05
-3.26118e-05
6.30919e-05
-1.59981e-05
-0.000148579
-5.09169e-05
6.62144e-05
0.000379211
-0.000156535
1.15595e-05
-5.66056e-06
6.33484e-05
-6.92473e-05
4.44042e-05
-4.81672e-05
1.3745e-05
-9.98198e-06
8.17381e-05
5.41921e-05
9.50559e-05
8.36331e-05
-1.16895e-05
-7.95932e-05
7.64961e-06
4.28932e-05
-1.36959e-05
-3.67161e-05
0.000387439
8.79276e-05
0.000258286
0.00116655
0.000116429
-0.0011281
-0.000154878
8.14488e-05
-6.22308e-06
4.76858e-05
-0.000681891
0.000176678
0.000607828
-0.000102615
-0.000109491
-3.657e-06
-1.74958e-06
0.000114897
-5.72332e-05
0.000224499
-0.000124397
-4.2869e-05
3.22164e-05
-8.82081e-05
5.10791e-05
4.91264e-06
-0.000213196
0.000717982
4.52245e-05
-0.00055001
-0.000317694
0.000899802
6.20663e-05
-0.000644175
0.000608983
2.99184e-05
7.30483e-05
-0.00071195
-6.1902e-05
6.46635e-06
8.39394e-05
-2.85038e-05
6.48499e-05
0.000145889
-0.000173522
0.000361703
0.000335359
0.000490246
0.000111722
0.000532189
0.000106779
0.000541047
0.000130786
0.00061396
-8.1481e-06
-3.47677e-06
4.64034e-06
6.98453e-06
5.78208e-05
-8.86906e-06
3.91437e-06
-0.000200757
0.000236911
-0.000204736
0.000252555
-5.29238e-05
8.80936e-05
1.98843e-05
-4.83464e-07
-3.34609e-06
-6.33555e-06
-3.72697e-05
4.54355e-05
-1.83026e-06
2.09997e-05
8.81566e-05
-0.00010567
-3.48604e-06
2.1632e-05
0.000646304
-0.000431417
0.000967532
6.29576e-05
-0.00101545
-1.50425e-05
-0.00026529
0.000258143
0.000302713
0.000137057
-0.000265279
-6.86477e-05
0.00019687
3.28943e-05
-6.65577e-06
-6.89787e-06
5.57636e-06
9.61709e-05
0.000167923
-5.75411e-05
-8.81095e-05
-4.15163e-05
-0.000953762
0.000926179
-0.000399234
-8.81263e-05
-5.63208e-05
8.18521e-06
0.000234203
-3.98074e-06
-0.000238408
-8.18557e-05
0.000720946
1.95718e-05
-0.000658662
-7.88299e-05
0.000616154
1.96248e-05
-0.000556949
4.40206e-05
-5.07104e-05
0.000133419
-0.000126729
-3.07545e-05
4.00522e-05
-3.49648e-05
2.56671e-05
4.78106e-05
-0.000137975
0.000186941
-9.67764e-05
-2.84416e-05
8.51766e-05
-2.16782e-05
3.0743e-05
-1.74897e-05
8.42481e-06
-0.000278332
-6.45671e-05
0.00020266
0.000140239
8.72607e-05
-0.000103857
3.61832e-05
-1.95872e-05
0.000667761
2.08585e-05
-1.65064e-05
-0.000672113
4.2103e-06
8.09634e-05
-6.18023e-05
0.000516246
-2.64009e-05
3.18444e-05
-0.00052169
0.000222906
-0.000134218
-0.000145493
5.68049e-05
-0.000557224
-9.42256e-06
-6.98996e-05
0.000636547
-0.000559019
-9.23753e-05
1.58922e-05
0.000635503
0.000126101
-5.09691e-06
-0.000139382
1.83785e-05
-1.25779e-05
-1.45395e-05
2.71679e-05
-5.0527e-08
-6.57444e-05
-4.10198e-05
6.05942e-05
4.617e-05
-3.70047e-05
4.22331e-05
-3.73182e-05
0.000781882
7.78407e-05
-3.78691e-05
5.01982e-05
4.40209e-06
-9.68377e-06
-0.00116966
-0.000125132
0.00113231
0.00016248
0.000460194
0.000351475
-0.000306344
-0.000505325
8.57435e-05
-4.4684e-05
-3.42854e-05
-6.77405e-06
-0.000120658
0.000143295
-0.000190915
0.000168278
7.20173e-05
-6.7807e-05
-0.000150624
8.01476e-05
-0.000610139
0.000680616
0.00013558
-0.000114075
3.06377e-05
-5.21427e-05
-6.94139e-05
6.44945e-05
2.88436e-05
-2.39242e-05
1.63365e-05
-4.24759e-05
5.27684e-05
-2.66289e-05
0.000179299
-0.00014406
-6.24411e-06
0.00102799
-0.000895857
0.000198667
-0.000330804
-0.00032011
-0.000219875
0.000264135
0.000122245
0.000118056
-0.000111144
-0.000129157
-4.8087e-07
4.11008e-06
-1.62071e-05
-0.000201454
0.00018136
-4.56499e-05
0.000115276
4.14327e-06
6.68172e-06
9.52469e-05
-9.36706e-05
-3.20715e-05
3.04953e-05
2.40304e-05
-6.88294e-05
5.95707e-05
-1.47717e-05
1.08925e-06
-5.9954e-06
0.000229755
-0.000423356
0.000496948
0.00113037
-1.75018e-05
3.03041e-05
-5.19704e-07
3.20534e-06
-0.000185845
0.000183159
-5.98421e-05
0.000212254
-6.99267e-05
0.000123963
-0.00010009
1.12339e-05
-1.3594e-05
-1.26806e-06
-0.000817192
0.000364981
-5.11876e-05
-0.000944295
-0.000557979
0.000203101
7.44937e-05
-1.27561e-05
-9.72924e-05
5.57892e-07
1.96357e-05
-1.03326e-05
-1.43447e-05
-2.48478e-05
2.71431e-05
6.23014e-08
-3.01894e-05
3.34705e-05
-9.04511e-06
2.04465e-05
0.000130025
-0.000141426
-0.000814726
-9.25131e-05
0.000225348
0.000399679
-0.000379799
-0.000163823
0.000143944
-0.000123094
-0.000919002
5.31753e-05
0.00098892
-6.59422e-05
-0.0010032
0.00103136
3.77887e-05
6.2243e-05
-7.8013e-05
-4.20234e-05
-0.000287053
-0.000312566
0.000334329
3.06549e-05
-1.10159e-05
-2.51892e-05
5.55024e-06
-0.000129061
-2.18125e-05
0.000129215
2.16583e-05
-0.000806604
-0.000285696
-0.000177766
-4.41087e-05
-2.06761e-05
0.000242551
9.13214e-05
1.70466e-07
-9.46125e-05
3.12066e-06
0.000235403
-7.59982e-05
1.29253e-05
-3.72789e-05
-2.0518e-05
7.34407e-05
2.41144e-05
-7.0861e-05
0.00010961
-9.49274e-05
-2.94499e-05
1.47674e-05
9.04938e-06
-1.91949e-07
5.03509e-06
-1.38925e-05
4.43054e-05
0.00063043
-2.87323e-05
-0.000646003
9.17016e-05
0.000683746
-5.45803e-05
-0.000720867
3.40007e-05
6.27425e-05
1.28668e-05
3.01493e-05
-0.00108726
0.00108737
-3.02653e-05
0.000260528
-0.00146234
2.86854e-05
0.00117313
-0.0001598
-0.000110332
0.000102362
0.000167771
6.58432e-05
3.37759e-05
-4.39752e-05
-5.56439e-05
0.000350983
-0.000311935
0.000205784
0.000739247
-0.000607869
-0.000752265
3.00956e-06
1.658e-05
6.467e-06
-2.60566e-05
5.95508e-05
-4.49303e-05
-6.82782e-05
5.36577e-05
-6.08947e-05
1.62756e-05
0.000125404
-8.07845e-05
-0.000737294
0.000235001
0.00047998
2.23135e-05
5.25616e-05
-4.65366e-06
2.58156e-06
-5.04895e-05
-0.000127999
1.11618e-05
-1.80646e-05
0.000134902
0.000204918
2.02159e-05
8.02278e-06
-0.000233157
-3.18107e-06
7.74356e-05
-7.42545e-05
0.000306877
-0.00121601
-8.65229e-06
1.00502e-05
3.94542e-06
-5.34332e-06
-1.55146e-05
-5.23765e-05
-7.878e-07
4.20095e-05
-7.84127e-05
-4.37751e-05
8.01783e-05
0.00104012
-0.00146435
0.000184125
0.000240105
0.000476388
8.98761e-06
1.25956e-05
-0.000497971
-6.17619e-06
-2.98125e-06
5.93556e-05
8.83087e-05
8.78514e-05
-0.000958379
0.000782219
2.28089e-05
6.08341e-05
-8.79128e-05
4.26985e-06
-7.04948e-06
0.000170524
-0.000216224
5.27497e-05
-8.15222e-06
-3.0155e-05
4.37168e-05
-5.40961e-06
0.000941978
-0.000621701
5.56393e-06
-0.000175309
0.000165721
1.55446e-05
9.93509e-05
-9.35659e-05
0.000845293
-0.000579338
4.90928e-05
-0.000315047
0.000104488
0.000392939
-5.75836e-05
4.73415e-05
-4.45566e-05
-2.36965e-05
0.00020258
9.68011e-06
-0.000188564
0.000577494
-0.000127148
-0.000429454
-2.08923e-05
6.03264e-06
-1.01306e-05
-1.78643e-05
2.19623e-05
-6.46061e-06
-0.00022717
0.000142207
0.000205569
6.3102e-05
-0.000102626
-9.09346e-05
0.000130459
-1.92249e-06
4.61165e-05
3.93314e-07
-1.3988e-06
0.000205923
1.10955e-05
-3.74873e-06
-0.000135346
-3.48149e-06
-7.89294e-08
5.6122e-05
0.000215524
-0.000236814
9.43798e-05
-7.30899e-05
0.00115303
-0.00113103
-0.000295417
-7.00697e-06
-0.00062664
0.000191586
0.000542104
6.2516e-05
-6.55013e-05
-9.62532e-06
0.000532796
-7.20483e-05
0.00048123
-0.000147338
-5.65335e-05
0.00011693
-2.06163e-05
3.46655e-05
8.14908e-05
-9.55399e-05
3.48066e-05
-2.17649e-06
-4.51153e-05
1.24852e-05
-8.74055e-05
6.3709e-05
2.54777e-05
-8.40976e-05
7.51354e-05
-1.65155e-05
0.000727799
9.91936e-05
-4.51107e-05
0.000171355
0.000166449
-0.000271383
0.000234476
-0.000470149
0.000476627
-0.000345526
0.000227592
-0.0011391
0.00114112
9.59015e-05
-9.79226e-05
0.000215912
0.000595266
-0.000302924
-0.000399311
1.72015e-05
-0.000139859
-0.000215027
-0.000290517
0.000503253
-0.000754182
-0.000157152
0.000408082
-0.000805509
0.000370774
-0.000113358
0.000548092
-3.96973e-05
0.000117974
-0.000349342
0.000271065
-2.4428e-05
-5.41562e-05
-0.00106447
0.00114306
8.63073e-05
-0.00038095
0.000773161
0.000179012
-0.00082374
-0.000128434
-5.15257e-06
1.58367e-06
2.34532e-05
0.000738537
-0.000684115
7.63644e-05
0.000628288
-0.000684828
0.000163319
0.000553748
-0.000515386
7.33597e-05
1.01105e-05
8.83101e-05
-7.09924e-06
0.000121151
3.89002e-05
-9.69497e-05
6.81262e-05
-9.49601e-05
7.90218e-05
-5.21879e-05
0.000646417
-0.000546051
-6.43628e-05
-3.60031e-05
0.000677449
-0.000576081
-2.36853e-05
-7.7683e-05
0.000104125
0.00154708
-0.00121434
-0.000436865
2.99878e-06
-1.29498e-06
-1.38757e-05
1.21719e-05
-0.000993293
-0.0006374
0.00105511
0.000575585
-6.79771e-06
-1.01521e-06
-2.87152e-05
3.65281e-05
2.33773e-05
-2.9954e-05
-1.68682e-05
2.34449e-05
1.76718e-05
-5.06211e-05
-6.73655e-05
0.000100315
0.000117269
-4.4321e-05
0.000654851
0.000583163
-0.000828437
0.000346554
0.000600172
-0.000828145
0.000351627
2.48893e-05
8.7769e-05
-6.74878e-06
1.31591e-05
3.72127e-05
-4.3623e-05
0.00060034
-7.01058e-05
0.000146252
-7.31989e-06
1.74052e-05
-7.05132e-06
-0.000115552
-0.000186523
2.66872e-05
0.000275388
0.000188614
0.000805804
-0.000642943
-0.000306544
-0.000349691
0.000378298
0.000667381
-0.000632069
-0.000152464
0.000117153
-7.08254e-05
1.58311e-05
5.13373e-05
0.000112352
-1.38594e-05
5.94252e-05
0.00013654
-3.13274e-05
5.44424e-05
-3.79979e-05
9.48992e-05
0.000530664
-0.000640155
0.000109491
-0.000404156
0.000289204
-0.00127599
0.00139094
-0.000168827
0.000150051
0.000258742
-0.000239966
0.000102465
3.52574e-05
-6.45888e-05
-7.31336e-05
-0.000442715
-3.07797e-05
0.000606782
-0.000133288
0.000223877
-0.000187971
-0.000391558
-7.69364e-06
-1.74799e-06
-4.42121e-07
0.000113543
-8.9569e-05
7.8491e-05
-7.5244e-05
7.83969e-05
5.63979e-05
-4.58915e-05
6.28038e-06
7.18831e-05
-3.22719e-05
0.000210734
-0.000215824
0.000113713
-0.000108623
4.86659e-05
2.24538e-05
9.16138e-05
-4.92373e-05
-2.15537e-06
5.09092e-05
-2.26604e-05
4.77016e-05
-6.91453e-05
4.41041e-05
1.5811e-05
-7.61614e-06
1.12284e-05
-1.94232e-05
4.70203e-05
-1.17629e-05
-0.000136732
6.96289e-05
-9.26973e-05
5.10627e-05
-3.68656e-05
5.16461e-05
-8.87228e-06
9.10375e-05
1.30817e-05
-0.000642141
-0.000388261
0.000780412
0.00024999
0.000822539
-0.00104108
0.00035657
-0.00013803
8.55701e-06
2.60151e-05
-2.80217e-05
-6.55037e-06
4.24218e-06
0.000293938
-0.000346731
4.85506e-05
-9.53102e-05
6.38308e-05
2.04855e-05
1.09939e-05
-0.00133094
0.0011694
-0.000248953
0.000410496
0.000381853
-0.000326136
-0.000130693
7.49765e-05
1.18002e-05
0.000678901
-0.000677298
-1.34033e-05
-0.000352127
2.012e-05
0.000138284
-0.000557582
0.000536633
-0.000117334
0.00016296
-0.00065398
0.000659573
-0.000168553
-0.000102367
-0.000756119
0.000858485
-1.34846e-05
6.55905e-06
-1.58586e-05
2.27842e-05
3.88094e-06
-5.72844e-06
1.06737e-06
7.8013e-07
0.000156483
-0.000107282
0.000119764
-0.000168965
-9.27015e-05
-0.000191735
0.000223541
-5.92487e-06
8.9398e-06
-1.16672e-05
-0.000159069
-3.21286e-06
0.000106762
5.55192e-05
-0.000122567
-2.62219e-06
9.51663e-05
3.00226e-05
-2.61931e-05
1.99919e-07
0.000359946
-0.000333953
0.00106945
-0.00109029
-6.57264e-05
8.65718e-05
-0.000174031
1.62963e-05
0.000104588
1.03479e-05
-0.000114935
2.22217e-05
0.000159094
-3.17101e-05
-0.000149606
3.16752e-06
-6.79106e-05
7.30894e-07
6.40122e-05
-2.01591e-05
2.46333e-05
-9.81448e-05
-3.67224e-06
-8.84671e-06
0.000127795
-5.7384e-06
5.07729e-05
-0.000246489
-8.80729e-06
3.38619e-06
4.94023e-06
0.000654765
5.1081e-05
-7.07114e-05
0.000603909
3.12409e-05
-4.44608e-05
-0.000553049
2.34721e-05
-3.20209e-05
-0.000541637
-3.60329e-05
-3.52621e-05
-0.000365413
-0.000191138
0.000215534
-0.000985801
-0.000171029
0.000282387
8.86301e-05
-1.29788e-06
-3.69911e-06
-0.00010035
-0.00114193
0.00116258
-6.14738e-05
4.06578e-05
-0.00017942
-0.000103812
-1.04014e-05
-0.000117903
0.000674546
-0.000192522
-0.000560854
0.000691477
-0.000182764
-0.000590569
-1.17819e-05
3.25879e-08
0.000167987
-0.000156237
5.82612e-06
0.000667387
-5.83284e-06
-0.000105468
0.000129518
-8.73683e-07
-2.31768e-05
6.40978e-05
-7.19814e-05
3.35617e-05
-2.56781e-05
3.43836e-05
-2.59017e-05
1.01521e-05
-2.24437e-05
9.63539e-06
7.06291e-05
-2.2585e-05
-7.94555e-05
1.54967e-05
8.65438e-05
0.000260065
-2.9147e-05
4.32177e-05
-0.000274136
-0.00033347
-7.972e-05
6.10626e-05
-0.000401128
0.000282984
0.000352184
-1.52086e-06
-1.7447e-05
1.90301e-05
4.73865e-05
3.39068e-06
9.185e-06
4.6714e-05
-8.71404e-05
8.55863e-05
-4.51599e-05
-0.000335916
4.54166e-05
0.00031163
-2.11301e-05
0.000304572
0.000363989
-0.000589171
-7.93902e-05
0.000223586
-0.000587863
-0.000277864
0.000468525
0.000330516
-0.000647784
-0.000151257
-9.89368e-05
8.31908e-05
1.29003e-05
2.84569e-06
0.00011417
0.00016373
-0.00101519
3.6451e-05
-1.57637e-05
-2.83809e-05
-1.85445e-05
-1.85797e-05
2.8317e-05
-0.000103955
-3.72051e-06
0.000104003
0.000899193
-2.32785e-05
-0.000766354
-0.00010956
-2.08422e-05
-2.72626e-06
-9.49861e-05
-0.000187676
-1.63e-06
7.90656e-05
-0.00010389
0.00111269
0.000155049
-8.38081e-05
0.00019665
0.000102682
-0.000404117
0.000326961
0.00052325
-0.000446094
0.000269778
-0.000250762
0.000436125
-0.000455141
1.71899e-05
7.96441e-05
-1.00602e-05
-8.67739e-05
2.1326e-05
-1.77925e-05
-1.15939e-05
8.06031e-06
-0.000253792
4.49944e-05
4.8167e-05
0.00016063
-0.00110996
0.00110552
9.22965e-05
-0.000724092
0.000469645
-0.000650904
0.000562205
-0.000383222
-0.000183305
0.000165399
0.000111305
-3.76266e-05
0.000860068
-0.00102792
-0.000262891
0.000430739
-0.000227199
-0.000988347
0.00118983
2.57181e-05
-0.00105878
0.00108728
-0.00012885
-0.000496885
0.000441323
0.000361323
-0.000305761
-0.000277821
0.000286266
2.09115e-05
-2.93565e-05
-0.000130232
-4.00823e-05
2.53962e-05
-0.000625176
0.000734424
-0.000497509
0.000155263
-1.23443e-05
-2.58338e-05
1.17281e-05
1.57884e-05
-1.68271e-06
-0.000171359
0.00016448
-2.53832e-05
9.77661e-06
0.000104237
-0.000918037
0.000882008
-0.000275513
0.000311541