/*--------------------------------*- C++ -*----------------------------------*\
| =========                 |                                                 |
| \\      /  F ield         | OpenFOAM: The Open Source CFD Toolbox           |
|  \\    /   O peration     | Version:  v1912                                 |
|   \\  /    A nd           | Website:  www.openfoam.com                      |
|    \\/     M anipulation  |                                                 |
\*---------------------------------------------------------------------------*/
FoamFile
{
    version     2.0;
    format      ascii;
    class       volScalarField;
    location    "0.44";
    object      nut;
}
// * * * * * * * * * * * * * * * * * * * * * * * * * * * * * * * * * * * * * //

dimensions      [0 2 -1 0 0 0 0];


internalField   nonuniform List<scalar> 
1431
(
0.00161795
0.00234164
0.002304
0.00168287
0.000813287
0.00212992
0.0032257
0.000787543
0.00474178
0.00727496
0.000643659
0.000925779
0.00135121
0.00132991
0.0041566
0.000684867
0.00433217
0.00246196
0.000429445
0.00078311
0.000758017
0.00446622
0.00362972
0.00142852
0.00147939
0.000909039
0.00152544
0.00123885
0.00100257
0.00174045
0.00146264
0.000724961
0.00194677
0.00101626
0.000891064
0.00203996
0.00130682
0.000858798
0.00297144
0.000858027
0.00234413
0.000500485
0.00148963
0.0023342
0.00364989
0.00188855
0.00245932
0.000815197
0.000888768
0.000869919
0.00201212
0.00687985
0.00412416
0.00217586
0.00298495
0.000773476
0.00538633
0.00274729
0.00102174
0.000547375
0.00351593
0.000707687
0.00237598
0.000783593
0.000905639
0.00178562
0.00234821
0.00136856
0.00352982
0.000751161
0.000901959
0.000806547
0.00107713
0.002305
0.000870163
0.00117504
0.00112594
0.00301182
0.000785931
0.00223586
0.00080622
0.00272795
0.00124804
0.00301868
0.00234454
0.00093662
0.00117258
0.000812222
0.00153495
0.0013754
0.00184114
0.000823308
0.00111346
0.000862015
0.00246066
0.000946356
0.000844684
0.000730001
0.0013103
0.00110811
0.00354387
0.000807664
0.00213791
0.000850785
0.00106951
0.00191754
0.000786713
0.0029486
0.0020495
0.000880826
0.00262793
0.00136892
0.000757127
0.00144226
0.00102204
0.000817031
0.00242871
0.00346895
0.00165154
0.00281241
0.000859274
0.00368964
0.00657061
0.00138174
0.000831423
0.00240382
0.00178535
0.000919249
0.001929
0.000810969
0.000889195
0.00278313
0.00101005
0.00200997
0.000997272
0.00089026
0.000853376
0.00212034
0.00198795
0.00275028
0.00457064
0.000577608
0.000770369
0.000943774
0.00109365
0.00077603
0.000734832
0.00304944
0.000980802
0.000807225
0.000820448
0.00095749
0.00296085
0.000658173
0.000308251
0.000873433
0.0008036
0.00176197
0.000757915
0.000711786
0.0023757
0.00105814
0.00218443
0.000864005
0.0011798
0.00323915
0.000979377
0.000863368
0.0017579
0.00209854
0.00107974
0.000870602
0.00136637
0.000770063
0.000772193
0.000442432
0.00057145
0.000874325
0.0016001
0.00071361
0.000840018
0.00443185
0.000754918
0.00168141
0.000773712
0.000816867
0.000754734
0.00123197
0.000987011
0.000799878
0.00581758
0.00441505
0.00105167
0.000791258
0.00515394
0.000846076
0.000786257
0.000840891
0.000335257
0.000330555
0.000558587
0.000663536
0.000756791
0.00228332
0.00078687
0.00198622
0.000972469
0.000834594
0.00102874
0.000879333
0.000790329
0.000784501
0.00164346
0.000831815
0.00209729
0.00132276
0.000758637
0.00506593
0.00166332
0.000833875
0.000830561
0.00233861
0.00077825
0.00214182
0.000825298
0.000872711
0.000977974
0.00189246
0.000833785
0.00158815
0.0010432
0.00110486
0.00074787
0.00079817
0.000791524
0.000784974
0.000737723
0.00218481
0.000827383
0.00225612
0.000843927
0.000727973
0.00448079
0.00366558
0.000911775
0.000963254
0.00083019
0.00228327
0.00161726
0.000981116
0.000725454
0.00454153
0.00651789
0.00113757
0.00267699
0.00108854
0.000587679
0.00248922
0.00112267
0.00109716
0.00107725
0.000972033
0.00135607
0.00440585
0.000791271
0.000813124
0.00102312
0.000746258
0.000974408
0.0046851
0.00074475
0.000945402
0.000728091
0.000727964
0.00106713
0.000765401
0.00194466
0.00315719
0.002527
0.00720337
0.00493337
0.00235163
0.00171675
0.00179054
0.00102021
0.00133261
0.00099428
0.000756262
0.000912755
0.000833474
0.000777058
0.000869572
0.000749094
0.0041621
0.000734436
0.000745954
0.00122811
0.000765495
0.00215989
0.000706911
0.000845484
0.00101802
0.00108539
0.000745221
0.00126806
0.00188942
0.000829004
0.00109545
0.00110503
0.00142645
0.000836953
0.000783929
0.00297806
0.000968861
0.00107199
0.00185098
0.00649138
0.00216524
0.000796513
0.00297729
0.00171553
0.00233167
0.00370126
0.00185008
0.00655906
0.00342154
0.000807446
0.00347928
0.00176274
0.000831357
0.00283207
0.00106303
0.00275815
0.00559324
0.000786832
0.00471253
0.00138281
0.002023
0.00147233
0.00176735
0.000374339
0.000823089
0.00354607
0.000932979
0.00182148
0.000455303
0.000825957
0.000694756
0.000211571
0.00048589
0.000828881
0.000577
0.000759497
0.000651717
0.00043473
0.000803161
0.000665045
0.000367253
0.000610099
0.000491915
0.000562865
0.000648203
0.000645907
0.000221234
0.000254058
0.00067663
0.000608074
0.000642079
0.00229559
0.00287476
0.00207617
0.00268663
0.00286796
0.000764969
0.00377758
0.00164101
0.00316049
0.000842487
0.000848862
0.000639224
0.000566321
0.000693831
0.000442424
0.000718087
0.000732765
0.000627218
0.000685427
0.000369464
0.000642906
0.000213765
0.000733868
0.00285814
0.000892932
0.000848695
0.00330344
0.00087925
0.0019578
0.000834667
0.00706304
0.000772781
0.000585318
0.00276891
0.000832754
0.00174603
0.00229022
0.000784754
0.00228546
0.000726758
0.00126184
0.00317499
0.00083217
0.000569666
0.00239262
0.00220094
0.0010097
0.00103167
0.00302521
0.00439616
0.00221909
0.00170519
0.00197562
0.00421341
0.00534622
0.00258822
0.00272204
0.00306956
0.00262433
0.00461628
0.00602905
0.00269654
0.00525053
0.00203576
0.000474395
0.00600572
0.00252427
0.00292675
0.00524361
0.00500485
0.00228855
0.0038083
0.00328057
0.00115323
0.005646
0.00514242
0.000552694
0.00712067
0.0071049
0.0016132
0.00080887
0.00562684
0.0062872
0.00461604
0.00700644
0.00467079
0.00411087
0.00383414
0.00386907
0.00426515
0.00387373
0.0026843
0.00309355
0.000579292
0.0032936
0.00233387
0.00269344
0.00239531
0.00115264
0.00299405
0.00234103
0.00262375
0.00264137
0.00239569
0.000744641
0.0010788
0.00224647
0.00216102
0.00272079
0.00270168
0.00412899
0.000549752
0.00281727
0.00270136
0.00109015
0.000801964
0.000827425
0.0036438
0.00219254
0.00659643
0.00418443
0.00070655
0.000621174
0.000571813
0.00175014
0.00325955
0.000560323
0.00290189
0.00128048
0.00439953
0.00083718
0.00345285
0.0019396
0.00152594
0.00384874
0.0027545
0.00260594
0.00194039
0.00177739
0.00608401
0.00283649
0.00111598
0.0010327
0.00163874
0.000744182
0.00200702
0.000792784
0.00295211
0.00361616
0.00140253
0.00281906
0.00216107
0.00258405
0.00212945
0.00385857
0.00114097
0.00266685
0.00488283
0.0021513
0.00375159
0.00238786
0.00437858
0.000812401
0.000746957
0.00238666
0.00296203
0.00467172
0.00391699
0.00326739
0.003479
0.00706271
0.00229605
0.00263355
0.00385324
0.00301231
0.00542394
0.000596892
0.00725765
0.00413414
0.000797334
0.00527929
0.00161612
0.00273961
0.000464762
0.00107157
0.00451095
0.0029398
0.00216699
0.00334502
0.00325936
0.00103259
0.000759537
0.00685434
0.00234881
0.00419115
0.00418819
0.00249224
0.00147155
0.00667119
0.000741418
0.00294258
0.0024492
0.000731501
0.00725712
0.00272248
0.00733212
0.0030735
0.00154013
0.00558727
0.00295219
0.002455
0.000985978
0.00289283
0.000799277
0.0020219
0.00297703
0.00115838
0.00276337
0.00241559
0.000784036
0.00241151
0.000798793
0.00556428
0.00280375
0.000848229
0.000774479
0.000765159
0.00237832
0.000786023
0.00531098
0.000739966
0.000667004
0.0026269
0.00210032
0.001605
0.00331569
0.00320056
0.00690364
0.000810114
0.00148782
0.0074082
0.00207877
0.00170686
0.00706032
0.00198876
0.00482756
0.00193184
0.000745128
0.00287242
0.00369816
0.00368877
0.00584096
0.0014475
0.00146305
0.00216818
0.00106859
0.0048624
0.000934763
0.00130528
0.000878185
0.0061127
0.000805716
0.00706934
0.00189558
0.000588967
0.000806433
0.00177358
0.0051282
0.0014469
0.000733377
0.00106848
0.00166433
0.00268958
0.00682422
0.000807443
0.00706579
0.00429751
0.00297913
0.00236211
0.00437536
0.00651911
0.00157557
0.00255374
0.00142539
0.000762326
0.00111373
0.00443256
0.00560417
0.000821052
0.000841187
0.00589558
0.00671816
0.0029517
0.00105193
0.00154338
0.00171148
0.000828012
0.000588124
0.00084821
0.00696401
0.00630333
0.00316029
0.000918157
0.000822515
0.00185327
0.00307998
0.000802871
0.000763281
0.00168287
0.00310163
0.00142257
0.00102675
0.00444178
0.000546774
0.000873182
0.00218807
0.00467217
0.00299274
0.00367283
0.00284296
0.0035176
0.00219557
0.00190711
0.00302588
0.00251843
0.00217851
0.00645801
0.00123093
0.000234612
0.000754603
0.000824979
0.000722585
0.00273117
0.00122592
0.000763795
0.00113641
0.000852397
0.00134822
0.00110104
0.00718539
0.00085055
0.00239205
0.00215488
0.000718541
0.00157733
0.00647978
0.00418728
0.000635386
0.00262335
0.00503325
0.0007158
0.00214521
0.000644419
0.000841025
0.000805174
0.00362352
0.0018605
0.000626115
0.00553742
0.00480901
0.00068424
0.000529818
0.00285855
0.000628099
0.000700819
0.000717243
0.00427524
0.00076632
0.00136308
0.0034204
0.00718169
0.00129549
0.00288106
0.00468105
0.000686547
0.00187034
0.000784388
0.000663489
0.000749671
0.000865982
0.00120697
0.00101053
0.00438163
0.000755458
0.000737304
0.000759341
0.00153022
0.000924153
0.00084506
0.000843175
0.000873583
0.00194007
0.0012015
0.00120027
0.00173614
0.00196442
0.000854741
0.00330322
0.000474104
0.00191683
0.000792982
0.000751911
0.00393842
0.00354341
0.000778362
0.00160011
0.00046475
0.000775732
0.00122628
0.00304737
0.00635024
0.000983091
0.00109226
0.000579944
0.000767469
0.00415776
0.00182595
0.00383687
0.000694056
0.00166164
0.000872393
0.00212634
0.00176856
0.000772041
0.000872914
0.000927314
0.000847833
0.000834625
0.000849682
0.00153838
0.00426584
0.000809647
0.00679286
0.00313779
0.000712214
0.00129564
0.000253853
0.00144776
0.00214627
0.002468
0.00298702
0.00125837
0.000829761
0.000811443
0.00419378
0.000968722
0.00187233
0.000833593
0.000673402
0.000596957
0.000538641
0.000648879
0.000837436
0.000732319
0.000772511
0.00164329
0.000786557
0.000777099
0.00122905
0.00323256
0.00156722
0.000956066
0.000814796
0.000530204
0.00177355
0.000893843
0.00153538
0.0010453
0.00632819
0.00111859
0.000696978
0.00632367
0.000779113
0.00072664
0.000732966
0.000663866
0.00231146
0.000712958
0.00174008
0.00209953
0.00127529
0.000821728
0.00264526
0.00244351
0.00261607
0.00050385
0.00177061
0.00114331
0.00656763
0.00411459
0.000837821
0.000867309
0.000807156
0.0016023
0.00125286
0.00248076
0.00187282
0.0014134
0.000805088
0.000762411
0.000830879
0.00191337
0.0007849
0.00204506
0.00207543
0.00261511
0.000826127
0.000775703
0.00202473
0.00271323
0.00273442
0.000818805
0.0013572
0.00182665
0.00126243
0.00128293
0.000746852
0.00160188
0.00107545
0.00300683
0.00389941
0.000705408
0.000877535
0.00309772
0.00230988
0.000826285
0.00181567
0.00315546
0.000676345
0.00175359
0.00245735
0.000931686
0.00188911
0.00218466
0.0037915
0.00363444
0.000947581
0.000946188
0.000846635
0.00214666
0.00103301
0.00050008
0.00203667
0.000806966
0.0049542
0.00210207
0.0034701
0.00348454
0.00249449
0.000864373
0.000859281
0.00107767
0.00548645
0.000785146
0.00106238
0.000815251
0.000795521
0.00105961
0.00130902
0.000729795
0.00746774
0.000690736
0.00366733
0.000749567
0.0010927
0.000324474
0.000221099
0.000239404
0.000453735
0.000224291
0.000222055
0.00171818
0.000285151
0.00066506
0.000820117
0.000212265
0.00154289
0.000334205
0.002659
0.00101805
0.00275507
0.00024064
0.00761561
0.000288239
0.000733149
0.00664113
0.00394424
0.00149711
0.000205313
0.00212223
0.00689386
0.00161715
0.00421371
0.00536917
0.0019874
0.00282889
0.00158243
0.000238018
0.000216308
0.000953234
0.000252733
0.0026379
0.0070221
0.00335036
0.00144356
0.000967656
0.00561551
0.00306739
0.000817072
0.000229051
0.000227447
0.000915117
0.00271953
0.000782561
0.00659025
0.00252088
0.00406862
0.000776974
0.000261029
0.00324349
0.000300382
0.00107464
0.000328534
0.000825612
0.00599197
0.0023333
0.000830005
0.00149093
0.00418248
0.000896781
0.00261837
0.00081957
0.000849228
0.00103284
0.000811778
0.002317
0.00271016
0.000777692
0.00213549
0.00455145
0.000846066
0.00170029
0.00542538
0.00516494
0.000813671
0.000728614
0.000976874
0.00298776
0.00250384
0.00356861
0.00247729
0.00642778
0.0031052
0.00385469
0.00304701
0.00260254
0.00107717
0.00152948
0.00139599
0.00250356
0.000636139
0.00258202
0.00645444
0.0041607
0.0027522
0.00292994
0.00138145
0.00495554
0.00287894
0.000837751
0.00374572
0.00228697
0.00128411
0.000832899
0.000778613
0.00185944
0.00509386
0.00282263
0.00306097
0.0059605
0.000752593
0.00374027
0.00206224
0.00062438
0.00495246
0.0041375
0.0015125
0.00252101
0.00232658
0.000788265
0.000588699
0.000753134
0.00466423
0.00465135
0.000846566
0.000802927
0.000783004
0.00190209
0.000824187
0.0007776
0.000840687
0.00540691
0.0013929
0.000799021
0.000828373
0.00215236
0.000823273
0.00317595
0.000251367
0.000783345
0.000791175
0.000802617
0.00029331
0.000806314
0.00218761
0.00114121
0.000750533
0.00034229
0.00104671
0.00102941
0.000796441
0.0040844
0.00244358
0.00074393
0.00190216
0.000772687
0.000534483
0.000272046
0.00122041
0.000833389
0.00210891
0.00253588
0.00196244
0.000322675
0.000828244
0.000932693
0.000539398
0.000865902
0.00304022
0.000896031
0.0015945
0.000808865
0.00107076
0.00479751
0.00335205
0.000692013
0.00183491
0.000898815
0.00254857
0.00239448
0.00105704
0.000798996
0.00264019
0.00260687
0.000790657
0.000286236
0.000965931
0.000295208
0.002505
0.00232001
0.00254113
0.00341648
0.000788367
0.000523338
0.00151871
0.00411881
0.000486215
0.00135219
0.000864632
0.00102863
0.00287483
0.000539918
0.00179428
0.00127974
0.00475651
0.00770807
0.00200655
0.000801149
0.000827139
0.000312257
0.00176147
0.000822951
0.00306617
0.000722031
0.00181816
0.00386734
0.00184698
0.00238591
0.00492673
0.00115401
0.00051257
0.000837589
0.00136422
0.000235677
0.000895218
0.00175147
0.00750523
0.00157282
0.000764578
0.000619031
0.00182809
0.000305206
0.000840552
0.00248092
0.00515644
0.000853747
0.000840142
0.000839721
0.000789083
0.000518049
0.000613297
0.00391921
0.000616004
0.00332214
0.000748043
0.00153302
0.00347195
0.000828738
0.00324531
0.00347572
0.000591784
0.000854789
0.00204153
0.00225653
0.000870413
0.000315151
0.00481188
0.0052248
0.000913488
0.0034405
0.00103624
0.000740231
0.00332676
0.00445969
0.00236336
0.00207202
0.00502607
0.000882377
0.000852325
0.00156655
0.00665043
0.00084239
0.000819691
0.00160976
0.00608024
0.00123914
0.00223137
0.00156429
0.00278415
0.000820889
0.0016651
0.00160065
0.00254847
0.0069999
0.000473382
0.000363037
0.00451714
0.000748353
0.000878155
0.000744515
0.000774063
0.000844455
0.000908411
0.00228832
0.00080182
0.000955097
0.000257175
0.00661383
0.00115362
0.000911298
0.00277299
0.00176819
0.00261149
0.003312
0.00160301
0.00214379
0.00199765
0.00324918
0.00120631
0.00127351
0.00280468
0.00072883
0.00117026
0.000834572
0.000792204
0.00245136
0.00340491
0.00704015
0.00221142
0.00062215
0.00585867
0.00199692
0.00135605
0.00293605
0.00379584
0.00433913
0.000770768
0.000844394
0.00336872
0.00239851
0.0014632
0.00492751
0.00290565
0.00278238
0.000994921
0.000830703
0.00065358
0.000816243
0.000872383
0.00143807
0.000840629
0.00101289
0.000560192
0.000955315
0.00082348
0.000962771
0.00287167
0.00280961
0.00608723
0.0044308
0.00608055
0.00211795
0.00277978
0.00117067
0.00378143
0.00105302
0.00154618
0.000845921
0.00239121
0.00441486
0.00170997
0.00106596
0.0052633
0.000786223
0.0042581
0.00455284
0.00630637
0.0063081
0.0039754
0.000775134
0.00223758
0.00757032
0.000845974
0.000784483
0.000715587
0.00328077
0.00177373
0.000800104
0.00313402
0.0039954
0.00171503
0.00247349
0.00115528
0.000313666
0.00297833
0.00722852
0.00298837
0.00252061
0.00103551
0.00085559
0.00334008
0.00184151
0.00276269
0.00237753
0.0019167
0.00199717
0.000759694
0.00128067
0.00212159
0.000820744
0.00108798
0.000974233
0.000730265
0.0011109
0.00252433
0.000852435
0.000232368
0.000915154
0.00181563
0.000803162
0.000930583
0.00118615
0.000949121
0.000683211
0.00166217
0.00210941
0.00269255
0.00206748
0.00233309
0.000858287
0.00115603
0.00261688
0.00165893
0.00294887
0.000725119
0.00304915
0.00308425
0.0024049
0.0010015
0.0007538
0.00100499
0.000696417
0.000947564
0.00122786
0.000949841
0.00113081
0.00212515
0.00207945
0.00328774
0.000959657
0.000800993
0.00777429
0.00081091
0.00209325
0.00285288
0.00275167
0.000813524
0.00102825
0.00187393
0.000843149
0.000632118
0.000891479
0.00094493
0.00181355
0.00138597
0.00204654
0.0059477
0.00110237
0.00118994
0.00105849
0.00083769
0.000836249
0.0014047
0.000837164
0.00083421
0.00134119
0.00328302
0.00159205
0.000878896
0.000911431
0.000914953
0.000793732
0.00316471
0.00323385
0.00424025
0.00687104
0.000742192
0.000664359
0.00407672
0.00763565
0.00446712
0.0072891
0.00345458
0.000804165
0.000760026
0.00114935
0.000738372
0.000995888
0.00106839
0.00166221
0.000821855
0.00121175
0.00117249
)
;

boundaryField
{
    frontAndBack
    {
        type            empty;
    }
    wallOuter
    {
        type            nutkWallFunction;
        Cmu             0.09;
        kappa           0.41;
        E               9.8;
        value           nonuniform List<scalar> 
90
(
8.24061e-05
7.6734e-05
7.77982e-05
7.56398e-05
8.2442e-05
8.4415e-05
8.6345e-05
9.40807e-05
8.00388e-05
8.86782e-05
9.12198e-05
9.50644e-05
9.0367e-05
9.30898e-05
9.2151e-05
0.000104179
9.97225e-05
8.1199e-05
7.21879e-05
6.52237e-05
7.8322e-05
0.000100163
8.80658e-05
9.27253e-05
8.0083e-05
0.000112688
0.000112384
8.77716e-05
8.31243e-05
3.74077e-05
2.63868e-05
2.77752e-05
5.32781e-05
2.70573e-05
2.67383e-05
2.53714e-05
2.86488e-05
3.48603e-05
8.82043e-05
2.43775e-05
2.83847e-05
2.57912e-05
0.000113661
2.97794e-05
2.74004e-05
2.73072e-05
3.61616e-05
0.000127248
3.9899e-05
0.000106905
0.000115906
7.63867e-05
7.54368e-05
9.62684e-05
9.92945e-05
3.54643e-05
4.17657e-05
0.000124071
0.000121683
8.94115e-05
6.47254e-05
3.25766e-05
3.86407e-05
0.000111156
9.68843e-05
8.33265e-05
0.000107123
3.39263e-05
0.000114942
3.5581e-05
6.20182e-05
2.73293e-05
9.17404e-05
3.66512e-05
0.000102264
7.44067e-05
7.15725e-05
0.000103921
3.76521e-05
0.000108951
5.7323e-05
0.000113709
3.01456e-05
7.51728e-05
6.68494e-05
3.75917e-05
0.000102091
2.69519e-05
8.23468e-05
8.38903e-05
)
;
    }
    inlet
    {
        type            calculated;
        value           uniform 0.000851986;
    }
    outlet
    {
        type            calculated;
        value           nonuniform 0();
    }
    wallInner
    {
        type            nutkWallFunction;
        Cmu             0.09;
        kappa           0.41;
        E               9.8;
        value           nonuniform List<scalar> 
138
(
0.000112576
5.28917e-05
0.000220581
0.00012034
0.000105288
6.09905e-05
0.000262734
0.000160875
0.000107609
9.64908e-05
0.00013808
0.000119631
7.74838e-05
3.67759e-05
5.29622e-05
6.97536e-05
4.03246e-05
3.90759e-05
6.48356e-05
8.00318e-05
0.000241432
0.000128369
7.22783e-05
0.000132152
0.000129325
0.000127116
0.000121093
0.000125992
0.000120763
0.000129135
0.000130198
4.42205e-05
5.28451e-05
8.50498e-05
2.42855e-05
5.91281e-05
0.000100648
7.12067e-05
9.31927e-05
7.95569e-05
5.39052e-05
9.75309e-05
8.18969e-05
4.49035e-05
7.36596e-05
6.00776e-05
6.93376e-05
7.97712e-05
7.91322e-05
2.54757e-05
2.97229e-05
8.29151e-05
7.47163e-05
7.88651e-05
7.63605e-05
6.97194e-05
8.49066e-05
5.22205e-05
8.82379e-05
8.97235e-05
7.70514e-05
8.3776e-05
4.54046e-05
7.81188e-05
2.45405e-05
8.95402e-05
7.11923e-05
6.91275e-05
0.000122289
5.78211e-05
0.000133583
6.64649e-05
9.84868e-05
7.11864e-05
0.000127528
6.79073e-05
0.000128795
8.6115e-05
7.53315e-05
7.03833e-05
6.9112e-05
0.000149742
0.00017636
0.000129497
0.00012053
0.000162985
7.31852e-05
5.77616e-05
0.000126485
0.000122143
8.90759e-05
7.79807e-05
7.07366e-05
6.82151e-05
6.72737e-05
2.70645e-05
9.18802e-05
6.53923e-05
7.54934e-05
8.27276e-05
0.000141585
5.80265e-05
5.69094e-05
7.07646e-05
0.000110579
2.92818e-05
9.97326e-05
0.000131699
8.43315e-05
6.19194e-05
6.16974e-05
0.000125156
3.32556e-05
8.10866e-05
4.05965e-05
0.00011491
9.33483e-05
3.06855e-05
0.000100292
0.000122559
7.2691e-05
2.85064e-05
9.39482e-05
6.566e-05
6.45594e-05
5.94095e-05
9.90261e-05
3.68469e-05
6.38857e-05
7.49722e-05
4.28015e-05
8.01249e-05
0.000135374
8.87668e-05
0.000120041
0.000191077
0.0001026
0.000137669
)
;
    }
    procBoundary0to1
    {
        type            processor;
        value           nonuniform List<scalar> 
29
(
0.00299724
0.00315838
0.00353959
0.00353959
0.0050838
0.0050838
0.00289563
0.00157948
0.00191504
0.00359081
0.00255446
0.00194333
0.00136602
0.00102241
0.00222149
0.0012697
0.00779273
0.00568962
0.00456881
0.00319186
0.000865587
0.000734196
0.00318265
0.000740284
0.000723588
0.00568962
0.000728291
0.000907354
0.000740284
)
;
    }
    procBoundary0to2
    {
        type            processor;
        value           nonuniform List<scalar> 
42
(
0.00506453
0.00320775
0.00127298
0.00102643
0.00178754
0.00506453
0.00127298
0.00142217
0.00179833
0.00148663
0.00231854
0.00324422
0.00231854
0.00357021
0.00360207
0.0055273
0.00360207
0.00131757
0.00170821
0.0036459
0.0036459
0.00131757
0.00116762
0.0039544
0.0039544
0.000875119
0.00519943
0.000762734
0.00609377
0.00318353
0.00318353
0.000766269
0.000832793
0.000889973
0.000928056
0.00127298
0.00286627
0.000318116
0.00609377
0.00142217
0.0011939
0.00101491
)
;
    }
}


// ************************************************************************* //
