/*--------------------------------*- C++ -*----------------------------------*\
| =========                 |                                                 |
| \\      /  F ield         | OpenFOAM: The Open Source CFD Toolbox           |
|  \\    /   O peration     | Version:  v1912                                 |
|   \\  /    A nd           | Website:  www.openfoam.com                      |
|    \\/     M anipulation  |                                                 |
\*---------------------------------------------------------------------------*/
FoamFile
{
    version     2.0;
    format      ascii;
    class       volScalarField;
    location    "0.44";
    object      p;
}
// * * * * * * * * * * * * * * * * * * * * * * * * * * * * * * * * * * * * * //

dimensions      [0 2 -2 0 0 0 0];


internalField   nonuniform List<scalar> 
1431
(
86.7817
85.99
85.216
84.1523
85.8845
82.4067
82.4777
92.4091
86.0337
85.5341
87.6155
87.8983
80.9295
98.2384
86.8079
86.1827
87.0869
86.3964
86.1181
87.4923
85.9055
85.3925
87.6732
99.1752
73.3756
87.38
65.3388
97.3562
84.1849
85.7026
109.019
115.812
79.4045
80.831
81.4985
84.7136
87.0651
91.4142
80.3133
91.525
105.869
85.1029
81.6227
80.254
78.7294
86.4999
87.4244
114.014
110.037
92.8987
84.7041
85.1907
86.0283
80.3174
82.0249
106.967
83.7359
83.2212
72.8924
85.8378
86.1944
87.1195
87.3775
92.2985
94.4001
85.2074
83.9159
82.0657
85.9752
92.7249
81.393
80.2821
87.9948
81.2091
86.1921
79.6004
86.083
79.4044
92.715
67.115
92.3284
83.8178
86.7645
85.9311
72.8517
85.8835
85.8861
81.8507
100.141
87.253
86.7204
82.9379
85.8352
91.1283
84.4742
85.8818
84.3774
94.5863
85.9117
108.979
85.8915
91.2854
86.826
85.8626
84.0377
84.0614
92.4381
109.275
111.062
85.9487
67.4841
85.5792
92.9463
87.0664
83.784
85.8929
86.6132
86.4586
101.068
79.805
89.7079
84.9353
84.887
104.02
91.981
83.7886
101.925
85.4911
86.5231
92.0488
86.3715
110.366
100.193
86.8642
85.8071
84.7933
87.6657
84.2237
86.6894
109.894
86.7084
85.7353
91.4381
110.19
111.492
90.266
94.0033
109.776
87.4833
108.483
92.9771
95.5138
86.245
83.3558
86.7589
83.2916
92.327
86.8995
93.7641
103.28
86.0154
87.4933
86.7675
82.535
85.9204
64.4793
85.9221
90.5057
85.3391
86.9231
101.831
84.6139
107.816
93.2175
91.9567
86.5932
82.7305
93.8286
85.7373
99.8274
92.1047
86.4739
100.108
87.0964
91.6881
102.934
91.4228
79.0507
87.281
92.2897
85.687
86.672
86.0099
92.1341
86.5175
89.3342
92.446
112.373
87.3233
87.5209
88.1373
111.802
106.901
104.56
92.365
67.7416
85.8753
92.6276
87.7512
96.6525
92.1257
93.0066
104.742
92.5679
81.4203
82.3154
94.766
85.8609
84.8138
92.2742
92.3117
62.7515
91.6126
97.5815
92.9334
86.5382
105.797
86.9857
97.4541
109.389
85.8549
83.8924
92.5993
90.7354
92.0484
92.723
93.7639
86.7096
92.2765
85.0676
94.2348
105.171
86.1835
86.4146
82.0725
81.7139
91.5542
82.1281
80.161
100.689
98.5058
86.2066
85.3509
112.636
87.1255
93.2947
84.8563
85.4512
92.0614
92.6285
93.1025
81.757
85.9177
86.7883
92.2793
96.5261
87.3514
91.2781
98.9172
86.3486
92.4907
108.914
97.4344
96.4002
92.8679
89.3732
86.7879
86.6619
84.2955
85.5612
85.6842
84.4132
85.1172
86.8096
89.3566
81.0031
85.8648
98.4662
99.4777
93.5475
90.131
92.276
98.3178
85.7148
100.046
95.1585
86.182
98.1093
85.6584
101.472
92.2717
107.462
83.9931
112.031
86.9251
85.7887
92.4243
93.0149
92.3049
84.8933
93.22
91.7197
85.5901
85.792
81.7716
85.7062
86.0102
83.6493
91.6241
85.4242
85.5748
85.1976
86.7609
84.5413
85.9885
85.5056
92.2247
85.6849
106.327
92.943
85.8687
83.8637
84.4381
85.7213
92.0549
86.0639
85.6478
84.9133
85.0856
80.6392
87.6546
92.3251
85.5579
82.6421
97.8388
84.7771
92.8431
86.3318
85.6839
85.7904
84.6971
84.8272
86.0021
85.454
84.5473
84.4737
84.9831
84.6591
86.5116
84.581
85.2538
84.2782
84.9075
85.6043
85.7554
85.9035
84.5771
83.8423
85.269
85.9176
86.0123
85.0125
85.4401
101.488
85.8141
84.6671
85.8875
91.328
90.4162
86.7916
85.3838
85.2517
85.8307
85.3128
83.9732
84.5953
83.8754
84.683
86.0375
85.6202
86.1223
85.6716
104.446
91.2679
85.5838
85.4344
84.6431
92.5033
86.1064
92.4014
85.0027
85.7367
92.492
84.5186
85.5506
89.1353
83.5233
111.799
85.2319
85.8864
89.5612
84.9954
84.7648
83.6192
110.856
125.079
85.9178
86.4946
83.8188
84.6261
84.0105
85.9356
86.1617
86.5129
85.9494
86.1236
86.4989
85.8374
78.3083
86.5269
78.5433
86.4929
85.1281
85.5995
83.8417
86.4496
85.9531
85.8162
86.6081
79.7602
82.8611
86.4568
85.7051
85.7212
86.3011
85.7848
85.7239
86.525
86.166
85.7586
85.6668
86.1012
85.7496
85.9986
86.0466
85.8183
85.9834
86.0747
85.8683
83.4376
81.2372
86.63
80.4565
84.0366
83.2948
83.389
85.4283
82.2588
81.7573
83.4956
82.9411
84.3926
111.76
109.08
81.766
83.8309
85.7257
85.4385
86.7392
86.0998
86.0711
83.8294
95.9381
90.5556
111.708
83.2617
83.661
86.2273
86.1476
86.1942
86.3017
86.4682
84.3597
89.9591
86.2604
83.5347
84.142
85.8606
92.5068
86.0725
82.7979
80.5189
86.0587
86.6071
86.5323
86.2378
84.164
86.23
86.2804
85.5214
85.349
86.4145
93.6113
84.9745
92.3473
86.2678
87.6372
80.8477
86.1803
83.5867
86.0928
86.5332
85.9648
85.4841
83.5805
86.0456
85.2485
86.1901
86.3736
85.8588
111.67
112.489
86.4708
86.1533
86.141
86.1406
86.395
86.0733
85.7049
91.3202
86.6111
86.0275
85.7814
84.158
85.7293
86.2702
85.9412
92.2209
86.1763
84.6732
86.3126
86.6042
91.5665
86.1252
83.8535
85.3826
86.666
85.9746
90.5557
96.2327
85.6792
86.567
86.7046
87.9817
78.8726
84.9979
85.7842
97.5981
86.1402
86.5341
83.5861
86.089
87.2787
86.2192
85.78
86.8192
85.8499
85.6771
86.5174
94.6342
83.5701
92.2838
85.2116
86.5383
84.6761
86.3116
85.3909
90.6271
84.1391
95.6355
84.1429
84.0831
89.2599
91.279
92.4564
86.4818
85.4628
85.7044
96.506
83.6673
85.5392
85.3688
84.4242
86.1472
86.2641
86.1717
87.6467
84.615
86.2741
86.0875
90.5015
85.8122
84.7659
85.8607
88.1393
95.4856
86.0686
85.8038
86.1981
86.1769
84.489
84.3865
86.5251
82.4717
85.8456
117.855
83.7887
85.4265
85.9484
92.1653
86.2142
86.2945
86.7616
92.1529
85.1017
86.1376
84.3601
99.9759
89.0767
86.4823
86.3669
86.2984
92.1925
85.9839
86.0297
86.5662
86.5195
86.3385
85.0153
86.3072
85.396
85.4381
94.923
89.2713
86.385
86.0696
92.4948
91.7891
85.6628
86.0328
86.6723
85.7258
86.6549
86.6995
92.75
84.6279
87.5578
86.2471
86.1178
85.8602
85.4624
92.374
86.6063
86.7346
111.491
110.707
82.2994
82.8413
80.8149
91.5617
86.3233
86.4966
82.5534
84.3953
85.8726
86.4638
85.8645
86.6661
85.9587
84.9823
109.822
86.7056
86.5755
86.8114
85.8754
83.5739
85.6366
84.9996
92.4828
101.577
86.4564
83.9633
96.6366
82.0126
85.843
123.537
88.5629
86.0614
85.3687
104.498
85.6185
85.5425
84.4887
86.1061
86.0323
92.8801
85.8149
86.4108
103.715
86.6703
92.6786
94.1132
92.0421
86.1951
80.851
93.339
85.8042
85.9328
102.751
85.6109
85.5866
86.8768
102.157
101.5
87.1275
95.6038
86.7363
86.4543
85.9367
86.6848
86.7076
86.1496
113.066
86.7247
94.8583
93.3035
97.4599
98.4134
102.917
83.5253
86.6155
99.0667
100.797
99.1713
86.7129
86.5252
91.7997
92.5355
93.0049
102.717
88.0873
100.793
106.122
97.9626
91.9626
87.8663
85.0651
104.681
94.3987
100.012
86.2269
94.1195
85.5142
85.0016
85.0762
96.2931
85.8143
85.8089
85.5728
82.7082
85.8171
86.1447
98.3221
87.2809
85.1121
101.376
85.5968
84.9009
86.0491
103.469
86.7545
94.6085
105.927
134.739
91.1496
92.4073
85.4846
84.3747
89.0644
91.6854
85.7108
86.791
105.975
82.4535
85.6716
84.7875
89.9232
85.3366
85.5135
86.2716
93.0723
91.8244
86.4701
85.5759
72.4013
93.733
93.5112
90.9785
91.0618
91.1721
94.386
92.5426
97.4505
85.2356
84.9693
93.0623
87.6085
86.7557
81.3813
85.6171
87.0164
85.7292
84.9682
85.73
81.4022
86.4006
85.5727
91.9404
85.3935
85.6763
93.7385
109.881
94.2089
90.8864
82.5905
108.091
84.189
85.9939
85.4973
92.2699
85.6268
86.318
85.9956
85.5868
116.435
86.8049
84.504
85.6063
92.1123
92.522
92.1325
86.7539
84.6232
83.8549
83.7747
86.4546
90.8155
103.334
85.6522
81.886
111.296
94.412
86.7238
86.336
85.7874
102.023
81.2873
81.3979
85.855
92.4163
85.8853
80.2021
86.1401
85.179
92.7148
86.6891
86.6844
80.7416
79.3368
110.509
94.5042
84.6424
83.2829
92.6517
87.0304
84.1994
85.6691
84.5148
85.6405
82.4331
84.989
84.4354
85.9929
86.1175
107.082
109.401
94.3396
86.8761
85.5987
85.5422
86.6924
92.0569
86.5444
84.1603
85.8693
86.3841
85.7093
92.8325
83.0617
81.2903
85.6946
92.853
86.6532
92.2234
92.2318
94.8145
80.8848
92.6323
86.2001
103.597
86.3205
103.777
87.3422
87.577
87.5659
87.5946
87.5492
87.4763
87.3854
85.1203
85.6598
82.8229
92.5984
87.2949
86.5879
86.6998
65.4329
85.9965
84.0952
86.9498
86.3071
85.8635
85.8081
85.6168
104.162
84.902
87.214
85.1441
85.665
85.8962
87.3941
85.9471
83.7057
83.8086
85.4625
86.9872
87.1448
89.6917
85.8941
85.4992
85.9164
85.7377
85.5625
81.1374
86.1534
85.5266
92.3414
87.037
87.0826
84.8558
86.0637
95.2977
85.624
85.6342
85.2756
80.753
85.8036
93.2105
86.767
89.386
85.8769
92.7353
85.7653
86.1817
92.9289
84.8907
86.5714
98.5062
71.607
85.9314
84.6229
84.9304
93.1303
81.8312
81.0946
92.8671
84.5195
86.7829
90.0548
86.7313
85.8235
85.9445
92.1498
95.4253
108.043
85.2087
87.7825
86.1857
85.0164
86.29
86.4725
91.0934
83.4143
80.2555
95.3794
84.5617
85.1655
83.9387
86.89
107.027
85.7377
85.5797
86.4402
86.0985
86.0268
86.386
86.6033
91.9964
85.7575
83.987
86.0229
85.8852
85.5827
83.5911
85.764
83.3838
79.3201
86.1707
101.121
86.8201
83.9959
91.2729
86.4398
86.0889
80.8148
81.4271
86.6901
95.1925
85.5556
112.024
85.8394
87.3294
87.793
74.7332
114.366
86.717
87.1357
92.5561
91.509
86.4332
86.5783
91.6042
86.1174
91.898
92.467
85.8772
85.7361
89.8641
93.0503
92.9714
85.8969
85.8826
85.415
85.2185
113.005
85.8877
87.2553
108.821
92.4658
86.789
85.2923
96.1998
85.4114
113.467
89.9507
86.9086
84.351
93.0976
86.6061
89.2377
86.1709
86.3776
85.9778
71.1634
86.3737
93.0063
86.6075
85.5226
82.9239
96.3652
84.0994
87.029
85.8312
109.44
84.4101
110.482
86.4139
84.434
104.456
106.703
84.9113
83.8915
93.0499
86.1242
73.0871
86.8484
85.4576
85.8069
80.9201
82.5601
93.0888
85.2509
86.8567
86.4082
84.5804
87.1995
85.1503
87.3755
85.504
85.6507
85.4842
86.4325
86.1528
85.9671
86.7479
91.7638
74.3828
85.8519
85.6799
92.5747
79.8483
85.5449
85.2096
86.8158
83.897
84.1461
86.4184
96.3377
103.817
93.2084
75.5232
85.9693
85.7796
84.5052
86.3288
107.556
110.049
85.571
85.7102
86.67
92.3696
81.5344
86.643
85.9485
90.768
90.651
110.763
85.3295
84.5776
86.0868
104.759
79.9351
106.634
86.3924
85.7778
88.1329
92.8544
86.5083
93.5429
85.5987
83.8056
90.9596
94.9219
86.227
87.2095
86.1262
74.0769
85.7943
86.808
92.8933
86.764
84.4842
83.9153
85.011
86.8522
93.9749
87.3372
80.288
86.1157
92.3638
92.1145
94.0682
86.3687
87.3665
84.4731
84.835
82.3878
84.9384
83.9859
85.0014
83.9497
86.3344
90.8189
85.6027
87.0102
109.402
87.8096
112.135
91.3881
91.2538
94.0829
79.4489
85.8995
70.3697
86.0382
85.8992
74.0705
85.8394
83.5345
86.6313
84.6388
85.6078
89.1477
81.8712
78.9804
85.5849
85.8698
81.1653
85.813
111.2
85.9117
82.1449
92.1985
85.6484
86.0773
86.0255
85.8126
87.4816
86.1286
85.8692
80.4905
85.7394
92.6403
88.3495
92.3055
89.8258
86.1447
79.9299
84.0711
86.8098
86.2363
86.1701
85.5843
92.8074
87.6974
91.929
88.9712
87.165
92.7054
95.2538
87.3888
85.2984
116.209
121.599
86.3102
85.7943
85.8852
86.1026
85.6109
84.437
91.9206
89.1701
89.1254
84.6628
86.9272
90.8894
86.192
86.9947
80.3566
85.7393
86.0082
92.6672
86.5555
85.9493
86.1106
85.7364
85.728
92.3728
86.0181
86.2857
90.6279
94.7577
86.1747
85.7194
85.778
85.9738
86.314
86.1219
86.7714
84.8528
86.2744
86.5406
84.6303
86.2175
85.2367
87.683
80.1822
85.5703
85.713
86.7374
86.4161
86.2924
86.5089
83.681
93.4697
84.8962
66.3023
92.0847
83.6305
85.8726
112.735
85.3195
85.617
79.3495
85.919
84.3552
85.9712
91.9466
84.9655
84.8119
84.7647
90.7067
85.9036
85.5445
83.6057
83.6206
86.4947
92.2982
87.1366
86.4797
84.8362
84.0395
112.408
83.2527
88.4243
86.0775
87.2043
94.5567
84.2134
94.7436
93.729
87.019
87.3246
85.791
85.725
86.8103
86.63
82.0487
116.892
86.2761
87.6875
97.0394
83.4161
108.502
91.7698
95.7509
86.0976
91.0873
85.2
85.8776
83.8214
86.9783
76.2374
85.4385
85.9998
80.852
89.4856
81.1795
86.9021
87.5997
86.9675
93.11
92.8201
91.7301
86.0045
82.2695
90.7508
92.068
92.8719
92.2146
86.031
85.6429
86.051
85.9878
93.2212
109.519
86.2011
86.1404
86.1156
85.8087
86.6737
92.2763
93.9123
76.7408
118.919
81.6632
82.4553
111.893
78.5531
81.0853
94.989
)
;

boundaryField
{
    frontAndBack
    {
        type            empty;
    }
    wallOuter
    {
        type            zeroGradient;
    }
    inlet
    {
        type            zeroGradient;
    }
    outlet
    {
        type            fixedValue;
        value           nonuniform 0();
    }
    wallInner
    {
        type            zeroGradient;
    }
    procBoundary0to1
    {
        type            processor;
        value           nonuniform List<scalar> 
29
(
83.1559
82.9889
79.3979
79.3979
78.1076
78.1076
111.239
80.3763
81.7402
79.9562
80.4191
78.3368
79.5449
83.297
111.564
111.903
77.6438
78.3089
79.4014
83.1766
111.784
111.663
79.5255
111.963
112.118
78.3089
112.674
111.144
111.963
)
;
    }
    procBoundary0to2
    {
        type            processor;
        value           nonuniform List<scalar> 
42
(
85.1204
85.225
85.8844
85.8218
84.9054
85.1204
85.8844
85.9123
84.6601
84.8407
85.2727
85.443
85.2727
85.428
85.4409
84.9017
85.4409
85.193
84.6016
83.303
83.303
85.193
85.5233
83.4405
83.4405
85.5337
84.1689
85.5159
84.5782
85.3855
85.3855
85.4513
85.4082
85.4318
85.539
85.8844
85.3602
85.8447
84.5782
85.9123
85.8529
85.7098
)
;
    }
}


// ************************************************************************* //
