/*--------------------------------*- C++ -*----------------------------------*\
| =========                 |                                                 |
| \\      /  F ield         | OpenFOAM: The Open Source CFD Toolbox           |
|  \\    /   O peration     | Version:  v1912                                 |
|   \\  /    A nd           | Website:  www.openfoam.com                      |
|    \\/     M anipulation  |                                                 |
\*---------------------------------------------------------------------------*/
FoamFile
{
    version     2.0;
    format      ascii;
    class       volScalarField;
    location    "0.45";
    object      k;
}
// * * * * * * * * * * * * * * * * * * * * * * * * * * * * * * * * * * * * * //

dimensions      [0 2 -2 0 0 0 0];


internalField   nonuniform List<scalar> 
5794
(
0.152559
0.0763835
0.251235
2.99272
2.60357
0.094288
0.6443
0.257566
1.55535
0.393309
0.888677
0.179504
0.503555
1.58965
0.140893
0.0685594
4.77732
1.88327
0.169116
0.107813
1.1729
0.0858316
0.900674
0.191491
0.527881
1.50967
4.09128
1.31251
2.12608
0.0636807
0.339642
0.196261
0.763861
0.401579
0.624155
0.929955
0.196543
0.459942
1.17216
1.75044
1.38102
0.231322
0.274656
0.109867
0.280899
1.08336
0.204423
0.350513
0.332494
0.354139
0.0213663
1.40242
0.264261
0.374944
0.0222354
1.04236
0.172803
0.472173
0.217391
2.39429
0.940939
0.0641379
0.290195
0.320216
1.28127
0.0812972
1.51419
0.452316
2.00502
0.102074
2.32611
1.71258
4.11841
0.316926
1.92716
0.794574
0.23132
1.17716
0.085992
0.0757061
0.103518
0.142898
0.687113
0.900223
0.239462
0.95614
0.586233
1.04323
0.159156
1.3071
2.45396
0.924787
1.67187
2.54666
1.17545
2.41002
1.88102
1.48213
0.867817
1.02887
0.941248
0.121902
0.246327
1.77776
0.854672
3.04119
0.0624622
0.688808
1.57115
0.08821
0.371906
0.26032
1.01772
0.131689
1.02004
1.96921
0.143582
2.57022
0.861773
0.49254
3.04046
0.111168
0.275259
1.03936
0.306609
1.38287
1.64645
0.0807917
1.61375
0.69377
0.209284
0.628794
0.515279
1.04802
3.40924
0.146835
1.98318
0.0654541
0.076151
0.54461
0.285908
1.78634
0.349469
1.88625
0.122847
4.43879
1.42196
0.909245
2.55711
1.11212
0.310623
0.261817
3.16928
0.136843
4.56319
0.522432
1.01375
0.634797
1.33703
0.209157
0.160256
0.345828
0.402706
0.610877
1.14746
1.25375
0.630705
0.311912
0.380809
0.191155
0.0814312
0.816901
0.439719
0.361789
0.244798
0.757677
0.092578
0.281772
0.238064
1.31019
0.169239
0.195443
0.196283
0.925745
0.282641
2.45407
0.134454
0.454122
0.323579
0.0993211
0.898076
0.179751
0.735254
0.248134
0.557014
0.148484
0.152541
0.365057
0.308937
0.272392
0.657637
1.23073
0.274067
0.452782
0.239167
1.09206
0.334515
1.16604
4.38914
1.01784
0.113998
0.310932
1.27579
0.417668
0.331883
0.700769
0.861502
0.798254
1.0777
2.13152
0.304363
1.14996
3.76569
1.7013
1.9653
1.98027
0.136193
0.585873
0.770631
0.156342
0.424598
0.772423
0.278979
1.15765
0.927814
3.23714
4.38429
0.842232
0.442488
0.165308
0.110685
2.23717
1.03285
0.962654
0.253831
0.341369
0.443556
2.64588
1.35121
1.04135
0.614023
0.0879128
4.46046
0.0601471
0.211103
4.42533
0.260871
0.429338
0.846655
0.246337
1.46891
1.22719
0.405115
0.0935224
0.25639
0.600883
1.58673
1.66293
0.220615
1.3413
0.343039
0.327
0.915827
2.03495
0.39644
0.145309
0.413641
0.271368
0.225956
0.519791
0.417424
1.69533
1.41414
0.229547
1.57073
2.4125
1.22113
1.54454
2.84663
3.19997
0.595426
0.71901
0.294146
0.390815
0.202504
1.5585
1.33139
0.263029
1.20716
0.0814658
0.120747
0.797584
0.076718
1.3913
0.0785715
1.56644
0.220527
1.85019
1.30575
0.43403
0.450921
1.12599
1.13451
0.124553
0.292935
0.595228
0.873236
1.56314
1.53031
2.41069
0.472835
0.675799
2.33964
2.85308
0.0528362
0.862726
0.273559
0.141173
0.530082
0.823253
1.21218
0.276944
0.224503
0.615728
0.164515
0.350382
0.359517
0.387955
0.300626
0.336022
0.168739
0.37535
1.43293
0.812624
0.109167
0.180263
1.22183
0.232696
1.45112
0.683889
1.42474
1.8341
0.783118
0.180706
0.216604
1.86993
0.445959
1.27725
0.64187
0.181723
1.03666
0.520788
1.75842
0.890185
0.307856
1.7079
1.13252
0.968718
0.165762
0.400633
0.314698
0.0747425
1.6035
0.122119
1.29619
1.29381
0.866961
0.247682
0.692594
0.140199
0.340692
0.295611
0.323689
0.855939
0.554527
0.470108
2.86247
1.37208
0.383504
0.702446
0.311317
1.27994
0.0846306
0.546254
0.314992
0.28491
0.212957
0.338219
0.172951
0.851285
0.271778
0.521022
2.91277
0.30867
0.224936
1.07708
0.327846
0.126248
0.0846469
1.87439
1.51286
0.82928
1.22425
0.60825
1.17126
0.320982
0.204544
2.2506
1.08464
1.7526
0.849513
1.40744
0.959513
0.324279
0.606319
0.325149
0.35905
0.136502
0.0727445
0.121026
1.41825
0.224767
1.75078
1.54246
0.465654
0.114053
0.225428
0.775319
0.689491
0.433004
0.423168
0.270003
0.410486
0.186568
0.324429
2.17332
1.08818
0.0376792
0.485712
1.50617
0.369154
0.0924741
1.71003
0.0925309
2.09062
0.0901259
1.92657
2.52551
1.51566
3.52818
0.11037
0.091689
0.375978
0.466484
1.12878
0.692337
2.39376
2.74202
0.994608
0.107558
0.0277486
4.5619
1.54345
0.906822
0.44006
1.75136
4.09574
1.44183
0.180395
0.0927984
0.489191
0.101464
0.191839
0.736548
0.965171
1.1152
0.309641
0.321647
1.60679
0.0996515
0.100895
2.54462
2.24585
2.97914
0.305174
0.484146
0.0952315
0.256097
0.0557901
0.967821
3.90712
4.43011
0.266446
0.653909
1.91334
0.0840567
0.131017
0.624567
1.41688
0.0885391
2.3728
0.210251
0.34474
0.0800463
0.101583
0.955689
1.81464
0.056259
0.222317
2.88385
0.145524
0.0729779
2.86679
2.79638
0.746782
0.108284
0.144457
1.01038
0.0997601
0.0911016
0.49551
0.0817147
2.36343
0.220079
1.42684
0.285621
0.240779
2.28554
0.666655
1.21748
0.0992492
1.83937
0.0873555
1.64422
0.247638
0.0514028
0.213766
1.89495
0.135909
0.0848244
1.83086
0.18071
0.088948
0.108496
0.104358
0.316969
0.446912
0.0904751
0.100911
1.81123
5.93702
0.0569412
1.40757
0.313954
1.5918
0.306433
0.0717496
0.709964
0.0494054
0.080425
1.246
0.914253
1.39387
1.32585
1.3828
0.289656
3.12744
1.48739
0.261461
1.47605
2.21377
1.02816
3.01364
2.53679
1.75615
0.928866
0.134961
1.90512
0.857166
2.17781
0.0880275
0.094654
0.0707872
2.415
1.11385
1.12696
0.0897761
0.293856
0.0579785
0.37022
0.153015
1.38882
1.15297
2.53015
0.099393
0.491187
1.7813
0.34644
0.0254876
0.260731
2.70544
3.95465
1.55504
0.301497
0.162538
0.25454
0.882971
0.587501
0.264771
1.77202
0.0491681
1.20417
1.62508
0.949873
0.0566896
0.110428
0.116341
2.02637
2.28375
0.124159
0.168808
0.0981613
0.0348911
0.118506
0.0696947
0.277311
1.22948
0.488841
1.13275
1.5319
0.204402
0.28348
1.12416
0.920503
1.96738
2.74379
1.33284
0.736328
0.160151
0.0748065
0.0515439
0.135619
0.228875
0.16662
0.166175
1.569
3.21904
1.71862
1.50225
0.120513
0.164541
0.141587
0.091382
0.671204
0.0942662
1.51461
2.94915
2.49225
1.25152
1.20006
0.864565
0.178768
2.72753
0.530533
0.78426
1.24862
2.69626
0.304476
1.52388
0.15655
0.0662539
1.23816
0.328568
0.0539419
1.78799
2.04732
2.46308
0.225913
0.233135
0.0662677
1.0211
3.88987
1.11678
1.45751
0.332669
0.92134
1.165
0.0886312
0.0621736
0.290554
0.307404
0.36114
0.0783167
0.447298
1.77941
2.30487
1.12657
0.47529
0.219143
2.97208
0.50858
3.89587
1.60125
1.75323
1.38224
0.374623
0.267886
3.92707
1.22475
1.53965
1.95267
1.52305
2.31562
0.212914
4.2311
0.110471
0.368597
0.50872
2.92674
0.641202
1.32259
0.902118
2.9818
0.79439
0.372623
0.433712
3.67318
0.735075
0.908483
1.61429
2.19762
0.0572327
0.044487
0.405644
0.0623882
2.27904
1.17423
2.52353
0.256854
0.283705
0.0617303
0.125261
0.269223
0.0898926
1.08975
2.34557
0.205994
2.71825
1.22603
0.262934
0.324015
4.84666
2.19778
1.47431
3.01464
2.59176
1.28893
1.42106
0.106506
1.75619
0.835483
2.06656
1.71796
0.219444
1.31328
0.102307
0.105711
0.152555
2.05041
0.096689
1.32946
3.51288
0.312114
0.121403
0.0908413
2.29232
1.11325
1.32227
2.35976
1.08076
0.0538471
2.25662
2.14185
0.626342
0.236556
1.22107
0.0855913
2.46241
0.0995313
1.25878
0.301432
0.953837
0.31604
0.0790808
0.0622671
0.326844
1.29923
1.68525
1.63167
4.1989
1.54646
0.271545
0.137087
0.645473
3.92235
0.487239
0.476098
0.68927
2.57194
0.0935999
0.110302
0.384994
0.873491
3.14781
0.130875
0.387049
0.291262
0.763625
0.23102
0.887806
2.0267
2.07644
0.283419
0.213912
2.62105
0.628873
0.130009
4.48335
0.113729
0.0918875
0.225613
0.073573
0.990981
0.125325
0.49687
0.127553
0.283365
0.220651
0.316833
4.50866
1.21455
2.65531
0.971804
1.16442
1.61454
1.09069
2.83008
1.38182
0.0900586
0.0848091
0.205197
1.81773
0.117628
1.24647
3.97589
1.74308
1.31377
0.823756
0.230513
1.98534
0.0895648
0.349219
1.2925
0.107238
2.26117
0.2751
0.24706
1.01528
0.395762
0.229338
0.111704
1.99628
0.68485
0.258727
0.0767497
0.225782
0.845488
1.72037
0.0938188
0.299868
0.970925
0.627974
1.39535
2.90555
2.04629
2.31561
2.37836
0.112774
0.0979091
1.44501
0.088679
0.185092
0.0735779
0.120431
0.725429
0.0585235
0.254815
0.101652
1.85273
1.34397
0.343041
0.273506
0.504686
0.979714
3.76697
0.921202
1.70122
0.23496
0.0958888
3.53419
0.360688
0.905262
0.259582
1.30659
0.977292
1.17687
0.0444065
1.57236
1.12638
0.0638176
0.0746213
0.206141
0.0671742
0.0632735
0.737468
1.99065
2.58766
1.66758
0.853806
1.37015
1.49381
0.326483
0.0881328
0.126741
2.00587
0.0798205
4.79514
1.26931
2.04075
0.246927
2.68597
1.30733
0.0886409
0.0954425
4.51092
2.03367
0.305271
0.366375
0.4736
1.53711
0.293338
2.38866
0.0779109
0.181968
0.142486
0.0677461
0.0633818
0.159445
0.0598763
0.0850218
0.0750504
0.106555
0.264877
2.06347
0.216519
0.250275
0.0970285
1.19301
0.299757
0.783116
0.289486
0.809299
0.0786271
0.632419
0.199435
0.542818
0.12251
0.4986
1.48321
0.104876
0.304511
0.179746
0.0840759
0.291977
1.40543
0.432274
3.86789
1.87434
0.0976276
0.318732
0.529956
1.71612
0.545431
0.810411
1.26388
2.41904
0.109108
0.123843
0.101149
0.0375336
0.421175
0.381751
1.62316
1.64749
1.49294
0.0266733
0.811454
1.46231
1.06276
0.82793
0.950006
0.061629
0.0970082
0.0932721
0.641715
0.303261
1.88862
0.200482
0.0496016
0.196822
0.205321
0.288013
0.433357
0.106338
0.166622
2.12291
1.22222
0.732886
0.0751299
0.274842
1.13922
0.0878217
0.506207
0.205827
0.316846
0.910897
0.0875623
1.46679
0.0608069
0.312298
1.13754
0.106144
2.58679
0.291081
0.0821537
0.169432
1.30514
0.0874144
1.69436
0.243729
0.155713
0.0733181
0.250004
0.0959704
0.0859328
0.30948
0.100375
0.0956274
0.365224
0.502931
0.576121
1.60486
0.552897
0.270717
2.49729
1.15913
0.11206
0.0747815
1.5247
0.196707
1.18028
3.03859
0.128031
0.486266
0.0832383
3.52181
0.246233
1.5959
0.265693
2.44314
1.17515
0.05418
0.657906
0.167526
0.02236
0.352327
0.58479
0.614358
0.638446
0.0731381
0.671864
0.0365612
0.0610541
0.276252
0.0828447
0.142449
1.07424
0.169701
1.14933
0.121216
1.00467
0.236429
0.128126
0.0676013
0.199002
1.87539
0.408011
0.176987
0.566381
0.247368
0.409574
3.50424
1.626
0.0681762
0.113709
1.10903
0.430386
2.26706
0.236856
2.11299
2.03101
1.44281
0.497585
2.66512
0.268022
0.266266
0.422956
0.145528
0.315247
0.0965716
6.87756
0.688927
0.100475
0.174787
1.66294
1.62121
0.268757
0.0613064
0.141062
0.489024
0.455654
0.0957249
2.34105
0.321708
1.41563
0.272211
1.93591
0.148288
0.0609443
0.323193
0.271763
0.134449
0.594232
0.0920455
0.855029
0.0938217
3.12841
0.238143
0.426447
0.191082
0.48956
0.292881
0.39255
0.331591
0.194389
0.169933
0.454373
1.52489
0.294991
0.212517
0.0968672
0.133475
0.587818
1.51939
0.637865
0.270265
0.593565
0.2493
0.303072
0.253038
0.241635
0.501318
0.123925
0.323555
0.561706
0.0694805
2.11452
0.0686778
4.12202
0.100839
0.170339
0.331368
0.0798064
0.0670485
1.25717
0.224684
0.23115
0.0583106
0.106672
0.649654
1.94646
1.30842
0.258188
0.0866255
0.166242
0.49385
1.63732
1.16898
0.255811
0.281959
0.0459569
2.02854
0.243265
0.335719
1.57822
0.205974
0.275903
0.646836
1.18212
0.0670275
1.1801
2.74176
0.625011
0.438537
1.21577
0.705892
0.0673721
2.30268
4.9132
1.52275
1.1489
0.15494
0.0645049
1.04263
0.30495
0.381646
0.0402327
0.33805
1.35721
0.0867789
0.0848537
0.109968
0.0873908
0.0871159
0.282381
0.238435
1.14864
0.0854048
0.273632
1.30464
3.63686
1.80185
0.299052
0.840437
0.197728
2.3824
0.105595
1.85946
2.56768
0.969372
1.80943
0.299505
2.24327
1.29036
3.49682
0.241497
0.407769
0.233221
2.08537
0.0952371
0.218038
1.04201
0.320364
0.264042
0.945514
0.279638
0.346329
1.5392
0.0892702
0.049261
0.257843
0.341872
0.0878408
0.231458
1.25922
0.294105
1.48983
1.25037
1.58254
0.0723288
3.37502
0.105582
0.954162
0.606113
0.586322
0.23516
0.09614
1.64771
0.0739147
0.276825
0.0635065
2.1754
0.146514
0.225946
1.64814
2.31122
0.376746
1.27901
2.73376
0.594083
0.278491
0.0461757
0.851345
0.185309
1.01346
2.66651
0.239546
0.0514548
0.357373
1.35894
0.626932
1.66212
1.21687
1.32805
1.17123
1.84591
0.0593287
0.172597
1.06199
0.276243
2.8844
0.20968
0.0597588
0.142102
0.508054
0.0652173
0.233122
0.314515
0.155614
0.338516
0.103807
0.358722
0.0931708
0.263844
0.356681
0.96359
0.934242
0.0807289
1.5357
1.38803
1.93191
0.435178
0.23513
0.963348
0.181127
0.05426
0.0468949
0.153333
6.66821
0.323407
1.28336
0.782223
1.78511
1.43702
0.542044
0.272199
0.0238303
0.0503823
0.112155
0.0325186
0.241355
0.252934
0.0552981
0.301102
0.020277
0.0587037
0.207468
0.122832
0.0667937
0.0539122
0.0256381
0.226107
0.268464
0.0708851
0.0945525
0.194632
0.053522
0.0548782
0.0200232
0.0355596
0.224899
0.148553
0.0934659
0.0435888
0.0770227
0.173833
0.20284
0.0542566
0.0285191
0.038268
0.0247125
0.0365878
0.255647
0.0541168
0.0145524
0.103959
0.0457451
0.181481
0.224637
0.194082
0.649411
3.6955
0.0797804
0.106782
1.04357
2.31602
2.02893
0.264265
0.0922291
0.379604
0.2804
0.730262
2.35443
5.37449
2.40063
2.46955
1.00189
0.148626
0.139901
0.0581379
0.148379
0.0568787
0.959223
0.112547
0.244805
0.38264
0.135552
0.977629
1.18005
0.276798
0.440018
1.01439
6.00909
0.268989
1.08357
0.366291
0.340135
1.63771
0.423544
1.09763
1.53741
0.864061
1.50316
0.504315
0.831502
0.265785
0.328175
0.362161
7.74485
0.217958
0.188615
0.0729792
1.74951
1.97724
0.0954546
1.58045
1.90804
0.0566131
0.0360289
0.244796
0.244598
0.0685271
0.285293
0.0211202
0.0513256
0.104263
0.0224785
0.203843
0.192401
0.0369972
0.250247
0.104639
0.0951414
0.205478
0.0545134
0.0655612
0.0600277
0.0262337
0.291698
0.0453417
1.19657
1.40975
0.209989
0.467743
0.366937
0.362258
1.44563
0.0957573
1.38261
2.00588
1.45332
1.08968
2.01888
0.324695
0.0630492
2.01203
0.927158
0.397924
4.50829
2.20771
1.78594
0.0488955
1.93309
0.740255
0.211571
1.98108
0.351987
1.54412
0.147745
0.230902
0.0569477
1.9871
0.171362
1.63907
2.04511
0.101257
3.056
0.115743
3.09842
0.160851
0.058094
0.0757956
2.30339
0.0755263
0.0987007
0.121076
0.191518
2.94786
0.315648
1.97348
0.368891
0.326085
0.913224
3.93475
0.0585977
0.280315
0.294014
2.55431
1.08382
0.242835
0.0703432
0.62138
0.389444
1.93239
0.308108
0.207003
0.0388985
0.252795
0.443363
0.0775109
1.63227
0.640171
0.0150352
0.0791594
3.08242
2.60449
0.323389
1.79324
1.91494
0.0325147
1.92981
2.31088
1.57316
1.93796
0.791531
0.172712
2.18093
0.0834245
0.313488
0.463433
1.83923
0.24983
0.331907
0.609029
1.93101
0.748642
0.148295
0.0671704
0.22898
0.764794
1.55687
1.9532
4.38563
1.71492
0.619187
1.14976
0.280817
0.769441
0.740552
0.929922
1.60619
2.02787
1.14587
1.97824
0.99892
3.12861
1.23922
0.365376
1.22906
0.934726
0.47449
0.691801
0.210828
3.13228
0.690868
0.319914
1.49348
0.313476
1.25474
0.44824
1.03616
3.49639
0.332394
1.2735
0.615504
0.0785601
0.106873
0.321077
1.47046
0.158723
0.0652433
0.280417
1.86538
2.11804
3.11039
2.17392
2.27331
3.17173
2.31847
0.138881
2.31234
2.1247
3.10563
1.93097
1.96108
2.07004
2.17083
1.90779
2.09514
0.746628
0.756267
0.193241
3.02885
0.690862
0.188976
0.178292
0.538119
0.0752583
0.148753
0.656381
1.22891
0.288088
0.181929
0.229663
2.35497
1.25312
1.83819
0.961529
0.23899
0.333495
0.144483
0.434754
0.70637
0.381415
1.26105
0.344755
0.352704
0.136217
0.349348
0.0895164
1.47634
0.132996
0.635588
0.147679
0.0512126
0.523403
0.248632
0.160434
0.240278
0.14894
0.154329
1.40272
0.135039
0.854886
0.372221
0.418863
1.18269
3.52387
0.142271
1.53363
0.971256
0.393777
3.55377
0.488715
0.150572
3.40271
1.16116
1.75001
0.129392
0.537343
1.98694
3.56326
1.58049
0.13538
0.136629
0.1537
0.370617
0.408397
4.24213
0.154878
0.66045
0.347288
0.113034
0.367193
0.474275
0.354546
1.25501
1.44027
1.31647
4.06718
2.92249
0.167226
3.06885
0.102732
0.430952
1.36877
0.448749
1.9676
0.423827
3.96003
1.53652
0.454172
0.441627
2.21228
3.84504
0.293594
1.22108
1.70256
0.268858
1.35598
0.556894
0.357522
0.271697
2.00163
0.36904
1.76734
2.96855
2.93063
0.364331
1.09731
0.157977
1.29736
0.674675
0.383019
0.56897
1.96563
0.150236
0.339235
0.0655659
1.32959
0.429353
0.297836
0.554308
0.349608
0.561596
0.229247
0.364204
0.240421
0.363309
0.170367
0.383754
0.26925
0.350735
0.917996
0.679194
0.446478
1.05596
0.616599
0.57032
0.109674
0.144032
0.187903
0.341185
0.133169
0.857826
0.0772379
0.251156
0.361275
1.93078
0.292143
0.270569
0.208736
0.89779
0.108655
0.108707
0.320322
0.21372
0.181567
0.187177
0.398214
0.654263
0.303434
3.06371
0.11359
0.295605
0.228216
0.12612
0.719039
0.543068
0.275866
0.184051
0.235708
0.118306
0.21278
0.200928
0.855036
0.610186
0.0479528
0.418126
0.105721
0.174168
0.221904
0.194697
0.460062
0.413916
0.460858
0.659332
0.123889
0.273733
0.0465572
0.440746
0.332061
0.362693
0.0632205
0.353344
0.149679
0.122195
0.320666
0.26129
1.97161
0.24752
0.275773
0.335029
0.105055
0.111722
1.33805
1.30388
1.52752
0.335513
0.123428
0.250146
0.787157
0.321063
0.913461
0.0490585
0.507665
0.0853138
3.19655
0.605172
0.188063
1.01036
0.74359
0.526409
0.357044
0.143065
0.0629748
1.42736
1.30534
0.375224
0.929973
0.442529
0.319604
0.132465
0.0726354
1.89834
0.268141
0.26286
1.47791
1.60637
1.05068
0.427801
0.190606
3.17775
0.326552
0.226279
0.68486
0.967641
0.266737
0.456225
1.25819
0.457139
0.65024
0.902541
0.387298
0.353264
0.126707
0.075792
1.0881
0.215081
0.29361
1.43471
1.50754
0.0557849
3.07241
3.05436
0.322338
0.22451
0.705959
0.198316
0.551798
0.985747
0.613589
0.438291
0.583236
0.635217
0.401578
1.57276
0.495637
1.75348
0.207244
0.734857
1.26669
0.426587
0.358343
0.404582
0.319654
1.05368
0.463619
0.415419
1.08082
0.212827
0.749572
0.42083
0.45363
0.874892
0.425868
0.314576
0.0917691
0.0872869
0.641615
1.93789
0.203059
1.47851
1.36943
1.31531
1.98479
1.2277
0.413362
0.217687
0.35144
0.0528651
3.0859
0.344979
0.759836
2.41835
0.206518
0.312546
4.06128
0.0894596
0.182259
0.999594
1.14745
0.780407
0.879196
1.10248
2.22136
0.612488
1.44789
1.07683
0.310417
0.193145
0.423328
0.316654
0.241605
0.224872
0.0828579
0.107838
0.477348
0.298114
0.078454
0.0797057
2.24232
2.36188
0.507691
0.0930105
3.82766
3.19495
0.674818
0.154416
1.52311
1.14496
0.406733
0.216932
0.04731
2.86576
0.356481
0.17065
0.404947
3.49184
2.05232
1.18411
0.52188
3.50995
1.90306
1.01219
0.213418
0.780224
0.569596
0.325262
0.101352
0.108825
0.0989672
0.133847
1.09394
1.45718
0.460507
0.204127
0.833398
1.53923
2.20976
2.55695
1.82609
1.35186
0.118139
1.27379
0.106824
0.124406
1.49178
2.8261
2.97357
3.6929
1.34613
0.857317
0.439837
0.274216
0.271875
0.398458
0.102853
0.290688
0.0656765
0.0853352
0.157001
0.129948
0.163673
1.53656
2.67616
0.411651
2.15486
0.319886
0.816226
0.165917
0.34763
0.89659
0.141942
0.783588
0.14286
0.347206
0.225384
2.82113
0.602935
0.316199
0.0802922
1.49084
0.228407
0.0985859
0.34831
1.60018
1.71042
1.11798
0.426877
1.40875
1.33728
0.348215
0.301985
0.0581109
0.0460079
0.455802
0.365115
1.9859
0.49512
0.150292
0.0699726
1.28744
0.333882
0.510209
2.8486
0.207563
1.64884
0.100295
0.105434
0.254934
1.78593
1.71004
0.563603
0.11318
0.14771
2.52686
2.5005
0.372297
0.373341
0.395883
0.286869
0.548604
0.507036
0.114372
0.315469
0.238307
0.077677
0.371098
0.216444
0.444217
0.306442
0.290073
0.515644
0.209788
0.39407
0.525191
0.41034
0.257026
0.993321
0.302977
0.441877
0.841227
1.85092
0.0977639
2.7702
0.296471
0.48331
1.06489
0.273099
4.10855
0.789911
1.61802
0.132794
2.43374
0.335531
1.2586
0.214829
0.0348535
2.5644
0.31708
1.02401
0.473538
0.548033
0.434834
0.217696
1.79515
1.04426
1.8381
1.29481
0.312344
0.642771
0.324136
0.0642746
0.0809839
1.94504
1.39577
0.612526
0.405874
0.0800633
3.61417
0.465934
1.87425
3.4464
1.88682
2.39984
1.92902
0.059154
0.60747
0.463453
0.313417
1.40858
1.82994
0.234205
0.443773
0.933869
0.255877
1.62344
0.388282
0.756662
2.24836
1.99635
0.367165
0.480812
0.582657
2.23177
0.510055
0.634448
1.517
2.88532
0.572605
0.211963
0.220373
1.91274
0.78009
0.621059
0.892116
1.04811
0.603501
0.192886
0.66426
0.490549
3.50006
0.807807
0.331723
0.14636
0.0634868
1.58701
1.49092
1.11635
2.75655
1.83323
2.99188
0.221751
1.13783
0.407426
1.79084
0.183295
1.78424
1.038
0.193837
0.0642689
0.765789
0.105395
0.223554
2.2254
2.40854
2.04722
2.73683
2.72743
1.09107
0.294021
0.515868
3.47617
2.88479
1.31648
4.62542
0.203237
0.450252
1.06261
3.47387
1.68311
1.2722
1.30044
0.276483
0.27529
1.0368
0.596765
0.272827
0.582293
0.0803147
0.975849
0.109832
2.4696
0.100173
1.27298
0.298518
1.00232
0.433956
1.91341
1.22297
1.46542
0.0809735
4.08029
0.157479
0.101091
0.400471
0.0400575
0.125516
1.68401
1.9315
3.59968
0.598548
2.96849
4.05711
0.368861
1.12131
0.107267
0.308631
0.117712
0.038892
1.72294
1.48829
0.100586
0.0999472
1.7876
0.925898
0.433759
0.632127
0.340332
0.887767
0.223722
2.87623
0.320328
1.4073
0.134366
0.339718
0.352922
3.14028
0.307326
1.90927
1.74983
0.232967
0.384204
1.82132
0.27028
0.119203
3.55454
0.213829
0.187499
1.86755
0.311091
2.51168
0.297422
1.41937
2.56164
0.0789667
0.394508
0.402477
1.94027
3.22084
0.217616
1.34424
1.13042
1.90066
0.359668
0.291112
0.271525
0.338392
0.0490075
0.0812599
1.54162
1.5473
0.301677
0.130632
2.86763
0.30494
1.60389
2.31517
0.58542
0.206117
1.63634
3.18316
0.335677
0.0334473
0.0537371
1.76048
0.754108
1.86825
0.295776
0.236147
2.44225
2.501
0.416769
1.38359
3.04607
2.16203
1.02794
1.9074
0.0604487
1.32808
0.720142
0.304704
0.0536956
0.0838663
0.919208
0.273046
0.406875
1.31672
0.224769
0.891057
0.381605
0.335701
0.902731
2.51668
0.155342
1.10145
0.194941
1.70131
2.00786
1.90365
0.292501
0.338429
0.0591823
0.0798337
1.22178
0.431384
1.05687
1.3771
0.425977
0.888329
4.59527
1.66206
1.93224
0.0426673
2.67134
0.0527578
0.160693
0.984664
1.35275
0.860744
0.210588
0.197936
0.356041
1.63437
0.0571395
0.181893
1.94656
3.68793
0.259323
0.553917
0.25792
3.55175
3.01582
1.37734
0.231516
0.866321
1.19792
2.25264
0.870394
1.96693
0.2065
1.16988
0.655142
1.43619
0.230875
0.975817
0.131723
0.441831
0.058851
0.450092
0.71997
0.285782
0.935766
0.0334877
0.317012
2.19388
0.927587
0.0746137
0.239419
1.44132
1.52325
1.4709
0.781891
0.0652951
0.283621
0.0615484
0.0718773
0.244283
0.536131
1.0642
0.0853348
0.684173
1.81486
0.119746
0.254459
0.638732
0.304931
2.85371
0.264699
0.05182
0.0714633
0.127821
0.846278
0.164146
0.500714
0.118204
0.411363
0.1114
0.100685
0.360806
0.70233
0.230247
1.24506
0.538483
0.168854
1.04792
0.26548
0.997662
0.263416
0.0543788
0.0805363
0.128124
0.239851
1.99371
0.243291
1.37298
1.96464
0.873871
2.2102
0.221124
0.23876
0.252472
2.15627
0.576112
0.323183
0.307318
0.0521904
0.0777971
0.199224
0.11226
2.57586
2.21327
1.04892
0.0873697
0.0747116
0.161301
0.0324868
0.52858
0.347627
2.70017
0.472048
1.8247
3.09803
0.0447949
0.235652
0.351192
3.15855
0.165219
2.69109
0.260231
1.17065
0.117652
0.24755
0.119205
0.328838
0.872256
0.65904
0.708158
0.508973
0.257032
0.168601
0.0829196
0.168403
0.377118
3.17897
2.22904
0.58017
1.97547
0.45572
1.24124
0.301649
1.56916
0.192583
1.24535
0.158301
1.51872
2.09263
3.20231
0.391629
0.114587
0.240835
0.0486918
0.108363
0.39032
0.356835
0.218847
0.333072
2.625
0.392346
0.11794
1.58175
0.257958
0.60967
1.53771
1.33081
1.45489
0.167636
0.343637
0.637711
0.257018
0.332215
0.133556
0.643255
1.64189
0.090163
0.346043
0.826029
0.22531
0.331593
0.105664
0.083941
0.0699924
0.0463833
0.152554
0.0395222
0.202576
0.192952
0.2829
0.252358
0.038867
0.0533006
1.67989
1.9654
0.359159
1.01082
0.156482
0.776153
0.342144
2.2771
1.56863
1.54452
4.13283
1.62625
1.99102
2.13777
3.66993
1.13283
0.0586849
0.0649957
0.091857
0.0648311
0.0673008
0.264454
1.93112
1.66829
0.0278019
0.0480518
0.237281
0.534141
0.322242
2.03495
0.187267
0.0408109
1.39048
0.318177
0.838227
0.960904
0.23676
0.250245
1.37762
0.478756
3.91727
0.0569001
0.43128
3.38084
1.17273
1.42914
1.98403
0.0252782
0.0810001
0.296107
0.133871
0.0873518
0.345851
0.0947067
0.502456
0.441612
0.408488
0.116946
0.0819524
0.354422
2.24366
2.689
0.0730572
0.294113
0.0913149
0.347538
0.804597
0.198506
1.10465
1.39625
0.186673
1.17616
0.416545
1.4866
3.56616
2.57193
1.35606
0.811239
0.219143
0.292342
2.19833
0.534196
0.103557
0.0476279
3.34585
0.281579
2.7847
0.131288
0.18169
0.340656
1.61793
1.63475
0.107179
0.158255
1.17927
0.183291
0.653675
0.233931
0.358232
0.740888
3.99182
0.0999317
1.48151
0.266217
0.0561082
0.0714464
0.0317207
0.290287
0.0288261
1.93677
0.209769
1.47297
3.88507
0.971192
0.419788
3.95913
0.272698
0.204499
1.91073
0.334314
0.944888
4.43086
0.244614
4.15674
0.286771
0.0587029
0.0769567
2.04923
0.188632
0.239273
0.0901959
0.102764
0.30351
1.03871
1.76697
0.64992
0.458548
0.441798
3.64616
1.10519
0.575667
0.929458
0.280467
0.362922
1.97667
1.62377
2.1205
0.561405
0.0835523
0.139096
0.189851
1.36985
0.31457
1.546
0.98925
0.554764
0.438965
0.785499
1.78936
0.212339
0.0592735
0.281077
0.089079
0.231607
0.959385
0.291411
0.505575
0.299968
0.741766
2.00536
3.3261
0.421249
1.49738
0.952427
0.0844994
0.203903
0.0874615
2.01338
0.0708708
0.501646
0.265175
0.297123
0.113661
1.75103
1.99758
0.211199
0.331992
0.541684
1.88077
0.16048
0.105309
0.108836
0.413545
1.50518
0.255055
0.358978
1.64866
1.67762
1.73645
0.300301
0.218154
2.03606
1.72194
1.52301
0.322811
0.453412
0.035363
2.09531
0.0246797
0.427262
1.52282
0.859743
0.217798
0.791413
0.414303
0.228487
0.848802
0.048388
0.475072
0.127491
0.0173919
0.0437845
0.563981
2.07012
0.938285
0.308531
0.277998
0.0756068
0.168181
0.0625857
0.0134468
0.0381866
0.0653686
0.467538
1.95959
0.471224
0.775564
0.191927
1.42062
1.71669
0.609456
0.138238
0.072575
0.190362
3.92429
1.62302
1.16281
0.133835
0.0545146
2.31157
0.486468
0.346902
0.926837
1.29556
0.0301532
3.19381
1.06683
0.437534
0.19815
2.44381
2.25717
0.326291
1.48996
0.0360448
0.15898
1.26777
0.965045
0.112363
0.0513058
0.190838
0.227602
0.0960399
2.03755
0.340625
0.239835
1.91251
0.626958
0.14855
1.13575
1.70976
0.312013
3.8034
0.0394736
0.547299
0.0640122
0.490698
1.25811
0.105873
0.372329
1.87443
0.194299
1.17862
0.0750813
0.184064
0.590638
2.04116
1.18989
2.63847
0.404691
1.54033
0.195742
0.452976
2.42214
0.209035
3.86539
0.44781
1.41003
0.413307
0.213291
2.08826
0.763678
2.04792
0.310571
0.056382
0.0619736
1.18163
0.142487
0.190442
0.102059
0.48225
0.512486
0.109224
0.0363408
0.156996
0.943335
3.62518
0.176568
0.0387741
0.350124
1.77992
0.52328
0.420418
0.168524
1.56421
0.648446
0.0897618
0.88482
3.14102
0.0265231
0.798088
1.19862
2.04279
0.816918
0.882167
0.74633
0.233846
0.100412
0.0982793
0.308721
0.114504
0.200101
0.304711
3.46241
1.55604
1.06306
3.23589
0.911876
1.53794
0.423817
0.610778
1.10912
0.163772
1.06094
0.16786
1.56173
3.74562
2.42599
0.659659
1.82963
0.0951995
0.917799
0.613045
1.16251
0.0349723
0.0697321
2.31263
0.496472
0.466814
1.98385
2.55749
0.230859
0.972495
0.953115
3.06303
3.04888
3.09257
0.18723
1.61484
0.0466518
0.302052
0.0691694
1.5783
1.73751
1.29954
0.136741
0.0398317
2.95101
0.10745
0.0551274
0.560981
3.03181
0.569052
1.39726
3.94328
1.44838
0.110258
0.079612
1.25138
0.890236
2.04186
1.51609
1.87105
0.709292
0.597532
3.80437
2.09727
0.0639027
0.0621148
0.253068
0.0727341
0.0802718
0.35956
4.35297
0.557766
0.175827
1.71007
0.672152
0.225421
2.49006
1.94356
2.6105
0.338949
0.530051
0.152632
1.14002
0.422008
1.29546
3.42108
2.18121
1.09597
2.21364
2.42511
1.55632
0.219494
0.0611234
2.51333
2.54985
0.147157
0.74182
0.0451635
0.0673245
0.710612
1.224
1.99887
1.49255
0.193806
2.49844
0.0479476
0.285761
0.0781367
0.21868
0.0448102
1.73516
1.78215
1.42696
0.382681
3.29862
0.0393194
0.143251
3.18338
1.61189
1.78515
0.382097
0.425536
3.69356
1.90262
0.195469
0.252926
0.607628
1.16424
0.192351
0.685527
0.880738
0.504689
0.595218
1.74262
2.35308
0.372044
1.44383
0.0206682
0.200402
1.18627
0.210947
0.362669
4.82942
0.30971
2.07035
1.8476
0.0767856
0.0512759
0.0614106
0.304852
2.22966
1.80207
1.81268
0.172607
0.898815
0.229154
0.783641
0.678675
0.552492
0.221316
0.313366
0.241632
0.270349
0.0353929
0.021389
0.114227
2.16148
1.70347
0.230331
0.922083
5.12067
2.72419
2.72113
1.30175
0.137845
0.977042
0.472619
0.216395
1.57737
3.04583
0.307623
0.167747
0.0732718
1.95938
1.4697
2.17948
0.334038
0.186901
1.0894
0.430347
0.0718523
0.137354
0.0290259
0.0762381
0.28103
2.13208
0.690583
0.233998
2.35018
1.20115
1.74836
2.13205
0.50514
2.12408
0.174082
1.19999
1.38246
1.86563
1.55395
0.0693944
0.0631937
1.44731
0.183019
0.867834
0.215088
1.38172
0.537347
0.526772
0.0684818
0.517688
0.0716252
0.528201
0.50301
0.508848
0.509346
1.19675
2.05778
1.29181
0.0760185
1.87431
0.548887
0.0835311
0.55995
0.0863283
0.20454
0.200785
0.385786
1.78797
0.435909
0.430161
1.58986
0.0636354
0.561849
0.0718249
0.145342
4.11539
2.75502
0.284935
0.0680679
0.0582071
0.319765
0.0229723
0.0472953
0.313407
0.0666099
0.0720518
0.320639
0.0740795
1.22602
0.15709
0.1969
0.566779
1.63485
0.700247
0.611149
0.260482
0.700733
1.9654
1.92767
0.998117
0.0568984
1.98581
2.14006
2.1797
1.36416
0.390511
0.0750818
0.017902
0.0882529
1.34335
2.84724
1.25202
0.194345
0.793741
0.263
0.447914
0.368019
1.64339
2.0931
0.110431
2.346
0.0313154
0.2645
2.6672
1.2523
0.901534
0.505978
0.691043
1.52495
1.26872
1.00694
0.512587
0.197536
0.322654
0.33838
0.236916
0.31287
0.13888
1.54453
1.1302
1.74178
0.9603
1.35732
0.203307
0.129206
0.275257
2.08148
1.05478
0.793473
0.263029
3.49676
0.342579
0.369598
1.66656
0.134979
0.210814
0.811201
2.88476
3.18484
1.12064
1.63966
2.14512
1.45626
0.199621
0.154011
0.0309331
0.237617
0.261862
6.08139
3.63784
0.284033
2.55982
1.22171
0.377611
0.0511945
0.701263
0.108596
0.138783
0.0519211
1.6999
1.12445
0.886584
1.58278
1.23714
0.0373174
0.105977
0.0999673
0.200327
1.32881
1.46024
6.35071
0.482502
0.32069
0.0271339
0.369009
3.22646
1.46054
0.639384
1.32336
0.099764
0.34301
0.225429
0.139467
1.93191
2.55191
0.0786904
0.318577
0.0677285
0.433878
1.25739
0.324813
2.65688
0.280869
4.50145
0.866084
2.25049
3.64151
0.0724631
0.151142
0.189991