/*--------------------------------*- C++ -*----------------------------------*\
| =========                 |                                                 |
| \\      /  F ield         | OpenFOAM: The Open Source CFD Toolbox           |
|  \\    /   O peration     | Version:  v1912                                 |
|   \\  /    A nd           | Website:  www.openfoam.com                      |
|    \\/     M anipulation  |                                                 |
\*---------------------------------------------------------------------------*/
FoamFile
{
    version     2.0;
    format      ascii;
    class       volScalarField;
    location    "0.45";
    object      p;
}
// * * * * * * * * * * * * * * * * * * * * * * * * * * * * * * * * * * * * * //

dimensions      [0 2 -2 0 0 0 0];


internalField   nonuniform List<scalar> 
5794
(
88.027
86.2263
87.0414
90.3051
90.5658
86.6395
83.2872
84.4924
86.2542
87.2259
120.827
81.7731
81.2898
79.2783
83.5696
85.5664
33.199
82.6469
83.8472
86.3631
85.4804
87.1868
83.4397
85.0156
85.8575
42.1095
40.568
83.9071
90.6668
84.3011
85.9532
75.525
102.287
85.2619
83.7504
81.1237
93.5405
82.3719
82.8594
87.227
87.1955
86.067
112.397
88.7658
83.4684
103.495
76.7455
84.9519
85.7878
89.008
86.2754
81.1017
82.1314
85.4491
86.9698
105.798
77.3997
83.9565
112.557
37.4067
99.4226
86.7711
85.4848
75.6082
101.812
86.3636
87.7727
87.1576
83.5571
86.7644
80.177
88.0583
19.4378
87.6521
82.8959
84.0672
87.5266
48.1672
88.6714
86.2333
87.1541
86.4998
87.0386
82.9227
82.0364
85.156
72.8958
107.929
85.0919
88.3741
110.41
76.7545
85.7251
91.8485
81.5039
79.9396
106.394
86.3159
76.7296
100.361
74.6321
75.4653
112.576
80.5767
81.7249
85.639
86.7363
122.017
79.3458
88.5748
82.9887
83.0581
66.7104
86.037
80.7526
90.1497
84.2254
85.7658
98.5372
85.4765
85.7545
85.77
83.5633
84.1868
83.0599
119.075
76.8205
86.3208
83.0915
120.642
81.073
88.3561
75.4244
52.0603
86.6915
83.4185
112.41
86.8137
86.117
80.8342
87.09
83.1038
82.3957
82.4356
86.0869
51.4935
84.2168
110.186
91.3975
82.8781
117.008
85.8357
86.2482
80.8331
45.0599
75.561
85.6412
85.9541
103.12
82.4501
83.5541
85.5022
83.8049
80.8734
79.3626
81.1466
82.2646
85.4823
82.3114
83.501
83.9688
80.6477
82.4946
82.7898
85.9926
81.9009
83.8617
85.3475
84.6284
82.9152
80.0017
76.4123
84.7062
104.147
90.4648
44.2214
75.4273
103.193
86.7348
75.5184
120.603
75.7626
102.273
86.5151
87.3854
82.0138
85.2473
82.4665
83.6056
110.913
81.7533
80.2284
85.8742
88.7623
76.5019
103.119
81.3974
122.322
87.8453
85.8223
88.2843
92.5412
80.6644
85.2763
85.2027
85.217
81.8518
75.2525
121.207
94.911
92.6556
82.4438
109.398
84.8134
107.048
38.9516
86.1445
86.8696
87.1819
83.8969
83.2052
81.287
85.8676
79.9778
80.7494
48.255
67.9948
115.2
85.0956
87.7644
86.2304
122.555
88.4933
81.4555
80.7689
83.3619
82.607
92.4054
107.462
86.6852
76.4348
86.2695
40.9348
86.4599
115.248
87.2429
111.609
111.205
122.394
83.3652
112.886
81.0608
85.324
86.8531
88.8595
79.3705
82.8938
118.643
83.5266
102.58
76.1387
86.1646
86.2833
79.5799
94.0389
83.9162
85.2485
86.2051
86.5572
84.0145
81.9546
101.964
86.9163
86.0664
87.1385
85.354
76.8595
80.8835
87.9875
86.6873
81.892
83.1008
85.5039
85.3786
108.188
54.6948
85.2888
86.1374
84.5762
86.697
86.4441
74.2026
87.0905
87.2145
88.3373
117.127
86.6472
81.8156
101.926
75.9057
86.4423
102.686
88.4595
86.2693
93.4405
95.5604
121.978
83.578
79.2433
92.0302
83.648
85.3915
85.2049
91.9267
85.5734
79.7595
86.4019
82.2795
83.3799
121.076
81.0054
113.638
85.8836
102.723
75.4583
87.236
87.2285
82.8416
86.1391
103.459
84.9819
85.8425
84.9975
83.0661
84.0918
84.6925
106.29
76.8664
81.9408
81.8463
83.0602
52.5777
102.735
76.0721
85.6079
39.6554
82.7456
82.301
82.2111
84.8258
122.214
81.2702
113.504
81.7245
84.7341
89.2062
80.2111
104.334
77.0244
84.5121
86.3671
86.5997
88.5269
85.5619
121.931
79.3082
106.247
77.4664
84.7214
86.5632
87.4079
86.4494
93.8673
80.9213
84.5761
84.961
90.5033
81.6953
84.6671
83.3056
85.3309
86.855
86.7173
81.0569
83.0442
81.6394
86.122
89.2777
83.3244
82.6434
84.9873
85.4469
47.3494
83.9693
83.0526
116.524
87.0185
86.9273
86.6789
107.256
84.7915
74.473
120.143
80.8423
102.803
76.2956
86.2489
85.6879
79.5712
106.646
76.3737
86.2251
121.566
86.1481
81.3004
84.6336
85.5205
85.8901
86.4454
87.3585
80.6082
93.8549
82.5108
68.4217
83.075
84.2943
81.9342
87.7226
80.9177
84.9077
84.2989
93.4696
90.3073
80.6581
85.3059
90.1378
80.6953
86.1723
87.9411
86.9802
86.5664
86.3539
74.308
87.1756
86.208
86.9667
104.896
83.433
80.6827
92.2671
87.2052
86.4334
83.1368
81.7626
101.327
120.51
47.2235
88.0644
120.355
88.4652
86.9282
78.8918
120.136
86.5388
85.7215
104.335
60.0323
83.998
87.9995
86.3925
84.2318
87.1455
87.1758
87.0078
121.95
120.352
92.2499
85.7907
53.0588
87.1458
86.4125
86.5214
84.3551
93.0665
85.249
81.3064
84.084
86.0676
86.1152
115.932
91.0446
59.2454
95.7422
79.223
82.4522
86.4236
87.2425
110.146
120.135
86.0992
79.1497
86.7086
87.341
86.8852
86.729
79.4038
88.3304
86.7956
92.4068
48.91
87.1085
86.5963
90.5616
86.6189
120.292
86.1298
88.0764
93.5021
86.4686
87.1821
85.23
86.733
46.3884
85.5781
87.7914
85.2458
93.5772
110.432
120.348
112.237
87.2325
68.9082
86.3471
77.7678
86.7959
85.688
94.0788
82.7383
86.4581
86.289
81.1313
86.4174
83.7936
88.3144
86.1903
82.3699
84.9149
87.2178
86.516
85.4949
22.7486
84.198
117.859
85.762
78.2801
87.9036
85.6499
87.4444
86.2611
86.2299
102.252
81.0516
83.2702
79.1143
51.8738
90.8126
89.8816
86.0718
86.272
86.5841
88.1497
79.3868
120.183
47.6758
82.6754
105.201
85.8406
86.171
76.3817
106.028
86.0649
86.2078
86.787
88.4689
79.4039
98.5505
86.6587
93.1284
86.0567
84.9318
86.5238
103.107
80.5792
90.157
86.8815
120.083
56.4651
87.5214
86.9506
86.3091
84.7396
85.1433
80.5906
86.2894
80.0569
90.1862
115.515
120.871
109.883
86.2243
86.6645
120.073
119.47
122.144
86.7724
86.1533
85.3208
88.0051
123.372
85.978
87.7849
86.3025
86.5301
86.8998
86.6573
87.3342
60.2757
93.2016
87.5114
83.1138
87.6573
113.042
121.424
76.903
111.546
90.4561
81.2338
101.267
85.7667
86.8639
86.1789
88.1139
85.6719
90.1544
81.1634
116.285
49.0725
84.7845
31.9102
85.8077
86.8159
87.0981
87.1048
86.0741
86.3536
81.2424
89.9547
85.268
77.2748
102.043
115.266
88.8873
41.2115
89.0231
80.7116
80.647
89.9947
85.5637
80.2904
87.9616
86.1195
122.612
85.8299
86.0717
84.348
111.07
94.9444
85.703
86.4228
86.7074
88.1677
98.6436
62.6372
81.9624
85.6415
92.5477
122.107
86.2727
87.0333
92.5797
85.3884
83.6391
86.4486
111.362
86.017
113.927
77.3102
87.3259
85.584
121.955
112.669
93.066
80.7674
86.1906
120.096
91.4126
95.1524
44.9483
118.343
88.4409
122.312
61.4023
110.941
85.0256
89.6142
88.6875
109.672
94.1221
121.833
96.6775
81.5103
61.3713
96.7415
116.718
85.506
87.292
29.805
120.157
76.855
85.9209
107.819
86.8764
86.8007
84.3835
87.9293
86.7825
77.0509
104.119
84.2074
93.4695
86.1636
88.1534
85.033
86.9507
80.5185
89.7428
94.8999
93.0254
81.5064
104.467
87.2491
70.4362
87.0781
81.4645
90.6514
86.789
78.2552
108.64
88.6853
86.0006
76.3172
107.021
87.2513
85.7723
87.3206
86.8857
86.1306
88.0226
84.8623
86.3729
121.973
47.664
83.7369
87.251
86.4903
88.0118
78.3106
122.164
88.2064
79.5236
86.2473
116.558
105.69
75.8
84.6842
78.6029
86.3498
65.8666
87.1964
57.257
91.6194
122.065
86.8608
85.8239
86.1201
85.604
121.547
122.951
115.226
102.927
83.0561
86.7784
88.1634
103.015
93.8746
80.9955
80.3028
103.493
121.955
86.6085
87.158
85.5467
108.986
46.7451
86.1824
94.3605
85.9719
86.7052
86.5109
76.6976
86.4148
105.352
93.0977
85.4787
85.5662
86.9505
85.6186
40.2439
87.8904
86.3099
84.0001
86.7281
120.126
86.0075
94.9843
86.904
87.1052
101
93.2699
78.4662
80.4488
89.848
80.907
89.8943
118.339
118.602
49.11
87.4715
86.8043
86.868
101.294
84.9346
88.3293
87.2322
100.415
81.9377
65.8191
120.102
84.4349
82.4097
86.0497
92.8339
117.659
86.6044
57.3655
86.2175
86.1276
55.8225
104.118
92.5482
81.0954
82.6863
120.93
111.204
86.5495
85.8062
80.4455
119.09
88.4859
93.4333
118.546
86.9104
81.2293
90.6682
87.6616
95.2502
90.2617
87.2778
86.4511
87.0187
86.0953
86.8238
86.6711
86.8443
116.118
86.736
93.2736
85.9375
87.5266
88.4246
86.2589
90.4269
120.141
120.304
53.7809
79.3206
88.1549
93.5853
86.0983
49.0782
101.504
72.3874
113.622
86.9879
77.3146
81.5296
86.2114
90.1953
102.956
88.5561
88.7504
89.5501
85.9227
86.9657
112.978
82.1806
84.9061
107.333
75.9354
86.1695
82.6652
108.092
86.6655
87.0152
89.9337
86.3327
85.7738
121.612
105.743
93.504
85.672
69.1715
86.4146
87.1586
83.515
45.0866
93.7838
88.834
97.7773
92.4553
85.8901
89.1837
86.8072
90.258
80.4809
86.6839
86.7191
86.4276
86.0044
86.1076
86.7256
86.879
93.266
82.9181
94.1464
86.6756
85.9711
105.919
93.7207
82.7394
86.2039
83.9729
86.4494
120.978
95.9094
87.047
87.0549
85.8612
120.05
86.963
93.4259
86.6488
85.9163
93.4603
64.0579
92.7553
87.5215
98.5089
86.6932
94.0864
87.7295
82.2927
106.978
63.5438
81.9363
99.9097
86.1817
88.2376
85.9822
85.935
98.6299
103.593
52.543
80.599
79.4392
86.5063
80.2522
86.1457
76.6494
101.554
110.552
86.7716
87.165
86.4224
85.1813
93.7415
82.3235
91.8527
86.2015
93.1771
93.8594
94.9115
83.0472
86.1873
87.9629
89.6469
82.6864
120.142
86.781
93.4194
75.8468
86.7423
87.141
84.5448
86.1228
121.885
86.7572
122.256
86.6907
95.3781
122.006
86.8713
89.0761
106.361
86.0659
85.8442
87.4726
86.7121
87.4101
83.1537
87.1991
86.4899
82.9052
86.7602
86.2032
92.7034
86.9048
86.8146
85.6268
83.3029
81.8402
94.65
101.872
99.6793
89.2919
79.9397
86.8593
86.8531
87.4531
85.9541
87.0446
85.9527
86.8819
113.916
86.9887
91.9159
86.278
119.959
86.4135
79.7691
88.1977
86.1589
94.4302
86.3099
86.1087
86.5097
82.3025
93.1912
93.7614
86.2146
94.2416
86.4307
86.0691
82.9942
86.4637
87.2525
88.1633
84.8508
121.031
83.6901
56.8953
86.7299
87.149
86.5211
93.4128
82.1594
97.698
84.7438
88.4378
92.3986
100.128
85.2074
80.9229
86.6294
85.5007
87.7157
86.2902
90.6878
93.6149
92.3126
92.3415
116.871
110.09
90.7009
98.6032
97.5645
86.0047
78.4092
89.438
86.7229
30.79
93.9978
86.799
84.7766
120.113
120.339
90.4801
86.0918
88.0475
86.4752
87.8872
86.4268
87.3881
85.7872
87.1804
86.1912
86.8565
86.182
86.0531
85.4702
86.1617
88.0684
90.462
86.3685
82.3757
87.1656
86.0337
88.7686
80.6201
99.6351
100.66
94.6885
91.2812
93.4106
99.4848
84.6014
87.031
82.4668
101.223
96.308
86.4287
87.4528
112.79
80.6548
114.813
84.1055
84.6127
99.2931
86.7268
113.083
102.652
79.6942
88.9455
93.4361
108.644
86.766
83.0138
86.6315
56.1912
86.8407
86.5864
84.8291
86.9929
86.6239
96.4162
86.8351
113.223
86.1908
88.1804
98.8406
84.2285
75.9934
86.5724
86.8843
79.2345
90.0999
119.926
121.244
86.8572
93.5691
86.2998
82.9342
84.6883
75.8082
101.978
122.721
112.325
94.148
86.8618
86.0826
83.0925
85.7624
93.4373
85.5391
88.6632
88.2922
86.8725
84.0391
76.1259
79.752
55.33
86.3301
85.8478
111.743
94.3706
82.3492
86.7847
92.8679
86.643
85.8736
87.1398
86.2107
87.1078
86.3525
83.0628
86.7828
83.3767
86.7137
86.388
87.597
89.5831
71.8249
84.7555
115.845
92.7495
85.6807
85.5949
81.3884
107.175
76.07
85.6897
86.9145
89.3096
121.474
47.5247
86.6458
85.3693
86.7703
78.6981
86.0025
86.7035
88.2339
86.2968
85.581
87.3422
86.5865
86.9929
82.111
85.8911
86.6335
93.3651
87.1569
86.0995
86.7732
107.499
94.0912
121.278
120.755
78.9424
86.9082
90.3482
85.6191
122.082
86.9147
89.1487
78.9639
86.7295
82.6195
86.0668
84.8619
86.8918
84.6772
86.7789
80.305
84.0131
34.2826
85.5001
31.4263
47.1311
86.9848
93.1962
86.9291
86.8454
85.9411
87.337
85.8885
87.0483
85.8118
75.515
101.74
101.004
84.58
80.4511
87.9512
75.6891
89.0344
86.0197
86.4455
121.263
84.4742
88.2955
86.7679
86.0251
86.2977
110.239
86.075
86.5505
81.8604
79.1591
89.8512
88.8725
85.8021
86.9057
93.4667
87.0435
126.825
120.88
86.6394
36.0964
121.585
82.7806
83.9582
85.4982
99.0637
86.7626
86.0211
86.954
85.9913
10.478
93.9999
84.4934
73.0733
108.278
53.9814
111.528
87.4282
87.1092
85.6839
87.1914
86.3048
85.7848
86.193
85.9047
87.3105
86.3171
86.0942
86.7068
85.7873
87.2429
85.5962
86.3279
85.5491
86.3635
85.8062
85.891
87.7922
87.0154
85.8109
85.9839
86.0434
85.6578
86.6823
86.6465
86.1218
87.2844
85.5378
86.2114
85.6648
86.9984
85.9729
87.1907
86.0521
86.9847
85.6058
86.1267
87.0566
85.958
86.0123
85.0562
81.4995
79.8163
51.9973
85.9071
86.201
99.7562
90.8828
85.1924
86.7387
86.7599
92.7419
86.6995
86.3244
86.3545
49.6962
86.1303
89.1533
86.9608
86.6778
86.7293
85.9672
86.4948
86.2253
86.6666
85.9472
87.0713
86.0749
86.204
120.236
85.9735
86.9309
84.6235
89.6819
45.8809
85.9128
83.853
85.0008
102.669
84.041
87.0965
85.7084
79.1242
116.48
84.7775
86.9287
87.0143
81.5271
92.5049
91.6045
11.3389
85.3154
88.1002
85.8183
81.6375
82.5767
84.1157
135.962
81.0002
85.6827
86.2114
86.6674
86.3457
87.2481
86.6945
86.3229
85.8235
87.2402
86.1337
85.2308
85.9673
85.9961
85.0518
86.8017
85.907
87.2857
85.647
85.858
87.1262
87.0324
87.2809
85.8196
98.0762
86.7747
122.539
105.63
86.9406
92.4484
79.8222
86.7249
116.418
84.6075
87.8914
125.962
81.8758
87.06
85.4271
81.8078
114.72
87.2138
72.6093
90.3887
82.7644
86.7503
82.9602
96.2268
83.7225
83.4763
96.0707
91.8562
85.3879
86.7008
85.9795
82.8436
84.175
80.2989
82.1292
85.7877
89.8566
87.0148
89.9771
86.1747
86.0712
86.8807
86.117
85.8525
85.8014
85.287
84.7752
90.8524
93.6638
83.6076
85.4479
86.3032
87.4845
80.9032
86.9643
93.5423
104.384
85.1119
119.109
86.0054
86.5829
82.2025
86.7864
82.5329
93.6473
85.0477
86.1391
86.0114
86.604
86.4051
79.5162
85.3251
85.9804
86.6692
89.3762
92.1379
90.237
89.2029
94.1019
86.2841
82.2627
83.3359
81.2462
82.0693
84.3421
84.8625
89.0262
86.8107
84.6766
85.2758
81.1586
112.991
79.5303
88.9964
83.183
85.0906
86.6432
85.63
85.0603
86.9235
79.4029
81.9889
110.742
84.9894
90.7031
84.2366
86.0385
115.704
115.108
89.7945
83.3158
83.7071
97.4475
81.9534
105.378
92.5367
138.331
86.2093
84.7854
102.264
112.032
79.7863
81.2833
87.1155
126.396
83.4725
106.156
77.4812
128.542
83.7749
84.4784
29.3293
86.9597
87.8225
86.3201
85.3568
87.0304
85.1018
93.6177
86.1194
86.0236
85.0737
85.0379
85.4833
90.5226
89.772
85.2858
89.9976
85.7934
84.7149
84.9051
84.6923
89.2782
87.8201
84.7532
88.7316
84.6931
84.6813
84.4674
84.9848
84.711
80.7368
43.4901
88.2848
79.6754
78.3674
89.2827
85.1496
83.2241
85.9934
87.4034
86.0867
85.5471
84.9448
89.2067
86.9958
88.1785
87.5161
78.3716
89.1438
78.0895
87.2938
87.5927
87.554
117.744
87.3083
87.1535
85.1135
87.543
85.8026
87.6807
85.6598
88.1535
85.07
85.8846
86.9612
89.0691
78.7058
89.3779
78.8594
84.2329
105.355
84.1454
74.7478
75.0244
81.6305
103.077
79.5392
84.2579
105.182
103.685
74.8494
80.6096
82.1021
83.2688
79.1483
101.882
107.574
84.3052
82.3474
105.443
79.187
104.399
83.4855
83.8787
83.2652
75.53
83.9226
51.7991
84.1049
80.9329
85.1849
84.2081
75.2337
81.871
83.4177
103.429
101.976
80.9213
51.5609
78.7475
83.1988
78.9319
84.2942
85.0869
80.4992
83.121
105.16
84.8854
50.7801
80.628
84.9235
83.2344
78.883
47.2459
82.9172
142.658
79.5501
87.5257
80.8002
84.41
82.5756
84.6387
101.86
75.9025
79.7917
46.0145
44.9133
87.5134
87.4094
86.167
89.2904
86.8078
84.7863
80.4727
83.128
86.0912
84.9321
86.0299
120.766
87.7708
87.4554
87.3091
89.1119
86.9496
85.0832
86.6173
86.2773
87.619
78.3222
86.5817
86.1105
85.1468
81.3853
84.1134
82.1418
88.0321
86.8692
86.8655
85.67
86.0603
87.2718
87.6525
86.3687
87.1167
85.9067
84.0763
75.9293
102.024
86.6299
88.9684
78.9104
87.0522
85.3424
85.8028
87.5273
86.1205
86.0844
86.0404
87.1899
86.9544
86.7669
44.79
85.2456
86.7699
86.0902
85.2028
86.9023
87.5255
85.267
84.9351
86.128
85.479
86.1195
86.1519
87.0502
87.4624
85.2738
87.415
85.3291
86.1564
85.011
84.9755
87.3103
87.4278
87.491
81.3868
85.2074
86.375
86.071
87.3369
79.1081
86.4108
85.8837
84.5825
86.2809
84.6807
76.0514
83.5301
102.091
89.0538
78.4735
86.3851
85.4751
85.2956
121.01
82.4271
81.1464
84.6561
85.2694
87.9946
84.6646
85.2174
81.9883
85.2244
82.1442
85.0492
42.7998
113.079
85.2946
85.9143
84.8587
81.2473
84.49
86.6081
85.6409
121.238
81.9423
84.1553
85.3186
82.8953
84.617
86.8433
85.4432
103.052
76.4557
82.995
121.467
83.4592
83.344
83.8018
85.5936
40.1834
112.962
85.4604
83.028
86.2408
85.5469
81.3495
80.7877
83.7112
80.5363
84.2467
83.909
84.7557
86.9397
85.3847
81.3569
85.6056
83.6136
121.299
84.1416
85.7659
39.6087
44.9327
85.6506
112.947
88.64
80.0681
85.6035
84.8336
81.4179
81.7808
80.204
81.7218
83.4275
82.7867
76.9219
105.327
83.2679
110.396
83.1955
84.0006
83.2021
86.0155
86.0402
86.7833
85.4485
85.6344
87.5339
85.6498
83.2116
85.4327
83.6582
82.3666
83.3
85.0863
86.9566
85.2778
76.2045
105.201
83.7315
121.487
86.8192
86.49
87.7243
83.8154
84.3365
87.461
87.4383
86.0022
42.5961
85.1879
97.1953
89.5852
91.6685
112.891
93.1685
84.6097
85.4722
84.5966
85.743
84.5199
87.6178
75.8084
92.5178
81.733
80.3483
97.8848
87.1896
86.1537
87.54
87.1871
87.2848
87.8357
86.1919
86.2542
83.5106
85.6112
86.9777
85.3284
82.4419
85.5551
86.9679
84.3666
92.3954
92.8872
116.012
84.521
91.0209
84.9627
84.4868
87.6298
86.1341
37.9758
84.9854
84.9141
85.8324
93.2673
94.5948
85.3614
86.9675
93.458
89.9816
80.5126
81.2421
80.9893
85.6405
93.6726
85.4264
85.301
85.5908
86.015
86.4925
88.7112
87.1197
85.6963
83.9208
87.1543
88.8018
86.9872
87.1821
82.2534
85.9242
122.296
85.3352
85.1873
81.5802
89.4653
88.5218
88.8711
84.0634
83.7733
87.125
87.5905
87.5326
87.2592
85.7472
85.4047
86.9375
85.2723
85.0789
85.2288
85.1348
76.6691
107.3
84.1772
84.0067
86.1275
87.6372
86.1922
87.663
87.0469
86.3866
86.9206
86.383
87.4104
94.7445
89.0813
86.0277
93.493
85.8911
115.477
86.2384
86.1612
87.6636
121.624
88.6587
85.8213
84.111
85.1909
81.9538
87.5564
84.7677
85.8283
86.145
87.1732
87.5312
86.9296
87.0677
86.8927
85.5966
120.475
85.0354
87.4133
91.8599
85.2294
80.003
85.429
85.3676
86.2996
88.547
91.0145
83.0245
85.288
86.1768
86.5489
89.3475
85.689
87.5787
87.3735
86.2387
85.4269
86.9553
86.5369
112.856
113.684
85.9049
87.4663
86.177
87.1919
113.241
86.1333
87.537
86.1564
87.5182
114.317
87.4039
86.1526
80.2723
81.9373
87.1172
87.0188
82.4351
85.5789
87.7496
84.2611
86.2712
92.4752
87.593
92.0606
121.363
87.0313
85.266
85.9381
86.8292
85.7386
87.0207
85.9018
90.607
86.2096
87.6748
87.021
86.0552
85.7659
93.3568
89.0544
82.1288
80.9722
85.5885
86.1242
87.5772
85.8873
86.9095
85.4092
85.381
70.9734
85.7917
87.3171
86.2664
91.3378
87.656
80.3817
91.3661
82.7164
84.0416
83.1158
87.8746
92.6891
87.5034
86.2056
86.9227
86.9998
85.3305
85.4453
99.7008
84.0099
124.409
84.9606
85.6697
85.295
81.6345
86.4367
82.634
87.6378
84.3776
87.0073
116.137
75.9391
106.705
85.1055
85.332
86.1777
88.6284
85.9061
86.7478
103.45
86.3634
91.6714
97.388
104.119
83.9322
91.6925
86.9554
87.591
86.2264
86.0299
121.74
76.2472
87.6719
85.0637
88.9844
51.2331
84.8904
87.1711
84.8014
86.9638
86.1703
87.4757
80.1147
86.4809
86.1539
87.1153
86.3992
85.4076
86.1967
84.3467
86.4849
89.941
41.0195
89.4265
86.2342
108.081
90.3057
80.1768
82.1145
35.8648
98.7644
85.5671
81.9939
91.1285
84.5948
121.159
87.1848
87.5343
86.4634
128.839
87.1968
84.8151
84.0567
86.4489
87.4837
86.8837
84.6956
85.5195
88.3537
86.2988
87.6074
114.336
88.3594
86.6022
86.7878
86.3397
90.9203
86.17
85.473
85.3981
86.1155
88.0813
132.845
82.118
87.5182
87.1939
88.637
89.9694
87.0091
120.151
85.3158
87.5413
85.2037
86.1739
63.0879
120.707
85.6657
85.4613
84.5081
81.9456
95.8029
82.0254
85.0791
88.7117
93.4208
88.8414
86.2618
79.1031
86.6918
86.9879
98.1132
87.2882
87.5302
87.0562
84.5684
85.7085
87.3157
91.159
86.4475
86.9697
87.233
84.8094
85.0197
78.7623
91.7357
87.0642
85.6549
84.406
88.9465
86.6877
86.9698
96.8026
85.6728
90.3812
85.9344
85.7125
85.1631
82.0685
90.4599
92.3964
93.5907
87.4732
86.8817
85.3917
67.5466
89.6931
86.4402
85.3797
89.3068
109.689
86.9666
89.0223
86.869
97.666
76.5861
85.4742
84.6161
86.8842
86.5277
81.5467
108.366
81.5606
86.5939
86.43
88.2086
87.131
85.5613
81.3984
91.1949
85.6526
77.9958
107.098
85.5905
82.4858
81.6482
85.6331
86.8684
85.367
80.0704
85.5785
87.1792
92.5892
85.9907
84.2293
87.284
86.1931
87.552
84.057
88.8253
90.2798
85.1111
82.6124
92.8862
84.0367
86.608
85.7932
86.8475
85.5885
128.951
105.106
87.6865
87.1529
98.2662
106.068
106.55
83.9845
83.5589
85.8058
89.0872
86.153
84.5833
91.6316
120.85
87.1643
84.7685
83.3753
76.258
103.765
86.1051
86.2861
82.6015
89.5422
86.0556
87.0107
86.3388
88.6623
49.2883
61.899
85.8939
87.8248
89.2312
87.3004
83.1597
81.702
96.6398
82.2976
112.992
87.216
86.4412
87.3339
85.4258
86.2004
86.8915
87.2518
87.5603
85.6576
96.5917
86.1925
86.156
84.2134
120.155
86.819
85.4219
75.1829
78.8029
120.312
121.229
86.2216
87.7914
86.8943
86.0827
83.4437
87.0067
18.9483
86.2104
115.852
78.197
85.4248
86.6802
85.9532
119.108
87.6304
84.9396
86.8352
85.6317
85.1563
111.821
78.6197
89.5573
86.6901
87.0364
86.9844
85.9917
86.3968
87.3086
93.3022
120.475
100.776
84.9157
82.1185
86.2967
87.6159
87.5324
85.5471
86.1078
88.0746
85.0869
82.1526
86.18
84.3935
79.8524
114.198
82.8162
85.0126
93.2911
86.1472
43.257
87.5173
86.18
85.5376
86.8173
85.5779
101.151
85.8767
87.3031
87.8997
86.5807
86.2082
86.4504
86.013
86.2876
90.1824
85.9336
89.3185
84.416
81.2854
90.6247
85.6365
87.7389
87.3669
86.8181
86.2248
93.2082
86.3731
87.7918
85.8475
93.3321
87.0765
86.5099
87.3409
114.197
115.948
87.1799
86.476
86.1693
85.7788
85.0449
87.5477
92.1339
87.5571
82.5476
81.6505
98.3903
82.1674
87.5126
87.5858
85.9183
86.7522
84.7764
75.8361
83.6349
87.6676
107.732
85.8974
87.5409
85.5789
86.7951
86.7784
79.9497
86.5029
86.185
88.8942
85.5013
85.3664
73.3168
96.0809
90.352
86.0195
82.5081
87.7036
85.7458
86.2802
87.4383
93.6343
92.9616
85.1408
86.8617
82.6631
86.9137
86.353
87.4
86.7119
87.6445
86.0243
87.0677
86.2802
86.7453
83.7337
85.7652
87.9255
87.975
93.8941
85.7372
86.9238
86.2401
84.3687
82.2492
88.7783
87.6735
85.3797
87.491
86.2305
90.3335
120.674
79.5131
34.8117
88.4532
81.8114
89.5256
90.1853
86.8914
86.8546
85.9259
85.949
86.9149
86.1131
93.5166
87.0273
112.036
86.9041
85.6962
87.8781
87.7003
112.676
82.6733
86.6495
86.2884
91.3577
111.893
83.6852
84.0715
85.9443
81.8638
122.068
92.6963
89.3173
86.0865
103.702
79.9273
86.8325
87.3106
81.3226
86.0066
87.7798
83.6843
87.2205
86.5367
85.8414
86.2114
87.1103
87.493
87.2156
85.8042
85.7421
86.7135
83.5738
89.7177
86.551
86.6115
86.8687
87.6383
86.9854
86.5087
82.3557
77.3707
86.741
110.991
87.6703
80.5161
89.2774
31.585
89.9629
117.755
85.4382
87.5622
85.9826
83.9833
85.7866
85.8222
88.3353
86.6638
84.746
86.1898
85.6579
113.687
78.6012
78.6122
86.1641
88.0569
122.547
79.4467
89.8446
85.1848
86.5545
87.2237
93.1181
85.6175
80.2827
84.7028
86.827
85.8653
87.012
86.2048
86.0852
82.7001
86.0162
71.8288
89.6968
88.2274
84.6102
52.3012
93.6261
102.76
87.7152
87.448
120.629
66.3056
107.593
93.0138
85.0661
86.8334
85.8439
83.2625
97.7957
83.0785
87.1154
86.4421
86.6508
83.7501
114.886
124.822
87.4884
107.29
93.6313
120.036
89.6535
87.4331
86.3905
86.6252
85.8855
82.1792
105.671
84.1929
86.4078
86.1367
84.8855
120.541
86.9917
108.547
78.1249
84.2208
83.9789
86.773
82.541
84.858
86.9675
85.679
85.2786
85.4909
87.5636
86.0939
87.1344
80.4648
88.8372
82.0607
93.4319
94.0411
38.322
120.136
86.7381
84.8897
86.8756
84.3957
86.2027
84.121
86.8666
85.5683
85.3893
87.4842
90.2288
104.907
86.0821
76.0841
105.361
87.9314
86.1717
85.8509
93.8423
33.1886
84.9354
75.7441
101.764
77.1417
88.0822
95.2456
93.1745
88.5865
87.1896
83.5062
82.0135
122.372
86.7044
84.9549
86.7395
94.4977
42.0638
87.3671
86.038
87.152
83.0344
85.3145
81.1124
86.664
103.927
86.9957
86.7706
85.9676
112.55
88.4616
84.287
86.9059
87.0576
85.944
88.2043
86.6192
86.7867
86.6241
87.0823
103.333
82.0148
102.679
85.5063
80.9067
95.2265
88.1284
121.894
86.0321
87.1315
96.7558
109.024
77.322
84.5272
88.0023
85.936
85.3459
87.5686
119.524
87.2923
94.3313
86.1949
89.5742
92.1635
118.907
120.001
84.9055
92.8791
86.2129
92.0556
86.0079
87.9528
75.6067
91.0675
86.0398
86.5646
86.0819
85.2442
86.196
72.3936
87.6751
119.863
95.8227
86.5025
85.7889
87.4635
81.6886
114.262
92.0803
86.068
112.765
86.6514
109.752
104.102
86.3243
119.376
82.1421
120.044
93.2765
86.0849
88.0195
96.0348
84.976
101.577
86.8721
94.4699
26.4317
86.5907
118.582
89.0603
98.6273
89.6126
99.5927
79.1971
119.182
119.942
94.7786
104.099
85.8341
84.3772
86.9656
86.4492
87.9444
85.5551
100.241
84.3983
101.978
100.356
86.1893
85.9521
87.9811
121.069
90.0158
87.8019
85.8003
92.9764
81.4382
93.6815
94.1401
84.6092
103.896
86.4311
85.0144
88.896
90.2611
86.8641
101.941
120.309
80.3842
107.423
99.2092
87.422
86.5192
86.8485
86.8855
86.4478
86.9843
120.076
93.0949
90.3589
84.3175
87.8263
109.121
74.3741
84.6413
83.8238
85.903
88.7918
85.4053
86.208
86.1006
92.9788
89.6457
87.1479
84.2189
81.5138
86.1956
105.987
95.571
86.6438
86.9382
87.0398
85.7275
101.196
87.4294
82.4759
86.3917
86.2552
90.0925
76.8952
89.9622
46.0018
91.407
86.7412
95.2545
86.9333
86.1492
85.5121
119.848
82.115
112.733
86.7357
86.2586
80.0755
86.1079
86.8456
82.9762
94.7049
97.4726
76.869
108.416
85.175
87.1511
86.379
86.8391
84.4391
88.1191
55.6203
52.6303
86.8087
80.3214
88.1511
89.064
86.234
86.9795
83.5747
86.8032
86.4876
86.7016
91.2995
86.79
87.4494
90.4332
85.4123
122.331
89.2133
84.4224
86.0677
85.0636
99.5059
85.2717
88.6723
86.2318
87.2396
110.066
78.2124
84.7838
85.2849
90.0282
43.7892
86.6194
86.1595
102.454
120.927
84.3272
86.4452
86.6052
87.1753
79.9805
89.1659
80.8026
87.6721
85.0044
89.7141
87.0247
86.0546
85.3737
87.3174
85.7427
76.7286
104.646
85.0253
80.8261
93.271
86.0385
88.0197
86.6683
80.1658
101.741
75.7638
85.788
88.4854
79.7478
83.2821
83.4521
84.5709
81.1206
95.7542
82.7633
107.105
117.41
136.007
86.563
91.5869
122.585
88.1162
86.0891
83.2014
117.226
86.2134
92.3251
9.39597
93.5667
88.6409
79.5392
86.5541
86.8901
85.7626
85.5351
84.7196
90.1211
85.2113
84.6583
86.3572
92.8113
87.0252
121.977
87.7449
107.174
89.3539
79.4711
83.5652
87.0217
86.1625
85.8768
85.2433
80.0611
85.8104
84.6319
33.303
110.532
78.9198
85.9801
83.4449
91.0871
80.1397
86.2309
80.741
87.1471
83.0503
83.3891
86.7388
81.8474
86.4678
90.4204
86.5516
85.6842
86.4612
113.851
86.4409
87.5453
85.9055
86.3201
94.2117
102.704
84.4241
92.9531
86.3287
76.977
79.2126
85.0972
87.3648
83.4157
85.7083
86.2833
87.685
83.7664
122.121
86.9473
86.1586
121.61
84.7505
88.9744
85.3146
73.6979
94.8828
94.6627
86.4127
92.1317
86.3585
92.205
92.3157
95.5325
93.6884
82.6165
82.7618
82.5951
86.2397
82.8626
98.6325
86.7694
81.8808
86.7658
86.2894
86.0006
94.2166
82.1239
84.0366
88.7392
95.8761
85.6961
87.7129
86.565
85.7236
93.8473
44.3479
82.4878
86.9808
86.1897
88.1939
86.3034
87.1611
86.0954
85.4616
87.0622
82.6613
86.2755
118.751
84.665
86.3371
87.4696
77.7841
86.8349
93.0673
86.2971
86.9827
83.0934
88.4916
79.3066
86.6949
84.0509
110.487
108.114
77.4401
83.9004
86.7374
85.9657
86.7682
81.1992
90.3114
120.658
94.8793
87.2888
111.081
85.3848
84.8068
81.2436
82.8967
85.6727
78.7146
86.775
95.3602
89.2969
79.621
89.9949
92.0316
86.3061
83.8296
124.19
74.9224
86.9241
85.1602
86.5893
86.4307
109.293
119.65
85.0771
82.6735
88.6457
105.821
86.9718
87.5563
85.2271
86.1828
85.4095
90.0216
80.6588
87.9249
87.0652
92.0867
85.1075
75.6816
101.753
86.4081
85.1835
80.3697
86.4917
89.934
97.9086
85.1486
90.6049
84.7047
86.5676
86.2081
86.9357
93.4044
86.6834
15.8753
93.5524
87.3627
89.4209
80.1426
87.0569
86.0104
87.2509
85.5916
86.9869
86.0938
81.1192
82.2407
117.764
77.6446
120.451
86.146
88.0634
86.4336
85.8937
86.1811
86.7191
52.1903
113.149
93.2788
86.7751
86.9205
89.3393
80.7486
78.5378
88.1037
86.4409
93.6573
93.2685
88.0183
86.5456
44.4425
85.8433
85.7586
86.8686
86.1513
87.6833
85.2173
84.5863
84.899
51.9964
84.3441
88.8649
87.4509
86.3977
87.7227
81.2429
82.0603
85.9161
91.9322
104.539
92.1352
85.2867
82.416
79.7477
89.8728
75.6155
84.7753
122.586
113.685
82.4434
78.7742
91.4613
87.0093
83.1042
86.1835
83.8714
112.476
96.1266
95.6387
88.0138
79.5969
88.6778
84.7538
95.7603
87.3587
108.439
84.7873
74.2382
87.216
85.4129
122.169
87.007
81.7791
82.3832
81.7327
84.6842
86.2373
42.7945
103.235
88.8101
86.2174
82.7979
82.3971
85.6714
88.9709
80.0195
85.947
86.717
86.4394
87.2551
121.636
86.2968
90.4422
85.5686
84.9791
52.7146
87.1766
74.9295
106.034
85.3463
82.3845
82.5935
93.5553
89.6136
86.3755
87.2248
81.3561
85.6198
87.3766
89.0277
119.836
86.2483
82.2574
85.8388
86.5947
85.0868
80.5966
82.9739
81.0497
89.3865
79.8787
81.9485
93.8577
87.9412
86.2898
111.845
64.7602
82.175
54.2336
86.0774
87.9517
81.9915
80.5786
86.3231
83.0891
74.248
84.8493
113.845
84.8477
73.9408
108.822
118.984
111.703
82.8351
84.9197
85.5637
89.5513
87.4166
79.7603
81.3226
85.358
84.2882
103.181
102.74
95.6272
85.6091
85.1645
84.2432
93.7928
86.8388
86.6355
89.9032
86.6323
88.2575
119.763
87.2846
87.3886
87.8003
79.7365
89.581
89.5851
85.2776
87.0851
87.1002
85.6921
85.3595
85.1144
81.4306
81.1981
86.999
86.3884
84.3612
83.3609
86.4554
85.9517
85.105
103.977
86.1812
87.4255
87.526
86.1693
108.247
116.974
86.1
85.8812
110.562
87.0956
95.4907
86.1585
88.1152
87.0203
85.373
87.0062
86.0778
85.3867
84.2515
84.6915
86.24
121.15
79.0986
86.4258
84.7419
86.2211
89.1042
86.1801
83.8498
87.9776
85.8025
93.1904
115.933
87.6197
88.3704
86.419
89.6499
84.2206
85.623
82.2923
84.3365
82.0793
86.8935
87.3296
86.1524
47.7327
87.3918
120.207
85.306
81.7107
84.0335
118.498
86.7596
50.0446
93.9685
86.6052
86.1209
86.8679
85.0305
86.5559
87.1956
84.0884
86.9424
82.3597
87.1808
86.4027
86.9928
85.8202
93.9929
120.854
83.0891
79.1034
86.8556
86.2064
86.7482
87.9265
102.353
75.5364
85.6207
93.3604
89.6105
93.6638
86.9595
93.3667
113.288
85.8047
83.6332
85.8616
90.1675
122.211
87.12
85.9499
85.9714
88.9576
86.2179
85.9295
81.6994
120.743
95.9103
86.4188
87.2407
82.0227
93.778
86.7
86.4959
89.5741
85.1947
86.6007
81.8825
44.1229
86.3156
87.7294
104.771
122.011
88.904
86.3598
86.1765
120.222
82.8935
93.5875
87.3685
31.9625
56.4045
85.025
47.6782
86.0095
30.4819
87.7716
104.976
88.558
89.2835
86.7058
86.7005
86.6794
86.694
86.7887
86.8558
86.7071
86.6029
86.7165
86.4878
56.6287
81.6582
81.4574
81.9925
81.626
52.0152
82.0259
86.0348
77.4777
79.8578
78.6852
76.8484
60.3177
45.9957
76.619
66.3728
63.2902
76.9722
82.0027
88.6715
88.7015
88.705
88.6413
85.3148
86.3847
88.6489
86.8875
86.7342
87.595
85.4359
88.933
86.273
88.5736
93.6396
107.828
109.023
81.4793
95.0638
92.7218
77.3592
91.8327
96.9908
107.576
111.693
102.091
99.5855
115.569
119.506