/*--------------------------------*- C++ -*----------------------------------*\
| =========                 |                                                 |
| \\      /  F ield         | OpenFOAM: The Open Source CFD Toolbox           |
|  \\    /   O peration     | Version:  v1912                                 |
|   \\  /    A nd           | Website:  www.openfoam.com                      |
|    \\/     M anipulation  |                                                 |
\*---------------------------------------------------------------------------*/
FoamFile
{
    version     2.0;
    format      ascii;
    class       surfaceScalarField;
    location    "0.45";
    object      phi;
}
// * * * * * * * * * * * * * * * * * * * * * * * * * * * * * * * * * * * * * //

dimensions      [0 3 -1 0 0 0 0];
oriented        oriented;


internalField   nonuniform List<scalar> 
11117
(
-2.46817e-05
5.14002e-05
1.1612e-05
-3.83305e-05
1.36777e-05
0.000147787
-1.10469e-05
-0.000150418
-6.73275e-05
9.51452e-05
-1.58206e-05
-1.19971e-05
-0.000644224
6.57322e-05
0.000206241
0.000372251
0.000244617
0.000101142
-4.7931e-05
-0.000297828
-2.86029e-05
5.38432e-06
-0.000124231
0.00014745
-0.000787159
-0.000125892
0.000701285
0.000211767
-9.41242e-05
1.21187e-05
2.1854e-05
6.01515e-05
0.00121292
0.00023099
-0.00089396
-0.000549946
0.00032473
-0.000171015
-1.40897e-05
-0.000139625
-0.000866232
0.000938126
0.000297748
-0.000369641
-2.92213e-05
-0.000180509
5.9674e-05
0.000150057
-0.000665871
-0.000214224
0.000400769
0.000479325
0.000816208
-0.00116812
0.000624076
-0.000272161
1.72959e-05
-3.71235e-05
0.000123215
-0.000103387
-6.07262e-05
2.11932e-05
-4.03623e-05
7.98953e-05
-0.000120829
0.000101832
-2.17843e-05
4.07806e-05
-0.00075262
0.000778536
0.000779834
-0.00080575
0.00012263
-1.2474e-05
-9.28603e-05
-1.45637e-05
7.9281e-06
7.96689e-05
-7.30333e-05
-0.000339849
0.000186658
6.42501e-05
8.89408e-05
-1.44582e-05
1.12807e-05
0.0001021
-9.89229e-05
0.000585653
0.000440953
-0.000366884
-0.000659722
7.12025e-05
6.6331e-05
-6.11872e-05
-7.63463e-05
0.000215438
0.000158101
-0.000218074
-0.000155466
0.000923014
-0.00094869
0.00029831
-0.000272634
0.000279483
-0.000375504
0.000720559
-0.000624538
-0.000285752
0.000373433
-0.00029467
0.000206989
0.000182932
-8.51415e-05
0.000962179
-0.00105997
3.26978e-05
-1.75266e-05
2.36233e-05
-3.87945e-05
-0.000120849
0.000118215
0.00011542
-0.000112786
-7.72346e-05
-0.000232112
0.000236723
7.2624e-05
-0.000120504
-0.000455399
0.000382234
0.000193669
0.000189183
2.48995e-05
-6.29579e-05
-0.000151125
0.000164969
1.82668e-05
7.35694e-05
-0.000256805
-0.000230264
8.33876e-05
-1.18143e-05
0.000158691
0.000600297
-0.000817018
0.000997207
-0.000780486
0.000112224
-0.000273939
1.13404e-05
0.000150374
0.000711813
-0.000206505
-0.000847531
0.000342224
0.0002116
0.000301599
-0.000385175
-0.000128025
0.000161572
7.2228e-05
-0.000132649
-0.000101151
5.85784e-05
-0.000106217
0.000107067
-5.94284e-05
0.00098205
0.000865102
-0.000868721
-0.000978431
1.55316e-05
9.19926e-06
-5.25492e-07
-2.42053e-05
-4.87553e-05
0.000161664
9.72132e-06
-0.000922352
0.000731894
-0.000222057
0.000412515
-0.0003513
0.000245522
-6.58376e-05
0.000171615
0.00013953
-0.000247258
0.000169736
-6.2008e-05
-0.000370442
0.00045939
-0.000258197
0.000169249
-9.70322e-05
-1.17355e-05
0.000108768
6.70417e-05
1.11305e-05
-7.81722e-05
-0.000331564
-0.00112098
0.000506587
0.000945961
0.000118523
-4.50295e-05
0.000131723
-0.000205216
-0.000244083
0.000289446
0.000110733
-0.000156096
1.57613e-05
-1.57613e-05
0.000411965
0.00017611
-0.000541912
-4.6163e-05
0.000116135
8.21292e-05
-0.000173346
-2.4918e-05
-0.000103531
-7.95545e-05
0.000162112
2.09739e-05
0.000868974
0.000113634
-0.00134064
0.000358032
-0.00042149
0.000789327
0.000555177
0.000840526
-0.000856294
4.38157e-05
-2.8048e-05
0.000134553
-7.44104e-05
-6.12304e-05
1.08751e-06
-0.000129951
-0.000137185
0.000146287
1.90375e-05
-3.4378e-05
-6.18941e-05
0.000122189
-3.92046e-05
-0.000203489
-4.43102e-05
-0.000128522
0.000107356
6.54766e-05
0.000128268
-0.000135806
5.66179e-05
-4.90802e-05
5.81459e-05
-0.000280803
0.000222657
-0.000775479
-0.000442235
0.000608317
0.000609397
2.79749e-06
2.55674e-05
3.1034e-07
-2.86752e-05
0.00046249
-0.000136856
-0.000657198
-0.000220152
0.000194201
0.000154219
-0.00027467
-0.00128098
0.00131843
0.000237211
2.79123e-05
3.51736e-07
-8.57329e-05
5.74689e-05
-0.000844348
-0.000683752
-9.67824e-05
-1.21909e-06
0.000275767
-0.000177766
8.77974e-05
-3.6632e-05
-5.11653e-05
-0.000921718
-0.000168525
0.000141552
9.76508e-06
9.24625e-06
-3.47976e-06
-4.04702e-05
-1.89859e-05
5.9456e-05
5.09824e-05
4.58925e-05
-7.53318e-06
-8.93418e-05
7.50839e-05
1.18703e-05
8.91154e-06
-9.58657e-05
3.86207e-06
5.01485e-05
-7.50924e-05
2.10818e-05
-0.000335015
0.00044736
0.000260674
-0.00037302
-0.000108533
-0.000145108
0.000183631
7.00096e-05
5.83257e-05
-0.000582403
0.000524078
-5.7024e-06
-0.000577124
0.000582826
3.11649e-05
-0.000464166
0.000433002
8.80279e-05
-2.01949e-06
6.22855e-05
-0.000148294
-0.000105674
0.000121952
0.000331602
-0.00034788
0.000513442
-0.000153244
7.79383e-05
-0.000438137
0.000755355
5.44326e-05
-5.0845e-05
-0.000758943
0.000751062
-6.18169e-05
6.31667e-05
-0.000752411
-0.000667649
3.55881e-05
-2.52679e-05
0.000657328
-0.000743878
6.32037e-05
-3.36093e-05
0.000714283
4.55782e-07
0.000225591
-0.000328083
0.000102037
0.000573221
2.32031e-05
-2.29889e-05
-0.000573436
0.000726487
4.0863e-05
-3.09909e-05
-0.00073636
0.000712826
5.68457e-05
-2.91293e-05
-0.000740543
0.000809707
6.10615e-05
-3.02424e-05
0.00039888
7.96443e-05
-0.000421803
-5.67213e-05
-0.000194608
0.000150969
6.1929e-05
-1.82895e-05
0.000300683
-0.000373544
-0.00114511
0.00121797
0.000897737
0.000471021
-0.000917427
-0.000451331
-1.7236e-05
-0.000100168
8.20918e-05
3.53127e-05
-0.000823361
0.000309944
0.000738666
-0.000225248
2.7378e-05
-4.00309e-05
0.000104913
-9.22597e-05
2.22807e-05
-1.82866e-06
3.15392e-05
-5.19913e-05
-0.00024611
2.67887e-06
0.000103034
0.000140397
6.66459e-06
-2.70361e-06
5.8041e-06
-0.000551496
0.000314803
0.000300527
-6.38338e-05
-0.000110714
0.000211713
6.01528e-05
-0.000161152
-0.000420151
0.000347675
-0.000183447
0.000255923
-2.93207e-05
4.0892e-05
3.48384e-05
-4.64096e-05
0.000122653
0.000652683
-0.000745401
-2.99344e-05
0.000112606
0.000622363
-0.000700708
-3.42617e-05
-2.61261e-05
-3.05586e-05
4.0738e-05
1.59466e-05
-0.000566998
0.000555435
0.000852864
-0.000841302
3.67851e-05
-2.05852e-05
-0.000872494
-0.00103734
9.08199e-05
0.000959374
-1.28513e-05
0.000882352
-0.000634003
-0.000815347
3.88005e-05
-4.11476e-05
2.34703e-06
0.000170117
-0.000141201
0.000200131
-0.000229047
-0.000174218
-0.000208317
8.26957e-06
-0.000116785
-3.87292e-05
0.000147244
-0.000351493
0.000404045
0.000614531
-0.000667083
-0.000422665
0.000687801
-0.00049103
0.000225895
9.92105e-06
0.000133097
-0.000123292
-1.97255e-05
0.0005508
-0.000810549
-0.000110066
0.000369815
5.21411e-05
-5.05612e-06
4.35714e-06
-5.14421e-05
-0.000144372
0.000318182
-4.29634e-05
-0.000130847
0.000337544
-0.000191398
-0.000261513
0.000115367
0.000106564
-2.99638e-05
-5.40207e-05
-2.25791e-05
-0.000876487
0.000107076
-0.000152307
-0.000264468
0.000228683
-0.000666272
0.000702057
7.16963e-05
-6.39388e-05
-4.48811e-05
-0.000406823
3.5683e-05
9.44751e-06
0.000361693
3.28264e-05
0.000116822
-1.5095e-05
-2.55487e-05
-3.3572e-06
1.50264e-05
1.38795e-05
0.000140186
0.000145373
-0.000132736
-0.000152823
-6.92202e-05
-0.000108191
8.08754e-05
9.65355e-05
0.000143166
-0.000453402
0.000495631
-0.000185395
0.000158452
-0.000142095
-2.35873e-06
-1.39982e-05
0.000604137
-0.000277778
-0.000312328
-1.40312e-05
-4.5564e-05
9.40541e-06
6.05782e-06
3.01008e-05
3.63754e-06
0.000245421
-0.000148429
-0.00010063
0.000353503
-0.000214535
3.11496e-05
-0.000428089
0.000956496
-0.000548027
1.962e-05
0.00015534
3.09821e-05
-0.000208667
2.23454e-05
-0.000121721
0.000327133
-2.38235e-05
-0.000181589
0.000905162
0.000437587
-0.000598358
-0.00074439
-3.07677e-05
1.88825e-05
1.31334e-05
-1.2482e-06
-0.000471464
-0.000102488
-0.000249409
9.08635e-05
-0.000171355
-0.000112587
0.000193079
-0.000352371
-0.000393432
0.00045725
0.000288552
0.000480523
-6.62402e-05
-0.000414282
0.000376798
0.000218141
8.03841e-05
-0.000298525
0.000933074
-0.000226712
-0.000706362
3.69158e-06
-7.90981e-05
8.16445e-06
7.09337e-05
-3.34224e-05
-0.000166451
0.000199873
0.000409504
-0.000441589
3.20852e-05
-5.27608e-05
0.000533548
-0.000480787
-0.000481155
0.000547417
-6.62611e-05
-0.000484589
0.0004807
3.88908e-06
-0.000446815
-1.72489e-05
0.000464064
0.000311975
-5.20131e-05
-0.000259962
-0.000448242
-0.000103254
-2.95887e-05
-8.11254e-05
-6.95959e-06
-2.07411e-05
2.77007e-05
0.000210455
0.000198653
-0.000409109
0.00017407
-0.000241003
6.69331e-05
0.00013723
-8.29622e-05
-5.42683e-05
-7.51945e-05
0.000113002
-3.78078e-05
-0.000635746
0.000783563
-0.000147817
-0.000111691
5.90137e-05
5.26772e-05
-0.000241164
0.000298074
-5.69097e-05
-5.36283e-05
-1.88276e-05
7.24559e-05
0.000913
-0.00099622
8.32204e-05
-0.000317939
0.000330283
-1.23444e-05
-5.22338e-05
0.000119171
-6.69375e-05
0.000280129
-0.00026556
-1.45683e-05
-0.000278762
0.000322294
-4.3532e-05
3.10872e-05
7.3911e-05
-0.000104998
-0.000140915
0.000266554
-0.000125639
-0.000188882
-5.72584e-06
-0.000231697
0.000149376
8.2321e-05
-0.000351795
0.000370218
-1.84234e-05
3.98523e-05
0.000111116
-0.000210334
-0.000655898
-0.000171241
-6.08711e-05
-0.000367763
-8.7636e-05
0.000206536
-8.83211e-05
0.000456708
-0.000119164
-7.70561e-05
-6.73155e-05
0.00013177
3.54606e-05
-0.000167231
-0.000256599
0.000113546
0.000143053
-0.000106719
9.42452e-05
-0.00106007
0.00136076
0.000688239
-5.28274e-05
-0.000635412
-0.0009294
-0.000191584
-4.0053e-07
0.000139931
-0.00012633
-2.18263e-06
0.000128512
-0.000318381
-3.29194e-05
-0.000779353
-0.000142999
0.000117964
-0.000245118
0.000127154
2.95536e-05
-1.0765e-05
1.19694e-05
-3.0758e-05
-0.000190519
9.5691e-05
0.000504512
-0.000409684
-0.000865391
0.000855353
0.000675369
-0.000665332
-2.61048e-06
1.80382e-06
-5.08852e-06
5.89517e-06
-0.00117136
0.00112891
-5.12625e-05
9.37154e-05
-0.000275029
0.00022501
-2.74127e-06
0.000235803
-0.000205872
-6.33539e-05
-4.03068e-05
3.64344e-05
-7.91212e-05
8.29937e-05
0.000127947
-0.000243045
-0.000226689
0.000341787
0.00013595
-0.000152826
-0.000271233
0.000288109
-9.39614e-05
5.44064e-05
0.000146119
-0.00020279
5.06462e-05
0.000587615
-0.000435471
0.000783859
-0.000679794
-0.000188772
8.47071e-05
-0.00138304
-3.44378e-05
0.000246118
0.000288868
-0.000360303
6.73628e-05
4.07238e-06
0.00023638
1.48883e-05
-4.69625e-05
-0.000204306
0.000730162
-0.00023264
-4.08028e-05
-0.00045672
-0.000344222
-0.000248945
3.98836e-05
0.000553283
-8.44794e-05
5.72236e-05
0.00124048
-0.00121323
-0.000106299
1.69204e-05
8.93782e-05
8.12269e-05
-8.01433e-05
-0.000106593
0.000105509
-0.000271551
4.6642e-05
-3.78758e-05
0.000262785
7.12184e-05
-7.38534e-05
-3.9459e-05
4.20939e-05
-7.50283e-05
0.000114518
-0.000219153
0.000179664
-4.11318e-06
4.68676e-05
8.20674e-05
-0.000124822
4.88876e-05
-4.34448e-05
8.33164e-05
-8.87591e-05
0.000143589
-5.31548e-05
-0.000224322
0.000133888
0.000157726
-0.000161526
7.36225e-05
-6.98233e-05
4.01099e-05
1.98989e-05
-0.00105163
0.000991625
-0.000133291
5.13481e-05
-0.0007836
0.000865543
0.000857466
-0.000860085
6.75597e-05
-6.49406e-05
0.000191567
-0.000290958
-0.000141073
0.000240464
-5.96786e-05
-9.17918e-05
5.68254e-05
9.4645e-05
-0.000115768
7.64629e-06
7.20307e-05
3.6091e-05
0.000153607
-0.0001384
3.8474e-06
-1.90542e-05
6.31348e-05
0.000681267
-0.000381163
-0.000363239
-1.54549e-05
0.000242996
-0.000136677
0.000117374
-7.14375e-05
-6.13912e-05
-7.53459e-05
5.97089e-05
0.00033044
-0.000138318
0.000119936
3.69382e-05
-1.8556e-05
5.16839e-06
4.89735e-05
0.000101198
5.33327e-05
-0.000533388
0.000480056
5.40966e-05
-0.000602607
0.00054851
3.84633e-05
-0.00051524
0.000476776
7.34299e-05
-6.94539e-05
-4.82862e-05
-0.000213803
-2.82129e-05
4.70958e-05
-7.06112e-05
5.17284e-05
-1.23277e-05
2.39326e-05
-0.000935483
0.000923878
-0.000336024
-0.000362062
0.000437545
0.00026054
0.00103209
-0.000441379
-0.000788496
0.000197784
-0.000647583
0.00114916
-0.000861826
0.000360249
1.67299e-05
-3.85693e-05
5.1393e-05
2.72185e-05
-0.000133671
0.000114722
-0.000617282
-6.89478e-05
0.0002992
0.00038703
2.41579e-06
-0.000294168
1.6723e-05
-0.000102421
0.000278135
6.00889e-05
-1.40306e-05
9.5391e-05
-9.14763e-06
-7.22128e-05
-5.37318e-05
2.87853e-05
2.49465e-05
-0.000312939
0.000350031
-3.70917e-05
0.000415229
-0.000269862
-0.000267087
0.00010654
-0.000382206
0.000334924
-5.92572e-05
1.22585e-05
-6.41381e-05
-0.000575855
3.41493e-05
-5.81172e-05
0.000599823
-0.000290389
-9.41907e-06
2.34564e-05
0.000276351
-8.89364e-05
-5.26206e-05
0.000113264
2.8293e-05
8.01092e-05
0.0001349
-0.000179844
-3.51659e-05
-0.000282421
0.000461128
0.00032788
3.07142e-05
-0.00106689
0.00109336
-5.71786e-05
2.69795e-05
8.65936e-05
-4.23548e-05
-0.000152201
-0.000190624
9.8742e-05
7.27026e-05
-9.71892e-05
-8.86115e-05
0.000113098
4.38184e-05
-4.91224e-05
-5.51939e-05
6.04979e-05
2.61009e-05
0.000303106
2.46111e-05
-0.000353818
-0.000203928
-0.000128315
7.56435e-05
-0.00032257
-6.08737e-05
0.000280529
0.000102915
-0.000159463
8.42643e-05
0.00023677
0.000126992
-7.99491e-05
1.15355e-05
-0.000528472
0.000301487
0.000438585
-0.000570764
1.19146e-05
0.000562505
-3.65534e-06
-0.000709961
6.4165e-06
0.000724875
-2.13302e-05
1.50803e-06
0.000702845
-0.000682592
-2.17603e-05
-3.65951e-05
0.000563408
-0.000551894
2.50809e-05
-0.000541535
0.00101296
-0.00073589
-3.81519e-05
8.09567e-05
-0.000138468
9.56633e-05
0.000277646
-0.000205554
4.68539e-05
-0.000118946
7.3822e-05
-7.53314e-05
7.80911e-05
-7.65817e-05
-5.10601e-05
5.70894e-05
6.37856e-06
-1.24078e-05
-0.000952074
0.000119059
0.000933788
-0.000100774
-0.000105554
0.000727304
-0.000779907
0.000158158
-0.00020649
0.000122117
0.000366257
-0.000281884
-4.94273e-05
8.26615e-05
-8.0193e-05
4.69589e-05
-0.000194683
-5.09435e-05
0.000707837
-0.00046221
-4.10241e-05
0.000119713
0.000109543
-0.000188232
2.50079e-05
-5.4733e-05
0.000104809
-0.000587096
0.000565826
3.09642e-05
-2.97055e-05
4.97237e-05
0.000323892
-0.000272501
1.17434e-05
4.66485e-05
5.55718e-05
-8.12483e-05
-2.09721e-05
4.07725e-05
-1.67679e-05
0.000319297
-0.000343301
4.22743e-05
-3.58411e-05
3.73852e-05
0.000504504
-0.000323652
-0.000623087
0.000745204
-0.000387985
0.0003278
-0.000137666
5.30211e-05
7.61839e-05
2.9892e-05
2.11552e-05
7.85997e-05
-0.000129647
0.000468118
-0.000742509
-0.000591
5.6111e-05
-1.0156e-05
-7.52756e-05
-0.000425098
0.00047073
0.00100934
-0.00105497
0.00084268
-0.000170412
-4.67492e-05
-0.000625519
7.66611e-06
7.17064e-06
7.444e-06
-0.000418534
0.000270325
0.000521642
-0.000240073
6.55058e-05
-7.15427e-05
0.000293711
-0.000807402
0.000696623
-0.000132382
3.7206e-05
-2.00415e-05
0.000115217
-0.000105768
0.000326531
-0.000488295
0.000267532
-0.0007004
0.000618843
0.000636993
0.000178227
9.73723e-05
3.30994e-05
-4.23643e-05
1.98171e-05
-1.05522e-05
-0.000126356
-0.000312471
0.000232322
-0.000127512
0.000125748
0.000117941
-0.000116178
-0.000106277
-0.000209164
0.000802016
0.00013611
-1.64005e-05
-7.80225e-05
0.000146086
-3.06662e-05
0.000150537
4.78404e-05
-2.70649e-05
-1.14206e-05
9.26475e-05
-3.87375e-05
-2.23273e-07
2.31008e-05
0.000126275
1.75742e-05
-2.57262e-05
0.000216696
-5.00933e-05
-8.47114e-05
1.07357e-05
0.000269393
-3.9952e-05
-0.00023881
-5.0828e-05
-1.40575e-06
-0.000513004
2.84157e-05
8.90236e-06
-0.000282842
-0.0001206
-0.000726931
4.87166e-05
-4.50791e-05
-4.54689e-05
-5.20697e-05
-5.90242e-05
-5.66027e-05
0.000323157
-0.00017671
6.99904e-05
0.000364484
0.000581478
-9.89202e-05
3.76459e-05
-3.75608e-06
-1.98886e-05
1.28797e-05
4.03743e-05
-0.000189528
0.000160494
0.000510524
-0.000536121
2.4713e-05
8.84166e-07
1.27824e-05
-0.000515911
0.000377237
7.55364e-05
-0.000160834
9.74161e-05
1.47627e-05
-0.000159614
-1.16755e-06
0.000146019
0.00027131
0.000460584
0.000111116
0.000134406
-4.64007e-05
-0.000200857
0.000155174
-0.000208507
5.26785e-05
6.54861e-07
-0.000122562
3.46414e-05
0.000108791
-2.08702e-05
0.00022905
-5.58033e-05
-0.000158484
0.000234971
-2.07962e-05
-0.000150831
-6.33431e-05
-8.0032e-06
-7.38838e-05
2.4422e-05
5.7465e-05
0.000427528
-0.000120185
0.000138521
-0.000414421
0.000687865
1.25922e-05
-0.000109488
0.00021303
-0.000154454
0.000179883
-0.000128961
-1.01641e-05
-4.09723e-05
4.49187e-05
6.21763e-06
-8.86437e-05
0.000134031
-9.81657e-05
5.27782e-05
6.18383e-05
0.00011406
-2.07246e-05
-0.000622624
0.00102669
-0.000732348
0.000328279
5.76534e-05
-0.00023113
-5.67874e-05
2.8116e-05
0.000120224
1.66282e-05
1.69189e-05
0.000203674
-3.14094e-05
-0.000994627
0.000879025
3.04601e-05
4.45275e-05
5.68164e-05
-5.0505e-05
-5.08388e-05
-0.000337211
1.27525e-06
0.000166138
0.000169798
1.93653e-05
-0.000466181
-6.89355e-05
0.000380911
0.000395107
-0.000177439
3.37649e-06
-1.89387e-06
3.12423e-05
-3.27249e-05
-3.59727e-05
-1.79977e-06
0.000106759
-6.89862e-05
9.90417e-05
0.000133117
-2.63069e-05
5.44838e-05
5.13795e-05
-5.81427e-05
-4.77207e-05
-2.83543e-05
-7.15641e-06
4.36752e-05
0.00052681
4.35984e-05
0.000260322
0.00119705
0.000139953
-0.0011594
-0.000177605
0.000225181
8.22175e-05
0.000129496
-0.000670687
0.000174821
0.000597789
-0.000101923
-0.000192585
0.000182516
-0.000143046
0.000153115
2.51485e-05
-0.000126118
7.45764e-05
2.63934e-05
5.48328e-05
-0.000100729
5.22542e-05
-6.35767e-06
-0.00020121
0.000691456
4.22093e-05
-0.000532455
-0.00034849
0.000961009
7.37234e-05
-0.000686242
0.000702425
3.11485e-05
9.16356e-05
-0.000825209
-5.65184e-05
8.43032e-06
7.65121e-05
-2.84241e-05
6.56515e-05
0.000144804
-0.00021341
0.000440097
0.00038163
0.000493034
0.00011008
0.000516474
0.000124338
0.000626952
0.000129357
0.000651227
-7.42929e-06
-1.28114e-05
4.32756e-06
1.59132e-05
-0.000277983
4.56719e-05
2.38044e-05
-0.000390651
0.000448304
3.80737e-05
-9.95766e-06
0.00027842
-0.000261502
4.67886e-05
1.52652e-05
-2.11618e-05
1.88365e-05
-0.000142811
0.000143368
-1.93934e-05
-3.29605e-05
-0.000107561
0.000134163
6.35806e-06
1.96728e-05
0.00063487
-0.000423553
0.000963686
6.15965e-05
-0.00101147
-1.38163e-05
-0.000347307
0.000351973
0.000410563
0.000131814
-0.000260192
-7.38096e-05
0.000202188
-9.28282e-05
-2.37835e-05
5.35746e-05
-5.59172e-05
0.000121656
0.000250468
-8.82327e-05
-8.15258e-06
4.05045e-05
-0.000950562
0.00092253
-0.000397066
-0.000160311
2.434e-07
4.20293e-05
9.95527e-05
-3.57288e-05
-0.000105853
-8.14646e-05
0.000692984
2.09206e-05
-0.00063244
-9.09436e-05
0.000737912
2.15073e-05
-0.000668475
3.59042e-05
-2.13475e-05
-3.21498e-05
1.75932e-05
0.000244772
-4.13863e-05
-5.1692e-05
-0.000151694
3.2926e-05
-0.00013883
0.000176391
-7.04876e-05
-5.25676e-05
4.1147e-05
-0.000107556
0.000136578
-4.77707e-05
1.87483e-05
-0.000278018
-5.27512e-05
0.000195857
0.000134912
-9.07551e-05
0.000110416
-4.4755e-05
2.50943e-05
0.000681554
1.44637e-05
-1.15157e-05
-0.000684502
-1.16314e-05
3.12098e-05
-3.3609e-05
0.000496035
-2.40535e-05
3.01654e-05
-0.000502147
0.000222917
-0.000130881
-0.000148364
5.63275e-05
-0.000628534
-2.26843e-05
-6.8479e-05
0.000719698
-0.00053512
-8.93234e-05
1.63749e-05
0.000608069
-6.64691e-05
3.36725e-05
6.65804e-05
-3.37838e-05
-0.000138185
5.11232e-05
0.000126174
-3.91127e-05
-0.000213782
-6.51971e-05
0.000219919
5.90597e-05
-0.000402073
0.000274238
0.000187544
0.000768257
8.0087e-05
-3.86366e-05
5.74146e-05
3.88471e-06
-9.15824e-06
-0.00120869
-0.000123072
0.00116701
0.000164746
0.000605134
0.000231715
-0.000192589
-0.00064426
7.39243e-05
-3.82512e-05
-2.83964e-05
-7.27672e-06
-4.5964e-06
1.02049e-05
-1.6249e-05
1.06404e-05
-1.89247e-05
7.29331e-06
-0.000178902
9.33273e-05
-0.000616083
0.000701658
0.000126701
-0.000108038
3.15117e-05
-5.01741e-05
0.000198725
-0.000196098
4.09095e-05
-4.35367e-05
-0.0001111
0.000291071
-0.000254061
7.409e-05
0.000176681
-0.000143761
-3.02835e-06
0.00109143
-0.000942973
0.000232876
-0.000381329
-0.000339408
-0.000318922
0.00036366
-7.84521e-05
1.06993e-05
-3.42983e-06
7.11827e-05
-0.000144512
-2.45485e-05
3.08752e-05
-0.000322083
0.000227779
-0.000119478
-7.34274e-05
-2.11944e-05
2.81528e-05
-0.000104895
6.28235e-05
0.000110873
-6.8802e-05
7.37095e-05
0.000220556
-0.000232525
-6.17406e-05
8.78046e-06
-9.11755e-06
0.000222337
-0.000414297
0.000489708
0.00111657
-1.67089e-05
2.9045e-05
1.68152e-05
-2.88212e-05
-0.000164269
0.000176275
-5.51667e-05
0.000103883
7.20471e-05
-0.0001169
7.58171e-05
6.54009e-05
-0.000167259
0.000126866
-0.00101952
0.000370171
5.12861e-06
-0.0010731
-0.000646823
6.8535e-05
0.00011486
0.000154634
-0.000220137
-0.000127082
0.000375853
-0.000338921
-3.17481e-05
1.87069e-05
6.08155e-06
9.25933e-05
9.1384e-05
-0.000122139
-3.53098e-05
6.44914e-05
-7.58792e-05
4.66976e-05
-0.000801456
-9.1773e-05
0.000222542
0.000338681
-0.000289754
-0.000254328
0.000205402
-0.000142806
-0.000971283
6.39991e-05
0.00105009
-6.83077e-05
-0.000999388
0.00102727
4.04255e-05
9.35252e-05
-0.000110789
-0.000109092
-0.000367759
-0.000423815
0.000444266
9.48148e-05
7.30461e-05
-0.000107355
-6.05062e-05
3.58534e-05
2.36884e-05
-2.47479e-05
-3.47939e-05
-0.000795358
-0.000280314
-0.000169476
-3.94704e-05
-2.36612e-05
0.000232608
0.000105106
-1.54339e-05
-0.000103636
1.39637e-05
0.000237144
-7.78142e-05
-8.83463e-06
3.31414e-05
1.79675e-05
7.30981e-05
-0.000131197
-3.05445e-05
-1.3501e-05
-1.15795e-05
4.42674e-05
-1.91869e-05
9.18902e-05
4.05382e-05
-1.9002e-05
-0.000113426
5.99098e-05
0.000749856
-3.95309e-05
-0.000770235
7.25777e-05
0.000680419
-4.47594e-05
-0.000708237
3.32178e-05
-2.91515e-05
-1.75673e-05
3.10764e-05
-0.00107627
0.00107652
-3.13277e-05
0.000256054
-0.00150006
4.15071e-05
0.0012025
7.86035e-05
5.81282e-05
-6.107e-05
-7.56616e-05
0.000142075
9.65083e-06
-2.89223e-05
-0.000122803
0.00022449
-0.000415615
0.000292268
0.000765694
-0.00057344
-0.000733789
1.07182e-06
2.34038e-05
6.73726e-06
-3.12128e-05
-0.000100898
0.000102628
-3.67949e-06
1.94983e-06
-3.14149e-05
3.7212e-05
-2.8011e-05
2.22139e-05
-0.000724165
0.000232768
0.000470946
2.04516e-05
9.01544e-05
-1.06569e-05
3.65776e-05
-0.000116075
0.000103213
-2.67325e-05
3.33361e-05
-0.000109817
0.000273801
2.82303e-05
1.10435e-05
-0.000313075
-3.23239e-05
0.000113063
-8.07388e-05
0.000311046
-0.00126368
4.76864e-05
-4.76232e-05
-0.000104765
0.000104702
-3.38394e-05
0.000217591
4.52982e-05
-0.000125915
0.00017245
5.97347e-05
-0.000106269
0.0010361
-0.00145866
0.000182977
0.000239583
0.000459883
7.48082e-06
1.30637e-05
-0.000480427
-6.41925e-06
-3.9211e-06
6.7755e-05
8.79907e-05
8.38072e-05
-0.000936358
0.00076456
-3.13907e-05
-8.15137e-05
0.000118337
-5.43303e-06
8.43729e-06
0.000169673
-0.000222845
4.47346e-05
-1.23195e-05
-7.55204e-05
9.80905e-05
-1.02506e-05
0.00111901
-0.000725465
-0.000109457
0.000176677
-0.000194732
2.30987e-05
6.30426e-05
-5.3042e-05
0.000836889
-0.000572554
5.20285e-05
-0.000316364
0.000177953
0.000530407
-0.000104223
7.84542e-05
-5.46672e-05
-1.91738e-05
-0.000114601
2.42586e-05
0.000109516
0.000746279
-0.000208397
-0.000538788
9.06102e-07
1.30444e-05
-2.35497e-05
3.54889e-05
-2.49836e-05
-3.38466e-05
-1.3992e-05
3.08139e-05
2.98266e-05
1.13833e-07
0.000103354
-4.64972e-07
-0.000103003
6.0987e-05
0.000157617
5.15705e-06
-1.34242e-05
0.000282068
1.28309e-05
-1.06947e-05
0.000101077
1.25406e-05
-3.33973e-06
8.09535e-05
0.000303886
-0.00032652
4.64366e-05
-2.38026e-05
0.00115836
-0.00114109
-0.000291944
9.49774e-07
-0.000615891
0.00019022
0.00053221
-3.29783e-05
5.12019e-05
-4.89913e-05
0.000661187
-1.79986e-05
0.000475819
-4.49343e-05
3.53338e-05
3.75128e-05
6.39768e-06
-3.42376e-05
-7.54933e-05
0.000103333
3.20312e-05
2.10334e-05
-4.91502e-05
-3.9144e-06
5.61209e-05
-7.52948e-05
6.151e-05
-0.000102761
8.868e-05
-4.74295e-05
0.000712843
0.000100858
-4.54443e-05
0.000177068
0.000165174
-0.000255973
0.000219378
-0.000494923
0.000496431
-0.00044968
0.000344126
-0.00112559
0.00112819
9.60623e-05
-9.8662e-05
0.000312736
0.000516887
-0.000335934
-0.000387221
-6.65983e-06
8.42246e-05
-0.000242939
-0.000123013
0.000488317
-0.000756722
-0.000141235
0.00040964
-0.000935535
0.000437627
-0.00014163
0.000639538
-3.12324e-05
0.000107992
-0.000342734
0.000265975
-1.15817e-05
-6.89952e-05
-0.00111136
0.00119193
8.4489e-05
-0.000374576
0.000757783
0.000179494
-0.000809842
-0.000127435
-2.90152e-06
2.15699e-07
4.94744e-05
0.000768498
-0.000701567
6.2426e-05
0.000735464
-0.000800561
0.000189435
0.000531287
-0.000494715
7.3508e-05
6.13034e-06
0.000105771
-6.79549e-06
-0.000134371
1.84461e-06
0.00013264
6.42825e-05
-0.000100026
8.92564e-05
-5.3513e-05
0.000629515
-0.000532021
-4.61806e-05
-5.13132e-05
0.000786031
-0.000664478
-3.48732e-05
-8.66799e-05
0.000108236
0.0015211
-0.00119295
-0.000436385
-5.22631e-07
-8.06122e-07
4.87173e-05
-4.73886e-05
-0.000989299
-0.000636901
0.00105251
0.000573689
-2.31441e-06
-2.02869e-05
-6.08113e-05
8.34126e-05
-4.09545e-05
6.69832e-05
9.42092e-05
-0.000120238
3.96002e-05
-6.71239e-05
-4.75284e-05
7.50521e-05
0.000118127
-4.4278e-05
0.000638993
0.000680304
-0.000955026
0.000397376
0.000580817
-0.000794851
0.00032664
-3.25183e-05
8.68853e-05
-7.10747e-06
1.39199e-05
4.12948e-05
-4.81073e-05
0.000656591
-7.68265e-05
0.000147539
-7.83678e-05
2.7912e-05
-1.21507e-05
0.000151175
6.53304e-05
-0.00011013
-0.000106376
0.000103134
0.000903794
-0.000775213
-0.00027917
-0.000391753
0.0003349
0.000848011
-0.000803155
-0.000248337
0.000203481
-7.93044e-05
0.000196601
6.52187e-05
0.000207206
6.50723e-06
0.00011657
9.48272e-05
-4.66342e-05
2.57181e-05
-3.78987e-05
9.3909e-05
0.000527073
-0.000636501
0.000109428
-0.000394511
0.000282131
-0.00124256
0.00135494
-0.000255196
0.000216471
0.000377756
-0.000339031
0.000117824
3.3056e-05
-6.09561e-05
-8.99235e-05
-0.000435222
-2.8532e-05
0.000597515
-0.000133761
0.000215566
-0.000184582
-0.000382478
-6.01757e-06
-9.32e-07
3.19349e-06
0.000113942
-8.49607e-05
8.88426e-05
1.57813e-06
-0.000102131
-3.46021e-07
0.00014716
-4.56389e-05
-0.000227162
0.00012564
0.000157375
-0.00025394
0.00030245
-0.000205885
3.78799e-05
2.84343e-05
8.72927e-05
-9.2601e-05
8.31445e-06
9.95517e-05
2.45555e-05
-4.76073e-05
6.43939e-05
-4.13421e-05
-1.57808e-05
-8.80154e-05
0.000117788
-1.39914e-05
4.02002e-05
-7.14421e-06
0.00010334
-9.10034e-05
6.62672e-05
4.7843e-05
-1.17493e-05
0.000105981
9.91913e-05
-0.000136409
-6.76777e-05
-0.00069446
-0.000352668
0.000818629
0.0002285
0.000821018
-0.00103854
0.000354953
-0.000137433
-3.22959e-06
-0.000258055
0.000267228
-5.94351e-06
-6.59605e-05
0.000352825
-0.00040736
0.000120496
0.000130279
-0.000174624
9.57389e-05
-5.13938e-05
-0.00130957
0.00115062
-0.000243316
0.000402258
0.000375676
-0.000321402
-0.00012853
7.42559e-05
1.6209e-05
0.000792464
-0.00078998
-1.8694e-05
-0.000338394
1.95611e-05
0.000138831
-0.000528486
0.000503824
-0.000114169
0.000186684
-0.000722867
0.000725209
-0.000189026
-0.000106918
-0.000738052
0.00084497
0.000108244
-3.89936e-05
0.00011698
-0.000186231
2.16382e-06
-5.21696e-06
-4.9921e-07
3.55234e-06
-4.77555e-05
4.50587e-05
5.36401e-08
2.64316e-06
-2.63558e-05
8.6807e-06
-1.37398e-05
3.77165e-05
-0.000125552
0.000135522
-0.000122526
-1.67288e-05
8.90947e-05
5.01604e-05
-0.000210804
2.6328e-05
0.000137216
4.72599e-05
-2.53403e-05
-1.12115e-07
0.000351743
-0.00032629
0.00109272
-0.00111585
-6.36114e-05
8.67418e-05
-0.000239812
5.03484e-05
0.000255151
-1.29722e-05
-0.000242179
2.78988e-05
-0.000174473
1.22388e-05
0.000134335
4.52488e-05
2.72659e-05
-3.27139e-05
-3.98008e-05
7.06809e-06
-4.38355e-05
9.95909e-05
1.81447e-05
-2.75275e-06
-8.88193e-05
-7.51508e-05
3.68021e-05
-0.000283735
1.70234e-05
-2.71764e-08
-0.000161508
0.000725068
5.52895e-05
-7.75129e-05
0.000576279
2.80781e-05
-4.09493e-05
-0.000561874
6.29527e-06
-1.51852e-05
-0.000626018
-3.64121e-05
-4.75317e-05
-0.000349367
-0.000182455
0.000209252
-0.000969041
-0.000168588
0.000277544
3.88253e-05
4.09065e-05
-2.5248e-05
-0.000104266
-0.00117304
0.00119283
-2.96281e-05
2.57417e-05
-4.98454e-05
-0.00013548
-3.81549e-05
-0.000139304
0.000776994
-0.000219422
-0.000648515
0.000661761
-0.000177964
-0.000565261
4.61905e-05
1.98973e-06
-0.000255949
0.000207768
-3.59846e-05
0.00083965
4.43457e-05
6.87512e-05
-7.00156e-05
-3.3724e-05
3.49884e-05
5.78612e-06
6.40898e-06
-7.40354e-05
6.18403e-05
4.1199e-05
-3.1983e-05
2.75346e-06
4.22293e-05
5.58844e-05
-0.000376097
-7.52193e-05
-1.37211e-05
5.45034e-05
3.44371e-05
0.00035353
1.65994e-05
-3.76561e-06
-0.000366364
-0.00032166
-7.52861e-05
5.85525e-05
-0.000437969
0.000343861
0.000387819
9.81886e-05
6.35448e-05
-6.91401e-05
-3.39876e-05
-6.34622e-05
4.83275e-05
2.2784e-05
9.85247e-06
-2.89038e-05
-3.73264e-06
-0.000293013
1.96112e-05
0.000270718
2.68458e-06
0.000289792
0.000348732
-0.000563277
-7.52468e-05
0.000213785
-0.000591712
-0.000316533
0.000506352
0.000387243
-0.000730307
-0.000163287
4.27548e-05
-3.1313e-05
1.32354e-05
-2.46773e-05
0.000113485
0.00015777
-0.00099542
3.20956e-05
-1.23543e-05
-2.57589e-05
0.000108882
8.91772e-06
-0.000100777
3.46823e-05
2.56569e-05
-4.21946e-05
0.000896596
-2.30544e-05
-0.000763989
-0.000109552
0.000359037
0.000100353
-8.24655e-05
-0.000208492
-2.06916e-05
0.000133754
-0.000100936
0.00109727
0.000152824
-1.93819e-05
0.000282418
4.08497e-05
-0.000390029
0.000315219
0.000505385
-0.000430574
0.000225718
-0.000179575
0.000359804
-0.000405946
9.54032e-05
-0.0002012
-6.45057e-05
0.000170303
-0.000190484
0.000159093
7.41091e-05
-4.27173e-05
-0.000244543
4.80503e-05
4.25515e-05
0.000153941
-0.00109362
0.00108851
8.89169e-05
-0.000693368
0.00044804
-0.000737698
0.000615516
-0.000430606
-0.000243446
0.000236084
0.00010655
-3.63675e-05
0.000858253
-0.00102539
-0.000261835
0.000428969
-0.000224325
-0.000985224
0.00118568
2.3865e-05
-0.00107938
0.00110525
-0.000130136
-0.000488061
0.000432725
0.000357411
-0.000302076
-0.000287424
0.000290151
1.37452e-05
-1.64719e-05
-0.000124443
-4.52995e-05
3.13427e-05
-0.000736322
0.000798811
-0.000415157
0.00014922
-1.09975e-05
6.0875e-05
5.06251e-05
-4.25537e-05
-6.89464e-05
-0.000241041
0.000217661
-1.66719e-05
2.00942e-05
3.5403e-05
-0.000909369
0.000872214
-0.000274073
0.000311228
0.00126612
7.62039e-05