/*--------------------------------*- C++ -*----------------------------------*\
| =========                 |                                                 |
| \\      /  F ield         | OpenFOAM: The Open Source CFD Toolbox           |
|  \\    /   O peration     | Version:  v1912                                 |
|   \\  /    A nd           | Website:  www.openfoam.com                      |
|    \\/     M anipulation  |                                                 |
\*---------------------------------------------------------------------------*/
FoamFile
{
    version     2.0;
    format      ascii;
    class       volVectorField;
    location    "0.74";
    object      U;
}
// * * * * * * * * * * * * * * * * * * * * * * * * * * * * * * * * * * * * * //

dimensions      [0 1 -1 0 0 0 0];


internalField   nonuniform List<vector> 
5794
(
(0.0723701 -0.377882 -3.36699e-17)
(-0.150911 0.699428 0)
(-0.103191 -1.15056 -1.33511e-16)
(0.091454 2.70328 1.11815e-16)
(1.92233 1.80319 2.68177e-17)
(0.145364 -0.899345 -1.29379e-16)
(1.17502 -0.218936 -2.25747e-16)
(-0.173416 -0.192116 0)
(5.96524 0.893101 9.79402e-17)
(0.748062 -0.1862 2.24675e-16)
(4.7031 -0.111986 -3.45299e-19)
(-2.30455 -0.155318 0)
(-2.16744 -0.316123 5.20651e-16)
(0.729604 6.29095 1.86933e-16)
(0.563686 0.141722 5.16524e-16)
(-0.87247 -0.0356075 -1.56641e-16)
(1.31441 0.0457558 4.70427e-17)
(0.020261 6.56769 1.27593e-16)
(0.410418 0.106199 4.92638e-16)
(-0.0171944 1.07357 1.55548e-16)
(-2.948 1.81996 -4.65973e-17)
(-0.0449561 -0.665035 -1.66068e-16)
(2.39606 -0.133824 2.80211e-16)
(0.927275 -0.145478 -6.23259e-16)
(1.69552 0.224848 -4.16592e-16)
(2.85785 10.6157 2.10656e-17)
(5.96479 -0.51189 0)
(-0.228682 2.00082 -1.44241e-16)
(-0.0684768 9.41146 -3.70934e-17)
(0.472455 -0.140558 2.99463e-16)
(-0.626926 -0.826671 -6.42593e-16)
(-1.79167 0.0364959 -5.17828e-16)
(-2.12781 0.114905 -8.96016e-16)
(-0.416383 -0.37195 4.45521e-16)
(-1.21999 0.196869 -2.02418e-16)
(-0.660625 0.096843 2.19226e-16)
(9.78566 0.593165 -2.16778e-16)
(2.46746 -0.412603 0)
(2.67428 -0.432557 1.38858e-16)
(-0.00394245 3.35737 0)
(-0.340628 3.12516 -1.00465e-16)
(-0.400726 1.67035 1.45366e-16)
(7.43578 0.113118 -8.92299e-19)
(0.430557 2.91795 0)
(0.655694 0.142721 -4.5382e-16)
(4.92516 -0.168395 1.32402e-16)
(4.02104 -0.146886 -2.42963e-16)
(-1.96674 -0.456284 0)
(0.257615 -0.0504978 8.72433e-16)
(0.993642 -0.182577 6.63268e-17)
(-0.251999 -0.0797618 -1.72655e-16)
(6.20542 -0.204577 -1.75427e-16)
(-0.586021 0.220412 0)
(0.384382 0.124983 1.75757e-16)
(-0.0566996 -0.0528198 1.07991e-17)
(5.18288 -0.498406 0)
(4.23161 -0.307058 -1.9365e-16)
(-2.24363 0.0292883 1.40844e-16)
(8.44185 0.0669792 0)
(4.30182 9.95918 -7.16213e-19)
(9.15703 0.475186 1.89899e-18)
(0.458929 1.23221 -1.20252e-16)
(-0.221424 -1.48005 -1.4775e-16)
(-0.885907 -0.0172469 2.12761e-16)
(-1.21335 0.140037 0)
(1.08137 0.146763 -2.61649e-18)
(0.223059 0.634001 -2.48039e-16)
(-0.163715 3.75689 0)
(0.201817 4.56873 -1.51284e-16)
(0.00477099 0.516744 -3.55554e-21)
(4.80899 -0.472194 1.36121e-16)
(0.370193 2.09378 -3.13235e-16)
(11.5446 2.02355 -3.45704e-18)
(1.8619 0.476182 0)
(0.0847809 5.83788 1.32527e-16)
(-0.0554348 0.943282 4.33418e-20)
(0.723359 -0.212138 1.31307e-16)
(1.57044 10.4309 -2.17921e-17)
(0.610785 2.95055 3.61199e-17)
(-0.492411 0.0154752 7.49222e-17)
(0.0898888 -0.853344 -1.95104e-17)
(-0.0558641 0.575246 -1.72106e-16)
(-0.363994 1.98995 8.49587e-20)
(1.65826 -1.46094 -9.3855e-17)
(1.7399 -1.37422 -3.6079e-16)
(-0.140008 4.95331 -4.30066e-17)
(0.226344 5.74905 3.23209e-17)
(0.0396167 5.26272 -2.49712e-17)
(0.934443 0.100059 -1.65189e-16)
(1.58674 0.703275 -4.93182e-17)
(0.906782 5.58692 -7.97431e-17)
(0.077516 6.3955 -8.87545e-17)
(-0.106575 7.47219 1.33032e-16)
(0.119749 7.68185 5.71597e-17)
(-0.0348099 6.13828 3.51347e-17)
(-2.15475 0.0538387 5.26503e-18)
(0.013094 6.19221 -5.56526e-17)
(-0.136952 7.1918 -1.44178e-17)
(-0.0107482 6.37648 0)
(8.8809 0.525053 -3.07324e-17)
(1.68371 3.18601 -1.24995e-16)
(-1.10603 0.173797 -4.25763e-16)
(8.33263 0.145432 7.27508e-17)
(0.653368 5.41753 -2.48653e-16)
(0.81493 0.26253 0)
(-0.590538 5.98706 0)
(0.0828158 1.22591 0)
(-0.268548 0.0696694 -2.79009e-16)
(-1.37431 0.572056 -1.21324e-16)
(0.790373 2.83346 -9.97891e-17)
(0.107244 -0.103943 2.60025e-20)
(0.227903 -0.0219862 0)
(-1.54374 4.65879 1.16834e-16)
(-0.0276717 0.0127935 1.63031e-16)
(0.0179594 6.00003 0)
(-0.119601 7.82175 0)
(0.208161 0.100969 -3.76929e-16)
(-0.5417 8.27652 -9.41796e-20)
(9.40403 0.426378 -2.36919e-20)
(10.8521 0.590275 6.08003e-18)
(-0.70069 7.98225 1.07479e-16)
(1.02048 -0.027801 0)
(-1.50619 0.0498311 0)
(-0.147552 1.39322 -1.90374e-16)
(0.586129 0.0542956 2.38329e-16)
(4.76355 2.36807 5.04341e-17)
(0.942859 5.31376 0)
(-0.0289715 -1.18749 7.86302e-17)
(6.44917 -0.569922 1.15535e-16)
(-0.437912 -0.048726 1.68125e-16)
(-0.585715 -1.00349 3.25802e-16)
(-0.0769577 -0.910638 2.19132e-16)
(0.380272 1.24841 2.27142e-17)
(1.11116 10.0807 -6.61732e-17)
(-0.616151 6.8083 1.34665e-16)
(0.65354 0.150088 0)
(4.3391 -0.200248 9.23653e-17)
(0.589826 1.16126 -1.77844e-16)
(-0.971025 -0.163659 1.6838e-16)
(0.0936311 -0.265686 0)
(1.70117 -0.60852 -4.75283e-16)
(0.733941 2.52773 0)
(0.557915 0.0364902 0)
(0.562177 2.89036 2.58526e-16)
(-0.995742 -0.150336 1.73111e-16)
(1.97632 -0.121011 1.53647e-17)
(-0.860702 0.821472 2.37748e-16)
(7.77486 0.283645 2.33751e-16)
(1.42438 1.09706 -1.9635e-18)
(0.211247 1.11188 4.24741e-16)
(7.28153 -0.179325 -1.73544e-16)
(0.843617 0.14927 3.08122e-16)
(-0.582598 6.17715 0)
(-1.13469 0.438072 1.93568e-16)
(4.04976 -0.692773 0)
(4.41955 0.12632 0)
(1.63508 -0.627704 -2.66438e-16)
(1.03989 -0.196748 4.16112e-16)
(5.31205 0.182261 -2.62529e-16)
(1.54715 -0.591592 -1.3482e-16)
(0.208834 -0.00289614 4.34637e-16)
(-1.2685 -0.212327 -3.72557e-16)
(-0.386097 -0.0434305 0)
(-1.0727 -0.0868701 -1.50462e-16)
(-2.94538 0.0237255 -2.99285e-16)
(-3.09823 -0.0778875 1.62686e-16)
(-0.600135 -0.190092 1.38925e-18)
(-0.088403 -0.291124 -4.39076e-18)
(0.00756792 -0.0728566 0)
(0.100329 -0.00760778 1.06005e-18)
(0.378335 0.107399 0)
(-1.83566 0.408614 -1.14424e-16)
(-0.890571 0.157735 0)
(-1.19494 0.341887 1.02382e-16)
(-0.920732 -0.147669 4.30595e-16)
(2.15259 -0.0501486 0)
(0.0691482 0.0598337 -2.66456e-16)
(1.70915 0.0115048 -2.41448e-16)
(0.425175 -0.151325 -9.4008e-17)
(6.37347 0.128479 6.69457e-18)
(0.631426 -0.26393 -5.85848e-18)
(-1.22391 -0.312324 0)
(1.46379 -0.1553 0)
(-1.88407 -0.326046 1.24727e-16)
(1.13371 -0.269881 0)
(-0.168436 -0.778946 6.76407e-17)
(-1.30343 0.150607 -1.50565e-16)
(-1.22689 0.297619 -1.00719e-16)
(0.38001 -0.084854 1.42236e-16)
(-1.0593 0.0676267 3.47079e-16)
(4.60647 -0.0716723 -3.42868e-16)
(-1.88891 -0.108147 3.82865e-16)
(-2.27147 -0.0853711 5.96857e-16)
(-0.0616636 -0.338888 6.40012e-16)
(-0.536814 -0.395464 -1.02229e-16)
(-1.19326 -0.572594 -4.96772e-16)
(0.531352 -0.338497 -2.34762e-17)
(-0.121665 -0.0522494 -1.99044e-16)
(0.395518 0.0360443 -3.17886e-16)
(6.45559 -0.0459843 1.21392e-16)
(1.69631 -0.159531 -2.10717e-17)
(6.07903 0.022749 0)
(-0.988588 -0.507409 0)
(-0.160423 -0.317583 1.12551e-17)
(3.97593 0.00466642 -5.81315e-17)
(4.85778 0.0231589 0)
(-0.34347 -0.185441 1.23474e-17)
(0.354366 -0.00156041 2.09421e-19)
(4.73781 1.08226 -5.95756e-18)
(2.02693 8.65846 1.24157e-16)
(0.491515 0.727148 1.22053e-16)
(9.76769 -0.010386 0)
(-0.682043 -0.196414 -1.19098e-16)
(-0.882904 -0.729843 1.76265e-16)
(0.411513 -0.474238 0)
(0.809672 0.364749 7.83286e-16)
(0.734156 0.0627722 -1.86205e-16)
(1.31488 1.67172 9.37095e-17)
(4.10026 -0.201514 1.33301e-16)
(1.38766 5.64907 -1.73007e-16)
(9.68576 -0.00582369 0)
(1.833 0.412219 2.22504e-16)
(-0.349332 1.99224 0)
(-0.152205 5.33964 2.69967e-17)
(5.19699 0.122078 1.31256e-16)
(11.4592 0.706502 2.08745e-18)
(-0.602173 -0.268119 -7.52899e-17)
(1.02066 -0.175693 -1.15422e-16)
(-0.100537 -0.0989869 0)
(0.541481 0.127582 -3.21352e-16)
(-0.843871 0.301569 0)
(-1.20366 0.575011 -6.70613e-17)
(-0.94051 0.0350477 -1.07348e-16)
(-1.03757 0.719093 1.51838e-16)
(1.87517 0.394071 1.66628e-16)
(9.91319 0.179721 5.59372e-18)
(7.7059 0.944318 1.91919e-18)
(7.32151 0.520371 2.86231e-17)
(-2.12638 -0.0268752 -1.56669e-16)
(0.56878 -0.727601 -4.12273e-16)
(-0.307804 0.308552 0)
(1.18755 0.86199 1.17355e-15)
(1.45078 4.56301 2.19259e-16)
(-0.705063 0.696616 -2.70402e-16)
(-1.53495 1.12847 2.62237e-16)
(0.159426 -0.133643 3.23431e-16)
(0.715759 0.127591 -1.56218e-16)
(1.19435 0.73319 9.17407e-18)
(-0.118263 5.96488 0)
(-0.0385918 5.70719 0)
(-0.0167546 4.95743 0)
(0.954329 0.108904 2.79676e-17)
(2.75004 -0.622304 -7.1414e-17)
(-0.322097 -0.0605907 6.20172e-20)
(7.32475 1.18041 -5.73119e-17)
(4.5695 2.34445 -9.57192e-18)
(8.2474 0.216877 -1.4951e-16)
(9.03615 0.522007 1.58151e-16)
(0.0839792 -0.308077 2.94112e-16)
(0.487253 0.0467291 0)
(6.01015 -0.0532851 -1.11699e-16)
(-0.590007 -0.282134 1.02738e-16)
(-0.495004 -0.842891 -1.031e-16)
(1.09478 -0.0731179 0)
(-1.8374 -0.0953202 0)
(-1.35825 -0.169877 -6.26167e-19)
(0.209837 1.76417 1.48853e-16)
(3.8035 0.785648 0)
(0.297697 0.00910645 -7.67954e-16)
(4.43876 0.0158576 -1.23328e-16)
(3.70163 -0.015936 0)
(0.0094538 -0.912105 -2.94129e-16)
(0.439362 1.04642 -5.30272e-16)
(5.0516 -0.32016 -1.64324e-16)
(9.53169 0.0897549 3.62928e-17)
(0.308865 0.0841749 3.35309e-16)
(0.423565 0.0780178 -1.86667e-16)
(1.95761 -0.441093 -8.04523e-17)
(0.594213 0.341592 -1.89742e-16)
(-1.47228 0.9095 -2.53709e-16)
(-0.189901 -0.102708 4.13467e-16)
(0.93114 3.35372 2.55981e-16)
(-0.34662 3.60819 1.00294e-16)
(-0.358735 1.31123 -4.15449e-16)
(0.171243 4.6427 4.90316e-17)
(-0.139531 5.29854 1.1329e-16)
(0.0650955 5.77129 1.30799e-17)
(-0.028131 5.71876 0)
(0.638408 5.9337 4.07229e-17)
(-0.67753 8.03318 0)
(-0.505606 0.26451 -1.82909e-17)
(-0.977264 0.63233 -1.35668e-16)
(-0.454729 -0.288355 2.46754e-18)
(0.753431 0.0344893 0)
(8.09918 1.69726 0)
(1.29899 7.46126 6.91755e-18)
(-0.185139 2.84467 6.60256e-17)
(-0.511663 0.762328 -2.30986e-19)
(0.140168 4.11908 -2.17785e-16)
(0.915713 -0.096306 -1.73502e-16)
(0.0290351 0.301432 1.2979e-16)
(-0.505743 6.23572 0)
(0.018582 -0.759962 -7.87102e-16)
(0.682214 1.89818 0)
(1.09501 1.23859 -1.52626e-16)
(3.60108 0.266754 1.63558e-18)
(0.584032 0.325919 -2.65291e-16)
(0.286436 3.02369 2.90627e-16)
(5.08806 0.106038 2.4329e-16)
(4.22294 0.0647598 0)
(0.464096 -0.415146 -6.62104e-16)
(-0.163405 0.493009 -3.0543e-16)
(1.39939 7.483 -1.38734e-16)
(-0.00529031 -0.0547889 -9.15484e-17)
(10.5986 0.118852 0)
(10.0314 0.298848 -1.81218e-17)
(-0.0422293 0.061149 -9.96686e-17)
(-0.290838 2.79115 -2.68825e-16)
(-2.04593 0.378837 -2.17241e-16)
(0.0487142 7.04839 -4.14275e-17)
(-0.444509 -0.263242 4.48466e-16)
(0.491817 -0.507922 -2.13048e-16)
(-0.435003 7.12578 -8.17822e-17)
(1.7984 1.35321 -8.64216e-19)
(-0.867318 0.0124864 0)
(1.40607 -0.623153 0)
(1.50287 0.269816 0)
(-1.94824 -0.354391 6.54058e-17)
(-1.45655 -0.278247 -3.4576e-16)
(4.47438 -0.131535 3.00543e-16)
(6.44727 -0.0165257 -6.94049e-18)
(6.62411 -0.124814 3.03596e-16)
(-1.12651 -0.392481 9.02046e-17)
(-1.82988 0.254306 4.94423e-16)
(-1.6904 0.158494 0)
(0.587454 -0.127099 -2.518e-16)
(1.14634 -0.087708 0)
(-0.167589 -0.0770938 0)
(0.244497 -0.0434837 -3.48493e-16)
(-0.606635 0.0192724 0)
(0.718713 -0.209287 4.39978e-16)
(1.74296 0.063707 4.14312e-16)
(6.50688 0.415919 0)
(2.36169 -0.138407 0)
(0.0180884 -0.036371 4.51994e-16)
(1.54426 -0.014618 3.6453e-16)
(-1.08203 -0.525082 3.2473e-16)
(-0.329075 -0.368682 -2.44024e-17)
(-3.05199 -0.122242 -1.21388e-16)
(2.6719 0.0442907 6.98824e-17)
(3.11375 0.0758828 6.34565e-17)
(0.326521 0.115976 2.42533e-16)
(-2.35625 -0.164235 -2.25433e-17)
(-1.79281 -0.205084 1.54843e-16)
(0.87248 -0.333229 0)
(-1.12029 -0.568775 0)
(0.484498 0.0260193 1.88908e-16)
(5.55018 -0.411976 1.67588e-16)
(1.30534 -0.116836 7.67233e-17)
(-0.0569449 -0.16489 0)
(0.219063 0.0215889 -2.75477e-16)
(1.53232 -0.341243 4.61481e-16)
(4.75593 -0.0822175 3.64888e-17)
(1.15919 -0.510821 -3.87561e-17)
(0.0830046 -0.489178 -3.18762e-16)
(0.260272 0.199228 5.18437e-16)
(-3.20264 0.000390422 -3.76191e-17)
(4.35383 -0.338464 0)
(3.55009 -0.258867 3.31967e-16)
(-2.21262 -0.00501688 -8.6324e-17)
(0.360625 0.207031 -1.39013e-16)
(1.12606 0.0433161 0)
(0.461637 0.280236 -1.16591e-16)
(-0.172225 0.509263 3.26102e-16)
(0.54105 0.063853 8.96711e-17)
(-2.76581 0.167196 1.39117e-16)
(3.90983 -0.00935457 0)
(3.30544 0.161347 8.62572e-17)
(-2.15596 0.571057 0)
(0.398958 0.145418 1.48197e-17)
(0.514837 -0.798106 1.4038e-16)
(0.403409 0.185737 0)
(10.784 0.0863862 0)
(-0.892479 -0.00473461 1.59585e-16)
(-1.46625 -0.110994 -5.87374e-16)
(-0.460749 -0.308851 -3.57734e-16)
(-0.367353 9.23994 -2.86192e-17)
(0.0360905 -0.583882 3.13501e-16)
(0.0932955 -0.695551 -1.09099e-15)
(-0.182781 -0.202271 0)
(0.427459 -0.0937683 -8.18503e-16)
(-1.194 0.981659 -7.09604e-19)
(0.0296455 0.616863 -2.60757e-18)
(-0.010732 -0.143125 1.88059e-16)
(-0.619612 0.207183 9.38998e-17)
(-0.617166 0.315052 -9.94396e-17)
(-1.09124 -0.00955539 1.0893e-16)
(-0.00709665 0.719927 0)
(0.594235 0.0698146 0)
(1.99965 -0.0807102 -2.93279e-16)
(0.846901 -0.299618 1.39654e-16)
(1.58445 0.114733 -4.1795e-16)
(9.28174 -0.247113 3.12742e-17)
(0.171295 -0.0495795 2.14094e-16)
(0.17741 -0.0204254 0)
(6.45509 0.964989 4.61451e-17)
(-0.105837 1.40954 1.88099e-20)
(0.105863 -0.737261 2.32765e-16)
(0.215336 1.26613 -3.54642e-17)
(-0.247078 5.803 -6.0931e-17)
(-0.133058 6.97207 2.3086e-17)
(0.143181 6.43171 0)
(0.885566 0.477719 1.74241e-16)
(-0.967162 0.319168 2.76868e-16)
(5.14185 -0.0306505 2.00788e-17)
(4.22852 -0.0488313 7.18804e-17)
(-0.0751926 -0.413234 0)
(0.334552 3.24117 1.83362e-16)
(-2.40131 0.181783 0)
(-0.154054 6.31944 3.84528e-17)
(-0.0314915 6.40852 -6.88834e-17)
(-0.169789 7.21747 3.02856e-17)
(0.0257432 -0.034958 -1.6131e-17)
(0.325011 0.213622 -4.25108e-17)
(-1.05677 -0.0169573 0)
(-1.52669 -0.0587496 0)
(-0.675049 -0.134156 -2.02025e-16)
(-0.0422838 0.0938149 -2.12282e-16)
(-0.0139179 0.950163 -1.39439e-17)
(0.0069245 -0.784639 5.6288e-17)
(3.8723 0.738366 3.10743e-16)
(10.011 0.161356 1.2894e-17)
(0.316548 2.23555 -2.93464e-16)
(0.926478 -3.03869 -2.14175e-17)
(0.641606 0.113225 3.35077e-16)
(-0.0766292 0.058225 0)
(0.225516 -0.409348 1.74037e-16)
(0.29216 -0.428732 -1.03981e-17)
(-1.11106 -0.0546606 -1.03108e-16)
(-1.58474 -0.206172 1.95223e-16)
(-0.490419 -0.172425 2.53763e-16)
(9.95883 0.0967555 -2.5168e-16)
(0.494256 -0.488277 0)
(-0.182575 -0.305912 8.31532e-17)
(2.13169 -0.144369 -2.02855e-18)
(-0.0468385 7.82934 -5.59517e-17)
(0.0184347 6.01225 9.15704e-22)
(-0.886299 -0.0637681 0)
(0.106438 0.193594 2.5564e-16)
(1.19101 0.330826 -8.43119e-17)
(1.24514 -0.0766226 -2.16471e-16)
(-0.0231464 0.965448 -6.85723e-17)
(-2.79122 1.40802 4.71583e-17)
(-0.0898753 -0.798958 -5.47718e-16)
(-0.137618 6.56669 -2.68116e-17)
(1.10091 -0.0812004 -5.07922e-16)
(0.357552 5.28236 -2.2118e-18)
(-1.65607 -0.427185 -2.13618e-16)
(-0.121728 6.20619 -3.39315e-17)
(1.00362 6.62059 8.59673e-17)
(-0.0237388 -0.712231 -1.15317e-16)
(-0.0683777 0.766605 -2.38842e-16)
(-0.488616 0.567065 1.85724e-16)
(0.162031 -0.161083 -4.21004e-16)
(8.53175 0.569004 9.23573e-17)
(-0.439546 -0.0515798 -2.88633e-16)
(10.305 0.333587 -2.09701e-18)
(2.84097 3.29638 5.86498e-17)
(0.568031 0.0630196 -4.44074e-16)
(1.15915 2.48816 -4.79644e-17)
(0.948868 -0.0426288 3.73707e-17)
(6.29053 1.11658 -4.80806e-18)
(1.56471 0.713402 -6.88022e-17)
(0.412849 -0.082953 2.97279e-17)
(0.38253 -0.0999442 -2.18345e-16)
(-1.01496 -1.05696 1.13606e-15)
(8.49394 2.23528 -2.66696e-18)
(-0.306484 2.56085 1.57309e-16)
(1.31456 0.19561 1.90126e-16)
(-0.0781695 0.629103 5.79856e-17)
(-0.994346 0.587106 2.80123e-16)
(-0.109859 -0.761115 0)
(0.700784 -0.199565 -2.09731e-16)
(0.168249 -0.186967 1.355e-17)
(0.0580024 0.0355251 1.85458e-16)
(3.39078 -0.132725 -5.0724e-20)
(9.82994 0.0303282 0)
(2.00511 0.16044 2.03687e-18)
(0.716286 -0.0413524 -4.96353e-17)
(-0.0140415 -0.99606 7.33059e-21)
(-0.0256519 0.700216 2.10745e-16)
(-0.175387 4.009 -1.46818e-16)
(-0.359955 5.60459 4.46125e-16)
(1.56074 0.913243 8.19853e-18)
(-0.134351 1.30331 -1.91182e-20)
(0.0577919 -0.16297 2.69136e-16)
(0.503703 0.0543348 0)
(0.261261 0.0993396 0)
(-0.818717 0.0333924 -3.45218e-17)
(6.90531 0.829748 -1.38831e-19)
(3.32823 2.04567 2.17572e-17)
(8.69075 1.29981 -5.73279e-18)
(10.3895 0.524954 3.2704e-18)
(0.521977 -0.125026 0)
(0.272963 2.77505 0)
(-0.0982519 0.625062 2.4079e-16)
(0.0298236 -0.664845 2.30406e-16)
(8.97044 0.489617 -4.45314e-16)
(1.60434 0.700349 0)
(1.01062 0.087961 0)
(-2.0842 0.145088 2.05058e-16)
(0.58975 0.277473 1.61632e-18)
(0.409397 -0.541736 -1.46751e-16)
(1.0021 -0.220048 1.91696e-16)
(0.106294 -0.181961 -1.02342e-16)
(0.0492654 6.0904 -3.19782e-17)
(-0.246107 7.646 -1.36892e-17)
(0.94677 -0.297807 -2.48058e-16)
(9.9291 0.162547 -6.66657e-17)
(9.30464 0.0417866 3.46448e-18)
(0.114571 -0.824479 1.58002e-16)
(0.161068 1.09192 -3.8838e-17)
(2.34414 2.20041 -1.03807e-17)
(-0.64914 8.67921 -1.3013e-16)
(-0.171943 0.00232887 1.082e-15)
(-0.597871 0.039723 7.42533e-18)
(0.668386 0.181104 0)
(5.53497 3.78497 6.51844e-17)
(0.0072448 1.1757 1.1231e-16)
(0.0286538 -0.639504 3.86522e-20)
(-0.7843 2.1235 1.83918e-16)
(-0.581063 -0.0783584 0)
(10.5058 0.160871 0)
(0.0703814 -0.0185897 -7.28345e-17)
(0.305535 0.169381 0)
(-0.297029 0.234307 8.83519e-17)
(10.0389 0.0634117 -1.05127e-16)
(4.87044 -0.0287619 7.54167e-17)
(-0.424089 -0.0117451 1.27047e-16)
(7.04268 0.0308876 9.50977e-17)
(-0.0560218 -0.735664 8.81265e-17)
(-0.795909 -2.52183 1.87196e-16)
(0.00555931 1.03425 2.12468e-16)
(0.830008 6.23667 -1.07981e-16)
(0.7313 0.0661959 -7.90116e-17)
(-0.803714 -0.0108416 0)
(9.73342 0.81334 0)
(0.640483 2.8987 -2.51857e-16)
(-0.350393 -0.0187305 -2.13444e-16)
(-0.258446 -0.93333 6.92334e-16)
(0.765106 4.97032 -2.62464e-17)
(0.59413 0.169898 0)
(0.186186 0.0860887 -5.03041e-16)
(1.61721 1.765 -1.40284e-16)
(-0.89818 -0.489673 1.58239e-16)
(0.419064 -0.005921 0)
(-0.307149 2.31729 0)
(0.0255236 -0.627213 0)
(0.055642 1.23761 -1.7377e-16)
(0.887595 1.97156 7.29098e-18)
(10.0442 2.76954 -2.39902e-18)
(0.243195 -0.00361907 0)
(5.36928 1.29685 0)
(0.757767 0.185267 -9.79463e-17)
(1.02836 6.29846 7.61767e-17)
(1.31595 0.311245 0)
(-0.874796 -0.138188 4.13291e-16)
(0.302822 -0.143797 3.52381e-21)
(0.0533778 -0.178449 -1.79405e-16)
(0.995704 0.0527261 0)
(8.08799 0.589237 -6.33892e-17)
(-1.58123 0.666672 -1.52602e-16)
(0.597826 3.05239 7.18867e-17)
(0.00400734 4.16923 0)
(0.9518 3.51332 -1.04686e-17)
(9.95489 0.255576 -2.00893e-17)
(2.91122 2.65688 -3.87406e-18)
(0.104741 5.0556 -1.34776e-16)
(-0.468644 1.04949 -2.71442e-16)
(-0.275381 3.68416 -4.46275e-16)
(-0.244901 6.89015 7.33108e-19)
(0.123379 6.27967 4.98667e-17)
(2.56288 2.64362 0)
(10.6879 -0.202106 2.05814e-17)
(-2.74016 -0.196424 1.35611e-16)
(8.93589 0.814012 -1.1751e-16)
(-0.0625765 0.158881 1.93269e-16)
(-0.139001 6.61894 0)
(-0.0425226 6.4217 -5.52893e-17)
(-0.211338 4.92838 1.86187e-16)
(0.983453 0.0819024 -7.46538e-18)
(-0.627419 -0.343823 5.85942e-17)
(0.821841 0.764497 6.37404e-18)
(-0.197684 6.69488 -2.77114e-17)
(0.0508022 6.18155 -3.13859e-17)
(2.04768 8.86627 5.58529e-17)
(0.25498 0.078322 2.08158e-17)
(10.1351 0.165779 0)
(0.662049 -0.218473 4.8442e-16)
(0.06353 0.252946 -1.13504e-16)
(0.599983 -0.147182 -3.5837e-16)
(7.56381 0.580045 1.67168e-17)
(0.0198527 6.25092 -4.85037e-17)
(-0.117965 6.89112 1.86028e-16)
(1.03856 -0.130862 -1.71185e-19)
(-0.386292 0.0739146 -1.21361e-16)
(1.05446 6.50878 0)
(0.91151 -0.119241 0)
(-0.0495485 -0.128613 -2.17057e-17)
(-0.787146 2.54546 0)
(3.36589 4.08251 -5.48501e-17)
(4.65251 3.00747 0)
(1.12554 5.38472 -1.5836e-16)
(-0.0434348 0.832687 6.79867e-17)
(0.955797 -0.111422 3.77836e-16)
(1.50145 -0.00869648 4.25514e-17)
(7.22654 0.674917 -1.49429e-17)
(3.8362 -0.00572804 -2.35195e-16)
(7.74546 0.141842 -2.8826e-16)
(1.74158 0.190271 0)
(0.191618 1.27926 -8.10167e-17)
(5.11067 2.94158 1.60839e-16)
(3.62495 1.6566 -7.35619e-17)
(0.0862108 0.04203 -3.73419e-16)
(0.265967 1.31882 5.69111e-16)
(-0.696158 -0.117817 3.70692e-17)
(-0.200041 0.405031 -4.81729e-16)
(1.38022 1.88292 -2.26323e-19)
(0.919918 1.18679 -2.44519e-16)
(-0.396181 0.100171 2.00009e-16)
(0.233967 -0.674754 1.02061e-16)
(-0.138283 0.748337 0)
(0.0440996 0.471976 -7.94322e-17)
(0.234636 -0.912257 -8.00237e-17)
(0.210343 0.979028 3.11109e-16)
(0.515111 -0.294955 -1.20965e-16)
(1.46084 8.56106 -3.66506e-17)
(10.6583 0.423416 -7.29491e-17)
(-0.0568701 0.0176236 1.15395e-16)
(-0.226032 2.53279 -4.80464e-17)
(0.309344 -0.0425799 -1.50601e-16)
(8.70247 0.169928 3.5471e-16)
(3.93991 -0.137102 -2.43177e-17)
(0.00762379 6.4183 3.65106e-18)
(4.31026 -0.148831 2.46807e-16)
(-0.0788885 4.89265 -1.73716e-16)
(0.00904061 5.61516 9.00777e-17)
(7.27918 0.278535 0)
(0.0288623 0.226731 -1.27135e-16)
(0.0565416 0.061593 3.07512e-17)
(-1.38448 -0.529189 0)
(1.28096 0.777861 -1.70309e-16)
(0.080766 0.0260577 7.02001e-17)
(1.16162 0.381677 2.68715e-16)
(0.96931 0.110512 2.90592e-16)
(3.8669 0.184212 -4.13895e-17)
(8.95152 0.465822 -1.0903e-18)
(0.760784 1.27185 -1.73792e-16)
(-1.22611 0.176307 2.87737e-16)
(-0.331974 1.14526 -2.68662e-16)
(0.638225 0.0639464 1.21421e-16)
(0.773679 -0.10916 0)
(-0.218564 -0.862025 -1.12033e-17)
(-1.89958 0.885326 -2.88577e-16)
(-0.0722891 0.567843 -1.4033e-20)
(-0.0341926 5.7793 2.85401e-17)
(0.220089 5.63746 -2.72541e-18)
(-0.174176 5.20461 -1.11505e-16)
(0.220819 5.74504 3.25084e-17)
(2.01167 4.62717 -1.41593e-16)
(7.16658 0.347851 7.07495e-17)
(0.0678346 0.786627 0)
(10.47 0.946494 0)
(-1.77363 0.102739 3.58467e-16)
(-1.08772 0.0100336 5.59286e-16)
(0.0077664 6.23307 1.48406e-16)
(-0.0491431 7.01767 -1.25176e-16)
(0.434313 -0.0316795 1.38576e-16)
(1.24092 5.57731 -4.08179e-17)
(0.75458 -0.261926 5.06784e-17)
(-0.509401 -0.0162693 2.54945e-17)
(0.387618 -0.0442915 1.48769e-19)
(0.297045 0.20582 -6.92921e-17)
(-0.849714 0.0375735 -1.04875e-17)
(0.890976 2.29185 -5.4362e-17)
(3.53659 -0.0713873 -4.03862e-16)
(0.479055 3.97965 6.65542e-18)
(0.132899 0.025519 1.75211e-16)
(0.630301 0.329307 0)
(0.877666 -0.418359 0)
(0.121724 3.29035 0)
(0.81636 6.22386 2.25507e-16)
(1.22282 8.36026 2.45898e-16)
(-0.200602 6.66069 2.33868e-16)
(0.854576 -0.0446368 3.81423e-17)
(5.91858 3.30783 -3.85157e-17)
(0.346915 0.116353 0)
(-0.122581 0.114271 1.04735e-16)
(-0.437362 -0.702824 3.32782e-17)
(10.5449 0.0560655 -7.59115e-18)
(0.19162 -0.0274164 -1.15233e-16)
(-1.49595 0.13631 3.28927e-18)
(-0.631697 -0.0432105 -1.67885e-16)
(9.00325 0.377821 -2.03713e-17)
(0.906306 1.65787 0)
(3.51527 1.21861 -3.51124e-16)
(3.34754 0.886145 2.17079e-16)
(0.253582 -0.346238 0)
(0.0515095 0.110065 8.00035e-17)
(1.28479 2.33234 -2.59478e-16)
(8.69429 0.164686 0)
(1.78391 5.9635 -4.55365e-16)
(-0.214359 5.99419 -1.31872e-16)
(0.281346 3.0076 0)
(1.19245 0.560001 0)
(11.3975 0.281571 4.41318e-17)
(10.3742 0.350298 3.40467e-17)
(8.97482 1.1527 1.83773e-18)
(5.36847 2.17048 -7.47393e-21)
(0.491568 2.5819 0)
(1.35716 0.636818 2.06347e-16)
(2.43316 7.07031 -2.97808e-17)
(4.65231 -0.0563672 0)
(0.167467 -0.112287 -4.91498e-16)
(3.91632 2.16808 2.10802e-17)
(0.25629 0.96151 -1.25118e-16)
(9.38671 0.915492 -5.23153e-17)
(10.8828 0.0433502 7.90628e-17)
(1.64419 1.87764 -1.84628e-16)
(9.94693 0.416244 -1.57065e-17)
(-0.0727852 6.29594 1.65742e-16)
(0.826093 8.74552 4.22304e-17)
(0.615346 6.94771 -1.0102e-16)
(6.77342 3.62558 0)
(0.812411 -0.0105546 1.50564e-16)
(-0.230095 -1.13921 -1.75765e-16)
(2.11438 0.0818015 2.76745e-17)
(-0.0207645 0.0753444 1.38136e-16)
(0.0627738 6.40392 5.4797e-21)
(-0.0809882 7.35271 2.43503e-19)
(0.542991 5.9957 7.45136e-17)
(0.344584 0.384026 0)
(0.217164 -0.435319 0)
(0.31958 -0.0821605 1.10577e-16)
(0.680492 0.487729 1.6546e-16)
(-0.0979676 5.39238 -1.0589e-16)
(-0.0286685 5.68184 -3.64368e-18)
(-0.236077 2.43255 0)
(-0.0953573 0.747025 -4.58812e-17)
(10.1025 0.109008 8.69058e-17)
(-0.938056 -0.367929 0)
(1.82007 1.37808 -3.51255e-16)
(0.152364 0.15699 7.9343e-17)
(1.06328 -0.133636 2.45879e-16)
(0.0196123 6.25515 6.69829e-17)
(-0.179423 7.31905 1.36695e-16)
(9.62842 0.918425 0)
(0.26923 7.45337 -3.53897e-17)
(-0.0451819 6.19991 -3.37733e-17)
(9.51968 1.13612 -9.67247e-17)
(2.08879 0.504154 -5.62283e-20)
(7.39793 1.7133 6.40461e-18)
(-0.222574 6.60919 1.50464e-19)
(-0.0267239 5.87278 0)
(0.0111609 5.64059 2.86296e-18)
(-0.22027 5.05655 -9.6725e-17)
(0.35502 5.60464 -4.01012e-17)
(3.57369 4.15493 1.42972e-16)
(0.503471 1.95915 3.64768e-17)
(-0.161719 6.91005 2.08865e-16)
(0.0285946 6.48862 0)
(-0.276195 5.44764 -1.41071e-16)
(1.08821 1.25413 3.0944e-17)
(0.0726377 0.0974402 -1.59562e-16)
(0.567781 0.25135 8.30908e-17)
(0.135664 0.177885 4.71498e-18)
(-0.498809 0.167532 1.37114e-16)
(0.425755 -0.136355 0)
(1.3473 3.459 1.17941e-17)
(0.256642 -1.06222 -2.38021e-17)
(0.585035 0.00905389 -1.25284e-16)
(8.8993 0.767265 -7.28996e-19)
(-0.201866 1.07484 -4.34448e-17)
(0.0403739 -0.673354 -2.55363e-16)
(0.00366591 1.0929 -1.90114e-16)
(-0.213458 6.4401 -2.08774e-16)
(0.173707 6.22315 0)
(0.589601 0.169768 2.49292e-16)
(-0.222766 6.54711 8.95375e-17)
(0.149739 6.13509 2.46695e-17)
(-0.678252 -0.162598 -7.67718e-17)
(3.49091 3.63058 -1.50942e-16)
(-0.868297 -1.3655 4.8965e-16)
(-0.68939 -0.984734 5.97955e-16)
(0.789608 0.719726 -2.65579e-16)
(0.219378 5.86487 2.50152e-16)
(-0.026485 0.933569 -3.87952e-16)
(-0.994 -0.304825 -1.90847e-16)
(-0.0482965 -0.880258 -1.25663e-16)
(1.23892 8.93587 0)
(9.88653 0.102349 0)
(0.0547316 0.0810051 -3.02227e-16)
(-0.279694 -0.986398 1.60591e-16)
(0.256553 0.12085 -8.12357e-17)
(-0.828394 -0.279223 0)
(0.797163 0.12951 1.15347e-16)
(0.552417 -0.027232 -3.33508e-20)
(0.682896 0.402212 -6.23869e-16)
(4.15157 0.0894214 2.22955e-16)
(1.06289 5.07448 1.133e-16)
(-0.287294 6.45796 -2.90649e-16)
(1.8163 -0.52744 3.74403e-16)
(0.823759 0.612832 -1.67906e-16)
(9.78471 0.903283 -1.35449e-17)
(0.487543 3.2218 2.04001e-16)
(0.146872 -0.169148 2.04503e-16)
(0.848461 0.250897 0)
(-0.927775 0.77674 5.46923e-17)
(2.06671 1.38268 -7.44027e-16)
(0.148758 1.25622 -2.41757e-17)
(-0.0155494 -0.650692 3.10339e-16)
(0.0641338 2.46813 2.66797e-17)
(8.6333 0.555931 -1.15101e-16)
(10.0555 0.323247 -2.24177e-19)
(-0.373334 0.0388589 1.95388e-16)
(11.0752 0.0488997 0)
(0.715317 0.248513 -5.02895e-18)
(0.40372 -0.196295 2.89238e-18)
(0.858745 -0.165056 -1.92072e-17)
(-0.00294973 6.39782 4.24258e-17)
(-0.133803 6.56279 3.93701e-17)
(0.0158748 5.07673 1.76891e-17)
(10.529 0.0370725 1.43965e-17)
(0.0462313 -0.0308103 4.94754e-20)
(-0.634156 7.84036 -4.61078e-17)
(0.400388 -0.314156 1.10242e-20)
(0.0671047 1.24186 0)
(9.16192 1.63432 -4.36989e-18)
(0.583047 -0.460904 0)
(-0.300757 0.0494868 1.025e-16)
(0.291934 0.21056 9.54447e-17)
(0.181172 1.08638 4.7572e-18)
(0.640866 0.268946 2.45011e-16)
(-1.03096 -0.0924383 3.00856e-16)
(9.39011 0.602419 -1.78627e-17)
(-0.190752 -0.148031 2.74241e-16)
(1.48056 -0.548169 3.07002e-16)
(9.54299 1.07067 9.90764e-17)
(9.75753 0.295638 4.1355e-17)
(6.10963 2.72454 2.57668e-17)
(0.047637 6.18965 -4.8556e-17)
(-0.0535801 6.67854 2.38267e-17)
(0.0320881 2.72488 1.25332e-16)
(0.206481 1.89416 0)
(4.19835 0.727918 4.69288e-17)
(5.70536 3.10567 8.56168e-17)
(9.36669 -0.153213 -1.97262e-17)
(0.50116 0.655656 1.16586e-16)
(0.198512 -0.246228 2.64334e-16)
(0.130569 0.119287 0)
(8.90518 1.69084 0)
(0.908658 2.20012 0)
(1.42202 2.08433 2.8364e-16)
(0.231788 0.0798882 9.9487e-17)
(2.42348 4.43901 2.0591e-16)
(-0.231367 5.37506 2.85848e-17)
(1.50446 7.17305 -5.84222e-17)
(0.169749 0.198918 0)
(0.0523623 0.135253 1.02597e-16)
(-0.134573 5.92408 -1.27438e-16)
(-1.01826 -0.1524 -6.75e-16)
(11.2623 0.114368 9.65029e-17)
(5.79036 1.19126 0)
(0.270455 -0.925409 1.91981e-16)
(1.01831 5.47784 0)
(0.67146 0.303553 1.61852e-16)
(0.294585 0.0802701 -2.50217e-17)
(0.974434 9.68108 6.21255e-17)
(9.92599 1.07943 -1.35034e-17)
(9.88536 0.679957 1.02663e-16)
(-1.04911 0.225622 0)
(0.804723 2.20823 -5.69835e-17)
(-0.393388 -0.0352787 0)
(8.64716 0.339126 0)
(1.06521 0.221915 -1.3471e-16)
(0.159817 0.0227439 2.49459e-17)
(-2.80037 4.35396 -1.32946e-16)
(2.92274 0.808721 -1.23111e-16)
(0.849828 2.4194 1.44293e-16)
(10.2871 0.104342 -2.58642e-20)
(5.96881 3.5757 -7.76959e-17)
(0.943032 -1.24773 -3.47071e-19)
(-0.0182383 6.08527 5.93098e-17)
(-0.0439442 6.28859 -5.19422e-17)
(0.624341 2.14274 -1.19473e-16)
(1.19 6.07012 -2.46961e-16)
(1.56295 1.47106 -1.31501e-17)
(0.0477235 -0.965868 -3.5415e-16)
(-0.0518413 0.810516 -2.135e-16)
(1.00871 0.794075 6.61453e-17)
(0.836574 0.0473678 2.15433e-16)
(0.661985 0.0339658 -3.03427e-16)
(0.260635 1.24199 -5.21946e-16)
(0.205417 -0.816691 -4.12752e-16)
(6.96792 4.23419 3.37356e-18)
(0.429338 1.24615 5.54295e-16)
(10.0831 0.0417088 -6.35449e-17)
(0.777296 0.0553485 0)
(-0.259107 2.27155 2.74244e-20)
(4.09773 -0.705973 -9.9518e-17)
(-0.548959 2.52653 0)
(10.0993 0.413129 3.99062e-17)
(-0.464099 0.0420168 3.09516e-16)
(0.399166 -0.000142511 -2.77228e-16)
(9.13896 1.83804 0)
(0.0258767 6.14281 1.98859e-20)
(-0.301216 7.75161 0)
(10.0403 0.0835715 0)
(0.872648 0.0504106 -5.25202e-17)
(9.59168 1.31976 -5.29312e-17)
(9.03111 4.00309 -1.81241e-16)
(1.21288 6.44927 2.41526e-17)
(7.37704 2.10146 -1.06146e-16)
(-0.0754653 3.91942 -7.23946e-17)
(0.00558349 3.90336 1.39362e-20)
(-0.0354095 4.46573 -7.35474e-17)
(-0.692382 -0.587482 0)
(-0.101198 2.41559 1.11343e-16)
(-0.0185775 -0.54817 0)
(0.380689 0.438826 0)
(0.149649 0.120141 0)
(-0.0573173 -0.0464884 -2.19072e-16)
(0.193066 -0.575439 0)
(0.128803 0.727738 1.3172e-16)
(2.84805 2.57919 -2.80815e-16)
(0.233266 3.3398 0)
(-0.616992 5.47295 1.55118e-16)
(-0.196395 6.42333 -2.4399e-17)
(0.00303263 6.30082 8.96004e-17)
(-0.156698 7.14312 -3.87114e-17)
(0.72223 1.74382 2.37911e-16)
(9.39045 1.0175 -2.73054e-17)
(0.199375 1.29555 2.10743e-17)
(0.0342152 -0.688959 -8.76106e-17)
(0.882008 0.635722 0)
(0.895902 0.00023726 -3.27361e-20)
(5.07989 1.77741 0)
(0.582173 -0.0649909 2.4275e-21)
(3.83128 0.130362 -4.55601e-16)
(10.0589 0.0509176 3.49357e-17)
(-0.61429 7.92519 1.15203e-16)
(-2.47798 2.50312 -2.98034e-16)
(-0.0402124 0.806598 0)
(-0.085198 -0.935116 9.51124e-16)
(5.29082 2.55437 -3.11401e-17)
(11.1788 0.468328 0)