/*--------------------------------*- C++ -*----------------------------------*\
| =========                 |                                                 |
| \\      /  F ield         | OpenFOAM: The Open Source CFD Toolbox           |
|  \\    /   O peration     | Version:  v1912                                 |
|   \\  /    A nd           | Website:  www.openfoam.com                      |
|    \\/     M anipulation  |                                                 |
\*---------------------------------------------------------------------------*/
FoamFile
{
    version     2.0;
    format      ascii;
    class       volScalarField;
    location    "1";
    object      k;
}
// * * * * * * * * * * * * * * * * * * * * * * * * * * * * * * * * * * * * * //

dimensions      [0 2 -2 0 0 0 0];


internalField   nonuniform List<scalar> 
1466
(
0.0312112
0.128364
0.148457
0.0423215
0.139828
0.467731
0.0638421
0.0672271
0.512628
0.0246053
0.150699
0.0541113
0.0104109
0.0253056
0.0412135
0.0206692
0.0948742
0.024826
0.235311
0.0250486
0.0871081
0.0540196
0.0258852
0.148655
0.0270404
0.325858
0.364746
0.0352101
0.0367997
0.0411869
0.0946609
0.325685
0.0592674
0.0456529
0.0214418
0.0450013
0.030575
0.0523821
0.790856
0.0476045
0.0530696
0.0257329
0.416017
0.0724128
0.0457023
0.358832
0.0721926
0.0256443
0.02647
0.090001
0.189365
0.0156667
0.103286
0.402334
0.029984
0.0517127
0.0407717
0.29718
0.0222405
0.0535248
0.0258254
0.0349614
0.109676
0.378359
0.138758
0.0462897
0.0519003
0.0827864
0.0213395
0.0467811
0.265498
0.040834
0.0405265
0.0660617
0.0272947
0.0439781
0.0579424
0.030858
0.0519002
0.0582387
0.178557
0.0636487
0.0544954
0.0289461
0.0409633
0.0952603
0.040696
0.162996
0.0540521
0.0752604
0.0630671
0.0408585
0.0722922
0.0240747
0.175715
0.0750788
0.131678
0.0247937
0.143617
0.0628926
0.0475413
0.034582
0.107
0.0892811
0.067161
0.433172
0.0757443
0.060528
0.135115
0.0296948
0.0230595
0.0698374
0.0382097
0.0546641
0.0122442
0.855401
0.0194832
0.0208842
0.095524
0.304663
0.0684929
0.0243371
0.0158881
0.170828
0.049106
0.0945478
0.0305889
0.119997
0.0771703
0.417987
0.0452407
0.0470811
0.068848
0.05403
0.21396
0.061578
0.0262727
0.0445654
0.0467996
0.0306768
0.0202877
0.0394567
0.101279
0.113374
0.0465617
0.0353189
0.066941
0.123335
0.0594774
0.0406728
0.0803417
0.0396223
0.0538358
0.131586
0.0694269
0.344233
0.0300334
0.0766472
0.168895
0.10537
0.0381097
0.0568163
0.118435
0.0721836
0.0310782
0.0672936
0.399088
0.0170237
0.0336995
0.364307
0.0813739
0.0991405
0.0323951
0.0587854
0.339032
0.135773
0.0284005
0.0604848
0.0360662
0.0645351
0.0270993
0.0789147
0.0538293
0.0446509
0.167974
0.0218745
0.0687572
0.847844
0.0526752
0.108296
0.0763608
0.0292998
0.051287
0.12736
0.0784455
0.0376235
0.0467671
0.0332507
0.0296408
0.0267937
0.0352909
0.16668
0.0651328
0.0370316
0.0396676
0.0303562
0.0754739
0.138341
0.0378082
0.050643
0.0429745
0.0352611
0.182866
0.0686175
0.117806
0.0607015
0.106029
0.0111843
0.0222288
0.0591654
0.342479
0.0289371
0.0242843
0.0759991
0.0572361
0.0816973
0.0252175
0.0304643
0.0449759
0.445194
0.059403
0.142283
0.0600157
0.0274629
0.0478076
0.038951
0.0350325
0.0501062
0.0498274
0.0306742
0.479021
0.0583338
0.0420441
0.027743
0.0273999
0.0282637
0.172247
0.037515
0.0167302
0.032329
0.0667225
0.228797
0.0350124
0.135232
0.0562733
0.193733
0.0299804
0.421875
0.947341
0.032512
0.0735339
0.0608732
0.175099
0.0923784
0.575757
0.0443627
0.548742
0.0361232
0.149494
0.0496726
0.134299
0.0257188
0.0543847
0.0308047
0.0569951
0.0256175
0.111827
0.0538281
0.148861
0.0278766
0.0353266
0.0229407
0.0353243
0.0291589
0.106989
0.0375734
0.230068
0.0442031
0.375831
0.0480029
0.0916808
0.593631
0.25466
0.0400387
0.0484595
0.189259
0.805316
0.85572
0.193784
0.0205625
0.0463216
0.0440453
0.0249786
0.237314
0.0410627
0.0670546
0.0335366
0.0332112
0.0205259
1.22095
0.503449
0.144447
0.165407
0.0596103
0.0404092
0.144099
0.0346004
0.277001
0.0485684
0.0379144
0.0902004
0.0595727
0.0591525
0.0331035
0.0215248
0.0459795
0.0871333
0.0526853
0.129292
0.0933451
0.0268307
0.0251044
0.0983103
0.0667021
0.0235456
0.0304978
0.0359327
0.213606
0.0262522
0.101086
0.0294777
0.0231932
0.039004
0.07306
0.0495329
0.141101
0.0289659
0.0182651
0.0432385
0.404072
0.0425152
0.0781959
0.0372637
0.0264407
0.0268704
0.165424
0.0335933
0.0737328
1.16135
0.216882
0.360513
0.057058
0.0631499
0.0544306
0.0279133
0.054938
0.0788257
0.115849
0.0191276
0.030216
0.118069
0.0282615
0.0289299
0.0277774
0.0786967
0.0252456
0.0425659
0.312136
0.0514372
0.0257734
0.0414827
0.0551632
0.215626
0.157638
0.0507252
0.246185
0.0506533
0.145557
0.0551135
0.0865521
0.104146
0.430515
0.0595599
0.5848
0.0248717
0.0324396
0.0650773
0.247395
0.0673063
0.0507569
0.0230518
0.251258
0.0667222
0.0725227
0.0491313
0.0907628
0.130289
0.981494
0.0564627
0.0405521
0.126174
0.0612848
0.0260004
0.0335384
0.562658
0.136961
0.156543
0.327952
0.130748
0.140863
0.299806
0.0638863
0.0705423
0.0777743
0.0812982
0.08918
0.0681134
0.069848
0.0832678
0.0881288
0.0367148
0.12877
0.170222
0.212079
0.740489
0.285995
0.514602
0.0781696
0.409997
0.37813
0.102732
0.114328
0.159964
0.401113
0.3802
0.496644
0.4247
0.450994
0.555821
0.33573
0.686728
0.532892
0.420045
0.246772
0.469283
0.466669
0.469102
0.494716
0.306048
0.339417
0.460853
0.194166
0.226898
0.313697
0.203013
0.194615
0.328722
0.106446
0.0359038
0.208562
0.272586
0.423024
0.321069
0.483143
0.211782
0.0973575
0.259951
0.22975
0.160556
0.500599
0.0350291
0.0851109
0.277381
0.0764306
0.106095
0.0365357
0.0538331
0.211417
0.228396
0.0487058
0.0809969
0.0410242
0.0571576
0.233392
0.0373737
0.149566
0.549318
0.429514
0.15332
0.126275
0.0452222
0.0613565
0.0279053
0.0514697
0.256433
0.0787041
0.0489089
0.37263
0.366556
0.383555
0.409975
0.107001
0.38928
0.351317
0.368509
0.375565
0.0447918
0.0617733
0.274006
0.291837
0.252708
0.566705
0.282663
0.635404
0.523562
0.0708287
0.245856
0.31416
0.038056
0.254504
0.0859695
0.070894
0.356598
0.355251
0.367715
0.38206
0.0385732
0.3212
0.0923673
0.050254
0.357094
0.460005
0.443934
0.411894
0.367686
0.322579
0.0698641
0.648638
0.51074
0.0445097
0.0670833
0.0548387
0.388331
0.117507
0.077978
0.47406
0.0356932
0.115819
0.183715
0.402262
0.0857264
0.0538866
0.0860001
0.717516
0.0487293
0.0564916
0.0882223
0.0396828
0.365075
0.677614
0.0418141
0.35546
0.37205
0.0436605
0.12373
0.383326
0.0836081
0.281786
0.372541
0.384506
0.0612591
0.0488849
0.148214
0.0739821
0.0664911
0.821942
0.306385
0.0658097
0.645808
0.465664
0.017786
0.0368895
0.0487857
0.138541
0.0461834
0.0667671
0.0576707
0.0686794
0.569002
0.0832612
0.631237
0.0407333
0.0710357
0.115281
0.307915
0.131494
0.170044
0.118934
0.567898
0.804182
0.0674771
0.594684
0.453576
0.876833
0.0224997
0.30874
0.63071
0.0227197
0.351605
0.0335099
0.0680568
0.0873466
0.189955
0.0549776
0.0660418
0.354003
0.0261262
0.0446433
0.0884075
0.404503
0.214376
0.76055
0.154234
0.0247085
0.0590058
0.0627303
0.0602106
0.447738
0.0429211
0.069787
0.0837008
0.394993
0.0416107
0.372984
0.26885
0.03583
0.144127
0.401479
0.737007
0.075524
0.0474894
0.539458
0.059482
0.466024
0.214724
0.189288
0.388719
0.0773917
0.0656684
0.155512
0.0200741
0.502418
0.0411538
0.131096
0.367324
0.385678
0.365504
0.0727868
0.494829
0.0587232
0.0561291
0.0507382
0.0232582
0.131477
0.0192524
0.0355209
0.444265
0.458098
0.0637704
0.0593268
0.0367608
0.0651172
0.0257778
0.123268
0.0257941
0.222773
0.103563
0.136887
0.0692908
0.136187
0.0668477
0.0478839
0.392151
0.154359
0.138407
0.0347464
0.0338413
0.0850852
0.0616916
0.128022
0.382649
0.105787
0.0501981
0.430953
0.110548
0.0433851
0.144132
0.406521
0.374488
0.0384808
0.0690058
0.0350896
0.0419231
0.0368314
0.0714857
0.0368018
0.0458136
0.72377
0.0406294
0.358951
0.108131
0.205734
0.0647933
0.0941265
0.610434
0.0974731
0.123375
0.0347159
0.374039
0.0439684
0.444029
0.0320166
0.0837733
0.00745449
0.00812607
0.553406
0.00786427
0.0102912
0.25747
0.614164
0.0387829
0.00871235
0.0126411
0.0249502
0.0915145
0.205059
0.0295947
0.0868271
0.255474
0.033472
0.126191
0.0178926
0.0260542
0.0664361
0.105696
0.151792
1.09748
0.429137
0.110938
0.0294897
0.0141126
0.06306
0.0619183
0.0327595
0.058982
0.38113
0.093017
0.0158656
0.119262
0.126716
0.116094
0.749219
0.17514
0.0249943
0.0615231
0.0674017
0.0348083
0.032644
0.0445905
0.244033
0.770895
0.410667
0.0160109
0.0283783
0.0636136
0.032018
0.0645601
0.0778663
0.32282
0.020054
0.0545625
0.0642613
0.0301195
0.0401524
0.155977
0.509837
0.865403
0.0913189
0.071275
0.0318166
0.0877627
0.0978995
0.0666009
0.134435
0.0988225
0.0755938
0.42356
0.0556095
0.061719
0.15162
0.967404
0.0303125
0.0622882
0.401876
0.0273727
0.263045
0.0218847
0.0676841
0.136813
0.343573
0.854632
0.0595733
0.211213
0.155849
0.0325646
0.0324101
0.140012
0.100332
0.0735662
0.181098
0.0357553
0.115207
0.0527168
0.15293
0.0699086
0.0425527
0.132396
0.0623415
0.0230093
0.0229257
0.0723976
0.0772865
0.0490345
0.396294
0.0235337
0.203488
0.0428686
0.0420574
0.342025
0.182354
0.436279
0.0587247
0.0938221
0.432699
0.0289576
0.232162
0.218272
0.0500826
0.138674
0.0124408
0.362672
0.0250009
0.176757
0.134824
0.0685279
0.0372717
0.0228547
0.0538354
0.131352
0.0448252
0.0748904
0.0368966
0.378557
0.0643522
0.121582
0.0989509
0.0610545
0.132227
0.882913
0.293754
0.057662
0.16023
0.329728
0.0958886
0.025591
0.122722
0.12997
0.147996
0.275336
0.141526
0.0637166
0.0963779
0.0240924
0.0452537
0.0691445
0.773672
0.332945
0.348676
0.35722
0.0337845
0.0636467
0.0750148
0.053095
0.327399
0.136077
0.0371326
0.0948723
0.0501813
0.0432426
0.0988089
0.0385804
0.220652
0.417089
0.0321408
0.0606496
0.0113592
0.0519078
0.0608189
0.147935
0.0436465
0.0981192
0.0581343
0.39658
0.0548017
0.459119
0.0300668
0.0792011
0.18453
0.0688141
0.35019
0.0591204
0.116783
0.0267647
0.378708
0.0101938
0.693915
0.0934111
0.282661
0.0547383
0.0182539
0.0198494
0.022336
0.021202
0.0899825
0.0869598
0.0921129
0.0933709
0.0165991
0.0906075
0.0891182
0.0148738
0.0128525
0.0107024
0.0859673
0.00944963
0.0102903
0.0516025
0.0251926
0.0548153
0.0311865
0.0895457
0.311068
0.19663
0.0357339
0.0237729
0.0899335
0.445872
0.0219745
0.18852
0.0573557
0.0441383
0.0940363
0.031869
0.215893
0.252168
0.0340202
0.0656359
0.0410151
0.0893376
0.0231832
0.427316
0.381449
0.896661
0.52434
0.0871989
0.171139
0.0329042
0.0426359
0.03674
0.284938
0.157614
0.051748
0.0554589
0.0857062
0.382193
0.237571
0.018881
0.764714
0.437892
0.67243
0.066521
0.0782968
0.0843769
0.0685737
0.045207
0.0262328
0.0226752
0.508031
0.0358724
0.0255875
0.0658795
0.0159105
0.025071
0.0774027
0.028696
0.0423084
0.0615818
0.0445142
0.0265909
0.316704
0.0555114
0.0293032
0.414233
0.0746481
0.0607208
0.0411193
0.0723618
0.0262963
0.169627
0.537364
0.0916054
0.0960125
0.550435
0.02406
0.0170505
0.279852
0.676102
0.0221921
0.0644057
0.287767
0.949398
0.0190628
0.0929917
0.035765
0.0258178
0.0951357
0.139631
0.0118225
0.151484
0.0564144
0.0460037
0.166333
0.293162
0.50013
0.0110506
0.170841
0.274882
0.236731
0.106353
0.0715975
0.733092
0.0536373
0.0492733
0.0114263
0.0517402
0.0370469
0.0419642
0.879785
0.0388191
0.0477765
0.026802
0.0264706
0.0492144
0.0446796
0.905862
0.0589379
0.0432399
0.0496857
0.12085
0.306049
0.0674472
0.0341623
0.0222234
0.364738
0.0804447
0.0480734
0.817891
0.0493587
0.134654
0.0408716
0.350979
0.0780767
0.069756
0.755434
0.0224246
0.0310752
0.387024
0.356326
0.0572948
0.0858495
0.0326701
0.0244122
0.085878
0.38259
0.162398
0.0291006
0.0107716
0.0198952
0.0392122
0.0261129
0.360222
0.110508
0.0956499
0.0233017
0.361627
0.0120006
0.0390443
0.108769
0.0371407
0.0391473
0.030262
0.06817
0.234012
0.0573465
0.0321799
0.0458987
0.029835
0.194504
0.0257635
0.373718
0.104519
0.0267546
0.0493351
0.279888
0.0824024
0.0295893
0.192829
0.0105044
0.458908
0.30535
0.0200675
0.0233887
0.0610601
0.158061
0.0478534
0.0915135
0.0102039
0.151887
0.160647
0.0408137
0.0424076
0.0164737
0.0406583
0.0304894
0.0327391
0.271028
0.0334914
0.131621
0.0264991
0.0654714
0.146991
0.400229
0.609662
0.026187
0.195698
0.0818269
0.0254346
0.0229346
0.0550312
0.196914
0.012003
0.0791699
0.66181
0.0607956
0.0139057
0.111523
0.407765
0.157979
0.0288099
0.325208
0.0453532
0.0321408
0.0250103
0.0315932
0.0326235
0.0211257
0.273717
0.142971
0.406962
0.146853
0.0660596
0.0646937
0.0320381
0.0112603
0.033698
1.00631
0.409526
0.397347
0.0209149
0.107217
0.0440368
0.346854
0.434034
0.0930956
0.0591568
0.0809601
0.0396656
0.799662
0.330491
0.781094
0.0264631
0.106594
0.263101
0.119256
0.804728
0.0530078
0.113495
0.23919
0.0947474
0.0203701
0.0517213
0.158748
0.152912
0.0749036
0.306532
0.0338311
0.0105332
0.883849
0.465872
0.0431224
0.0614569
0.038261
0.0208722
0.0446526
0.0232341
0.216026
0.197629
0.0529327
0.0577386
0.0999048
0.0719283
0.0694795
0.688561
0.736751
0.413619
0.902666
0.0606463
0.0481724
0.170504
0.0777529
0.410451
0.916926
0.17473
0.15362
0.268712
0.0379142
0.171964
0.0355726
0.221173
0.283657
0.0390648
0.0235586
0.0838209
0.0289253
0.117283
0.0371506
0.0449244
0.0570317
0.0824755
0.0230422
0.0435564
0.42027
0.0373027
0.0305153
0.970194
0.488852
0.537739
0.0225171
0.0595246
0.0409506
0.210257
0.414249
0.0968316
0.874545
0.0590186
0.0320381
0.100042
0.0849229
0.0774148
0.0566825
0.0414552
1.09828
0.473497
0.112928
0.593474
0.50999
0.133371
0.0107673
0.167204
0.019056
0.393105
0.178595
0.0235097
0.0234607
0.325775
0.0922728
0.260303
0.0914474
0.0137113
0.195858
0.0467941
0.120516
0.0224761
0.0126412
0.0328413
0.184554
0.0835327
0.0310428
0.154104
0.637379
0.129087
0.0329141
0.102156
0.0470369
0.0541067
0.23578
0.0898289
0.0721762
0.136581
0.0968767
0.0219169
0.677269
0.0456991
0.0401626
0.0974734
0.00977636
0.0621812
0.0510303
0.0395252
0.0643331
0.161445
0.354364
0.0147981
0.0449758
0.0454036
0.0325197
0.037718
0.173979
0.0555821
0.0356394
0.258088
0.0345768
0.381186
0.0475646
0.0431485
0.431289
0.236186
0.0662664
0.276203
0.0263954
0.0357898
0.0418852
0.0263849
0.109329
0.0345834
0.150472
0.193734
0.165511
0.411217
0.0102315
0.0986504
0.0356239
0.0735758
0.0353585
0.0317446
0.199783
0.0334062
0.318861
0.0597906
0.0282954
0.0416837
0.0333664
0.0285642
0.0917652
0.0987072
0.0259059
0.0416311
0.0374252
0.0608211
0.0313899
0.0412268
0.133843
0.071771
0.394052
0.102224
0.0266223
0.0617999
0.0373883
0.0864842
0.0284236
0.0504342
0.0466481
0.719984
0.0511986
0.0377549
0.0738316
0.0233424
0.0342163
0.0615802
0.0263238
0.0218664
0.0305513
0.109773
0.101713
0.134871
0.0266111
0.117779
0.0585096
0.979829
0.445481
0.319683
0.0609016
0.0558635
0.0385503
0.0399593
0.114955
0.118935
0.0296618
0.0639067
0.0333337
0.137538
0.0582069
0.037971
0.0372051
0.111892
0.0981182
0.167683
0.0262168
0.283558
0.141702
0.140758
0.0412903
0.0280617
0.0904171
0.102725
0.158839
0.0471832
0.0353675
0.043826
0.152987
0.0437358
0.0226869
0.220602
0.594793
0.630913
0.0332566
0.0273162
0.573614
0.157559
0.652803
0.0386471
0.227039
0.251128
0.0601026
0.0449689
0.0338306
)
;

boundaryField
{
    frontAndBack
    {
        type            empty;
    }
    wallOuter
    {
        type            kqRWallFunction;
        value           nonuniform List<scalar> 
102
(
0.0104109
0.0104109
0.0258852
0.0272947
0.0122442
0.0205259
0.0248717
0.0257778
0.00745449
0.00812607
0.00786427
0.0102912
0.00871235
0.0126411
0.0249502
0.0915145
0.0295947
0.0178926
0.0141126
0.0158656
0.0249943
0.0160109
0.0283783
0.0318166
0.0877627
0.0325646
0.0324101
0.0289576
0.0124408
0.0321408
0.0113592
0.0182539
0.0198494
0.022336
0.021202
0.0899825
0.0869598
0.0921129
0.0933709
0.0165991
0.0906075
0.0891182
0.0148738
0.0128525
0.0107024
0.00944963
0.0102903
0.0311865
0.0895457
0.0441383
0.031869
0.0340202
0.0893376
0.0554589
0.0857062
0.018881
0.066521
0.0782968
0.0159105
0.025071
0.02406
0.0221921
0.0190628
0.0118225
0.0110506
0.0114263
0.0264706
0.0341623
0.0222234
0.0310752
0.0326701
0.0244122
0.0107716
0.0198952
0.0261129
0.0120006
0.030262
0.0321799
0.0257635
0.0105044
0.0200675
0.0102039
0.0327391
0.0334914
0.026187
0.012003
0.0139057
0.0326235
0.0112603
0.0105332
0.0824755
0.0230422
0.0107673
0.0235097
0.0137113
0.0126412
0.00977636
0.0147981
0.0325197
0.0102315
0.0317446
0.0334062
)
;
    }
    inlet
    {
        type            fixedValue;
        value           nonuniform 0();
    }
    outlet
    {
        type            zeroGradient;
    }
    wallInner
    {
        type            kqRWallFunction;
        value           nonuniform List<scalar> 
138
(
0.150699
0.0948742
0.0367997
0.0411869
0.0156667
0.103286
0.402334
0.029984
0.0349614
0.0408585
0.0475413
0.0892811
0.0158881
0.0202877
0.0394567
0.0353189
0.066941
0.0170237
0.108296
0.0763608
0.0292998
0.0111843
0.0420441
0.0282637
0.172247
0.037515
0.0167302
0.032329
0.575757
0.0229407
0.0353243
0.0442031
0.0331035
0.0215248
0.0459795
0.0871333
0.0526853
0.129292
0.0933451
0.0268307
0.0251044
0.0983103
0.0667021
0.0235456
0.0304978
0.0359327
0.213606
0.0262522
0.101086
0.0294777
0.0231932
0.039004
0.07306
0.0495329
0.141101
0.0289659
0.0182651
0.0737328
0.0544306
0.0279133
0.054938
0.0788257
0.115849
0.0191276
0.030216
0.118069
0.0282615
0.0289299
0.0277774
0.0786967
0.0252456
0.0425659
0.0257734
0.0507569
0.0230518
0.0260004
0.0335384
0.0638863
0.740489
0.102732
0.306048
0.194615
0.208562
0.259951
0.22975
0.0373737
0.15332
0.126275
0.0279053
0.635404
0.523562
0.038056
0.0698641
0.0836081
0.017786
0.0368895
0.189955
0.0247085
0.131096
0.0192524
0.0355209
0.0692908
0.0350896
0.25747
0.0387829
0.17514
0.020054
0.0755938
0.0303125
0.0676841
0.15293
0.0229257
0.0723976
0.0500826
0.0368966
0.0371326
0.0101938
0.0251926
0.0899335
0.0255875
0.414233
0.0746481
0.0170505
0.306049
0.0224246
0.06817
0.0408137
0.0164737
0.0254346
0.0453532
0.0203701
0.0342163
0.652803
0.0386471
0.251128
0.0601026
0.0449689
0.0338306
)
;
    }
    procBoundary2to0
    {
        type            processor;
        value           nonuniform List<scalar> 
42
(
1.128
1.128
0.129599
0.113377
0.0386075
1.3228
0.13432
0.13432
0.0392559
0.0382347
0.0758985
0.0758985
0.0457475
0.151919
0.266891
1.19794
0.489771
0.0369842
0.0394015
0.180468
0.138011
0.0365699
0.0365699
0.334514
0.138011
0.0438494
0.668773
0.0473963
0.668773
0.98508
0.677681
0.0502916
0.0496501
0.0461564
0.0457062
0.113377
0.489771
0.0830384
0.967219
0.104777
0.104777
0.0539189
)
;
    }
    procBoundary2to1
    {
        type            processor;
        value           uniform 0.258008;
    }
    procBoundary2to3
    {
        type            processor;
        value           nonuniform List<scalar> 
29
(
0.0593803
0.0729951
0.0292445
0.0241177
0.350748
0.0752554
0.0179444
0.0841125
0.0603265
0.0528707
0.08905
0.338729
0.0459539
0.04734
0.0465809
0.0370983
0.0657768
0.0657768
0.0729951
0.04734
0.0488285
0.0636739
0.0249147
0.0628083
0.0405384
0.0514987
0.0603265
0.32566
0.338729
)
;
    }
}


// ************************************************************************* //
