/*--------------------------------*- C++ -*----------------------------------*\
| =========                 |                                                 |
| \\      /  F ield         | OpenFOAM: The Open Source CFD Toolbox           |
|  \\    /   O peration     | Version:  v1912                                 |
|   \\  /    A nd           | Website:  www.openfoam.com                      |
|    \\/     M anipulation  |                                                 |
\*---------------------------------------------------------------------------*/
FoamFile
{
    version     2.0;
    format      ascii;
    class       volScalarField;
    location    "0.37";
    object      p;
}
// * * * * * * * * * * * * * * * * * * * * * * * * * * * * * * * * * * * * * //

dimensions      [0 2 -2 0 0 0 0];


internalField   nonuniform List<scalar> 
1466
(
77.4811
77.1886
76.5452
78.7893
75.8149
72.1961
79.7108
71.1031
76.5215
81.6064
77.1085
81.4422
80.1939
79.8389
79.3382
79.8021
78.9904
78.6358
76.4289
79.6976
79.2751
80.1428
82.1603
77.0217
79.9151
77.2328
77.1282
81.9851
79.8718
75.0465
73.3193
71.239
80.0982
76.4175
77.4795
79.1613
79.3007
79.9061
73.5901
80.1546
81.4684
81.3286
76.6403
73.7081
81.6964
76.2992
79.9088
78.6108
81.2015
79.6035
76.6452
81.478
74.3934
71.3145
80.2489
80.8427
79.7557
78.5135
81.3372
80.6765
79.6327
77.2059
74.4257
71.1512
77.347
79.3899
81.0245
79.0235
78.2854
80.042
77.2222
78.6739
80.0181
78.8825
80.0637
81.2479
78.8406
78.5229
79.891
80.4262
77.1546
78.8437
79.0791
81.1096
80.1883
80.1566
80.3085
77.4413
79.2332
76.9327
78.9764
80.0285
79.7099
78.5141
76.7291
79.7978
77.0303
81.5629
77.0474
79.0644
79.8058
81.8909
76.5044
76.9491
79.337
76.5436
78.8876
79.0787
77.0415
79.913
81.1538
79.26
76.4749
80.0241
80.1732
74.1804
79.5827
79.782
76.9444
78.4339
79.1814
77.7801
79.3633
77.2346
79.3846
79.4336
80.0975
77.0343
79.6326
77.1176
80.9327
78.7681
76.9693
81.1873
77.0694
80.1419
81.4721
80.4729
81.6963
78.7637
81.5142
79.7254
79.3217
79.0443
81.7098
79.7936
77.1204
76.9584
80.9282
80.0634
79.6032
80.1234
76.9889
77.0143
79.0011
77.1393
78.4655
76.1184
79.1996
76.8901
81.9498
79.2153
77.6077
79.468
81.7769
79.8394
77.0304
77.6524
79.6075
77.1238
80.2643
80.277
80.0979
80.5693
77.2129
77.131
81.6126
80.2934
79.5712
80.0109
78.4527
79.1924
80.8125
79.4094
77.2618
79.7111
78.9125
74.0024
79.0052
76.984
76.4354
79.9812
79.3228
77.402
79.5005
78.6468
81.6651
79.9697
79.7118
79.7429
74.9138
79.2274
79.1654
79.5504
80.1092
81.1399
78.999
76.57
79.353
80.3537
80.2254
75.0448
79.251
80.3579
76.9943
78.9194
76.6868
79.3935
79.7935
78.8771
76.9968
77.3133
79.8087
80.0937
80.2454
80.2244
79.6379
80.0382
78.9795
76.7853
80.5288
77.5488
78.9986
81.0267
79.164
80.135
80.9694
72.4004
80.8937
80.0115
76.6823
80.8074
80.266
81.6432
81.4301
79.0945
77.2348
79.4268
79.3047
79.091
78.9442
78.6193
81.0375
77.4103
79.0956
78.7506
79.5438
77.3451
74.2375
81.4355
80.4703
80.2939
78.9374
76.8487
72.7707
79.4733
76.2712
75.1993
79.2073
78.7677
79.2319
78.2778
80.6428
79.4997
80.1751
81.3132
77.2477
79.3331
77.0238
81.2734
80.0949
79.1822
79.2042
80.1058
78.9727
80.7255
79.0637
80.4067
76.9537
78.8057
80.3063
75.7018
78.7853
81.3728
80.8401
79.1958
74.1592
75.3944
79.2268
79.513
79.8503
75.0501
80.1239
78.91
79.8919
78.5991
77.074
81.0183
80.1643
76.0899
76.6091
76.8285
79.1807
81.083
80.9694
79.2339
75.4289
77.2331
81.4491
80.1454
80.0396
80.3015
80.6693
78.6007
76.9964
78.3961
77.2404
79.0183
77.215
77.1289
77.0224
78.502
77.2621
76.7983
76.9842
78.4918
79.1961
77.2353
76.534
77.1666
77.0249
78.6929
78.5527
77.0281
78.4301
77.2191
76.9608
79.1559
79.6249
76.8489
80.9214
80.5504
81.0356
81.1594
81.0906
79.23
75.1918
76.8181
75.4955
79.0631
76.9996
80.5918
79.9966
76.6762
80.2005
78.6477
77.1618
77.2455
78.9556
77.0215
77.1988
79.2204
76.7989
78.4411
76.8956
76.9953
78.4498
76.0882
80.3467
79.3206
80.6176
80.6541
78.8501
76.9808
80.2751
78.8912
80.3784
79.1867
80.8364
79.264
79.3168
78.0329
79.9416
76.2014
80.211
79.5304
79.8541
77.2457
79.5514
79.19
76.3114
77.2291
79.6843
80.6416
81.3181
78.6782
78.8968
74.5905
78.2271
76.815
79.1519
79.5399
79.3035
80.6908
76.3917
79.1392
78.7557
78.3542
79.2245
79.1754
78.4436
79.2311
80.0436
79.9956
79.9826
79.8687
80.0295
80.0858
79.8619
79.7806
75.7587
79.178
78.7682
76.8259
74.3612
76.7133
76.4843
71.5567
77.7213
77.5616
76.8091
79.1995
76.7851
78.0124
77.8101
76.5115
77.0282
76.8252
76.3442
78.3124
76.0995
76.447
77.8167
78.5267
76.6016
77.6099
76.6962
76.5239
77.6271
78.2828
76.6412
78.6803
78.5817
78.4123
76.8196
76.9116
76.8732
79.038
76.2999
77.4385
76.8867
77.9013
78.3681
77.7573
71.6207
72.9632
77.7117
77.6758
76.0301
73.2892
76.6124
78.7241
72.7071
78.4
75.8016
76.7778
78.3154
76.845
73.4354
81.3619
76.2978
76.727
78.1093
77.0393
79.2106
76.4084
73.8908
76.7016
76.8896
76.8527
76.7511
78.1272
79.6468
79.8893
77.1606
79.4831
81.2901
78.1311
78.1224
78.0061
77.2178
76.4669
77.5418
78.2258
77.857
77.8338
76.6867
78.0421
78.5155
78.4954
78.5948
76.3198
76.8501
74.3281
74.4525
79.4376
76.8335
76.9029
79.3675
77.1556
78.6118
79.7011
78.1747
78.1772
78.097
76.7897
81.7478
76.8452
79.9231
79.5007
76.7849
76.5949
76.8612
76.6978
78.0315
77.989
76.8836
75.9073
76.4798
76.722
78.1487
79.3681
76.7216
79.0956
79.5367
76.6438
75.9341
79.2205
78.6566
77.2164
79.3105
80.062
79.4102
75.5031
81.2905
80.5449
79.7599
80.1015
78.0076
75.6477
79.4314
77.0384
77.9501
81.7553
76.8965
78.0442
78.9728
77.2055
77.8294
77.8602
80.3692
80.2425
78.7931
79.63
79.8159
76.4544
76.5384
78.0913
76.0248
77.7893
77.0901
79.2099
81.4427
76.501
76.6722
78.0857
80.7676
79.891
76.253
79.4397
76.1015
76.7703
78.2578
76.612
77.2377
79.317
78.7164
79.2211
76.2787
74.822
79.9259
74.6132
77.3728
74.0769
80.113
77.213
76.0983
79.9019
77.0316
77.147
78.5957
79.4493
78.0797
80.6661
78.2607
78.2739
81.1443
80.2442
79.1152
76.6616
78.7445
74.973
76.496
77.0202
80.4557
80.2061
80.1402
76.6083
76.7542
78.2296
78.9127
76.8653
79.6005
77.4244
77.1988
81.6538
76.5362
76.8844
75.0127
78.8238
80.3647
76.3704
80.4564
76.609
79.1098
78.8932
76.8197
79.4551
78.8336
76.5324
79.88
76.5582
81.7722
78.6071
76.8873
76.6919
78.2657
80.6631
76.4929
80.5996
78.9214
78.7464
80.9831
76.6155
77.034
78.7933
77.9306
76.5248
78.4737
79.6135
77.2251
78.6092
80.1297
76.5477
81.2167
77.2463
76.4329
79.1843
76.8357
77.6594
79.0824
79.0712
77.5601
79.1856
76.4658
79.414
81.1807
80.5994
80.5484
79.1083
77.6352
76.5973
80.7564
76.7494
79.3021
77.1431
78.9053
76.6128
77.7688
76.9604
78.4319
78.6426
81.867
76.9264
78.4309
78.6454
80.8818
75.5128
79.2543
77.0732
79.1431
78.5933
78.0295
79.344
76.2168
80.3996
78.9509
80.0758
76.9584
82.0082
77.7401
77.1857
79.4619
81.0732
80.9843
76.4049
81.166
80.8872
77.1366
76.3706
76.7144
81.2662
80.7974
79.253
77.5594
78.9736
80.4303
76.6544
77.0617
81.5139
76.797
82.1083
79.436
79.8877
79.1384
77.0586
75.092
76.813
76.8242
79.5298
81.7959
76.8896
80.3801
77.1784
79.0437
77.0383
79.69
81.95
76.7274
76.7143
79.3479
73.2801
76.1966
80.2255
80.4058
80.5263
80.1091
81.3459
80.2435
76.8764
74.1016
76.8147
80.1669
80.3087
80.1624
81.0468
78.1879
80.0839
77.0642
79.8472
78.8058
78.7235
77.2094
79.6917
76.8775
77.4581
74.0682
79.2523
79.9704
79.2299
77.6867
79.287
78.119
76.7281
76.7721
76.9024
76.9845
79.6937
78.364
79.1189
74.8666
78.6957
78.9894
77.0083
79.7068
76.7091
78.107
76.7874
76.9409
76.985
74.7779
78.6492
78.6171
78.9401
79.53
79.4308
77.0698
80.4735
80.3296
76.8041
79.4055
79.2984
78.6973
77.1684
78.2919
78.7624
79.3136
80.1463
79.616
76.3473
79.0349
80.3952
81.4384
77.2048
80.8818
78.7311
81.0388
81.2109
78.2928
78.8111
76.7211
80.1242
79.2633
76.7437
80.0295
77.0293
78.9799
79.2856
76.96
81.6429
76.768
80.7989
75.8317
77.0289
78.4497
76.9291
77.9452
78.9274
78.968
78.7234
78.2862
80.3667
76.9996
75.7696
76.7809
80.255
78.9015
77.6258
74.239
78.4186
78.7849
76.6262
77.0754
78.9582
77.6618
76.8718
77.0105
79.1326
78.446
75.645
80.5566
80.1022
79.5282
80.3865
78.1675
74.2644
77.214
77.191
77.0761
82.0869
77.0489
78.2618
79.7895
78.2899
78.9923
79.2393
79.8055
79.263
81.3701
76.5706
80.0992
77.2322
78.1311
79.7437
79.8653
80.0379
81.4871
79.1235
77.5919
80.1911
77.4381
78.8884
77.3861
75.5849
76.6673
79.6858
78.8122
79.2284
79.6441
77.1854
78.8822
77.5625
81.1207
78.1883
79.4983
75.7142
79.4707
78.5048
78.9286
79.5437
79.4833
79.3692
79.4273
77.2743
77.2852
77.2626
77.2173
79.6212
77.135
77.0552
79.7052
79.7876
79.8628
77.0188
79.9286
79.9906
81.4687
78.7164
81.3079
79.9714
77.026
76.266
79.0203
80.0926
77.8042
76.975
76.8044
78.369
76.6409
78.9003
77.2456
79.3337
79.144
77.1039
78.7112
77.3263
78.3074
76.8336
77.0467
79.9119
76.8344
77.2362
74.2351
76.5034
78.9207
76.5435
81.6013
76.9385
78.6558
78.557
77.0228
81.1511
77.1899
77.0799
77.2038
77.19
78.7911
75.8546
76.9688
74.8333
77.1501
77.1113
79.9316
78.8135
81.4636
79.9445
79.8586
75.2581
80.098
78.7758
78.8601
77.6682
78.9177
79.6237
80.913
81.8996
78.2436
76.815
81.0713
78.3916
79.5278
78.5846
74.0774
79.3003
76.3544
81.9682
79.8373
81.5154
76.3639
72.9301
79.1447
76.6613
76.4209
82.2963
79.6179
78.5216
74.3432
80.503
80.7533
76.9208
73.8226
80.5847
79.1303
76.3984
81.4069
79.3832
77.0313
80.1382
78.9887
78.2465
76.832
77.0513
77.2094
76.5926
81.5021
79.0706
76.4876
77.1797
79.0982
76.6629
74.454
78.8797
78.6392
80.0739
78.6053
76.82
79.4877
74.1969
82.0742
81.5645
80.9986
82.0617
78.3813
76.8768
74.0762
80.2138
81.9824
74.3395
76.5102
76.8738
79.9307
80.0051
82.2832
77.1073
76.7895
81.5756
74.1138
81.4156
76.6826
79.2412
77.0359
79.7214
80.3904
75.1913
78.7476
79.0748
77.3897
77.1289
81.3076
79.2448
78.9908
82.2557
80.3376
77.6032
79.1339
80.5926
80.0991
82.221
82.1657
77.4407
77.1459
79.1893
80.4956
77.5824
77.2141
78.0203
79.2983
77.365
79.1217
82.1193
80.0239
76.7968
78.5407
78.5603
79.7668
79.2214
76.5693
77.215
82.0514
77.2702
79.2125
76.0603
80.736
78.459
79.2099
76.3037
78.903
78.2922
76.3753
77.2325
77.5589
81.4412
80.337
78.9098
79.0516
74.8798
80.1131
77.0366
78.8227
79.3558
77.3235
79.7266
79.8918
80.0949
80.3731
78.6018
80.5055
79.1606
75.9934
78.2775
76.6053
77.7888
76.1932
82.027
78.6314
76.8612
78.7622
79.7138
78.5006
77.2066
78.5487
78.612
75.9471
78.3522
77.772
75.0891
72.3413
77.0493
79.5549
78.3298
79.3875
81.871
78.0139
79.4988
79.5717
80.1017
78.6586
77.0323
77.4412
77.027
78.1095
80.7237
80.0682
78.1627
79.4334
74.6456
77.0578
78.0252
80.1049
79.6491
80.8149
77.1799
76.0843
80.403
78.783
77.551
79.9793
75.2803
77.2045
74.477
81.2308
79.1772
77.2236
77.0668
74.5821
79.2752
79.2827
78.5431
79.542
78.9159
79.9686
76.8097
77.011
80.6911
77.2159
78.7042
78.4214
75.9709
76.7765
78.7432
79.155
76.6179
80.1281
77.2207
79.681
78.6483
76.9568
76.9902
78.8393
77.0492
79.9985
78.9239
75.847
75.7404
78.029
74.7472
78.7039
77.4413
76.5236
80.5645
77.3663
74.0407
79.1232
76.3191
78.483
80.1216
79.2499
75.5171
78.5539
77.1571
80.1882
81.0666
78.9916
81.7407
79.4463
80.1204
79.0765
80.1592
77.4125
79.309
80.0366
77.7492
81.4787
80.4947
76.2612
76.5982
76.5262
81.2426
79.8122
80.0545
76.8289
77.4137
79.4627
74.0494
78.6226
77.0205
79.5893
79.5645
77.1183
78.738
82.0006
75.708
76.7027
76.8121
76.3284
76.4939
79.1249
80.1192
78.8918
78.059
77.4999
76.0089
80.3979
78.4955
77.1873
79.8288
78.7337
75.693
80.6933
79.1328
81.5494
77.3025
78.0657
77.8855
80.8158
78.7129
76.5761
75.5465
79.2304
76.2193
79.2374
75.7537
79.7196
79.3194
81.4697
78.6724
76.7519
79.7877
79.1641
76.4811
77.6794
75.8778
79.2011
76.7546
79.7694
81.3772
80.6781
78.3708
76.9178
78.9043
77.0372
77.0527
78.6763
78.4041
76.9547
79.6582
80.8982
77.126
78.4827
76.9597
78.4857
79.4469
78.2552
78.3421
76.9244
77.4999
78.8057
79.8243
77.205
81.3142
79.029
76.8861
79.7424
76.5683
80.4112
77.0562
76.8972
79.004
76.3944
80.1157
79.2397
76.1473
78.8445
76.6805
79.8762
78.3854
80.1795
78.3534
78.7826
77.0916
80.0003
79.7746
81.8348
80.3733
79.5846
80.0143
79.4605
82.0524
80.7896
81.9745
79.4291
77.2439
76.6705
77.2832
80.4069
80.3237
78.8777
77.3172
79.7963
80.7085
81.4764
81.6518
75.6873
78.9468
76.7798
80.0094
80.7439
80.218
79.1482
81.6986
79.9484
79.7203
77.0215
80.3404
77.1118
80.0311
79.1301
79.6209
75.3706
76.8758
69.7041
78.7661
77.4127
79.6054
79.5402
79.5508
79.4952
80.0616
78.691
77.3281
77.0658
77.1978
79.269
79.3858
77.3504
77.0743
77.054
79.8369
78.4584
76.6369
77.0532
81.87
80.1186
79.7931
79.6495
76.7422
80.0692
82.1664
79.8192
79.2036
76.0875
80.6288
78.7436
76.3385
76.2386
79.7767
81.6473
76.4015
76.9284
73.5272
77.6079
76.3441
76.6936
79.6379
80.1894
81.538
)
;

boundaryField
{
    frontAndBack
    {
        type            empty;
    }
    wallOuter
    {
        type            zeroGradient;
    }
    inlet
    {
        type            zeroGradient;
    }
    outlet
    {
        type            fixedValue;
        value           nonuniform 0();
    }
    wallInner
    {
        type            zeroGradient;
    }
    procBoundary2to0
    {
        type            processor;
        value           nonuniform List<scalar> 
42
(
76.5359
76.5359
77.72
77.6902
74.8005
76.33
77.689
77.689
75.1964
76.3889
75.348
75.348
74.8434
75.6907
76.0253
75.678
76.3619
76.6578
75.8459
70.355
72.6097
76.7379
76.7379
74.2029
72.6097
76.7647
74.6123
76.6965
74.6123
76.7603
76.5765
76.6912
76.802
77.0301
77.2952
77.6902
76.3619
77.7155
75.4108
77.6278
77.6278
77.5025
)
;
    }
    procBoundary2to1
    {
        type            processor;
        value           uniform 69.4633;
    }
    procBoundary2to3
    {
        type            processor;
        value           nonuniform List<scalar> 
29
(
69.5301
69.9762
79.9162
80.1195
70.2488
73.7142
81.5391
71.2095
79.8757
79.8456
72.5753
69.951
70.5793
81.2195
81.741
81.3107
79.6982
79.6982
69.9762
81.2195
81.5283
79.7111
82.1244
79.5528
81.9161
79.8766
79.8757
68.6401
69.951
)
;
    }
}


// ************************************************************************* //
