/*--------------------------------*- C++ -*----------------------------------*\
| =========                 |                                                 |
| \\      /  F ield         | OpenFOAM: The Open Source CFD Toolbox           |
|  \\    /   O peration     | Version:  v1912                                 |
|   \\  /    A nd           | Website:  www.openfoam.com                      |
|    \\/     M anipulation  |                                                 |
\*---------------------------------------------------------------------------*/
FoamFile
{
    version     2.0;
    format      ascii;
    class       volVectorField;
    location    "0.37";
    object      U;
}
// * * * * * * * * * * * * * * * * * * * * * * * * * * * * * * * * * * * * * //

dimensions      [0 1 -1 0 0 0 0];


internalField   nonuniform List<vector> 
1466
(
(0.319452 2.20735 0)
(-0.140042 1.77834 -1.06405e-16)
(0.537859 -0.23088 -1.60028e-16)
(-0.0653398 1.27511 1.41885e-16)
(-1.20831 -0.539919 -5.11906e-16)
(-0.321406 -0.21887 -4.70446e-16)
(-0.224531 -0.126577 3.30515e-16)
(0.143037 -1.09027 3.54439e-16)
(-1.25026 -1.45572 1.28696e-16)
(-1.38459 0.230647 7.1962e-16)
(0.375178 -0.0246613 -1.82901e-16)
(-0.0986192 0.990808 1.67202e-16)
(-0.0968232 -0.0844512 1.11516e-17)
(0.530751 1.41006 -1.12702e-16)
(1.46972 0.396235 -2.36132e-18)
(-0.000134232 0.665452 -1.47693e-20)
(0.943096 -0.0552777 6.90729e-17)
(0.169147 1.47695 -1.33555e-16)
(-0.629509 -0.600197 -1.6831e-16)
(0.0422925 1.42945 0)
(-0.225384 -0.360529 1.55071e-16)
(-0.0280005 0.211333 -4.01558e-16)
(1.19074 0.126594 0)
(-0.0707836 2.00287 6.29567e-17)
(0.665436 1.37827 -1.69459e-16)
(-0.0884506 -0.281218 2.04952e-16)
(-0.0884928 -0.313112 2.2419e-16)
(0.357484 0.456293 3.01357e-16)
(-0.0197617 0.0176147 0)
(1.5306 0.108634 3.8478e-16)
(-2.7792 -1.64555 0)
(-0.842037 -0.857371 6.84918e-16)
(-0.00566068 0.583176 -3.36261e-16)
(-0.490913 -1.54503 -9.24887e-17)
(0.459918 1.20255 0)
(0.984039 0.374719 2.61476e-17)
(-0.666337 0.282334 -1.81596e-19)
(1.22614 -0.529488 0)
(0.0923465 -0.308167 -5.90465e-16)
(0.41016 0.340894 3.30087e-16)
(-0.108824 0.82577 -1.81757e-16)
(-0.201739 0.00824852 -2.10107e-16)
(-1.23857 -1.28553 -3.75086e-16)
(-0.787209 -1.83489 1.76264e-18)
(0.994786 0.770157 0)
(-1.62213 -1.32963 1.75128e-19)
(1.42612 -0.706705 -1.5763e-16)
(0.0912994 1.27057 9.83166e-17)
(-0.2149 -0.125915 -2.9696e-16)
(-0.0278979 -0.497102 -8.73865e-17)
(-0.211332 -0.315272 0)
(-1.41128 0.113605 -3.1213e-16)
(-0.880509 -0.103127 3.76617e-16)
(-0.389607 -0.0436675 4.37749e-16)
(0.48723 0.163205 4.31447e-16)
(-0.286091 0.357811 -1.30125e-16)
(1.71238 -0.325956 0)
(0.6909 -0.918079 2.95007e-16)
(-0.175609 -0.0323806 1.76858e-17)
(-0.318245 -0.0014323 0)
(0.0122515 0.740271 -2.5635e-18)
(0.233761 -0.612963 1.07109e-16)
(-2.77335 -1.26016 9.44259e-17)
(-1.17426 -0.647653 -3.79374e-16)
(-0.215513 1.29815 1.9141e-16)
(0.215854 1.38309 -3.31867e-17)
(-0.214663 0.727872 -3.96919e-17)
(-0.359349 -0.208795 -2.03287e-16)
(0.0897377 1.55436 -1.25204e-17)
(0.0394666 0.211895 0)
(0.162854 -0.29226 0)
(-0.0555381 1.54186 -5.72191e-17)
(0.680939 -0.310143 -5.4833e-16)
(-0.0289812 1.63228 -1.94692e-16)
(-0.100957 0.0515262 4.55374e-17)
(-0.848468 0.415469 -2.07298e-16)
(-0.0465206 1.60691 4.80833e-17)
(0.0785239 1.65969 1.67424e-16)
(-0.237674 0.155507 0)
(-0.335517 0.0223935 0)
(0.464365 -0.374693 -3.5726e-17)
(0.0591415 1.45276 1.96705e-16)
(1.49329 0.0977527 0)
(-0.199538 -0.222327 1.79507e-18)
(0.552078 -0.187723 2.12805e-16)
(0.367073 -0.59296 -9.88639e-17)
(0.449219 -0.091973 -2.79193e-16)
(-0.351926 0.86793 1.4836e-16)
(0.285559 1.52643 -3.64832e-17)
(0.0311124 1.32632 6.15657e-18)
(-0.0112479 1.47576 1.02401e-16)
(-0.513767 -0.211485 0)
(-0.301021 -0.372886 -6.50926e-17)
(-0.0120655 1.28932 1.91317e-16)
(-0.561466 -0.232128 0)
(-0.399081 -0.329684 -2.07065e-16)
(-0.103479 1.13827 6.33964e-16)
(-0.177936 0.0302487 0)
(-0.102489 1.03878 1.53938e-16)
(0.0434079 1.41641 -1.61651e-16)
(-0.125956 0.0718796 0)
(0.402921 0.670207 -9.32757e-17)
(0.675586 -0.0523233 4.0265e-16)
(-0.136577 0.36858 -1.75691e-16)
(1.59789 -0.426149 0)
(-1.62639 -1.3853 -2.27097e-16)
(-0.435002 -0.0655563 1.88212e-16)
(1.51921 -0.0663486 -6.75522e-18)
(-0.0777184 1.68331 4.83662e-17)
(0.962815 1.10348 5.84979e-18)
(-0.107593 -0.0383053 2.42018e-17)
(0.25655 -0.332594 5.39784e-16)
(0.410622 0.474459 -3.53883e-16)
(1.18243 -0.517239 -2.02902e-19)
(-0.0975768 -0.220982 -2.19575e-17)
(-0.861127 -1.46991 0)
(0.214487 1.37937 -7.92972e-17)
(0.32372 1.46956 5.46546e-16)
(-0.0457803 1.23549 3.18137e-17)
(0.659985 -0.880723 -4.44019e-16)
(-0.776526 -0.118718 1.89781e-16)
(0.435461 1.98607 0)
(0.0876193 0.540104 -8.21267e-17)
(-0.431246 0.865633 -7.66998e-17)
(0.339167 1.3587 2.92928e-16)
(-0.216232 -1.30608 -1.03526e-16)
(0.0172285 0.0382396 3.12798e-17)
(-0.136107 0.25614 0)
(-0.276582 -0.75072 6.07344e-17)
(0.641798 -0.14095 -3.02335e-16)
(-0.0728391 -0.378786 1.36599e-16)
(-0.0632161 1.60143 -7.29677e-21)
(0.274993 0.806882 2.29872e-17)
(-0.113098 1.08379 -6.44559e-17)
(-0.296943 -0.463447 -1.08496e-17)
(-0.33602 0.0420592 1.58933e-16)
(-0.154673 0.119952 0)
(0.562187 -0.121393 0)
(1.43862 0.476239 3.41906e-17)
(-0.0277888 0.989323 9.2863e-17)
(-1.00143 0.147676 -1.06208e-16)
(-0.759815 -0.192162 -1.66048e-16)
(-0.213976 -1.06726 6.87017e-17)
(-0.0881136 0.164721 -4.85318e-16)
(1.22608 0.604787 1.39809e-16)
(0.602446 0.572565 0)
(-0.535391 0.287068 0)
(-0.235174 0.525337 0)
(-0.190947 1.16508 6.89463e-17)
(0.589093 -0.259153 2.70272e-16)
(-0.240405 -1.06107 -1.41223e-16)
(0.135612 0.248938 4.60737e-18)
(0.149795 1.37158 1.14125e-16)
(-0.117218 1.43008 -2.0891e-17)
(0.0454475 1.65001 -1.57644e-16)
(0.289235 -0.240605 -9.14626e-17)
(0.00040815 1.60657 -3.26501e-16)
(0.269253 -1.03883 1.83419e-16)
(-0.247602 -1.07454 -6.86781e-17)
(-0.190576 0.681441 0)
(0.625806 0.705 1.06124e-16)
(0.147529 1.38549 -2.33508e-17)
(-0.0608771 1.21296 2.69421e-16)
(-0.616726 -0.232335 1.86429e-16)
(0.171177 0.556072 -5.07202e-18)
(-0.317649 0.0594939 -6.85371e-19)
(0.128173 -0.759031 0)
(0.939599 0.401333 9.07592e-17)
(0.137203 1.22131 4.52213e-18)
(-0.226888 -0.235499 3.88892e-16)
(0.0969619 -0.428368 2.81137e-16)
(0.517396 -0.597792 2.54662e-16)
(0.138504 0.121699 0)
(-0.226699 1.19544 8.42247e-17)
(-0.237149 -0.272468 -8.48145e-16)
(-0.217318 1.4138 1.68147e-16)
(-0.00670579 0.430901 1.67864e-16)
(-0.327017 -0.347531 -2.31333e-17)
(1.39625 0.520058 -1.23865e-16)
(-0.326058 -0.363743 2.25438e-17)
(0.158111 1.73698 -1.77977e-16)
(1.26235 -0.45416 1.90319e-16)
(-0.116182 -0.498953 -3.3182e-16)
(0.277931 1.46874 -4.89653e-16)
(-0.326125 1.14308 -3.61325e-16)
(0.467029 1.3648 5.41337e-16)
(1.08479 -0.0688576 0)
(-0.00636534 -0.0642346 0)
(1.00183 0.238098 -4.91264e-17)
(-0.0827437 0.296948 0)
(-0.267752 0.831561 0)
(0.16239 0.914064 1.26934e-16)
(0.21465 1.44742 2.04371e-17)
(-0.188993 1.20721 -7.38936e-17)
(1.42205 -0.654975 2.7987e-19)
(-0.0345405 1.67545 0)
(1.60912 0.349858 -4.3179e-17)
(1.111 0.866398 -1.2002e-17)
(1.0419 0.955951 -1.16747e-17)
(0.870857 1.16853 -5.57487e-18)
(-0.0784475 -0.0573711 -1.06214e-16)
(-0.0279668 -0.368956 3.35044e-16)
(1.55185 -0.24428 -5.34488e-17)
(0.195017 1.31628 2.42732e-16)
(0.297335 0.405823 0)
(-0.235313 -0.096579 3.78176e-16)
(1.16124 -0.252304 1.50404e-16)
(-1.69564 -1.44648 1.07682e-16)
(0.975057 0.528998 4.63963e-17)
(0.711087 0.350424 1.02193e-17)
(0.931476 0.625395 4.8974e-17)
(0.168836 -0.410497 4.43186e-19)
(-0.137342 -0.498692 -1.13026e-16)
(0.944409 -0.364959 -2.75932e-19)
(-0.0902904 1.12384 -7.54641e-17)
(1.03099 0.0943301 2.58588e-17)
(-0.181879 0.379127 -8.59989e-17)
(-0.273709 0.0902093 0)
(0.158048 1.55763 0)
(-0.0613051 1.63201 -2.64493e-20)
(0.154837 0.144093 1.76243e-16)
(0.354006 1.94832 0)
(0.0687404 1.19864 5.80564e-17)
(1.30414 -0.645458 3.34665e-17)
(-0.256703 1.25771 -4.42234e-17)
(1.1143 -0.635515 0)
(0.633044 1.06054 7.7835e-17)
(0.234675 0.836287 1.22708e-16)
(-0.875154 0.190867 2.71103e-18)
(-0.517562 -1.11325 -3.52439e-16)
(0.681583 -0.229992 2.84142e-16)
(-0.370878 0.573464 0)
(0.216463 1.44358 -1.1328e-16)
(0.0464979 -0.14035 1.62769e-19)
(1.48086 0.250678 0)
(0.571672 0.72704 0)
(0.0499039 -0.234776 0)
(1.78992 -0.440904 -4.69829e-16)
(0.0497312 -0.356 -1.29473e-16)
(0.744155 1.21501 0)
(-0.928678 -1.34085 1.34716e-16)
(0.0149548 -0.479899 3.56065e-16)
(-0.232525 -0.204484 -4.24477e-17)
(-0.0428349 0.254745 -7.94919e-16)
(-0.137175 0.26679 0)
(-1.00262 0.0251714 -1.70473e-16)
(-0.137764 -0.0580585 -5.98269e-19)
(-0.949928 -0.155521 3.32469e-16)
(-0.57913 0.108645 0)
(-1.08838 -0.0428869 -5.37385e-18)
(0.119104 1.62717 -6.36371e-16)
(0.699343 0.0653625 -9.49679e-17)
(-0.225318 -0.257202 -1.40978e-16)
(-0.492267 0.505287 4.95773e-16)
(0.336242 1.20904 0)
(0.57345 0.191743 1.6267e-16)
(0.742683 0.854718 -1.17674e-17)
(0.534728 -0.517319 -6.36849e-17)
(0.269729 -0.178894 1.42435e-16)
(-1.54699 0.309791 -1.10015e-16)
(0.834477 -0.360964 -2.96918e-19)
(1.03068 -0.418521 2.58673e-16)
(0.529281 0.334713 3.72065e-19)
(-0.101746 0.790452 -2.47583e-17)
(0.122748 -0.154335 -2.32783e-16)
(1.64034 0.24371 -2.29668e-16)
(-1.60149 -1.57452 8.77166e-17)
(-0.101862 0.453482 1.62718e-19)
(0.0829018 -0.438042 -7.1314e-17)
(-0.070097 1.60712 -5.10488e-17)
(0.14966 0.833514 -9.18164e-17)
(0.300827 1.7982 5.39827e-17)
(0.527654 -0.186466 3.2395e-17)
(0.338814 0.621827 3.10665e-18)
(1.07818 -0.426007 -4.01529e-16)
(-0.161136 -0.0152311 7.47668e-17)
(-0.538829 0.431886 1.44048e-16)
(0.46829 0.88916 0)
(-0.220696 0.35715 -6.34459e-18)
(-0.206003 0.0853304 2.17832e-16)
(0.876226 0.895082 2.48586e-17)
(-0.812797 0.0843433 0)
(-1.06542 -0.103352 -3.52674e-19)
(-0.169769 -0.0450967 5.28484e-18)
(0.118862 -0.875457 -8.86333e-17)
(0.309368 -0.0628297 -1.09634e-16)
(0.261654 -0.897044 0)
(0.0781725 -0.181547 0)
(0.350775 0.492676 3.24231e-16)
(-0.0100618 0.922858 1.2908e-16)
(1.00352 -0.587006 -2.04803e-16)
(-1.9019 -1.83733 -4.02536e-17)
(0.479464 -0.931991 -4.06553e-17)
(-1.03237 0.452159 0)
(-0.194632 -0.458056 -1.92703e-16)
(0.163839 -0.563881 0)
(0.11197 0.259295 8.9812e-17)
(-0.40077 -2.26366 -1.8237e-19)
(-0.0205485 -0.731346 0)
(0.147978 0.388071 -2.25576e-16)
(0.310063 -1.07711 -5.87147e-17)
(-0.106035 -0.827393 3.86078e-16)
(0.104098 0.0218644 -4.42958e-17)
(0.34132 -0.985498 7.30153e-17)
(1.39142 0.446258 2.22972e-16)
(0.627493 0.276099 -4.02242e-16)
(-1.0426 -0.322124 -1.54893e-16)
(-0.056322 -0.271563 -1.54034e-16)
(-0.393363 -0.00199806 5.31745e-18)
(0.319047 -0.326866 2.8418e-16)
(-0.469243 -1.01049 2.91383e-16)
(-0.741046 -0.134272 3.96715e-17)
(0.142494 -0.416325 -1.39891e-16)
(-0.176632 1.07281 -2.34508e-16)
(-0.172928 -0.361884 7.15589e-17)
(0.00834515 -0.281015 -2.66417e-17)
(0.370739 0.325754 -3.54216e-19)
(-0.207143 -0.191175 2.02438e-16)
(1.26262 0.414371 0)
(-0.0799609 0.112247 -4.09383e-17)
(1.08958 -0.736144 -2.76452e-17)
(-0.318929 0.4726 -1.61703e-16)
(-0.0728528 -0.631355 5.66942e-16)
(1.51822 0.00097703 -1.57068e-16)
(-0.334171 -0.0358785 1.82559e-16)
(-1.04491 0.0950441 -1.1915e-16)
(-0.204483 -0.0903449 2.18015e-17)
(-0.719011 -0.10894 0)
(0.204817 -0.0557185 0)
(0.47243 -0.191684 -1.50746e-16)
(-0.867369 0.000293183 0)
(1.50271 -0.0690551 3.33163e-16)
(-0.0252911 -0.0782527 2.11231e-17)
(1.22682 -0.13995 0)
(-0.575328 -0.0927752 -1.19617e-17)
(1.57899 -0.0289461 0)
(0.0303238 0.0159076 -5.32194e-17)
(-0.251292 -0.0693698 -1.29462e-16)
(0.408565 0.109844 -1.49228e-17)
(0.192263 -0.131799 1.63512e-16)
(-0.791323 0.100629 0)
(1.29788 -0.138273 -2.58306e-16)
(-0.600409 0.139918 0)
(-0.609367 -0.0707815 0)
(-1.14163 0.030965 -1.26215e-16)
(-0.103415 -0.0208204 0)
(-0.173293 0.161951 -8.66279e-17)
(0.491661 -0.155142 8.55338e-17)
(0.114429 -1.15657 9.88699e-17)
(0.18243 0.366985 -3.5734e-16)
(-0.254287 -0.286026 5.44493e-17)
(0.678453 -0.355347 5.41379e-16)
(-0.258332 -0.0607515 -5.42598e-17)
(-0.0675504 -0.128344 -4.89204e-16)
(-0.0545545 -0.177721 2.84167e-16)
(-0.10247 -0.23485 -4.96526e-18)
(0.397136 -0.0992004 -4.03109e-16)
(-0.192308 0.579857 3.88499e-16)
(0.325364 0.221656 -2.29975e-18)
(0.328324 -0.681758 -1.93524e-16)
(0.358468 0.369848 0)
(-0.310528 0.422009 1.71382e-16)
(-0.318212 0.510943 1.76131e-16)
(1.38266 -0.0504508 -2.41537e-16)
(-0.137144 0.404786 3.68698e-17)
(-0.972121 -0.0692152 0)
(-0.411163 -0.0927259 -2.17789e-17)
(0.10768 -0.0592565 -1.54017e-17)
(0.995197 -0.170444 1.22741e-16)
(-0.498789 0.163163 0)
(-0.0239999 -0.0460474 2.05133e-17)
(0.143252 -0.106746 -9.43359e-17)
(0.176833 0.14447 -2.6892e-16)
(1.57844 -0.055822 0)
(0.758701 -0.0787491 -3.96042e-16)
(-0.799833 -0.0794618 0)
(-0.85841 0.134261 8.42091e-17)
(-0.443023 -2.03624 -7.41411e-18)
(0.813055 -0.258745 3.67489e-16)
(0.129369 -0.604351 -2.12082e-16)
(0.405081 -0.0742631 2.87008e-17)
(-0.168901 1.10636 -2.35374e-17)
(0.241565 -1.04111 -6.51712e-18)
(-0.602003 -0.232538 -8.16241e-17)
(-0.22175 1.23168 -1.97889e-17)
(0.428819 -0.854289 3.54978e-16)
(0.284638 -0.312063 1.08238e-16)
(0.159201 -0.55126 0)
(0.181573 -0.332156 0)
(-0.167306 -1.26844 0)
(-0.213247 -1.34762 3.06223e-16)
(0.852567 -0.202828 0)
(-0.289158 1.27481 1.0336e-17)
(-1.06074 -2.21942 5.2959e-17)
(-0.347748 0.0881933 -4.28691e-17)
(1.00357 0.727262 -7.04953e-17)
(-0.302235 0.957729 1.4879e-18)
(-0.05499 -0.130619 -1.44414e-16)
(1.6438 -0.568293 -7.29118e-17)
(0.135031 -0.030685 5.66635e-17)
(0.595048 0.0492393 3.57945e-17)
(0.112311 -0.161889 -4.2498e-18)
(-0.318647 1.24097 -1.39728e-16)
(0.545587 -0.319416 -2.64323e-17)
(-0.240735 0.538532 0)
(0.10125 -0.76983 2.61449e-16)
(-0.0103984 -0.30428 -1.3855e-16)
(0.509725 0.411179 -2.83577e-16)
(0.752895 -0.282369 -9.21565e-17)
(-0.529384 0.533256 -9.43119e-17)
(0.133911 -0.766118 2.08626e-17)
(-0.408312 1.42384 -2.94345e-16)
(0.498854 -0.812209 5.24831e-17)
(-0.0422662 0.264722 4.3899e-17)
(-0.918209 -1.30933 -3.53718e-17)
(-0.138453 -1.19867 1.33796e-16)
(0.176552 -0.320706 -3.32784e-17)
(0.692658 -0.565096 -3.15562e-19)
(-0.234013 -1.30602 0)
(-0.190533 -1.30573 0)
(0.68897 -0.672273 6.75534e-16)
(-0.153268 -0.771417 8.52235e-17)
(-0.261608 0.253805 -1.69093e-16)
(-0.434568 0.289364 6.01835e-16)
(-0.329528 0.192648 -3.73152e-16)
(-0.239951 0.1471 8.08549e-16)
(-0.347158 0.71744 -1.65276e-16)
(-0.30338 0.42101 -4.5956e-16)
(-0.304891 0.000794489 -3.32883e-16)
(-0.179405 -0.0143102 -3.64969e-16)
(-0.172387 0.831613 -1.86759e-17)
(0.188072 -0.672405 -4.24205e-17)
(0.182953 -0.676885 3.80028e-17)
(-0.0239022 -0.830595 -5.9363e-20)
(0.226303 0.203098 -1.24182e-16)
(-0.235706 -1.27391 -1.53452e-16)
(-0.676625 -0.916586 2.46694e-16)
(-0.935733 -1.72007 1.86308e-16)
(-0.0839866 -0.337814 4.74467e-16)
(0.438445 0.218721 -2.01156e-16)
(0.0236522 -0.593233 -5.42233e-17)
(-0.256451 -1.22989 0)
(0.256032 -0.511177 4.19127e-16)
(0.0538054 -0.838539 4.49573e-17)
(0.258323 -0.160669 -2.60892e-16)
(-0.429476 -0.518827 -2.53839e-16)
(0.524147 0.21582 0)
(0.340797 -0.0516323 3.34144e-16)
(-0.502668 -2.35837 0)
(0.608345 -0.679807 7.01005e-17)
(-0.347835 -2.37568 1.84567e-16)
(-0.544979 -0.778367 0)
(-0.0777047 -0.709 -5.08256e-17)
(0.637979 -0.59917 -3.54625e-16)
(-0.468155 -0.565678 -8.17996e-17)
(-0.318331 -0.522681 -3.20623e-16)
(0.173216 -0.13161 -6.3462e-19)
(-0.210026 -0.296061 0)
(-0.176685 -0.605372 0)
(0.503052 -0.797887 -1.15255e-16)
(-0.261625 -0.25877 1.88478e-16)
(0.342474 -0.665008 3.08781e-18)
(0.550977 -0.674539 3.13391e-16)
(0.656174 -0.773931 3.6625e-16)
(0.0377946 -0.363635 -7.72537e-17)
(0.0608324 -0.213264 0)
(-0.382291 -1.06932 1.68126e-16)
(0.317265 -0.857273 -1.08347e-17)
(-0.254742 0.976922 0)
(0.550226 -0.726656 1.08829e-16)
(-0.226823 -0.585371 3.61737e-17)
(-0.0782915 -0.640426 -3.47793e-17)
(0.614691 -0.84546 -2.58986e-16)
(-0.243077 -0.637711 6.66182e-17)
(-0.270071 -0.983765 -8.53728e-16)
(-2.43255 -2.05658 -4.54008e-16)
(-0.180505 -0.281645 0)
(0.00688437 -0.166365 -4.96657e-17)
(-1.0927 -0.984568 -1.06386e-16)
(-0.264445 -0.588307 2.66483e-16)
(-0.333461 0.923351 -4.72065e-17)
(0.417077 -0.861029 -5.07608e-17)
(-0.341776 -0.840951 4.68477e-16)
(0.198705 -0.570568 -1.64239e-16)
(-1.80691 -1.83435 0)
(-0.423283 0.709494 1.27277e-16)
(0.506576 -0.462756 -5.38227e-16)
(0.280843 -0.570199 6.33994e-17)
(0.1254 -0.773628 -2.13718e-16)
(1.27046 0.283742 -4.7261e-17)
(-1.62707 -1.6202 -1.22197e-16)
(-0.438527 0.561091 -9.00568e-17)
(0.322124 -0.29662 9.57585e-17)
(0.281178 -0.607278 -4.29842e-17)
(-0.522126 1.07752 0)
(-0.952147 -0.89297 1.46039e-16)
(-0.177845 -0.499588 -1.42342e-18)
(-0.301958 -0.296788 1.48112e-16)
(-0.0939271 -0.270388 -1.46023e-17)
(-0.12474 -0.485663 1.28424e-17)
(-0.649215 0.348741 1.82099e-16)
(0.661938 -0.088889 1.20217e-17)
(-0.290842 0.739319 5.04514e-17)
(-0.312231 1.36146 -4.61278e-17)
(0.230536 -0.540642 4.54312e-17)
(-0.323278 1.08344 -1.04185e-16)
(0.673128 0.334818 3.70413e-16)
(0.215473 -0.775237 -2.00118e-17)
(0.744745 -0.35565 -3.9339e-16)
(0.156249 -0.537592 -1.06549e-17)
(0.680985 0.122331 -4.25176e-16)
(-1.26852 -1.1586 0)
(0.679303 0.167441 2.74108e-16)
(0.401046 -0.908256 7.23441e-17)
(0.234793 -0.856492 -6.0766e-18)
(0.536963 -0.116038 -8.63941e-17)
(-0.459784 0.364972 2.73397e-18)
(0.278583 -0.0352614 -9.8988e-17)
(0.659188 -0.738264 -5.19011e-16)
(0.652602 -0.830501 -1.86833e-16)
(0.593736 -0.802709 8.69412e-16)
(-1.03121 -1.59946 4.0385e-17)
(-0.171194 -0.0505251 1.50419e-18)
(0.131656 0.251855 3.25999e-16)
(0.0251713 0.322593 0)
(-0.0850209 -1.29737 2.24292e-16)
(-0.162713 -0.188386 0)
(-0.0923345 0.0407181 1.02008e-16)
(-0.0790637 -0.651657 8.55598e-17)
(0.0247845 -0.54304 -5.07652e-17)
(-0.291362 -0.61378 3.50111e-16)
(-0.301843 0.539551 -4.5184e-17)
(0.396659 -0.666761 -6.40093e-17)
(0.584179 -0.54294 1.28479e-16)
(0.325523 -0.987932 0)
(-0.158486 -0.0708921 0)
(0.409961 0.947256 1.76786e-16)
(-0.325353 -0.411352 -3.45052e-17)
(0.167915 -0.570458 -4.48159e-17)
(-0.00860909 -1.17923 -3.9737e-16)
(-0.27544 -0.212614 4.40713e-17)
(-0.605389 -0.841401 3.97641e-17)
(0.348663 0.161359 2.67902e-16)
(-0.421891 -0.51705 -1.26316e-16)
(0.40584 -0.435872 1.08892e-16)
(0.614728 -1.01914 -4.45322e-17)
(-0.751063 -0.0317984 0)
(-1.38408 -2.28638 0)
(-0.8125 -1.20273 0)
(-0.749301 0.117601 9.7588e-17)
(0.63896 0.0866675 2.79849e-16)
(1.79539 -0.25472 -7.20462e-18)
(-0.500538 -0.784843 7.10672e-17)
(-0.124191 -0.730171 7.95152e-17)
(-0.273749 0.0775892 -1.36589e-16)
(0.0782046 -0.0656957 0)
(0.271952 0.684357 -1.39275e-16)
(0.182504 -0.481748 -5.87068e-17)
(0.363042 -0.413765 -1.39679e-16)
(0.532659 0.367477 -6.98713e-17)
(0.102832 -0.41508 5.16275e-16)
(0.140408 -1.06843 1.2063e-17)
(-0.24425 -0.369636 8.74534e-17)
(-1.61158 -2.42968 0)
(0.101257 0.451657 -5.79048e-16)
(-0.311601 -0.329288 -9.40274e-17)
(1.09535 -0.747016 0)
(0.410884 0.595059 4.58661e-17)
(0.625982 -0.322621 -1.19348e-17)
(-1.3032 -2.50887 1.53842e-17)
(1.92855 0.00930734 0)
(0.249157 0.150204 0)
(0.817494 -0.181657 1.02439e-16)
(0.825571 0.901626 1.93694e-16)
(-0.411766 0.347544 -7.44502e-17)
(0.887187 -0.190806 1.24597e-16)
(0.32371 -0.280123 1.43127e-16)
(0.15915 -0.418325 0)
(0.722069 -0.0972676 -1.34696e-16)
(0.945684 -0.0939988 9.98884e-17)
(0.0536361 -0.854418 -1.04016e-16)
(1.00031 0.346501 8.04054e-17)
(0.134793 0.0557327 0)
(-0.295987 0.970293 2.28846e-16)
(1.51543 -0.674688 0)
(-0.201122 -1.96347 -7.0282e-19)
(-1.32971 -1.17924 -1.67141e-16)
(-0.244904 0.223535 9.09489e-17)
(-0.954024 -2.50361 0)
(0.575477 -0.542265 1.06776e-16)
(-0.264024 0.113494 -2.23423e-17)
(1.08802 0.222218 1.63874e-16)
(0.943889 0.538334 4.67968e-16)
(0.305043 0.000709313 0)
(-0.49881 0.116153 0)
(0.233793 0.161265 -8.84857e-17)
(-0.257383 0.825539 -7.92654e-17)
(-0.252162 -0.970381 -1.07209e-17)
(-1.07817 -1.90906 0)
(-0.260454 0.579825 -1.67638e-16)
(-0.634415 -2.46446 1.10082e-16)
(-0.846454 -0.142805 -1.7517e-16)
(0.548626 0.243143 -3.60327e-16)
(-0.121734 0.291913 4.05003e-16)
(0.0161235 -0.228645 2.33425e-16)
(0.200684 0.755052 2.70446e-16)
(0.331605 -0.0164976 0)
(0.173449 -0.548649 -1.63072e-16)
(-0.879758 -1.22218 -1.09381e-19)
(-1.09272 -2.4335 3.26997e-16)
(-0.296428 -0.712489 -1.08567e-17)
(-0.929244 -0.724503 7.08966e-17)
(0.267945 -0.837612 2.67437e-16)
(0.390887 0.376563 -3.74672e-16)
(0.0931382 -0.0714759 0)
(0.114491 -0.330318 -2.11405e-16)
(-1.29785 -1.95159 -7.22661e-18)
(0.236373 1.34288 -4.924e-16)
(0.411147 0.237743 5.48809e-20)
(-0.878119 -0.388015 -1.73616e-16)
(0.291724 0.399749 -1.92598e-16)
(1.03151 -0.64769 -1.32402e-16)
(0.209667 -1.17073 -3.60056e-19)
(-0.241504 -0.542904 0)
(-0.277869 0.394522 0)
(0.76121 -0.389194 -1.49344e-16)
(-0.0822119 -0.0560104 -1.30735e-16)
(0.63275 0.590148 -5.19586e-17)
(0.813582 -0.449444 -8.77155e-17)
(-0.570049 -1.46605 -9.37349e-17)
(0.685678 0.160541 0)
(-1.4279 -2.47795 -1.29345e-17)
(0.0343865 0.0583573 -2.46812e-17)
(1.3011 0.136675 2.05658e-17)
(-0.279766 0.888382 7.26296e-17)
(-0.291649 -0.658928 2.31701e-17)
(-0.298112 0.936109 0)
(-0.678542 -1.09973 6.37225e-18)
(-0.546374 -0.151725 -8.5628e-17)
(0.16538 0.340888 8.63403e-17)
(0.688367 -0.235039 0)
(-0.00991947 0.0772989 1.52261e-19)
(1.85418 -0.224977 -5.41082e-17)
(0.207378 0.215331 -2.50136e-16)
(0.217217 -0.139113 4.04268e-17)
(0.196906 0.835187 0)
(-0.118811 0.168135 -3.93493e-16)
(0.295389 0.507284 -3.49223e-16)
(-1.68161 -2.01113 1.30921e-16)
(0.597585 -0.0408933 0)
(0.333704 0.350152 -4.35254e-17)
(-0.742323 -2.21177 0)
(-0.271463 -0.599509 0)
(-0.139079 -0.0957515 0)
(0.0984112 -0.952817 -7.15601e-17)
(0.552819 0.044793 2.52248e-16)
(-0.936701 -1.25126 8.72343e-17)
(-0.391624 1.28194 7.90145e-16)
(0.544546 0.12404 -5.20873e-17)
(-0.296916 0.099198 -3.05094e-18)
(0.0160415 0.598916 -7.0728e-21)
(-0.867385 -1.49 -4.95545e-18)
(0.614231 0.95729 -1.89256e-16)
(0.302355 -0.708187 1.393e-16)
(-0.576264 -1.15589 1.0647e-16)
(-0.570606 -1.11754 -8.34702e-17)
(0.933932 -0.0655149 1.56313e-16)
(0.237897 -0.542059 -4.51039e-16)
(-0.820362 -1.84004 0)
(-0.153665 -0.66852 -8.30503e-18)
(0.515822 0.254799 3.81721e-17)
(-0.265279 0.243639 1.01136e-16)
(-0.00500823 -0.0434712 1.20958e-16)
(-0.320934 0.29023 1.62954e-16)
(-0.230651 0.0275543 -2.17536e-16)
(1.38884 0.0594798 -6.37444e-19)
(0.399197 -0.762768 -1.80566e-19)
(-0.779074 -1.42605 0)
(-0.282156 0.490592 0)
(-0.0497285 -1.29893 3.83434e-17)
(-0.59297 -0.412302 2.66444e-21)
(0.00713217 0.478288 1.90697e-16)
(-0.1234 0.116715 0)
(0.0422009 0.180936 1.45306e-16)
(-0.161065 -0.138409 0)
(-0.0214275 -0.214623 0)
(-1.5862 -1.40518 5.7288e-17)
(0.305984 -0.417648 -1.59198e-16)
(-0.612707 0.0855313 -4.60458e-17)
(-0.153252 0.811776 -4.08941e-17)
(0.115581 1.62694 7.52922e-17)
(0.487055 0.360884 -1.25722e-17)
(-0.0855965 -0.205786 3.24808e-16)
(-0.27042 -1.20689 1.01002e-16)
(0.263037 -0.95872 -1.82195e-16)
(0.546325 0.592559 3.72325e-17)
(-0.220459 0.18241 9.95075e-17)
(0.468212 -0.464145 -1.9339e-16)
(-0.0702379 -0.730301 9.41277e-17)
(-0.124875 -1.01892 -2.05312e-16)
(0.813896 0.0579978 2.50365e-16)
(0.0745801 0.234908 -1.83539e-16)
(-0.285188 -0.309725 9.78303e-17)
(-0.141084 -0.0967345 1.00376e-19)
(-0.198932 -1.23798 1.14109e-16)
(0.208537 1.92224 -2.3367e-17)
(0.0208325 -0.697108 0)
(-0.521634 -1.79242 0)
(0.861078 -0.0315483 -2.71749e-16)
(-0.5973 -0.36434 8.53807e-17)
(0.0879962 0.455354 -1.84316e-16)
(-0.324501 0.101126 1.13215e-17)
(1.66461 0.223368 2.22197e-17)
(-0.917825 -0.350762 0)
(0.427444 0.351783 1.85146e-16)
(0.00915965 1.61406 0)
(-0.288684 -0.0281646 0)
(-1.10314 -2.62692 -9.0035e-17)
(0.468238 0.457042 0)
(0.10921 -0.24999 -4.76407e-16)
(-0.126234 0.670657 4.80903e-16)
(0.504104 -0.462905 9.75126e-17)
(-0.198296 0.0250256 -9.22403e-17)
(-0.224303 -0.756714 -7.98053e-17)
(-1.1516 -1.65809 -1.48433e-16)
(0.850494 -0.534237 -2.46177e-16)
(-0.00527251 0.303896 1.97595e-16)
(0.711765 0.99073 -1.28176e-17)
(0.212078 0.327052 -3.37414e-16)
(1.23201 0.461326 -1.09485e-16)
(0.76419 -0.348104 6.67158e-17)
(0.298621 1.41527 0)
(-0.153451 -1.33444 -2.14898e-16)
(-0.220679 0.00876965 1.10355e-17)
(-0.198091 0.0238357 -4.12394e-17)
(-0.719362 -1.13182 -1.39193e-19)
(-0.240856 0.0115951 -1.13719e-17)
(-0.168152 0.0570379 0)
(-0.450057 -0.114581 -2.74238e-16)
(-0.376507 -2.28695 0)
(1.45205 0.0192011 3.40721e-16)
(-0.257522 0.0186168 -9.20159e-17)
(-0.191445 0.00956309 0)
(0.097554 0.498827 7.76697e-16)
(-0.0304152 1.28735 1.5041e-16)
(0.557399 -0.558046 -2.994e-16)
(0.1166 0.176938 -4.46251e-16)
(0.370416 0.267765 2.65945e-17)
(0.383983 -0.0638484 0)
(0.00646182 0.650308 2.56063e-16)
(-0.506968 0.317394 8.06774e-17)
(0.0852134 0.141211 1.7724e-16)
(-0.409034 0.231249 1.4376e-16)
(-0.172704 -1.11588 4.60942e-17)
(-0.146886 -0.3506 4.19347e-17)
(-0.0940534 1.0225 -1.02708e-20)
(0.493329 -0.169278 1.48615e-18)
(-0.071975 -0.830043 0)
(-0.319543 0.44325 4.7348e-17)
(-0.024111 0.370041 0)
(-0.169779 0.0910004 1.61902e-19)
(0.772959 0.293131 -3.32558e-20)
(-0.0894315 -0.849825 5.08381e-17)
(-0.591514 0.150831 -1.33834e-16)
(0.716119 0.462351 0)
(-0.137911 -1.00462 -6.78986e-17)
(-0.113591 0.204554 -3.97694e-16)
(-0.0680033 0.111507 -3.60505e-16)
(-0.352001 0.375545 0)
(-0.797321 0.0986137 1.25878e-20)
(-0.0444912 0.999251 -1.64051e-16)
(0.360942 -0.244943 5.61717e-16)
(-0.494355 -0.233557 5.48047e-16)
(-0.0905176 0.150989 -5.078e-16)
(-0.195043 -0.771579 -2.02623e-17)
(0.225742 -0.668879 1.84762e-16)
(0.207719 0.240276 -3.26361e-17)
(-0.135806 0.425193 -1.83749e-16)
(0.0801661 0.265712 1.50872e-20)
(-0.484819 -0.689207 1.16383e-16)
(-0.070351 -0.216843 8.48039e-16)
(0.0281774 0.139538 1.14888e-19)
(-0.286487 -0.0720631 0)
(-0.191592 0.160709 9.10262e-17)
(-0.230189 -0.878915 7.66166e-20)
(-0.153978 -0.284773 -1.19795e-16)
(-0.721717 0.253368 -8.48177e-17)
(-0.15501 -0.389658 4.31202e-17)
(0.45508 -0.0611849 -3.31086e-16)
(0.0323882 1.11983 1.11446e-16)
(-0.0570295 0.603377 -8.69948e-17)
(0.53245 0.354768 1.5621e-16)
(-0.844639 -0.17375 2.00916e-16)
(0.286007 1.14485 2.90164e-16)
(-0.61416 0.719973 -2.05754e-16)
(0.194366 -1.01009 -4.529e-16)
(0.434637 0.440064 -8.81824e-20)
(0.356128 -0.322454 -2.0351e-19)
(-0.181705 0.383126 2.95195e-16)
(0.124747 0.784005 -2.58284e-16)
(-0.024518 1.41603 0)
(-0.186832 0.610342 2.73637e-16)
(-0.693922 0.0694215 -9.37243e-17)
(-0.798699 -0.0159206 3.83095e-17)
(-0.192347 0.49701 2.59295e-17)
(-0.41784 0.0917309 4.26806e-17)
(0.409255 0.351884 1.45028e-16)
(1.72812 -0.493999 -8.63482e-17)
(-0.695287 0.390807 8.46077e-17)
(0.352368 0.55637 2.67631e-16)
(0.24466 0.290963 -4.69393e-16)
(-0.158025 0.0306187 -2.28127e-17)
(-0.860319 -0.00400297 -3.41601e-16)
(0.372445 0.514558 0)
(0.059013 1.22453 -6.54305e-17)
(-0.919504 -0.922828 -3.68556e-19)
(0.19472 1.61851 -5.85996e-17)
(-0.757617 0.0599481 -4.0181e-17)
(-0.132081 1.06208 -2.64426e-16)
(-0.667735 -1.08472 6.12616e-17)
(-0.0889425 -0.0508612 -2.28926e-16)
(-0.255462 0.477132 -2.83119e-18)
(0.607442 -0.0711743 -8.2543e-17)
(0.00461153 -0.970405 8.23632e-17)
(1.49859 -0.00626242 0)
(1.48658 0.00661565 0)
(-0.0502775 2.06036 -3.38962e-18)
(0.69975 -0.501234 -4.18822e-16)
(0.488129 -0.617232 2.32682e-16)
(0.671948 -0.480853 0)
(0.107552 0.456485 0)
(-0.22415 -1.32654 -1.59864e-17)
(-0.447693 0.388733 -8.70683e-17)
(0.309499 -0.0394672 1.41928e-16)
(-1.02448 -0.0692566 1.42284e-16)
(-0.179997 0.150826 1.06326e-16)
(0.27387 0.507539 -9.10208e-16)
(-0.125716 -0.98882 0)
(0.359191 0.817764 -1.0205e-16)
(0.553705 -0.115395 -6.99071e-17)
(-0.145868 -0.329293 0)
(0.41096 -0.676093 -1.72623e-16)
(0.670519 0.683733 -2.43375e-16)
(0.641486 -0.291889 7.26832e-16)
(0.0640782 -0.0465107 -1.29873e-16)
(0.315116 -0.872319 -2.15113e-16)
(-0.249775 0.277116 0)
(-0.164238 0.587963 0)
(0.876422 -0.13773 1.54539e-16)
(0.167668 -0.927364 -7.18948e-17)
(-0.0377899 0.0709143 2.0467e-16)
(0.0108807 -1.02516 0)
(-0.196152 0.10633 8.99171e-17)
(0.113973 0.256597 8.35079e-20)
(0.0491639 -0.0425568 0)
(-0.0323527 -0.580174 0)
(0.18124 -1.05583 4.58063e-17)
(-0.372883 -0.153606 0)
(-0.438338 0.207416 2.84533e-17)
(-0.237251 0.0661651 1.7996e-16)
(-1.06485 -1.14647 1.44626e-16)
(0.120188 -0.00144373 4.28978e-16)
(-0.246869 -1.75083 -9.66928e-17)
(-0.156735 1.40687 -1.8035e-16)
(0.755987 0.20647 1.83595e-16)
(-1.14614 -0.325124 0)
(0.282705 1.7539 -6.28256e-17)
(-0.888316 0.100315 1.80572e-16)
(0.0222666 0.523985 0)
(-0.437157 0.214426 -1.49827e-16)
(-0.732939 -0.264685 0)
(0.478896 -0.164217 -2.49299e-16)
(0.356434 0.554101 0)
(-1.40323 -1.91562 -1.37425e-16)
(-0.732584 0.1812 4.60793e-18)
(0.78168 -0.645675 1.22655e-16)
(0.131825 1.42165 6.2917e-16)
(-0.311926 0.471977 0)
(0.234749 0.217593 -6.2575e-19)
(0.724033 -0.437553 1.93281e-16)
(0.0536226 1.00131 -1.64818e-16)
(-0.620358 -0.0567245 3.91089e-17)
(0.397365 -0.173088 -1.51336e-16)
(-0.171547 -0.748828 1.70385e-16)
(0.346663 2.08695 3.2262e-17)
(-0.597091 0.219052 5.02914e-18)
(-0.0994647 1.29363 -5.10837e-16)
(0.411578 0.287408 -1.61498e-16)
(0.762277 -0.187486 2.87389e-16)
(-1.31281 -0.992509 2.67092e-16)
(0.0677339 -0.702148 -1.01669e-16)
(0.757908 -0.689129 -8.23395e-17)
(-0.30422 0.149867 -7.71248e-17)
(0.315215 0.247596 3.98093e-16)
(-0.650725 -0.117305 1.81428e-16)
(-0.269681 -0.123655 1.15155e-16)
(0.101926 -0.27888 0)
(0.0778001 -0.326311 0)
(0.0341996 -0.0622008 -2.03461e-16)
(0.320556 0.271685 2.77853e-16)
(0.0943457 1.86148 -2.50287e-17)
(-0.26082 -0.433845 -3.04197e-16)
(0.0434073 -1.21292 6.92819e-18)
(0.592576 -1.00968 -7.73845e-17)
(0.100386 0.632125 5.49254e-16)
(0.547255 -0.182003 1.06061e-16)
(0.622658 -0.685334 4.23251e-17)
(1.75703 0.0457777 0)
(-0.0260733 0.887804 1.55242e-16)
(0.376762 0.139989 0)
(0.476723 0.783028 0)
(0.0352412 -0.130886 -4.2137e-18)
(0.714908 -0.310651 0)
(1.27483 0.0794704 0)
(-0.0587409 -1.17044 0)
(0.0217057 -0.0577173 0)
(-0.63912 0.424178 -6.3938e-16)
(0.196351 1.59874 -1.8549e-16)
(-0.225673 0.824542 -1.44735e-16)
(0.355317 0.472631 -4.01583e-18)
(-0.554115 0.217813 -4.98208e-16)
(0.316272 0.942133 -3.62088e-16)
(0.825348 0.000958777 3.05425e-16)
(0.183752 -1.0374 -5.40259e-16)
(0.0672133 0.0806967 3.74523e-16)
(0.073273 1.263 6.50786e-17)
(0.0805531 -0.0377237 0)
(-0.164919 -0.946974 0)
(-0.111587 -1.27637 2.14799e-16)
(-0.490018 -0.205818 8.88541e-16)