/*--------------------------------*- C++ -*----------------------------------*\
| =========                 |                                                 |
| \\      /  F ield         | OpenFOAM: The Open Source CFD Toolbox           |
|  \\    /   O peration     | Version:  v1912                                 |
|   \\  /    A nd           | Website:  www.openfoam.com                      |
|    \\/     M anipulation  |                                                 |
\*---------------------------------------------------------------------------*/
FoamFile
{
    version     2.0;
    format      ascii;
    class       volScalarField;
    location    "0.22";
    object      epsilon;
}
// * * * * * * * * * * * * * * * * * * * * * * * * * * * * * * * * * * * * * //

dimensions      [0 2 -3 0 0 0 0];


internalField   nonuniform List<scalar> 
5794
(
24.1957
0.916632
4.38344
1.6928
7.24686
1.56767
59.7076
106.861
154.157
12.2646
48.8316
1.03036
2.21361
1.15806
5.23267
0.641874
164.874
3.78416
4.27902
1.43464
68.2456
4.87347
19.9212
1.68653
16.488
122.535
114.098
31.9893
138.362
4.17653
0.421281
7.903
7.21202
1.30025
20.6396
46.0491
4.44778
1.82502
3.23486
15.4989
1.30276
9.76019
9.62799
6.37895
5.77607
43.3063
7.47136
9.46036
5.2063
33.5335
0.822493
79.8279
14.4853
3.74876
0.110756
21.8825
10.8809
17.8659
5.73005
265.821
57.7435
1.44898
0.814474
10.8614
18.7785
0.661376
7.72699
11.6781
2.544
2.68592
76.064
8.92719
79.5465
9.18633
3.23018
48.13
1.62374
78.997
6.70912
0.256857
8.23864
1.61779
1.89385
10.7415
1.42656
16.8563
7.80498
27.0869
1.97248
12.338
23.7905
4.09176
66.1349
33.5748
11.7824
67.0594
17.1834
78.6934
3.82085
63.7914
52.9975
2.89978
7.40891
1.44504
3.49338
2.76245
1.45145
2.89362
49.5297
7.43946
0.723705
6.60532
58.8502
0.290422
5.02192
28.6651
2.57258
1.53609
52.35
22.3378
1.5373
7.28185
0.744618
43.6383
13.6788
52.1805
2.40946
1.20365
78.4235
13.4051
1.38709
2.76818
5.92398
65.7426
9.32388
6.85924
124.079
1.34162
0.452205
0.992144
4.51526
7.90952
14.3
5.34179
1.00238
163.426
0.660879
45.0008
3.62766
7.47922
12.998
3.41633
3.6693
0.784407
148.51
5.65341
4.10092
0.539923
90.7261
1.67653
6.96812
6.1188
1.345
14.9737
29.5225
44.1479
10.3248
3.1273
0.613048
9.49057
4.79046
12.1554
4.08915
3.1255
1.81819
27.7382
4.25456
34.5528
1.45544
145.474
1.02792
16.9864
0.681984
1.19744
1.74635
97.0872
4.46652
4.00834
7.55409
2.58926
63.6722
10.198
4.21065
0.393609
1.53289
1.84828
83.6025
0.468123
3.67365
6.96057
50.0861
96.6713
4.12208
17.7978
7.35961
52.4533
1.07324
5.69604
4.24181
105.139
12.095
10.5677
33.6752
17.4462
1.22957
23.2973
25.5943
4.61926
36.8151
57.9924
10.0864
1.15095
43.3682
31.684
139.923
25.0493
2.02651
15.3325
3.99295
4.28497
10.9689
4.07253
1.13755
66.4157
1.4839
11.1034
8.10791
32.2004
3.8515
11.705
1.49543
16.0515
61.8165
1.64596
1.1657
1.4053
7.16631
2.39264
26.0097
34.7189
7.25441
0.537116
162.451
0.425015
4.97415
9.41283
6.98799
16.7307
2.6765
10.9956
75.6452
27.691
11.0107
0.207468
32.7784
0.565563
3.57986
71.1133
7.939
61.729
6.91633
2.26293
3.71623
77.6418
16.7581
3.49729
3.83722
4.68228
1.03069
7.14894
0.325872
26.1433
1.32219
10.1734
15.4845
44.5429
12.0255
13.45
34.1092
8.37277
32.8704
13.2501
1.11539
5.94585
4.89103
104.92
1.51199
5.69568
18.0556
0.205784
2.14657
56.3708
6.6064
69.8127
9.30824
76.6969
0.800716
2.14511
71.3033
5.70036
1.19985
22.6974
116.351
0.247653
9.81368
34.9119
6.24795
24.3828
29.8271
64.1391
61.1097
37.6476
1.60862
4.2103
0.63155
4.04384
12.8961
1.26982
1.31326
46.6527
125.897
8.84611
0.46418
5.52733
7.17671
10.9971
7.0619
0.984632
5.39698
2.48354
2.04762
20.2081
149.067
19.0582
3.78536
0.844747
0.610389
23.2412
50.9992
2.42521
1.31001
106.103
2.86541
13.4723
0.480268
67.467
3.78235
93.1456
53.5513
89.7709
5.91337
1.42828
97.3981
51.2778
65.2968
2.6119
36.8821
35.4517
10.6138
12.71
2.20605
0.339413
2.42335
1.88001
18.4104
27.5701
16.1316
11.8987
24.016
0.265213
5.33903
2.15327
12.4819
38.923
23.4661
1.3426
95.9933
33.0458
8.66291
9.62131
2.45003
46.8042
2.64314
0.544063
3.68669
1.90855
1.45293
5.46552
7.47873
27.94
1.44754
28.679
31.4545
0.742778
6.3135
42.1325
12.0194
1.7093
1.70708
23.8586
58.2566
4.35241
36.2834
14.9578
77.3805
7.84958
2.09843
2.50891
21.7
16.4224
3.92497
78.451
13.6107
2.16883
9.57533
4.44743
1.81415
0.347572
1.04954
10.1266
97.8401
5.75386
3.80929
84.8094
4.44464
3.01218
1.58721
10.9084
17.8073
11.5435
1.42365
8.10849
2.0184
1.31743
6.05215
29.7503
6.67582
0.183708
5.71255
95.8199
7.257
1.19747
100.122
6.28082
34.621
0.204535
20.9861
81.1067
14.4062
40.8031
4.41007
1.2289
20.1386
1.58209
70.8709
14.4836
20.4062
11.452
23.5366
8.02773
0.285129
6.33274
55.0512
2.95595
12.4217
73.7265
25.0894
18.9409
9.19651
1.29025
30.897
5.19697
4.80852
3.00405
9.83178
41.4796
10.4877
6.67613
79.6655
7.4003
1.30661
1.26309
1.11088
2.5218
20.0928
0.858333
4.46754
1.90915
0.234134
37.1801
6.55357
16.1886
8.58884
3.04204
2.48915
1.38335
3.07538
28.0496
41.0212
0.484938
62.8757
0.614708
5.23677
0.175093
0.200425
3.43329
34.9327
0.169008
5.6285
28.712
2.21386
1.06304
8.69257
8.48053
18.5581
1.49207
10.7469
38.3947
1.34961
3.50571
23.8235
0.34393
19.2665
1.68279
2.28052
12.6065
6.60154
154.401
14.3854
60.2466
7.57589
102.312
1.24024
1.30689
9.6173
0.549867
5.61814
6.21155
0.244822
1.26652
1.82445
0.581492
4.63129
8.0916
1.35897
11.8166
20.8689
3.09999
1.5088
5.58627
190.846
3.74635
56.2897
4.27891
1.18788
8.4672
0.594113
8.63734
1.80836
0.307584
79.5813
42.498
20.7314
24.1485
83.888
9.24525
10.0538
17.9188
9.69481
1.25502
35.7176
5.36607
28.5055
16.8149
53.1542
49.7182
0.412068
42.2346
5.88308
24.9777
0.414182
0.969218
1.16978
40.5259
5.17016
37.9997
0.186526
9.32895
0.309859
6.8896
4.59344
90.7479
4.71459
41.7753
0.190967
9.0301
173.25
7.03574
0.152967
4.60703
10.8961
13.1622
1.97507
10.086
0.575254
1.62256
33.4947
26.6178
7.64187
1.16716
1.76325
45.7422
61.9344
6.15623
1.54503
1.48306
2.66837
10.4316
15.393
0.341613
17.9226
1.01934
0.7568
2.17907
1.0853
4.32025
88.039
26.3576
3.33308
20.0648
4.89013
8.53352
32.4643
6.58432
125.977
61.3816
7.63497
50.5432
0.711359
0.692949
1.63841
9.13617
1.6499
1.70246
0.847233
78.5433
38.9282
1.19976
51.5992
7.36221
0.330715
5.75435
5.9818
47.8606
1.34497
10.9376
40.3829
47.5102
12.2841
17.6742
34.0262
6.19177
27.837
36.5956
2.52601
6.19623
41.5785
13.756
2.3216
9.91012
1.04542
4.98391
2.28844
0.248746
3.76679
137.361
17.2296
1.6651
1.40907
0.167077
6.6329
53.8133
80.5794
19.5328
5.72788
35.1543
12.0878
1.95848
1.93405
9.80979
4.6094
0.535276
0.379515
17.2079
6.67842
162.509
5.85681
3.59508
1.44727
23.5135
19.8049
44.0157
16.6262
26.1175
46.4588
16.1915
8.7126
62.8599
46.173
18.957
17.2161
100.232
154.645
1.26312
7.43551
7.16536
13.2758
28.1617
22.9168
38.1758
18.8436
43.0544
39.3397
28.757
5.92907
3.84147
95.6762
16.5885
3.97995
71.9339
21.0182
1.95745
2.55381
7.33771
12.8373
36.0071
13.8735
56.13
15.3158
8.97792
1.47014
7.84867
1.65354
0.1867
4.22645
37.2226
5.19255
34.9912
13.6762
7.90339
9.40665
13.6225
36.341
8.79
46.6615
48.0876
11.9918
21.3458
6.39106
49.1025
5.42083
22.8671
9.71824
1.35633
3.18272
1.03896
1.46535
12.1058
3.70068
1.23703
24.4466
48.1517
17.311
3.25749
1.22331
35.1541
9.09796
12.5098
36.5595
5.75696
0.450545
25.9694
2.71076
25.6272
5.9473
10.6638
1.16189
146.347
7.41486
85.4827
9.94641
6.66197
7.9724
0.244351
1.38941
4.84115
23.838
8.57479
83.0142
54.5371
21.8699
4.5374
11.7104
31.2021
86.4877
0.711165
1.28781
7.88371
23.2505
1.71171
2.22232
20.7981
44.3228
22.888
0.285311
17.3981
3.56343
3.12827
4.63695
6.25345
37.1072
22.6961
9.31314
1.50535
2.89369
3.32115
7.49283
89.289
15.5131
1.97108
2.94993
1.61217
22.0545
2.32701
26.1515
0.200575
4.26366
5.77422
10.7393
16.3127
5.46343
45.0024
13.2045
24.1474
69.8255
40.9665
28.3776
26.4352
0.189695
0.954744
5.27922
4.2076
8.86295
2.35835
38.5562
18.6562
107.101
18.3357
1.16716
6.77798
0.801562
14.1173
51.4142
1.46915
290.751
2.92975
1.90869
62.7032
15.3186
6.54117
0.928459
2.11218
10.18
6.94762
0.788597
1.76432
49.9762
71.0251
8.48656
10.0745
36.671
10.1926
7.71354
43.9679
64.1742
62.4803
6.04769
8.1229
1.12499
9.59831
0.304709
0.416331
1.30735
1.85147
26.2073
1.47184
7.35371
0.408885
8.80468
55.696
5.80206
8.3822
10.2243
24.7365
26.9537
3.3422
40.1044
6.28918
0.494575
26.8433
11.2334
36.5373
7.79525
69.5394
11.7739
12.0353
1.77542
28.8636
20.537
12.5312
9.41243
6.79587
3.45073
2.59024
75.7886
2.43406
4.01601
15.818
3.98008
77.1789
7.96242
11.1801
1.68212
1.89855
3.02174
0.259844
7.37699
27.3198
157.312
6.94254
2.53903
72.8269
1.19934
7.21443
12.2976
25.9631
10.0421
6.05789
23.5638
51.0501
5.45034
10.5712
1.11385
1.43665
0.38835
0.910245
1.04575
5.0358
0.193062
0.354523
1.59303
1.32988
7.95559
6.73102
5.34471
1.39042
0.355197
69.6446
9.71811
1.93151
2.20421
11.3787
0.608895
47.7253
4.84011
13.2813
1.11624
26.4432
47.8892
1.2179
9.99142
7.9617
0.19181
9.22874
69.7396
21.4506
11.5929
200.958
0.173738
11.052
29.8151
3.84354
23.8622
22.8758
22.9748
30.685
1.43744
9.19052
0.456346
0.461254
18.1408
11.5819
114.033
21.8215
28.2106
0.439926
4.27841
77.2488
13.4082
11.4954
45.5216
1.50407
5.1197
1.1114
35.9415
11.0059
3.63833
4.60286
20.969
4.41788
4.81473
10.0343
0.801207
1.02042
18.2838
5.4683
19.7649
15.3745
1.62621
8.19695
26.6802
0.193022
3.53605
0.923378
5.76514
10.5724
0.189504
11.5705
1.06052
10.3572
12.0714
2.12465
11.0746
9.32873
0.514838
8.66056
9.75236
0.168599
130.508
22.9025
2.44678
1.15427
19.6072
0.204141
0.566439
10.3612
1.4603
0.204151
1.47987
10.5893
10.0681
44.4987
25.4671
8.48825
45.8571
5.24978
0.222955
1.40162
13.197
9.11493
1.41489
1.98057
0.254382
25.9724
0.315137
5.99409
1.7689
58.4388
2.33931
10.807
92.3032
0.589432
37.6529
8.07943
0.372038
5.05171
3.35147
31.8698
35.2087
0.425444
39.6532
0.511328
0.54691
16.9512
1.26094
3.05104
7.63435
2.48326
31.5981
6.21876
96.9578
0.959642
2.07242
1.0778
4.50236
4.34233
17.7055
2.07651
29.7253
8.00578
20.2981
13.523
1.94115
0.788215
6.78177
5.82932
3.65035
3.29246
7.32697
67.0477
58.3822
63.5821
20.834
59.2626
8.46476
8.46434
13.6857
1.29965
3.26752
0.172371
672.819
42.0544
0.176519
2.52464
58.9344
54.8176
8.96699
1.26646
9.10174
6.99608
28.447
0.631507
10.2646
18.8522
1.32195
9.84629
14.1044
1.54351
0.215815
6.24684
11.0784
8.39213
32.8105
1.14216
47.654
5.65431
12.4591
26.5503
0.830885
4.36132
21.7298
9.24772
17.7601
11.7922
4.43492
1.95566
7.52093
2.98214
9.78963
5.78818
1.06648
10.3907
20.1235
1.22133
22.2187
136.862
73.35
8.17727
4.90345
7.17223
6.83989
0.601707
34.9543
11.1032
23.9918
0.167867
5.81722
0.767652
177.066
0.179767
0.315274
5.98895
1.93954
1.24271
36.1016
4.23847
6.1122
1.54378
7.32152
16.8507
107.005
19.6876
1.84902
1.31996
1.75501
3.92742
59.9674
24.8426
4.51122
8.6113
0.573036
5.684
2.43714
14.8273
29.9398
0.534506
8.11357
36.1841
2.85909
0.479177
25.7554
1.2761
33.4988
34.6018
17.1039
12.7316
0.493629
4.71526
11.8233
1.14949
56.4028
1.28667
0.422489
41.4929
9.98315
0.393985
0.167009
13.0663
84.3598
0.510423
0.285942
16.5688
2.32461
1.76144
5.01474
4.64636
31.4317
0.182282
8.17131
3.03114
66.9903
9.15836
6.57807
30.1834
4.44533
2.05517
1.47595
3.2915
42.2466
10.2711
41.2452
7.22478
9.17711
37.079
22.9493
4.59177
14.6684
0.837184
7.64093
0.19843
7.39838
5.70008
6.93521
4.83043
4.8159
3.21387
6.59863
7.5151
0.223296
1.09353
7.38805
6.21979
0.275057
7.59347
71.6444
9.35728
53.0291
47.5666
1.62037
1.03676
43.7811
1.20506
36.9679
20.1479
11.5603
1.4075
0.918606
2.32977
0.650536
11.0137
0.452119
5.33048
0.276362
1.31361
2.85618
34.3837
5.31269
35.3798
21.1257
9.2762
8.83348
0.454687
1.88355
7.88871
10.4986
2.03687
4.56913
0.427646
11.6021
25.6826
8.67439
88.6596
18.3592
21.7382
16.3225
5.0564
0.190721
4.84037
19.7944
2.24732
36.5568
0.586291
0.215195
2.45231
16.8553
0.480579
4.5537
14.496
1.06724
3.24132
7.32903
4.32768
0.779347
7.60282
5.09687
38.7073
20.8773
0.203619
22.5061
25.0393
4.32234
18.4119
1.45092
68.6066
0.424609
1.7641
1.09569
7.32312
304.949
11.3784
40.3701
6.04479
22.1975
107.096
18.3033
5.38007
0.334237
0.680205
0.414917
0.234071
2.15464
5.6139
0.340609
21.4215
0.276331
0.476897
12.5317
13.6526
0.324996
1.29793
0.224946
1.40448
8.54302
1.0219
10.1874
14.3434
0.894139
1.73421
0.26163
0.769585
10.3443
7.88122
11.9511
0.214422
0.301593
12.3266
11.3255
0.719905
0.375802
0.639872
0.337637
0.334438
4.05166
0.540684
0.207111
5.27784
0.311668
8.85591
8.20791
1.23001
5.89359
11.1992
0.308755
14.2552
29.6718
71.3847
4.28922
1.36438
0.171548
13.873
1.88521
38.8593
2.47249
162.258
8.81136
79.4121
39.713
0.275885
0.257101
0.193268
6.07381
2.26959
1.83176
0.286827
4.19478
5.01273
14.1221
20.5113
2.94278
7.16535
25.9157
14.8361
221.219
1.78939
14.0397
43.9402
12.2687
12.6171
8.98153
96.8565
1.04405
31.3932
4.0769
12.0993
13.1245
1.4564
11.4913
13.9054
556.15
1.24581
14.5866
1.08547
2.37561
3.78861
3.1248
81.661
2.53426
0.462472
0.266748
4.89021
2.89195
0.349325
13.9686
0.23327
0.444687
1.56992
0.172453
7.89464
10.0385
0.264806
8.34625
7.68236
12.5947
13.4892
1.61196
1.06217
0.595962
0.355889
6.50318
0.678786
39.0734
129.08
0.564636
19.3492
3.91196
13.9162
1.33698
0.168921
61.4129
3.82563
3.74302
47.7377
2.73425
7.19551
0.30521
2.48435
37.7982
3.77603
19.4716
72.8845
2.40634
0.166682
13.4655
26.0901
1.51614
14.5067
11.6716
61.2378
1.797
4.63634
0.311167
4.72683
1.07349
1.37368
4.94689
0.637243
86.6379
0.24024
23.0116
1.22428
0.214782
0.187983
2.77012
0.354021
0.405965
5.23963
0.848398
78.8314
10.7378
0.665334
14.1635
3.96231
4.22081
15.7742
0.744099
9.10132
8.13925
3.33469
45.9348
7.91036
0.727637
15.3507
12.1067
8.15036
10.2496
0.951629
0.275614
4.83318
18.9746
0.275035
1.28411
1.72124
0.208711
12.2064
31.011
69.1566
13.5262
2.72793
52.2012
0.196122
6.18973
7.48449
1.42143
4.66762
17.3201
0.837293
14.2534
0.171135
7.98534
4.78533
2.15807
7.98225
1.73978
18.5118
3.39112
1.41879
1.52956
0.669178
1.61732
23.7294
1.02974
3.60436
45.2584
29.6808
41.3167
22.1491
30.2781
27.3262
26.0184
15.7885
5.71768
3.76709
32.3947
2.91179
36.5076
74.6877
140.414
21.9348
91.5959
28.4809
18.4145
8.88516
1.48258
41.2249
57.4662
17.1846
22.049
24.3568
144.027
57.1795
29.3199
52.6289
6.1429
7.01227
2.45804
0.872864
0.912434
7.32276
45.0191
0.994984
0.279748
5.44083
5.69512
6.00547
16.2131
21.3881
4.38003
25.103
7.93282
0.918329
4.31431
5.08774
34.6293
36.8288
5.4386
30.3444
5.87421
6.31388
6.9521
11.2414
11.0317
1.71726
32.3531
10.1537
1.45719
1.44273
7.32407
0.317095
3.42466
80.4644
34.563
5.10337
1.22069
1.61082
10.5293
37.1254
24.6224
21.2233
1.51803
4.60547
1.44586
3.85517
6.7573
6.43213
140.624
6.07699
5.73982
2.6464
6.10166
0.347425
23.7501
0.670586
16.1246
2.33801
0.313397
10.7853
3.19532
0.967069
2.57361
0.898671
2.32817
69.2919
4.6524
3.99275
6.51938
0.487752
48.8995
128.715
2.80439
85.5641
18.2548
5.41597
109.646
1.31755
10.5199
123.111
22.0179
91.4219
3.69978
0.459558
118.488
130.548
72.1711
9.59847
6.08515
9.61718
9.97892
0.479672
100.034
3.60796
0.548463
37.1283
4.44728
7.67457
1.1931
0.439598
45.0701
31.1337
45.9227
95.0377
117.495
11.5519
114.406
4.46595
40.9367
43.7501
1.21206
127.364
0.744642
92.5457
55.3903
38.4418
1.22441
105.067
91.481
11.6568
133.183
103.441
3.8577
52.0765
30.7379
12.9385
2.72033
45.8748
17.9494
76.8014
33.3616
27.2202
8.14673
24.5294
15.1647
15.8646
10.8232
1.37443
0.675791
209.294
1.34287
7.1262
0.277419
42.9957
14.3904
4.36279
3.49253
8.60455
10.8335
2.02226
7.85326
4.66354
13.7836
1.20647
4.90105
5.62903
1.19601
37.5161
19.272
11.0062
4.97495
11.2787
11.0489
5.52219
9.47628
20.5455
13.6503
28.5646
4.69065
0.261437
4.26648
20.4139
40.8383
11.863
6.42222
0.988223
5.28164
3.18759
7.71112
26.112
6.14726
10.0009
8.26852
72.2101
11.3939
3.09661
35.79
3.0081
2.92965
6.1684
2.0715
10.8102
4.9932
154.785
1.97661
6.29744
4.40532
8.2402
6.76892
8.31577
5.14904
2.09736
5.20074
3.27096
6.90789
2.0444
2.0112
3.98943
5.22661
3.96805
4.51417
2.64671
13.4064
16.9201
4.92368
0.787334
5.2973
0.401514
8.39623
1.94986
0.746242
19.6975
5.93183
39.0137
20.1626
1.11078
7.70811
4.25716
2.93342
40.697
104.067
51.2066
29.114
3.15962
8.11925
15.5113
1.78066
27.4116
1.01958
2.03989
0.842687
43.977
24.4876
1.17266
6.35474
15.2174
6.91093
9.87638
2.23672
0.589958
43.8358
45.6303
36.6342
10.1925
10.9608
11.0692
1.3725
0.868513
39.7889
22.6607
10.2629
38.1499
78.3541
38.7518
57.8882
138.765
49.9071
10.5506
1.09875
20.9186
48.191
151.549
9.66085
1.92868
38.3623
2.16682
27.8925
35.0873
7.89939
1.76725
0.868034
0.667829
145.279
175.009
39.8522
82.4798
0.496186
48.6344
29.2026
11.9255
5.81296
7.33562
1.62835
87.8779
6.55933
6.70961
12.5125
1.32342
3.41675
22.0082
0.658735
33.9522
16.6365
15.2198
62.3125
39.3155
71.7379
217.587
7.90849
4.15267
34.8618
88.0157
54.522
28.1474
1.22791
19.9034
86.2958
38.5858
8.47286
15.6524
9.31445
0.843253
0.895453
35.4297
7.0789
10.723
40.5979
136.97
149.448
94.1539
25.2338
82.2857
11.8784
8.97122
0.283372
33.6211
11.4675
67.9844
23.9575
4.87974
9.92162
40.15
2.82714
1.46742
4.11683
4.17461
13.9421
4.42486
5.44456
45.0257
11.705
1.84093
30.8568
3.94305
7.426
3.61677
53
35.8692
7.43517
20.9381
24.6199
26.5293
7.52656
0.405668
0.750059
0.682545
1.05003
5.12719
3.0506
36.1889
38.0898
24.3955
0.948614
128.552
18.7959
75.6172
8.26975
0.200014
47.1002
10.5611
0.860169
4.28774
79.6871
55.9344
31.1956
12.2777
40.4526
29.9253
4.62813
1.41739
9.74511
2.07458
11.3709
4.09747
3.87717
5.64558
9.16492
38.1206
23.9572
13.976
2.17683
16.6224
36.891
11.2102
27.2043
40.9167
13.5215
8.29642
47.5731
3.23269
1.69836
49.3351
11.5318
40.981
46.6314
37.8412
33.7475
10.9813
4.10688
4.07459
25.5832
6.87938
9.52725
0.338682
0.753787
2.24185
2.5082
2.25075
61.071
4.52005
32.3715
9.30867
4.83429
5.04348
14.6776
4.20095
5.68504
4.94211
5.05117
5.22249
26.6423
6.59863
21.6795
30.4775
11.3039
0.486754
78.7332
13.6056
17.1206
4.60268
36.6147
115.238
22.2134
57.2301
2.48208
37.8813
5.28149
8.96399
0.416513
0.200143
23.0113
23.6058
30.4436
14.1357
0.849325
0.635862
33.9968
14.9086
4.45766
34.026
1.13531
5.66326
4.0791
3.78045
7.80147
15.4659
166.086
20.0371
2.6344
10.0996
16.8788
12.5106
4.75344
3.50416
20.4938
8.09731
46.5552
11.5632
0.218694
10.1417
6.44628
0.395044
18.5699
8.93076
16.9776
9.50415
5.70285
3.86552
10.4181
4.29617
19.0532
10.3237
6.70901
9.76533
1.61338
12.6561
7.73042
10.254
5.35929
46.6276
111.752
27.0921
64.5627
6.56913
63.8182
30.6092
87.4854
1.47034
2.90182
7.56892
2.73692
2.1343
0.431494
28.9276
4.45499
4.72563
11.2346
28.8962
28.2366
5.34071
30.5535
11.3195
2.60708
2.37405
4.98466
4.10099
8.04618
0.362954
0.682467
5.07329
7.18452
36.2426
16.9575
0.341208
32.3493
29.0778
192.539
68.8196
12.1665
7.31726
3.89058
5.27309
32.6423
4.35333
6.02376
39.6596
44.7369
1.86185
37.5879
28.1422
147.128
89.1887
5.81305
50.7472
3.03976
1.99796
14.6771
1.43271
9.22615
0.781401
9.86777
22.6396
37.2939
2.94916
37.9438
1.40755
8.45288
11.9368
39.4787
4.9521
26.4586
39.0557
33.4206
4.48643
21.0054
36.0335
75.0856
9.8292
10.9277
1.82503
0.278097
35.3147
6.00025
8.44591
84.1811
27.2205
368.509
1.64741
14.8253
47.5889
44.3755
11.5123
177.395
18.979
0.409979
0.207826
4.88321
0.380386
1.66185
15.7578
6.25807
22.403
9.69093
36.537
44.0005
4.72679
16.8558
29.3573
13.4577
5.99904
576.875
4.86165
4.56064
5.8229
29.9506
3.59886
35.5042
70.7354
7.41434
1.97969
44.5666
3.28551
4.89725
17.7019
0.22195
4.43162
1.60253
4.4296
5.02834
77.161
4.0868
4.65029
14.7103
15.1186
39.6618
153.588
0.529823
61.9542
9.50907
5.07237
5.74882
0.889765
7.68339
92.763
3.43404
53.2609
3.48249
56.4094
61.5281
7.55287
28.6051
4.83754
7.68234
4.85875
0.182057
15.9291
54.5526
6.33699
5.67339
7.37772
6.11734
22.2312
4.3971
9.27272
29.1653
5.6262
78.0626
12.3397
1.65645
0.414643
5.25461
11.4726
53.8794
4.36432
39.8034
75.8891
2.30266
14.4409
38.1142
7.86688
1.00069
38.6997
1.24079
0.925598
4.72075
12.5743
41.5532
5.18093
7.54172
19.1831
0.228799
2.24839
17.7364
10.0299
12.4474
5.6214
1.93697
14.1206
4.27852
13.7236
11.1479
9.7936
13.9901
0.327567
0.637446
9.29735
30.5708
3.66879
5.91016
83.1809
8.62684
31.0009
13.9122
11.4486
5.00713
3.36113
2.88293
3.77108
1.48494
1.74212
3.36857
23.9013
3.85606
8.64276
5.43831
30.6375
50.1191
4.38331
10.3154
36.2537
34.3195
7.47747
21.1771
0.508565
10.9195
8.32324
9.99077
0.325065
0.653062
1.44552
1.62388
11.8066
54.8237
1.40834
12.3169
11.0554
4.45789
4.51228
3.51646
5.76547
37.8883
1.0712
9.8517
51.4687
4.64426
3.34363
8.73593
0.441351
0.589594
49.8327
13.6548
4.94707
110.266
13.5732
28.1773
53.1826
24.7501
14.1931
0.420864
18.1773
0.264747
2.39608
73.0289
37.8796
3.73014
1.33427
4.476
23.492
13.223
0.210608
0.66138
3.43382
40.8056
5.35343
11.3179
3.95242
10.9333
32.8082
11.547
1.67433
21.8505
92.6157
87.4165
27.8781
2.49243
5.03146
12.0817
22.2964
13.1542
6.56971
3.22398
6.60372
4.36585
0.757483
10.4364
4.42346
15.6318
29.9967
0.191135
5.16513
0.808131
35.5344
1.71875
3.4943
3.72758
1.18301
55.2452
29.8352
17.6643
10.273
0.460469
0.495812
10.4346
12.8786
99.339
0.250472
23.9653
5.37873
9.57428
1.26059
9.14157
9.54702
76.4305
15.859
0.390469
0.523177
3.28219
28.6816
1.82548
4.3561
0.206965
5.26575
1.32012
0.297341
4.28906
3.59597
5.91355
34.9699
17.5154
2.90015
8.30246
4.24729
4.68666
11.7067
0.540771
1.60551
14.122
1.23039
2.34654
1.75029
8.35429
2.41956
37.129
5.50488
1.03188
6.34939
4.65512
27.9695
4.45539
5.21728
10.5756
0.386437
0.522454
4.73342
0.347442
51.241
4.82118
2.82219
10.5308
0.392071
9.89149
0.221603
29.4467
4.00484
21.7479
20.5748
1.94491
25.1378
0.48677
11.4412
12.5787
24.3633
13.9277
50.3864
6.01266
8.36445
0.394731
6.81387
1.13937
3.71126
3.81238
22.9129
24.7037
19.1529
1.66125
7.20293
0.40538
3.56385
10.1267
5.07242
10.3657
2.25726
1.9552
14.4586
8.63116
11.8827
12.4921
9.79789
1.41007
0.932572
2.30762
10.7973
59.4988
11.9451
0.427806
11.9135
0.508604
2.62975
25.5583
1.15883
3.67617
4.67911
69.5972
5.35074
6.1676
6.22281
8.84104
36.0173
4.14003
14.9703
9.30658
8.53541
5.08047
4.28302
7.23302
11.8058
3.98622
10.6945
7.26996
0.187033
4.23187
3.87278
0.798886
4.38372
0.445071
0.872375
0.883636
0.176392
9.61082
0.441504
10.0097
9.4402
8.69304
4.8912
1.26165
1.74964
8.48277
3.00792
13.6822
7.30492
5.65977
4.35131
4.57379
57.5132
50.8574
2.96315
134.148
4.41673
3.36153
39.0045
77.8044
44.071
0.429305
0.464392
0.585135
0.515268
0.451694
7.65029
9.23862
77.3748
0.267315
0.448143
10.5553
5.03176
10.574
4.842
0.411291
0.187625
58.3967
10.6475
16.6681
3.03675
2.43958
15.241
19.8641
25.6412
54.7964
0.186696
13.4795
15.5044
5.57998
19.9946
2.16019
0.426109
3.95716
19.4849
2.83624
1.21606
17.165
0.46366
10.6341
4.43498
3.6433
6.68113
0.285367
7.92594
3.48758
35.3713
0.612454
2.35223
0.174604
9.18226
21.2632
2.19227
11.9117
2.38443
0.460644
60.4511
4.90523
1.28082
39.8261
65.542
58.3028
29.5356
1.7036
10.219
6.55649
17.7415
7.4033
0.425754
58.3516
1.7802
3.59437
7.93659
1.08121
10.8127
4.3957
3.90502
1.01706
17.1634
39.3298
2.00214
5.11083
1.9663
3.64828
3.49315
39.2339
6.28825
1.1435
11.4911
0.411871
0.45363
0.371159
6.45549
0.579394
2.95577
4.81673
3.83968
48.485
17.4356
37.3407
14.4168
8.10859
4.96403
3.09448
11.1799
24.4475
21.973
6.20526
69.2599
9.60968
0.432912
0.500491
12.4112
4.14532
12.8834
6.96402
1.47466
2.18597
37.4796
92.4668
37.2
13.0459
14.1295
40.9455
35.9098
33.1407
4.13297
3.79646
13.9261
100.68
5.25573
157.569
33.5308
0.509935
1.56242
1.0004
38.1876
5.37461
14.5101
35.0633
25.7158
44.8319
23.5682
6.32018
1.73672
0.296074
15.5027
0.777557
1.72969
7.63917
5.45792
10.7937
1.59465
15.6458
2.51757
2.79098
25.1565
39.1709
20.7024
0.178071
1.10285
1.48049
8.14848
18.6871
18.3989
4.81492
5.34038
5.93831
9.82177
65.5519
5.24452
10.6043
16.2451
0.936625
12.3689
1.42481
0.552238
23.8948
41.0244
1.63645
14.0227
32.7206
1.71001
8.28448
9.61529
5.35062
8.73946
12.5661
2.69654
18.5707
1.07551
0.29578
4.11009
0.27113
26.2789
38.1961
2.13396
6.79651
12.5208
1.33109
60.3434
41.8796
0.327419
30.0201
8.42326
0.24269
1.60178
18.882
8.6832
12.5478
2.36694
6.7155
1.39599
16.2022
0.377538
0.277669
1.44697
2.79368
28.755
2.86645
28.687
9.29482
1.65344
4.19376
11.0448
3.90631
0.242958
1.21426
4.22154
8.69186
76.5138
27.8876
8.18057
0.489428
2.99503
35.9417
22.6026
4.20572
4.1142
18.3417
71.8163
4.27973
28.3178
6.14802
3.99861
5.83102
3.29303
46.575
0.504919
8.93176
4.38253
4.5073
2.63646
0.383695
1.09352
1.65297
1.27834
14.9167
6.61476
11.2682
4.91762
2.4147
7.73426
7.22497
3.0608
13.6267
42.9368
0.809075
18.1092
0.704394
15.9473
68.6661
1.21131
23.347
5.60505
6.57051
4.1434
0.835816
10.0003
40.2882
3.49519
54.6388
84.7342
22.2193
43.1837
0.716501
30.1088
20.3028
5.55073
65.8284
19.4427
4.12921
25.6604
7.20872
5.32064
38.704
6.1462
8.0388
0.969401
1.06475
6.5848
7.42024
4.3674
6.22413
29.225
31.8487
1.8239
0.493442
8.9705
18.7074
31.9262
6.83279
0.424972
13.0551
2.26409
29.0469
18.7307
1.63229
105.333
4.87116
2.81709
14.9202
15.4875
0.241438
49.2029
28.4938
2.67831
48.7291
49.7326
15.896
1.20556
0.21281
1.27965
2.78787
1.04302
7.46917
10.1123
19.9049
3.55555
17.1682
48.4046
20.4674
33.9918
141.199
74.2352
9.94961
2.66505
2.64604
2.21779
69.5974
77.8753
1.97573
17.7087
2.90856
9.63144
51.3005
42.7799
9.50829
0.225514
1.01288
2.00408
30.2955
18.6184
4.05908
2.70002
1.4533
39.8246
6.82502
24.6556
22.0663
38.6022
0.423538
84.7026
0.33091
18.3546
0.616903
59.7032
6.72211
64.234
0.217734
8.2112
88.5048
6.6054
2.22399
2.38864
2.4514
37.962
40.2842
24.3295
30.0619
1.90381
1.38437
64.6962
26.1535
2.66228
95.8288
181.457
10.1244
0.723321
63.8883
21.846
0.732463
0.616553
9.64747
1.3458
2.36623
6.23975
4.29918
21.3994
2.08725
15.5106
21.6047
0.613899
78.2194
0.954353
79.7406
0.45556
33.5685
5.92465
7.80125
4.45592
6.41065
8.23964
102.128
27.7386
3.25183
6.5431
37.5119
0.644712
0.186013
133.496
26.298
2.22497
4.76373
1.25123
2.50336
5.23335
37.4552
2.8365
7.23138
1.05311
61.0703
0.294699
16.7768
0.739998
4.33459
0.460477
2.82042
124.558
7.44382
0.589633
72.2195
0.704488
8.81569
10.4786
1.29863
49.1263
11.6611
1.45943
57.282
2.13754
9.90058
0.586637
28.259
38.3777
4.30018
15.2545
83.2337
34.5658
47.071
7.70507
2.35695
2.03562
13.9882
0.398622
13.9205
46.934
11.7037
13.9625
133.572
10.3409
12.7406
1.86513
0.275309
0.38123
0.519815
19.2874
3.982
25.795
68.9133
2.33439
1.7861
5.96263
7.971
3.85124
6.56573
5.6772
3.66242
2.41081
16.3155
0.374841
0.500321
0.410729
100.827
1.52079
3.1906
3.06928
132.453
12.4625
93.3484
31.0394
7.50436
68.5807
0.57643
12.9695
15.9764
35.275
9.54179
7.8001
1.58668
3.08066
7.90381
70.6821
9.19053
4.16887
12.8157
13.6252
1.01314
13.3595
0.449563
1.49217
8.55497
40.2403
30.4011
6.18534
40.2036
12.8738
1.67095
3.64587
17.6521
4.2816
7.44821
1.91152
9.95173
5.97007
19.2282
0.533448
0.476391
47.8601
1.78848
4.55311
1.92419
83.5976
31.2081
37.1832
0.60777
40.5575
0.737289
46.6117
35.1141
27.8175
31.8634
2.78004
8.58484
0.890531
0.987134
3.39404
35.6117
0.175028
0.372398
0.193299
5.05114
1.58698
17.1608
4.97765
1.35319
5.50751
4.3274
0.808043
8.29898
0.545474
0.624603
84.4645
32.8631
17.3177
0.482494
0.508716
28.5459
0.32967
0.314136
7.58623
0.715861
0.753399
7.85249
1.01046
46.305
3.26484
1.07079
29.4802
1.23876
9.47292
31.6548
6.26794
8.35099
5.32608
32.7513
3.71626
1.19395
4.16937
116.945
9.82365
58.4957
26.7939
18.5522
0.209562
0.185651
7.379
54.3047
31.5811
4.37224
17.9971
7.63774
4.48128
10.6468
41.8137
11.2891
7.04587
83.0799
0.182136
8.48216
56.6801
6.46238
4.65911
34.6904
10.1461
80.1993
45.3893
14.3271
11.2349
2.18647
2.47761
2.6781
6.38848
20.676
3.46558
16.9736
20.1005
127.606
42.2571
26.8929
2.10043
8.25155
15.1038
28.5773
5.71256
44.3076
4.34925
29.9752
0.749097
12.729
36.0505
0.654087
1.33942
0.688664
6.54993
22.5203
34.6113
7.94819
14.968
7.00985
3.21903
10.9955
0.287925
6.19157
5.71711
665.337
42.0303
3.76331
49.1097
7.57434
4.21907
0.267623
16.8377
1.01387
0.447304
0.271395
1.94151
3.93411
51.9789
1.3272
39.3902
0.880833
6.89903
0.829472
8.62881
1.55595
12.444
369.081
15.6449
11.045
0.192175
5.74288
71.6239
83.108
4.47441
3.1011
1.31351
12.6319
5.66421
8.52916
8.32274
24.122
0.659507
12.3794
0.522838
42.5188
17.4492
14.6769
4.46365
6.50219
111.583
12.1961
22.2127
35.6858
0.994961
17.7479
1.41761
8.73077
0.483859
5.27882
5.0374
32.2771
3.34295
3.71166
0.659633
2.43027
85.3436
1.09654
1.31766
13.3869
2.70473
65.714
113.102
0.39531
12.5129
0.547049
11.6771
10.5917
4.55972
54.7245
9.49767
5.28853
39.6976
3.85212
45.5796
4.11197
23.117
53.4768
4.33204
0.456005
0.720571
17.9711
0.370876
1.19838
5.71855
15.1027
4.78052
7.3655
38.1572
7.71113
65.0771
14.2553
24.4711
7.79288
1.05035
33.0994
4.12519
0.412495
0.191108
1.2461
2.58354
10.8033
2.06135
65.3214
4.98216
2.38648
161.655
13.7791
4.77798
106.102
3.5403
7.51314
5.89115
6.78282
29.1281
1.35045
2.30739
15.2698
0.549785
9.04816
18.0152
62.314
1.21957
9.22749
0.398888
0.753789
39.73
69.3734
6.78895
1.30019
49.163
10.5838
2.1884
10.347
24.0849
0.944479
12.3753
15.3423
0.678359
202.197
0.46845
7.27684
98.9358
79.1489
1.27228
2.24283
21.8269
3.2666
17.176
47.0336
4.96786
22.4692
71.6534
11.2332
22.8549
2.57191
4.54419
67.7454
16.081
121.378
39.7349
60.2027
1.51664
21.9443
9.5425
21.0038
13.2074
1.40065
18.8599
7.9338
0.280865
0.200974
2.46061
0.503619
10.3545
16.737
17.7748
20.2148
15.4905
4.47326
54.0867
29.4309
133.112
1.07798
0.377445
14.6888
0.818334
62.7587
45.6833
0.549118
5.02079
6.49559
101.39
11.061
5.72342
6.53067
4.37239
99.8896
0.23519
4.56309
3.84082
0.337079
62.5602
35.9125
5.14876
2.755
53.6581
21.0774
25.4801
0.998255
14.8067
0.770798
0.838649
0.710164
0.512208
2.38099
3.4023
1.20518
0.218591
46.0287
2.72596
0.220704
4.19317
0.445836
12.1716
2.97423
82.1651
9.5076
0.478074
5.57498
60.0412
9.50964
131.948
25.2657
18.0554
14.0368
5.3383
4.08992
11.3276
3.79197
1.78275
5.4007
0.191438
21.7355
9.49386
28.7548
5.28482
2.56034
9.35256
70.5475
28.7175
580.112
13.577
1.0588
0.834229
0.718903
4.91329
1.1428
2.47971
25.5146
1.29961
17.9062
1.83256
1.09383
7.8945
7.93206
5.53385
22.7779
8.36908
4.50676
7.6806
9.20133
1.55064
7.93578
62.8554
6.92889
0.771272
6.01582
93.1812
84.1109
22.5066
5.07423
9.87352
0.395434
4.69722
0.235118
13.7131
2.69169
47.9445
0.76819
122.18
11.6019
3.31374
1.45294
2.90441
35.574
44.8208
1.14876
2.20434
18.0564
34.6685
0.37768
23.9633
12.8996
4.17216
0.379508
3.5295
91.055
6.83672
6.53994
35.4818
2.07156
15.0983
13.5362
0.249556
18.1772
4.27883
43.3782
10.0402
84.4995
442.889
3.42445
140.787
0.489296
147.066
17.9163
4.28905