/*--------------------------------*- C++ -*----------------------------------*\
| =========                 |                                                 |
| \\      /  F ield         | OpenFOAM: The Open Source CFD Toolbox           |
|  \\    /   O peration     | Version:  v1912                                 |
|   \\  /    A nd           | Website:  www.openfoam.com                      |
|    \\/     M anipulation  |                                                 |
\*---------------------------------------------------------------------------*/
FoamFile
{
    version     2.0;
    format      ascii;
    class       volScalarField;
    location    "0.38";
    object      nut;
}
// * * * * * * * * * * * * * * * * * * * * * * * * * * * * * * * * * * * * * //

dimensions      [0 2 -1 0 0 0 0];


internalField   nonuniform List<scalar> 
1431
(
0.00179382
0.00283824
0.00241795
0.00174578
0.00109554
0.00259706
0.00400434
0.000787812
0.00400361
0.00494643
0.00106808
0.00117498
0.00139439
0.00131713
0.00421204
0.000652982
0.00452829
0.00279551
0.000532691
0.00126951
0.000710293
0.00386958
0.004311
0.00141173
0.00147229
0.00142766
0.00155757
0.00122928
0.00100107
0.00174835
0.00138123
0.000722374
0.00194762
0.00107138
0.00115189
0.0022298
0.0018124
0.000859581
0.0026903
0.000859028
0.00224906
0.000526701
0.00184733
0.00419731
0.00369721
0.00166423
0.00267146
0.000809664
0.000860551
0.000871218
0.00204661
0.00466368
0.00393876
0.0023711
0.00484237
0.000770449
0.00448334
0.00324906
0.00101867
0.000589281
0.00383325
0.000929729
0.00263364
0.000783736
0.000903811
0.00237158
0.00241571
0.00152249
0.00325935
0.00075135
0.000991659
0.00117529
0.00133738
0.00256065
0.00122679
0.00118427
0.00109581
0.00306716
0.000786293
0.00222913
0.000806353
0.00271721
0.000991569
0.00315167
0.00243746
0.00124453
0.00135257
0.000887742
0.00151311
0.00185235
0.00223808
0.000887055
0.0013259
0.000862745
0.00292982
0.00104048
0.00107275
0.000730862
0.00107471
0.00105791
0.00331532
0.000808215
0.00250345
0.00118073
0.00116061
0.00205006
0.000786946
0.00282754
0.00191817
0.000995831
0.00266596
0.00192821
0.00075688
0.00204849
0.00108125
0.00113511
0.00242576
0.00377551
0.00162346
0.0028944
0.000860717
0.00388543
0.00486045
0.00132828
0.000831481
0.00300263
0.00174961
0.00138125
0.00179768
0.000811544
0.00119198
0.00267335
0.00100312
0.00249039
0.00129763
0.000928084
0.00129371
0.00230291
0.00204464
0.00264539
0.00440434
0.000578201
0.000770556
0.000908491
0.00104203
0.000776269
0.00073537
0.00292723
0.00124762
0.000788539
0.00082079
0.000954581
0.00267003
0.000473726
0.000371507
0.00124949
0.000803731
0.00228497
0.000757609
0.000710917
0.0028933
0.00162404
0.00239267
0.000976729
0.00134764
0.00332545
0.0011293
0.000864424
0.00175694
0.0025944
0.00105013
0.000927599
0.001302
0.000770229
0.000772397
0.000407671
0.00061124
0.000874985
0.00169118
0.000717386
0.000840173
0.0046871
0.000752777
0.00225131
0.000773895
0.000801067
0.000754647
0.0012656
0.00149802
0.000800001
0.00514103
0.00477253
0.00103334
0.000791427
0.00437789
0.000847772
0.000786525
0.000838323
0.000444253
0.000369592
0.000469054
0.000659853
0.000745576
0.00221541
0.00078707
0.00206066
0.0012464
0.000834677
0.0012197
0.000880611
0.000790484
0.000784953
0.00157385
0.000831862
0.00348559
0.0014004
0.00075837
0.00456998
0.00174514
0.00083392
0.000830628
0.00236295
0.000778503
0.00220202
0.000825229
0.000872561
0.000942519
0.00246815
0.000826041
0.00149217
0.00141775
0.00116781
0.000748078
0.000798278
0.000791637
0.000785278
0.000738086
0.00224307
0.000827504
0.00230311
0.000844391
0.000722708
0.00432361
0.00408775
0.00104253
0.00100928
0.000830165
0.00238125
0.00168758
0.000959455
0.000725147
0.0040164
0.00437378
0.00119308
0.002954
0.00108222
0.000677041
0.00246015
0.00111752
0.00109143
0.00107068
0.000994686
0.0011869
0.00449441
0.000791435
0.000807708
0.00101989
0.000746505
0.00101325
0.00477988
0.000744628
0.000912221
0.000728557
0.000728734
0.00106031
0.000765931
0.00236967
0.00352432
0.00269056
0.00519012
0.00433496
0.00230578
0.00186234
0.00233677
0.00101645
0.00137684
0.00137416
0.000757168
0.00089709
0.000833679
0.000777299
0.000870692
0.000751804
0.00386783
0.000731411
0.000744773
0.00112801
0.000767746
0.00233517
0.000708914
0.000845843
0.000975426
0.00119727
0.000737465
0.00172199
0.00224373
0.000829108
0.00108941
0.00109963
0.00158708
0.000837141
0.000784034
0.00309313
0.000788085
0.00115466
0.00234184
0.00478819
0.00207028
0.000796604
0.00251653
0.00210397
0.00243648
0.0034985
0.00200837
0.00575295
0.00281794
0.000807579
0.00315167
0.00167818
0.000831451
0.00312135
0.00144872
0.00270263
0.00510527
0.000786976
0.00474593
0.0014771
0.00235852
0.00174831
0.00212145
0.000398379
0.000823199
0.00328385
0.000932118
0.00197559
0.000413567
0.000825912
0.00079366
0.000235126
0.000467007
0.000950443
0.000659271
0.000948186
0.000692772
0.000548926
0.000905399
0.000787051
0.000437474
0.000568771
0.000561745
0.000650744
0.000779112
0.000721081
0.000243426
0.000273172
0.000776969
0.000702976
0.000768106
0.00241026
0.00311227
0.00253497
0.00263927
0.00255593
0.000756445
0.00359047
0.00167063
0.00347577
0.000842601
0.000848867
0.000587945
0.000632463
0.000795541
0.000339133
0.000872068
0.000871972
0.000722493
0.000811856
0.000465776
0.000641845
0.000235909
0.000825057
0.00300997
0.00086787
0.000848696
0.00278133
0.00110189
0.00202708
0.00083468
0.00559365
0.000773029
0.000645061
0.00303982
0.00083278
0.00226813
0.0024977
0.000788109
0.00213979
0.0007193
0.00138515
0.00348621
0.000832471
0.000579722
0.00279643
0.00230896
0.000966806
0.001051
0.00343245
0.00436333
0.00267003
0.00176475
0.00200476
0.00421087
0.00454019
0.00225562
0.00309274
0.00351409
0.0022773
0.00395514
0.00596412
0.00288742
0.00488085
0.0018815
0.000494564
0.0050072
0.00235504
0.00333935
0.00475296
0.00417242
0.00202606
0.00322061
0.00455546
0.00104538
0.00468597
0.00423203
0.000494526
0.00587243
0.00591681
0.00133366
0.000970293
0.00487975
0.00527782
0.00416434
0.00583597
0.0041716
0.00414437
0.00372702
0.00366495
0.00393999
0.00372388
0.00242801
0.00325616
0.000689976
0.00293476
0.00296265
0.00245377
0.00231127
0.00110376
0.00306352
0.00238051
0.00267829
0.0026791
0.00275037
0.000736581
0.00109727
0.00235826
0.0023648
0.00293209
0.00303786
0.00460746
0.000725882
0.00321206
0.00274943
0.00110951
0.00080223
0.000807448
0.00463923
0.00276626
0.00523987
0.00395496
0.00078938
0.000620035
0.000717813
0.00225284
0.00368722
0.000728277
0.00265873
0.00129566
0.00347623
0.000837183
0.00266484
0.00230835
0.00154895
0.0032282
0.00284294
0.00258557
0.00172893
0.00210978
0.00495021
0.00312536
0.000998998
0.000909979
0.00141777
0.000743559
0.00210253
0.000792888
0.00309095
0.00414677
0.00141625
0.00319133
0.00215574
0.00232585
0.00167307
0.00318022
0.00120471
0.0025144
0.00452284
0.00245646
0.00371218
0.00190575
0.00347625
0.000794005
0.000739539
0.00189389
0.00237999
0.00425039
0.00395428
0.00271176
0.00269029
0.00587513
0.00246421
0.00248995
0.00423797
0.00335588
0.00422057
0.000621087
0.00548297
0.00336642
0.00079753
0.00457727
0.00201324
0.00212603
0.000580895
0.00106704
0.00425157
0.00284255
0.00235911
0.00298202
0.00360088
0.00102837
0.000759576
0.0057082
0.00209918
0.00368362
0.0046298
0.00250711
0.00130364
0.00561123
0.000744436
0.00310392
0.00222215
0.000820656
0.00568884
0.00290272
0.00559482
0.00348392
0.002109
0.00495334
0.00280411
0.0021974
0.00102355
0.00247743
0.000799455
0.00220024
0.00335151
0.00151808
0.00215886
0.00272634
0.000788437
0.0024544
0.000795017
0.00466272
0.00336601
0.000848243
0.000779107
0.000769329
0.00199054
0.00082539
0.00440113
0.000743034
0.000474665
0.00291745
0.00255468
0.00190287
0.00264661
0.00261425
0.00543845
0.00147763
0.00184248
0.005637
0.00219605
0.00183513
0.00576765
0.00178686
0.00420336
0.00206128
0.000747584
0.00339911
0.00304183
0.00315301
0.00491529
0.00167816
0.00175264
0.00268418
0.00134067
0.00427371
0.000929623
0.00158251
0.000870707
0.00516878
0.000805853
0.00568792
0.00260151
0.000559751
0.000806572
0.00205428
0.00456848
0.00171209
0.000736819
0.00110102
0.00244578
0.00217189
0.00520252
0.000807581
0.00568768
0.00398884
0.0025065
0.00204026
0.00398371
0.00421201
0.0023484
0.00302101
0.0019758
0.000765707
0.00113128
0.00415688
0.00486574
0.000821166
0.000841213
0.00498597
0.00545335
0.00328454
0.000796859
0.00233095
0.00237948
0.000828108
0.000409935
0.000848241
0.00531207
0.00519093
0.00341875
0.000866894
0.000822616
0.00253208
0.00359549
0.00078547
0.000750938
0.00186913
0.00461223
0.00141157
0.00106346
0.0045929
0.000617568
0.000978374
0.00234516
0.00440221
0.00260799
0.00364121
0.00256026
0.00383456
0.00221785
0.00179214
0.0034414
0.0022072
0.00242416
0.00541997
0.00151383
0.000246005
0.000850504
0.000825079
0.000726729
0.00224953
0.00158929
0.000765759
0.00138166
0.0010672
0.00140097
0.00112637
0.00573486
0.000850644
0.00232277
0.00212984
0.000718738
0.00179872
0.00505118
0.00368748
0.000635328
0.00309994
0.00410148
0.000719961
0.00214346
0.000644384
0.000841521
0.000805443
0.00385355
0.00217874
0.000626028
0.00440108
0.00466776
0.000683046
0.000618923
0.00268038
0.000594319
0.000702326
0.000720005
0.00461721
0.000768052
0.00202375
0.00365286
0.00590108
0.00210609
0.00286804
0.00475372
0.00068727
0.00173939
0.000784456
0.00066347
0.00074796
0.000854874
0.00116717
0.00112577
0.00449682
0.000755968
0.000740352
0.000761658
0.00227084
0.00140996
0.000845061
0.00084315
0.00087496
0.00189504
0.00126101
0.00119296
0.0018501
0.00209445
0.000855903
0.0040027
0.000521028
0.00200934
0.000792648
0.000754726
0.00396158
0.00406282
0.000826278
0.00191601
0.000502005
0.000776293
0.000861078
0.00327108
0.00532929
0.00128215
0.00136926
0.000566849
0.000769193
0.00417588
0.00157135
0.00415832
0.000754199
0.00194975
0.00111066
0.00206976
0.00228596
0.000773279
0.000871845
0.000946944
0.000847828
0.000834661
0.000846878
0.00188624
0.00473391
0.000810242
0.00574512
0.00327592
0.000715558
0.00154862
0.000238983
0.00183708
0.00230787
0.00299599
0.00360107
0.0011895
0.000829964
0.00081207
0.00410516
0.000856534
0.00187782
0.000833486
0.000673318
0.000597029
0.000538617
0.000648831
0.000837435
0.000732348
0.000773634
0.00211322
0.00103654
0.000777381
0.00138047
0.00309767
0.00167239
0.000832254
0.00103286
0.000571582
0.00214179
0.00069592
0.00184002
0.00104513
0.0054468
0.00111367
0.000730119
0.00551764
0.000779861
0.000722947
0.000733728
0.000663892
0.00234118
0.000714077
0.00193726
0.00245423
0.00184662
0.000822102
0.00306273
0.00258659
0.00254582
0.000558326
0.0018542
0.00157773
0.0043151
0.00400715
0.000837851
0.000868465
0.000807308
0.00224787
0.00172061
0.00252742
0.00193598
0.00134898
0.000805546
0.000759894
0.000737087
0.00231376
0.000769762
0.0021706
0.00211503
0.00300232
0.000674824
0.000776465
0.00233399
0.00489289
0.00289005
0.000818943
0.000940307
0.0016815
0.00190533
0.00140761
0.000747126
0.00167962
0.0015576
0.00311629
0.00379918
0.000703406
0.000878959
0.00335583
0.00294059
0.000826484
0.00240781
0.00337348
0.000618058
0.00199416
0.00237157
0.00127477
0.00183577
0.00198339
0.00355553
0.0034691
0.000951571
0.000938983
0.000846096
0.0025193
0.000927744
0.000613903
0.00247867
0.000807228
0.00484781
0.00261093
0.00336713
0.00381465
0.00269955
0.000865579
0.000983935
0.00112865
0.00496955
0.000785556
0.0017483
0.000815423
0.000795722
0.00105253
0.0011704
0.000729732
0.00539901
0.000683881
0.00322913
0.000751688
0.00123518
0.000296618
0.000336239
0.000318872
0.000336492
0.000343772
0.000338424
0.00196795
0.000224627
0.00072945
0.000820292
0.000321696
0.0015352
0.000421907
0.00265103
0.00104977
0.00304217
0.000314817
0.00559125
0.000366862
0.000719335
0.00554483
0.00434384
0.00185838
0.000304259
0.002704
0.00577712
0.00233109
0.00427765
0.0051305
0.00274413
0.00292158
0.00216174
0.000313235
0.000311297
0.000969096
0.00029889
0.00276005
0.00589223
0.00328609
0.0020645
0.000968989
0.00446743
0.00332774
0.000817241
0.000313158
0.000321858
0.00113431
0.00318975
0.000780664
0.00560903
0.00311314
0.00303488
0.000781362
0.000299563
0.00358444
0.00034336
0.00108929
0.000406727
0.000825997
0.00524043
0.00272247
0.000829967
0.00187775
0.00352862
0.00089581
0.00266509
0.000988919
0.000736907
0.00105812
0.000811533
0.00241966
0.00487584
0.000778222
0.00250228
0.00481898
0.000846088
0.00225956
0.0048754
0.00434196
0.000813831
0.000729493
0.000975418
0.00336062
0.00269277
0.0031885
0.00291838
0.00541222
0.00358739
0.00441757
0.00296747
0.00273165
0.00107206
0.00210006
0.00187256
0.00225765
0.000573936
0.00247331
0.00557986
0.00386024
0.00255303
0.00308432
0.00112256
0.00438392
0.00304571
0.000837818
0.00352996
0.00242048
0.00135106
0.00114785
0.000766239
0.00224332
0.00462429
0.0030184
0.00305343
0.00538254
0.000753881
0.00389279
0.002759
0.000624463
0.00489072
0.00440218
0.00169037
0.00433237
0.00252174
0.000785621
0.000757807
0.000755153
0.00430987
0.00485054
0.000846632
0.00079996
0.000776737
0.00207451
0.000970272
0.000777738
0.000840741
0.00495077
0.00216627
0.000799172
0.000825898
0.002317
0.000823653
0.00316565
0.000225946
0.000777887
0.000791176
0.000802605
0.000369828
0.00101978
0.00221451
0.0011846
0.000744582
0.000428364
0.0010543
0.00101941
0.000795482
0.00381696
0.00249339
0.000743928
0.00189442
0.000771496
0.000534554
0.000313317
0.00151427
0.000833358
0.00205381
0.00272322
0.00203155
0.000347365
0.000929572
0.000933585
0.000532706
0.00086715
0.00355157
0.000847961
0.00184013
0.000808217
0.00136526
0.00465951
0.00325451
0.000689777
0.00206323
0.000898157
0.0027282
0.00271929
0.00111583
0.000797891
0.00276551
0.00220995
0.00079077
0.000311282
0.000969542
0.000343791
0.00273259
0.00221886
0.00268946
0.00437469
0.000788407
0.000633503
0.00184531
0.00347259
0.000519375
0.00162326
0.00124328
0.00103737
0.00275133
0.000639662
0.0021794
0.00200894
0.00386988
0.00546898
0.00226807
0.000801355
0.000825149
0.000328008
0.00178543
0.000823139
0.00316157
0.000756861
0.00222209
0.00384988
0.00206399
0.00282156
0.00463849
0.00114697
0.000508567
0.000838081
0.00135281
0.000262679
0.000826984
0.0020884
0.00553499
0.00148821
0.000760931
0.000723042
0.00221436
0.000340357
0.000840553
0.00252219
0.00461004
0.000860053
0.000840601
0.000839714
0.00078524
0.000611375
0.000673103
0.00368083
0.000613485
0.00341772
0.00075076
0.00138562
0.00311122
0.000829161
0.00354145
0.00300577
0.000591663
0.00071471
0.00211388
0.00243991
0.000870315
0.000340427
0.00494579
0.00518591
0.000912278
0.00344368
0.00139353
0.000740511
0.00368026
0.00360782
0.00299224
0.0020935
0.00470268
0.00088093
0.000852561
0.00125962
0.00566874
0.000842376
0.000819679
0.00174369
0.00505495
0.00169333
0.00212504
0.00154872
0.00286203
0.00114278
0.0018155
0.00161394
0.00261015
0.00547102
0.00047325
0.000307541
0.00480218
0.000751176
0.00130401
0.000737556
0.000774287
0.000844478
0.000908372
0.00233098
0.00102348
0.000957798
0.000282728
0.00579928
0.00116969
0.00119666
0.00318599
0.00159182
0.00305657
0.00341097
0.00169637
0.00237116
0.00399499
0.00344543
0.000935858
0.0013856
0.00296931
0.000722848
0.0013498
0.000941765
0.000792379
0.00279821
0.00351797
0.00583754
0.00227336
0.000622193
0.00544648
0.00266176
0.0012894
0.00271871
0.00423731
0.00445484
0.000770951
0.00084446
0.00372178
0.0025083
0.00170811
0.00498856
0.00334703
0.0032611
0.00108111
0.000831156
0.000911082
0.0008165
0.000873622
0.00201935
0.000841031
0.00100911
0.000456372
0.00141807
0.000813632
0.000949788
0.00260895
0.00290958
0.00549676
0.00425405
0.00443836
0.0024604
0.00289797
0.00119532
0.00368488
0.00137851
0.00189487
0.000845931
0.00257893
0.00441196
0.00167622
0.000839726
0.00518862
0.000786538
0.00438667
0.00418757
0.00487756
0.00540393
0.00380525
0.000775286
0.00241609
0.00551664
0.000846141
0.000783315
0.000618056
0.00289015
0.00236114
0.000730468
0.00359815
0.00364637
0.00128943
0.00267639
0.000991585
0.000341698
0.00299472
0.0053256
0.00288921
0.00269331
0.00103179
0.000855724
0.0034418
0.00221713
0.00260167
0.00249108
0.00171237
0.0027501
0.000760716
0.00135959
0.0021225
0.000821118
0.00117774
0.00132402
0.000721973
0.00161283
0.00247719
0.000856956
0.000265315
0.00136721
0.00194415
0.000803408
0.00116111
0.00157138
0.00118128
0.000683155
0.00185619
0.00263071
0.00243905
0.00269666
0.00233552
0.000857261
0.00167168
0.00253474
0.00207796
0.00312486
0.00071776
0.00301852
0.0033118
0.0025349
0.001545
0.000755658
0.00120838
0.000696409
0.000947146
0.00169522
0.00125459
0.00124389
0.00268932
0.0019055
0.00369726
0.00124071
0.000790583
0.00556946
0.000875398
0.00225573
0.00319953
0.00263549
0.000814114
0.00102725
0.00191687
0.000843205
0.000842162
0.00115216
0.00098222
0.00236942
0.00137944
0.001971
0.00555048
0.00118011
0.00118372
0.00122616
0.00106994
0.000944916
0.00174635
0.000837141
0.000834687
0.00132797
0.00311906
0.00163304
0.000879159
0.000911135
0.000915065
0.000793924
0.002802
0.00330949
0.00404022
0.00499857
0.000742421
0.000664577
0.0036268
0.00544396
0.00388428
0.00506202
0.0037314
0.000804061
0.000761393
0.00117329
0.000739628
0.000999713
0.0010553
0.00170895
0.00117426
0.00158597
0.00117766
)
;

boundaryField
{
    frontAndBack
    {
        type            empty;
    }
    wallOuter
    {
        type            nutkWallFunction;
        Cmu             0.09;
        kappa           0.41;
        E               9.8;
        value           nonuniform List<scalar> 
90
(
7.79741e-05
7.67279e-05
7.77945e-05
7.56308e-05
8.23356e-05
8.46092e-05
8.66757e-05
9.4091e-05
8.00368e-05
8.90366e-05
9.14899e-05
9.5028e-05
9.06955e-05
9.3157e-05
9.23523e-05
0.000104107
9.97084e-05
8.11883e-05
7.21959e-05
6.52193e-05
7.83152e-05
0.000100161
8.80671e-05
9.28572e-05
8.00845e-05
0.000113201
0.000111666
8.77629e-05
8.23766e-05
3.71787e-05
4.25061e-05
4.02618e-05
3.96855e-05
4.34494e-05
4.27141e-05
4.04044e-05
3.90856e-05
4.59992e-05
8.61071e-05
3.79809e-05
3.88533e-05
3.88314e-05
0.000114967
3.68774e-05
3.88764e-05
4.01459e-05
4.2287e-05
0.000128413
5.11309e-05
0.000106795
0.00011583
6.79931e-05
7.5445e-05
9.57761e-05
9.85899e-05
4.63571e-05
5.38983e-05
0.000124462
0.000120671
8.94112e-05
6.47319e-05
3.85777e-05
4.27609e-05
0.000110915
9.68114e-05
8.31315e-05
0.000107108
3.8162e-05
0.000114953
4.24245e-05
6.15743e-05
3.18124e-05
9.13665e-05
4.18648e-05
0.000102584
7.41382e-05
7.15602e-05
0.000103907
4.19179e-05
0.000108518
5.73091e-05
0.000113637
3.44416e-05
7.51768e-05
5.34234e-05
4.20179e-05
0.000102234
3.22562e-05
8.2339e-05
8.38894e-05
)
;
    }
    inlet
    {
        type            calculated;
        value           uniform 0.000851986;
    }
    outlet
    {
        type            calculated;
        value           nonuniform 0();
    }
    wallInner
    {
        type            nutkWallFunction;
        Cmu             0.09;
        kappa           0.41;
        E               9.8;
        value           nonuniform List<scalar> 
138
(
0.000139623
6.58839e-05
0.000221009
0.000128053
0.000141008
6.39339e-05
0.000269498
0.000176125
0.000119703
0.000144644
0.00013927
0.000118877
5.65838e-05
4.64236e-05
4.93599e-05
7.40799e-05
5.60739e-05
4.66001e-05
5.77587e-05
7.95946e-05
0.00024746
0.000127721
8.19888e-05
0.000131657
0.000128755
0.000126433
0.000120829
0.000125274
0.000120437
0.000128525
0.000129669
4.95263e-05
5.12289e-05
9.63557e-05
2.76427e-05
5.46301e-05
0.0001145
7.75646e-05
0.000112735
8.24839e-05
6.83869e-05
0.000109055
9.27601e-05
5.44783e-05
6.76108e-05
6.93667e-05
7.8867e-05
9.56049e-05
8.63998e-05
2.873e-05
3.274e-05
9.44142e-05
8.52231e-05
9.40668e-05
7.05357e-05
7.47016e-05
9.65633e-05
3.93858e-05
0.000103222
0.000106453
8.71509e-05
9.94434e-05
5.83747e-05
7.60947e-05
2.78112e-05
0.000100012
7.93326e-05
7.02741e-05
0.000124689
6.00109e-05
0.000122441
5.92533e-05
0.00011505
8.64696e-05
0.000129811
9.18641e-05
0.000131172
9.32265e-05
7.33171e-05
9.08419e-05
9.22944e-05
0.000151582
0.000178857
0.000116667
0.000106181
0.000164587
7.30697e-05
7.20875e-05
0.000126068
0.000121762
9.93741e-05
5.63748e-05
6.79672e-05
4.92725e-05
7.61538e-05
2.87929e-05
0.000103176
7.5238e-05
7.16722e-05
8.289e-05
0.000147118
6.36263e-05
6.09847e-05
6.71973e-05
0.000113036
2.75993e-05
0.000123148
0.000131238
8.92024e-05
6.75952e-05
7.60851e-05
0.000124401
2.58553e-05
8.83172e-05
5.27222e-05
0.000115154
9.3709e-05
3.66663e-05
8.65868e-05
0.0001255
9.41664e-05
2.70356e-05
9.33097e-05
6.42638e-05
7.84394e-05
6.31576e-05
9.8722e-05
4.07463e-05
7.52356e-05
8.17244e-05
3.63613e-05
8.02237e-05
0.000138166
8.90072e-05
0.000119423
0.000195927
0.000145783
0.000137946
)
;
    }
    procBoundary0to1
    {
        type            processor;
        value           nonuniform List<scalar> 
29
(
0.00332224
0.00442605
0.00349817
0.00349817
0.00513392
0.00513392
0.00278845
0.00173373
0.00196618
0.00282706
0.00255561
0.00194925
0.00138517
0.00144127
0.002079
0.0012023
0.00768718
0.00532021
0.00354368
0.00412017
0.000841208
0.000725549
0.00313235
0.000736267
0.000723292
0.00532021
0.000722097
0.000905882
0.000736267
)
;
    }
    procBoundary0to2
    {
        type            processor;
        value           nonuniform List<scalar> 
42
(
0.00388409
0.00331425
0.00129339
0.00115712
0.00228924
0.00388409
0.00129339
0.00103037
0.0020839
0.0016557
0.00230342
0.00259344
0.00230342
0.00293828
0.00350949
0.00376447
0.00350949
0.00141825
0.0018547
0.00354108
0.00354108
0.00141825
0.000996728
0.00384271
0.00384271
0.000738704
0.00315323
0.000755723
0.00368104
0.00342245
0.00342245
0.000837206
0.000880406
0.00086638
0.0008462
0.00129339
0.00327957
0.000402238
0.00368104
0.00103037
0.000873454
0.000839839
)
;
    }
}


// ************************************************************************* //
