/*--------------------------------*- C++ -*----------------------------------*\
| =========                 |                                                 |
| \\      /  F ield         | OpenFOAM: The Open Source CFD Toolbox           |
|  \\    /   O peration     | Version:  v1912                                 |
|   \\  /    A nd           | Website:  www.openfoam.com                      |
|    \\/     M anipulation  |                                                 |
\*---------------------------------------------------------------------------*/
FoamFile
{
    version     2.0;
    format      ascii;
    class       volScalarField;
    location    "0.38";
    object      p;
}
// * * * * * * * * * * * * * * * * * * * * * * * * * * * * * * * * * * * * * //

dimensions      [0 2 -2 0 0 0 0];


internalField   nonuniform List<scalar> 
1431
(
79.2958
79.0778
78.4905
75.9246
78.4593
72.1507
71.4314
85.0155
77.0504
77.1533
79.9904
80.9192
73.5185
90.5094
80.4811
80.0175
80.7336
78.5522
77.2888
79.7437
78.5364
77.141
78.3736
91.424
65.5155
79.588
57.0633
89.6544
76.1517
76.161
101.233
107.759
70.9852
67.7014
73.9068
77.3608
79.4219
84.0407
67.2914
84.1258
98.0405
78.2268
69.4362
74.0963
70.3638
78.899
80.3224
105.895
102.233
85.4043
74.3204
76.7129
76.8573
66.474
73.4392
98.9488
76.2598
73.755
64.8073
78.4648
79.4128
79.0347
80.2147
84.8144
86.8395
78.028
76.9629
72.3371
77.658
85.2522
69.1316
74.103
79.7237
69.5179
80.3996
71.1256
78.6267
71.5884
85.2694
59.2559
84.8472
74.6811
78.5484
79.0547
64.2187
78.4526
78.4376
73.9057
92.3742
79.4053
78.8524
74.8111
78.4246
83.7917
76.8983
78.4793
79.3788
87.0405
78.4163
101.192
77.4369
83.9587
79.1745
78.4154
76.7072
76.6978
84.9883
101.53
103.183
78.5136
59.0809
78.1444
85.5497
79.1359
76.9787
78.4327
78.6675
79.8709
93.2951
71.3233
82.4837
75.9876
76.7354
96.2202
84.4603
76.6386
94.1524
79.5305
78.9937
84.5076
78.3996
102.461
92.8573
79.1443
78.4252
76.5229
79.5493
77.1542
78.9792
102.018
77.2732
78.3623
83.9642
102.343
103.598
82.752
86.5023
101.981
79.3868
100.593
85.4834
87.9224
79.1947
76.0231
78.9202
78.1403
84.8373
79.0827
86.3422
95.4641
78.3777
79.5917
79.1459
75.3062
78.4287
56.2358
78.5042
83.2211
75.2348
79.2683
94.049
79.1191
100.034
85.7401
84.4876
78.7891
74.73
86.243
76.4532
92.1266
84.5034
79.8248
92.3312
79.2756
84.1805
95.1333
84.0685
70.4049
79.5103
84.7914
77.6044
80.1442
78.569
84.6725
78.996
82.1926
84.9991
104.241
78.9968
79.2261
79.3604
103.748
99.0197
96.7153
84.9111
59.2836
78.4509
85.0599
80.3131
89.142
84.6573
85.5633
96.9506
85.0168
75.4343
71.3063
87.2896
78.183
77.9417
84.7308
84.7807
54.9739
84.1267
91.3573
85.3863
78.8677
97.9751
79.2055
89.774
101.614
78.4309
75.8892
85.1313
83.4316
84.6732
85.3005
86.2709
79.1656
84.7788
78.2816
86.6958
97.3119
76.8104
79.8243
76.1568
74.7928
84.0244
72.2934
66.4436
92.9222
90.8185
76.9835
76.9541
104.268
80.0063
85.832
75.4059
78.5773
84.6637
85.1935
85.6258
74.1983
78.405
77.3621
84.8765
88.8781
80.2465
83.9534
90.9678
76.8004
85.1465
101.081
89.7883
88.791
85.4176
82.1287
79.0613
79.1359
75.3826
77.2636
76.9199
77.744
78.2415
79.0255
82.1316
72.5945
78.4492
90.8019
91.7357
86.0285
82.6024
84.8406
90.6644
76.9273
92.3184
87.6359
78.684
90.3503
78.6485
93.7124
84.6659
99.6209
77.258
104.047
79.0112
78.7884
84.915
85.5681
84.884
77.0874
85.6658
84.1995
78.7176
78.3547
73.7457
78.6992
77.398
76.8712
84.2718
76.4908
78.56
75.9505
77.5547
77.899
76.3937
76.7771
84.7513
77.0745
98.5433
85.4048
79.0048
76.7018
77.7231
77.3237
84.5793
76.7985
76.0441
75.7806
75.0321
73.2676
79.3964
84.8374
77.0167
74.4603
89.7906
76.6505
85.281
78.6774
77.6915
77.7022
77.7727
77.1216
77.9813
77.9454
76.2558
77.6699
77.0068
76.6501
78.636
77.7967
75.6595
75.9528
77.2785
77.8398
77.7023
78.4944
75.7135
76.1078
78.3837
79.0619
79.0498
78.2434
76.3686
93.7199
77.5195
77.7656
79.0436
83.6873
82.7446
78.7515
77.7351
78.0597
77.7134
77.1185
75.823
76.4538
76.5338
76.5168
78.3875
77.7305
78.2632
78.4193
96.6255
83.6214
76.7638
77.8707
75.9872
84.9263
76.7239
84.9342
78.4935
78.857
84.9338
74.7283
78.6617
81.9212
76.4294
103.809
77.4033
79.0596
82.0827
78.116
76.2525
75.785
102.968
116.756
79.0666
77.0362
75.4143
76.5277
77.387
77.0495
77.8034
79.5434
77.2553
79.3192
79.4946
77.9977
70.114
79.8054
70.3448
79.5877
78.2622
77.3493
77.0822
79.7284
76.8675
78.0684
79.6428
65.2636
72.3253
78.0425
77.7415
78.0524
79.5595
76.2928
76.2525
79.6678
79.2461
77.4066
77.0716
77.7153
76.4477
77.7823
77.4319
77.6033
77.6409
77.67
77.5701
76.3853
73.3685
79.5875
66.6372
74.9401
75.8478
75.6063
77.5162
74.1454
70.2011
75.3639
74.8047
77.3843
103.806
100.642
70.2454
75.6224
78.5344
78.5566
80.2917
77.9049
77.684
76.54
87.6114
83.2862
103.77
75.2543
74.6155
77.3271
77.8098
79.365
79.5162
78.9597
75.8674
82.9667
78.3835
75.4939
76.2199
78.5737
84.911
79.0199
73.2235
73.9054
78.5472
79.9509
79.7702
79.3514
75.8945
77.6143
78.5315
77.0758
76.7613
79.5777
86.2081
78.0904
84.8376
78.6636
80.9525
73.8357
78.092
76.2697
79.0005
79.6026
78.7725
77.5739
75.8061
77.2128
78.3594
78.1134
79.4769
78.5004
103.723
104.491
79.5049
79.1941
77.627
77.8115
79.0827
78.9325
76.3785
83.7136
79.8718
79.3534
78.9086
75.5621
77.8815
77.3259
78.5068
84.7952
77.5932
76.3626
79.3462
78.6327
84.226
77.5781
76.955
78.4884
79.6456
79.1645
83.2623
88.6692
76.6567
79.5513
79.7033
81.3987
70.5363
76.9386
76.3883
89.96
79.2521
79.679
75.8263
76.6719
80.1797
77.0012
79.1719
78.9545
76.6033
76.7951
79.5542
86.9709
74.5018
84.8496
78.3225
79.9028
77.9507
79.2744
78.4921
83.3936
74.1673
88.0223
76.1006
74.9093
81.548
83.9907
85.0415
79.4784
77.4866
78.0531
88.9179
76.5432
78.6461
78.4495
76.2989
78.9327
78.9918
76.9974
79.7899
76.6309
77.0163
79.1406
83.0894
76.2622
76.309
77.7281
81.0016
87.9416
78.2453
76.9055
78.6072
77.3344
76.7566
77.7567
78.601
75.9546
78.3311
109.756
76.3406
77.5591
76.6466
84.722
76.7304
78.487
78.8167
84.6967
78.3026
77.4055
76.4782
92.2643
81.8526
78.5647
79.2798
77.2976
84.7255
76.4781
78.6141
79.5052
79.5204
76.9003
76.4385
78.4812
76.977
78.4644
87.3422
82.2237
76.866
77.0574
85.0188
84.1699
77.6664
76.6377
80.1405
78.2276
78.6983
78.7839
85.233
76.7942
79.7809
77.5888
76.9928
79.0465
77.7496
84.8794
78.6511
80.3158
103.565
102.808
71.9875
75.7342
74.2203
84.1348
79.783
78.5017
75.9709
76.3574
77.8869
79.4309
76.8948
79.842
79.1687
75.9975
101.988
80.1848
79.646
79.2656
76.4248
76.1472
77.9972
77.1866
84.9777
93.8019
79.3635
76.4788
89.0484
75.2799
78.4466
115.159
81.4586
76.5621
77.4678
96.7259
76.2611
77.514
76.6292
77.6916
78.1537
85.3041
78.9233
78.3835
95.8635
79.0587
85.0938
86.6184
84.6396
79.6853
73.7572
85.7722
77.6647
77.0473
94.9914
76.3323
76.6275
78.8556
94.4091
93.7538
80.571
88.0684
78.8327
79.3064
76.3093
78.7485
80.0922
76.6912
105.054
78.8501
87.1908
85.7105
89.8121
90.7019
95.1217
76.7334
77.1966
91.3683
93.0501
91.4301
78.8399
78.5367
84.1668
85.0438
85.5111
94.9438
78.6819
93.2432
97.615
89.799
84.5459
78.2033
78.2144
96.1892
86.761
92.2655
78.68
86.5168
77.5581
77.3836
78.2373
88.5991
78.3093
78.9903
77.19
76.3785
78.6655
78.1524
90.5923
77.9674
76.4798
94.029
77.5667
77.3231
78.2104
95.6862
78.9697
87.121
98.0988
126.384
83.5189
84.8317
77.6508
76.8434
82.0934
84.3267
76.4592
80.2581
98.0633
75.43
78.1519
78.1063
82.1537
78.0052
76.2779
78.7761
85.5688
84.4422
76.9565
77.9986
64.4372
86.2269
85.9945
83.4741
83.5799
83.6964
86.8725
85.037
89.7366
78.3339
78.1411
85.5127
79.6883
80.0284
74.4855
78.0563
79.6598
77.6886
77.6953
78.2529
73.6914
79.4114
77.0461
84.5666
79.1021
76.632
86.288
101.923
86.6932
83.3804
74.04
100.142
76.2453
78.9608
78.5132
84.8356
78.7247
79.3524
78.9485
77.6626
107.851
78.8657
76.1316
76.2125
84.5127
85.0712
84.7005
78.9208
76.8544
76.7629
76.875
78.9402
83.5207
95.4259
78.1062
74.4265
103.414
86.3053
78.7985
79.5248
77.7359
94.0776
68.7778
74.3425
77.4785
84.9466
78.3508
73.2013
78.3714
77.3798
85.2458
79.1987
78.7181
72.1737
71.0554
102.479
87.02
78.2195
73.5182
85.1535
79.3281
77.1412
77.6284
76.9873
76.4011
76.9657
74.7179
74.0172
77.6215
78.0508
99.319
101.638
86.8273
79.3091
77.6181
76.7115
78.7404
84.643
78.7266
75.1467
77.4541
79.6933
78.8309
85.3666
77.4873
75.2486
76.9219
85.4092
78.6522
84.7716
84.8146
87.4547
74.0003
85.137
77.4993
95.8355
78.6306
95.8916
79.2578
80.5473
80.1212
80.3627
80.6574
79.8816
79.6961
78.2532
78.2575
74.974
85.1231
79.5904
79.0867
78.7715
57.3097
78.5727
76.6143
79.51
77.3241
78.4162
79.4431
76.9041
95.8553
76.8301
79.545
77.9594
76.5686
78.3252
77.8752
76.7915
75.3429
75.6137
78.5123
79.511
79.5181
81.5267
78.4655
78.6203
76.3627
77.2888
78.5369
74.4892
77.22
77.2084
84.8777
79.5132
79.5103
77.5002
79.2108
87.7312
76.8102
76.8817
76.8887
72.3486
78.4097
86.0586
79.3196
81.7574
78.4297
85.2743
76.5471
79.2409
85.3509
76.4605
79.1628
90.89
62.9975
78.5036
76.4059
76.1676
85.6311
69.8361
74.7253
85.4416
74.6253
80.4273
82.3715
78.9066
77.161
77.7995
84.7088
87.849
100.329
78.3057
80.569
77.0797
77.6419
76.8176
79.8256
80.6235
76.1153
71.6794
87.738
75.9582
78.3164
74.3471
80.4912
99.2585
76.5538
77.4377
79.4521
79.174
79.3824
77.1644
79.6144
84.3962
76.7481
76.4726
78.2323
78.4611
77.9263
76.0013
76.7393
75.3327
71.5224
76.6214
93.3364
80.5039
75.4312
83.7393
76.8607
79.3599
67.5095
73.4086
78.7122
87.6075
76.4831
103.959
76.7813
80.8547
80.0368
66.6193
106.326
78.9156
80.7855
85.0642
83.8851
76.9686
78.6049
84.2457
79.33
84.1689
85.0203
77.6863
78.4891
82.196
85.4582
85.3664
78.4598
77.2171
76.12
77.4203
105.019
78.4463
80.1279
101.096
84.9585
80.1375
76.1508
88.5845
75.7132
105.427
82.4412
79.4855
77.6921
85.5027
79.0763
81.8521
79.2607
78.8934
80.3212
63.0954
78.3457
85.5255
80.0705
77.8388
75.7091
88.7422
77.0147
80.6265
76.8689
101.598
76.9127
102.575
79.5753
77.5888
96.19
98.6142
78.2468
73.9237
85.4861
78.6801
64.6231
79.4055
76.6348
77.0416
67.5937
74.0897
85.5111
76.9358
79.3783
78.5758
77.8085
79.2362
78.2525
80.3519
78.8321
77.6337
78.0424
78.5036
77.7031
77.5417
79.0455
84.3916
66.0068
78.4632
78.7732
85.0853
71.4611
77.7525
77.478
80.4129
76.8204
75.9882
77.9643
88.6672
95.9942
85.7278
67.5091
78.5446
77.7236
77.3697
77.3176
99.7829
102.172
77.6441
78.0874
79.2055
84.755
69.8529
79.6028
77.4708
83.259
83.0479
102.672
77.4221
77.8004
77.7856
96.9196
71.9488
98.6645
78.85
77.2236
80.6274
86.3623
79.1608
85.9844
77.5798
75.9374
83.4263
87.4137
78.7618
80.4666
76.5646
65.9929
77.4317
79.7217
85.4105
80.3341
76.5885
74.8143
75.1968
80.1831
86.4231
79.6319
73.6863
76.5405
84.7394
84.5045
86.3512
77.1
79.4637
74.4935
76.9134
73.8226
78.1161
77.3495
78.097
75.6441
77.0516
83.2789
78.4903
80.5375
101.374
80.0536
104.2
83.9079
83.6156
86.5933
70.8593
78.4675
62.1214
78.6055
76.4004
65.5034
78.4494
76.1133
78.8753
77.4336
78.7375
81.2854
69.8763
74.1238
77.347
78.398
73.4031
78.9504
103.151
78.4393
74.4834
84.7962
78.1554
79.1481
76.4163
78.9128
79.9771
76.5593
78.3122
74.1033
78.8196
84.876
78.8451
84.8281
82.1308
79.3873
71.3934
77.2954
79.5334
79.4329
78.2414
77.6449
85.3335
80.2991
84.5052
81.8678
79.3986
85.2025
87.636
80.6605
78.3345
108.077
113.605
79.2475
78.9072
76.5571
77.0463
77.3849
77.524
84.1674
80.9549
79.662
76.8579
79.4229
83.2373
78.455
80.6856
73.5061
78.216
76.5975
85.2207
80.1381
77.6
77.8323
76.8502
77.5847
84.8736
78.9718
77.5925
82.9532
87.2166
78.701
77.0257
78.7857
78.5914
79.5737
78.0862
78.7661
75.7367
78.7636
79.055
77.9223
77.7594
78.4821
80.5413
72.3161
77.7711
77.4116
78.9664
79.458
79.195
78.9594
76.1741
86.0068
76.7582
58.5601
84.6587
75.919
78.4357
104.675
78.3849
76.6786
70.7194
78.4943
75.8019
77.0835
84.5579
77.6208
76.8826
76.3633
83.2262
77.0137
78.6116
74.8646
75.6867
78.5982
84.7831
79.43
79.6057
77.7461
77.1456
104.458
75.5656
81.4211
77.7979
79.4756
87.05
76.7655
87.1403
86.1988
79.4445
80.4922
76.6345
78.7908
78.7966
80.2033
76.2529
108.792
77.5628
80.5885
88.9553
75.6231
100.778
84.3709
88.1942
79.2017
83.4435
78.2875
78.3996
77.7264
79.3809
68.3914
76.5059
76.4681
74.9117
81.7559
75.2473
79.4289
80.7825
79.4261
85.4984
85.3405
83.9062
77.7825
74.0452
83.2678
84.5663
85.3849
84.8061
79.1243
77.2409
77.4799
77.7364
85.7463
101.465
77.9662
77.6938
77.3363
77.5122
80.145
84.7878
86.4203
68.2405
110.928
69.6582
71.4998
102.443
71.5754
74.3463
83.7142
)
;

boundaryField
{
    frontAndBack
    {
        type            empty;
    }
    wallOuter
    {
        type            zeroGradient;
    }
    inlet
    {
        type            zeroGradient;
    }
    outlet
    {
        type            fixedValue;
        value           nonuniform 0();
    }
    wallInner
    {
        type            zeroGradient;
    }
    procBoundary0to1
    {
        type            processor;
        value           nonuniform List<scalar> 
29
(
70.8576
70.6791
65.1203
65.1203
69.9258
69.9258
103.374
68.9498
74.135
66.2419
67.9974
70.1122
65.851
71.4613
103.714
104.007
69.5515
70.2308
64.8218
71.3765
103.869
103.73
71.6462
104.001
104.155
70.2308
104.762
103.264
104.001
)
;
    }
    procBoundary0to2
    {
        type            processor;
        value           nonuniform List<scalar> 
42
(
76.662
76.8678
78.3754
78.3271
75.8893
76.662
78.3754
78.3539
76.0155
76.9999
76.1834
76.797
76.1834
76.8725
77.0264
76.1308
77.0264
77.3586
76.4603
73.3258
73.3258
77.3586
77.5796
74.6931
74.6931
77.5408
74.9749
77.5048
75.6425
77.1439
77.1439
77.4736
77.5225
77.6879
77.9346
78.3754
77.1358
78.3918
75.6425
78.3539
78.2859
78.1618
)
;
    }
}


// ************************************************************************* //
