/*--------------------------------*- C++ -*----------------------------------*\
| =========                 |                                                 |
| \\      /  F ield         | OpenFOAM: The Open Source CFD Toolbox           |
|  \\    /   O peration     | Version:  v1912                                 |
|   \\  /    A nd           | Website:  www.openfoam.com                      |
|    \\/     M anipulation  |                                                 |
\*---------------------------------------------------------------------------*/
FoamFile
{
    version     2.0;
    format      ascii;
    class       volVectorField;
    location    "0.41";
    object      U;
}
// * * * * * * * * * * * * * * * * * * * * * * * * * * * * * * * * * * * * * //

dimensions      [0 1 -1 0 0 0 0];


internalField   nonuniform List<vector> 
5794
(
(-0.244871 0.334734 -2.71772e-17)
(0.191886 1.8054 0)
(0.785379 -0.180864 -1.48143e-16)
(0.30699 3.66217 8.71079e-17)
(2.23377 3.09026 2.538e-17)
(-0.110134 1.47244 -1.02556e-16)
(4.45035 -0.289776 -1.2577e-16)
(-0.754575 0.0960119 0)
(5.78936 0.886461 9.08445e-17)
(-2.21799 -0.152434 1.643e-16)
(4.76228 -0.108328 -3.45911e-19)
(-0.666567 -0.541461 0)
(-3.21384 -0.0436624 4.06203e-16)
(0.046605 6.98008 1.56712e-16)
(0.483558 -0.47446 4.4208e-16)
(0.563524 -0.159992 -1.38792e-16)
(2.2401 -0.0832728 5.80889e-17)
(-0.564583 7.78998 9.7295e-17)
(0.300936 -0.409345 4.12442e-16)
(-0.062628 0.968274 1.34553e-16)
(-3.07432 1.80208 -3.79651e-17)
(0.021402 1.06581 -1.3266e-16)
(4.37149 0.66446 1.75725e-16)
(-0.0610177 -0.387164 -5.96621e-16)
(1.31937 -0.0806693 -3.96315e-16)
(2.947 9.86407 2.07496e-17)
(6.55202 -0.219979 0)
(-0.164931 3.29886 -1.17746e-16)
(0.447867 9.27812 -3.32902e-17)
(-0.099899 -0.0247726 2.77597e-16)
(0.465375 -0.902785 -5.42029e-16)
(-0.962225 0.0552336 -4.99147e-16)
(-2.14532 0.115005 -8.2581e-16)
(0.682166 -1.32263 3.11695e-16)
(1.59038 -0.74834 -1.61271e-16)
(-1.17681 0.736557 1.61802e-16)
(9.67961 0.597479 -1.98152e-16)
(0.331689 -0.346485 0)
(4.18495 -0.322924 1.0571e-16)
(0.716904 2.78291 0)
(0.629906 0.736427 -1.13442e-16)
(-0.209851 -1.21363 1.28361e-16)
(7.2359 0.10845 -8.62547e-19)
(0.217972 -0.343056 0)
(0.189928 -0.976627 -3.5985e-16)
(4.90452 -0.175391 1.22811e-16)
(2.08458 -0.102349 -2.57485e-16)
(-2.12567 -0.309437 0)
(-2.25615 0.19934 5.61067e-16)
(-0.352889 -0.870694 5.98875e-17)
(0.543932 -0.0349911 -1.52131e-16)
(6.00279 -0.204518 -1.63921e-16)
(-0.322784 0.913111 0)
(-1.45457 0.250155 1.32533e-16)
(-0.0973853 -0.0874195 9.33665e-18)
(5.14702 -0.512638 0)
(2.08925 -0.27544 -2.11651e-16)
(-2.02336 0.173504 1.19996e-16)
(8.2466 0.0625592 0)
(4.44644 9.29118 -6.87406e-19)
(9.0874 0.468913 1.74082e-18)
(0.395024 1.18686 -1.06537e-16)
(0.410912 -1.39254 -1.23068e-16)
(-0.362362 0.0565699 2.10125e-16)
(-1.21354 0.132682 0)
(1.23255 0.367196 -2.15776e-18)
(0.163608 0.503704 -2.36602e-16)
(0.447237 2.27114 0)
(-0.307515 5.07779 -1.19519e-16)
(-0.00450305 0.438753 -9.69306e-21)
(4.7571 -0.488673 1.26043e-16)
(0.309883 1.89407 -2.95557e-16)
(11.8015 2.11589 -3.63102e-18)
(-0.187637 0.5981 0)
(-0.431049 6.7972 1.01993e-16)
(0.159168 1.72492 2.26203e-19)
(-1.04524 -0.272263 1.05685e-16)
(1.5799 9.66208 -2.16328e-17)
(0.119529 -0.399602 4.96394e-17)
(1.03825 -0.0606757 5.82657e-17)
(-0.134127 0.57465 -1.81942e-17)
(0.228745 1.12632 -1.29609e-16)
(0.20601 -0.814622 -6.953e-19)
(3.42226 -1.57484 -6.82908e-17)
(-0.681191 -0.992827 -3.20233e-16)
(-0.142319 6.00716 -3.26023e-17)
(0.169905 6.00747 2.62776e-17)
(0.0364667 5.25199 -2.32023e-17)
(0.365252 -0.21557 -1.53745e-16)
(2.99532 1.91582 -3.76467e-17)
(0.916304 5.53572 -7.43272e-17)
(0.0596481 6.85774 -7.14567e-17)
(-0.00605193 8.16617 1.07644e-16)
(0.120903 7.56846 5.31586e-17)
(-0.0810814 7.4502 2.57213e-17)
(-2.06563 0.0240654 4.86936e-18)
(0.0121949 6.11942 -5.17674e-17)
(-0.118304 7.97702 -1.15816e-17)
(0.02801 6.81796 0)
(8.81344 0.517317 -2.82163e-17)
(1.8133 3.46536 -1.02126e-16)
(-0.522344 -0.0695765 -3.93052e-16)
(8.11833 0.139088 6.84761e-17)
(-0.147489 7.4475 -1.90906e-16)
(-1.37383 0.251381 0)
(0.0303282 5.98564 0)
(0.0352367 1.17107 0)
(-0.399621 0.0805751 -2.51582e-16)
(-1.35698 0.5489 -1.11067e-16)
(0.0398111 -0.407744 -1.39689e-16)
(1.51229 0.47041 -1.06651e-18)
(0.749352 -0.486369 0)
(-1.27731 4.9303 9.22705e-17)
(-0.268336 -0.308643 1.3274e-16)
(-0.0947519 7.10812 0)
(-0.0360702 7.76338 0)
(0.0041104 0.190488 -3.36017e-16)
(-0.154272 8.69033 9.94357e-20)
(9.3331 0.421398 -2.44162e-20)
(10.8194 0.67261 5.20876e-18)
(-0.209178 7.77617 9.10419e-17)
(0.709915 0.0927751 0)
(-1.76755 -0.451614 0)
(-0.0220121 2.44487 -1.60077e-16)
(0.351698 -1.26405 1.64975e-16)
(4.78188 2.40822 4.70339e-17)
(0.400108 4.18084 0)
(-0.0531358 1.63201 6.23434e-17)
(6.21407 -0.567164 1.08747e-16)
(-0.539089 -0.0424254 1.54161e-16)
(1.10091 -0.510184 2.58026e-16)
(-1.20122 -1.14979 1.74955e-16)
(0.484693 0.469824 2.33389e-17)
(1.02658 9.3417 -6.52554e-17)
(-0.0603375 6.47546 1.19799e-16)
(0.369113 -0.118064 0)
(4.37809 -0.202256 8.55123e-17)
(0.51051 1.17502 -1.57561e-16)
(-0.206161 -0.229451 1.73088e-16)
(1.17542 0.619497 0)
(-0.182582 -1.47397 -4.07716e-16)
(-0.28361 4.77302 0)
(0.674951 -1.04454 0)
(-0.174702 5.18573 2.031e-16)
(-0.248832 -0.343752 1.87579e-16)
(2.53899 0.0930039 1.84846e-17)
(-0.816681 1.10094 1.9005e-16)
(7.7384 0.274056 2.16483e-16)
(1.46428 2.14154 -1.80203e-18)
(0.276045 2.44763 3.12177e-16)
(7.07356 -0.164771 -1.63777e-16)
(-0.05624 0.42621 2.82348e-16)
(0.0265573 6.044 0)
(-1.23633 0.055058 1.62117e-16)
(4.94755 -0.34455 0)
(2.0198 0.0657046 0)
(3.20167 -0.714268 -2.06393e-16)
(0.116261 -0.257023 3.74812e-16)
(5.2978 0.184663 -2.42626e-16)
(0.0912313 -0.238775 -1.27645e-16)
(-1.05593 0.0681481 3.36174e-16)
(2.56105 -0.194331 -2.83265e-16)
(2.98792 0.097975 0)
(-2.9537 -0.131445 -1.03969e-16)
(-2.90758 0.0164934 -2.74071e-16)
(-2.99395 -0.104311 1.50888e-16)
(-2.43818 -0.327818 9.87409e-19)
(2.81276 0.184949 -2.97011e-18)
(1.85169 0.355302 0)
(0.123541 -0.217936 8.58083e-19)
(-0.121937 0.0241493 0)
(-1.84552 0.404199 -1.04233e-16)
(-1.52639 0.541986 0)
(0.747797 -0.274619 8.84403e-17)
(1.50693 -0.137859 3.4579e-16)
(4.72258 0.195098 0)
(0.626669 0.065216 -2.10067e-16)
(0.670442 -0.261579 -2.30188e-16)
(-1.08387 -0.476683 -6.94809e-17)
(6.16609 0.116269 6.18512e-18)
(1.69925 0.00372562 -4.2592e-18)
(-0.696939 -0.214863 0)
(2.22563 -0.00766192 0)
(-1.88698 -0.331923 1.15501e-16)
(0.509446 -0.357741 0)
(0.61615 -0.440949 7.77256e-17)
(-0.605406 0.0935635 -1.36303e-16)
(-1.22821 0.302684 -9.30032e-17)
(-2.42702 0.114344 1.06092e-16)
(-0.770683 -0.175681 3.00746e-16)
(4.66987 -0.0654423 -3.17957e-16)
(-1.06678 -0.0591025 3.53434e-16)
(-2.28619 -0.0882646 5.50325e-16)
(1.14147 -0.591896 4.98211e-16)
(-1.85069 -0.66183 -8.21264e-17)
(0.721564 -0.103124 -4.56422e-16)
(-0.592235 -0.219252 -1.96039e-17)
(-2.53212 -0.159463 -1.22979e-16)
(-0.384307 -0.388211 -2.55391e-16)
(6.27734 -0.0457028 1.13906e-16)
(4.95905 -0.186414 -1.36027e-17)
(5.86186 0.0237837 0)
(-1.30109 -0.471422 0)
(0.156569 -0.219054 9.93274e-18)
(2.02276 0.0245982 -5.82614e-17)
(4.83888 0.0208735 0)
(-1.45559 -0.417762 8.77819e-18)
(0.340027 -0.0887528 2.23582e-19)
(5.79056 0.973628 -6.01497e-18)
(1.93292 8.39626 1.15579e-16)
(-0.108149 -0.277998 1.21176e-16)
(9.59498 -0.0133108 0)
(-1.76128 -0.108151 -8.16492e-17)
(2.5991 -0.503642 1.22444e-16)
(-1.08774 -1.44127 0)
(1.16978 -0.4029 6.8263e-16)
(3.10752 0.864695 -1.06401e-16)
(0.9582 0.606051 9.72468e-17)
(4.12846 -0.198595 1.23607e-16)
(1.35894 5.56164 -1.60565e-16)
(9.51087 -0.0110414 0)
(2.61546 0.698199 1.75336e-16)
(-0.33505 1.89745 0)
(-0.0233775 5.7765 2.17104e-17)
(5.19757 0.118919 1.20724e-16)
(11.3453 0.787942 2.18111e-18)
(0.594643 0.168172 -7.00842e-17)
(-1.45429 -0.60762 -9.45211e-17)
(-0.407604 -0.191116 0)
(0.15408 0.521387 -2.89803e-16)
(-1.35096 0.667589 0)
(1.4547 -0.205439 -5.41905e-17)
(0.0201522 -1.22089 -8.72357e-17)
(-1.03653 0.702099 1.38285e-16)
(1.15552 -0.254488 1.52753e-16)
(9.39019 0.0416387 6.69247e-18)
(8.10653 0.59465 2.0939e-18)
(7.31285 0.532355 2.67239e-17)
(-2.13134 0.0755534 -1.39725e-16)
(-0.616121 0.388137 -3.68797e-16)
(0.321442 0.811048 0)
(1.22246 0.754731 1.08414e-15)
(1.34611 4.47162 1.99573e-16)
(-0.737554 0.415509 -2.25861e-16)
(-0.837624 0.209465 2.45984e-16)
(1.24133 0.515766 2.24734e-16)
(-0.0938626 -1.40173 -1.16576e-16)
(1.15676 1.43191 8.49746e-18)
(-0.115807 5.94883 0)
(-0.065918 6.71995 0)
(0.0193401 5.21153 0)
(0.784653 0.364261 2.35075e-17)
(3.73828 -0.325315 -8.24988e-17)
(-0.650462 0.294657 -1.39813e-19)
(7.16548 1.18354 -5.37903e-17)
(5.48857 2.35221 -1.10496e-17)
(8.02758 0.212179 -1.41054e-16)
(8.91993 0.505387 1.47326e-16)
(0.0516149 -0.440042 2.64729e-16)
(-0.0586436 -0.880891 0)
(6.05047 -0.0548379 -1.03581e-16)
(-1.69081 -0.282575 7.14965e-17)
(2.90618 -0.195328 -7.00683e-17)
(1.02175 -0.628849 0)
(-0.620397 -0.153847 0)
(-2.49682 -0.0266158 -4.59712e-19)
(0.156096 3.28381 1.11758e-16)
(3.80282 0.812404 0)
(-0.816613 -0.296591 -5.97002e-16)
(4.4358 0.0142134 -1.14038e-16)
(1.90478 0.0599345 0)
(-0.738762 -0.909974 -2.437e-16)
(0.913385 0.584698 -4.55656e-16)
(4.93703 -0.340413 -1.53719e-16)
(9.33961 0.0823187 3.32825e-17)
(0.452372 0.206851 2.78915e-16)
(-1.42032 0.408823 -1.40429e-16)
(0.623812 -0.778902 -7.48237e-17)
(-0.503137 0.0327606 -1.63816e-16)
(-1.74179 1.35368 -2.12078e-16)
(-2.47712 0.113677 2.24018e-16)
(0.894532 3.19062 2.3984e-16)
(0.90371 1.09079 1.11546e-16)
(-0.122343 -1.20236 -3.55333e-16)
(1.06663 3.67237 4.79721e-17)
(-0.103878 5.80677 9.27799e-17)
(0.0387861 6.2608 1.0508e-17)
(-0.0217185 6.62043 0)
(0.618931 5.80698 3.79102e-17)
(-0.177347 7.62376 0)
(-0.625714 1.01927 -1.40767e-17)
(1.56902 -0.387834 -1.01874e-16)
(0.00324061 -1.61885 1.7805e-18)
(-0.0782014 0.449 0)
(7.94714 1.685 0)
(0.922578 6.89021 7.40983e-18)
(1.52233 1.83561 5.249e-17)
(-0.424291 -1.18035 1.97205e-20)
(1.37636 4.94411 -1.67184e-16)
(1.27017 -0.835668 -1.37241e-16)
(0.148337 0.947909 9.58062e-17)
(-0.390057 6.64134 0)
(0.00352903 0.263425 -7.94142e-16)
(0.566471 1.8241 0)
(-0.0759524 -0.013921 -1.86818e-16)
(3.61083 0.285216 1.52683e-18)
(-0.491064 -0.126521 -2.29829e-16)
(-0.179694 2.94731 2.43172e-16)
(5.07812 0.108222 2.24864e-16)
(2.04971 0.0950204 0)
(0.0863973 -0.382993 -6.01659e-16)
(-0.166191 0.469961 -2.82417e-16)
(1.30157 7.28742 -1.28493e-16)
(-0.0700364 -0.476786 -7.44701e-17)
(10.5552 0.121154 0)
(9.96138 0.296622 -1.65342e-17)
(-0.140288 0.0817298 -8.95498e-17)
(-0.28257 4.19343 -2.16244e-16)
(-2.02689 0.356089 -1.98592e-16)
(0.591027 7.64241 -3.57655e-17)
(0.567239 1.00294 3.69586e-16)
(3.19239 -0.544741 -1.41483e-16)
(-0.0930245 8.09937 -6.32671e-17)
(2.11315 2.35672 -8.21567e-19)
(-0.179058 -0.342033 0)
(2.33943 -0.350454 0)
(-0.973146 1.05299 0)
(-0.193394 -0.303313 6.4209e-17)
(-2.63545 -0.352267 -2.70771e-16)
(4.54925 -0.129644 2.78569e-16)
(6.23293 -0.0243746 -6.42206e-18)
(6.44189 -0.124157 2.84948e-16)
(0.0526095 -0.228806 8.59703e-17)
(-1.84515 0.257731 4.55989e-16)
(-0.850725 0.112354 0)
(-2.4088 -0.0211054 -1.93367e-16)
(-1.48344 -0.293748 0)
(2.51051 0.32199 0)
(-2.07516 0.111283 -2.53059e-16)
(-0.584187 0.0253065 0)
(-0.0893943 -0.117847 3.7259e-16)
(1.09505 -0.047123 3.95591e-16)
(6.28905 0.401945 0)
(4.41528 0.28186 0)
(0.403349 0.143353 3.63719e-16)
(1.88842 -0.00023223 2.95129e-16)
(-1.09091 -0.52696 3.01188e-16)
(-0.0432466 -0.202356 -2.18484e-17)
(-2.89972 -0.147713 -1.13003e-16)
(0.807987 -0.260554 7.08416e-17)
(4.49252 0.261202 4.97256e-17)
(1.12888 0.116184 2.50573e-16)
(-2.36262 -0.169728 -2.08342e-17)
(-1.04012 -0.139609 1.41004e-16)
(1.85225 -0.320416 0)
(0.198535 0.10716 0)
(-1.60339 -0.248163 1.41914e-16)
(5.31689 -0.404153 1.56358e-16)
(4.38042 -0.0846724 4.87778e-17)
(-0.889584 -0.0741157 0)
(0.179653 -0.036439 -2.5273e-16)
(0.348734 -0.742453 4.63325e-16)
(4.8039 -0.0853853 3.38221e-17)
(4.10237 -0.673364 -2.21338e-17)
(-0.0620036 0.0346608 -2.50594e-16)
(-0.688797 0.261149 4.63109e-16)
(-3.13531 -0.0188597 -3.46585e-17)
(4.31662 -0.344307 0)
(1.70754 -0.184006 3.33504e-16)
(-2.19423 0.0861017 -7.23503e-17)
(-0.651548 -0.0206669 -1.15718e-16)
(1.57873 -0.293093 0)
(-0.721629 0.335902 -1.06688e-16)
(0.595561 -1.43491 2.41129e-16)
(0.481009 0.0807179 8.25709e-17)
(-2.74025 0.154336 1.27531e-16)
(3.85886 -0.0184036 0)
(1.42667 0.12153 9.41535e-17)
(-1.8733 0.593249 0)
(-0.580853 -0.0526321 1.3089e-17)
(-0.556501 -1.4653 1.25121e-16)
(-0.587726 -0.247903 0)
(10.7321 0.0862451 0)
(-2.03726 0.344415 1.08354e-16)
(1.98054 -0.708416 -4.62656e-16)
(1.5985 -0.874688 -2.36954e-16)
(0.155559 8.60733 -2.68867e-17)
(-0.0716962 -0.759978 2.45886e-16)
(2.37179 0.44607 -6.35563e-16)
(-2.05446 -0.352695 0)
(2.37019 0.10474 -5.5819e-16)
(-1.01298 1.26011 -7.60839e-19)
(0.0312829 0.504426 -2.32846e-18)
(-1.23095 0.592906 1.12598e-16)
(-0.855854 0.42207 7.71889e-17)
(-0.0411859 -0.177032 -8.60765e-17)
(0.26708 -0.670467 9.46349e-17)
(0.651179 -0.346179 0)
(-1.02145 0.0591923 0)
(4.44821 0.472826 -1.85199e-16)
(-1.05018 -0.972346 1.05689e-16)
(1.22633 -0.310867 -4.01669e-16)
(9.0784 -0.0370247 3.77645e-17)
(1.0156 0.268865 1.5714e-16)
(0.835257 -0.19398 0)
(6.47503 0.992523 4.30283e-17)
(1.61784 1.2228 3.41509e-20)
(-0.172457 1.10404 1.83304e-16)
(0.187461 1.07578 -3.16529e-17)
(-0.24584 5.71365 -5.68124e-17)
(-0.0947126 7.87904 1.80418e-17)
(0.152173 6.93057 0)
(0.793895 0.471519 1.65294e-16)
(-0.970917 0.318413 2.52237e-16)
(5.12894 -0.0319547 1.8571e-17)
(2.10425 0.00817794 7.28931e-17)
(-0.199329 -0.263961 0)
(-0.169752 3.33363 1.48397e-16)
(-2.39506 0.169672 0)
(-0.155627 6.24696 3.58151e-17)
(0.0152353 6.84808 -5.50407e-17)
(-0.165094 8.07833 2.40933e-17)
(-0.0901241 -0.0260261 -1.46107e-17)
(-0.739439 0.0696846 -3.54605e-17)
(-2.4684 0.115792 0)
(1.77802 -0.258374 0)
(2.78199 -0.202167 -1.38498e-16)
(-0.392772 -0.151377 -1.74295e-16)
(0.223162 1.38183 -1.14395e-17)
(-0.12163 0.96873 4.68252e-17)
(3.89946 0.76627 2.81773e-16)
(9.94728 0.163164 1.17405e-17)
(0.0290583 4.10818 -2.15595e-16)
(1.10449 -2.98099 -1.77846e-17)
(-0.499025 -0.975771 2.52804e-16)
(0.0602808 0.0881694 0)
(-0.678264 -0.440241 1.40146e-16)
(1.43312 -0.68727 -8.39186e-18)
(-2.8097 0.0505481 -6.47291e-17)
(2.23308 -0.417434 1.47389e-16)
(2.91013 -0.221772 1.37168e-16)
(9.90006 0.101853 -2.29071e-16)
(-0.541343 -0.357924 0)
(1.61478 -0.178117 6.05787e-17)
(0.783464 0.0198446 -1.98805e-18)
(-0.0103694 7.74276 -5.17087e-17)
(-0.0592812 7.22346 4.59188e-20)
(0.126335 -0.26979 0)
(1.53224 -0.970641 1.78916e-16)
(1.00061 0.295634 -7.71589e-17)
(-0.777235 -0.433292 -2.00083e-16)
(-0.0158471 1.29344 -5.48134e-17)
(-2.66044 1.30365 3.93268e-17)
(0.00491222 0.916212 -4.68772e-16)
(-0.082931 7.11357 -2.19817e-17)
(0.447971 -0.366068 -4.92681e-16)
(0.349998 5.14701 -2.063e-18)
(-1.52569 -0.447499 -2.01032e-16)
(-0.0773859 7.27564 -2.52412e-17)
(0.977398 6.49998 7.99964e-17)
(0.0714446 0.453042 -1.05987e-16)
(-0.0302271 1.34381 -1.84716e-16)
(-1.0748 1.75203 1.37198e-16)
(1.19224 1.02689 -2.73772e-16)
(8.4681 0.559918 8.48457e-17)
(-0.540255 -0.0443263 -2.65041e-16)
(10.048 0.506515 -2.30591e-18)
(3.31838 4.1916 5.85902e-17)
(0.478442 0.0793964 -4.21048e-16)
(-0.0465893 -0.324894 -6.46929e-17)
(-0.188779 0.0109396 3.7563e-17)
(7.0942 0.832373 -5.02092e-18)
(1.48708 0.707228 -6.51962e-17)
(-0.663109 -0.610256 2.49126e-17)
(-1.76701 0.225852 -1.58289e-16)
(-1.00476 -1.04074 1.04945e-15)
(8.33167 1.40992 -3.21812e-18)
(-0.194267 3.95083 1.28075e-16)
(-0.622112 0.262259 1.8683e-16)
(-0.0232824 1.33962 4.47041e-17)
(-1.71016 1.57063 2.05712e-16)
(0.107734 0.402548 0)
(0.734323 -0.277482 -1.77975e-16)
(-0.212491 -0.419468 1.22199e-17)
(-0.0373609 0.0594796 1.67103e-16)
(3.39058 -0.125152 -7.61047e-20)
(9.65822 0.027848 0)
(1.10498 0.405103 1.81722e-18)
(1.3124 0.0544349 -5.05729e-17)
(-0.075628 0.684533 1.8493e-19)
(0.189145 1.41308 1.60035e-16)
(0.0835629 5.27538 -1.14184e-16)
(-0.025329 6.89468 3.40361e-16)
(1.81581 1.60405 7.80219e-18)
(1.72344 1.77354 -3.46233e-19)
(2.50581 0.74529 1.57437e-16)
(-0.229403 0.189725 0)
(-0.569161 -0.307355 0)
(0.440224 -0.398928 -3.08923e-17)
(6.91199 0.852439 -1.39933e-19)
(4.20156 2.50085 2.36046e-17)
(8.65685 0.789149 -6.8251e-18)
(10.3274 0.524731 2.98589e-18)
(1.23347 0.322967 0)
(-0.0934309 4.73098 0)
(0.0310462 1.18638 1.86328e-16)
(-0.031079 0.278273 2.19912e-16)
(8.89112 0.4731 -4.1386e-16)
(1.53401 0.703997 0)
(1.27183 0.116234 0)
(-2.02504 0.109277 1.88686e-16)
(-0.456718 -0.256161 1.39105e-18)
(-0.53222 -1.64046 -1.39733e-16)
(0.166818 -0.2541 1.87294e-16)
(0.419283 -0.717514 -8.32824e-17)
(-0.102737 6.89015 -2.44445e-17)
(-0.0651078 7.83489 -1.21669e-17)
(0.031145 -0.160422 -2.52831e-16)
(9.78573 0.166379 -6.08851e-17)
(9.23382 0.285869 3.95236e-18)
(-0.28209 0.704688 1.3599e-16)
(0.237956 1.23952 -3.33233e-17)
(2.84218 3.29922 -1.00473e-17)
(-0.269925 8.47216 -1.11588e-16)
(-0.265568 0.0167466 1.004e-15)
(-0.00685169 0.987514 5.86461e-18)
(-0.432262 0.0719079 0)
(5.41632 3.71574 6.09411e-17)
(-0.042273 1.14791 9.66721e-17)
(0.0330656 0.966365 5.38955e-21)
(-1.01377 2.67131 1.48548e-16)
(-0.708141 -0.221089 0)
(10.124 0.290046 0)
(-0.444749 -0.70205 -5.37861e-17)
(-0.862184 -0.0276753 0)
(1.94411 -0.50217 6.16631e-17)
(9.97792 0.064918 -9.56663e-17)
(4.8918 -0.0309167 6.96484e-17)
(-0.522901 -0.00270466 1.16783e-16)
(7.04629 0.0249698 8.81571e-17)
(-0.0308738 1.08087 7.12279e-17)
(-0.51932 -2.59979 1.47949e-16)
(0.068244 1.05208 1.83727e-16)
(0.217863 6.03407 -9.43794e-17)
(-1.42273 0.91172 -5.92008e-17)
(-0.520371 -0.234206 0)
(9.60941 0.818786 0)
(-0.206377 5.26967 -1.86202e-16)
(-0.499504 -0.315658 -1.75286e-16)
(-0.0787038 0.985762 5.85174e-16)
(-0.107839 7.19529 -2.15245e-17)
(-0.525839 0.0704713 0)
(0.482448 -0.02467 -4.12456e-16)
(-0.18868 -0.117288 -1.78985e-16)
(-0.051552 0.851743 1.44055e-16)
(0.928997 -0.570358 0)
(-0.177834 2.87679 0)
(0.0193252 1.02548 0)
(2.67874e-05 1.08125 -1.53072e-16)
(0.234798 3.93236 6.13535e-18)
(10.432 2.80694 -2.52077e-18)
(-0.0985012 0.0750228 0)
(5.39421 1.33607 0)
(-0.207685 0.550277 -8.90954e-17)
(0.370705 6.26784 6.81819e-17)
(-0.201222 0.409321 0)
(0.689724 0.036337 3.54307e-16)
(0.218153 -0.371287 -5.12106e-19)
(-0.106035 0.37873 -1.5276e-16)
(1.39037 -0.372627 0)
(8.03055 0.579328 -5.82376e-17)
(-1.58845 0.668348 -1.38885e-16)
(0.586091 2.99127 6.66004e-17)
(0.0449353 4.74534 0)
(0.696754 3.76578 -1.0132e-17)
(9.78688 0.25259 -1.83606e-17)
(3.54739 3.4778 -3.9542e-18)
(1.15801 4.50811 -1.20602e-16)
(-0.606108 -1.27372 -2.26732e-16)
(1.06581 1.51314 -4.34631e-16)
(0.0586812 7.15515 -1.84588e-19)
(-0.0938297 6.97438 3.87914e-17)
(2.61291 2.56533 0)
(10.066 -0.201029 2.37954e-17)
(-2.56949 -0.211165 1.27425e-16)
(8.87107 0.799202 -1.08461e-16)
(-0.459961 -0.0153837 1.60058e-16)
(-0.0634816 7.20633 0)
(0.00850603 6.93418 -4.41869e-17)
(-0.214155 4.79395 1.73773e-16)
(1.30388 -0.0281911 -6.17926e-18)
(-0.0606006 1.36852 4.66882e-17)
(0.781256 0.965587 5.46415e-18)
(0.0366471 6.74379 -2.50943e-17)
(-0.185885 7.04433 -2.40508e-17)
(2.00805 8.71621 5.21248e-17)
(-0.502061 -0.0747718 1.83053e-17)
(10.0938 0.179734 0)
(0.351598 -0.305173 4.55583e-16)
(-0.813837 0.309526 -8.90204e-17)
(0.692512 0.283991 -2.94769e-16)
(7.51501 0.570278 1.53762e-17)
(-0.13974 7.27615 -3.61255e-17)
(-0.0187822 6.81924 1.72451e-16)
(0.939785 -0.676441 -2.96065e-19)
(-0.462719 0.0792377 -1.12144e-16)
(0.945929 6.24325 0)
(-1.97511 -0.117318 0)
(-0.0988389 -0.230099 -1.84864e-17)
(-0.925046 -1.56195 0)
(3.78266 4.54089 -5.81031e-17)
(5.43174 2.97625 0)
(0.647484 6.27078 -1.42958e-16)
(2.11063 0.496068 5.47085e-17)
(1.77932 0.25436 2.62237e-16)
(0.961308 -0.222682 4.30673e-17)
(7.22031 0.692246 -1.39299e-17)
(3.89577 -0.00807824 -2.17871e-16)
(7.537 0.141023 -2.71785e-16)
(2.27538 0.0837722 0)
(0.158849 1.13614 -7.25043e-17)
(5.12972 2.97571 1.50546e-16)
(3.62079 1.68691 -6.88716e-17)
(0.0238784 0.0072528 -3.40359e-16)
(0.235545 1.22008 5.09084e-16)
(-0.0385157 0.94166 3.0163e-17)
(0.593732 -1.46591 -3.46653e-16)
(1.20518 3.73724 5.9347e-19)
(0.950461 1.07321 -2.27972e-16)
(-0.855607 -0.0626986 1.62852e-16)
(-0.372162 0.579197 8.17766e-17)
(0.357926 1.58826 0)
(0.0494055 0.434251 -7.09387e-17)
(-0.388725 0.709365 -7.06462e-17)
(0.302168 1.11506 2.68647e-16)
(0.535427 -0.343725 -1.03254e-16)
(0.970729 8.30501 -3.3526e-17)
(10.6099 0.427729 -6.61599e-17)
(-0.715185 -0.13427 9.99126e-17)
(-0.343733 3.92461 -4.13457e-17)
(-1.04988 0.455483 -1.21418e-16)
(8.51866 0.161467 3.3309e-16)
(3.96277 -0.13868 -2.25174e-17)
(0.026087 6.93158 2.93446e-18)
(4.34518 -0.152058 2.28165e-16)
(-0.0116729 4.77967 -1.61542e-16)
(-0.132819 6.48646 6.86987e-17)
(7.04496 0.424642 0)
(-0.242771 -1.58777 -8.66373e-17)
(-0.00151744 0.0271452 2.66739e-17)
(-0.0116072 0.252678 0)
(-0.390017 0.00302961 -1.77748e-16)
(-0.390989 -1.03748 5.04286e-17)
(1.04829 0.258588 2.53159e-16)
(1.17496 0.32999 2.2689e-16)
(3.89359 0.201021 -3.86394e-17)
(9.1635 0.763459 -1.2211e-18)
(1.18949 1.47338 -1.36844e-16)
(-0.0312648 -0.0273938 3.66592e-16)
(0.846517 -0.697043 -2.64631e-16)
(-0.292681 -0.471504 1.07867e-16)
(0.789377 -0.200859 0)
(0.0838515 0.435882 -1.07131e-17)
(-2.13127 1.67327 -2.27613e-16)
(-0.0139287 1.34631 9.65185e-21)
(-0.0698554 6.67788 2.15051e-17)
(0.215214 5.51834 -2.52146e-18)
(0.0230508 5.75479 -9.23775e-17)
(0.0878956 6.22314 2.62146e-17)
(1.97296 4.48425 -1.32568e-16)
(7.16879 0.358186 6.59028e-17)
(0.327403 -0.246398 0)
(10.5188 1.1381 0)
(-0.725252 -0.310374 3.95671e-16)
(-1.90989 0.191571 4.08038e-16)
(-0.0995778 7.34207 1.10477e-16)
(-0.00701973 6.90764 -1.16179e-16)
(-1.90265 0.736342 9.68387e-17)
(0.911327 6.09477 -3.96906e-17)
(-0.624665 0.225578 4.35139e-17)
(0.18102 0.590017 2.10975e-17)
(0.388769 -0.167569 2.10586e-19)
(-0.957837 -3.58982e-07 -5.79846e-17)
(-0.21789 -0.496053 -9.46145e-18)
(-0.119387 4.16868 -4.37961e-17)
(3.56424 -0.0731911 -3.7294e-16)
(1.04227 4.71896 5.80402e-18)
(-0.52757 -0.339553 1.37342e-16)
(-0.472435 0.170448 0)
(0.192611 -0.155297 0)
(0.12811 2.01283 0)
(0.801559 6.12167 2.09454e-16)
(0.814483 8.26713 2.20295e-16)
(-0.156046 7.81565 1.74939e-16)
(0.38249 0.246857 3.4249e-17)
(5.78675 3.24959 -3.58546e-17)
(0.303355 0.100855 0)
(0.010355 0.845555 8.31355e-17)
(0.130507 0.148278 3.36884e-17)
(10.4976 0.0579981 -6.89746e-18)
(-1.6917 0.134618 -8.3527e-17)
(-1.51108 0.338366 2.84956e-18)
(-0.946941 -0.185451 -1.39076e-16)
(8.89405 0.360182 -1.8973e-17)
(0.421692 3.7637 0)
(3.50292 1.20622 -3.27057e-16)
(1.87469 0.172791 2.37876e-16)
(0.167777 -0.414207 0)
(-0.293419 -1.37994 5.68777e-17)
(1.31875 2.24024 -2.41692e-16)
(8.60154 0.147202 0)
(1.74133 5.85111 -4.24535e-16)
(-0.0958924 6.95493 -9.85235e-17)
(0.844354 3.80237 0)
(1.10734 0.552108 0)
(11.3554 0.287989 3.98838e-17)
(10.3163 0.350625 3.10104e-17)
(9.36861 1.44214 2.01358e-18)
(5.38831 2.21128 1.10085e-21)
(0.469642 2.60575 0)
(1.37754 0.563926 1.88355e-16)
(1.4422 6.94516 -2.82373e-17)
(4.68556 -0.0579802 0)
(-0.258941 -0.310646 -4.02023e-16)
(4.85398 2.38883 2.37681e-17)
(0.0863474 -0.211511 -1.33765e-16)
(9.27889 0.897149 -4.86429e-17)
(10.8219 0.0434938 7.19175e-17)
(1.68462 1.78553 -1.72762e-16)
(9.87604 0.413344 -1.43494e-17)
(-0.0419958 7.57106 1.21181e-16)
(0.546549 8.39356 3.84878e-17)
(0.60059 6.84873 -9.39425e-17)
(6.73026 3.62096 0)
(0.15723 0.35067 1.40384e-16)
(0.708073 0.425101 -1.63603e-16)
(3.06684 0.226915 3.23393e-17)
(-0.11098 0.0885858 1.27607e-16)
(0.0735078 6.85849 -2.76872e-22)
(-0.0251413 8.07935 1.45482e-19)
(0.546306 5.93562 6.92985e-17)
(0.5704 0.484552 0)
(-0.456116 0.258142 0)
(1.98392 -0.965584 7.84031e-17)
(-0.0155779 0.0263082 1.76903e-16)
(-0.0787468 5.77623 -8.77837e-17)
(0.0169414 6.2078 -2.91905e-18)
(-0.248504 2.29983 0)
(2.23361 0.737006 -3.2941e-17)
(10.051 0.1146 7.90622e-17)
(-0.145091 0.439935 0)
(-0.329471 -0.0261053 -4.26112e-16)
(-0.703919 -0.336196 6.70356e-17)
(0.271013 -0.321752 2.38049e-16)
(-0.151986 7.2671 4.98422e-17)
(-0.0417504 7.28033 1.25093e-16)
(9.50461 0.922604 0)
(0.265032 7.34216 -3.28927e-17)
(-0.0690331 7.50277 -2.48343e-17)
(9.42304 1.12317 -8.93982e-17)
(-0.0806024 0.755767 -3.5525e-20)
(7.8491 1.20715 7.47078e-18)
(0.0632574 7.04172 7.57139e-19)
(-0.0894939 6.79722 0)
(0.0189313 5.52391 2.66866e-18)
(0.214029 5.48308 -8.41088e-17)
(0.108978 6.14983 -3.21308e-17)
(3.58698 4.06347 1.33867e-16)
(0.127109 -0.327245 4.44033e-17)
(-0.109009 7.63533 1.66045e-16)
(0.0621133 7.01068 0)
(-0.278192 5.33016 -1.31845e-16)
(0.73583 3.26984 2.56218e-17)
(-0.320684 -1.33283 -1.17537e-16)
(-0.914824 0.0811211 7.36759e-17)
(0.0994485 0.233888 4.02506e-18)
(0.055665 0.993188 1.09386e-16)
(-0.485165 0.17145 0)
(0.822766 5.55647 1.11797e-17)
(-0.0824347 1.20919 -2.02999e-17)
(0.506181 0.0202552 -1.16124e-16)
(9.21543 1.0702 -8.14691e-19)
(-0.0274912 2.04294 -3.10551e-17)
(-0.0134316 0.699031 -2.16563e-16)
(0.012331 1.32669 -1.54192e-16)
(0.136141 6.75128 -1.77065e-16)
(-0.0231963 6.81356 0)
(0.571392 0.134185 2.27327e-16)
(0.105017 6.68665 7.72119e-17)
(-0.108741 6.90917 1.93676e-17)
(0.353023 -0.299173 -7.7143e-17)
(3.54202 3.54389 -1.40464e-16)
(-0.844974 -1.35455 4.54534e-16)
(-0.135797 -0.826554 5.49123e-16)
(0.999795 0.940706 -2.15524e-16)
(-0.0435714 6.48597 1.97412e-16)
(0.099068 1.38719 -3.08808e-16)
(-0.626615 -0.498137 -1.59401e-16)
(-0.0451008 0.919809 -1.09671e-16)
(0.908096 8.40833 0)
(9.71579 0.0996911 0)
(-0.0237255 0.0780139 -2.75964e-16)
(-0.0259745 -0.834011 1.68956e-16)
(-0.175229 -1.48389 -5.60223e-17)
(-0.132448 0.567884 0)
(-0.0719284 0.52833 1.0777e-16)
(0.466031 -0.0203564 -3.57385e-20)
(0.712624 0.289204 -5.76206e-16)
(4.19033 0.10024 2.07108e-16)
(1.04427 4.98437 1.05538e-16)
(-0.19088 7.42033 -2.21597e-16)
(0.399518 -1.03323 3.37972e-16)
(-0.290879 -0.0645581 -1.63956e-16)
(9.7055 0.888259 -1.24804e-17)
(0.477715 3.2087 1.8681e-16)
(1.70811 1.03898 1.31506e-16)
(0.0565385 -0.714734 0)
(-0.92739 0.791092 5.05353e-17)
(2.10065 1.30779 -6.80415e-16)
(0.0961029 1.064 -2.15069e-17)
(-0.0260095 1.04617 2.50505e-16)
(0.965802 2.80314 2.09513e-17)
(8.57177 0.543244 -1.06711e-16)
(9.3962 0.127551 -1.67793e-19)
(-0.71253 -0.18853 1.59084e-16)
(11.0199 0.0483772 0)
(-0.316145 0.508036 -4.51111e-18)
(-0.461229 -0.619668 2.49064e-18)
(0.565791 -0.100341 -1.66861e-17)
(0.0332206 6.90888 3.39555e-17)
(-0.0707881 7.11689 3.2208e-17)
(0.0110864 4.93849 1.6505e-17)
(10.4805 0.0383187 1.30871e-17)
(-0.488951 -0.355268 -5.82422e-19)
(-0.34994 8.0558 -3.83752e-17)
(-0.291711 -0.596298 -8.3651e-20)
(0.874508 -0.831255 0)
(9.60964 1.88499 -4.76603e-18)
(-0.677146 0.146958 0)
(0.830514 0.204633 8.07224e-17)
(-1.06611 0.287914 7.1285e-17)
(0.142431 0.950391 4.25713e-18)
(0.550422 0.270017 2.32335e-16)
(-0.385969 -0.382628 3.16358e-16)
(9.19977 0.752323 -1.62481e-17)
(0.0820603 -0.505502 2.35045e-16)
(-0.372674 -1.71452 2.32562e-16)
(9.45284 1.06345 9.12549e-17)
(9.69214 0.356749 3.75148e-17)
(6.77287 2.24772 2.92568e-17)
(-0.0918799 7.22821 -3.67594e-17)
(0.0178927 6.58301 2.19504e-17)
(-0.0808635 3.20616 9.60097e-17)
(0.30996 1.81358 0)
(4.21155 0.758407 4.38573e-17)
(5.70834 3.12897 8.00285e-17)
(9.19997 0.0608704 -2.29629e-17)
(0.254349 0.404831 1.0999e-16)
(0.632075 -0.767017 2.13766e-16)
(0.113864 0.0932165 0)
(8.74764 1.67761 0)
(0.0558319 4.07599 0)
(-0.14405 -0.227109 3.57273e-16)
(-0.807192 -0.25258 8.50243e-17)
(2.3738 4.35177 1.92034e-16)
(-0.0315077 6.0988 2.21366e-17)
(0.966054 7.31378 -5.09751e-17)
(0.079593 0.198109 0)
(-0.340194 -0.202324 8.60385e-17)
(-0.579998 7.43909 -9.91307e-17)
(-0.344643 -0.226883 -7.15481e-16)
(11.2213 0.120523 8.76274e-17)
(5.81544 1.2289 0)
(-0.168751 1.20112 1.58986e-16)
(1.20235 5.38337 0)
(-0.415124 0.418923 1.41377e-16)
(-0.504131 -0.598501 -1.93464e-17)
(0.775268 9.04525 6.12886e-17)
(9.8355 1.06281 -1.24722e-17)
(9.75238 0.6883 9.40463e-17)
(-0.980052 -0.0914882 0)
(0.254925 1.77084 -4.91151e-17)
(-0.502646 -0.0328922 0)
(8.42291 0.333308 0)
(1.16203 0.464038 -1.12876e-16)
(-0.479324 -0.658823 1.87913e-17)
(-2.81457 5.10806 -1.11947e-16)
(2.88906 0.82286 -1.1559e-16)
(-0.0120723 -0.405289 1.92067e-16)
(10.2434 0.110579 -4.99704e-21)
(5.95705 3.58202 -7.27447e-17)
(0.000822201 -1.09762 3.53528e-19)
(-0.0993295 7.1076 4.36732e-17)
(-0.0234986 6.167 -4.84358e-17)
(0.484796 2.031 -1.10123e-16)
(1.16458 5.96983 -2.29298e-16)
(1.67165 2.85367 -1.18732e-17)
(-0.161034 0.832973 -3.15726e-16)
(0.274922 1.47795 -1.66484e-16)
(0.35504 2.58714 5.4671e-17)
(1.08024 -0.39896 1.73177e-16)
(-0.286783 -0.622468 -2.66589e-16)
(0.25405 1.17181 -4.59423e-16)
(-0.274588 0.967664 -3.40957e-16)
(6.89364 4.20242 3.31848e-18)
(0.329295 1.11194 4.96652e-16)
(10.023 0.0433068 -5.7827e-17)
(0.914539 -0.021944 0)
(0.179745 2.34232 -3.80091e-20)
(3.94146 -0.64015 -9.31421e-17)
(-0.26804 -0.448499 0)
(9.93278 0.413272 3.64084e-17)
(-0.549482 0.0511806 2.85996e-16)
(0.314143 0.0159861 -2.61873e-16)
(8.68966 1.06762 0)
(-0.108168 6.8428 5.16411e-20)
(-0.130257 8.07995 0)
(9.97849 0.0850689 0)
(0.824615 0.253343 -4.38219e-17)
(8.95789 0.698852 -6.49806e-17)
(8.81519 3.92861 -1.7057e-16)
(0.830243 7.00609 1.99716e-17)
(7.20454 2.08901 -9.88343e-17)
(0.0608069 4.08651 -6.0963e-17)
(-0.00817917 4.58341 -6.28084e-21)
(-0.0689935 5.0578 -5.62906e-17)
(-0.0509677 0.309171 0)
(-0.0823411 2.36373 1.03734e-16)
(0.000306267 -0.579408 0)
(-0.113872 0.0463197 0)
(0.0342862 0.159174 0)
(0.295422 -0.729637 -1.7998e-16)
(-0.196918 0.717951 0)
(0.160227 0.747682 1.14744e-16)
(2.88065 2.89263 -2.51313e-16)
(-0.187519 5.41047 0)
(-0.133242 6.00717 1.32073e-16)
(-0.197271 6.35888 -2.27144e-17)
(0.0449191 6.73926 7.10417e-17)
(-0.162612 8.09216 -3.04511e-17)
(-0.398388 3.65375 1.77566e-16)
(9.2857 1.00087 -2.53444e-17)
(0.171948 1.12276 1.87665e-17)
(-0.147898 1.0254 -6.94522e-17)
(0.273137 1.44142 0)
(1.24074 -0.657533 1.58616e-19)
(6.04121 1.63333 0)
(0.487806 -0.0658329 4.91541e-22)
(3.83578 0.129889 -4.18783e-16)
(9.99707 0.0522125 3.17872e-17)
(-0.251004 8.0422 9.43878e-17)
(-2.21292 2.57592 -2.46768e-16)
(0.0358634 1.43942 0)
(-0.0119881 0.735845 8.62215e-16)
(6.13229 2.33059 -3.54132e-17)
(10.87 0.546724 0)
(9.7434 0.250644 2.25699e-17)
(0.731538 0.0518695 1.58014e-17)