/*--------------------------------*- C++ -*----------------------------------*\
| =========                 |                                                 |
| \\      /  F ield         | OpenFOAM: The Open Source CFD Toolbox           |
|  \\    /   O peration     | Version:  v1912                                 |
|   \\  /    A nd           | Website:  www.openfoam.com                      |
|    \\/     M anipulation  |                                                 |
\*---------------------------------------------------------------------------*/
FoamFile
{
    version     2.0;
    format      ascii;
    class       volScalarField;
    location    "0.64";
    object      epsilon;
}
// * * * * * * * * * * * * * * * * * * * * * * * * * * * * * * * * * * * * * //

dimensions      [0 2 -3 0 0 0 0];


internalField   nonuniform List<scalar> 
1431
(
0.432142
3.60278
88.8137
56.9225
0.438757
8.70493
6.36094
4.43886
61.8805
20.4056
7.84984
3.24316
1.35529
60.9016
34.6989
23.9523
47.0265
1.32112
14.0315
7.5456
0.406589
26.3097
11.1393
68.0719
50.022
7.41082
52.3317
54.645
22.2347
1.05924
54.8116
12.1701
30.3271
7.66785
8.00617
42.925
3.74184
10.3205
6.34424
9.88178
154.677
5.15844
4.83084
5.56539
33.0962
1.04593
33.9027
4.98648
19.9542
16.4565
0.831301
20.1312
46.774
5.18465
5.66187
4.83895
21.0599
50.1919
53.8546
0.339361
37.8103
4.35901
45.4812
9.81966
35.2996
1.32257
73.8184
10.7554
9.25477
12.5044
5.27773
5.71606
6.68678
7.26721
4.69084
28.0465
0.413494
58.8038
5.76054
76.5211
8.11246
0.889345
6.58168
48.264
79.4826
0.472588
0.371258
9.02371
76.6233
5.86304
2.33276
20.4901
0.359235
10.2082
0.775804
0.423848
3.97295
8.76846
0.411255
34.0119
12.4617
5.56058
3.29004
0.388644
15.6576
1.3287
6.60735
166.364
71.2604
0.399573
92.6503
1.23922
5.51688
4.23074
13.0884
0.370744
1.61878
7.89448
87.2499
26.9464
8.97113
48.3603
22.566
59.1765
9.33115
2.31141
100.857
2.41004
0.491786
26.3816
0.862662
129.507
48.7349
3.81578
0.439511
40.6104
6.73824
1.07599
2.44693
141.361
28.5596
0.296296
9.82307
20.6393
23.5485
16.2042
8.77895
164.698
6.26025
16.0162
28.2127
38.7991
3.33984
7.20002
4.11244
1.67555
8.98273
3.70436
5.11226
9.02711
1.0855
5.7548
2.35514
5.29746
0.408136
120.763
0.416245
9.66632
0.935181
4.25703
36.0586
10.6354
53.6183
17.4311
9.32528
1.70531
2.17376
25.6403
2.09437
6.2404
10.7408
19.9928
5.10431
5.29363
14.1276
17.9771
6.38963
47.4859
7.26854
10.0801
4.51827
65.4452
0.393605
7.35841
70.4227
8.12339
6.29417
7.28516
4.81581
5.20005
4.68211
72.9419
13.302
170.349
6.94926
58.4198
0.523271
10.0429
5.99314
23.1287
7.96061
5.35412
82.3807
9.71854
10.5521
21.7665
4.78252
2.54924
6.64033
9.99338
9.22981
59.9493
21.4887
134.824
11.0553
29.1957
28.9526
4.64288
19.4126
55.7363
0.443849
29.1189
11.0275
4.57103
4.41435
4.82097
10.109
0.672465
8.19939
3.78137
10.356
10.9058
62.2768
61.2673
1.54372
1.87662
10.3638
6.67019
6.41342
28.9213
9.24028
62.9113
20.6965
18.4775
41.8903
36.492
1.48736
3.49052
30.9713
34.1754
38.3928
2.64864
0.493759
31.4824
4.5025
18.6057
28.9711
7.50332
15.4115
45.3117
6.89523
25.1031
8.97201
8.82313
40.6692
8.69877
3.08675
1.6945
0.977439
20.6775
60.2464
3.69432
2.92444
3.11411
31.9778
43.4726
0.492439
4.3856
24.2215
9.24895
17.7729
11.5686
4.55962
2.8603
10.9203
5.54048
0.423431
7.40047
3.79879
7.61781
11.1042
29.6994
3.60555
6.7471
3.7038
3.95802
8.61366
35.0977
32.5397
0.427761
9.98468
13.0737
27.8012
0.278704
2.28963
3.76492
22.0237
2.92675
4.43442
5.86354
4.31721
3.57311
30.4957
4.4338
45.9369
8.25941
7.39105
10.4266
86.1888
9.35806
4.6061
1.70213
2.81463
3.81638
8.83898
63.0479
1.17407
2.28125
0.969716
1.15275
5.15683
7.60395
12.2495
18.431
42.3599
2.07464
11.3807
2.03506
0.738345
1.77983
1.81915
1.30749
2.11294
1.12931
0.96126
1.69295
1.52067
0.900542
1.47531
3.83321
1.43906
1.43245
1.21101
0.17325
0.979757
1.98619
1.46468
3.11568
9.5384
19.144
3.75687
2.92661
4.78172
14.0631
2.05246
48.2855
2.63006
11.4929
13.9055
1.78594
0.789777
1.97897
1.20519
1.77347
2.19724
1.35413
3.46388
0.66487
1.20136
0.363348
2.18928
61.0051
23.1593
13.9162
6.72743
0.714308
1.173
10.7384
30.7198
9.11591
2.13944
2.10272
10.2507
0.872885
2.97087
12.1163
2.39373
7.94486
0.397877
7.36374
41.3761
6.44197
1.12519
58.3972
21.9391
39.1666
2.42768
44.3892
1.47868
0.592072
3.69676
6.7356
29.4035
3.45626
6.58081
3.09252
4.35623
16.2835
43.7203
5.78326
55.0036
3.00803
3.89843
12.335
3.2809
4.54017
8.76453
10.636
3.62999
5.70084
6.29261
65.4071
9.29077
7.45247
3.47385
18.8619
28.7225
2.95882
4.6458
18.3947
15.6846
23.3258
23.9004
28.0475
7.77002
25.6314
19.7984
17.9885
24.1651
2.76005
50.6096
19.2765
6.03052
5.72052
2.25268
1.7651
0.368772
79.9856
4.57616
1.68379
75.2133
1.21232
6.4095
41.7524
4.74554
1.44167
58.4602
54.0332
73.2253
10.2955
7.10904
1.22252
43.8597
4.83337
11.4891
6.18544
6.97097
30.2382
13.0573
4.0247
3.36269
14.6928
1.33957
59.2697
12.1008
1.12247
80.0592
4.58068
11.3712
4.34601
11.0041
108.805
14.678
6.9632
6.23777
2.85226
1.27422
30.1014
8.12675
47.9403
37.9885
2.94503
6.24926
7.81868
11.3101
8.60105
66.2588
95.2548
7.56278
1.84823
2.78902
3.00596
2.83354
0.488818
1.16818
10.5086
2.7618
9.44179
2.89812
6.84583
11.8278
7.11104
4.20546
2.85783
17.9924
8.72273
18.6449
6.41853
17.182
38.591
8.11137
49.0964
2.01543
9.86968
0.597335
36.2724
9.95146
5.34221
23.9418
1.37074
4.23084
0.540834
31.7745
12.0085
2.64173
2.7615
23.6086
2.86396
32.5684
4.4607
17.4705
4.82873
39.3875
60.411
38.5991
1.56557
11.9649
5.03268
38.3467
6.68755
1.92569
38.4624
44.0544
37.3325
57.7968
3.00415
8.01502
1.78303
5.29902
17.0996
0.993188
5.62715
2.96879
5.47828
2.18425
6.01772
2.21671
11.2263
0.837193
18.3734
15.8267
43.9244
13.7238
9.95865
8.77494
5.53107
0.434154
5.08578
5.18548
4.64289
1.9402
2.54425
1.25673
9.17065
13.0456
30.1647
6.10196
1.58041
41.9809
76.4809
48.2087
20.7348
1.16976
20.4144
62.569
5.16008
56.9837
27.7876
21.2962
23.4419
1.24894
3.42516
1.41194
1.31932
2.72428
9.03731
1.29224
0.341969
14.2466
5.91375
44.4692
1.19361
2.02922
6.35048
4.66778
17.022
1.40297
4.93361
23.4559
1.24623
8.2743
30.3429
6.81576
25.3221
2.3789
15.7001
7.21737
46.194
18.3161
1.15017
1.1227
4.58159
7.95359
29.9141
43.6629
15.5148
7.23406
11.8061
6.14937
22.5209
7.14298
0.28718
1.70558
1.92977
8.69377
3.27128
13.6825
35.1121
22.4339
23.471
0.255422
7.65057
1.52717
9.90619
12.418
12.6109
13.4758
8.54008
1.09783
20.0118
22.2211
0.720995
4.20906
1.16041
2.06665
3.32309
5.98583
12.8124
6.77079
2.12459
70.7157
9.61682
9.5854
1.05114
13.0436
1.4089
0.178427
2.11107
8.10909
5.29634
11.2814
1.57578
4.21261
1.24568
0.455134
28.2191
27.0126
34.2809
13.9262
177.378
1.0636
0.476026
1.14777
34.5542
23.1298
25.1539
2.70064
74.1725
5.72933
1.47374
23.8936
9.6115
5.33264
64.9996
1.17429
26.2741
30.8724
46.5297
30.3966
1.30376
4.49873
1.62765
28.4062
28.027
52.3662
4.27638
2.42017
2.18753
30.9541
2.02175
10.406
60.8899
12.9719
2.54095
40.1922
22.2188
5.33588
21.2379
45.472
2.805
35.1698
4.36756
28.4878
31.2258
2.1616
0.81848
13.0552
29.1647
18.3939
118.393
16.1992
47.6889
31.7993
32.0235
9.93084
23.1936
3.17669
37.2486
42.8186
29.5889
1.42728
61.4949
0.470288
1.23904
6.6979
37.725
0.343229
35.3736
8.74716
1.44754
5.22881
0.700573
33.0634
31.6483
2.45178
142.377
0.550157
1.1452
0.851086
140.852
2.6944
4.33328
83.5503
33.3382
13.9625
10.3411
0.344949
1.3281
58.1255
5.89056
11.8531
15.3545
6.36082
1.27688
0.279889
4.48953
37.744
0.947955
35.3136
0.447705
8.55576
6.12168
37.5951
0.236796
76.1368
31.2102
37.1565
40.4976
46.6245
35.1147
27.8228
31.8699
35.2374
2.98648
1.87565
17.1714
5.08692
18.8731
1.23865
0.23246
2.51837
0.699552
1.29562
0.28072
1.43745
28.5159
6.35197
30.7854
2.137
7.11287
4.38425
8.95646
8.58918
34.6956
89.1679
7.33645
1.20525
3.84113
3.91113
6.18036
2.2234
4.34077
3.51602
2.38555
38.3093
3.00326
17.8512
42.8548
11.0453
12.3994
5.66224
2.55416
1.77995
1.30867
2.08105
0.450399
5.21842
4.92321
0.21264
1.46476
12.481
35.4579
2.31716
4.44661
0.623484
7.0415
4.48981
5.13243
0.978849
6.78305
0.434894
0.977932
1.08924
0.567399
10.387
0.422635
1.85152
53.723
43.1598
10.9186
20.6245
70.3825
7.46458
7.93418
5.43583
57.0851
0.593005
1.17681
1.98076
1.27736
0.832381
0.822543
14.9612
9.70955
60.6645
55.6273
25.6562
2.52264
0.446168
8.11738
1.85119
5.56148
72.3655
0.845176
15.8842
6.4249
5.38705
13.3326
3.74006
0.977947
3.91453
5.5419
1.23656
6.01301
5.07486
43.2835
1.07005
34.6638
27.8893
37.7604
32.0741
4.42445
5.39769
16.4206
11.1065
13.8227
18.6702
8.15727
5.09887
3.69637
0.374492
1.84536
6.90205
2.57305
0.434729
0.928874
92.6868
0.405799
0.933016
0.586156
39.6071
0.473494
25.7672
12.056
94.9829
1.63672
1.28971
1.11337
13.5566
1.14993
33.5538
46.0697
1.84145
0.934348
3.06611
0.462642
0.885655
57.8021
0.596016
14.266
34.3273
15.1009
3.51718
30.674
23.9993
19.945
6.35083
0.462849
0.595942
0.828606
3.27372
19.004
8.58065
52.8082
26.9986
45.7832
0.441503
58.8604
0.524601
30.0355
0.5461
6.97835
7.3453
4.04911
11.6664
1.36337
45.1425
43.8591
114.455
0.395268
33.5904
71.1536
23.1711
5.06609
5.76885
4.57158
11.335
57.0322
13.0642
2.42765
30.822
31.8348
5.77358
8.76577
56.7417
64.1631
36.5401
29.108
0.796109
44.9168
4.82533
19.6075
2.44079
33.6831
44.8342
1.3408
5.15581
0.9283
22.0793
162.872
34.5289
29.1027
4.42679
77.4428
3.4186
26.1336
56.6152
10.7621
3.42951
1.12116
30.2138
0.413176
0.189007
1.496
4.60861
1.9386
61.0683
48.8474
4.35858
22.7075
1.57531
30.6545
41.5975
13.3193
5.56336
6.02606
1.79098
18.4407
1.30541
5.24507
5.39263
61.6615
12.9879
39.0114
5.43623
2.63148
10.3412
11.0787
11.4799
37.5033
1.25393
4.61489
26.2789
32.2496
6.53701
1.07721
0.47895
69.6912
14.1777
14.1361
0.502086
6.7929
0.86336
1.1236
7.73946
0.478302
24.3242
58.0741
22.9206
32.0702
3.37862
17.9328
0.891425
5.22461
43.4249
0.46299
1.78597
12.0797
0.530428
52.3853
79.5769
0.583824
10.4669
74.6916
0.871066
14.7075
6.47381
0.245989
1.30249
45.2024
2.28327
44.4996
4.37736
61.2101
1.20451
79.8998
4.92711
2.04627
16.8919
6.94609
1.82803
0.886258
15.2962
0.550953
97.7754
0.479735
0.910952
6.47587
4.8341
5.32547
14.4587
4.62467
0.474377
49.6666
2.03075
4.86821
5.06516
27.6883
1.94661
0.623192
1.32528
1.03542
74.5364
26.7659
2.79357
4.83035
58.1388
0.374495
57.4016
7.37434
56.391
0.282874
1.5511
25.6701
1.43245
0.81523
63.2094
49.238
47.5586
8.90018
114.007
0.56499
0.700823
1.36725
38.0091
66.9312
114.14
0.464225
1.44302
0.565758
12.1213
5.18995
65.016
88.9883
39.027
14.3822
4.82536
3.19021
1.86592
13.6125
108.974
46.3469
4.56911
0.469686
8.93123
43.7339
70.1086
28.1381
28.442
0.471554
1.42696
54.9067
30.6661
0.551943
74.1509
58.2889
60.2046
20.2998
3.48226
11.0443
15.7594
25.039
52.196
0.820073
55.691
46.9311
12.6572
0.839589
47.0213
13.2129
14.2267
41.0674
33.7061
5.55385
0.842571
0.741181
88.3693
3.50117
2.57009
70.1423
1.07226
41.2994
35.2851
0.544077
53.561
4.80959
6.26103
9.26
19.7943
12.6207
37.1015
86.6249
0.414885
86.2392
0.551999
40.2016
53.5427
0.492099
2.38528
2.04893
0.910228
66.9439
38.6596
5.83354
6.25049
24.8902
0.324713
1.76161
20.4686
9.0862
0.398908
7.13468
4.64051
0.919678
97.4343
40.6927
54.0325
30.9201
52.2156
1.0769
0.885176
2.91067
55.7237
32.3245
18.3188
12.3849
4.31341
52.6227
1.5988
77.3566
3.91053
1.29782
0.865134
7.63271
8.37485
5.65606
15.7941
6.53531
34.4541
41.5194
20.5248
4.84113
5.89482
14.2608
3.73337
71.8843
42.4213
67.5887
26.4932
1.42825
76.632
42.048
34.8274
2.29789
0.660077
13.0983
1.133
39.0157
1.00649
0.284608
57.8846
6.01261
33.9334
33.666
33.7211
23.8401
28.7903
12.5261
3.78751
37.4943
11.8581
20.3933
0.816817
5.87845
3.48859
0.461139
3.95373
34.2105
1.65687
0.912534
0.562794
0.592363
2.09462
36.111
2.26751
64.3995
52.6287
13.3289
22.1847
2.69428
2.98492
3.89724
0.668092
2.52475
5.40214
1.33796
66.6949
5.89755
20.5156
0.402991
7.20883
3.4278
1.02247
115.317
0.581923
1.24215
3.82573
5.07688
0.975571
1.88627
1.07572
35.9021
6.11498
2.63498
1.04167
2.24408
1.39942
30.347
5.32638
5.22994
1.1446
2.21827
7.47779
2.15213
58.0044
8.67607
6.11592
5.04864
2.50096
20.1611
37.3768
1.58998
5.48787
1.70488
3.10148
2.17611
11.1913
1.09861
6.78229
35.5356
9.09277
42.5511
2.1521
165.498
6.12274
44.4886
79.6813
12.0928
4.4406
0.362503
11.4246
3.67415
53.1313
4.093
52.26
0.789674
45.2476
0.999721
0.412467
9.79077
1.02101
12.607
8.24447
56.7967
7.09
46.8564
41.4737
34.1764
41.5287
4.83904
2.8141
17.2361
50.5191
32.3269
11.9166
11.8944
51.5335
33.7533
71.6922
26.4873
11.9225
23.8507
5.07789
42.9948
17.9534
4.23159
41.7456
121.791
3.93432
18.1409
27.8265
)
;

boundaryField
{
    frontAndBack
    {
        type            empty;
    }
    wallOuter
    {
        lowReCorrection 0;
        type            epsilonWallFunction;
        value           nonuniform List<scalar> 
90
(
23.9523
25.1539
23.8936
26.2741
30.3966
28.4062
28.027
40.1922
22.2188
28.4878
31.2258
42.8186
29.5889
37.725
33.0634
83.5503
31.2102
37.1565
40.4976
46.6245
35.1147
27.8228
31.8699
35.2374
34.6956
60.6645
55.6273
34.6638
37.7604
16.4206
11.1065
13.8227
18.6702
8.15727
5.09887
2.57305
0.586156
0.473494
25.7672
1.28971
0.462642
0.885655
57.8021
0.596016
0.462849
0.595942
0.524601
30.0355
0.5461
43.8591
56.7417
22.0793
30.6545
39.0114
26.2789
0.502086
0.478302
24.3242
58.0741
17.9328
43.4249
0.46299
0.583824
74.6916
45.2024
61.2101
79.8998
0.550953
97.7754
0.479735
47.5586
0.56499
114.14
0.565758
88.9883
108.974
28.442
30.6661
0.551943
60.2046
35.2851
86.2392
0.551999
30.9201
20.5248
0.592363
115.317
0.581923
35.9021
20.1611
)
;
    }
    inlet
    {
        type            fixedValue;
        value           uniform 14.855;
    }
    outlet
    {
        type            zeroGradient;
    }
    wallInner
    {
        lowReCorrection 0;
        type            epsilonWallFunction;
        value           nonuniform List<scalar> 
138
(
3.24316
14.0315
30.3271
7.66785
8.00617
5.15844
73.8184
10.7554
5.27773
5.71606
28.0465
48.7349
7.20002
4.11244
1.70531
2.17376
4.81581
5.20005
4.68211
72.9419
134.824
36.492
1.48736
30.9713
34.1754
38.3928
28.9711
40.6692
31.9778
35.0977
32.5397
5.15683
2.07464
2.03506
0.738345
1.77983
1.81915
1.30749
2.11294
1.12931
0.96126
1.69295
1.52067
0.900542
1.47531
3.83321
1.43906
1.43245
1.21101
0.17325
0.979757
1.98619
1.46468
3.11568
1.78594
0.789777
1.97897
1.20519
1.77347
2.19724
1.35413
3.46388
0.66487
1.20136
0.363348
2.18928
2.13944
6.44197
39.1666
3.89843
65.4071
3.47385
4.6458
19.2765
41.7524
10.2955
43.8597
4.0247
3.36269
14.6928
12.1008
80.0592
108.805
47.9403
37.9885
95.2548
0.597335
0.540834
31.7745
32.5684
1.92569
4.64289
2.02922
3.27128
0.720995
0.178427
2.11107
1.30376
1.62765
12.9719
16.1992
3.17669
6.6979
0.700573
33.3382
0.279889
2.51837
30.7854
2.137
2.38555
8.11738
43.2835
0.374492
1.84536
0.928874
30.674
45.7832
0.441503
33.5904
71.1536
1.30541
0.47895
69.6912
0.871066
4.62467
2.03075
58.1388
0.374495
3.19021
1.86592
0.544077
11.8944
42.9948
17.9534
4.23159
121.791
3.93432
27.8265
)
;
    }
    procBoundary0to1
    {
        type            processor;
        value           nonuniform List<scalar> 
29
(
6.02991
7.8476
5.85238
5.85238
44.1266
44.1266
126.023
8.14499
76.9071
6.91355
6.60482
54.1655
8.27113
8.23341
75.205
28.9649
57.931
71.1814
6.77814
8.59023
12.1485
6.41942
59.2603
10.5501
10.6131
71.1814
8.37093
67.4285
10.5501
)
;
    }
    procBoundary0to2
    {
        type            processor;
        value           nonuniform List<scalar> 
42
(
21.2767
25.3055
0.454125
0.41014
2.77686
21.2767
0.454125
0.562089
1.42382
0.375923
4.27719
7.49379
4.27719
9.88516
14.1359
17.6339
14.1359
0.353895
0.573841
6.72333
6.72333
0.353895
0.348735
5.32925
5.32925
0.434686
6.90958
0.426743
14.0555
26.4925
26.4925
0.389017
0.310481
0.23637
0.218525
0.454125
22.1443
0.446854
14.0555
0.562089
0.41985
0.291319
)
;
    }
}


// ************************************************************************* //
