/*--------------------------------*- C++ -*----------------------------------*\
| =========                 |                                                 |
| \\      /  F ield         | OpenFOAM: The Open Source CFD Toolbox           |
|  \\    /   O peration     | Version:  v1912                                 |
|   \\  /    A nd           | Website:  www.openfoam.com                      |
|    \\/     M anipulation  |                                                 |
\*---------------------------------------------------------------------------*/
FoamFile
{
    version     2.0;
    format      ascii;
    class       volScalarField;
    location    "0.29";
    object      epsilon;
}
// * * * * * * * * * * * * * * * * * * * * * * * * * * * * * * * * * * * * * //

dimensions      [0 2 -3 0 0 0 0];


internalField   nonuniform List<scalar> 
1431
(
9.9447
4.3988
131.543
72.3203
10.1712
11.0186
37.1545
4.42279
8.82302
32.3889
7.93086
15.9877
14.6176
56.3267
28.2147
13.0727
48.3756
2.3912
7.80582
7.8166
4.63315
26.5208
12.3885
61.8854
52.7145
8.1125
59.845
51.3149
22.0138
4.97723
41.0828
12.6319
38.3719
9.59199
39.7252
65.1286
9.72271
10.3444
9.74082
9.88162
132.501
2.38681
17.1541
49.6527
47.809
3.12063
49.9221
4.91097
15.5357
16.4116
4.25947
35.0382
11.507
12.1964
50.0926
4.83671
65.8036
21.4485
55.5559
3.4503
59.8774
5.60034
74.4325
9.83236
34.7444
3.6679
116.634
13.9639
17.0268
12.5026
7.1141
53.563
5.83013
8.86182
12.8015
36.2453
6.69775
75.5111
5.76401
88.0343
8.12147
3.62225
7.39108
73.8783
107.903
11.4851
9.36002
21.8752
68.3332
7.26938
2.76886
31.5404
8.09174
10.2676
5.20024
6.30894
20.3999
8.53533
4.41704
25.8271
19.95
5.57313
4.47577
12.6837
24.9903
16.9471
6.61234
145.913
54.2582
7.29327
107.493
4.41882
5.54772
5.17668
21.7273
11.8661
2.74636
12.3874
76.2259
38.3476
9.06127
15.3468
73.7957
46.3314
9.33742
14.0808
86.3352
10.4718
6.14058
26.435
4.24084
120.715
48.9069
4.25933
9.90457
47.6703
5.98453
5.02384
2.98136
131.866
5.59276
1.3186
9.82858
15.8259
17.8988
16.2304
8.69897
146.433
6.29757
12.4452
28.252
37.9054
6.16523
10.5474
6.03271
15.1696
8.99443
3.90372
5.13227
7.56991
2.41189
6.36771
4.32411
18.1785
11.7462
158.273
8.25996
9.7408
4.54863
6.33222
29.4901
20.8672
40.8585
17.4318
9.33031
4.95977
8.13953
25.5661
5.18838
5.63029
10.7459
38.4189
5.19645
6.85037
14.1484
14.4828
6.4422
50.5987
8.72113
10.0944
5.59456
104.986
4.90695
7.36637
11.0333
8.22535
6.30015
7.64815
9.42471
8.18585
9.06253
73.9716
10.5525
150.002
6.95313
75.9972
11.3701
10.0454
6.99426
23.083
7.96966
5.35375
64.7191
9.71978
89.9153
32.5099
4.7869
6.21066
17.3442
9.99926
9.23275
72.3613
21.5103
210.117
11.0647
29.1141
22.2353
5.56312
17.6796
41.1169
13.9701
36.4188
11.0215
4.5673
4.40572
4.81714
10.0185
6.02476
8.2058
7.33988
10.3737
8.86634
12.0458
102.529
21.3836
18.6274
10.3714
30.5043
8.91653
24.2455
8.26026
9.53762
26.8765
24.3579
66.3718
36.4392
3.10845
6.77121
30.8958
34.0975
38.3633
18.1026
7.37497
8.52253
4.4993
17.3736
28.8916
7.79751
19.5328
13.7683
7.15274
19.3567
8.30599
8.35086
40.6743
8.78583
3.46043
12.4041
6.52993
57.0781
11.4249
7.9946
6.07617
3.40153
31.8506
48.4941
13.3381
4.31597
20.8436
9.25335
17.8008
11.5406
4.38924
6.52676
9.43733
5.6822
4.40375
7.95514
6.54839
6.60444
11.12
22.2284
7.74012
5.83626
3.66506
6.12807
8.62025
35.0295
32.4608
0.654612
9.98998
13.0912
58.1874
1.15551
8.35872
5.65548
48.8365
11.7844
4.42835
9.23317
6.68884
5.63817
5.25423
9.03555
13.5938
12.6504
7.39715
17.0374
65.9848
9.36009
14.0113
14.6028
7.68294
6.19893
8.8497
10.9161
5.17049
3.29841
5.7918
15.7978
8.28428
7.60624
15.7759
18.311
62.0183
8.73328
11.3871
18.7693
0.494798
0.336929
10.3427
7.93217
11.498
3.52776
15.8349
7.37375
8.35222
11.5854
3.60443
22.1415
4.03704
14.6059
3.49871
0.376604
0.508335
16.0047
3.07556
18.2398
26.1817
32.9924
4.763
7.09407
9.29373
11.704
6.42398
75.933
9.38038
11.4975
13.9059
3.82407
10.0765
12.7927
0.421218
9.74437
16.6045
3.37215
18.4374
14.0257
3.51944
0.42737
19.9632
72.383
18.145
13.9163
13.3624
4.9531
1.75216
10.7404
10.5743
9.11686
15.8749
7.34445
10.2544
6.26768
11.262
12.9174
13.0357
7.75475
0.650315
20.9749
41.3516
17.9553
8.01796
68.8373
16.8023
53.2034
4.72257
13.5843
14.9717
0.944167
10.3732
4.79086
23.3969
6.45493
4.87383
5.20415
5.51083
4.09038
64.5119
5.29691
66.6457
8.53721
7.71178
4.94418
8.67119
5.10148
5.38092
4.48504
7.22983
10.2353
51.7215
11.6366
4.66297
4.12627
6.00086
11.9209
15.1897
8.81907
23.1918
5.55399
6.67532
22.0313
13.1325
22.0043
6.13186
22.7638
21.8163
20.8
22.2785
9.18889
68.1761
11.7005
10.7873
13.6775
9.32328
9.62569
0.754071
80.8157
13.8432
10.5809
75.197
2.96981
5.53083
57.0543
16.4961
9.1309
76.6407
86.5375
118.713
6.4852
5.49205
3.16331
60.7198
4.83609
9.18579
45.6206
16.117
17.961
15.2154
15.0025
8.8799
8.09515
15.1807
96.5996
6.56826
3.38956
88.5153
5.02252
11.3721
6.3149
19.1204
146.431
4.24501
5.25945
4.86215
9.6157
9.54821
22.0812
9.65749
6.75843
6.34987
9.50387
6.45815
20.4376
11.3256
12.4932
113.389
113.072
7.01515
14.25
9.96845
9.51189
6.41806
0.609453
4.34242
7.41257
4.21897
12.4397
8.76831
4.67717
9.43978
6.17802
8.10749
7.38542
17.3224
8.83868
4.24165
5.75263
12.3394
55.325
4.78712
79.3095
5.00215
35.4929
7.09635
20.436
4.50757
5.34007
19.5174
15.6414
8.01795
3.05306
31.6576
10.9116
8.54019
8.4943
5.22756
8.96384
32.4184
4.43985
9.88184
5.86606
7.86388
86.1236
49.1684
0.403222
9.63547
4.8092
56.0971
4.6458
15.1198
11.0794
63.2952
15.1316
100.512
3.27203
5.87733
5.96774
5.07525
21.4088
3.6553
5.62677
7.02151
6.13778
9.55667
6.67921
4.27932
12.054
3.93375
17.4979
46.2577
17.8098
13.7247
10.7362
9.47242
6.22564
0.805461
4.31746
4.95609
5.19289
4.78193
3.1776
10.3485
5.14867
4.57177
13.5128
6.17537
14.9492
15.6367
101.082
67.6812
8.58799
1.04485
4.15836
85.4726
4.99467
48.1707
8.77744
4.00294
15.4313
11.0111
10.0917
2.50129
11.5394
5.54648
9.38589
11.7347
0.549243
6.50253
5.91496
10.6021
2.75969
4.14044
6.35315
7.81531
13.0372
10.691
4.65106
28.1326
3.11066
5.48146
24.456
6.81983
7.43072
7.84023
4.50311
5.05953
11.2395
29.7648
3.48008
9.35312
5.85123
8.57845
33.742
12.8091
9.12596
7.23578
11.8071
5.05881
8.15408
6.18249
0.283889
3.1354
2.86356
8.69538
5.86158
13.6848
25.5006
11.2843
39.0358
0.381056
7.6504
2.7688
9.25358
9.88113
10.0183
23.2281
54.7861
12.4085
24.6394
38.8093
3.71398
19.3073
6.96509
6.04755
6.1178
4.76847
4.86662
21.877
2.30473
55.0744
7.38761
4.60975
6.62
6.85882
10.6934
0.346235
18.9933
8.10978
4.85082
4.70329
13.3422
4.11028
10.8946
7.73533
34.9244
31.3653
8.9242
13.9317
148.014
5.44899
1.02984
10.4433
27.1939
4.0652
25.1457
3.7631
7.8792
5.09639
3.82688
23.8896
9.62626
5.33279
80.9897
17.9901
26.2598
22.9936
6.53473
29.7216
5.37115
8.04165
4.61783
28.7844
28.854
60.8747
4.18888
3.20878
12.3188
9.54629
3.28238
5.59041
14.5557
13.3371
2.82309
40.221
22.2173
5.45407
18.799
36.32
9.65179
12.398
4.31901
29.4269
31.998
3.04314
3.96573
13.0554
29.0486
18.3508
99.5835
16.7222
47.9213
43.4941
43.9101
9.91344
14.4158
4.93983
46.5489
42.6692
30.4833
9.24092
103.24
0.672527
16.932
3.42278
37.9468
0.452935
53.2703
5.96251
11.4305
7.4919
5.44957
33.6657
7.53251
0.942535
190.322
0.907823
16.7818
4.54847
117.156
3.09236
4.27152
79.6733
44.5962
13.9623
10.342
0.466488
17.146
78.0157
5.90417
10.7757
7.18406
5.4838
12.7532
0.330905
8.46041
53.401
2.57902
15.8715
7.47352
8.55864
6.12808
12.7856
0.29984
85.8759
31.1804
37.1434
40.515
46.5923
35.0931
27.8122
31.8625
35.6526
2.93015
5.39674
17.1975
6.17783
6.18573
14.8445
0.277006
13.55
0.812888
21.0613
0.285728
13.3901
28.6227
6.71579
30.6935
12.7865
8.96314
4.3464
7.26245
8.45447
34.6887
92.2101
6.12924
10.0156
5.51046
3.92521
6.18166
3.50189
5.14226
6.12664
0.270036
47.6103
3.15659
33.406
12.0258
11.0462
12.3656
5.66211
3.13054
18.2877
4.05687
13.6855
9.02164
5.22815
4.96907
0.242621
19.1736
9.94554
46.9169
2.68054
4.91496
0.791868
7.52279
15.0503
48.2649
7.79381
6.78296
1.12319
14.2573
4.19456
0.480955
10.3535
10.6076
3.29382
81.9506
62.4408
10.9753
20.5844
82.728
11.6844
7.93569
7.40375
83.5027
1.06993
16.8248
5.70491
11.4336
4.74404
4.34483
20.9219
16.0411
60.1551
50.3286
25.4243
6.91552
0.755226
1.33174
2.61928
5.56117
25.0792
6.28983
20.5088
11.3968
17.8418
13.2948
24.1043
16.5687
7.41311
5.54339
3.62894
6.01192
5.07273
43.3434
16.6331
34.6406
40.0261
34.3272
4.04256
4.22824
6.6668
11.5639
14.637
13.2814
9.14772
15.9688
17.7432
3.57143
0.360621
11.0329
6.90157
19.8114
10.1906
3.56962
106.252
6.60795
3.03848
26.003
22.4204
12.6755
20.71
7.74165
135.129
20.6916
21.1924
2.81997
10.4888
3.55866
12.1819
10.4258
19.5493
3.32052
2.73568
22.4447
21.05
72.0396
14.1708
37.4593
14.0607
19.4707
3.59013
33.7626
18.0319
16.4155
6.35032
22.2087
21.5615
5.47719
4.29557
18.5409
8.27649
35.0738
41.6936
51.5675
3.22113
91.5617
19.433
36.0197
13.1945
6.98091
8.19844
4.65754
11.67
22.1525
6.099
43.4568
133.728
7.60665
16.7741
81.8504
23.0236
18.4815
53.9516
4.54708
13.0352
75.3747
13.0657
2.92908
5.72957
22.0327
5.77187
8.42966
54.0025
65.4711
52.7374
4.51328
4.53007
9.61784
6.38714
12.5357
9.37742
50.6924
43.1433
21.0221
6.92156
5.04755
7.16669
140.161
11.728
24.3526
5.08343
111.082
10.7103
6.6462
81.9289
10.7646
6.15419
5.4313
39.3762
11.249
0.284508
24.1969
7.11182
11.5615
75.5422
8.58049
4.24704
14.1538
18.6097
30.6624
8.59941
31.4222
11.6781
47.0827
2.54986
17.8151
6.08741
4.61803
5.72004
52.8416
12.9915
41.0802
5.02446
2.79572
14.3254
11.0931
11.4823
7.03852
3.54667
4.61126
26.1911
46.0304
6.53897
6.98627
3.86119
70.9409
14.1849
14.1396
13.1864
5.28714
5.85732
0.325165
6.4577
12.084
27.2803
51.9309
22.6161
9.67174
4.50778
17.9327
5.15272
4.65904
43.4331
20.8619
11.4959
12.081
6.66631
76.5523
99.3413
15.155
19.5786
84.0138
4.32293
14.6652
7.54766
0.338553
17.1014
44.8971
15.1979
22.4606
5.38082
57.2329
6.31381
76.9906
5.05355
14.507
22.8255
7.35218
12.0577
3.97393
15.3163
13.7424
111.635
19.4325
7.72353
5.06128
12.3223
49.6697
14.4718
0.353685
10.7563
4.88078
4.38468
6.48144
3.76751
30.435
9.36224
0.699002
22.557
3.93157
6.11867
44.7633
3.2775
4.82908
61.3583
3.62419
69.5793
7.37473
71.529
0.369248
24.1316
10.5636
17.2237
5.86027
16.5822
46.8548
43.666
8.91106
115.404
14.3426
0.591229
19.8969
23.9191
51.0412
107.005
0.511395
23.5793
19.091
12.1218
11.6445
15.073
104.041
39.1028
14.3828
4.77071
0.242533
5.64799
19.2659
102.505
64.7521
4.2655
5.28314
16.6721
43.8135
107.577
4.49241
28.4184
1.07531
10.2719
81.1187
30.6301
13.7983
47.7163
14.9619
66.5836
21.3472
7.48064
10.9522
9.72261
100.241
30.2907
5.7013
19.2472
46.4902
12.6712
14.3989
9.04604
13.2125
14.2282
59.1265
12.3161
6.79891
5.40892
0.531598
97.2442
4.94605
12.1781
80.6441
5.90627
15.1724
35.2434
3.18029
54.6689
4.3693
6.28141
7.53478
19.8092
12.622
36.9602
105.273
8.91929
98.1226
14.071
16.2225
57.1334
9.60294
13.1892
2.86102
2.78861
100.671
54.3952
22.9566
66.0099
22.0089
2.00129
13.0172
37.3614
9.08806
11.2178
20.5414
4.63769
3.93226
138.924
8.9367
75.8819
30.9196
11.4146
2.74109
12.6209
6.69397
82.8872
10.7125
18.3228
12.3884
10.1487
71.5204
14.2643
35.9797
4.9651
10.8888
0.421207
7.63795
8.36967
5.65513
15.9203
7.87312
34.5146
40.2992
6.41366
3.21371
5.84939
15.2831
5.57524
105.018
13.6239
7.69953
24.5803
3.83499
107.692
56.421
9.00597
15.8517
10.39
13.099
3.49264
24.9076
13.9996
0.294301
14.6839
6.01755
45.5737
4.35499
26.3211
7.68616
23.1701
12.5432
5.78464
29.3012
11.8649
20.0749
4.17035
12.2755
4.20536
3.61059
5.87401
4.00519
3.2191
7.20493
3.9248
17.3412
9.37794
32.3891
7.7608
92.8686
52.6497
13.3384
21.3781
2.96051
7.38795
5.32481
3.93138
17.0861
5.3526
19.6044
76.499
5.89865
31.8722
12.6609
7.09426
2.32782
5.85281
133.781
14.3357
22.9704
5.41498
5.0776
6.30816
18.8778
20.528
35.8797
5.18803
2.8015
4.67883
18.3155
3.23774
30.0088
9.71194
4.85674
4.67084
11.4225
7.29639
10.2325
78.188
9.30711
9.39469
4.942
11.7437
20.1607
37.0981
10.3666
8.78268
5.17781
3.80693
2.89172
11.4547
10.3342
6.77047
33.5356
9.26122
61.5726
13.1791
143.246
6.1238
43.9927
96.2468
12.0957
1.79058
10.6966
20.5865
8.09862
55.432
2.3387
16.5644
13.1449
45.9129
11.3715
14.3563
11.0842
10.6563
12.607
8.25219
57.2863
12.6909
57.905
41.4139
33.9853
41.4179
4.8367
7.34009
18.2655
4.8661
27.2319
11.8213
12.0838
4.42784
36.4984
5.93962
29.5401
15.0182
23.73
5.00685
57.1806
18.8456
7.79564
50.768
194.676
74.3492
65.5953
21.2986
)
;

boundaryField
{
    frontAndBack
    {
        type            empty;
    }
    wallOuter
    {
        lowReCorrection 0;
        type            epsilonWallFunction;
        value           nonuniform List<scalar> 
90
(
13.0727
25.1457
23.8896
26.2598
29.7216
28.7844
28.854
40.221
22.2173
29.4269
31.998
42.6692
30.4833
37.9468
33.6657
79.6733
31.1804
37.1434
40.515
46.5923
35.0931
27.8122
31.8625
35.6526
34.6887
60.1551
50.3286
34.6406
34.3272
11.5639
14.637
13.2814
9.14772
15.9688
17.7432
19.8114
26.003
12.6755
20.71
21.1924
22.4447
21.05
72.0396
14.1708
22.2087
21.5615
19.433
36.0197
13.1945
43.4568
54.0025
7.16669
30.6624
41.0802
26.1911
13.1864
12.084
27.2803
51.9309
17.9327
43.4331
20.8619
15.155
84.0138
44.8971
57.2329
76.9906
13.7424
111.635
19.4325
43.666
14.3426
107.005
19.091
104.041
102.505
28.4184
30.6301
13.7983
66.5836
35.2434
98.1226
14.071
30.9196
6.41366
17.3412
133.781
14.3357
35.8797
20.1607
)
;
    }
    inlet
    {
        type            fixedValue;
        value           uniform 14.855;
    }
    outlet
    {
        type            zeroGradient;
    }
    wallInner
    {
        lowReCorrection 0;
        type            epsilonWallFunction;
        value           nonuniform List<scalar> 
138
(
15.9877
7.80582
38.3719
9.59199
39.7252
2.38681
116.634
13.9639
7.1141
53.563
36.2453
48.9069
10.5474
6.03271
4.95977
8.13953
9.42471
8.18585
9.06253
73.9716
210.117
36.4392
3.10845
30.8958
34.0975
38.3633
28.8916
40.6743
31.8506
35.0295
32.4608
8.28428
8.73328
18.7693
0.494798
0.336929
10.3427
7.93217
11.498
3.52776
15.8349
7.37375
8.35222
11.5854
3.60443
22.1415
4.03704
14.6059
3.49871
0.376604
0.508335
16.0047
3.07556
18.2398
3.82407
10.0765
12.7927
0.421218
9.74437
16.6045
3.37215
18.4374
14.0257
3.51944
0.42737
19.9632
15.8749
17.9553
53.2034
7.71178
11.6366
6.00086
23.1918
11.7005
57.0543
6.4852
60.7198
15.0025
8.8799
8.09515
6.56826
88.5153
146.431
6.75843
6.34987
113.072
7.09635
3.05306
31.6576
32.4184
15.1198
5.19289
4.14044
5.86158
3.71398
0.346235
18.9933
5.37115
4.61783
13.3371
16.7222
4.93983
3.42278
5.44957
44.5962
0.330905
13.55
30.6935
12.7865
0.270036
1.33174
43.3434
0.360621
11.0329
3.56962
33.7626
51.5675
3.22113
16.7741
81.8504
6.08741
3.86119
70.9409
4.32293
0.353685
4.38468
61.3583
3.62419
0.242533
5.64799
3.18029
12.0838
57.1806
18.8456
7.79564
194.676
74.3492
21.2986
)
;
    }
    procBoundary0to1
    {
        type            processor;
        value           nonuniform List<scalar> 
29
(
20.7161
55.0071
9.8859
9.8859
60.5768
60.5768
119.515
9.60027
117.472
8.43445
7.37801
68.2352
11.6298
22.5007
57.799
21.975
80.7902
74.9516
9.37508
59.4151
9.68445
5.79746
70.7594
10.4914
10.5943
74.9516
8.23662
64.5855
10.4914
)
;
    }
    procBoundary0to2
    {
        type            processor;
        value           nonuniform List<scalar> 
42
(
29.3523
27.7788
10.4099
9.34463
2.8841
29.3523
10.4099
3.57505
1.88944
0.905857
6.11651
8.80346
6.11651
12.2412
14.3216
31.9983
14.3216
0.796349
1.24727
44.8928
44.8928
0.796349
1.00074
40.1353
40.1353
1.09345
32.5288
1.16016
30.036
24.0617
24.0617
0.955814
0.633164
0.41327
0.31004
10.4099
15.0779
11.0647
30.036
3.57505
0.510628
0.309776
)
;
    }
}


// ************************************************************************* //
