/*--------------------------------*- C++ -*----------------------------------*\
| =========                 |                                                 |
| \\      /  F ield         | OpenFOAM: The Open Source CFD Toolbox           |
|  \\    /   O peration     | Version:  v1912                                 |
|   \\  /    A nd           | Website:  www.openfoam.com                      |
|    \\/     M anipulation  |                                                 |
\*---------------------------------------------------------------------------*/
FoamFile
{
    version     2.0;
    format      ascii;
    class       volScalarField;
    location    "0.97";
    object      k;
}
// * * * * * * * * * * * * * * * * * * * * * * * * * * * * * * * * * * * * * //

dimensions      [0 2 -2 0 0 0 0];


internalField   nonuniform List<scalar> 
5794
(
0.0590478
0.0373267
0.470581
2.45545
2.83939
0.131997
0.350403
0.195652
1.5374
0.0325748
0.908893
0.294286
0.380704
1.85646
0.06282
0.15543
6.60721
2.03067
0.0515662
0.0340357
1.02007
0.0984626
0.680291
0.11914
0.463209
2.20006
6.58195
2.34808
2.01217
0.0645754
0.307555
0.520007
0.754718
0.0688059
0.17238
0.293704
0.196674
0.728995
0.914679
2.80022
1.37901
0.483009
0.278164
0.451509
0.0635355
1.09832
0.727277
0.338938
0.0273079
0.112157
0.165871
1.40311
0.0787239
0.0600835
0.0105476
1.047
0.659893
0.504605
0.218935
3.64485
0.938444
0.0281854
0.264923
0.887613
1.27347
0.044891
1.85996
0.467066
1.86819
0.0216261
2.34827
1.854
7.63933
0.159529
1.92299
1.4585
0.0583156
1.6842
0.401023
0.0912304
0.0797389
0.0254992
1.08834
0.684601
0.526783
0.82423
0.529616
1.06437
0.209362
1.006
2.47913
0.751293
1.57297
2.57181
1.01508
2.41014
1.90214
1.37492
0.693463
1.02614
0.901659
0.311521
0.249426
2.42277
0.459115
3.5564
0.0264764
0.645998
1.57326
0.351354
0.0547757
0.0404153
0.922141
0.0915518
0.859498
1.95776
0.0586942
2.37936
0.859578
0.497551
2.85851
0.0287377
0.240226
1.97361
0.0542299
1.43116
1.56212
0.155174
1.6177
0.690259
0.332811
0.436692
0.982661
1.48799
3.43936
0.0665403
2.02133
0.0300724
0.333582
0.0537742
0.138291
2.02854
0.0629781
2.23113
0.368195
6.77487
1.09446
0.917733
2.2334
1.24356
0.31427
0.0399378
3.53944
0.24514
7.08685
0.91994
0.751258
0.517621
1.38706
0.574115
0.0314601
0.123671
0.0396601
0.210436
1.13505
1.22667
0.242374
0.128382
0.0414865
0.0281349
0.037036
0.813829
0.147416
0.0934271
0.0437366
0.520335
0.0257612
0.344558
0.0687931
1.29702
0.141814
0.514375
0.14298
0.905119
0.18335
3.69991
0.346737
0.448307
0.0200268
0.244068
0.924564
0.472601
0.724042
0.18296
0.387809
0.286488
0.238483
0.0429021
0.0369777
0.276533
0.393135
1.22455
0.24322
0.232631
0.751311
1.11452
0.16141
1.11113
5.06892
0.999623
0.291466
0.312793
0.388905
0.188842
0.0893667
0.319764
0.435182
1.20807
1.07533
2.15879
0.305867
0.868151
3.81483
1.51771
1.97991
3.62789
0.240064
0.046799
0.0259724
0.0664837
0.135828
0.0940637
0.0491393
1.15172
0.957916
4.95223
5.94128
0.886801
0.34324
0.113983
0.0223214
2.19065
0.975705
0.822795
0.327798
0.0971631
0.0673474
2.01476
1.36655
0.934591
0.536789
0.0484545
6.7486
0.0319003
0.21149
5.70991
0.265436
0.43166
0.796997
0.0495633
1.51149
0.377108
0.189761
0.0502758
0.533662
0.414352
1.73297
1.70857
0.0402317
1.36685
0.930526
0.34549
0.788658
2.04317
0.397576
0.0543312
0.0583409
0.136417
0.026371
0.380977
0.102013
1.71416
1.16734
0.394908
2.02097
2.38387
1.06292
1.29144
2.92237
2.90721
0.202683
0.118485
0.07322
0.0506204
0.203513
2.04947
0.892177
0.342563
1.31718
0.0706729
0.0258865
0.775146
0.0811502
1.24246
0.231036
1.60696
0.0264399
1.5489
1.3454
0.921354
0.460524
1.15811
1.10568
0.0947224
0.292439
0.594323
0.832051
2.67317
1.52996
2.37614
0.243566
0.282074
2.15925
2.74644
0.196095
0.611576
0.158326
0.291207
0.387803
0.840374
1.20106
0.280865
0.245256
0.607773
0.432494
0.0249117
0.0260105
0.0383597
0.0175665
0.333064
0.0904903
0.397208
1.41732
0.588879
0.0323
0.127514
1.19432
0.614225
1.41016
0.896026
1.12097
3.33789
0.768358
0.472881
0.161819
2.82253
0.0504074
1.27794
0.362962
0.202421
0.983821
0.668774
1.80388
0.43329
0.217272
0.448268
1.1137
0.980107
0.640861
0.399859
0.0572412
0.0413479
0.476942
0.297627
1.24371
1.28665
0.872749
0.590591
0.709314
0.0233644
0.211696
0.0580149
0.322986
0.270808
0.152161
0.062655
2.5614
0.427749
0.178317
0.277273
0.14084
1.06971
0.0256653
0.134491
0.109385
0.0730485
0.0373215
0.185797
0.0575141
0.606018
0.0964551
0.372607
5.32593
0.0551865
0.0457934
1.13242
0.505226
0.142886
0.0446032
1.9009
1.36988
0.676458
1.25637
0.606595
1.2027
0.819654
0.217045
2.01652
1.07932
1.77266
0.675153
1.30129
0.920109
0.0584187
0.198736
0.118287
0.0488484
0.0868949
0.0245809
0.105923
1.40699
0.224183
1.99499
1.36408
0.0602482
0.049031
0.349415
0.513218
0.226441
0.128906
0.0594558
0.269584
0.236563
0.182792
0.136835
2.18362
0.924467
0.276435
0.0551068
1.30925
0.0308011
0.0370571
1.41265
0.0981149
1.94822
0.0398557
1.94348
2.46683
1.26053
3.61319
0.113572
0.0637825
0.379905
0.119589
1.12598
0.692443
4.43937
3.89525
1.01114
0.33812
0.0265024
5.7901
1.57129
0.0385844
0.0488213
1.81444
6.72486
2.68946
0.238037
0.0570058
0.666061
0.108499
0.0407946
0.0326097
0.924206
1.12248
0.311774
0.157297
2.86438
0.0912304
0.0322731
2.20915
2.04215
2.51521
0.470547
0.0579226
0.0540353
0.0627541
0.188616
1.01989
4.57692
6.61798
0.265592
0.429816
2.30322
0.0641147
0.119887
0.628629
1.44616
0.0581573
2.37834
0.0279497
0.287729
0.0411066
0.0987793
0.785379
1.76121
0.0408757
0.22279
5.38666
0.167341
0.0527918
3.40936
2.43616
0.757052
0.0784965
0.303013
1.04223
0.0549815
0.112333
0.534066
0.04259
4.28482
0.0711407
0.192984
0.0925278
0.24026
2.31922
0.669139
1.24668
0.102329
1.59134
0.0211748
1.68796
0.212757
0.181229
0.214768
2.23139
0.0793201
0.133731
2.49748
0.0271612
0.0312718
0.245847
0.147139
0.0784123
0.508289
0.113287
0.0552454
1.81095
10.1981
0.0468886
1.46835
0.0392515
1.68318
0.157042
0.111216
1.23154
0.0875824
0.0677403
1.24345
0.909166
1.44451
1.18231
1.5399
0.291917
4.0742
1.74137
0.413541
1.12131
2.09051
0.868496
3.00908
4.15881
1.69589
0.926621
0.079397
1.72586
0.758281
2.1992
0.0636774
0.141651
0.0331834
2.33893
0.921849
1.17217
0.0234999
0.293632
0.0523014
0.089772
0.0400144
1.38706
0.939709
2.52
0.0526321
0.50837
2.44209
0.0238014
0.012298
0.826697
4.33073
5.64996
2.1758
0.215036
0.128436
0.171195
0.931196
0.587547
0.269673
1.22782
0.0214752
1.25251
1.66694
0.897791
0.023141
0.0973683
0.305481
2.28503
2.24752
0.0729695
0.110647
0.0257073
0.01756
0.178312
0.0483058
0.0415326
1.85794
0.487488
0.0406487
2.47171
0.228636
0.289805
1.11166
0.811921
2.00391
2.76401
1.07538
0.737994
0.0842419
0.0333252
0.118705
0.259477
0.0740841
0.138261
0.120378
1.61272
6.03445
1.06043
2.08001
0.400629
0.0414547
0.0373115
0.105123
0.881843
0.0473212
1.2496
3.01653
2.4757
1.08213
1.21323
0.907904
0.213662
5.24922
0.785433
0.615084
1.01826
2.72244
0.221193
2.22343
0.181942
0.0698579
1.18222
0.0610591
0.220906
1.80512
2.07901
2.20409
0.0647469
0.0276183
0.0443949
1.72103
3.9476
1.70255
1.22441
0.0513049
0.949885
1.11349
0.0321332
0.111997
0.28998
0.0210926
0.28618
0.0413656
0.452102
1.79797
2.40747
1.42457
0.0378027
0.0921336
2.94276
0.520483
3.99181
1.33405
1.542
1.4124
0.373871
0.267254
7.17078
1.27569
1.34653
1.91337
2.19617
2.35241
0.106967
5.1454
0.258084
0.368093
0.50709
2.89144
0.640034
1.14608
1.17484
3.01275
0.837826
0.0512246
0.200801
4.82607
0.750207
0.734106
1.5104
2.22272
0.0353587
0.0650574
0.0265952
0.136349
2.15856
1.05565
2.57273
0.16187
0.283243
0.122826
0.218022
0.0658795
0.0403422
0.893715
2.32099
0.206862
2.74671
1.05966
0.261263
0.152486
6.88757
2.06965
1.19974
3.07345
2.55182
1.11503
1.44494
0.427408
1.58523
0.728957
2.08748
1.73244
0.0753246
0.280108
0.0447543
0.0596044
0.277877
2.53432
0.134729
1.27661
6.52156
0.412155
0.128065
0.06468
2.15561
0.962447
1.27191
2.24333
0.909158
0.359968
2.27602
2.11442
1.24803
0.171568
1.05578
0.0308264
2.05917
0.099844
1.84309
0.30368
0.906078
0.0906851
0.156806
0.104213
0.0431095
1.24497
1.63206
1.67952
4.25772
1.29591
0.136818
0.283534
0.641636
3.80754
0.0730147
0.516092
0.693442
2.54489
0.0528705
0.119838
0.527918
0.876441
5.31151
0.0766373
0.386084
0.0348975
0.0403827
0.0508886
0.786542
1.86216
2.094
0.28286
0.068024
2.58931
0.0438085
0.401374
8.01034
0.068236
0.0167638
0.121504
0.0337459
1.02098
0.367323
0.498193
0.0842294
0.147108
0.219384
0.316554
6.71981
0.98564
2.6647
0.863476
1.18743
1.66417
1.13801
5.23411
1.39831
0.10157
0.0363522
0.206818
1.81254
0.281449
0.0643574
4.09136
1.45408
2.12136
0.854186
0.0635872
2.59722
0.344776
0.34858
1.3528
0.139937
3.29112
0.031212
0.0639494
1.43278
0.393421
0.230723
0.204093
1.67418
0.674813
0.263799
0.0396632
0.0662697
0.797372
1.75771
0.315309
0.299377
1.01911
0.13935
1.13519
2.95344
1.93145
2.33609
2.37093
0.0934053
0.0299335
1.3001
0.0795478
0.0512608
0.0438009
0.175812
0.767115
0.024423
0.254318
0.0719485
3.15177
1.27875
0.826057
0.275719
0.516508
0.988088
6.34383
0.755201
1.63853
0.23442
0.056335
5.99396
0.374968
1.20692
0.26198
1.30681
0.794224
1.0082
0.107236
1.62058
1.12755
0.146127
0.083496
0.0496676
0.0782933
0.0291086
0.732463
2.54478
3.41564
1.68732
0.673887
1.26787
1.64509
0.325298
0.0489852
0.129853
1.32157
0.0777492
5.98931
1.22194
2.05293
0.246432
2.62277
1.11899
0.0367581
0.0933876
6.26688
3.5459
0.305138
0.48974
0.474213
1.56663
0.0511654
2.82111
0.0371307
0.137638
0.102783
0.0328615
0.0297646
0.0385306
0.164041
0.0671497
0.0366745
0.0453369
0.264388
2.48206
0.215899
0.0301615
0.0776025
1.19457
0.299687
0.522874
0.124397
0.632412
0.0410722
0.639109
0.200164
0.124113
0.0566934
0.49538
1.51258
0.0483293
0.304326
0.0390497
0.176408
0.291839
1.24114
0.431036
5.20074
1.85384
0.0681444
0.318554
0.531526
2.25831
0.544476
0.926479
1.11893
2.43287
0.119973
0.24854
0.0643592
0.107233
0.418658
0.399832
1.87689
1.70188
1.34654
0.0119338
0.700992
1.4727
0.869222
0.826774
0.96402
0.0242203
0.101921
0.0531511
0.732618
0.302621
2.23491
0.200858
0.384633
0.196757
0.20489
0.287374
0.250129
0.0344682
0.121467
1.94324
1.99993
0.752717
0.0253411
0.274543
1.3112
0.0748201
0.0473429
0.0600088
0.120964
0.873549
0.0815085
1.41753
0.0280034
0.31144
1.08823
0.0352226
3.32555
0.289483
0.0472568
0.41516
2.62192
0.0582641
1.58743
0.172356
0.142347
0.0600663
0.187029
0.0268224
0.0515539
0.309297
0.0443537
0.0328277
0.0532997
0.113444
0.188681
1.62637
0.549127
0.268914
2.45977
0.94985
0.0455141
0.0343395
2.79396
0.448198
1.30136
3.06176
0.0547051
0.49666
0.0435455
3.96623
0.030037
1.62591
0.0291902
4.46177
1.12837
0.0296019
0.662963
0.046086
0.184834
0.125929
0.128975
0.62044
0.644179
0.0393193
0.676451
0.0176454
0.0338895
0.261308
0.0655748
0.132478
1.82561
0.215376
1.13614
0.0290685
1.20219
0.0335076
0.135819
0.0564262
0.198761
2.18041
0.405997
0.189795
0.573042
0.249805
0.419783
5.38179
2.23195
0.0330927
0.427755
2.08937
0.921471
1.76712
0.239156
1.81302
2.04178
1.49825
0.498883
2.36443
0.266582
0.265075
0.0364598
0.123455
0.199818
0.0723007
10.5699
0.692922
0.0599926
0.171134
1.69214
1.64853
0.271098
0.0906694
0.303594
0.571629
0.145202
0.0490721
3.14224
0.172598
1.42799
0.520675
2.61003
0.039404
0.145116
0.115738
0.364556
0.238826
0.601072
0.0442456
0.798907
0.0982475
4.91757
0.241139
0.245099
0.191168
0.486078
0.292552
0.39181
0.333151
0.193685
0.134165
0.136961
1.92237
0.292936
0.214248
0.0285682
0.0996717
0.620656
2.03795
0.672044
0.149444
0.313926
0.252638
0.181533
0.256877
0.240084
0.297273
0.311033
0.322864
0.561494
0.0526919
2.27922
0.0338049
6.57026
0.0554079
0.0262159
0.049053
0.11133
0.05424
1.28015
0.0505607
0.231531
0.149073
0.204167
0.661016
1.99102
1.0918
0.0287386
0.0397942
0.191089
0.271095
1.66991
1.12756
0.248935
0.281682
0.0240267
2.25867
0.215157
1.04209
1.56874
0.1804
0.283152
0.652265
0.0984749
0.0370352
1.99304
2.44415
0.630876
1.0512
0.566889
0.439178
0.0313708
2.3344
6.76686
1.97258
1.22403
0.0426456
0.104097
1.09479
0.304625
0.140739
0.0368004
0.337561
1.2113
0.230222
0.0455271
0.402635
0.108349
0.0501593
0.11041
0.285582
1.99712
0.09123
0.565559
1.47104
3.38976
3.52202
0.134024
0.885107
0.197787
2.22359
0.256155
2.02437
2.60354
0.901283
1.61333
0.086664
2.44813
1.31925
5.80594
0.205122
0.0441187
0.0471111
3.79068
0.191452
0.0533703
1.53648
0.787695
0.14076
1.28892
0.823553
0.163924
2.21456
0.191169
0.0227897
0.257473
0.244799
0.0470186
0.0511343
1.26281
0.293965
1.53329
1.30154
1.7027
0.0286696
3.24963
0.237521
1.00688
0.693646
0.262406
0.189482
0.0459608
1.96209
0.0698299
0.0569633
0.0353891
3.19381
0.0311487
0.366087
1.4936
4.11596
0.0999962
1.75092
4.78043
0.138065
0.278005
0.0219346
1.18932
0.470178
2.36983
2.5188
0.133652
0.148831
0.998312
1.35477
0.625388
1.68306
1.0676
1.38174
0.96708
1.50585
0.168324
0.0431289
1.03696
0.0644387
2.49178
0.0376413
0.132403
0.0369126
0.535702
0.28629
0.137216
0.0531968
0.154956
0.223182
0.0509206
0.0532184
0.0420321
0.263654
0.274868
1.02068
0.920822
0.0911669
2.88818
1.35257
2.05555
0.436967
0.0640181
0.955955
0.0591237
0.0359505
0.0226124
0.0377287
11.0468
0.323289
1.15024
0.684388
1.80273
2.06347
0.572162
0.0189622
0.0388135
0.0469189
0.0276933
0.0894976
0.0891574
0.107684
0.0547058
0.109666
0.133223
0.101522
0.0623879
0.0501613
0.0272991
0.0286302
0.100093
0.105024
0.107204
0.0710042
0.0418039
0.0784949
0.0248437
0.0333333
0.0244026
0.226819
0.0485262
0.0431808
0.0272815
0.11094
0.0310537
0.0572216
0.0571649
0.0269771
0.0625891
0.0387919
0.0257484
0.0760303
0.0389356
0.051332
0.153002
0.0304654
0.0172531
0.0493572
0.0525959
0.389901
0.476417
5.45944
0.0417427
0.431687
1.07116
2.32581
2.35393
0.042224
0.0756248
0.388536
0.03816
0.769592
2.21177
8.8896
3.52249
2.49169
0.906735
0.0268184
0.0262797
0.155651
0.0358482
0.0718333
1.14382
0.218885
0.390977
0.100922
0.382167
1.0044
0.990218
0.0836016
1.25873
0.626956
9.79672
0.062687
0.363388
0.201905
0.337829
2.95622
0.122862
1.03013
1.85189
0.908409
1.15941
0.693936
0.617434
0.429671
0.327959
0.362151
12.0746
0.0653893
0.0941824
0.0573006
1.99285
2.4667
0.0271863
1.67226
1.97941
0.0567586
0.0815259
0.124268
0.0660475
0.0223727
0.109167
0.118266
0.0231185
0.0315318
0.129082
0.0557104
0.0530046
0.0192998
0.0530978
0.0303341
0.0456223
0.0698717
0.0309178
0.0847447
0.0262701
0.0521216
0.0186251
0.0428747
1.24337
1.40419
0.184166
0.465763
0.321575
0.362255
1.92313
0.0511258
1.43694
2.33543
0.616318
1.15459
2.53532
0.146805
0.0231752
2.53722
0.971343
0.0500151
6.9625
2.23408
2.10402
0.0410193
2.89972
0.767243
0.0581703
2.94591
0.362563
1.51937
0.213511
0.253327
0.162509
2.067
0.0518713
2.06194
3.2929
0.248008
3.03002
0.0519435
2.87656
0.0435878
0.147218
0.0506774
2.16798
0.0728182
0.0905176
0.388987
0.0602857
2.91779
0.315593
1.70425
0.372048
0.585394
0.660934
6.12381
0.0271889
0.279749
0.30515
2.54344
1.14337
0.041922
0.0355934
0.834682
0.617375
2.77826
0.308
0.0657112
0.258214
0.141901
0.615715
0.066732
1.81442
0.470876
0.0375761
0.0237708
2.94041
2.59402
0.327516
0.888664
1.93934
0.260628
2.76501
3.77
2.17756
2.75504
2.1264
0.0655866
2.00678
0.0691884
0.131259
0.0534176
1.92096
0.251575
0.21776
0.293665
2.69688
0.5575
0.0399975
0.0882058
0.123097
0.786842
2.03853
2.74987
4.43605
1.50126
0.618158
2.37118
0.266853
0.809926
0.780154
0.900759
1.70753
2.91452
1.1787
2.75072
1.04498
3.09025
1.31002
0.20637
1.22253
0.969664
0.482569
0.508854
0.458302
3.68968
0.697916
0.348743
1.49448
0.975257
1.32678
0.215602
0.350745
6.60732
0.702327
2.24913
0.962308
0.0650131
0.037354
0.0927041
1.49347
0.0443326
0.12504
0.136358
3.13982
3.27749
2.61725
2.2544
3.40585
2.82788
3.43399
0.059255
3.4449
3.3127
2.9953
2.52512
3.22125
2.41005
3.33084
3.20458
3.30269
0.562822
0.53627
0.43544
5.34461
0.400795
0.307397
0.161877
0.23127
0.0262403
0.0342339
0.938752
1.98427
0.567574
0.125559
0.152028
1.97118
1.89745
1.40087
0.649115
0.169321
0.235605
0.128604
0.148924
0.693371
0.201308
1.33285
0.116229
0.79695
0.308221
0.224872
0.11631
1.15251
0.128249
0.410473
0.284412
0.0508161
0.778743
0.213378
0.109708
0.177453
0.113381
0.0748157
1.45426
0.0823152
1.2061
0.877795
0.291732
1.22856
3.54888
0.0849527
1.5922
1.00053
0.838772
3.56139
0.0590512
0.0703015
3.42828
1.1705
1.80931
0.0922135
0.353087
2.077
3.58747
1.64784
0.0719193
0.0743725
0.0684434
1.07429
0.323567
7.28788
0.0753776
0.375145
0.290547
0.0868861
0.958864
0.0588061
0.298048
1.30812
1.44303
0.584293
7.00982
2.93805
0.0665246
3.08926
0.0910195
0.309985
0.588039
0.0644473
2.04571
0.356026
6.79776
0.523086
0.274078
0.0647267
2.21768
6.54904
0.0613397
1.28901
1.70182
0.808626
0.432142
0.253819
0.0613525
0.243159
1.99464
1.32399
1.77336
5.36506
5.15923
0.201034
0.824813
0.215396
1.23931
0.329816
0.0728727
0.104921
2.03776
0.0406727
0.120976
0.12169
1.32007
0.304056
0.922643
0.189112
0.31605
0.351833
0.165599
0.239658
0.724942
0.136383
0.121337
0.312205
0.529326
0.078061
0.285714
0.170519
0.0713262
1.37961
0.245517
0.198084
0.424131
0.381347
0.0710991
0.264559
0.121446
0.353511
0.0986682
0.220456
1.25264
1.925
0.184756
0.357511
0.125357
0.657099
0.409478
0.389442
0.168056
0.511671
0.417407
0.436905
0.0909633
0.650734
0.548496
5.45887
0.331826
0.665647
0.536476
0.42583
0.420695
0.504563
0.371264
0.240862
0.493153
0.482505
0.45947
0.502282
0.560038
0.704949
0.317591
0.167316
0.341567
0.484393
0.192502
0.225454
0.648392
0.446982
0.373256
0.307452
0.308661
0.230656
0.223198
0.552369
0.217653
0.358055
0.0982028
0.124847
0.0399167
0.20384
1.23866
0.236042
1.96471
0.437779
0.173589
0.303828
0.439832
0.321506
1.32
1.29068
0.557939
0.207253
0.502143
0.0828413
0.206851
0.0944196
0.311909
0.262513
0.27225
0.229025
5.64276
0.622985
0.149314
0.502163
0.476038
0.156712
0.123882
0.0373927
0.0783171
1.40358
0.471732
0.188861
0.277444
0.376803
0.112962
0.0360177
0.0742537
1.88675
1.15097
0.245778
1.44315
1.61938
0.386445
0.172814
0.220598
5.61364
0.332879
0.102961
0.243602
1.36915
0.339167
0.297417
0.916665
1.26209
0.412897
0.711473
0.780319
0.103839
0.0352594
0.0561755
0.651736
0.283738
0.520592
1.4006
1.51621
0.220217
5.46639
5.31849
0.128974
0.22542
0.410939
0.305652
0.856304
0.231179
0.582516
0.497044
0.515152
0.434423
0.418557
1.07155
1.20857
1.74553
0.161372
0.737828
0.399699
0.173198
0.481473
0.0523326
0.0534092
1.90494
0.710019
0.431231
1.7534
0.087281
0.255465
0.554504
1.15151
0.632197
0.58262
0.0907216
0.0369211
0.0641124
1.39776
1.91511
0.148018
1.4317
1.35077
1.27484
1.88976
0.374753
0.194844
0.0512782
0.120447
0.242924
5.3905
0.123381
0.76071
2.10601
0.206992
0.316527
3.64695
0.0364302
0.151671
0.337629
0.551169
0.526187
0.664284
1.43455
1.77175
0.809821
1.07844
1.1119
0.051072
0.459681
0.268106
0.044193
0.0527333
0.0663573
0.178493
0.148096
0.985362
0.0788955
0.0408259
0.0705591
1.96972
2.19067
0.0521979
0.0265296
3.42001
2.69718
0.7151
0.0510527
1.47531
0.337577
0.333289
0.0554647
0.266444
5.20765
0.119274
0.0759183
0.0537344
3.42872
2.07942
1.16323
0.125388
2.99564
1.88631
0.847032
0.464751
0.585252
0.424978
0.32524
0.381244
0.361314
0.396216
0.400032
2.05544
1.21558
0.116291
0.104349
0.648541
2.49989
2.62006
3.48527
2.61486
1.54004
0.385811
1.32629
0.355089
0.364902
1.4803
2.47294
3.1388
3.54983
1.12893
1.57564
0.867271
1.03009
0.619175
0.108131
0.379715
0.0766131
0.0411316
0.0704303
0.265161
0.287834
0.249174
2.21155
2.66987
0.420378
3.19517
0.572069
0.68062
0.320104
0.136991
1.18585
0.620264
1.03504
0.507902
0.119793
0.227473
2.67658
0.61986
0.315725
0.0607334
1.57616
0.278028
0.355074
0.145777
1.55107
1.63834
0.338374
0.362345
1.11741
1.3253
0.127137
0.12491
0.0301105
0.263283
0.0968054
0.136177
3.06899
0.102257
0.0406012
0.086822
1.29385
0.139746
0.223359
2.39774
0.0704071
1.78309
0.36196
0.354613
0.413995
1.6232
1.76744
1.06822
0.368751
0.418293
3.51492
2.26404
0.0436828
0.197516
0.112766
0.354689
1.0316
0.191848
0.0968325
0.318176
0.238168
0.0446935
0.125334
0.39236
0.102203
0.312633
0.484921
0.363513
0.440346
0.182981
0.546998
1.65678
0.442472
0.771833
0.599752
0.190855
0.31385
2.77329
0.376024
3.2096
0.746538
0.465648
1.00819
1.07569
3.85063
0.837595
1.47417
0.316202
2.27813
0.639657
0.667602
0.113202
0.0729738
2.18087
0.639569
0.898683
0.390777
1.19815
0.677615
0.217374
1.77964
1.24572
1.51716
1.07263
0.527095
0.499214
0.0696354
0.0432526
0.0757531
2.10789
1.58978
1.39459
0.115488
0.0566099
3.24256
0.362256
1.94229
3.35154
2.84296
3.29107
2.44221
0.0581614
0.613974
0.248696
0.418643
2.3691
2.85225
0.108615
0.840668
0.959157
0.589935
1.71974
0.108236
1.22263
2.12137
2.6838
0.522602
0.0644349
2.30743
2.11354
0.775612
0.671394
1.78477
2.88194
0.575898
0.0756768
0.474622
1.64903
1.58902
0.049338
0.919184
1.7699
0.610172
0.193382
0.690447
1.36987
3.36643
0.387128
0.191924
0.0386854
0.102338
1.53048
1.63811
2.79275
2.65778
1.79979
4.56871
0.18259
0.368238
0.657844
2.72563
0.40231
1.84898
1.03449
0.0519093
0.0895208
0.208552
0.0547846
0.0814338
3.29162
3.34212
3.13737
2.24578
5.09593
1.11207
0.697074
0.541954
3.15805
5.16693
1.90099
7.18462
0.20228
0.0533361
1.51828
3.25058
1.49535
1.24742
1.13295
0.544534
0.0601789
1.10087
0.0349677
0.0427934
1.83964
0.0889556
0.901658
0.0456088
2.50737
0.37024
1.15943
0.66435
0.896422
0.45157
1.54731
2.21523
1.39962
0.0450325
3.83666
0.369561
0.37568
0.0488084
0.122915
0.192922
1.78456
2.67574
3.75223
0.16677
2.58656
3.83621
0.126516
1.15219
0.375105
0.331237
0.088953
0.291811
3.31119
1.53301
0.374765
0.386748
3.13005
0.976599
0.444865
0.750937
0.116624
0.69644
0.223388
2.6975
0.441589
1.92612
0.0637188
0.0548084
0.364079
3.65292
1.01804
2.97417
1.74171
0.151938
0.194652
1.44567
0.461619
0.0550129
3.72141
0.144136
0.0722502
1.78883
0.315445
3.41111
0.136195
2.81904
2.37709
0.0649044
0.788824
0.400881
3.10562
2.65155
0.286085
0.79566
1.28772
2.68475
0.359642
0.295321
0.275414
0.199518
0.0485241
0.0722075
2.48402
1.244
0.635459
0.422663
2.59733
0.318455
2.62201
1.82934
0.141352
0.205184
1.64373
2.86712
0.0291914
0.0178957
0.0384283
2.62371
0.783566
2.90438
0.545645
0.426466
2.22627
3.32239
0.0534378
1.14562
3.11028
2.0426
0.885328
1.93326
0.144373
1.52016
0.946873
0.0661961
0.0449244
0.0751587
0.803352
0.0641329
0.429768
1.35753
0.0677391
2.30557
0.948791
0.574039
0.651262
2.18628
0.451693
0.869284
0.080103
1.95079
1.98748
2.11496
0.619234
0.062041
0.0421947
0.0777278
1.28591
0.452138
1.19567
1.36321
0.443512
0.921693
4.65782
1.40088
3.01812
0.117932
2.47317
0.316841
0.132148
0.987399
1.35228
0.39505
0.1689
0.145537
1.07085
1.61301
0.122819
0.0494538
2.47441
3.38595
0.566644
0.966342
0.776967
4.73053
5.66579
1.75051
0.0677689
0.711013
1.19243
2.20277
1.55287
2.69766
0.205721
1.33364
0.688077
1.45673
0.577383
1.30663
0.448111
0.857768
0.0250462
1.56231
0.477985
0.0560327
0.962607
0.318413
0.622881
2.08156
0.977127
0.0253502
0.157303
2.35231
1.77133
1.51692
0.82688
0.382668
0.162505
0.0348983
0.0702194
0.0525101
0.116563
1.40219
0.0875173
0.720738
3.19731
0.15202
0.0566617
0.430062
0.307497
2.63045
0.0473832
0.0501897
0.0706223
0.333558
0.882381
0.154878
0.226762
0.0267174
0.0541191
0.050339
0.0893294
0.426738
0.28046
0.229957
1.25122
0.561685
0.198237
1.59509
0.736787
1.23464
0.156901
0.160155
0.0260255
0.0561075
0.0642008
2.52295
0.0652367
2.78688
1.93713
0.909104
2.30213
0.0632849
0.238439
0.158679
3.59077
0.341973
0.47237
0.0574327
0.0446103
0.0760569
0.198727
0.085589
3.24784
2.09168
0.0453956
0.431125
0.042996
0.378008
0.28125
0.541234
0.0406956
2.45372
1.50196
2.49414
2.81409
0.148783
0.168267
0.462682
3.71245
0.421866
2.17773
0.70972
1.58591
0.0781769
0.247207
0.0533937
0.541577
0.529499
0.695411
0.746504
0.106073
0.0626737
0.483559
0.212588
0.170723
1.67172
3.33385
2.76972
0.650457
2.60783
0.476077
1.88719
0.478065
2.29606
0.368937
1.18966
0.0743361
1.73834
3.07992
3.6122
0.410442
0.068696
0.167607
0.160549
0.0223676
0.187566
0.413644
0.223023
0.519337
2.48388
0.0464098
0.108983
2.89054
0.261562
0.619622
1.43217
2.0787
2.32304
0.359094
0.412849
0.312583
0.25683
0.332175
0.317647
0.159968
1.84353
0.069449
0.50769
0.448102
0.060595
1.23654
0.0591575
0.0776814
0.0514926
0.0238956
0.030432
0.134558
0.188996
0.22514
0.282762
0.0333771
0.0198774
0.0377438
3.05504
2.67046
0.359094
0.903192
0.359811
0.454455
0.478221
2.22635
1.5958
2.39296
6.37115
1.05079
1.8782
1.98941
3.52066
1.00371
0.0482592
0.0660999
0.0540706
0.0385552
0.0667752
0.264342
2.10732
1.72597
0.0252059
0.127188
0.175867
1.4671
0.323985
2.05366
0.0260688
0.230126
1.40048
0.318114
0.59119
0.481052
0.0945202
0.0483729
1.32701
0.490923
3.67027
0.140932
0.451812
5.7408
0.374677
1.53098
2.70805
0.0706739
0.0751865
0.42419
0.136216
0.0632926
0.223171
0.050707
0.123742
0.205549
0.135169
0.398939
0.141105
0.159656
1.93584
2.40956
0.0376068
0.0359261
0.0811502
1.62431
0.869976
0.0513549
1.75373
2.05124
0.0638119
1.1994
1.48824
1.98886
3.39817
3.39181
1.38742
0.852102
0.117746
1.04535
2.97312
1.74607
0.378239
0.108676
3.58856
0.0523459
3.13786
0.460659
0.0992624
0.352032
1.56673
2.7116
0.0512017
0.205214
1.21925
0.260814
0.361778
0.136286
0.423396
0.238624
3.72504
0.377193
1.83936
0.0511446
0.0409992
0.0724599
0.0708693
0.0277553
0.0339972
1.95698
0.0457179
1.91832
3.5859
0.365955
0.897988
5.99063
0.272571
0.203684
1.75091
1.00303
0.939968
7.00775
0.250077
3.90467
0.0561777
0.0389866
0.0752155
2.96573
0.18828
0.0487719
0.0958724
0.036643
0.0488134
1.84454
1.81827
0.664598
0.33507
0.463872
3.14648
1.13802
0.587751
0.788617
0.704124
0.36277
1.80629
2.23408
2.12998
1.51574
0.0433534
0.366455
0.10303
1.3966
0.126792
1.55944
1.33967
0.634751
0.540945
0.275606
2.0651
0.205427
0.0441095
0.066423
0.0713866
0.0872615
0.919495
0.603374
1.38732
0.216874
0.46664
2.7432
3.07125
0.421396
2.3927
0.97343
0.0966093
0.117958
0.0392815
3.26008
0.408873
1.6437
0.601423
0.0485325
0.428938
3.31265
1.80122
0.210122
0.248895
0.979637
1.8524
0.172016
0.0378664
0.0733041
0.413617
2.45067
0.229424
1.12972
1.642
1.59078
1.6745
0.299461
0.2181
2.10303
1.74112
1.40515
0.0464068
0.411876
0.00779286
2.80045
0.00820043
0.427517
2.40827
1.07887
0.529754
2.02956
0.0498315
0.280095
0.493709
0.00848477
0.478129
0.0403541
0.0102444
0.272029
0.594113
1.94403
2.35599
0.597549
0.0910912
0.0406278
0.053428
0.00961866
0.012639
0.0235914
0.0928449
0.470487
1.79744
0.474162
0.530689
0.418411
1.03238
1.75658
0.584034
0.205025
0.0327381
0.190107
3.96933
2.32591
1.1532
0.182116
0.0882291
2.18419
0.111185
0.354977
0.698692
0.813331
0.291638
3.16817
0.415876
0.45083
0.203493
3.46421
2.3647
0.0376413
1.18597
0.126803
0.185695
1.53846
0.267164
0.0206244
0.0269167
0.0647384
0.0985177
0.155338
4.16751
1.53781
0.248151
1.77819
1.06943
0.405446
2.34363
2.45291
0.316159
3.61392
0.11053
0.577362
0.032096
0.516747
1.31317
0.0162963
0.382603
2.70053
0.198086
0.612244
0.0632324
0.113554
0.591944
1.76135
1.23961
2.50261
0.404719
2.56501
0.0647551
0.467704
2.17761
0.210779
3.58537
0.444764
1.39354
0.425079
0.220274
2.06745
0.760192
2.38634
0.0456376
0.0321242
0.0613009
1.94432
0.382673
0.190717
0.0955892
0.485128
0.515052
0.0183205
0.12056
0.236495
0.928635
3.19792
0.200663
0.129657
0.350119
2.26407
0.522078
0.42128
0.114316
1.56422
0.746407
0.134004
0.797326
2.74544
0.0251796
0.795967
1.22475
2.02235
0.802755
0.854041
0.533158
0.0644703
0.0674553
0.0399038
0.0358255
0.05027
0.202764
0.306003
2.94662
1.23092
0.924677
3.26714
1.04802
1.3177
0.146118
0.311566
1.17532
0.229569
0.769069
0.19138
1.53723
3.58604
2.23633
1.95864
1.61167
0.441745
0.908113
0.613942
0.826651
0.0166922
0.0315632
2.11861
0.499227
0.125925
1.95724
2.37286
0.0654086
0.998878
0.833551
2.8673
5.16135
2.75179
0.0302261
1.56159
0.0527907
0.0542895
0.0677666
1.60521
2.49776
1.3357
0.0814733
0.35733
2.97235
0.244504
0.0210843
0.490995
2.54057
0.570737
1.67989
4.00211
1.36765
0.0953198
0.0560715
1.11102
2.0358
1.89835
2.03697
2.74836
0.196996
0.0716817
3.63507
1.9552
0.0666315
0.0311038
0.0527074
0.0388323
0.163953
0.0957543
4.81793
0.9921
0.104839
1.29346
1.79703
0.199076
2.28096
1.8066
2.49757
0.302345
0.532369
0.459579
1.63903
0.849228
0.748817
3.45328
2.95198
1.14801
2.11933
2.67845
2.43411
0.0581921
0.0920046
2.47812
2.54774
0.073889
0.0463014
0.0289564
0.0883345
0.591102
1.19438
2.02725
1.20055
0.0929156
2.41639
0.047643
0.0675417
0.0703249
0.245985
0.138258
1.66856
1.78556
2.78549
0.249839
3.18931
0.0980938
0.301038
3.62656
1.72059
1.79541
1.26255
0.383671
3.61494
1.86449
0.0589366
0.231247
0.244156
0.421293
0.192215
1.17726
0.893322
0.52249
0.60853
1.76973
1.55605
0.341045
1.27046
0.0756803
0.0601386
1.24417
0.426686
0.362674
8.63766
0.309661
1.94048
1.79264
0.0553302
0.0584542
0.0633842
0.0424302
2.16447
1.77392
1.78221
0.151843
0.957199
0.22959
0.202699
0.645888
1.93998
0.220047
0.279955
0.20954
0.0450547
0.0788584
0.0280443
0.0662771
2.05079
1.82741
0.169604
0.713797
8.9837
2.80513
2.90182
1.26068
0.0691424
0.967717
0.267689
0.412779
1.32694
3.12862
0.0653477
0.0667075
0.0280039
2.68847
1.36835
2.02765
0.14692
0.239144
1.25633
0.452166
0.0256719
0.103922
0.0700455
0.141485
0.280725
2.16718
1.73911
0.234315
2.27458
1.0613
1.6667
2.07065
0.382511
2.0965
0.334109
0.853153
1.7291
2.10487
1.50705
0.0477611
0.0604556
1.48312
0.207285
0.0873688
0.14758
1.2498
0.537592
0.527264
0.0357102
0.518338
0.0359545
0.528194
0.503123
0.508779
0.509213
1.43621
2.6782
0.804845
0.147874
2.55226
0.550909
0.0985616
0.160804
0.0744299
0.391221
0.178097
0.385129
2.49776
0.0652995
0.192126
1.26842
0.189955
2.12569
0.0379343
0.102386
3.95551
5.25922
0.0443728
0.0664298
0.0529109
0.111111
0.161893
0.0426247
0.0765741
0.0708418
0.0897091
0.0500435
0.044871
1.27655
0.133407
0.0636346
0.574313
1.66236
0.156439
0.617459
0.039907
0.158902
2.33953
1.89193
0.82082
0.0256128
2.34726
2.23539
2.18175
1.99366
0.420962
0.0249109
0.0585016
0.0773604
1.08436
2.87608
1.26508
0.194336
0.664882
0.261986
0.0537061
0.189934
0.516448
2.85461
0.392263
2.3568
0.0238147
0.263787
2.64665
1.02102
0.159016
0.505871
0.0491015
1.53815
1.31861
1.0086
0.0525738
0.201808
0.0469615
0.0472379
0.235613
0.321608
0.30464
2.41597
1.56997
1.8144
1.41235
0.977729
0.177875
0.461538
0.0771607
2.07815
0.892569
0.74013
0.295395
3.19039
0.302693
1.17379
1.6633
0.059815
0.0887138
0.428327
3.6669
2.92101
1.16314
2.90697
2.03795
2.83262
0.312335
0.452423
0.0286153
0.237184
0.556702
9.33766
3.16983
0.37059
2.5179
1.02233
0.192682
0.240317
0.542801
0.216336
0.0331115
0.0521916
1.98559
1.47069
0.886189
1.65957
1.24594
0.137322