/*--------------------------------*- C++ -*----------------------------------*\
| =========                 |                                                 |
| \\      /  F ield         | OpenFOAM: The Open Source CFD Toolbox           |
|  \\    /   O peration     | Version:  v1912                                 |
|   \\  /    A nd           | Website:  www.openfoam.com                      |
|    \\/     M anipulation  |                                                 |
\*---------------------------------------------------------------------------*/
FoamFile
{
    version     2.0;
    format      ascii;
    class       volScalarField;
    location    "0.25";
    object      nut;
}
// * * * * * * * * * * * * * * * * * * * * * * * * * * * * * * * * * * * * * //

dimensions      [0 2 -1 0 0 0 0];


internalField   nonuniform List<scalar> 
5794
(
0.00293128
0.000592936
0.00264023
0.000645938
0.0034772
0.000685817
0.00173169
0.00198987
0.00345982
0.0018852
0.00212483
0.000795636
0.00140356
0.0015131
0.00178029
0.000699067
0.0045116
0.00190261
0.00108345
0.00063526
0.00160982
0.00141432
0.00144732
0.000867981
0.001775
0.003939
0.00444401
0.00145961
0.00290919
0.000900161
0.000752806
0.00151593
0.00153673
0.00105896
0.00366921
0.00422249
0.000786192
0.000707649
0.00111974
0.0029158
0.00155546
0.00323977
0.000744754
0.0015786
0.00193363
0.0021326
0.00127371
0.00136694
0.00108064
0.00104374
0.000344676
0.00307379
0.00139548
0.00184756
0.000108251
0.00187046
0.00168026
0.00167589
0.00071754
0.00504498
0.00130333
0.000628956
0.00121325
0.00369524
0.00280129
0.000688961
0.00302777
0.000521176
0.0015637
0.000891504
0.00533471
0.00292374
0.00479812
0.00289653
0.00165861
0.00142822
0.000190355
0.00350842
0.00183897
0.000118789
0.00103081
0.000838982
0.00108595
0.00124109
0.000778883
0.000723602
0.000525084
0.000841591
0.00192966
0.00188619
0.00355855
0.00139181
0.00212774
0.00289227
0.00286933
0.00724072
0.00275819
0.00202121
0.00121858
0.00139489
0.00146973
0.000864203
0.000744755
0.00145742
0.00136032
0.00322066
0.000635269
0.002081
0.00467235
0.00206085
0.000752498
0.00181605
0.00146197
0.00087209
0.0022998
0.0022441
0.00105291
0.00109762
0.00121802
0.00101003
0.00271854
0.000541677
0.000550706
0.00145468
0.0031032
0.00349707
0.00111416
0.000713488
0.00354266
0.00414622
0.000910856
0.00137164
0.00108139
0.00331706
0.00404773
0.00222281
0.0027522
0.000659824
0.000689103
0.00078483
0.00185825
0.00274732
0.00349945
0.0026692
0.00096426
0.00640303
0.000538323
0.00133063
0.00242888
0.00284603
0.000728618
0.00248253
0.00378533
0.000434377
0.00544769
0.000845226
0.000812426
0.000929725
0.00210482
0.000652134
0.00109125
0.00147955
0.000516932
0.00189536
0.00204692
0.00202285
0.0015602
0.000741209
0.000508151
0.000876714
0.000579449
0.00197523
0.000998725
0.00133644
0.000478833
0.00103781
0.000568868
0.00166099
0.000547166
0.0022855
0.000544151
0.00102132
0.00050139
0.00101152
0.00087602
0.00256074
0.000791274
0.000867063
0.000982667
0.000569529
0.00167151
0.00115249
0.0012416
0.000755519
0.000826341
0.000560789
0.00162772
0.000406254
0.0010184
0.00101622
0.00120094
0.00241038
0.00139955
0.000977438
0.000959622
0.00201869
0.000410633
0.00340655
0.00207778
0.00306413
0.00244184
0.000860537
0.00475961
0.00186258
0.00105761
0.00239197
0.00238135
0.00096906
0.0040939
0.00320668
0.000859017
0.00165271
0.00439822
0.00248173
0.00218765
0.00238775
0.000403393
0.0036281
0.00107419
0.00160292
0.00270557
0.00321256
0.00076226
0.00413783
0.00104475
0.00308233
0.00280429
0.00185911
0.000523101
0.00193549
0.00103434
0.00505788
0.0034174
0.000600658
0.000797283
0.000755661
0.00246287
0.00168616
0.00097427
0.000774633
0.000499192
0.000570516
0.00542161
0.000679163
0.000795444
0.00366229
0.000899492
0.000840706
0.00218093
0.00230522
0.00225536
0.00478466
0.00165836
0.000498861
0.00101116
0.00102783
0.00188335
0.00354246
0.00125756
0.00249469
0.00139674
0.00142864
0.00190654
0.004737
0.000870884
0.00117122
0.0017899
0.00151092
0.00133099
0.000719296
0.000539606
0.00216969
0.00182555
0.00288534
0.00257825
0.00373837
0.00157996
0.0023222
0.00271948
0.00403115
0.00381646
0.00333558
0.00116903
0.00309748
0.000761626
0.00306301
0.00236287
0.00146607
0.00219171
0.000616026
0.000515248
0.00101169
0.000786957
0.00474521
0.0017405
0.00299383
0.00117739
0.00133979
0.00230673
0.00104509
0.00115806
0.00190497
0.0035657
0.000847581
0.000782891
0.000899962
0.00291682
0.00152102
0.00399857
0.0036344
0.00384772
0.00374535
0.000793542
0.00262932
0.000663168
0.000915535
0.00366385
0.000706661
0.00101602
0.00191075
0.00213679
0.000829132
0.00054785
0.00116629
0.000994986
0.00121227
0.00102612
0.000434604
0.000773812
0.000676335
0.000544674
0.0013083
0.00284221
0.000829091
0.000663789
0.000455445
0.00111381
0.00110826
0.00236827
0.000626084
0.00151557
0.00166812
0.00100815
0.00100115
0.000565742
0.00170646
0.000811174
0.00208859
0.00149082
0.0018836
0.00325033
0.00113292
0.00272751
0.00288511
0.00269303
0.00131529
0.00185516
0.00156145
0.000843087
0.00129816
0.00240704
0.000351507
0.00183987
0.00154762
0.00496839
0.0028415
0.00145161
0.00120676
0.00179215
0.0005533
0.00201204
0.00233146
0.000750042
0.00442729
0.00278863
0.000977693
0.00348154
0.00571314
0.00281133
0.00157059
0.000908737
0.00148935
0.000776255
0.000684789
0.00099421
0.00142416
0.000484661
0.00191305
0.0015146
0.0019542
0.000756646
0.00211446
0.00365643
0.000456663
0.00117525
0.00238784
0.00156197
0.00100945
0.000709652
0.00265931
0.00243511
0.00116502
0.00458675
0.00122536
0.00174349
0.000776299
0.00101483
0.00142701
0.00199687
0.00243325
0.00113964
0.00196677
0.00414385
0.00239641
0.00145166
0.00155589
0.000556638
0.000889051
0.000626304
0.00168348
0.00399998
0.000784468
0.00204614
0.00211609
0.00163281
0.00103206
0.000491834
0.000919551
0.00274727
0.00186317
0.000849651
0.000805401
0.00110953
0.000672765
0.00162815
0.00249573
0.00255206
0.000605663
0.000975746
0.00389719
0.00113651
0.000646065
0.00218225
0.00177806
0.00295606
0.000406938
0.0028805
0.0075314
0.00274374
0.00347792
0.00183157
0.000693325
0.000969321
0.000820507
0.00149274
0.00412915
0.00312761
0.00374701
0.00545369
0.00266934
0.000143791
0.00252071
0.00452097
0.00222339
0.00209783
0.00238013
0.00461706
0.00161865
0.00307918
0.000694847
0.000895491
0.0018845
0.00179734
0.00173881
0.00336711
0.00387266
0.000864348
0.00156225
0.00192032
0.00151828
0.000736948
0.000774817
0.000733714
0.00180104
0.00171314
0.000968127
0.00105243
0.00225675
0.000389048
0.00216291
0.00319528
0.00402743
0.000729887
0.000899976
0.0018224
0.000616622
0.00143687
0.00102492
0.00499557
0.000662401
0.00712431
0.00105313
0.00198018
0.000480792
0.00080834
0.00180756
0.00219044
0.000489488
0.00080513
0.00366682
0.0013573
0.000689411
0.00367781
0.00397441
0.0043005
0.000859747
0.00352298
0.00160567
0.000619314
0.00136141
0.00119683
0.000241512
0.00303888
0.00205971
0.00172284
0.00291049
0.000785457
0.00276844
0.00385152
0.0018606
0.00146979
0.00243904
0.000577724
0.00140315
0.00347459
0.000776475
0.000753645
0.00281731
0.000782153
0.000876127
0.00139992
0.000833103
0.000652973
0.00323014
0.000792471
0.00329921
0.00108904
0.00119155
0.000607714
0.00185063
0.00720354
0.000629801
0.00312481
0.00288854
0.00127626
0.00247287
0.000912098
0.00334443
0.000538531
0.000595257
0.00159904
0.00337197
0.00107183
0.0012655
0.00132209
0.000863207
0.0038063
0.00228059
0.00178388
0.00194696
0.00293158
0.00166091
0.00512115
0.00266874
0.00351746
0.00128427
0.000883358
0.00262966
0.00136391
0.00313125
0.000643017
0.000763628
0.000720213
0.00318058
0.00185002
0.00232502
0.000404923
0.000831134
0.000526631
0.00213574
0.00109569
0.00172057
0.00224493
0.00310682
0.000539675
0.00249024
0.00354019
0.0010018
0.000135495
0.00194864
0.00356592
0.00415346
0.00167748
0.00168859
0.000941092
0.000894125
0.0019787
0.0011136
0.000863907
0.000397853
0.000384608
0.00325016
0.0039791
0.00305501
0.000532806
0.000825135
0.00198588
0.00384797
0.00448061
0.000875105
0.0024198
0.00082812
0.000345162
0.00138479
0.000728773
0.00185943
0.00403683
0.000809059
0.00107804
0.00153369
0.00234478
0.000806499
0.00458481
0.00143838
0.00263056
0.00331706
0.0019026
0.0010174
0.00132906
0.000753892
0.000472367
0.00361884
0.00201504
0.000646733
0.000751049
0.00288548
0.00401932
0.000537686
0.00137704
0.00258905
0.000875521
0.00158883
0.00190468
0.000911773
0.00068428
0.002306
0.00292651
0.003786
0.00165849
0.00179031
0.00184187
0.00200542
0.0035273
0.00118268
0.00122092
0.00251717
0.00309582
0.0035475
0.00186453
0.00269416
0.000862231
0.00321741
0.00233563
0.000812784
0.00150703
0.00259659
0.00342009
0.00211108
0.00157275
0.000561933
0.00132943
0.00419553
0.00394579
0.0028188
0.00317229
0.00153023
0.00398833
0.00040867
0.000625401
0.000769664
0.0007486
0.000475525
0.000245532
0.000887438
0.00239588
0.00292954
0.000943859
0.00182706
0.0018124
0.00515314
0.0010205
0.00369285
0.00265163
0.00297008
0.00455778
0.000775166
0.000734025
0.00485315
0.00294977
0.00296468
0.00494782
0.00412376
0.00287027
0.00164864
0.00337727
0.00207711
0.000773045
0.000818405
0.00558238
0.000949574
0.0028526
0.00275841
0.00338891
0.00216414
0.0031789
0.00186542
0.00276875
0.00406487
0.00133802
0.00211557
0.00324143
0.000364665
0.000477434
0.000529875
0.000628494
0.00351945
0.0015741
0.00314296
0.00176863
0.000802871
0.000587337
0.00348592
0.00199124
0.000438334
0.00219806
0.00291059
0.000754324
0.00312301
0.00290001
0.000708648
0.00285028
0.00386206
0.00298707
0.00233005
0.00312327
0.00387511
0.00187652
0.00210709
0.00238997
0.0024721
0.00131368
0.00296383
0.00373879
0.00181308
0.00233894
0.000903783
0.000904303
0.00326567
0.0020601
0.000994547
0.00540012
0.004355
0.00113535
0.00156764
0.000666914
0.00309303
0.00172518
0.0042991
0.00315898
0.00174204
0.000684749
0.00357445
0.00222229
0.00407602
0.00070788
0.00186318
0.00067134
0.00301444
0.00172315
0.0037417
0.000866655
0.00318208
0.00204197
0.000759634
0.000656463
0.0030354
0.00569776
0.00393947
0.0028972
0.00441297
0.00266522
0.00158335
0.00357527
0.00102193
0.00642707
0.000809295
0.00128154
0.00183749
0.00529056
0.000658563
0.00106007
0.00118826
0.00125697
0.00388291
0.000828847
0.000768372
0.00268326
0.00224362
0.00285422
0.00140467
0.00283077
0.00304879
0.000771468
0.00196971
0.000832662
0.00226679
0.00314009
0.00552831
0.000677489
0.000350527
0.000499848
0.000765096
0.00455929
0.00113276
0.000877708
0.000723961
0.00182506
0.000719459
0.000839237
0.00427084
0.00231918
0.003179
0.00190883
0.00168794
0.00339065
0.00288638
0.00359546
0.00438576
0.000795452
0.000842742
0.000746553
0.001553
0.00319684
0.00168237
0.00345584
0.00258483
0.00477454
0.00392736
0.0016525
0.00208015
0.000886406
0.000773001
0.00286499
0.00104542
0.00442197
0.00244507
0.00220733
0.00326005
0.000785972
0.000751984
0.000362136
0.00128803
0.00377028
0.000883356
0.000710051
0.00214234
0.00117292
0.00380728
0.0021586
0.000799257
0.00265739
0.00360939
0.00242993
0.00311633
0.00517461
0.0036801
0.00323459
0.00135595
0.000847525
0.00368431
0.000659227
0.000909212
0.000720333
0.0012305
0.00204112
0.000556837
0.000790119
0.000648365
0.00244599
0.00455731
0.00138595
0.000850154
0.0024377
0.00588255
0.00454564
0.00165893
0.00194539
0.000784895
0.000589734
0.00438787
0.00104034
0.00304696
0.000839352
0.00119534
0.000796182
0.00150749
0.00043888
0.00143289
0.00100326
0.000787822
0.000674996
0.000675241
0.000463919
0.000316293
0.000665237
0.00188969
0.00106141
0.00224934
0.00111433
0.00198165
0.00260628
0.000734973
0.000689669
0.00104846
0.002141
0.000644084
0.00312146
0.00578524
0.00217042
0.000785741
0.000764426
0.0018769
0.000672859
0.00193325
0.00399548
0.0022127
0.000834193
0.00168405
0.00088067
0.00213989
0.00312456
0.00400585
0.000775229
0.000594089
0.000336597
0.000644095
0.000624908
0.00153072
0.000765069
0.000618981
0.000748791
0.000961446
0.000789335
0.0020608
0.000783013
0.00158814
0.000661162
0.00152167
0.00083161
0.00273684
0.000961129
0.00152892
0.000577145
0.00099328
0.000755157
0.00387195
0.000799039
0.00230136
0.00487317
0.000920093
0.000833693
0.00200179
0.000778042
0.000830241
0.00226981
0.000776597
0.00404604
0.00244708
0.000678195
0.000825668
0.000877712
0.00201805
0.000913683
0.00221527
0.0028322
0.00292422
0.000803032
0.00353362
0.000621537
0.000882312
0.000816155
0.00118404
0.00160033
0.00122473
0.00137069
0.00023336
0.00207081
0.00124455
0.000871307
0.000864045
0.00143899
0.000624374
0.00189924
0.000665078
0.00114661
0.000746816
0.00203643
0.000795868
0.0016871
0.00079
0.000783574
0.000736687
0.000999376
0.000815699
0.0030568
0.00304437
0.00151825
0.00388262
0.000793191
0.000826719
0.00275195
0.000638464
0.00229026
0.00142898
0.00226609
0.00323277
0.000696662
0.00434586
0.000575881
0.000841688
0.00403634
0.000998686
0.00387992
0.000716672
0.000835785
0.00357448
0.0030278
0.000667376
0.00526801
0.00178943
0.00133238
0.000672203
0.00146478
0.000710307
0.00067475
0.00083033
0.000932432
0.000770847
0.000731132
0.0021665
0.00239051
0.00225704
0.000937434
0.000723475
0.00322234
0.00194545
0.00080265
0.000747268
0.00303981
0.0035496
0.0015468
0.0020391
0.000790573
0.00138359
0.000245992
0.00305477
0.00181099
0.0042594
0.00218159
0.00348012
0.00387556
0.000267647
0.0010992
0.000601379
0.000268343
0.0021769
0.000676548
0.00113499
0.00110862
0.000252989
0.00108735
0.000247726
0.000269525
0.00124352
0.000637813
0.00150957
0.00175826
0.00198697
0.00654528
0.000780711
0.00124081
0.00128929
0.00128858
0.00070271
0.000789742
0.00204925
0.000800034
0.0018791
0.0010354
0.000745242
0.00113964
0.00408434
0.00160482
0.000579992
0.00289813
0.00239441
0.00105966
0.00227528
0.000742624
0.00735126
0.00265171
0.00291484
0.000887878
0.00796537
0.00072748
0.00072782
0.00238484
0.00111807
0.00143779
0.000708484
0.0097628
0.00107665
0.000625775
0.00217517
0.00470615
0.00485183
0.000766581
0.000720025
0.0034536
0.00142214
0.00365936
0.000723716
0.00334155
0.00345627
0.00156951
0.00238644
0.00271713
0.00114363
0.000735288
0.00227547
0.00234931
0.00355897
0.00103199
0.000656381
0.00127618
0.00189233
0.00388139
0.000841876
0.000528075
0.000755412
0.000880083
0.000832334
0.000776264
0.000871141
0.000752779
0.00159943
0.00277554
0.00214206
0.000727212
0.000740194
0.000855886
0.00130764
0.00167224
0.00119489
0.00158695
0.00176763
0.00142902
0.000776473
0.00225734
0.00076068
0.00070927
0.000565578
0.000742787
0.000843843
0.00094262
0.000674223
0.00164041
0.000562544
0.00771132
0.000579498
0.000795624
0.00102637
0.00129348
0.000764103
0.00193494
0.00260518
0.000726932
0.000520662
0.00290355
0.000865358
0.00134977
0.00104488
0.00188978
0.000849221
0.00126814
0.0014695
0.00438811
0.00560809
0.00231326
0.000828462
0.000259264
0.00184729
0.0014336
0.00445235
0.00373719
0.000337419
0.000826952
0.00110656
0.00225128
0.000265381
0.00143807
0.00269307
0.00111679
0.00373614
0.00321886
0.00131648
0.000625529
0.00153179
0.00367392
0.00119154
0.00112588
0.000722096
0.000815412
0.00251763
0.00083596
0.000755901
0.000577171
0.000783542
0.00386776
0.00106556
0.000275317
0.00175508
0.000950335
0.000500092
0.00101793
0.00238283
0.00140785
0.000730276
0.00178237
0.00103038
0.0043589
0.00301526
0.00245876
0.00207205
0.000794758
0.000896213
0.00148938
0.0019391
0.00351467
0.00156054
0.00255027
0.00202804
0.00386804
0.00465217
0.00417784
0.00231538
0.00183983
0.00119425
0.00302054
0.000838999
0.00178094
0.00122959
0.00145088
0.00232081
0.00243467
0.000882771
0.00187535
0.00179495
0.000855494
0.000478538
0.000806493
0.00193459
0.00029347
0.00201261
0.00161827
0.000830876
0.00423436
0.00347369
0.00119427
0.000747365
0.00579538
0.00141594
0.00279938
0.00359436
0.001551
0.00085541
0.000851849
0.00197643
0.000885412
0.00158524
0.000739528
0.00251765
0.00083614
0.000818968
0.0010194
0.00296021
0.00208231
0.00118676
0.00346959
0.00334334
0.00078602
0.00017352
0.00127716
0.00367333
0.00315855
0.000837845
0.00118194
0.000799202
0.00334929
0.00315296
0.000764941
0.00129393
0.00129811
0.00109059
0.000950529
0.00287934
0.000796279
0.00143511
0.00551603
0.00165362
0.00367614
0.00103449
0.00067458
0.00138182
0.001499
0.000515702
0.00115236
0.00177258
0.00119625
0.00138282
0.000648447
0.0024253
0.000784147
0.00082241
0.00160701
0.00278847
0.00560011
0.000735126
0.00217636
0.00518277
0.00176666
0.000935195
0.00198704
0.00249421
0.000886432
0.00033504
0.000263113
0.000625598
0.0080817
0.00082623
0.00257501
0.00132289
0.00248423
0.00375374
0.00157978
0.000747895
0.000237614
0.000296237
0.000267347
0.000202558
0.000819905
0.000583837
0.000279142
0.000835592
0.000224282
0.000343852
0.000598673
0.000756013
0.00023318
0.000320513
0.000211689
0.000705198
0.000686998
0.000384978
0.000674037
0.000614891
0.000236148
0.000326063
0.000131666
0.000414465
0.000592544
0.000681722
0.000473626
0.000262535
0.000445908
0.000985829
0.000585213
0.000381141
0.000224334
0.00026537
0.000306543
0.000224151
0.000696604
0.000367599
0.000214089
0.000564537
0.000232895
0.000572544
0.000790613
0.00126435
0.00149796
0.00314885
0.000439205
0.00199945
0.00188163
0.00296332
0.00202606
0.00158454
0.000734052
0.000860996
0.00196092
0.00316424
0.00087965
0.00742598
0.00309205
0.00343811
0.00392506
0.00079564
0.00079384
0.000712692
0.00175617
0.000544333
0.00144639
0.000904318
0.00240645
0.00209319
0.00173816
0.00474004
0.00221404
0.00201233
0.00373965
0.0031267
0.00836934
0.00221274
0.0034267
0.00252133
0.000747319
0.00147954
0.00308017
0.00206639
0.00122683
0.00227683
0.000836183
0.00362264
0.00125249
0.000754013
0.000841945
0.000848845
0.0100494
0.00179958
0.000693823
0.000408168
0.00191256
0.00241226
0.000499064
0.00362112
0.00189517
0.00039023
0.00020429
0.000637872
0.000680876
0.000343244
0.000771035
0.000218021
0.000361983
0.00060715
0.000214054
0.00100157
0.00057423
0.00019675
0.000813789
0.000603117
0.000701208
0.000610772
0.000319258
0.000278848
0.000202172
0.000224333
0.000802143
0.000276654
0.00254004
0.0043048
0.000302529
0.000845904
0.00132181
0.000848691
0.0012547
0.000604099
0.00275245
0.00199516
0.0024867
0.00275886
0.00175937
0.00210741
0.000178335
0.00162966
0.00189311
0.00231162
0.00446461
0.00294713
0.00190213
0.000569795
0.00190084
0.0013375
0.00134368
0.00196105
0.00090511
0.0030936
0.0017405
0.00224121
0.000796631
0.00155394
0.00114252
0.00169268
0.00258042
0.00107742
0.00415452
0.000347191
0.00598712
0.000976528
0.000782247
0.000772317
0.000838532
0.000674289
0.000910974
0.00266433
0.00132178
0.00398998
0.000834636
0.000557029
0.00062666
0.00168888
0.00184548
0.00434906
0.000210292
0.000772093
0.00100221
0.00101463
0.00265689
0.000632886
0.000599779
0.00406406
0.00329692
0.00187437
0.000832669
0.00149355
0.00046012
0.00119752
0.00308625
0.000577974
0.00165182
0.000345563
0.000143729
0.00057956
0.00534759
0.00337687
0.000799695
0.00199954
0.00259148
0.000728346
0.00184896
0.00296105
0.00128117
0.00183203
0.00198939
0.00127745
0.00307318
0.000738969
0.0025327
0.00151458
0.0018852
0.000713168
0.000790844
0.0011813
0.00223413
0.000313837
0.000753575
0.000823234
0.00185802
0.00399707
0.00131294
0.00182569
0.00462959
0.00247612
0.000830279
0.00175159
0.000689595
0.00200989
0.00190928
0.00113637
0.00206834
0.00228359
0.00196631
0.00183205
0.00235875
0.00447526
0.00142419
0.00320968
0.00291409
0.00200902
0.000945252
0.00139123
0.00134083
0.00382143
0.00114521
0.00154867
0.0024082
0.00340487
0.00141675
0.00365893
0.00479858
0.00421686
0.00331097
0.00267247
0.00129258
0.000641333
0.000639401
0.00186161
0.00206495
0.000762849
0.000791065
0.00236997
0.00265045
0.00336195
0.00325375
0.00320892
0.00270076
0.00338256
0.00367226
0.00108572
0.0021834
0.00163772
0.00354038
0.00345845
0.00209677
0.00331243
0.00106569
0.00139171
0.00113014
0.00132458
0.00139015
0.00110021
0.00370213
0.00148355
0.000962024
0.000950018
0.00162822
0.00017163
0.000473356
0.00340625
0.00386533
0.00297887
0.00161029
0.0018082
0.00302383
0.00380552
0.00366352
0.00179942
0.000941663
0.00145087
0.00102694
0.00185773
0.00137792
0.00120372
0.00145057
0.00196604
0.00323062
0.00210627
0.00124618
0.000847794
0.00356442
0.00120962
0.000813875
0.0020027
0.000243131
0.00311169
0.00131129
0.000877689
0.0013082
0.000919877
0.00115222
0.00232898
0.00159493
0.000994096
0.00186386
0.000683221
0.00242241
0.0095498
0.00115988
0.00233089
0.00199567
0.00139358
0.00826721
0.000870738
0.00238684
0.00731027
0.00266242
0.00252482
0.00120856
0.000847307
0.00273351
0.00851119
0.00271005
0.00208819
0.00198757
0.00262699
0.00287736
0.0011963
0.00539071
0.00144974
0.000677559
0.00323606
0.00131699
0.00231706
0.000720458
0.000887667
0.00229326
0.00334912
0.00358092
0.00505386
0.0073612
0.00249687
0.00859185
0.00101654
0.0031844
0.00318307
0.000799409
0.002542
0.00137296
0.0047785
0.00389122
0.00308174
0.000877646
0.00628368
0.00453226
0.00327414
0.00146698
0.00545973
0.00216137
0.00364605
0.00337889
0.00348129
0.00162155
0.00426822
0.00412574
0.00411694
0.00367941
0.00368592
0.00102499
0.00278346
0.000605717
0.00162003
0.00350721
0.00107841
0.00067265
0.00152746
0.000875
0.00229019
0.000719281
0.00575817
0.000641162
0.00268008
0.00178421
0.00143946
0.00340442
0.00200081
0.00205166
0.000606967
0.00143987
0.000930201
0.00172692
0.00285457
0.0011664
0.00362016
0.00319186
0.00310181
0.000447543
0.00366799
0.0036939
0.00228244
0.00217453
0.00066942
0.00100584
0.000745678
0.00241485
0.000594495
0.00174469
0.00461458
0.00442999
0.00226828
0.00134855
0.000897261
0.00255652
0.00200013
0.00242338
0.00150836
0.00288773
0.00206114
0.0025319
0.000990118
0.00338763
0.0010263
0.00371602
0.00220326
0.000885773
0.00320713
0.00149338
0.00342373
0.00170299
0.000924042
0.00187381
0.00266078
0.00196508
0.00267501
0.00296919
0.0029977
0.00103094
0.000353655
0.00190238
0.00220331
0.00268771
0.0019611
0.00188713
0.000990293
0.00172422
0.00175744
0.00183911
0.00206502
0.00222468
0.000742633
0.00121554
0.000803385
0.00196997
0.000712487
0.00230534
0.00079769
0.000226367
0.00434808
0.0016749
0.00410195
0.00144529
0.000839351
0.00219736
0.00218564
0.0020831
0.00662422
0.0042905
0.00546254
0.00334314
0.00165506
0.000406046
0.00256892
0.00139726
0.00276973
0.000285824
0.00130204
0.000261988
0.00377636
0.00117926
0.00171325
0.002155
0.00242703
0.00257347
0.00230028
0.000803676
0.00070161
0.00617281
0.0055938
0.00339339
0.00227923
0.00169076
0.00229968
0.000740811
0.000770428
0.00335916
0.00397642
0.00156655
0.00616767
0.00319259
0.00507558
0.00352915
0.00101023
0.00375919
0.000830621
0.00138761
0.00280921
0.00373725
0.000934749
0.00318728
0.000946528
0.00280344
0.000943409
0.00158126
0.001512
0.00182716
0.000752909
0.000675542
0.000660534
0.000941143
0.00113776
0.00659286
0.00297585
0.000590168
0.00366626
0.00375939
0.00302626
0.000727106
0.00174559
0.00118725
0.00336669
0.00239154
0.00239805
0.00376967
0.00116491
0.000965343
0.00157449
0.000787894
0.00477887
0.00290424
0.00111993
0.00119228
0.00582889
0.00346274
0.00108452
0.0019795
0.00221677
0.00331231
0.00338664
0.00350554
0.00320789
0.00149906
0.00311521
0.00347128
0.00323644
0.00148549
0.00179933
0.00176786
0.000651675
0.000720787
0.00496553
0.00264595
0.000949653
0.00654872
0.00433908
0.00456088
0.00544403
0.00515335
0.00335401
0.000632159
0.00200452
0.000592307
0.00371236
0.00277937
0.00120755
0.0041199
0.000799516
0.000795964
0.00725299
0.000664893
0.00212652
0.00248602
0.00219098
0.00267383
0.00168453
0.00101224
0.00523578
0.00340491
0.00115553
0.00204165
0.00235139
0.00256255
0.00170516
0.000875254
0.000781576
0.000440274
0.000745708
0.000753391
0.0017178
0.00179283
0.000505648
0.00071198
0.000657879
0.00114419
0.00239254
0.000549861
0.00656643
0.00638577
0.00195215
0.00107818
0.00555103
0.00449496
0.00370608
0.000530716
0.000638712
0.0035823
0.0025204
0.0013105
0.00188759
0.00525242
0.00289166
0.00096408
0.00369404
0.00733057
0.00217502
0.00218413
0.000933341
0.00135535
0.000419304
0.000837181
0.00224683
0.00224205
0.00242676
0.00205863
0.00346768
0.00308153
0.00294585
0.00200543
0.00293234
0.00386113
0.0039821
0.00383281
0.00363457
0.00373003
0.00217249
0.00369696
0.00207876
0.00141283
0.00133553
0.00310154
0.00374338
0.00402447
0.00239591
0.00150325
0.00280655
0.00188891
0.0017027
0.00188508
0.00236861
0.00170715
0.00051787
0.000743199
0.0019399
0.00198555
0.00193567
0.00568488
0.00267337
0.00101699
0.00171239
0.00267095
0.00164781
0.00209379
0.0015671
0.000417256
0.000547055
0.000403379
0.000400452
0.0016238
0.000740435
0.00382633
0.00278974
0.000792321
0.000790467
0.00319018
0.0021825
0.00188047
0.001586
0.00651623
0.00555227
0.00437577
0.00367481
0.00113866
0.00111994
0.00176018
0.00257752
0.000261402
0.000742486
0.00255185
0.00178037
0.00380469
0.00343524
0.000727242
0.000983363
0.00628296
0.00327765
0.00175402
0.00543528
0.0016607
0.000625209
0.00237211
0.00235827
0.00279865
0.00294864
0.00152824
0.00191974
0.00191457
0.00236946
0.00384042
0.00308455
0.00295445
0.00173936
0.00208652
0.00234034
0.00358103
0.00347923
0.000825845
0.000781453
0.000727824
0.00060357
0.00173074
0.00239738
0.00262352
0.000820729
0.00250085
0.00169159
0.00211744
0.00180117
0.00120403
0.00226231
0.00248762
0.00115764
0.000910483
0.00283923
0.00288041
0.00175985
0.00245667
0.00388563
0.00127869
0.00343204
0.00308191
0.00147697
0.00656798
0.00228135
0.00523448
0.00120602
0.000575282
0.0033604
0.00223452
0.000628484
0.000245857
0.00463905
0.00245894
0.00151199
0.00312024
0.00329745
0.0034609
0.00079585
0.00340852
0.00326449
0.00113498
0.00149262
0.00257925
0.00175019
0.00174579
0.000470877
0.000804957
0.00197744
0.000609019
0.00337361
0.00223168
0.000519203
0.00590451
0.00204939
0.00154369
0.00559741
0.00182923
0.00145868
0.00238095
0.000749859
0.00108352
0.00170071
0.00231434
0.00383048
0.00389966
0.00202338
0.00353458
0.00166195
0.00117028
0.003432
0.00207851
0.00364088
0.000955823
0.00174894
0.00294886
0.0011206
0.00194331
0.00111979
0.0035875
0.00183821
0.00400597
0.00255556
0.00106041
0.00184941
0.00264927
0.00302704
0.00348445
0.002467
0.00178034
0.00364562
0.00104405
0.000756761
0.00147706
0.00251607
0.0059001
0.00320645
0.00136926
0.00107672
0.000642042
0.00640033
0.00060491
0.00210233
0.00896587
0.00416577
0.0058304
0.00178453
0.00343641
0.00371151
0.00381247
0.0020519
0.00154667
0.00242656
0.000690138
0.000743384
0.00237993
0.000487417
0.001993
0.00382906
0.0012072
0.00379369
0.00300964
0.00376534
0.00177812
0.00270121
0.00142905
0.00537835
0.00388007
0.00214472
0.00750565
0.000745584
0.00172304
0.0021039
0.0064473
0.00107195
0.00660675
0.00386623
0.00131707
0.00215616
0.0027859
0.00178829
0.000770314
0.00237802
0.000729197
0.00183455
0.000985301
0.00138856
0.00238667
0.00363024
0.00193907
0.00163007
0.00107894
0.00372907
0.00366768
0.00489892
0.000387986
0.00624771
0.00154005
0.00225792
0.00310042
0.000750274
0.00337953
0.00359792
0.00183037
0.00380859
0.00191031
0.00352392
0.00598045
0.00272955
0.00465711
0.00215478
0.00128169
0.00104278
0.000697046
0.00294516
0.004077
0.00231685
0.00214891
0.00123866
0.00223147
0.00114426
0.00112105
0.00227976
0.0027318
0.0007978
0.00378426
0.00278557
0.00142503
0.00060255
0.00221305
0.000920006
0.00390228
0.00249804
0.00386437
0.00414093
0.00163611
0.00213126
0.0041857
0.00299628
0.000802522
0.00380216
0.00159392
0.00141866
0.000622048
0.000802229
0.00384903
0.00153135
0.00179344
0.00371413
0.000587036
0.00085222
0.000788938
0.00363932
0.00320658
0.00225559
0.00235462
0.00265934
0.00178619
0.000848183
0.000792773
0.000781551
0.0015846
0.000602907
0.000849874
0.00233401
0.00344743
0.00120302
0.00302607
0.00357936
0.000982289
0.00379746
0.00358638
0.00387149
0.000744458
0.00097539
0.0037928
0.000480756
0.000348521
0.000365377
0.00230465
0.00172274
0.00240513
0.00310536
0.00265763
0.00623043
0.00393488
0.00238921
0.00283834
0.00322898
0.00302346
0.00160375
0.00290368
0.000896192
0.00314951
0.00124571
0.00165979
0.000504129
0.000810589
0.00117372
0.00210113
0.00261697
0.00279231
0.00184678
0.00208824
0.00240909
0.00219946
0.00170932
0.000296921
0.00217946
0.00330134
0.00155647
0.00317573
0.00419921
0.00201856
0.00102171
0.00168584
0.000499963
0.000926265
0.00355172
0.00125631
0.00146663
0.00267233
0.00107746
0.00200288
0.00464401
0.00255456
0.00185567
0.000904055
0.0054274
0.000580808
0.00168123
0.00228768
0.00660934
0.00206523
0.00163516
0.0010209
0.0046485
0.00297727
0.000814357
0.000806027
0.00232494
0.00383058
0.00326139
0.00319304
0.00156607
0.00396452
0.00380089
0.000705037
0.00205496
0.00260329
0.00254652
0.00331234
0.00160626
0.00183468
0.000748385
0.0037714
0.00173603
0.00210398
0.00117668
0.000779086
0.00297778
0.00109276
0.000659214
0.00257941
0.00166731
0.0020338
0.00157677
0.000750458
0.0029152
0.00124903
0.002646
0.000751669
0.00205605
0.00211329
0.00111257
0.00385504
0.00215743
0.00153411
0.00331449
0.000728611
0.000928957
0.00151313
0.00392283
0.00174081
0.00071166
0.00170062
0.00267195
0.000855064
0.00149884
0.00328962
0.00092997
0.00369345
0.00194995
0.000644332
0.000893135
0.00215688
0.00203072
0.00112348
0.00156679
0.00065131
0.00230591
0.000959167
0.000719558
0.00176261
0.00181083
0.000804339
0.00647669
0.00124742
0.00229866
0.00221019
0.00228738
0.0017459
0.00354697
0.000843533
0.000336231
0.000855901
0.00181688
0.00161429
0.00204494
0.00156998
0.00179444
0.00165328
0.00154139
0.00161635
0.000805184
0.00231526
0.00200129
0.00164939
0.00223003
0.00163386
0.000537785
0.000914845
0.000738096
0.000707397
0.00395737
0.00175888
0.00222252
0.00232583
0.000357073
0.00212807
0.000723305
0.00121129
0.00285615
0.00607183
0.00356157
0.00141093
0.00663828
0.000849203
0.00368376
0.00202304
0.00388991
0.00189962
0.0064995
0.00245788
0.000830411
0.000675403
0.000806323
0.000901967
0.00126403
0.00206207
0.00180567
0.00178531
0.00384108
0.00186047
0.0027259
0.00101498
0.00269753
0.00191462
0.00285582
0.00345507
0.000998072
0.00157176
0.00110513
0.00204389
0.00155216
0.00281994
0.00326449
0.00181319
0.00124478
0.0013954
0.00189364
0.00400925
0.00120241
0.000629384
0.00374233
0.000776775
0.000926728
0.00328732
0.00129404
0.00213958
0.00225988
0.00424244
0.00304338
0.00116191
0.00258677
0.000776375
0.00120845
0.00252066
0.00157496
0.00284389
0.0033236
0.00205349
0.00169299
0.000820305
0.000841086
0.00235244
0.00370387
0.00292736
0.000715981
0.00165695
0.00187551
0.00113118
0.00218727
0.000584155
0.000904535
0.000813664