/*--------------------------------*- C++ -*----------------------------------*\
| =========                 |                                                 |
| \\      /  F ield         | OpenFOAM: The Open Source CFD Toolbox           |
|  \\    /   O peration     | Version:  v1912                                 |
|   \\  /    A nd           | Website:  www.openfoam.com                      |
|    \\/     M anipulation  |                                                 |
\*---------------------------------------------------------------------------*/
FoamFile
{
    version     2.0;
    format      ascii;
    class       volVectorField;
    location    "0.25";
    object      U;
}
// * * * * * * * * * * * * * * * * * * * * * * * * * * * * * * * * * * * * * //

dimensions      [0 1 -1 0 0 0 0];


internalField   nonuniform List<vector> 
5794
(
(-1.12767 -0.396595 -2.60556e-17)
(0.0394957 2.20812 0)
(1.17973 0.0287827 -1.52183e-16)
(-1.15499 0.598635 1.52951e-16)
(2.91235 0.68162 3.18628e-17)
(0.0205876 2.76386 -1.00736e-16)
(-2.60412 -0.278103 -1.45738e-16)
(-5.95307 0.475241 0)
(5.60335 1.29226 1.00594e-16)
(-0.869961 0.0675388 1.93097e-16)
(4.79291 -0.0406025 5.28671e-19)
(-1.98174 0.0454862 0)
(-0.525592 -0.639918 6.07536e-16)
(2.11363 2.92457 2.70713e-16)
(3.09562 0.276968 3.5538e-16)
(0.640865 -0.29988 -1.55263e-16)
(1.41184 0.221994 5.5814e-17)
(0.0606676 0.488399 2.70488e-16)
(3.60853 0.00206953 3.26534e-16)
(0.0783533 2.01407 1.29432e-16)
(-2.8307 1.55976 -4.51275e-17)
(0.168233 2.9178 -1.09408e-16)
(1.74277 -0.288738 3.18312e-16)
(1.36893 -0.0682849 -5.42444e-16)
(-5.40778 -0.804748 -2.36184e-16)
(2.74388 10.3443 2.0615e-17)
(6.77698 -0.166432 0)
(-0.252662 6.00803 -1.1931e-16)
(-0.687771 9.56399 -3.58121e-17)
(-0.25009 -0.109409 3.03874e-16)
(1.52627 -0.690689 -5.76897e-16)
(-0.96078 0.10352 -6.04091e-16)
(-2.98374 0.414386 -7.8107e-16)
(-1.02577 -0.535119 3.93108e-16)
(-0.561479 -0.0893899 -1.56009e-16)
(0.835067 -1.28967 1.80073e-16)
(9.77434 0.528046 -2.13318e-16)
(1.30319 -0.162712 0)
(0.757105 -0.316162 1.64578e-16)
(-0.471506 2.0619 0)
(-3.55848 -1.12492 -1.12571e-16)
(-0.765261 -0.21727 1.49433e-16)
(7.59668 0.117905 -9.09623e-19)
(0.471552 -3.10878 0)
(2.8601 0.103334 -3.18053e-16)
(6.51897 -0.375867 1.08859e-16)
(4.03651 -0.0230717 -2.47662e-16)
(-4.84657 -0.431969 0)
(-0.693568 0.268314 7.25827e-16)
(0.478207 -0.269764 7.18798e-17)
(-0.093742 -0.260887 -1.75399e-16)
(7.59929 0.0202979 -1.45274e-16)
(1.7995 -0.284734 0)
(2.6888 2.68257 1.01115e-16)
(-0.0871341 -0.0573103 1.05383e-17)
(6.43334 -1.01286 0)
(4.59095 -0.0176993 -1.92669e-16)
(-4.31472 0.471202 9.81728e-17)
(8.56093 0.0676268 0)
(4.12351 9.68259 -7.0752e-19)
(9.2995 0.420819 1.84654e-18)
(0.655523 1.87596 -1.02788e-16)
(1.11748 -1.39159 -1.33476e-16)
(-0.29827 0.186403 2.48128e-16)
(-2.02881 0.480174 0)
(1.77181 0.0381158 -2.36851e-18)
(0.762872 0.408667 -2.75759e-16)
(0.263442 0.32821 0)
(0.268427 0.0655205 -2.87187e-16)
(0.0415577 0.978028 -4.26929e-21)
(6.75216 -0.0695844 1.08687e-16)
(0.656775 0.799751 -4.09632e-16)
(12.1265 2.12242 -3.74272e-18)
(-2.65151 0.279905 0)
(-0.116959 0.235664 2.82543e-16)
(-0.01292 6.52807 6.2983e-19)
(0.0428709 -0.0681351 1.52743e-16)
(1.52465 10.1571 -2.12757e-17)
(0.27084 -3.13846 3.52136e-17)
(0.457302 0.00980901 7.18926e-17)
(-0.302804 0.289747 -1.9635e-17)
(0.0382091 1.76266 -1.32043e-16)
(-2.97476 0.195677 -1.03782e-18)
(-0.0443211 -1.0697 -1.00945e-16)
(1.14237 -0.774047 -3.89401e-16)
(-0.130829 2.45064 -5.5891e-17)
(0.215001 5.52346 3.34402e-17)
(0.136495 5.56211 -2.42966e-17)
(1.35143 -0.122146 -1.4841e-16)
(1.1578 0.354531 -5.309e-17)
(0.855262 5.58886 -8.28769e-17)
(0.288431 5.09293 -1.00924e-16)
(-0.283513 8.61299 1.21871e-16)
(0.10158 8.51091 5.47812e-17)
(0.150473 3.91873 4.29813e-17)
(-2.36335 0.128686 4.84338e-18)
(-0.0372798 6.10289 -5.74791e-17)
(-0.545149 8.21066 -1.29115e-17)
(0.164437 5.39681 0)
(9.06038 0.467439 -2.98057e-17)
(1.75873 3.21114 -1.21076e-16)
(-0.175429 0.0145062 -5.12289e-16)
(8.48859 0.150844 7.00213e-17)
(2.40649 3.43915 -3.54606e-16)
(3.27053 -0.274287 0)
(-2.33585 4.36513 0)
(0.0773337 1.88369 0)
(-1.09783 -0.138522 -2.58148e-16)
(-0.995038 0.621209 -1.18311e-16)
(0.106492 -3.14141 -9.73048e-17)
(0.701824 -0.259857 -2.69434e-19)
(-2.20217 -0.415904 0)
(-1.34627 4.6836 1.10251e-16)
(0.420996 -0.342467 1.50139e-16)
(0.0943303 4.08043 0)
(-0.123912 8.75939 0)
(2.23686 0.568554 -2.78033e-16)
(-0.925888 2.09388 1.40009e-18)
(9.51559 0.376717 -2.29048e-20)
(10.8322 0.602034 5.91972e-18)
(-1.24888 3.17743 1.89728e-16)
(2.84651 0.0790918 0)
(-0.154475 -0.0296259 0)
(-0.125858 6.40635 -1.41077e-16)
(-0.907854 0.00125624 1.87752e-16)
(4.839 2.50104 4.88088e-17)
(1.64524 3.12921 0)
(-0.0274129 2.49575 6.2214e-17)
(8.59033 -0.274016 9.06991e-17)
(-1.01998 0.0341067 1.49351e-16)
(-1.34444 -0.502213 2.87898e-16)
(2.03617 -0.507886 1.66235e-16)
(1.11725 1.41093 2.41653e-17)
(1.11019 9.78583 -6.54538e-17)
(-2.98009 6.16686 1.5121e-16)
(1.74993 0.59315 0)
(4.83463 -0.180912 8.65661e-17)
(0.826326 1.80521 -1.56291e-16)
(0.162814 -0.139583 2.03434e-16)
(0.117285 -0.774292 0)
(-2.84029 -0.713789 -3.69909e-16)
(1.95258 1.92811 0)
(-0.87026 -0.435246 0)
(1.15639 1.90395 3.91779e-16)
(0.286396 0.0297622 2.22244e-16)
(1.76542 0.0262525 1.80297e-17)
(-0.280051 0.223577 2.9482e-16)
(8.17859 0.279207 2.21938e-16)
(3.57258 0.488209 -1.95554e-18)
(-0.816529 0.840595 4.73004e-16)
(7.45769 -0.186215 -1.66721e-16)
(1.84056 0.607834 2.42014e-16)
(-2.87119 5.24324 0)
(-1.33129 0.201171 1.87291e-16)
(4.52002 -0.385749 0)
(3.81991 0.0951506 0)
(0.598932 -0.117655 -2.91035e-16)
(-0.831162 -0.316119 4.11605e-16)
(6.50442 0.245209 -2.26279e-16)
(0.975732 -0.369586 -1.40543e-16)
(-1.58882 0.409146 3.51841e-16)
(1.1886 0.79371 -3.08165e-16)
(-0.515741 -0.156467 0)
(4.18792 -0.439124 -1.01772e-16)
(-3.32648 0.0234442 -2.69923e-16)
(-3.61686 0.004423 1.42432e-16)
(5.01679 0.0475012 7.98004e-19)
(-0.568878 -0.0248887 -3.9857e-18)
(0.512135 -0.074019 0)
(-2.07025 -0.1583 7.646e-19)
(-0.116322 -0.0677323 0)
(-2.15369 0.529011 -1.05486e-16)
(1.69501 -0.170391 0)
(2.96693 0.246871 7.53029e-17)
(-1.60109 -0.12899 3.83115e-16)
(1.03276 -0.227895 0)
(2.88669 0.123818 -1.85693e-16)
(-6.42393 -0.599215 -1.46264e-16)
(0.714694 -0.278299 -8.63473e-17)
(6.38391 0.291985 6.43324e-18)
(-0.324825 -0.260914 -5.79947e-18)
(-0.965346 -0.183384 0)
(2.58664 0.0540046 0)
(-2.82766 -0.404334 1.11639e-16)
(2.25841 0.221786 0)
(-0.374567 -0.658806 7.16183e-17)
(-0.383117 0.144872 -1.70568e-16)
(-0.845422 0.468859 -9.74484e-17)
(-1.22342 0.0189349 1.16767e-16)
(-0.487464 -0.108407 3.8762e-16)
(4.6283 -0.0354901 -3.32046e-16)
(-1.17585 -0.0559927 4.26674e-16)
(-3.17103 -0.0027914 5.20931e-16)
(2.06053 -0.424667 5.42347e-16)
(1.47764 -0.160594 -8.76906e-17)
(-1.67011 -0.243335 -4.76515e-16)
(-6.41608 0.0202987 -1.36303e-17)
(-0.40035 -0.124942 -1.8298e-16)
(3.38616 -0.245107 -2.29636e-16)
(6.60733 -0.0442393 1.16542e-16)
(-1.25152 -0.662467 -1.85135e-17)
(6.92415 0.168401 0)
(-3.57068 -0.736035 0)
(-1.8704 -0.648694 8.91754e-18)
(3.82679 0.0404029 -6.0729e-17)
(6.28554 0.0276535 0)
(-0.613668 -0.13917 1.18798e-17)
(0.251747 -0.547491 2.91739e-19)
(5.95814 0.635267 -6.56664e-18)
(2.65744 7.43583 1.31941e-16)
(-0.346871 -2.71365 8.7601e-17)
(9.74143 -0.0186982 0)
(3.09726 -0.985687 -7.37022e-17)
(0.630897 1.44492 1.51e-16)
(0.691429 -0.427595 0)
(-7.6823 -1.69697 3.28266e-16)
(0.140898 -0.833132 -1.77666e-16)
(1.94506 1.93737 1.01165e-16)
(4.29894 -0.0536565 1.22443e-16)
(1.43405 5.93209 -1.7958e-16)
(9.66212 -0.0112551 0)
(1.75249 -0.757754 2.0448e-16)
(-0.0307696 1.65456 0)
(-0.921536 7.14635 2.26116e-17)
(5.73559 0.114549 1.22569e-16)
(11.7643 0.764809 2.11081e-18)
(0.468314 0.0528595 -7.9178e-17)
(0.487693 -0.36834 -1.05159e-16)
(3.77607 -0.0772612 0)
(1.70677 0.551048 -2.58806e-16)
(1.08515 -0.665206 0)
(-0.253377 -1.79649 -5.43723e-17)
(-1.64704 -0.0057741 -9.58281e-17)
(-0.561274 0.496699 1.44003e-16)
(1.01069 0.239876 1.97264e-16)
(9.35764 0.151946 6.72004e-18)
(7.72585 0.586442 2.3016e-18)
(7.65755 0.579526 2.73542e-17)
(-1.75791 -0.641819 -1.5441e-16)
(-2.74338 0.261059 -3.39814e-16)
(0.0936666 1.51361 0)
(1.38017 0.404447 1.25508e-15)
(1.18593 3.76252 2.29857e-16)
(-1.38101 0.288006 -2.63403e-16)
(-1.44125 0.417413 2.66829e-16)
(1.09368 -0.399605 2.74841e-16)
(2.25606 -0.115939 -1.10318e-16)
(4.00338 0.41817 8.3847e-18)
(-0.152015 5.86416 0)
(-0.220534 4.76296 0)
(0.0168035 4.51719 0)
(1.49748 -0.00396605 2.5598e-17)
(3.03445 -0.278675 -7.86915e-17)
(-0.591793 0.119732 -8.5455e-21)
(7.55147 1.11416 -5.45605e-17)
(5.00995 1.29244 -1.35638e-17)
(8.41334 0.229736 -1.43272e-16)
(9.14651 0.483403 1.53302e-16)
(-0.0521813 -0.783996 2.90173e-16)
(-1.97285 0.259803 0)
(6.51056 -0.0247223 -1.05092e-16)
(3.60246 -0.498181 6.33955e-17)
(-0.26602 0.908704 -9.23184e-17)
(0.951789 -0.0882232 0)
(-2.38186 0.256109 0)
(-1.11316 0.113349 -6.26072e-19)
(-0.111513 2.02881 1.74646e-16)
(4.01447 0.868309 0)
(-2.18476 0.321033 -5.58179e-16)
(6.00101 0.15111 -1.00197e-16)
(3.58628 0.0877792 0)
(-3.37176 -1.47189 -2.00477e-16)
(-4.0314 -1.40537 -3.47273e-16)
(6.92729 0.0162955 -1.26636e-16)
(9.5061 0.0911011 3.56544e-17)
(2.7134 0.242638 2.44893e-16)
(3.13168 2.3817 -1.16009e-16)
(-2.92032 -0.377468 -7.10706e-17)
(0.832678 0.340288 -1.82376e-16)
(-0.764446 -0.41038 -2.75554e-16)
(-0.548667 -0.238481 3.5809e-16)
(0.798515 2.78625 2.788e-16)
(-4.07433 -1.41584 1.09015e-16)
(-0.755324 -0.325178 -4.17612e-16)
(-0.0937678 1.96489 7.48116e-17)
(-0.233077 5.88316 1.04794e-16)
(0.347656 5.12855 1.42508e-17)
(0.0436687 6.9247 0)
(0.763591 6.48264 3.93979e-17)
(-2.20711 5.49364 0)
(0.338973 -0.65728 -1.62369e-17)
(-1.9738 -1.60706 -8.23139e-17)
(-0.853956 -0.274998 2.30041e-18)
(3.27222 1.14796 0)
(8.28981 1.56996 0)
(1.47239 7.17628 6.70485e-18)
(-3.4611 -2.13425 5.04093e-17)
(-1.16675 -0.189849 1.43193e-19)
(0.579212 2.12503 -2.71079e-16)
(0.878376 -0.169047 -1.7343e-16)
(0.0409422 1.47632 9.55828e-17)
(-0.430639 6.33816 0)
(0.0225767 -0.528192 -8.04176e-16)
(0.374218 1.13456 0)
(-0.737029 -1.5756 -1.41809e-16)
(3.87483 0.310086 1.55539e-18)
(0.721402 0.287087 -2.60877e-16)
(0.150964 0.248419 4.59785e-16)
(6.51967 0.301576 2.00339e-16)
(3.90265 0.126076 0)
(-1.53969 -0.665095 -5.39463e-16)
(0.0927665 0.188863 -3.13219e-16)
(1.62268 6.22812 -1.49544e-16)
(0.504833 -0.268622 -8.45598e-17)
(10.5906 0.117289 0)
(10.0606 0.279804 -1.77154e-17)
(-0.831568 -0.153985 -9.54645e-17)
(-0.398663 5.34222 -2.52891e-16)
(-2.00144 0.409353 -2.10519e-16)
(-0.190908 6.15727 -4.21841e-17)
(-5.0811 1.88049 3.15432e-16)
(-1.58743 0.660593 -1.51206e-16)
(-1.03388 1.58303 -1.87436e-16)
(3.64488 0.624591 -9.39669e-19)
(-0.1227 -0.528509 0)
(0.618514 -0.78151 0)
(-2.17093 0.265897 0)
(-1.86124 -0.0984488 6.47973e-17)
(0.318028 -0.485016 -3.60248e-16)
(4.66888 -0.0758271 2.8752e-16)
(7.00121 0.118994 -6.39935e-18)
(6.77269 -0.122387 2.92241e-16)
(0.919987 -0.206904 9.35136e-17)
(-2.10565 0.57958 4.52175e-16)
(-0.767764 0.188028 0)
(-1.24208 -0.0126522 -2.13734e-16)
(-0.828581 -0.157081 0)
(0.0213075 -0.19309 0)
(-1.05545 -0.0238165 -2.84257e-16)
(-0.0619852 -0.223435 0)
(1.15184 -0.259762 3.99611e-16)
(-4.19537 -0.225219 2.71962e-16)
(5.86111 0.614666 0)
(1.49613 0.0929672 0)
(2.7404 0.248346 3.36624e-16)
(2.10127 0.0439856 3.18362e-16)
(-1.97595 -0.70926 3.02771e-16)
(-0.381725 -0.281905 -2.51461e-17)
(-3.65187 0.00157594 -1.05661e-16)
(1.37006 0.0389811 7.80996e-17)
(1.15742 -0.283086 7.17561e-17)
(0.124686 0.181939 2.55817e-16)
(-3.37866 -0.123171 -1.98058e-17)
(-1.25088 -0.0988357 1.68135e-16)
(2.45887 -0.186801 0)
(-1.08177 -0.250498 0)
(2.69734 -0.317742 1.4376e-16)
(6.83929 -0.32279 1.41399e-16)
(-2.22883 -0.595913 5.79072e-17)
(-5.92091 0.231441 0)
(-0.0566665 -0.50328 -2.9298e-16)
(0.718451 -0.0949499 5.45123e-16)
(5.2251 -0.0646367 3.43284e-17)
(-2.06317 -0.325554 -2.56149e-17)
(-6.15227 0.878207 -1.42285e-16)
(3.87509 0.0482287 3.27584e-16)
(-3.65416 0.0432945 -3.3304e-17)
(5.19612 -0.582181 0)
(3.75365 -0.137054 3.3379e-16)
(-4.62873 0.17874 -6.33001e-17)
(0.840828 1.42423 -1.12277e-16)
(1.22022 -0.116982 0)
(3.78843 0.018123 -7.70215e-17)
(0.21499 -0.172747 3.31164e-16)
(0.179036 -0.0582424 9.70141e-17)
(-2.99313 0.179753 1.26302e-16)
(4.29147 -0.147615 0)
(3.88515 0.260696 8.12371e-17)
(-3.84868 1.2334 0)
(0.847562 0.10327 1.40515e-17)
(-0.458282 0.128956 1.90124e-16)
(0.633628 1.04583 0)
(10.7767 0.0790358 0)
(1.85397 -1.27386 1.18768e-16)
(1.20574 0.545104 -4.67612e-16)
(-1.06088 -0.637087 -3.07135e-16)
(-1.20224 10.2224 -2.52682e-17)
(2.25261 0.254749 1.70202e-16)
(-1.86462 0.206839 -8.15394e-16)
(4.6409 0.1158 0)
(-0.219704 -0.261557 -7.38659e-16)
(-0.923251 0.472046 1.68736e-19)
(0.0383641 1.07387 -2.32262e-18)
(-0.527463 -0.709864 1.56972e-16)
(0.88603 -0.565502 8.55982e-17)
(1.62713 -0.834418 -7.42392e-17)
(-1.78161 -0.00387174 9.6583e-17)
(0.782267 -2.57898 0)
(-1.76039 0.788796 0)
(0.983412 -0.443604 -3.06103e-16)
(1.36807 -0.32921 1.26328e-16)
(-8.17479 -1.35223 -1.86302e-16)
(9.96168 0.0247327 3.46274e-17)
(0.923348 0.00570776 1.87705e-16)
(-1.73131 -0.486008 0)
(6.78266 1.06039 4.38324e-17)
(1.68741 -2.00995 4.79108e-19)
(0.110835 2.86324 1.53305e-16)
(0.200161 1.74566 -3.11847e-17)
(-0.160167 5.76066 -6.24746e-17)
(-0.659016 7.36138 2.30021e-17)
(0.224502 5.74165 0)
(0.815619 0.457017 1.71196e-16)
(-1.21659 0.587072 2.50807e-16)
(6.66483 0.0218002 1.6717e-17)
(3.92077 0.0196796 7.60406e-17)
(-1.56402 -0.373868 0)
(0.7385 -0.0238176 2.79537e-16)
(-2.66101 0.166608 0)
(-0.190832 6.24076 3.97358e-17)
(0.11285 5.51252 -7.78017e-17)
(-0.585075 7.98447 2.76506e-17)
(-0.701085 0.0168466 -1.49703e-17)
(1.1106 1.83175 -3.19704e-17)
(3.08963 -0.113036 0)
(2.89758 0.222421 0)
(-1.14818 -0.264297 -1.78559e-16)
(0.311153 -0.415942 -1.96269e-16)
(0.0539588 2.16856 -1.1525e-17)
(-0.478527 2.53558 3.95924e-17)
(6.09392 1.73993 2.51503e-16)
(10.0007 0.138986 1.26473e-17)
(0.397439 2.04931 -3.83826e-16)
(1.02748 -3.04187 -2.05333e-17)
(3.70907 -0.273093 2.23844e-16)
(1.76921 0.680326 0)
(0.129348 -0.366412 1.71802e-16)
(-0.398833 -0.579956 -9.46692e-18)
(3.28361 -0.635658 -6.80106e-17)
(1.92021 0.607029 1.52215e-16)
(-0.885882 -0.44869 2.24247e-16)
(9.9498 0.0962796 -2.47042e-16)
(2.59289 0.0242365 0)
(-0.981438 -0.229517 7.60364e-17)
(-2.72387 -0.0567925 -1.87962e-18)
(-0.0547358 8.75459 -5.25062e-17)
(0.0921399 3.9983 1.2567e-19)
(0.2018 -0.140933 0)
(1.27042 -2.78272 1.48619e-16)
(0.789107 0.043907 -8.58503e-17)
(-0.512327 -0.234491 -2.11996e-16)
(0.086072 2.17583 -5.31192e-17)
(-2.60396 1.19371 4.57378e-17)
(0.150527 2.28902 -3.96538e-16)
(-0.419628 7.81074 -2.37922e-17)
(0.853986 -0.0314498 -5.27512e-16)
(0.323685 5.03394 -2.35821e-18)
(-2.33547 0.0142074 -1.86885e-16)
(-0.184973 5.90834 -3.49512e-17)
(1.14471 7.18045 8.7144e-17)
(0.00683773 1.30344 -9.88559e-17)
(0.151636 2.04321 -1.80931e-16)
(-0.134362 1.01584 1.75838e-16)
(0.608082 -0.706985 -3.7728e-16)
(8.75648 0.511 8.92919e-17)
(-0.981245 0.0643937 -2.58189e-16)
(10.5793 0.49047 -2.1993e-18)
(2.81105 1.81062 7.64597e-17)
(0.613498 0.323529 -4.33694e-16)
(-0.119895 -2.78311 -4.48257e-17)
(0.598884 0.0342374 3.88749e-17)
(6.83449 0.674495 -5.52974e-18)
(1.5476 0.695597 -6.74849e-17)
(3.75338 -0.254031 1.9456e-17)
(1.72817 0.305304 -1.63842e-16)
(-0.853084 -1.45356 1.13515e-15)
(7.98305 1.55528 -3.46999e-18)
(-0.718965 5.02509 1.53345e-16)
(-2.57263 0.0941868 1.44601e-16)
(0.130104 1.97206 4.46904e-17)
(-1.22859 1.11331 2.53254e-16)
(-0.0100559 0.767611 0)
(4.54656 -0.0831403 -1.0601e-16)
(4.17856 -0.212384 8.07256e-18)
(-0.710819 -0.0608481 1.78834e-16)
(3.54326 0.0243955 1.04177e-19)
(9.80106 0.0184799 0)
(-2.33385 0.236039 1.92251e-18)
(0.351159 -0.0196475 -5.15952e-17)
(-0.237224 1.00473 -1.59066e-20)
(0.0495494 1.95953 1.6268e-16)
(-0.969012 0.741639 -2.23333e-16)
(-0.836806 1.10737 8.428e-16)
(4.1124 0.520122 8.12466e-18)
(1.66419 -1.25825 -2.09205e-19)
(0.316855 -0.560361 2.46514e-16)
(-0.382032 0.12782 0)
(0.551309 1.23671 0)
(0.336538 -0.17575 -3.64189e-17)
(7.23625 0.913642 -1.43563e-19)
(4.28011 1.0749 2.92456e-17)
(8.16744 0.871171 -7.41829e-18)
(10.3838 0.465536 3.21704e-18)
(0.242083 -0.993139 0)
(1.09408 3.05126 0)
(0.207427 1.8368 1.82641e-16)
(-0.205479 1.00843 2.06408e-16)
(9.21451 0.463223 -4.28297e-16)
(1.51844 0.717007 0)
(1.55524 -0.294352 0)
(-2.1473 0.282849 1.95474e-16)
(0.652228 0.227359 1.62174e-18)
(-0.779315 0.216655 -1.89144e-16)
(0.790056 -0.040309 1.92623e-16)
(0.608579 -0.158331 -9.56345e-17)
(0.239784 4.37633 -3.85728e-17)
(-0.263836 8.67361 -1.25693e-17)
(0.767309 -0.0481313 -2.55277e-16)
(9.90587 0.142265 -6.5693e-17)
(9.97247 0.273645 3.69564e-18)
(0.0530462 2.03216 1.29787e-16)
(0.310291 1.92117 -3.37938e-17)
(2.98542 0.920044 -1.30807e-17)
(-1.49005 4.71057 -1.88618e-16)
(-0.497921 0.209356 1.00228e-15)
(0.124231 1.98621 5.89038e-18)
(-1.63325 -0.805566 0)
(6.04626 4.40116 5.72237e-17)
(0.139209 2.05801 9.34363e-17)
(0.186917 2.84467 -5.35778e-20)
(-0.264727 1.98588 1.76471e-16)
(0.386413 -0.0668394 0)
(10.6198 0.285268 0)
(0.308561 1.08688 -6.16142e-17)
(3.87402 -0.0665123 0)
(2.44992 0.240186 6.6955e-17)
(10.0288 0.0547548 -1.03227e-16)
(5.41776 -0.00675645 7.09803e-17)
(-0.912967 0.154698 1.13809e-16)
(7.52409 0.0600884 9.0294e-17)
(0.0163328 2.97768 5.56058e-17)
(-0.615019 -2.64043 1.75499e-16)
(0.0907898 2.12077 1.70752e-16)
(1.87653 2.93479 -1.50446e-16)
(-1.78452 0.211839 -6.53176e-17)
(-0.230658 -0.339408 0)
(9.72729 0.727228 0)
(1.3027 1.78861 -3.44003e-16)
(0.412531 -0.171899 -2.08482e-16)
(0.079196 2.3199 5.53797e-16)
(2.07625 3.33759 -3.88118e-17)
(1.01045 0.165638 0)
(2.88877 0.0441418 -3.43196e-16)
(-0.829222 -1.6375 -1.36852e-16)
(0.140122 2.19579 1.36028e-16)
(-1.4794 -0.594551 0)
(0.642183 1.87126 0)
(0.219854 3.00599 0)
(0.161545 1.93852 -1.47944e-16)
(0.559679 0.981709 9.91895e-18)
(10.4959 2.72112 -2.7065e-18)
(-0.209724 0.0479783 0)
(5.63577 1.42324 0)
(1.99329 0.961385 -7.39505e-17)
(2.0345 3.23371 1.05546e-16)
(-2.66957 0.239543 0)
(0.77765 0.0761266 3.97613e-16)
(0.34703 -0.408969 -5.21345e-19)
(-0.0311697 1.69952 -1.4501e-16)
(1.19095 -0.289092 0)
(8.36681 0.535286 -6.10337e-17)
(-1.0483 0.642908 -1.49176e-16)
(0.62588 3.06223 6.79629e-17)
(-0.0579837 6.43337 0)
(0.937717 2.88718 -1.05688e-17)
(9.9103 0.230291 -1.98342e-17)
(3.25898 1.3293 -5.01706e-18)
(0.30132 2.38978 -1.7621e-16)
(-1.26675 -0.388956 -2.37721e-16)
(-3.31656 -1.77044 -4.3024e-16)
(-0.238574 7.78832 7.25959e-19)
(0.306242 5.37224 5.67473e-17)
(2.88562 2.47369 0)
(10.3086 -0.13635 2.26363e-17)
(-3.43124 -0.0242461 1.15461e-16)
(9.23626 0.751664 -1.13158e-16)
(0.177014 -0.454995 1.80297e-16)
(-0.664041 8.13237 0)
(0.125621 5.5299 -6.26366e-17)
(-0.230868 4.7725 1.96248e-16)
(1.40797 -0.342091 -6.63518e-18)
(0.0676247 2.41157 4.64871e-17)
(1.24537 1.28662 5.50624e-18)
(-0.163578 7.41786 -2.64264e-17)
(0.0921609 5.53949 -3.37619e-17)
(2.34878 8.79905 5.80218e-17)
(0.761329 0.0650065 1.93595e-17)
(10.1286 0.167804 0)
(0.210633 -0.0375483 5.28318e-16)
(2.11331 0.631835 -7.76329e-17)
(-1.26077 0.296025 -3.12414e-16)
(7.90264 0.534605 1.60141e-17)
(0.0979024 5.55369 -5.15295e-17)
(-0.108941 7.61398 1.76731e-16)
(0.889544 -0.0933916 -1.13183e-20)
(-0.444279 0.132623 -1.18668e-16)
(1.11237 6.09944 0)
(-1.10834 0.0821621 0)
(-0.0754963 -0.149495 -2.10979e-17)
(-0.702248 0.293532 0)
(3.43379 2.67051 -7.12314e-17)
(4.76305 1.77552 0)
(1.42558 3.70992 -2.3826e-16)
(2.26124 -2.30092 4.60821e-17)
(0.0436761 -0.30095 4.25436e-16)
(2.05252 0.464703 3.46993e-17)
(7.55617 0.745973 -1.42109e-17)
(4.06693 -0.0182977 -2.20571e-16)
(7.92856 0.154249 -2.75296e-16)
(-0.848492 0.247286 0)
(0.284535 1.89361 -7.16567e-17)
(5.11755 3.09509 1.57117e-16)
(3.70365 1.74791 -7.14063e-17)
(-0.312582 -0.422779 -4.0273e-16)
(0.410612 1.98749 4.94519e-16)
(0.130798 2.06615 2.9204e-17)
(0.294483 0.372631 -4.64837e-16)
(1.17083 0.432417 -6.0939e-19)
(1.03356 0.87448 -2.67072e-16)
(0.127376 -0.268311 1.98092e-16)
(-1.87986 0.895106 6.76207e-17)
(0.061509 2.10943 0)
(0.167665 0.73177 -7.49903e-17)
(0.0133489 1.73167 -6.79859e-17)
(0.311368 1.74482 2.68356e-16)
(4.53132 -0.0997752 -6.07861e-17)
(1.58711 8.03149 -3.78965e-17)
(10.6518 0.423864 -7.15492e-17)
(3.67716 -0.0457231 7.12608e-17)
(0.337811 6.13409 -4.50253e-17)
(-1.30036 0.213121 -1.31125e-16)
(8.81004 0.184451 3.42388e-16)
(4.24865 -0.0312862 -2.21123e-17)
(0.232729 5.53367 4.0839e-18)
(4.82794 -0.129845 2.31745e-16)
(-0.0936516 5.18722 -1.69197e-16)
(0.0452681 6.72378 8.21915e-17)
(7.24566 0.288298 0)
(0.0738975 0.0260572 -1.35831e-16)
(0.0652859 0.164647 2.8975e-17)
(0.113687 1.60387 0)
(-1.45239 -1.00194 -1.46614e-16)
(0.226434 0.711818 6.26937e-17)
(0.932121 0.54548 2.53439e-16)
(0.929561 -0.562468 2.87785e-16)
(4.19297 0.224904 -3.93297e-17)
(9.7763 0.676929 -1.18599e-18)
(-1.07477 0.382466 -1.94563e-16)
(-0.398927 0.137825 3.4798e-16)
(2.16692 2.9264 -2.19191e-16)
(0.578931 0.103633 1.20918e-16)
(4.26313 -0.119808 0)
(0.0607955 0.369643 -1.14663e-17)
(-2.00038 1.37433 -2.65398e-16)
(0.079748 1.92888 -2.18676e-21)
(0.0868498 6.8744 2.62234e-17)
(0.296571 6.19384 -2.47776e-18)
(-0.189686 5.71829 -1.05084e-16)
(0.485931 5.16795 3.58684e-17)
(1.78832 4.06619 -1.54657e-16)
(7.52436 0.40048 6.73281e-17)
(0.428268 -2.42018 0)
(10.9841 1.10025 0)
(-1.54709 0.505432 3.33712e-16)
(-1.33129 -0.162076 5.55651e-16)
(0.121514 5.48566 1.54457e-16)
(-0.0393711 7.75244 -1.19966e-16)
(-1.84542 0.101061 1.09625e-16)
(1.45523 3.97333 -5.6367e-17)
(-2.56244 0.010738 3.72963e-17)
(0.259585 1.05744 2.22793e-17)
(0.367461 -0.559642 6.63356e-19)
(1.4349 2.25129 -4.80507e-17)
(0.0843445 -0.200548 -1.1296e-17)
(1.74001 2.02024 -6.05187e-17)
(4.04706 -0.0606122 -3.7362e-16)
(0.421467 3.02008 6.62173e-18)
(0.462945 1.373 1.41926e-16)
(0.975781 0.42036 0)
(0.732079 -0.0504956 0)
(0.7624 -0.78794 0)
(0.85969 6.76807 2.32435e-16)
(1.28609 7.75679 2.58267e-16)
(-0.324007 5.55311 2.52236e-16)
(3.76271 0.660827 2.46182e-17)
(6.42344 3.75242 -3.30937e-17)
(-0.018069 -0.320006 0)
(0.0992332 1.27609 8.69777e-17)
(-0.739027 -0.346225 3.43658e-17)
(10.5363 0.0531144 -7.45081e-18)
(-0.518861 0.469692 -9.812e-17)
(-1.02047 0.0260225 3.39855e-18)
(0.245764 -0.0979787 -1.72143e-16)
(9.16339 0.359054 -1.97162e-17)
(0.131376 0.403471 0)
(3.95849 1.44558 -3.33885e-16)
(2.49224 0.706035 2.61406e-16)
(4.36089 -0.187289 0)
(0.142644 0.432607 7.5758e-17)
(1.44031 2.18539 -2.82709e-16)
(8.92623 0.174528 0)
(2.00815 6.44397 -4.55759e-16)
(-0.38869 6.37029 -1.26661e-16)
(0.0320527 2.24934 0)
(1.14567 0.520474 0)
(11.3911 0.282229 4.32535e-17)
(10.3672 0.311455 3.33606e-17)
(9.78202 1.31103 2.07248e-18)
(5.536 2.32404 -1.27506e-20)
(1.64212 4.58262 0)
(1.56284 0.14451 2.17641e-16)
(2.79078 6.58977 -3.0335e-17)
(5.20831 -0.0320578 0)
(0.331938 1.7629 -3.96012e-16)
(4.64229 1.15609 3.02625e-17)
(0.178418 -2.35187 -1.0414e-16)
(9.4538 0.830054 -5.09698e-17)
(10.8754 0.0423173 7.75849e-17)
(1.88599 1.62086 -2.07589e-16)
(9.9856 0.391884 -1.53431e-17)
(-0.0895802 4.14735 2.04849e-16)
(0.878277 8.34347 4.38141e-17)
(0.660721 7.67355 -9.85728e-17)
(6.82456 3.83393 0)
(3.53609 0.865092 9.90065e-17)
(2.7614 0.384487 -1.34682e-16)
(2.74582 0.115011 3.1767e-17)
(-0.174752 0.323472 1.29842e-16)
(0.26812 5.24331 5.26916e-21)
(-0.342069 8.50771 4.99102e-19)
(0.480333 5.9393 7.76373e-17)
(0.505871 0.756706 0)
(-0.280225 0.480619 0)
(1.21557 -1.30372 8.40909e-17)
(-0.676507 -0.561592 1.62021e-16)
(-0.356763 6.24454 -9.41633e-17)
(0.176557 4.85034 -4.03826e-18)
(-0.199776 2.05892 0)
(2.54552 -1.9403 -2.88537e-17)
(10.0942 0.109106 8.52966e-17)
(0.234394 1.48289 0)
(-1.26024 -1.01012 -3.47073e-16)
(1.17888 2.55518 5.52803e-17)
(0.822825 -0.0357856 2.51892e-16)
(0.126682 5.03432 7.52884e-17)
(-0.16978 8.19632 1.29602e-16)
(9.62895 0.819129 0)
(0.264508 8.23084 -3.42966e-17)
(0.0868218 4.01159 -4.08146e-17)
(9.53767 1.00892 -9.49154e-17)
(-2.58545 0.291836 -1.50181e-20)
(7.21102 1.07538 8.52439e-18)
(-0.251893 7.57054 2.14815e-19)
(0.11227 6.77323 0)
(0.0597189 6.17429 2.7565e-18)
(-0.154 5.47126 -9.42301e-17)
(0.531308 5.11276 -4.45285e-17)
(3.49201 3.82167 1.53043e-16)
(0.249869 -2.81183 3.27369e-17)
(-0.69274 8.13535 1.84412e-16)
(0.170647 5.63587 0)
(-0.266216 5.32739 -1.48971e-16)
(0.877276 0.0518493 3.70242e-17)
(0.142537 0.350449 -1.53436e-16)
(3.47501 -0.0999931 5.86787e-17)
(0.234978 0.358021 4.33775e-18)
(0.121647 1.86953 1.11868e-16)
(-1.91383 -0.457601 0)
(1.76303 2.77344 1.61324e-17)
(0.0846314 2.61374 -1.78454e-17)
(0.213895 0.0231101 -1.31859e-16)
(9.73607 0.954641 -7.89959e-19)
(1.29293 0.993489 -3.57402e-17)
(0.099138 2.31888 -1.72039e-16)
(0.189503 2.13165 -1.46193e-16)
(-0.181801 7.27436 -1.97102e-16)
(0.420421 5.48912 0)
(0.436843 -0.351594 2.75619e-16)
(-0.173243 7.28553 8.44279e-17)
(0.245938 5.46289 2.69074e-17)
(0.230181 0.0792264 -9.25194e-17)
(3.77867 3.3843 -1.61325e-16)
(-0.845037 -1.84383 5.12034e-16)
(-0.484726 -0.786785 6.22459e-16)
(1.14109 1.19403 -2.32328e-16)
(0.362743 5.38505 2.77548e-16)
(0.0813968 2.17966 -3.07353e-16)
(-0.734762 -0.543939 -1.87034e-16)
(-0.0852552 2.20167 -9.71679e-17)
(1.33912 8.56294 0)
(9.8519 0.0853773 0)
(-0.568909 -0.288379 -3.123e-16)
(-0.974457 1.60592 1.69114e-16)
(0.100391 -0.157987 -8.23328e-17)
(0.250701 1.4492 0)
(2.32468 0.94932 8.37688e-17)
(0.250904 0.0192621 -4.06666e-20)
(0.784242 -0.0363286 -6.64848e-16)
(4.52402 0.125746 2.09187e-16)
(1.24669 5.47638 1.19543e-16)
(-0.623054 6.44888 -2.90896e-16)
(-2.95402 -0.55339 3.15288e-16)
(-1.08739 -1.54309 -1.31165e-16)
(9.95087 0.810653 -1.31698e-17)
(0.0991311 2.7253 2.43853e-16)
(0.432569 -0.623469 1.86462e-16)
(0.240268 0.129036 0)
(-1.02259 1.13359 5.2021e-17)
(2.39158 1.05829 -7.72207e-16)
(0.19943 1.79258 -2.17253e-17)
(0.236661 2.95254 2.23074e-16)
(0.900123 0.295753 3.24655e-17)
(8.96139 0.527465 -1.09817e-16)
(9.58035 0.36003 -2.79722e-19)
(0.287526 -0.22049 1.92023e-16)
(11.0682 0.0431279 0)
(1.63338 0.891959 -4.05839e-18)
(3.82801 -0.278645 1.85837e-18)
(4.24252 0.210575 -1.11155e-17)
(0.194557 5.5136 4.81979e-17)
(-0.532511 7.90864 3.44089e-17)
(-0.00357072 4.88601 1.86925e-17)
(10.5204 0.0329129 1.4127e-17)
(0.388833 1.46913 1.83773e-20)
(-1.24593 2.19384 -7.48227e-17)
(3.90894 -0.283557 -3.42964e-20)
(1.40263 1.2145 0)
(9.89879 1.75254 -4.94276e-18)
(-2.4775 0.0581298 0)
(0.23225 0.474378 9.53534e-17)
(-0.316442 0.188498 8.6755e-17)
(0.142936 1.5755 4.17123e-18)
(0.569703 0.392245 2.39231e-16)
(0.25978 0.172777 3.74958e-16)
(9.35942 0.618578 -1.75295e-17)
(0.571789 -0.105269 2.60284e-16)
(-2.96589 -0.775395 2.51207e-16)
(9.55265 0.945605 9.72159e-17)
(9.74921 0.303217 4.05496e-17)
(6.01616 1.712 3.48794e-17)
(0.0991652 5.78651 -4.96398e-17)
(-0.0435626 7.3379 2.28059e-17)
(-0.225416 3.94024 1.09571e-16)
(0.14999 1.52602 0)
(4.44822 0.811204 4.48013e-17)
(5.74765 3.27614 8.30113e-17)
(9.96983 0.0823828 -2.12382e-17)
(-0.0761606 -0.251568 1.24077e-16)
(0.636508 -0.126635 2.49323e-16)
(0.169056 0.293481 0)
(9.02172 1.52149 0)
(1.14208 1.58193 0)
(-0.513868 -2.32497 2.60061e-16)
(3.93991 -0.129574 6.39685e-17)
(2.75403 4.85904 2.10031e-16)
(-0.603753 6.8155 2.65628e-17)
(1.61248 6.48875 -6.16991e-17)
(0.102627 0.223755 0)
(0.706555 2.59852 6.91322e-17)
(0.416623 2.5011 -1.97297e-16)
(0.13671 -0.129113 -8.54829e-16)
(11.2557 0.114807 9.46774e-17)
(6.08274 1.3103 0)
(0.0675508 2.68852 1.47497e-16)
(0.938915 5.05204 0)
(1.32169 0.768584 1.40714e-16)
(0.413392 0.850193 -2.20283e-17)
(1.01406 9.34323 6.16396e-17)
(9.99603 0.964408 -1.32031e-17)
(9.87053 0.603695 1.01051e-16)
(-1.06745 0.116586 0)
(0.626362 0.23678 -7.16915e-17)
(-1.08441 0.0174213 0)
(8.81073 0.357722 0)
(1.74756 0.287374 -1.19684e-16)
(0.356251 0.982674 2.14427e-17)
(-2.6915 4.69858 -1.28527e-16)
(3.05162 0.878441 -1.18536e-16)
(-0.0208114 -3.14015 1.2995e-16)
(10.2797 0.10478 -1.80669e-20)
(5.9633 3.76279 -7.58931e-17)
(-1.64007 -0.418183 -2.42363e-18)
(0.135292 6.26745 5.74706e-17)
(-0.00738104 6.90633 -5.02517e-17)
(0.307389 0.847528 -1.43356e-16)
(1.32139 6.09149 -2.66285e-16)
(2.86863 0.515468 -1.45832e-17)
(-0.60582 1.67532 -2.98835e-16)
(0.0459937 2.06729 -1.71789e-16)
(1.24975 -0.0799991 6.63704e-17)
(1.03233 -0.360104 1.99448e-16)
(0.519214 0.0858473 -3.07145e-16)
(0.252339 1.85539 -4.51612e-16)
(0.0722759 2.43462 -3.04113e-16)
(6.95338 4.46384 3.65559e-18)
(0.600925 1.79737 4.92803e-16)
(10.0734 0.0379029 -6.23701e-17)
(1.22172 -0.454844 0)
(0.543156 2.64229 -2.50216e-19)
(6.62098 0.190191 -6.51652e-17)
(-0.467295 0.205629 0)
(10.0527 0.367309 3.95488e-17)
(-0.71601 0.218447 2.91774e-16)
(0.40801 0.27637 -2.64658e-16)
(8.58176 1.3364 0)
(0.252624 4.3957 4.12433e-20)
(-0.356589 8.81941 0)
(10.0301 0.0712987 0)
(1.44459 -0.258261 -4.64766e-17)
(9.14864 1.05261 -6.52139e-17)
(9.28444 4.32311 -1.67931e-16)
(1.24013 5.55138 2.55523e-17)
(7.61726 1.98289 -1.02558e-16)
(-0.0897542 4.05798 -6.69998e-17)
(0.0862541 2.72751 -2.01237e-21)
(-0.0250975 6.45093 -6.09895e-17)
(-0.00386164 1.64951 0)
(-0.113179 2.44502 1.06662e-16)
(-0.0366121 -0.882924 0)
(-0.362395 -1.55965 0)
(-0.044468 -1.41419 0)
(0.308806 -2.03462 -1.52638e-16)
(-0.114106 1.65738 0)
(0.0800542 1.33691 1.13641e-16)
(2.85127 2.61381 -2.74849e-16)
(1.81316 3.83274 0)
(-1.62224 3.12351 2.7666e-16)
(-0.20603 6.35144 -2.53322e-17)
(0.106277 5.52461 1.00757e-16)
(-0.52895 7.43051 -3.6274e-17)
(2.37113 1.30981 2.46138e-16)
(9.43536 0.913571 -2.66646e-17)
(0.217962 1.83911 1.88341e-17)
(0.155921 2.86849 -6.31673e-17)
(3.57111 0.216854 0)
(0.978778 -0.274648 9.60643e-20)
(5.73359 1.01632 0)
(0.345945 0.0243567 1.99572e-20)
(4.35431 0.125414 -4.19333e-16)
(10.0489 0.0449308 3.42994e-17)
(-1.32215 2.30887 1.9625e-16)
(-2.24554 2.39052 -2.89581e-16)
(0.0732478 2.11818 0)
(0.0305237 1.40957 8.01477e-16)
(5.43259 1.49414 -4.32597e-17)
(11.3098 0.51029 0)
(9.79392 0.215957 2.43694e-17)
(1.15031 -2.77778 1.10602e-17)
(9.26001 0.252343 0)
(4.80493 4.62558 8.60141e-18)
(3.96577 0.49417 -3.12104e-17)
(2.15396 0.755979 -3.4439e-17)
(1.43515 0.874561 -1.15642e-17)
(1.20793 0.420891 -2.70645e-16)
(-0.0810389 -0.186489 -2.52997e-16)
(1.40413 1.03576 -1.1031e-17)
(1.13441 1.41975 -5.19168e-18)