/*--------------------------------*- C++ -*----------------------------------*\
| =========                 |                                                 |
| \\      /  F ield         | OpenFOAM: The Open Source CFD Toolbox           |
|  \\    /   O peration     | Version:  v1912                                 |
|   \\  /    A nd           | Website:  www.openfoam.com                      |
|    \\/     M anipulation  |                                                 |
\*---------------------------------------------------------------------------*/
FoamFile
{
    version     2.0;
    format      ascii;
    class       volScalarField;
    location    "0.18";
    object      nut;
}
// * * * * * * * * * * * * * * * * * * * * * * * * * * * * * * * * * * * * * //

dimensions      [0 2 -1 0 0 0 0];


internalField   nonuniform List<scalar> 
5794
(
0.00134289
0.000815949
0.00210431
0.00104701
0.00184864
0.000668591
0.00166663
0.00103036
0.00276826
0.00200192
0.00216152
0.000726188
0.000529994
0.000965898
0.000925195
0.0006308
0.0040966
0.000742053
0.000728507
0.000795344
0.00172683
0.000709504
0.000930493
0.000695291
0.000481486
0.00430783
0.00353476
0.00159168
0.000570537
0.00105047
0.000644647
0.00149486
0.000736948
0.00105822
0.000923535
0.00137871
0.000786107
0.000716466
0.000532246
0.00145628
0.00154032
0.00187863
0.000747608
0.00128827
0.000957382
0.000540118
0.00130823
0.000486376
0.00125141
0.00146893
0.000306702
0.00209173
0.0012178
0.00135785
0.000114784
0.000725705
0.00162026
0.000691609
0.000730909
0.00555241
0.00132634
0.000460134
0.000849153
0.00318501
0.000556931
0.000743339
0.00345483
0.000540341
0.0007764
0.000748494
0.00233807
0.00374912
0.00332631
0.0025356
0.000724867
0.00157768
0.000261582
0.0038807
0.00138344
0.000130412
0.000727993
0.000863057
0.00223227
0.000612889
0.000784403
0.000346257
0.000431902
0.000645876
0.000982534
0.000891459
0.00178798
0.001008
0.00126953
0.00165082
0.000850934
0.00185798
0.0016496
0.00109378
0.000937799
0.00142594
0.00154413
0.000881764
0.000765031
0.00141806
0.000872842
0.00127538
0.000584223
0.000571517
0.0017372
0.00139098
0.000644351
0.00139671
0.00157539
0.000827526
0.000809232
0.00176944
0.000869395
0.00122288
0.00123475
0.00101387
0.00127722
0.000439948
0.000480619
0.00153469
0.0020132
0.0057635
0.000570505
0.000711621
0.00157231
0.00189245
0.000907059
0.000646782
0.000986307
0.00375846
0.0014627
0.00112373
0.00292191
0.000479324
0.000817192
0.00108031
0.00324009
0.00155733
0.00207625
0.00186248
0.0010849
0.00542377
0.000712427
0.00146143
0.00137804
0.00172081
0.000729053
0.00190787
0.00140356
0.000504905
0.00444983
0.000896946
0.000618677
0.000404565
0.00205295
0.000700085
0.000989777
0.000455915
0.000519059
0.000654149
0.00103519
0.00104592
0.000668684
0.000470448
0.000456432
0.000637364
0.000643116
0.000997659
0.000462453
0.000457266
0.000476278
0.0010566
0.0005605
0.000398519
0.00056776
0.0020546
0.000373545
0.00106185
0.000280779
0.000320562
0.000379334
0.00237517
0.00085452
0.000421073
0.000674148
0.000610855
0.00199713
0.00118637
0.000455103
0.000376765
0.000341702
0.000491314
0.000607435
0.000427716
0.000834485
0.00101891
0.00128705
0.00203696
0.000336006
0.00091175
0.00103578
0.000751413
0.000448836
0.000840319
0.00119225
0.00296311
0.00130387
0.000860682
0.00142841
0.000749028
0.00106532
0.000648513
0.00131888
0.000839023
0.00225418
0.00336703
0.000858592
0.000611289
0.00225515
0.000963516
0.00234875
0.00170104
0.000512289
0.00228257
0.000694237
0.00102004
0.000925164
0.000904522
0.000656519
0.00190351
0.000864736
0.00180316
0.00157727
0.0025417
0.000444529
0.000946676
0.000982463
0.00118097
0.00295873
0.000741638
0.000765782
0.000732243
0.00114767
0.00100912
0.00058045
0.000396407
0.00038137
0.000682442
0.00463923
0.000676524
0.00080289
0.00198744
0.00093418
0.0008883
0.000878267
0.00211484
0.00255408
0.00151122
0.000708556
0.000614903
0.0011206
0.000414556
0.00154914
0.00466999
0.0011867
0.000809155
0.00143664
0.000534768
0.00138869
0.00209212
0.000872022
0.000834873
0.00141316
0.00384103
0.00148954
0.000769876
0.000485507
0.00127877
0.00153925
0.0016347
0.000819646
0.00134147
0.00136552
0.000972428
0.00220057
0.00150279
0.00140891
0.000953087
0.000973137
0.00198637
0.000765124
0.00305002
0.00118072
0.00125133
0.000924019
0.000738995
0.00054375
0.00104851
0.000611009
0.00429852
0.000680153
0.00344192
0.00139269
0.000794633
0.00134343
0.00109894
0.000458698
0.00117933
0.00333058
0.000814706
0.00078278
0.000902187
0.000687644
0.00148886
0.001428
0.000800632
0.00214233
0.00281775
0.00114828
0.00145994
0.00084491
0.000572874
0.00293417
0.000623581
0.000423269
0.00213679
0.00189381
0.000829065
0.00038041
0.000479843
0.00105078
0.000927015
0.000693378
0.000413274
0.000523599
0.000397257
0.000501878
0.000330078
0.00257079
0.000790649
0.000640822
0.000281985
0.000317586
0.001133
0.00104709
0.000668961
0.000439795
0.00163081
0.000342796
0.00103391
0.000297054
0.00157243
0.000662745
0.00160379
0.00166503
0.000943132
0.000727708
0.000995476
0.00299712
0.00164965
0.00105092
0.000822757
0.000946972
0.000367485
0.000904365
0.00034339
0.00145899
0.000381768
0.00112168
0.0015408
0.000895231
0.00119278
0.000932945
0.001167
0.000896284
0.000785613
0.00212379
0.00151323
0.000749842
0.00124128
0.00079473
0.000999355
0.001036
0.00255579
0.00100382
0.000758403
0.000547748
0.000548822
0.000718982
0.000717128
0.000444583
0.000487839
0.000471661
0.000997705
0.00181824
0.00112787
0.000692019
0.000529388
0.00250805
0.000300397
0.000657558
0.00345235
0.00129777
0.000920312
0.000804639
0.00168115
0.000944949
0.00100326
0.00400133
0.000707743
0.00107688
0.000837863
0.000252358
0.000904845
0.00096194
0.00153154
0.000871267
0.00102582
0.0010822
0.00142579
0.000567876
0.000449981
0.000564569
0.000839444
0.00083307
0.00103844
0.00295372
0.000784378
0.00172067
0.00223417
0.000899506
0.00085312
0.000557712
0.000729657
0.000956811
0.000596017
0.0008047
0.000805221
0.000433975
0.00050698
0.00413442
0.00176243
0.000845419
0.000751044
0.000734814
0.00393955
0.000773928
0.000757711
0.00235519
0.00087824
0.00111851
0.000496089
0.00155531
0.0011922
0.00108121
0.00227497
0.00102958
0.000720049
0.000979666
0.000939197
0.00153392
0.00207737
0.0020686
0.00218462
0.00399711
0.0013791
0.000155691
0.00142004
0.00493312
0.00136017
0.001505
0.00197166
0.00289056
0.00151618
0.00156353
0.000709832
0.000938827
0.0010565
0.00104354
0.00104368
0.000796883
0.00271765
0.000864395
0.00295358
0.0018356
0.000977371
0.000763662
0.001048
0.00110934
0.0010603
0.00142858
0.00106951
0.00100578
0.00141592
0.000499597
0.00310659
0.00171954
0.00232099
0.00072922
0.000693813
0.00156872
0.000623343
0.000995084
0.00110622
0.00499905
0.000747655
0.00184919
0.00128604
0.00229683
0.00058568
0.000799751
0.000871607
0.00165632
0.000590081
0.000804496
0.00246988
0.00104511
0.000704331
0.00197207
0.00165638
0.00267149
0.000954711
0.00097968
0.00188452
0.000751844
0.000753394
0.00125411
0.000248969
0.00200735
0.00138906
0.00105837
0.00183054
0.000785349
0.0029641
0.00219925
0.00209896
0.000768051
0.00261101
0.000766571
0.000817237
0.00216589
0.000929631
0.000754448
0.00180714
0.000690903
0.000891024
0.00165948
0.00107526
0.000591123
0.00114283
0.000908009
0.00209395
0.00112846
0.000726672
0.000751386
0.00126964
0.00545919
0.000716387
0.00462792
0.00195522
0.000890936
0.00217208
0.000854398
0.0032759
0.000447309
0.000705708
0.00165273
0.00145456
0.00105059
0.0006328
0.00111576
0.000861824
0.0020842
0.000692009
0.00173399
0.00102193
0.00152074
0.00126587
0.00170437
0.00174048
0.00101612
0.00137553
0.00084297
0.00100618
0.00125605
0.00182214
0.000734461
0.000908826
0.000566818
0.00166416
0.00115504
0.00340635
0.000580301
0.00083107
0.000590875
0.00148312
0.000961518
0.00178955
0.00100351
0.0017533
0.000663313
0.00194477
0.00378438
0.000724451
0.000139909
0.00252415
0.00218316
0.00235977
0.00178705
0.00127945
0.000534681
0.000563104
0.00279316
0.000738483
0.000887704
0.000584655
0.000338634
0.0054227
0.00605857
0.000660978
0.00041959
0.000952937
0.00173654
0.00217585
0.00105544
0.000742644
0.00122766
0.000905462
0.000309853
0.001066
0.000726464
0.00109372
0.00430601
0.00080807
0.000703906
0.00167716
0.00152679
0.000881634
0.00195898
0.00135774
0.00279914
0.00174143
0.00105131
0.00103758
0.00119621
0.000631729
0.000438875
0.000967446
0.00147872
0.000671117
0.000507307
0.00327121
0.0027252
0.0009182
0.00129527
0.00118899
0.00104644
0.000907518
0.0010403
0.000983665
0.000702058
0.00100232
0.00217358
0.00142304
0.00137931
0.00110347
0.00242335
0.000943781
0.00233366
0.00127589
0.000775562
0.00100022
0.00184153
0.00208155
0.00185946
0.00106602
0.000864861
0.000945086
0.0014659
0.000862885
0.00090916
0.00274656
0.000680182
0.00132543
0.00159784
0.000659157
0.000996043
0.00213719
0.00451644
0.000930484
0.00195219
0.00171976
0.000711391
0.000423377
0.000539531
0.000769554
0.000625
0.000274421
0.000246962
0.000948478
0.00139581
0.00350523
0.000908103
0.00108716
0.00147947
0.0014643
0.00112817
0.00241179
0.0011092
0.000790123
0.00438504
0.000774833
0.000733738
0.00335969
0.00501425
0.00304811
0.00111948
0.00385586
0.00306388
0.00117276
0.00181139
0.000875273
0.000803314
0.000817504
0.00143356
0.000953493
0.000876323
0.00339202
0.00181451
0.00402085
0.00198584
0.00126476
0.00250485
0.0030307
0.00101337
0.00120411
0.00174519
0.000395176
0.000400721
0.000419166
0.000439898
0.00120724
0.00146156
0.00214733
0.00139004
0.000802699
0.000680846
0.000949898
0.00132256
0.00053788
0.000968957
0.00176259
0.000755145
0.00172017
0.000875276
0.000710511
0.00279731
0.00217533
0.0013443
0.00103529
0.00210624
0.00152042
0.00158769
0.00132433
0.00128027
0.000978456
0.00118708
0.00177786
0.00207384
0.00146256
0.00138797
0.000702848
0.000951516
0.00100829
0.00121443
0.00101068
0.00104046
0.00297578
0.00115967
0.000961367
0.000732349
0.00144064
0.00153879
0.000775903
0.00158438
0.00128232
0.000787839
0.00164561
0.000776254
0.00338434
0.000633596
0.00167017
0.00077941
0.00320507
0.000960554
0.00385903
0.000865994
0.000655635
0.00150248
0.00088337
0.000764681
0.00201143
0.00114306
0.00089001
0.00323342
0.00231131
0.000946462
0.00354142
0.00107346
0.00107223
0.00309142
0.000999252
0.00102606
0.000670661
0.00142268
0.00078508
0.000842514
0.0010998
0.00136367
0.00248122
0.00071318
0.000767986
0.0018793
0.00137759
0.00175792
0.00131838
0.00106284
0.00166911
0.000771367
0.0012648
0.000941658
0.00139726
0.00113863
0.00392416
0.000637432
0.000371406
0.00040445
0.000779187
0.00397259
0.00128205
0.000881684
0.000683439
0.00278294
0.000714376
0.000838903
0.0024965
0.00101071
0.0017826
0.00103356
0.0015618
0.00442583
0.00503032
0.00242956
0.00467878
0.000795842
0.000623084
0.000747249
0.00100186
0.00133575
0.00102649
0.00263123
0.00121602
0.0051748
0.00305956
0.0011817
0.000988921
0.000922349
0.000772787
0.00422192
0.000977854
0.00494096
0.00180123
0.00150037
0.00378089
0.000811524
0.000752754
0.000310649
0.00088685
0.00159718
0.000934952
0.000732136
0.00143745
0.00124237
0.00512191
0.00139439
0.000799113
0.00470584
0.00384064
0.00102987
0.0020073
0.00440251
0.00350637
0.0017297
0.000952603
0.000879104
0.00204303
0.000779279
0.00110781
0.000756193
0.00102924
0.00376042
0.000424997
0.000789976
0.000783747
0.00335391
0.00109134
0.00248383
0.000848252
0.00208615
0.00337641
0.00292796
0.000839525
0.00153809
0.000784788
0.00073112
0.00285057
0.00144075
0.00339657
0.000831375
0.000775886
0.000611981
0.000706246
0.000379512
0.0013203
0.000787074
0.000499782
0.000410213
0.000478983
0.000348707
0.0003452
0.000676874
0.00161484
0.000940646
0.00147878
0.00086079
0.000992043
0.00144838
0.000753426
0.000802391
0.000907635
0.00126125
0.000761229
0.0017054
0.00132005
0.00229595
0.000785641
0.00102092
0.00206582
0.000748248
0.00100624
0.00224374
0.00159582
0.000834017
0.00121539
0.000883037
0.00256497
0.00190206
0.00218695
0.000681526
0.000315648
0.00025421
0.000561925
0.000480252
0.00120683
0.000838731
0.000719746
0.000782812
0.000664918
0.000789193
0.000853182
0.000782961
0.00152166
0.000786663
0.0016416
0.000831529
0.00102267
0.000756469
0.000947041
0.000630862
0.000889527
0.000755965
0.00473226
0.000556198
0.00283047
0.00488371
0.000767793
0.000833651
0.00149947
0.000849184
0.000830122
0.00246896
0.000775985
0.0022269
0.00217901
0.000769432
0.000825976
0.000883361
0.00146143
0.000970871
0.00274891
0.00082622
0.00160117
0.000936264
0.00104345
0.000766534
0.000977179
0.000828604
0.00181619
0.00142507
0.00111872
0.000705464
0.000238701
0.00119035
0.000823762
0.000632648
0.000632993
0.00159643
0.000513416
0.000922731
0.000758219
0.00121503
0.000746672
0.00180318
0.000795758
0.00150138
0.00079024
0.000783762
0.000736492
0.000284021
0.000915782
0.00122076
0.0016554
0.00183127
0.00313088
0.000700541
0.000826508
0.00266451
0.000753678
0.00141906
0.00109494
0.00212139
0.000846071
0.000788403
0.00087491
0.000427537
0.000840808
0.000762041
0.000704291
0.00218552
0.000725565
0.000793043
0.00144192
0.000849474
0.000751877
0.00493258
0.00142806
0.00105734
0.000652403
0.0012833
0.000872443
0.000752512
0.000830511
0.000671006
0.00089655
0.000699322
0.000697026
0.000865936
0.00289234
0.000973881
0.000724375
0.00168525
0.00109101
0.000922589
0.000531443
0.00103645
0.00166017
0.00192394
0.00116915
0.000935917
0.00122821
0.000259827
0.00165224
0.00169245
0.00545388
0.00170019
0.00237612
0.00343419
0.000260226
0.00111701
0.00105035
0.000278836
0.00192497
0.000546942
0.00114774
0.00112396
0.000247753
0.00110615
0.000253362
0.000254779
0.00122084
0.00065503
0.00101941
0.000651538
0.000849149
0.0022395
0.00076781
0.00146336
0.00140348
0.00104252
0.000662571
0.000790049
0.000805526
0.000808575
0.00085934
0.00104063
0.000742333
0.0010476
0.00240568
0.00175637
0.000467736
0.00101595
0.00081311
0.00241495
0.00131672
0.000739799
0.00141146
0.00292855
0.00372855
0.000941992
0.00162136
0.000727423
0.000727326
0.00166363
0.000954713
0.000832483
0.000785227
0.0094671
0.00109636
0.00073649
0.000785312
0.00589898
0.00587392
0.000767026
0.000814365
0.00105679
0.000440532
0.00537655
0.000626322
0.00200816
0.00339103
0.00103156
0.00208928
0.0020482
0.00102142
0.000823308
0.00214833
0.00283648
0.00110597
0.00103857
0.000754709
0.00137215
0.000903485
0.00232022
0.000852626
0.000466767
0.000754976
0.000906081
0.000831914
0.000775946
0.000871138
0.000749832
0.000711394
0.00284975
0.00110753
0.000732178
0.00073906
0.000897971
0.000979525
0.00298634
0.00138473
0.00239315
0.00120866
0.00177087
0.000764839
0.00198148
0.000802346
0.000706658
0.000333087
0.000776642
0.000843145
0.00100984
0.000759619
0.000763425
0.000426802
0.00654143
0.000699552
0.00103875
0.000833453
0.00104228
0.000733856
0.00270031
0.00160312
0.000737439
0.000562244
0.000993762
0.000611413
0.00089665
0.000702018
0.00161389
0.000672438
0.000989185
0.000869631
0.00579326
0.00136573
0.00216507
0.000828287
0.000261043
0.000762915
0.00084443
0.00390775
0.000551689
0.000186579
0.000929151
0.00112321
0.00135601
0.00025141
0.00182123
0.00139576
0.00113077
0.00198594
0.00326709
0.00095418
0.000579288
0.000814246
0.00204632
0.00126264
0.00114182
0.000743151
0.000856486
0.00383963
0.000835562
0.000301939
0.000674841
0.000783469
0.00423992
0.00100914
0.000297444
0.00139161
0.000746897
0.000517656
0.000888847
0.00217265
0.00175116
0.000802453
0.00231992
0.000748029
0.00321963
0.00252153
0.00220799
0.00348058
0.000794918
0.0011039
0.00142093
0.000776044
0.00215824
0.00140293
0.000940218
0.00144222
0.00207071
0.0055513
0.0026334
0.00234482
0.00150181
0.00134865
0.00217495
0.000863838
0.00129705
0.000764051
0.00231076
0.00228956
0.000734198
0.00244049
0.00199855
0.0016662
0.000907639
0.000407622
0.000806319
0.00234644
0.000460383
0.00141404
0.00176209
0.000830677
0.00600856
0.00558527
0.00129095
0.000507802
0.00251628
0.00131479
0.00477073
0.00390769
0.00111884
0.00085403
0.000741836
0.00119504
0.000677825
0.00106193
0.000636074
0.00153056
0.000999878
0.000846923
0.000675023
0.00246195
0.00179841
0.00117687
0.00224197
0.00331888
0.000785898
0.000172244
0.00223418
0.00159073
0.00120093
0.00112385
0.00285776
0.000864307
0.00328016
0.000528187
0.000516292
0.000865968
0.00062654
0.00110251
0.0006618
0.00159759
0.000844253
0.00103991
0.00152861
0.00132948
0.00155111
0.00123672
0.000776003
0.00131102
0.0025325
0.000600964
0.00306716
0.00132337
0.000897488
0.000829453
0.00041514
0.00170286
0.000664188
0.000822209
0.00242028
0.00465826
0.00192658
0.000811979
0.00193785
0.00126797
0.000718271
0.000936274
0.00121988
0.00219548
0.00109922
0.000362641
0.000314951
0.000468451
0.00648987
0.000826451
0.000822915
0.00123637
0.00148742
0.00388918
0.00275925
0.000360074
0.000249127
0.000300005
0.000285664
0.000228173
0.000427235
0.000334854
0.000254382
0.000619568
0.000256632
0.00031208
0.00107295
0.000601082
0.000202886
0.000307982
0.00023919
0.000473354
0.00036229
0.000432036
0.000530577
0.000992379
0.000281191
0.000347393
0.000165507
0.000367383
0.000474347
0.00103638
0.000662187
0.000241597
0.000291928
0.000787411
0.00108123
0.000342457
0.000245245
0.000287443
0.000312526
0.000238726
0.000315396
0.000347534
0.000254691
0.000569902
0.000242645
0.00106549
0.000627276
0.00110327
0.000763431
0.00181574
0.000619193
0.0016288
0.00282307
0.00304899
0.00120556
0.0014951
0.000796766
0.000884506
0.00157494
0.00366154
0.00103911
0.00573767
0.00189001
0.0031534
0.00393684
0.00100785
0.000980507
0.0008006
0.00142387
0.000430547
0.00223494
0.000887334
0.0019705
0.00180112
0.00130715
0.00413051
0.000695332
0.00132166
0.00173025
0.00311217
0.00667568
0.00132565
0.00297966
0.00131464
0.00076101
0.00131015
0.00406982
0.00240921
0.00103558
0.00419288
0.000693649
0.00408334
0.000732367
0.000758755
0.000841698
0.000848835
0.00898551
0.00115808
0.00100829
0.000457685
0.000820452
0.00181575
0.000434378
0.00537955
0.000791445
0.000335556
0.000227032
0.000326895
0.000319721
0.000329561
0.000422695
0.000246272
0.000325715
0.000445899
0.000240878
0.00077823
0.00107926
0.00023166
0.000633524
0.000743332
0.000562393
0.00104811
0.000327848
0.000300752
0.000229688
0.00024275
0.000426303
0.000293166
0.00345234
0.00379334
0.000166944
0.000886556
0.00244567
0.00084869
0.00150481
0.000708726
0.00348661
0.00116241
0.00144598
0.00435043
0.00184556
0.00189152
0.000228353
0.00179943
0.00241447
0.00144336
0.0026647
0.00305756
0.00138878
0.00066396
0.0012508
0.00173985
0.00116275
0.00119824
0.00105029
0.00265322
0.00152379
0.00142393
0.000802886
0.000712452
0.0010324
0.000980217
0.00169807
0.00102616
0.00312982
0.000366535
0.00221594
0.000862106
0.00083681
0.00086247
0.00098773
0.000539718
0.000868587
0.000891181
0.00106112
0.0029156
0.000834639
0.000829009
0.00060444
0.00221209
0.00134696
0.00260897
0.000188835
0.000771978
0.00131185
0.000884877
0.00410377
0.000513243
0.000585667
0.00187057
0.0037654
0.00126966
0.000832658
0.00107639
0.000605559
0.00320077
0.00355615
0.000693184
0.000890355
0.000351411
0.000186951
0.000826003
0.00272132
0.00291407
0.000795215
0.00119879
0.00301666
0.000729719
0.00130959
0.00188359
0.00156938
0.00135383
0.00172032
0.00104515
0.00313896
0.000803218
0.00211538
0.00122552
0.000795226
0.000721969
0.000774117
0.00102801
0.00145206
0.000317903
0.000742696
0.00087994
0.00131381
0.00412812
0.00111413
0.0014114
0.00246494
0.000994197
0.000829539
0.00166254
0.000823157
0.00359817
0.00333331
0.000883034
0.00122316
0.00141327
0.00295421
0.00148042
0.00362825
0.00284972
0.00184269
0.00192939
0.002738
0.00313982
0.00102532
0.000734007
0.00113238
0.00169269
0.00109835
0.00095287
0.000920001
0.00310067
0.00182084
0.00167699
0.00272549
0.00285131
0.00324066
0.000880667
0.00222689
0.000764819
0.000638761
0.00171122
0.00266085
0.000775725
0.00084179
0.00225974
0.00123001
0.00139075
0.00285201
0.00282884
0.00123061
0.00290852
0.00155986
0.000980686
0.00113253
0.00100766
0.00278807
0.00251612
0.00109104
0.00272839
0.00094849
0.00101078
0.000957025
0.000787137
0.000787747
0.00103248
0.00254157
0.000850714
0.000990062
0.000982077
0.000946879
0.0002074
0.000423197
0.00283168
0.00215993
0.00213415
0.00141389
0.00129983
0.00309602
0.00229071
0.00350403
0.00324361
0.000843739
0.00105367
0.00094172
0.00141054
0.0019897
0.00208452
0.00185173
0.00163395
0.00285226
0.00116635
0.00226995
0.000909711
0.00356522
0.00119074
0.000952881
0.0012957
0.000278481
0.00411967
0.00121437
0.000969109
0.000879874
0.000948365
0.000805328
0.00312971
0.00104857
0.000958239
0.00197825
0.00092276
0.00308812
0.00245
0.000686505
0.00308562
0.00109423
0.00152892
0.00232813
0.00112292
0.00173999
0.00263546
0.000839173
0.00337987
0.000710263
0.000855865
0.0032095
0.00258023
0.0031537
0.00195195
0.0012285
0.00147573
0.00294879
0.00094854
0.00403417
0.000926286
0.000764894
0.000693235
0.00119642
0.00236447
0.000830888
0.000977617
0.00227453
0.000706372
0.00180867
0.00378407
0.00260276
0.00185049
0.00249234
0.000999477
0.000709103
0.00172288
0.000844985
0.00295264
0.000856094
0.00358982
0.00183442
0.000793013
0.000999441
0.00222926
0.00343589
0.00165737
0.00190366
0.00225236
0.00200032
0.00164156
0.000875712
0.00182852
0.000807196
0.000423311
0.00393837
0.00266925
0.00254491
0.00246234
0.00196379
0.00364334
0.000769078
0.00108659
0.00310846
0.00114724
0.00088783
0.00190151
0.000871904
0.00217892
0.000812621
0.00270467
0.000846299
0.00206157
0.00126775
0.00125443
0.00426159
0.0014972
0.00163695
0.000727065
0.0033568
0.0009118
0.00196304
0.00205065
0.00110523
0.00150121
0.000897822
0.00140195
0.000410904
0.00401788
0.00455301
0.00171636
0.00136826
0.00103231
0.000931207
0.000966362
0.00107161
0.000565682
0.000831526
0.00424916
0.000552771
0.00178143
0.00138915
0.000956185
0.000975669
0.0017446
0.00146173
0.00279051
0.00198908
0.00127792
0.00135793
0.00156545
0.00308996
0.00239087
0.00258517
0.00134461
0.00246157
0.00195749
0.00133051
0.00285183
0.00216361
0.00141402
0.0012803
0.00198707
0.00168191
0.00145393
0.00180718
0.00165356
0.00223095
0.00036709
0.0015436
0.00155956
0.00196939
0.00150082
0.00140758
0.00241453
0.00234841
0.00213247
0.0010223
0.00147037
0.00166935
0.000844342
0.00243749
0.000787645
0.00194617
0.000806473
0.00220974
0.000733849
0.000249618
0.00402569
0.000813889
0.00055609
0.00129111
0.000763045
0.00170193
0.00176947
0.00164148
0.00237806
0.0033745
0.00221222
0.00103969
0.00147872
0.00071798
0.000725691
0.00123272
0.00142983
0.000291778
0.0008184
0.000266462
0.00271586
0.001336
0.000922819
0.00114222
0.00105908
0.00122381
0.00223063
0.000694539
0.000818469
0.00224867
0.00249857
0.00128863
0.000805304
0.000988111
0.00218805
0.000739309
0.000891619
0.000730415
0.00366091
0.000796587
0.00183487
0.00274783
0.00260254
0.0015475
0.00174403
0.00278829
0.000895846
0.000999632
0.00131406
0.00263761
0.001523
0.00148136
0.000819838
0.00172692
0.000761221
0.000859118
0.00135751
0.00198792
0.000646244
0.000851109
0.000922778
0.00159874
0.00082205
0.00192463
0.0026594
0.000762835
0.00273129
0.00252443
0.00378606
0.000738689
0.000833203
0.00111622
0.00319209
0.000927627
0.00126086
0.00170093
0.000843233
0.000835436
0.0010869
0.000893886
0.00442189
0.00095256
0.000827209
0.00115115
0.002782
0.00129266
0.000845617
0.0013961
0.00158071
0.00258787
0.00358184
0.003613
0.00274841
0.000874047
0.00131283
0.00381798
0.00179869
0.000814583
0.00114417
0.00218982
0.000730198
0.000894917
0.00454521
0.000892447
0.000686076
0.00164858
0.003998
0.00434696
0.00455992
0.0030006
0.00126015
0.00068742
0.00168188
0.000788416
0.00256797
0.00406104
0.00117109
0.00304064
0.00079913
0.000840019
0.00296108
0.000544384
0.000839935
0.00109105
0.00135103
0.00109551
0.00191831
0.000800842
0.00239614
0.00161142
0.000827587
0.00312811
0.00147406
0.00192253
0.0018311
0.00136216
0.00120616
0.000732125
0.000923109
0.00097141
0.0014796
0.0015778
0.000685054
0.000747689
0.00100357
0.00130588
0.00147919
0.000464155
0.00301759
0.00277412
0.0035188
0.000988675
0.0045326
0.00316045
0.00138682
0.000712399
0.000802012
0.00273051
0.00426806
0.00103499
0.00141162
0.00290439
0.00318347
0.000978213
0.00522888
0.00268051
0.00176961
0.000805119
0.000897181
0.000690177
0.000341552
0.000837193
0.00167599
0.00107179
0.00158017
0.00121064
0.00242847
0.00292087
0.00501577
0.000826534
0.00123023
0.00206272
0.00224545
0.00174643
0.00232515
0.00186068
0.00125442
0.0056274
0.00173838
0.00125964
0.00129254
0.00294187
0.00246377
0.00237397
0.000885621
0.00178051
0.00464804
0.0023889
0.00230154
0.00369679
0.00131311
0.00211826
0.00076868
0.000856243
0.00144235
0.00161356
0.00156338
0.00524664
0.00101566
0.000908983
0.00100962
0.00217475
0.0017508
0.0016387
0.00188671
0.000517896
0.000782482
0.000538629
0.000613854
0.00311203
0.000738114
0.00315878
0.00334535
0.00079223
0.000772518
0.0045997
0.00164699
0.00160399
0.00196543
0.00155057
0.00458537
0.00290417
0.00155711
0.000969572
0.00114282
0.00178936
0.00194641
0.000298444
0.000839845
0.00450727
0.00346294
0.00187421
0.00523214
0.000863458
0.000940993
0.00448413
0.00352567
0.00140909
0.00286635
0.00112791
0.000588678
0.0014723
0.00127782
0.00326444
0.00313771
0.0017248
0.00147597
0.00170764
0.00182509
0.00167063
0.00301448
0.00185488
0.00190281
0.00401586
0.00176273
0.00308154
0.00505539
0.000805419
0.000817083
0.000738246
0.000700029
0.00386184
0.00180783
0.0046836
0.000888799
0.00197087
0.00188448
0.00137131
0.00172732
0.0014706
0.0047649
0.00189618
0.000559891
0.000874997
0.00511016
0.00167563
0.00144061
0.00138545
0.00220652
0.000753675
0.00323122
0.00273608
0.00320402
0.00338807
0.00384262
0.00483668
0.00120347
0.0010711
0.00368652
0.00143568
0.000398902
0.000261526
0.00295139
0.00230289
0.00186046
0.00485596
0.00289068
0.0031948
0.0007959
0.0025412
0.00162999
0.000811159
0.0010004
0.00206127
0.0019177
0.00142974
0.000651929
0.000706727
0.00123258
0.000604927
0.00275777
0.00443654
0.000575789
0.00309314
0.00118678
0.00189199
0.00261604
0.00133316
0.000878552
0.00165065
0.000712528
0.00109313
0.00161698
0.00187127
0.00217002
0.00206818
0.001475
0.00320262
0.00244639
0.000764806
0.00498701
0.00180541
0.00286733
0.000945162
0.00154383
0.00343274
0.00122693
0.00467472
0.00128952
0.00399777
0.00316937
0.00335186
0.000844099
0.000866517
0.00122878
0.00156141
0.0031489
0.00259923
0.00148712
0.0027139
0.00243639
0.00105212
0.000757293
0.00225033
0.00171608
0.00361962
0.0023933
0.00332002
0.0011306
0.00074876
0.00128605
0.000585667
0.00450171
0.00139443
0.00409037
0.00636501
0.00128336
0.00312636
0.00165577
0.00218262
0.00133534
0.00183872
0.00107094
0.000763688
0.000668083
0.00137554
0.000775179
0.00135885
0.0016637
0.000877964
0.00180177
0.00300178
0.00282131
0.00170551
0.00240869
0.00229697
0.003189
0.00254224
0.00132139
0.00795285
0.000742295
0.00132752
0.000893127
0.00233003
0.000743928
0.00192959
0.00365447
0.00311763
0.00155038
0.00451879
0.00106512
0.000480259
0.00164161
0.000812202
0.00159595
0.000630099
0.000821907
0.00123836
0.0033079
0.00231247
0.002072
0.00132242
0.00326204
0.00229062
0.00468801
0.000341371
0.00348316
0.00133395
0.0011035
0.00196689
0.000874411
0.00108114
0.00528111
0.00162289
0.00163362
0.00134506
0.00135508
0.003466
0.00342072
0.00406333
0.000985937
0.00288064
0.000566794
0.000811867
0.00270286
0.00603533
0.00121398
0.00101486
0.00103893
0.00124902
0.00106721
0.000309715
0.00444454
0.00243121
0.000797807
0.00336113
0.00329046
0.00163606
0.000892989
0.0014548
0.00109191
0.00174443
0.0021987
0.00196798
0.00126848
0.00135594
0.00462739
0.00256966
0.00342573
0.00056525
0.00160868
0.00113694
0.00106758
0.000483289
0.000795252
0.00185331
0.00403826
0.00112931
0.00319414
0.000708935
0.00244884
0.000794737
0.00154322
0.00284264
0.00107726
0.00137414
0.00119324
0.0015916
0.000848157
0.000783297
0.000770336
0.00391231
0.000853941
0.000911521
0.00228106
0.00275581
0.00228073
0.000897321
0.00175407
0.00135814
0.00195776
0.00320234
0.0048365
0.000741103
0.000601457
0.00143427
0.000410339
0.000375631
0.000399994
0.00174253
0.00268693
0.00169141
0.00355786
0.00281028
0.0015089
0.00194095
0.00170054
0.00105623
0.00206243
0.00125245
0.00139992
0.00159242
0.000860445
0.00164418
0.000393762
0.00198383
0.000755656
0.000810459
0.000841192
0.00127453
0.00507242
0.00256012
0.00146984
0.0013398
0.00495197
0.00219491
0.00184746
0.000468158
0.00127258
0.0021278
0.0011091
0.00173705
0.00319374
0.00115604
0.0023648
0.0012947
0.000599798
0.000702978
0.00531791
0.00197067
0.0020888
0.00267904
0.00146863
0.00308421
0.00255117
0.000993803
0.00121991
0.000960413
0.00195393
0.000767843
0.00063031
0.00209566
0.00395267
0.000903609
0.00113218
0.000727282
0.00405548
0.000842397
0.000806238
0.00078438
0.00182288
0.00283309
0.00213853
0.00336811
0.00242073
0.0021699
0.00256564
0.000714345
0.00150294
0.00275939
0.00243152
0.00081662
0.00177346
0.00128964
0.000745885
0.0018159
0.00281735
0.00213776
0.00224055
0.00137593
0.000966101
0.00232836
0.000487719
0.00432814
0.00181201
0.00206459
0.00217422
0.000832863
0.00228456
0.0010338
0.00459864
0.000579499
0.00200659
0.00207014
0.00107634
0.00598447
0.00352949
0.00121156
0.00248257
0.000733579
0.000708365
0.00119533
0.00519324
0.00192854
0.000808848
0.00266458
0.00206278
0.000468618
0.00147237
0.00182591
0.000921189
0.00272482
0.00189233
0.000845827
0.00086999
0.00101716
0.00315167
0.00104369
0.000869975
0.000846474
0.00147079
0.000764151
0.000818945
0.00207993
0.00113039
0.000804274
0.00436728
0.00181926
0.000799971
0.00122504
0.00241717
0.00144254
0.00287085
0.000866756
0.000371798
0.000928006
0.00115917
0.0017249
0.00153237
0.00116433
0.000754626
0.00197988
0.000802653
0.00109888
0.000805069
0.00229364
0.00146272
0.00166271
0.00195465
0.00177949
0.000710153
0.000785619
0.000733991
0.000817178
0.00204315
0.000438856
0.00134953
0.00184377
0.000363433
0.00147931
0.000726935
0.00117326
0.00179451
0.00181817
0.00161405
0.00173819
0.00202715
0.000910786
0.00260869
0.00476089
0.00161327
0.00146765
0.00226396
0.00256795
0.00165768
0.000799687
0.000806171
0.000712275
0.00223306
0.000912648
0.00325714
0.0029385
0.00540759
0.00153483
0.00186432
0.00101846
0.000731508
0.00476608
0.00155697
0.0020231
0.000281982
0.00161698
0.00154482
0.00152538
0.00404455
0.000978847
0.00148305
0.00184619
0.000978648
0.00150433
0.00107872
0.00177947
0.00184098
0.000760186
0.00262318
0.000892707
0.000750478
0.00278645
0.000950683
0.00218966
0.00206282