/*--------------------------------*- C++ -*----------------------------------*\
| =========                 |                                                 |
| \\      /  F ield         | OpenFOAM: The Open Source CFD Toolbox           |
|  \\    /   O peration     | Version:  v1912                                 |
|   \\  /    A nd           | Website:  www.openfoam.com                      |
|    \\/     M anipulation  |                                                 |
\*---------------------------------------------------------------------------*/
FoamFile
{
    version     2.0;
    format      ascii;
    class       volVectorField;
    location    "0.51";
    object      U;
}
// * * * * * * * * * * * * * * * * * * * * * * * * * * * * * * * * * * * * * //

dimensions      [0 1 -1 0 0 0 0];


internalField   nonuniform List<vector> 
1466
(
(2.68662 -0.212393 -1.8875e-16)
(4.6209 -0.104556 -2.86795e-19)
(-3.51346 -0.0971821 4.85786e-16)
(0.0474838 9.04204 -4.20022e-17)
(-1.48548 -0.71254 -6.35431e-16)
(-2.07583 0.107969 -9.68929e-16)
(-1.57374 0.469291 1.97082e-16)
(3.61544 -0.370817 1.36263e-16)
(7.24301 0.107045 -8.69048e-19)
(4.53794 -0.164929 1.47655e-16)
(5.73681 -0.239298 -2.01651e-16)
(4.72546 -0.506864 0)
(8.31118 0.0615725 0)
(-0.796257 -1.51871 -1.62862e-16)
(-1.1833 0.13142 0)
(4.42504 -0.50177 1.56129e-16)
(2.87581 -1.68235 -8.82604e-17)
(0.0158397 5.09439 -2.70847e-17)
(0.900975 5.43632 -8.5912e-17)
(-0.0472111 7.06601 1.51671e-16)
(0.0810587 7.15843 6.65686e-17)
(-2.14921 0.042989 5.85629e-18)
(0.0167257 6.01499 -6.03377e-17)
(-0.0704096 6.84686 -1.64457e-17)
(8.14818 0.138622 7.82433e-17)
(-0.365927 0.0716191 -2.87437e-16)
(-1.42348 0.580869 -1.33894e-16)
(-0.102573 7.22456 0)
(-1.83582 0.0766106 0)
(4.61517 2.30161 5.40822e-17)
(5.8214 -0.658636 1.34345e-16)
(-0.485214 -0.0364043 1.76193e-16)
(-1.20536 -1.16293 2.10035e-16)
(-0.142491 5.97131 1.54941e-16)
(3.98652 -0.2161 1.00873e-16)
(-0.874978 1.2913 2.34713e-16)
(-0.0125759 5.30583 0)
(2.58452 -0.745375 -2.66069e-16)
(4.91295 0.167992 -2.90444e-16)
(-0.711713 -0.0695648 -4.30578e-16)
(-2.76382 -0.0609719 -1.34641e-16)
(-2.98012 0.0195502 -3.30679e-16)
(-3.10311 -0.104959 1.80257e-16)
(-2.64359 -0.185429 1.21997e-18)
(0.17971 -0.212214 -4.85694e-18)
(3.00314 0.0590024 0)
(6.01561 0.0878318 7.52e-18)
(0.979185 -0.230202 0)
(-1.80961 -0.319549 1.34462e-16)
(0.502455 -0.404304 0)
(-1.19723 0.294221 -1.08581e-16)
(4.53176 -0.0678963 -3.63426e-16)
(-2.21314 -0.0885101 6.44818e-16)
(-0.773991 -0.277563 6.72532e-16)
(-1.96726 -0.694674 -9.80224e-17)
(6.27378 -0.048039 1.30864e-16)
(3.12564 -0.0551675 -1.95129e-17)
(5.65622 -0.0016073 0)
(-0.431527 -0.115053 1.24078e-17)
(4.4879 0.0231212 0)
(0.321778 -0.0686983 2.08361e-19)
(-1.94099 0.0761448 -1.02021e-16)
(0.34365 -0.533033 1.89883e-16)
(4.01366 -0.185773 1.41233e-16)
(1.38876 5.59867 -1.88445e-16)
(2.21462 0.761671 2.28726e-16)
(-0.343941 1.92034 0)
(0.118881 4.89398 3.09049e-17)
(7.07156 0.485426 3.08414e-17)
(-2.0261 0.347175 -1.72706e-16)
(1.18546 0.756409 1.23825e-15)
(-0.113421 5.84155 0)
(-0.0129105 5.76282 0)
(8.0472 0.206114 -1.61566e-16)
(0.0455898 -0.400229 3.03718e-16)
(5.63851 -0.0784824 -1.21788e-16)
(-2.01035 -0.0285053 9.04191e-17)
(0.50578 -0.472337 -1.09998e-16)
(-1.17663 -0.162803 0)
(3.62804 0.756206 0)
(4.08741 0.00867805 -1.36793e-16)
(4.65375 -0.387857 -1.91009e-16)
(-2.12167 1.67257 -2.4885e-16)
(0.880186 3.1467 2.80689e-16)
(-0.10171 4.9527 1.29853e-16)
(0.494022 5.46232 4.79509e-17)
(-0.184179 7.25283 0)
(3.40698 0.249563 1.76695e-18)
(4.69736 0.0931618 2.71901e-16)
(-0.18859 0.454149 -3.294e-16)
(-0.123701 0.0712423 -1.02454e-16)
(-2.08668 0.378411 -2.39689e-16)
(0.156296 6.89372 -4.61614e-17)
(1.60503 -1.05262 -2.04895e-16)
(2.09923 -0.332202 0)
(-2.84761 -0.429905 -3.26467e-16)
(4.41699 -0.123967 3.18114e-16)
(6.04559 -0.0451501 -7.81482e-18)
(6.4432 -0.127149 3.26423e-16)
(-1.89275 -0.355934 8.81325e-17)
(-1.78742 0.248739 5.33714e-16)
(-0.583416 0.0179429 0)
(1.28809 -0.0664801 4.1652e-16)
(-1.01335 -0.508078 3.50239e-16)
(-3.00537 -0.166696 -1.35043e-16)
(3.85188 0.215747 6.42825e-17)
(-2.2835 -0.164261 -2.43248e-17)
(0.234765 -0.411527 0)
(5.04899 -0.427068 1.91591e-16)
(2.8148 0.0269329 6.96776e-17)
(0.169949 -0.0242966 -2.89418e-16)
(4.42622 -0.097159 3.9696e-17)
(1.90268 -0.4703 -3.40651e-17)
(-3.2352 -0.0117724 -4.15719e-17)
(3.98783 -0.327304 0)
(0.479869 0.0755337 9.39395e-17)
(-2.802 0.164003 1.53451e-16)
(3.51257 -0.0376509 0)
(-2.09938 0.233676 1.35563e-16)
(-0.145249 -0.526794 -6.91574e-16)
(-0.267148 8.8873 -3.24968e-17)
(-0.928721 -0.479215 2.70563e-16)
(1.10538 -0.35987 -1.05952e-15)
(-2.33519 -0.285274 0)
(0.500905 -0.191598 -8.88726e-16)
(-1.21678 1.16409 -2.77348e-19)
(6.21991 0.923939 4.98452e-17)
(-0.24414 5.63577 -6.59767e-17)
(0.00580954 6.79279 2.55477e-17)
(0.799445 0.456382 1.87237e-16)
(4.75646 -0.0308641 2.22055e-17)
(-2.43018 0.181577 0)
(-0.147765 6.14317 4.16789e-17)
(-0.0955374 6.92271 3.44035e-17)
(-0.0572827 -0.0251692 -1.66707e-17)
(-2.33748 0.0729412 0)
(-1.32044 -0.353148 0)
(0.807963 -0.6535 -1.07895e-17)
(-2.64916 0.0565562 -8.48514e-17)
(-0.797705 -0.352848 2.33803e-16)
(-0.578842 -0.343702 0)
(-0.0517873 7.24863 -6.5988e-17)
(-0.072752 6.13828 -3.08268e-17)
(0.348375 5.06561 -2.41317e-18)
(-1.53668 -0.545264 -2.44196e-16)
(0.836342 6.1434 1.00588e-16)
(-0.48606 -0.0436294 -3.02678e-16)
(0.504444 0.0720793 -4.7464e-16)
(1.45851 0.680451 -7.39406e-17)
(-0.986657 -1.01406 1.22559e-15)
(-0.0214645 0.0488935 1.91021e-16)
(3.30361 -0.118376 -4.83151e-20)
(6.66432 0.790176 -1.34854e-19)
(1.10509 0.360669 0)
(1.50558 0.675118 0)
(-2.09595 0.133452 2.27439e-16)
(-0.169156 7.0891 -1.60491e-17)
(-0.205334 8.12206 -1.44461e-16)
(-0.219476 0.01312 1.14127e-15)
(5.37106 3.66973 7.28552e-17)
(-0.471139 -0.00077617 1.3333e-16)
(5.16574 1.24979 0)
(0.51201 2.94607 8.28478e-17)
(-0.135479 6.40706 4.55567e-19)
(2.55391 2.52796 0)
(-2.63874 -0.250086 1.52283e-16)
(-0.0226767 6.19723 0)
(-0.197109 4.72551 2.02255e-16)
(-0.128194 6.19361 -3.24963e-17)
(1.94655 8.71543 6.05376e-17)
(-0.108164 6.36592 2.19346e-16)
(-0.415801 0.0776033 -1.28165e-16)
(0.83525 -0.219408 5.37451e-17)
(6.98214 0.637495 -1.61317e-17)
(3.81332 -0.00661082 -2.48334e-16)
(7.53232 0.13354 -3.12414e-16)
(4.97606 2.86611 1.7212e-16)
(3.48067 1.60215 -7.89579e-17)
(0.0246537 0.0130957 -3.90471e-16)
(0.922789 1.06513 -2.59013e-16)
(8.57624 0.150614 3.80105e-16)
(3.85651 -0.126298 -2.57386e-17)
(-0.0883454 4.58728 -2.01424e-16)
(0.832468 0.18595 3.16613e-16)
(3.64704 0.164707 -4.47445e-17)
(0.145469 5.21408 -3.37318e-18)
(-0.102441 4.88804 -1.28042e-16)
(1.93857 4.41946 -1.55374e-16)
(6.90377 0.313535 7.64182e-17)
(-1.24336 -0.183124 4.4041e-16)
(-0.0596236 6.4896 -1.4742e-16)
(0.369499 -0.140877 1.70626e-19)
(0.58838 4.07807 7.25204e-18)
(0.689617 5.88305 2.56893e-16)
(5.73988 3.21156 -4.34963e-17)
(0.292843 0.0999734 0)
(-1.57534 0.402911 3.49985e-18)
(3.2832 1.1009 -3.83469e-16)
(1.28658 2.20524 -2.76289e-16)
(1.51633 5.54319 -5.25682e-16)
(0.348011 3.29344 0)
(1.09765 0.533458 0)
(5.19601 2.10631 -3.15034e-21)
(0.24436 2.2672 0)
(1.33682 0.566297 2.15646e-16)
(1.64285 1.7627 -1.9668e-16)
(0.522093 6.55986 -1.16228e-16)
(6.61205 3.53515 0)
(-0.0695839 0.0836899 1.45422e-16)
(-0.0269828 6.968 2.14756e-19)
(0.538907 5.83087 8.06874e-17)
(-0.0408067 4.98494 -1.22125e-16)
(-0.239082 2.26675 0)
(-0.14209 6.75196 1.61863e-16)
(0.213176 6.96597 -4.1115e-17)
(-0.114884 6.17 2.27537e-19)
(-0.0150362 5.23255 3.34303e-18)
(-0.0983901 4.7337 -1.12084e-16)
(3.52204 4.00149 1.54151e-16)
(-0.0389625 6.55354 2.38532e-16)
(-0.265518 5.25764 -1.53527e-16)
(0.513869 0.0186118 -1.31828e-16)
(-0.0957678 5.99471 -2.41154e-16)
(0.548779 0.137932 2.60486e-16)
(-0.120805 6.06613 1.03094e-16)
(3.46971 3.49095 -1.62276e-16)
(-0.812522 -1.33334 5.2853e-16)
(0.792447 0.54339 -3.04326e-16)
(-0.0167059 0.0734585 -3.15265e-16)
(0.483685 -0.0159339 -3.07355e-20)
(0.686096 0.301447 -6.58916e-16)
(3.90299 0.0689459 2.4293e-16)
(0.901695 4.82769 1.25526e-16)
(0.560402 3.35455 2.2032e-16)
(-0.910052 0.756674 5.89167e-17)
(2.04933 1.29504 -7.7816e-16)
(-0.049351 6.13613 4.52673e-17)
(0.0181481 4.86286 1.92386e-17)
(0.568599 0.262147 2.62787e-16)
(-0.0628167 6.17968 2.79496e-17)
(0.129913 1.74216 0)
(4.00797 0.698058 5.05834e-17)
(5.55833 3.02618 9.18732e-17)
(2.08683 4.13492 2.36795e-16)
(0.112585 0.193679 0)
(5.57475 1.14532 0)
(-0.452462 -0.0249978 0)
(8.44963 0.324985 0)
(2.77528 0.78039 -1.32321e-16)
(5.82831 3.48702 -8.35829e-17)
(-0.057272 5.82528 -6.11713e-17)
(1.17728 6.05715 -2.66995e-16)
(6.80939 4.12816 3.23362e-18)
(3.43238 -0.950418 -1.23418e-16)
(-0.498259 0.0492055 3.26512e-16)
(0.3453 0.0135166 -2.95235e-16)
(-0.21591 7.22091 0)
(8.78535 3.89614 -1.9918e-16)
(0.0130546 3.55836 -8.35839e-17)
(-0.0802433 2.39837 1.25829e-16)
(0.0101786 -0.561146 0)
(-0.191921 6.25639 -2.648e-17)
(-0.0839512 6.933 -4.38269e-17)
(0.510348 -0.0586894 2.43471e-21)
(4.22422 3.73979 1.1679e-17)
(0.679748 -0.0228102 -3.42932e-16)
(3.9995 -0.070943 2.52691e-16)
(1.4784 0.743902 -1.30721e-16)
(0.445008 6.42735 -2.09134e-17)
(9.12493 3.52855 -9.49525e-17)
(1.60911 3.92325 -1.39414e-16)
(-0.0283497 3.55639 0)
(-0.266043 -0.623951 7.56851e-18)
(-0.0117192 0.102848 -1.86714e-16)
(-0.145504 -0.00857735 -4.19954e-16)
(0.71761 0.191199 5.02182e-16)
(0.218832 0.0936181 -2.71967e-16)
(2.66463 5.18163 -1.37918e-16)
(-0.169251 5.85693 -1.46296e-16)
(1.90237 0.818314 2.02042e-16)
(0.363878 -0.0465374 2.37632e-16)
(1.89912 -1.09272 2.7454e-17)
(2.42801 3.63703 0)
(5.025 0.490003 -4.53573e-17)
(0.240516 -1.62273 5.27566e-16)
(0.459263 -0.446567 -1.92785e-16)
(2.50847 1.22331 0)
(2.58233 1.20303 -3.6365e-16)
(-0.417853 -0.116706 0)
(7.71421 3.9898 -3.13284e-16)
(7.44472 1.13749 1.61116e-16)
(2.03886 -0.158537 -2.35742e-18)
(8.50478 0.117428 -3.98772e-16)
(-0.55605 -0.0924812 0)
(3.79766 5.68455 1.19841e-16)
(0.965703 2.34499 -4.20489e-16)
(-0.0364871 3.30674 1.51091e-16)
(0.376563 -0.774153 4.70821e-17)
(2.42737 1.17917 8.95966e-17)
(0.327911 -0.0402142 -2.89382e-16)
(-0.172241 -1.64544 0)
(-0.78261 -0.047574 2.07255e-16)
(-0.452697 -0.222573 0)
(8.66078 0.383881 -2.40859e-16)
(-0.0570752 7.9363 0)
(0.975704 0.350055 1.33058e-16)
(0.0410374 -1.21632 1.51448e-16)
(0.470176 -1.73984 -2.51266e-17)
(3.18364 8.262 -3.00037e-17)
(-0.329016 7.21902 7.68171e-17)
(6.83792 1.83108 1.7554e-16)
(-0.372728 4.27029 0)
(0.00133692 6.20202 -5.12944e-20)
(2.97123 0.327033 -1.60382e-16)
(3.69982 1.79871 -2.13325e-16)
(4.71384 2.79153 -3.2042e-16)
(-0.0926184 0.0152578 0)
(5.1927 3.45632 2.40014e-16)
(0.0347385 -0.892466 0)
(-0.626321 0.168271 3.44037e-16)
(0.0241087 -1.30825 0)
(-0.0477081 3.48958 -1.58584e-16)
(0.067911 1.94128 -7.87535e-17)
(0.219977 -0.0231134 3.7151e-16)
(-0.22429 8.4092 -2.25183e-17)
(7.70334 5.15368 -9.77222e-17)
(0.570354 -0.362667 -9.74669e-17)
(4.7593 3.652 -2.40369e-16)
(-0.056041 -0.0442796 -3.06102e-16)
(2.98802 0.123554 1.92345e-16)
(0.026644 5.60069 1.08533e-16)
(7.76387 4.56976 5.94539e-16)
(-1.95032 -0.791385 -3.85074e-16)
(3.50872 7.04665 2.58816e-17)
(2.33841 2.63963 -1.80241e-16)
(7.02399 1.72873 7.42092e-17)
(2.39664 1.39747 -4.71867e-16)
(0.607225 0.159987 4.58277e-16)
(0.806479 -0.911823 -2.58218e-16)
(-1.34472 -0.883296 -1.83909e-16)
(0.939813 -0.243332 6.75855e-19)
(6.3602 3.08998 7.78664e-17)
(1.78353 -1.74689 4.27235e-17)
(3.17224 3.19531 -3.75588e-17)
(1.53458 8.6838 -6.5853e-17)
(-0.669326 -0.140921 -1.02032e-16)
(5.27107 0.391315 -2.13391e-17)
(3.84252 5.98201 -8.82424e-17)
(6.59005 0.188009 2.84249e-17)
(2.7713 2.20918 1.96619e-16)
(6.17257 4.48353 -2.09195e-18)
(8.43765 2.7072 -5.63476e-17)
(-0.0733608 10.2941 -6.93991e-17)
(0.843905 0.88806 1.43604e-17)
(-0.740463 -0.918151 0)
(0.975005 1.57037 2.54246e-16)
(-0.228968 3.95979 -2.32382e-16)
(3.47329 0.441982 6.33306e-18)
(9.38433 2.46579 0)
(3.48088 7.26418 2.68087e-17)
(-0.324195 -0.328023 0)
(1.3525 2.84432 1.19287e-16)
(1.91793 4.85251 1.22588e-16)
(-0.0955153 2.48866 0)
(-0.216076 -0.506906 -3.43016e-16)
(-0.0332725 1.97064 3.86304e-19)
(6.93726 2.88548 6.22849e-17)
(7.11917 2.45533 5.39078e-17)
(-1.00974 -1.99638 1.84749e-16)
(2.77173 6.76105 4.42256e-18)
(2.99302 8.75281 0)
(0.787408 2.38434 1.26005e-16)
(1.35338 2.86434 -3.65416e-17)
(2.98217 8.2664 -3.58189e-18)
(-0.0399192 -1.53257 6.19295e-16)
(-0.142133 4.09459 4.63165e-17)
(2.89195 -0.533606 -2.89879e-17)
(1.21181 5.24572 8.142e-17)
(0.972431 -1.16935 6.14856e-16)
(3.97321 4.52608 -9.73559e-17)
(0.0102469 1.3773 1.15919e-16)
(0.151851 1.26586 -3.85933e-16)
(-0.00872357 1.90734 -2.20848e-16)
(-0.0476027 2.33148 3.08991e-16)
(0.00615718 1.88303 0)
(0.0751685 1.62773 1.82101e-16)
(1.19472 -2.29643 -2.06329e-17)
(0.628562 -2.62614 -2.05951e-16)
(0.246058 -2.01367 1.79825e-16)
(0.151252 -1.22891 -4.94841e-17)
(0.0303306 -0.599096 2.51047e-17)
(0.234138 0.614588 6.53333e-17)
(-0.261042 1.34027 -6.73483e-17)
(0.0299314 0.445409 -7.76824e-17)
(-0.45445 -0.260847 3.44204e-19)
(-0.226477 -0.801234 1.45945e-16)
(0.137556 -0.568834 -6.5773e-17)
(1.20883 6.93581 -3.30154e-17)
(-0.348213 -0.159353 7.88265e-17)
(-0.414588 -0.833256 0)
(0.143004 -0.0399622 -2.36358e-16)
(0.425671 0.0328505 2.67694e-16)
(1.47329 8.75265 0)
(-1.01585 0.152959 2.83382e-16)
(1.08543 9.61337 -2.21573e-17)
(-0.0666712 -0.150554 6.09061e-19)
(1.52853 7.55539 -3.53531e-16)
(-0.258634 0.488804 -1.32548e-16)
(2.24152 -0.372973 0)
(1.48784 -0.101513 1.19078e-16)
(-0.0222384 0.377142 -1.60659e-16)
(1.26841 6.6657 -1.58365e-16)
(1.00444 3.39557 2.83974e-16)
(0.723251 -0.156452 6.75572e-16)
(2.71135 1.39423 -1.28014e-16)
(-0.820318 -1.06074 0)
(-1.70609 -0.411892 0)
(0.907028 0.906231 1.47502e-16)
(0.194826 0.164303 0)
(0.73166 0.0185646 0)
(0.195739 0.152916 -2.01293e-16)
(-0.552156 0.0802011 4.42105e-16)
(0.460736 0.0572736 0)
(0.964285 4.41302 1.16072e-16)
(-0.376251 0.157079 1.35428e-16)
(1.44863 -0.675408 -2.31417e-19)
(-0.309792 0.561043 4.86496e-16)
(2.02568 0.409279 2.86672e-17)
(-0.799463 0.337763 -7.20515e-16)
(1.1355 -0.638543 3.75146e-16)
(0.599962 -0.103849 0)
(-0.217789 -0.523054 -2.3979e-19)
(-0.40153 -1.02346 6.25314e-16)
(-1.68321 10.0496 2.0898e-17)
(2.10044 -0.0275779 -5.38235e-16)
(-0.105073 -0.993034 -4.4922e-16)
(-0.286871 -0.454725 8.92953e-17)
(0.111756 -0.8516 -8.51289e-17)
(0.0433609 -1.6949 3.31706e-16)
(0.0113744 -0.14425 -4.03875e-16)
(-0.215638 -0.0830993 5.38015e-17)
(0.260613 -0.508181 -1.15029e-16)
(0.845905 -0.281493 2.99737e-16)
(-0.875113 -0.320907 0)
(1.29748 -0.0239775 -3.24223e-16)
(0.66143 -0.376923 1.70592e-16)
(8.39854 0.0719527 8.52531e-17)
(2.12377 -0.0895106 0)
(0.800577 -0.621424 -1.04398e-16)
(1.60077 -0.426526 1.77688e-16)
(2.48462 -0.134027 5.75556e-21)
(1.45473 -0.876317 -1.29571e-16)
(-0.0190326 -0.74225 -5.42518e-17)
(8.69029 0.123371 3.85805e-17)
(-0.0863181 -0.285075 -2.80929e-18)
(-0.0775771 -0.550484 6.83042e-18)
(0.61408 1.50298 0)
(-1.1239 2.2464 0)
(-0.0934748 -0.667294 0)
(1.42212 -0.0800288 2.85461e-16)
(-0.36437 -1.92644 -4.95991e-16)
(-0.167438 -0.682786 -2.98095e-17)
(-0.416803 1.93086 -1.93372e-16)
(-0.335463 2.86808 5.69005e-16)
(1.00026 -0.988935 2.39085e-16)
(0.509636 -1.05612 -1.58079e-16)
(0.0495596 1.20687 -1.41891e-16)
(-0.12153 -0.685269 -4.47485e-17)
(0.12697 -0.57765 -9.09586e-17)
(0.158693 1.05601 7.60326e-17)
(0.00655101 -0.658052 1.85983e-16)
(0.424721 1.7907 -2.14798e-18)
(-0.490813 -1.34475 -6.63198e-16)
(0.561892 0.471809 6.75668e-19)
(1.03252 -0.084012 1.64407e-16)
(-0.253723 -1.07813 1.10529e-18)
(1.20491 -0.242958 -2.41499e-16)
(0.382173 2.80753 0)
(0.513448 2.44245 0)
(1.27068 1.20231 -1.01702e-17)
(2.48736 7.39773 -9.83685e-17)
(0.112083 5.35984 1.9987e-16)
(0.225564 8.2099 -1.38609e-16)
(0.436272 2.83561 8.75822e-17)
(0.846121 1.63684 -3.46434e-17)
(6.73526 4.6712 -1.92237e-16)
(-0.17182 -1.33042 -1.67753e-16)
(1.17874 -0.185198 2.44169e-16)
(0.604777 2.4579 -1.19525e-16)
(1.55913 5.09648 1.13894e-16)
(0.827174 1.16263 1.49169e-16)
(-0.103657 7.27093 4.172e-17)
(1.36863 -2.01861 -1.89869e-16)
(-0.0222484 1.26023 1.36664e-16)
(0.497711 2.17841 0)
(0.0770956 1.3606 3.27401e-17)
(-0.0305717 3.29921 0)
(-0.0431948 2.01349 7.16663e-18)
(4.42781 2.68204 0)
(-0.242705 2.15675 6.80691e-17)
(-0.0896148 2.72396 0)
(-0.19774 3.72834 0)
(-0.448262 3.02146 -1.89069e-18)
(-0.0846808 -1.27326 2.80468e-16)
(0.203757 1.17153 -2.87353e-16)
(-0.0881661 3.46735 0)
(2.27048 7.9111 0)
(1.9332 -0.0614887 2.37525e-16)
(0.587444 -1.28867 1.21773e-16)
(0.0529657 2.35932 0)
(1.69575 -0.0488815 3.00428e-16)
(0.75598 2.1004 -1.61635e-17)
(0.0434849 2.34624 5.73243e-17)
(-0.691735 8.97484 -7.30166e-17)
(0.0177195 3.30775 -9.79941e-17)
(-0.200255 2.43763 -1.04913e-16)
(-0.0779409 -0.2284 -3.20152e-17)
(8.75327 0.125997 -3.58672e-16)
(7.99871 0.22017 9.07311e-18)
(2.42264 -1.09883 5.78875e-16)
(-0.125298 2.85281 -5.56368e-18)
(0.296046 -0.390699 3.75325e-16)
(0.0522489 4.42553 6.71307e-18)
(5.68244 4.74908 0)
(0.581635 2.50409 0)
(0.136417 0.427682 5.03632e-17)
(0.178215 -0.212127 0)
(0.217073 -0.938343 -4.69495e-16)
(0.00894075 0.480742 -6.64934e-17)
(0.315154 3.22501 -1.13777e-16)
(0.546257 -0.635956 2.17333e-16)
(-1.19827 10.0207 -2.42478e-17)
(0.285874 0.814599 -2.81588e-16)
(-0.0169074 1.26757 0)
(-0.0547884 2.11296 0)
(0.0560595 -0.216253 -6.36775e-17)
(5.16834 6.07103 0)
(2.29977 6.51839 0)
(-0.162912 -0.269288 0)
(0.270775 7.85692 -1.46622e-16)
(6.66878 5.38996 7.77534e-17)
(-0.596242 -1.07982 -2.72024e-16)
(0.271339 1.37216 -2.69728e-16)
(-0.207097 1.4142 1.87833e-16)
(-0.0815292 0.459493 8.15738e-17)
(4.42653 7.04073 -3.52825e-17)
(-0.0911778 0.4166 2.43826e-18)
(6.47512 6.10507 -4.12828e-17)
(-0.261981 6.50744 -4.84141e-17)
(1.28542 -0.00469915 1.32072e-16)
(2.27195 -1.33931 2.22724e-16)
(0.128681 -1.35655 9.24609e-17)
(1.14333 0.0359714 -5.33567e-17)
(-0.068083 2.06672 -1.08792e-17)
(-0.81146 9.4729 2.96292e-17)
(0.130854 2.86909 1.73745e-16)
(0.110397 2.48125 -6.91627e-20)
(-0.24242 1.32553 2.89075e-17)
(2.00937 -0.274256 1.42434e-16)
(7.35208 5.73218 -1.74813e-16)
(0.190406 3.58168 1.39721e-17)
(-0.304049 -0.484913 2.21512e-16)
(0.747844 -0.0472 3.04361e-16)
(4.29681 4.658 2.90016e-17)
(8.08762 0.305543 -3.13785e-16)
(-0.335245 0.498279 7.0149e-17)
(-0.0538091 1.25426 8.28886e-18)
(-0.0515957 4.7736 -1.28663e-17)
(2.56054 4.83139 6.28208e-17)
(-0.22019 5.00437 9.46535e-17)
(-0.238176 8.45982 2.06261e-17)
(-0.0939074 5.08655 0)
(0.756476 0.395682 0)
(3.75084 1.93322 5.13701e-16)
(0.936048 1.47356 -6.95358e-18)
(-0.59606 8.96681 5.29322e-17)
(8.58592 3.51331 -4.3199e-17)
(-0.168446 3.93756 2.48473e-17)
(-0.00719267 2.20253 -1.42945e-17)
(4.84524 -0.687352 2.82768e-16)
(1.10787 1.68526 -5.89238e-17)
(-0.207215 5.19299 -4.42418e-17)
(-0.0813921 3.0886 1.01898e-16)
(0.0644222 3.24133 -1.59929e-16)
(-0.14908 1.54267 2.12757e-16)
(0.812463 2.02262 6.69433e-17)
(-0.346539 9.11563 5.35451e-20)
(8.86889 1.81093 1.17309e-17)
(0.181307 1.55876 -1.98246e-16)
(-0.347533 0.464045 -1.115e-16)
(-0.121431 7.45334 -8.39449e-17)
(5.423 6.80988 0)
(-1.15895 -1.39067 0)
(-0.116243 2.97875 -1.05977e-16)
(0.180226 6.36247 1.91946e-19)
(-0.102247 6.25219 3.46263e-17)
(1.53047 5.2911 7.97613e-17)
(-0.54031 10.4812 5.41062e-18)
(1.42395 1.30002 2.53498e-18)
(-0.354516 8.63221 1.70379e-17)
(4.18934 2.28995 0)
(8.40753 4.62256 -5.2554e-18)
(8.17829 4.27226 -8.51613e-17)
(3.6492 8.00452 3.34638e-18)
(0.805525 3.62211 -7.6182e-17)
(-0.994047 -1.06512 -1.97915e-16)
(1.73189 -0.0284788 -2.1753e-16)
(0.735737 -0.24209 -1.45596e-16)
(-0.768859 -0.932903 -1.102e-16)
(-0.152021 3.30286 0)
(0.485227 1.37458 7.71477e-18)
(0.125408 6.38888 0)
(6.24766 6.22426 0)
(5.71678 5.17588 4.45727e-17)
(0.248888 6.66664 0)
(5.66333 3.86395 1.1458e-16)
(4.0035 2.0573 -1.39179e-16)
(5.45869 5.74383 5.15366e-17)
(7.15678 1.30826 0)
(-0.495195 9.28601 -7.37768e-18)
(4.26589 7.54659 1.21609e-17)
(0.351147 -0.964456 3.64409e-16)
(1.04477 -0.0592242 -1.5681e-16)
(7.19326 5.33568 2.42283e-16)
(6.94672 0.0912308 -6.00078e-18)
(-0.136365 2.90323 1.10212e-16)
(-0.374283 6.86222 1.10546e-16)
(-1.06823 -1.39427 1.15522e-16)
(-0.628933 -1.21284 -1.97225e-16)
(-0.11284 4.30325 0)
(1.2478 0.731898 -5.25649e-17)
(7.46967 3.43427 1.13428e-16)
(7.20062 1.63858 -1.17207e-16)
(7.51121 4.64336 6.87504e-17)
(-0.17783 3.84535 -5.30756e-17)
(8.90068 2.8274 6.12716e-17)
(-0.603895 9.30926 -9.9789e-19)
(-0.309598 8.87764 -2.31306e-17)
(2.7307 1.07899 4.13365e-16)
(-0.0352605 8.77673 4.08746e-17)
(-0.272649 6.7826 4.89803e-17)
(0.407653 8.6753 3.12518e-17)
(0.0869268 10.5956 5.75217e-18)
(0.617967 0.140397 2.25386e-16)
(-0.278498 4.99876 -8.93622e-17)
(8.06684 5.0946 -1.02352e-16)
(-0.623359 -1.61447 1.15334e-16)
(-0.117848 4.56777 0)
(-0.101379 10.7068 2.57271e-18)
(4.91738 6.7415 -2.55259e-17)
(-0.179725 3.83533 -5.01543e-17)
(8.52841 0.361926 4.38347e-16)
(3.91278 0.298829 2.43443e-19)
(0.00138288 -1.24838 2.71764e-16)
(0.194953 0.466134 2.37888e-16)
(-0.249815 4.521 1.73936e-16)
(0.697011 -1.27207 1.62479e-16)
(-0.130045 6.54655 1.25874e-16)
(-0.0492968 -0.0548823 3.8812e-16)
(9.26025 1.14955 7.28948e-17)
(0.203858 4.124 -8.26607e-17)
(4.34892 -0.00609246 5.31145e-18)
(0.170763 -0.922353 4.58683e-16)
(8.51066 4.08977 0)
(0.742979 0.657776 0)
(0.424084 0.25146 1.75273e-16)
(-0.568654 3.62193 1.17132e-18)
(1.85837 0.670057 0)
(2.61397 -0.31148 0)
(1.18407 -1.26064 0)
(0.377306 -1.09071 -4.83394e-17)
(0.512878 0.133549 5.99111e-17)
(2.36934 -1.40604 0)
(0.785871 0.255302 9.56427e-16)
(-0.635798 -0.884533 -9.64589e-16)
(-0.272974 -2.04567 1.3945e-16)
(-0.253273 0.0393077 -2.98967e-16)
(-0.504755 -0.165047 2.66054e-17)
(2.5822 0.0183098 1.10692e-16)
(7.92831 2.98541 2.83136e-16)
(0.0166703 8.53072 4.08096e-18)
(-0.480729 -2.18167 -1.9545e-17)
(-0.486756 0.00475325 9.25058e-16)
(-0.0189748 -0.542472 0)
(-0.230508 0.0975139 -4.07234e-16)
(0.392404 -0.0270124 3.00319e-16)
(0.476371 0.183878 0)
(-0.652794 0.046296 2.24583e-16)
(1.73062 0.854375 1.08239e-17)
(-0.551972 0.0405042 0)
(0.076506 0.345492 1.24418e-16)
(8.00508 2.40824 -4.14059e-17)
(8.44427 3.58251 -1.90041e-16)
(1.91791 9.15159 -1.25406e-16)
(-0.027244 0.119838 3.92826e-16)
(-0.708062 0.0452938 -7.78207e-16)
(1.66629 9.73833 -7.29758e-17)
(1.54891 -1.54706 -1.05326e-16)
(0.712445 0.186175 -5.97063e-18)
(0.208597 3.03154 8.76555e-17)
(-0.32644 6.37401 1.34912e-16)
(0.239741 0.146411 0)
(-0.601512 0.0427243 2.08031e-16)
(-0.05211 -0.0419064 0)
(-0.133864 2.79594 0)
(-0.225861 2.403 1.21299e-16)
(1.16744 0.302995 -1.85991e-16)
(0.0537199 -0.774642 9.96527e-17)
(-0.76278 0.0396671 3.7606e-16)
(-0.132148 2.21804 -1.05183e-16)
(0.173592 1.3567 0)
(0.171374 4.27236 8.97559e-19)
(1.78753 -0.573406 3.37857e-16)
(-0.209018 10.3904 2.12643e-17)
(-0.27426 6.98992 5.02547e-17)
(0.00282933 8.39349 1.27328e-16)
(4.2096 1.29898 -5.39894e-17)
(-0.164348 3.5191 -1.3401e-19)
(-0.228133 -1.26593 -1.69789e-16)
(1.5787 0.587792 -1.25462e-16)
(6.3238 -0.0896712 6.53151e-17)
(3.31005 -0.429224 -1.85683e-16)
(-0.517242 0.103334 0)
(0.113821 3.21924 0)
(-0.247757 6.76557 0)
(-0.26655 6.06065 2.57752e-16)
(-0.014632 8.66533 -2.39139e-17)
(0.288241 0.268972 0)
(0.259029 -0.504608 0)
(-0.81271 -0.0867621 6.06413e-17)
(0.995861 -1.66289 8.86446e-17)
(0.194797 4.43726 1.8214e-16)
(-0.0779442 -1.40938 3.82008e-16)
(-1.38907 -1.06987 0)
(0.930574 -0.460273 -5.18003e-17)
(3.06011 1.90473 7.19687e-16)
(-0.097374 6.46854 1.321e-21)
(-0.348873 8.85858 0)
(-0.707071 1.15883 -2.42748e-16)
(-0.124998 6.22034 4.48793e-17)
(-0.0932432 4.8276 8.41165e-17)
(1.62983 -0.0153751 1.22549e-16)
(-0.228218 4.30294 0)
(-2.62683 0.385386 1.40448e-16)
(1.81664 -0.487439 5.33292e-16)
(-0.160366 0.372309 3.24624e-16)
(1.43173 0.167964 0)
(0.0350461 -0.79028 3.00936e-17)
(-0.0581215 1.40966 -1.27545e-16)
(5.85068 1.02975 -1.06541e-17)
(0.00838422 8.55893 -1.32516e-17)
(4.58594 -0.939108 -3.46144e-16)
(-0.38716 0.0500726 1.29557e-19)
(0.330031 0.585701 1.59233e-16)
(-0.229283 5.52612 2.56396e-16)
(2.27297 0.362826 -1.22119e-16)
(1.12334 5.71979 1.31208e-16)
(-0.0688291 8.87333 0)
(8.30501 0.883239 -1.29135e-16)
(0.156504 2.53174 -9.46736e-17)
(-0.0810685 4.97597 6.45576e-17)
(0.428019 -0.541031 2.05305e-16)
(0.994401 0.241253 -5.46375e-20)
(3.28246 1.26837 -4.49894e-17)
(0.477788 3.66657 -5.53072e-17)
(5.40833 2.61007 0)
(-0.115429 7.05527 -2.17113e-17)
(2.59891 2.9346 0)
(1.08958 -0.949873 0)
(-0.0693257 5.07399 2.0359e-16)
(1.81403 -0.025516 -8.17678e-17)
(0.222686 0.243581 -3.90854e-20)
(1.19322 -0.426353 2.61739e-16)
(-0.621496 -0.260175 1.8128e-16)
(-1.0062 0.362825 4.59501e-19)
(-0.120287 4.9569 -3.32614e-16)
(3.97754 1.84132 3.08901e-17)
(-0.385654 0.0708983 4.18408e-16)
(0.295597 0.778843 1.11718e-19)
(1.27737 6.25744 1.75267e-16)
(0.223162 -0.154224 0)
(-0.483932 -0.667589 3.69874e-17)
(-0.0770742 7.15666 2.83276e-17)
(1.58677 -0.211177 -2.37993e-17)
(-0.138316 -0.683851 -7.96567e-17)
(-0.664001 -1.64712 -2.31084e-16)
(0.266622 0.07426 3.75906e-16)
(-0.000750171 4.1635 0)
(-0.211661 3.20121 5.9506e-17)
(2.23942 8.02882 -1.50618e-16)
(0.228634 0.784184 1.35742e-16)
(0.636199 0.11254 -4.60164e-16)
(-0.122042 5.10713 0)
(0.192097 -0.445511 -5.05023e-16)
(2.76385 -0.0966527 -1.08024e-17)
(8.12736 1.44465 -6.49358e-17)
(-0.497261 8.01993 8.44284e-17)
(5.69123 -0.102408 9.23976e-18)
(-1.40319 -0.240164 -2.30816e-16)
(0.966416 0.108657 -6.64209e-17)
(-0.540376 -1.28474 -2.73834e-16)
(-0.316922 -0.85888 -1.80917e-16)
(-0.24514 6.38307 8.78358e-17)
(-0.698147 -2.06007 -2.58504e-16)
(5.75558 2.58934 2.13891e-16)
(0.757817 -0.0537607 -3.88666e-16)
(-0.0856915 -0.660252 1.96576e-16)
(8.28542 0.481005 8.66028e-17)
(-1.6321 0.232008 3.5989e-19)
(-0.044065 8.87754 8.40383e-17)
(-0.0528497 6.62591 4.99335e-17)
(-0.221708 8.31818 -6.09483e-17)
(-0.203223 5.49783 4.05855e-18)
(-0.00598258 6.83176 1.0301e-16)
(1.23764 0.393879 -9.51212e-20)
(-2.15642 -1.22333 1.94399e-16)
(1.00513 -0.218949 -8.66314e-17)
(-0.106644 7.10861 0)
(-0.148791 -0.00189773 -1.99769e-16)
(-0.519305 8.9083 -5.17205e-17)
(4.37011 0.584232 -7.44852e-17)
(-0.14665 3.99403 2.3564e-19)
(-0.546742 0.387202 -3.05939e-16)
(2.56355 1.06522 -1.05314e-16)
(1.5433 -0.633058 1.6618e-16)
(-0.0835514 0.0521955 1.72289e-16)
(-0.0954636 3.34431 0)
(8.60171 1.40094 0)
(8.00545 1.02529 4.76178e-17)
(-0.114486 5.49616 0)
(3.23302 0.801078 0)
(1.99247 0.70788 -2.27239e-16)
(0.0252717 0.495163 0)
(1.49279 -0.333864 1.05662e-16)
(3.08666 0.0856851 1.66284e-16)
(0.00956379 0.684354 6.52113e-19)
(-0.894413 0.634797 -1.1106e-16)
(-0.487798 0.0520009 -4.23492e-16)
(0.0162332 -0.27473 -1.28442e-19)
(-0.149426 -0.0932042 0)
(-0.205848 0.538892 -7.31728e-17)
(-0.212704 5.31781 9.18433e-17)
(0.0865347 3.89032 2.71411e-17)
(2.26316 -0.256239 -6.85003e-19)
(0.719763 -1.17308 0)
(2.02281 8.46274 2.80904e-18)
(1.63243 0.135995 -1.64197e-16)
(-0.237038 6.68881 1.61076e-16)
(4.28568 -0.0528472 0)
(-0.729511 -1.13521 -6.90688e-16)
(2.97734 -1.07163 1.85322e-16)
(5.35045 0.284871 4.36868e-17)
(0.0621771 9.19907 -5.43677e-17)
(0.518126 1.22672 0)
(-0.261119 -0.20274 1.48677e-16)
(1.16153 0.106194 6.675e-16)
(2.57132 0.362156 -9.92813e-19)
(3.93735 0.102613 4.71867e-16)
(3.04416 0.0503947 6.45089e-17)
(-0.515121 10.2481 -1.06948e-16)
(0.590618 2.88559 -3.40958e-16)
(-0.191227 5.50421 -3.25343e-16)
(8.56645 0.225794 6.36569e-19)
(0.701969 -0.249482 -6.52807e-16)
(-0.24741 -0.058741 -1.31945e-17)
(0.9907 -0.216457 2.0545e-16)
(-0.00838645 9.14724 5.86329e-17)
(-0.500984 6.93323 -2.07649e-16)
(2.91943 -0.0591408 2.49689e-16)
(0.267853 1.83095 6.51097e-17)
(-0.303234 0.505886 -8.26402e-17)
(-0.643162 0.059246 5.48337e-16)
(-1.01465 -1.03285 -1.02962e-16)
(-0.123417 0.048974 -7.07167e-17)
(0.525822 2.04317 -1.28299e-16)
(0.503099 -0.0768868 2.43296e-19)
(-0.0116355 4.19621 0)
(0.0870643 5.96695 0)
(0.0549956 5.88456 0)
(0.0757453 5.95424 -4.19138e-17)
(-0.139711 5.7864 2.52986e-17)
(0.00787589 5.73183 0)
(-0.145739 6.14824 0)
(-0.0632412 5.68575 0)
(0.0882501 7.04955 -8.78162e-17)
(0.0645135 5.99107 0)
(0.166375 5.75341 0)
(0.142611 6.77878 8.85419e-17)
(0.0143774 7.0759 0)
(-0.0431871 7.02055 -4.0748e-17)
(0.176696 6.45575 2.14416e-17)
(-0.0334204 6.02848 0)
(0.301009 5.25278 -1.08522e-16)
(0.203443 5.70882 -4.10144e-17)
(0.204738 6.09757 2.4971e-17)
(0.447965 4.48295 1.21284e-16)
(0.545571 3.50862 3.69902e-17)
(0.641924 1.7399 1.99825e-17)
(0.598146 2.59073 -2.18161e-17)
(-0.0601654 6.96257 4.25128e-17)
(-0.05797 6.94461 0)
(-0.0459426 6.92884 0)
(0.0286263 5.9076 4.17789e-17)
(4.43843 -0.0823609 4.65576e-17)
(8.2833 0.0231968 -2.54133e-18)
(-0.836663 -0.0213103 -3.1875e-16)
(-0.451454 -1.5892 -9.54588e-17)
(0.947 0.720572 -1.97116e-16)
(-1.37754 0.567492 -2.16329e-16)
(1.30236 -1.02973 3.06843e-16)
(-0.421392 -1.27636 2.6832e-16)
(-1.60514 -0.00396322 0)
(-0.34529 6.67484 -1.58843e-16)
(0.175511 5.80277 -7.28546e-17)
(-0.284087 5.84856 -4.75445e-17)
(-1.29727 0.272839 -4.52783e-16)
(1.20944 0.185769 0)
(8.63706 2.15247 -1.10722e-17)
(0.404754 -0.613306 -1.61965e-16)
(0.818307 -0.609884 1.92052e-16)
(-1.18003 -1.15455 8.79061e-17)
(1.41738 -0.0555709 8.87005e-16)
(0.00520499 8.12515 1.11155e-16)
(3.05125 -0.0855378 0)
(2.24249 9.57842 3.3654e-16)
(-0.139139 5.40241 0)
(-1.8438 -0.243282 0)
(-0.0488801 6.93004 0)
(-1.89956 -0.338265 7.06564e-17)
(0.747486 -0.304674 1.87454e-16)
(8.77063 0.905006 -2.82904e-16)
(-0.848929 0.0362976 -2.1883e-16)
(8.68477 0.563291 -8.50803e-17)
(0.0654341 1.61617 0)
(1.67718 0.0825861 0)
(-1.57738 -0.941605 -1.20773e-16)
(-0.250151 7.5242 1.82153e-16)
(-1.19644 1.20544 0)
(1.67829 -0.640821 -2.82124e-16)
(-0.117899 0.259514 0)
(-1.60445 -1.36715 0)
(0.0158617 0.146784 3.92181e-17)
(4.40524 0.268339 5.92834e-19)
(-0.277378 7.34868 -4.30628e-17)
(-1.62662 0.173617 -3.45114e-16)
(0.404008 -0.610477 2.79668e-16)
(2.63725 0.13928 -1.59975e-16)
(-0.0374179 5.18527 0)
(6.68495 0.146994 3.50015e-17)
(8.27479 1.86844 0)
(2.0942 0.875863 -3.71247e-16)
(1.49277 0.322308 -2.97996e-16)
(3.1085 1.00461 -3.41406e-16)
(0.79306 0.309803 -2.06887e-16)
(2.67591 1.09132 -1.79883e-16)
(0.983498 -1.32034 -5.99836e-16)
(-0.257034 -0.166298 -1.45106e-17)
(1.70007 -0.171859 6.0719e-17)
(3.00524 -0.10181 -1.37636e-17)