/*--------------------------------*- C++ -*----------------------------------*\
| =========                 |                                                 |
| \\      /  F ield         | OpenFOAM: The Open Source CFD Toolbox           |
|  \\    /   O peration     | Version:  v1912                                 |
|   \\  /    A nd           | Website:  www.openfoam.com                      |
|    \\/     M anipulation  |                                                 |
\*---------------------------------------------------------------------------*/
FoamFile
{
    version     2.0;
    format      ascii;
    class       volScalarField;
    location    "1";
    object      nut;
}
// * * * * * * * * * * * * * * * * * * * * * * * * * * * * * * * * * * * * * //

dimensions      [0 2 -1 0 0 0 0];


internalField   nonuniform List<scalar> 
1431
(
0.00487119
0.0168388
0.000919155
0.000569438
0.00135734
0.00793721
0.00122449
0.0102473
0.00702041
0.000767648
0.00382945
0.013656
0.0127364
0.0020829
0.00172956
0.00128398
0.00188119
0.00103706
0.00179499
0.00145214
0.00504827
0.00480925
0.0055584
0.0159279
0.00584731
0.008797
0.00339962
0.00165259
0.00089602
0.000747328
0.00210516
0.00260231
0.00198159
0.00119592
0.0119156
0.00310597
0.0126127
0.000659278
0.000562287
0.00232652
0.00628963
0.00867838
0.0109864
0.0012026
0.00351116
0.00168766
0.00304377
0.00320958
0.00142876
0.000780194
0.0126641
0.00133727
0.0130799
0.0130908
0.0141345
0.00686002
0.000846305
0.0144315
0.00171852
0.00126173
0.00156853
0.000338961
0.00033952
0.000383566
0.00022822
0.000209881
0.00103555
0.000490803
0.000654746
0.00116856
0.00377424
0.00111338
0.000226788
0.000823819
0.00139443
0.000882617
0.000824669
0.000326007
0.000376303
0.000904804
0.00164904
0.000661288
0.0136352
0.00361865
0.00694695
0.00109161
0.000349061
0.00306351
0.0108069
0.0137961
0.00156861
0.00131245
0.00127162
0.00140807
0.0121115
0.000705032
0.0126967
0.0229124
0.000998442
0.00118475
0.00968315
0.000627397
0.00248686
0.00117916
0.000555567
0.00254583
0.00307301
0.00312043
0.00432854
0.00214596
0.00132716
0.0137687
0.00164891
0.00513063
0.0160869
0.00115076
0.0013079
0.00028169
0.000251477
0.000304229
0.00123398
0.00171915
0.00253382
0.0011716
0.00264815
0.000333502
0.000879891
0.0025677
0.00112982
0.00434488
0.00125946
0.000986189
0.00499023
0.00139781
0.00167654
0.000927029
0.00100544
0.00120027
0.0145349
0.000352537
0.000358614
0.00203358
0.00143919
0.000721201
0.00551302
0.00186572
0.000365049
0.0116206
0.0010558
0.00106039
0.000717407
0.000846687
0.00247387
0.000296279
0.00346683
0.00155504
0.0106518
0.0199028
0.0143044
0.000891378
0.0200911
0.0138313
0.000745156
0.000623253
0.00280118
0.00458184
0.00425291
0.0138184
0.000862072
0.021015
0.0191109
0.0132054
0.00224375
0.0145102
0.0187318
0.00997631
0.00274313
0.00554293
0.0132698
0.0128089
0.000238352
0.0012775
0.0113753
0.018645
0.00592636
0.00132502
0.00151287
0.0205553
0.0025663
0.00772163
0.00242234
0.00260337
0.00270838
0.00341878
0.000240006
0.0203591
0.0233115
0.0114174
0.000688647
0.0018325
0.0143606
0.00083431
0.00380007
0.000666515
0.0134899
0.00255295
0.00249082
0.000535279
0.0157065
0.00272195
0.0020707
0.000535235
0.00307094
0.00255098
0.0129221
0.00144042
0.00288476
0.0117198
0.011624
0.00363642
0.00327804
0.0112662
0.00244693
0.000781664
0.00360445
0.0172691
0.00409204
0.0220552
0.00286114
0.00283329
0.00636697
0.00210188
0.00259786
0.00261007
0.00273955
0.0208372
0.00307619
0.00282024
0.00231648
0.011329
0.00349275
0.0150685
0.0164666
0.00270931
0.00262892
0.00361855
0.0028499
0.00360493
0.00345974
0.000980249
0.00231721
0.0150594
0.000967389
0.00138156
0.00251197
0.00851742
0.00109298
0.0179302
0.02301
0.0027679
0.00164813
0.0141778
0.011527
0.00123873
0.00383276
0.00425105
0.0110319
0.00410182
0.00315726
0.000587688
0.00459494
0.00305179
0.0149568
0.00877996
0.0186473
0.00206868
0.0175495
0.00307272
0.00104613
0.0015271
0.0140515
0.0132229
0.00186012
0.0106462
0.00991595
0.0209739
0.00829817
0.0233634
0.00601758
0.016784
0.000454026
0.00959798
0.0228166
0.0132212
0.00253707
0.00261459
0.00181009
0.00148687
0.00199183
0.00109186
0.0128869
0.000702001
0.0130095
0.0122771
0.00298043
0.00122036
0.0184278
0.0026032
0.00985852
0.0196798
0.0189867
0.000456922
0.000280408
0.0013
0.0083736
0.022736
0.0116898
0.0121039
0.000935795
0.0131789
0.0176813
0.021798
0.000803633
0.0110799
0.00958231
0.000706818
0.000809089
0.00778961
0.0127725
0.00134366
0.00121002
0.00122497
0.00789504
0.00536278
0.00176727
0.0121054
0.00829799
0.0212319
0.00888517
0.00131113
0.000518604
0.0118802
0.0146012
0.0058029
0.0074326
0.00252141
0.0152227
0.0168776
0.0172803
0.0130448
0.00628996
0.00100877
0.0112808
0.0172698
0.00149942
0.00913542
0.00823295
0.00191262
0.0129128
0.00737521
0.00514554
0.00132555
0.00113922
0.0108041
0.00109987
0.00519003
0.00660086
0.017987
0.0026645
0.00208621
0.00366683
0.00186796
0.0122228
0.0144166
0.00616932
0.0190503
0.0185604
0.00521998
0.00921471
0.0190266
0.0144013
0.00774459
0.0050654
0.00150434
0.0167157
0.00800625
0.0139906
0.00699918
0.00942742
0.0142284
0.00579195
0.0139327
0.0138828
0.00131338
0.0223719
0.0122478
0.0135889
0.0134162
0.00622177
0.00929551
0.0168924
0.00636202
0.0231478
0.00864142
0.0056499
0.01311
0.00740763
0.000783886
0.00754958
0.0132928
0.0185498
0.0108622
0.0134704
0.0121962
0.00696364
0.000830626
0.0151178
0.000840435
0.00945583
0.0136537
0.00377808
0.012845
0.0111232
0.0160983
0.0138569
0.0018476
0.00145361
0.00301588
0.00150608
0.0149757
0.0143235
0.0143184
0.0143395
0.0143184
0.0144058
0.014356
0.0144552
0.014175
0.0144477
0.0143529
0.00169229
0.014878
0.00145765
0.000999957
0.000861018
0.00083769
0.000917456
0.000917092
0.00392755
0.0043346
0.00379299
0.000880251
0.00168809
0.00143086
0.00174229
0.0015945
0.00525326
0.0172715
0.00143914
0.00167413
0.00482248
0.000712849
0.0166422
0.00159767
0.00199192
0.000818978
0.00140606
0.0160411
0.000917069
0.0153444
0.00144747
0.00142016
0.00112469
0.00562775
0.0146687
0.0146455
0.0011109
0.000978706
0.000935355
0.00149247
0.00566403
0.000944424
0.0147589
0.00282522
0.00103186
0.00531216
0.00116137
0.000956673
0.00132678
0.00257149
0.0144992
0.0019987
0.00117891
0.00390668
0.00413999
0.00130712
0.00106313
0.0138707
0.00295945
0.00218297
0.00722197
0.00582254
0.00168558
0.000857923
0.013538
0.0150757
0.00156477
0.00466384
0.00401392
0.00171268
0.00410779
0.00409126
0.00106573
0.00121107
0.000730196
0.0014105
0.00696553
0.00532119
0.00439375
0.0147374
0.00361693
0.00584017
0.00297313
0.00134576
0.00740192
0.00144366
0.0126934
0.00229263
0.00166394
0.000741899
0.0158813
0.00943144
0.00999493
0.00530007
0.0138252
0.0031071
0.00500872
0.00172243
0.00808615
0.00174783
0.0138973
0.0012681
0.0054736
0.00814613
0.00363559
0.00492936
0.0132703
0.00156421
0.0137543
0.0134103
0.014029
0.000989245
0.0064773
0.0136471
0.000928072
0.0034467
0.00133703
0.0075176
0.00161866
0.00582904
0.0135373
0.0131571
0.0205907
0.0111602
0.00849668
0.00699587
0.00890652
0.000700108
0.0112301
0.00892419
0.0142447
0.0108265
0.0145345
0.00684142
0.00105257
0.00949467
0.00153525
0.00171671
0.0141833
0.0142226
0.014143
0.00849746
0.00395446
0.0142236
0.0154132
0.00328865
0.00258072
0.00978549
0.00121505
0.00265809
0.0131405
0.00172089
0.0121011
0.0133224
0.00370113
0.0139132
0.00424467
0.0139386
0.0219805
0.015054
0.00166488
0.0102882
0.0129274
0.00788536
0.0112008
0.00705196
0.00173775
0.015499
0.00316432
0.0010474
0.00151192
0.00897802
0.0137616
0.0142081
0.00486277
0.0080233
0.00510917
0.00101775
0.0102388
0.0129981
0.0179793
0.0163524
0.000976443
0.0135599
0.011421
0.00633097
0.0135434
0.00189042
0.012904
0.00850796
0.0125493
0.0108858
0.000240161
0.0145893
0.0143044
0.0125255
0.0111683
0.00832876
0.00430321
0.013371
0.00590694
0.0219928
0.00398646
0.0131868
0.00175088
0.0109556
0.0100539
0.0096316
0.00429782
0.0168746
0.0109945
0.0111466
0.00155083
0.0138181
0.00147798
0.00807195
0.00646685
0.0069282
0.00738664
0.0160967
0.0216793
0.0131503
0.0108958
0.0131237
0.00797578
0.00367043
0.00207543
0.00448764
0.0122371
0.00100372
0.0140612
0.0154257
0.00174844
0.0145055
0.010731
0.00301842
0.00177431
0.00575954
0.00441733
0.0113751
0.0135857
0.00892388
0.0160613
0.00174313
0.000452438
0.00115985
0.0132994
0.00478778
0.00177879
0.0010868
0.00476443
0.00276327
0.00531445
0.000969843
0.000672338
0.0139985
0.00159559
0.00397653
0.000520016
0.0150167
0.00136882
0.0134014
0.014037
0.000835295
0.00182257
0.00184004
0.00144424
0.00147816
0.0146321
0.00999531
0.005835
0.00548037
0.00277679
0.00345001
0.000830267
0.00512731
0.0115709
0.00315917
0.0060835
0.00480248
0.00572253
0.00256481
0.0144817
0.013893
0.00221244
0.00975881
0.00341492
0.0113223
0.00325514
0.00418414
0.000824447
0.0191272
0.0115646
0.00622292
0.00595876
0.00295179
0.00535327
0.00172932
0.00172403
0.00122089
0.000802395
0.00679482
0.00875341
0.00422637
0.0138688
0.00675497
0.00481531
0.00138502
0.00478788
0.0013262
0.0084315
0.0112401
0.010295
0.00141028
0.0163765
0.00474758
0.00725538
0.000862917
0.00710119
0.000949786
0.0182636
0.00562844
0.00335725
0.00163369
0.00139189
0.00309049
0.0014927
0.00147707
0.0126517
0.00861163
0.00950851
0.00257283
0.00423437
0.00566212
0.00644132
0.0131523
0.000331737
0.00661371
0.0111789
0.0022143
0.0143905
0.000942824
0.0139949
0.00100672
0.00119692
0.0141526
0.00582424
0.0138827
0.00236611
0.01411
0.00518827
0.0013949
0.0026224
0.0122249
0.00260243
0.000402324
0.00129955
0.0024908
0.00143027
0.0134241
0.00243867
0.0056384
0.00148787
0.0140542
0.0140529
0.0110361
0.00268163
0.00829696
0.00671884
0.00560441
0.0165794
0.00142007
0.0133059
0.0120597
0.0109497
0.0179133
0.0129779
0.00180803
0.0135826
0.00533749
0.000930485
0.0043266
0.0137982
0.0141918
0.00128394
0.00081362
0.00876603
0.00202963
0.00186892
0.00196707
0.0138497
0.00184501
0.00165366
0.00240094
0.0155415
0.0136818
0.00272162
0.0140296
0.0139606
0.00891182
0.0137886
0.00266984
0.00157822
0.00253324
0.013955
0.0200759
0.00187577
0.017617
0.00653518
0.0214676
0.00293528
0.00205525
0.0105627
0.00856318
0.0010598
0.000478696
0.00636856
0.00499456
0.00112221
0.000620655
0.00874186
0.0153268
0.00567455
0.013291
0.0139482
0.0105125
0.0139108
0.00101882
0.0159927
0.011259
0.014566
0.00994095
0.0111104
0.00123697
0.00361855
0.00151089
0.00114071
0.0020742
0.00977992
0.0036121
0.0145015
0.00110172
0.00421389
0.00419737
0.0112326
0.0155555
0.00758312
0.000811772
0.000890446
0.000852716
0.000738477
0.000786382
0.000932882
0.000879707
0.000617954
0.000741045
0.000661741
0.000669206
0.000698644
0.00102048
0.000753151
0.000659879
0.000657704
0.000790148
0.000830756
0.00078513
0.000783863
0.000748953
0.000754507
0.000754588
0.000779526
0.0134694
0.0168827
0.0007185
0.00606305
0.00663705
0.00430947
0.00237998
0.0090207
0.00242957
0.00211182
0.00346925
0.00164977
0.00583088
0.0168842
0.00445963
0.0011944
0.019057
0.0043163
0.0142053
0.00342907
0.000405121
0.0185527
0.00113606
0.000789132
0.0113952
0.0146565
0.00201199
0.00419621
0.0115559
0.00163373
0.00432725
0.0130865
0.00674265
0.0110536
0.0128943
0.0124771
0.000994894
0.000963859
0.00185236
0.00121527
0.0140817
0.000992316
0.000751848
0.00717254
0.0135883
0.00563143
0.00426376
0.00145028
0.00516931
0.000836344
0.0112823
0.0140339
0.0138414
0.00210024
0.00118713
0.00502459
0.0022111
0.000723271
0.00218855
0.000120329
0.0134019
0.0026045
0.00147038
0.000899871
0.00321163
0.00105998
0.012829
0.00161728
0.0146864
0.0123973
0.00284154
0.00146537
0.0114831
0.0120194
0.0213326
0.00156072
0.00177289
0.00115928
0.00206861
0.000949174
0.0141882
0.00262666
0.00613401
0.0139587
0.000756722
0.0121629
0.00111888
0.00243405
0.00464863
0.00359501
0.00257686
0.00280329
0.00379439
0.00362677
0.0136697
0.00111481
0.0107379
0.00128828
0.000962375
0.00399177
0.00272931
0.0020244
0.000776523
0.0130525
0.0160122
0.0140806
0.000914022
0.0137176
0.0143241
0.00874709
0.00640695
0.00086799
0.000800355
0.000713465
0.000589746
0.0122398
0.0153893
0.000751156
0.0069769
0.00207498
0.0198025
0.0131161
0.00407254
0.00308442
0.00283394
0.0129846
0.00193112
0.0071122
0.0110753
0.014268
0.000120609
0.00397388
0.000138572
0.00981172
0.0132722
0.00217362
0.0128252
0.0124691
0.0159543
0.0096029
0.00256398
0.0119943
0.000676713
0.00214787
0.000362063
0.00132766
0.000844701
0.0135575
0.0125936
0.00870061
0.0123984
0.0124796
0.0193606
0.000472115
0.00112963
0.014445
0.0020628
0.010892
0.00232786
0.0137848
0.0141588
0.00202492
0.000763621
0.00190491
0.00178539
0.00173857
0.00230895
0.00203945
0.00194073
0.00188144
0.00195599
0.000175378
0.000143791
0.00013696
0.000156527
0.000115609
0.000140248
0.0135848
0.00278047
0.0135684
0.00267728
0.00985156
0.000740844
0.00134256
0.0131892
0.000898311
0.00162076
0.0136787
0.00164228
0.00304032
0.00775978
0.000142886
0.00202738
0.00168245
0.0113873
0.0139585
0.00324205
0.0109129
0.00300433
0.00562593
0.0147289
0.0150979
0.00318062
0.00121989
0.00337921
0.0168732
0.00267611
0.0115485
0.00776453
0.00168701
0.00970358
0.000746506
0.00240622
0.00136587
0.000667949
0.00449007
0.00146538
0.000908182
0.00372354
0.00125953
0.00104889
0.0180667
0.0115623
0.00218456
0.00393368
0.0112059
0.00323477
0.000890967
0.00646256
0.0112255
0.00837743
0.00836606
0.00319573
0.00149033
0.00436858
0.00743433
0.000347018
0.0127128
0.00365758
0.00364062
0.0121434
0.000695666
0.00269333
0.00229389
0.00144251
0.0108341
0.00625125
0.0142405
0.00737697
0.00196266
0.0100269
0.0201616
0.00242288
0.014953
0.00164694
0.000718798
0.00101484
0.00171066
0.00274045
0.00110612
0.014902
0.013943
0.00271993
0.00578399
0.0136819
0.00393385
0.0128208
0.00231493
0.00388519
0.00563117
0.0030792
0.0117676
0.00064217
0.00382676
0.00622617
0.00565349
0.0127385
0.0014462
0.000642697
0.00139112
0.0028954
0.00992749
0.0141765
0.00531115
0.0115013
0.00812523
0.00153636
0.0173442
0.00140979
0.00413915
0.00509081
0.00243659
0.00133007
0.0113057
0.00149996
0.00124765
0.00304865
0.0115929
0.00250997
0.0140083
0.00847232
0.00502581
0.0015369
0.000900701
0.000243267
0.0129319
0.00322497
0.0127679
0.00886218
0.0127965
0.0135936
0.0139372
0.00189228
0.00093141
0.00184812
0.00139044
0.0103521
0.00198815
0.0136101
0.0187778
0.00239986
0.00536041
0.0138996
0.0118884
0.0129477
0.00105114
0.00804551
0.00480967
0.00219653
0.00616708
0.00447977
0.00485779
0.0057426
0.00179441
0.014832
0.00349775
0.00147616
0.0114162
0.00697191
0.00988457
0.00523004
0.00772464
0.00937945
0.0114547
0.0133911
0.00399807
0.00148134
0.00269282
0.0037833
0.00149856
0.0137895
0.00882422
0.012964
0.0135684
0.000676156
0.00147514
0.00245817
0.0130231
0.00175215
0.00197336
0.0113548
0.0141038
0.0121888
0.00211887
0.0138029
0.0116431
0.0141469
0.00575286
0.00348051
0.000733844
0.0006695
0.00157902
0.00274836
0.0022535
0.00256899
0.00338671
0.0163549
0.0134383
0.00106322
0.00515006
0.0128156
0.00352775
0.00246665
0.00291803
0.0017386
0.0142941
0.00646637
0.00152147
0.000577142
0.0183458
0.00953162
0.0124825
0.000871924
0.00187337
0.00413104
0.00661042
0.0108442
0.00165806
0.00120848
0.00263023
0.0176182
0.000143483
0.00812163
0.0141818
0.00384573
0.00385361
0.00630747
0.0120216
0.0133201
0.00197357
0.00401708
0.000846714
0.00881632
0.00167636
0.00161775
0.0111627
0.000337286
0.01066
0.00112159
0.0126056
0.000895003
0.000906943
0.000129672
0.00737606
0.00245317
0.00290032
0.00153312
0.0136305
0.00147055
0.00220414
0.00392444
0.0121517
0.00234071
0.00245329
0.00206473
0.00150862
0.00286686
0.0110641
0.01772
0.0016957
0.010083
0.00202863
0.000965019
0.00165107
0.0024566
0.00251922
0.00966493
0.00132821
0.00189166
0.00207902
0.00249131
0.0130846
0.00243833
0.000360297
0.00261529
0.00246688
0.00152799
0.00154771
0.00976761
0.00401599
0.00110309
0.00203997
0.00231593
0.0031015
0.000373805
0.000249853
0.0121063
0.0100893
0.00227395
0.00386649
0.0011686
0.00143185
0.000658658
0.00303281
0.000705285
0.000715857
0.00133899
0.00123793
0.000981043
0.00138551
0.0178603
0.00237475
0.00213285
0.0140051
0.00330289
0.0116043
0.0126718
0.00147847
0.00260506
0.00127517
0.00116621
0.00447016
0.000667415
0.00334122
0.000554152
0.000907595
0.000456436
0.00150997
0.000783784
0.00445889
0.000351133
0.00238484
0.00286942
0.00173916
0.00188797
0.00072573
0.00128745
0.000923147
0.00115361
0.00160277
0.000670556
0.000797077
0.00165906
0.00173577
0.000764683
0.000295281
0.00141319
0.00175829
0.00119721
0.00072299
)
;

boundaryField
{
    frontAndBack
    {
        type            empty;
    }
    wallOuter
    {
        type            nutkWallFunction;
        Cmu             0.09;
        kappa           0.41;
        E               9.8;
        value           nonuniform List<scalar> 
96
(
0.000106877
8.984e-05
8.49316e-05
0.000199698
0.000202427
0.000199138
0.000128271
0.000115176
8.09616e-05
0.000183579
6.27871e-05
0.000159217
9.98902e-05
0.000209342
0.000171015
0.000197769
0.00019712
9.62074e-05
3.92617e-05
0.000140451
4.82826e-05
0.000149988
9.74957e-05
0.00020995
0.000189665
9.71907e-05
0.000106256
0.000101961
8.88248e-05
9.4359e-05
0.000110945
0.000105039
7.47175e-05
8.91293e-05
7.98798e-05
8.07513e-05
8.41401e-05
0.000120771
9.05234e-05
7.96329e-05
7.93688e-05
9.47894e-05
9.94584e-05
9.42236e-05
9.40645e-05
9.00485e-05
9.06907e-05
9.06851e-05
9.35786e-05
9.46849e-05
0.000117735
9.03652e-05
8.70696e-05
1.14369e-05
0.000170091
9.09476e-05
0.000131252
9.5961e-05
8.59083e-05
9.02862e-05
0.000218962
1.13991e-05
1.39365e-05
0.000244056
0.000232617
0.00025995
0.000228687
9.17429e-05
0.000216194
0.00020364
0.000198694
0.000258006
0.00023018
0.000219893
0.000213718
0.000221483
1.92507e-05
1.47265e-05
1.37686e-05
1.66058e-05
1.07025e-05
1.42627e-05
8.90927e-05
1.45486e-05
8.05965e-05
8.38391e-05
0.000167491
2.76977e-05
0.000224904
0.000223352
8.82859e-05
8.07706e-05
1.46596e-05
0.00022331
0.000132083
1.26577e-05
)
;
    }
    inlet
    {
        type            calculated;
        value           nonuniform 0();
    }
    outlet
    {
        type            calculated;
        value           nonuniform List<scalar> 9(0.017987 0.0167157 0.00173775 0.0163765 0.0110361 0.00640695 0.00217362 0.00323477 0.0112255);
    }
    wallInner
    {
        type            nutkWallFunction;
        Cmu             0.09;
        kappa           0.41;
        E               9.8;
        value           nonuniform List<scalar> 
126
(
0.000196444
0.000147473
0.00018042
4.07558e-05
4.08011e-05
4.64776e-05
2.63374e-05
2.39152e-05
0.000122383
5.87092e-05
7.889e-05
0.000137025
0.000404355
0.000131073
2.6376e-05
9.85744e-05
0.000161671
0.000104802
9.83247e-05
3.95207e-05
4.56754e-05
0.000107952
0.000189032
7.99059e-05
0.000139275
0.000134842
0.000152362
3.36731e-05
2.96334e-05
3.63363e-05
0.000144196
0.000196534
0.000280957
0.000137376
0.000292506
4.0957e-05
0.000104381
0.000147077
0.000117025
4.2636e-05
4.36918e-05
0.000166633
8.61813e-05
4.41737e-05
0.000124967
0.000101057
3.53916e-05
0.000307912
2.78757e-05
0.000154436
0.000174588
2.81332e-05
0.00023351
7.08788e-05
0.000123763
0.000176251
5.49269e-05
0.000206097
0.000171917
0.000128847
8.5289e-05
5.70211e-05
3.30621e-05
0.000151571
8.41714e-05
9.72465e-05
0.000141877
0.000152838
6.37844e-05
0.000216971
0.000154499
0.000134086
9.46344e-05
0.000101249
0.0001026
8.79875e-05
8.96349e-05
0.000196894
0.000147956
0.000180083
0.00011726
0.00018589
0.00012455
0.000196347
0.00014247
0.000196907
0.000190795
0.000116041
2.79402e-05
0.000200074
0.000178714
0.000207621
0.000167277
0.000113883
0.000144774
0.000233885
0.000100165
0.000222148
0.000106714
0.000107924
0.000148891
0.000137198
8.04248e-05
6.70684e-05
0.000108392
5.56726e-05
9.54367e-05
4.21571e-05
0.00026573
0.000314682
0.000198623
0.000214309
8.72615e-05
0.000109823
0.000135655
0.000184268
8.07487e-05
9.55743e-05
0.000190264
0.000198538
9.15724e-05
3.47169e-05
0.00016386
0.000200705
0.000140554
8.67307e-05
)
;
    }
    procBoundary3to1
    {
        type            processor;
        value           nonuniform List<scalar> 
48
(
0.0121673
0.00493048
0.00648775
0.0104686
0.00369393
0.00367417
0.00493048
0.00846613
0.0141045
0.00139746
0.00139746
0.00141873
0.00141873
0.00183372
0.00225664
0.00135086
0.00114054
0.00115321
0.00114054
0.00118054
0.00137633
0.00120239
0.00118054
0.00222668
0.00131865
0.000979276
0.00154095
0.00120239
0.00312886
0.00113317
0.00113317
0.00579231
0.00579231
0.0141045
0.00113063
0.00304392
0.0108391
0.00131865
0.013498
0.00324223
0.00183372
0.0126982
0.0136752
0.00118054
0.00215937
0.00106194
0.00370342
0.00165425
)
;
    }
    procBoundary3to2
    {
        type            processor;
        value           nonuniform List<scalar> 
29
(
0.00106445
0.00106445
0.0002865
0.000265932
0.000895868
0.000488499
0.000188284
0.00102606
0.00137909
0.000868858
0.000746175
0.00118152
0.000576262
0.00120346
0.00139882
0.000769477
0.00173186
0.00176251
0.00120197
0.00150582
0.00153423
0.00173186
0.000184065
0.00176251
0.000943629
0.000899289
0.00176251
0.00169997
0.00169997
)
;
    }
}


// ************************************************************************* //
