/*--------------------------------*- C++ -*----------------------------------*\
| =========                 |                                                 |
| \\      /  F ield         | OpenFOAM: The Open Source CFD Toolbox           |
|  \\    /   O peration     | Version:  v1912                                 |
|   \\  /    A nd           | Website:  www.openfoam.com                      |
|    \\/     M anipulation  |                                                 |
\*---------------------------------------------------------------------------*/
FoamFile
{
    version     2.0;
    format      ascii;
    class       volVectorField;
    location    "1";
    object      U;
}
// * * * * * * * * * * * * * * * * * * * * * * * * * * * * * * * * * * * * * //

dimensions      [0 1 -1 0 0 0 0];


internalField   nonuniform List<vector> 
1431
(
(0.358518 3.26112 1.06626e-16)
(1.71096 1.79109 2.40128e-17)
(1.62389 -0.347805 0)
(-0.0233385 0.0112934 2.58496e-16)
(-2.14761 -0.176759 0)
(0.554892 6.84705 1.79899e-16)
(0.357006 -0.0172265 5.41588e-16)
(1.35152 -0.0280071 4.69169e-17)
(0.0330345 7.09218 1.21835e-16)
(0.263285 -0.00965477 5.02135e-16)
(2.90199 10.7475 2.13545e-17)
(5.89213 -0.591705 0)
(0.00127956 2.01924 -1.49555e-16)
(-1.84632 0.0384831 -5.06891e-16)
(2.69492 -0.423651 0)
(0.37349 -0.0244356 -4.70311e-16)
(3.81414 -0.189481 -2.45653e-16)
(-1.33386 -0.411728 0)
(3.88628 -0.420282 -1.97917e-16)
(-1.73849 -0.031388 1.56058e-16)
(4.38836 10.1226 -7.22168e-19)
(-0.965926 -0.0232161 2.09304e-16)
(0.233386 5.39403 -1.40435e-16)
(11.3845 2.08838 -3.50293e-18)
(0.130451 6.66136 1.23967e-16)
(0.188877 1.0284 6.09836e-20)
(1.57868 10.5638 -2.21042e-17)
(1.82584 -1.38308 -3.574e-16)
(-0.101158 5.29891 -4.19057e-17)
(0.212066 6.1789 3.05928e-17)
(0.062776 7.055 -8.2848e-17)
(-0.0287228 6.67456 3.32939e-17)
(-0.0319781 7.01618 0)
(-1.19557 0.179014 -4.13733e-16)
(0.503238 5.66879 -2.43325e-16)
(0.335622 0.11075 0)
(-0.304547 5.57049 0)
(0.458232 -0.124648 -6.47244e-20)
(0.422157 -0.0254792 0)
(0.01547 6.59231 0)
(-0.237726 8.29323 -8.90591e-20)
(-0.403912 7.66816 1.09797e-16)
(0.0694353 1.45766 -1.99925e-16)
(0.467957 -0.0289613 2.40006e-16)
(0.799022 5.74246 0)
(-0.448278 -0.980323 3.36872e-16)
(0.179172 1.13437 2.36121e-17)
(1.08671 10.2335 -6.6731e-17)
(0.404922 -0.0279259 0)
(0.281578 -0.398675 0)
(0.480709 2.61436 0)
(0.490404 -0.0490811 0)
(0.440113 2.97771 2.58934e-16)
(2.07136 -0.13417 1.56176e-17)
(1.29267 1.10858 -1.71312e-18)
(0.283062 1.17716 4.20326e-16)
(-1.28808 0.33218 1.88872e-16)
(4.05754 -0.758851 0)
(4.35867 0.128766 0)
(1.5915 -0.277895 3.98489e-16)
(1.72151 -0.604394 -1.32201e-16)
(0.312524 0.00174131 4.26655e-16)
(-0.166377 -0.0633045 0)
(0.323601 -0.0899986 0)
(0.295554 -0.0070506 1.01996e-18)
(0.203762 -0.0047051 -2.60599e-16)
(2.68215 0.083442 -2.18139e-16)
(0.66576 -0.0813282 -9.20509e-17)
(0.677632 -0.182305 -5.82083e-18)
(-1.2361 -0.309896 0)
(-0.0283909 -0.835121 6.96646e-17)
(-1.36751 0.144006 -1.47174e-16)
(-0.0416489 0.0102993 1.49499e-16)
(-1.09364 0.103006 3.39322e-16)
(-1.92598 -0.101143 3.75512e-16)
(-0.939952 -0.514823 -5.09524e-16)
(2.38321 -0.22237 -2.02494e-17)
(0.0997074 -0.092615 -1.95424e-16)
(0.175763 -0.0242528 -3.22116e-16)
(-0.532039 -0.451711 0)
(3.80813 -0.00604406 -5.7982e-17)
(-0.135749 -0.204685 1.2403e-17)
(4.67417 1.0755 -5.83221e-18)
(1.06075 1.48497 9.6414e-17)
(11.2006 0.717503 2.15173e-18)
(0.0972382 -0.0708793 -1.3491e-16)
(0.356273 -0.110724 0)
(2.0612 0.375255 1.62462e-16)
(9.80023 0.153974 5.6662e-18)
(7.64172 0.942172 1.90501e-18)
(-0.693148 0.720102 -2.60749e-16)
(-1.44322 0.951918 2.66571e-16)
(0.506478 -0.0683409 3.1107e-16)
(0.420891 -0.0501783 -1.61843e-16)
(1.12046 0.75489 8.09993e-18)
(-0.0253892 5.46217 0)
(2.80099 -0.702136 -7.23942e-17)
(4.39352 2.32581 -9.11202e-18)
(0.448126 -0.0157002 0)
(-1.28466 -0.205729 -6.28732e-19)
(0.244064 1.79677 1.48379e-16)
(0.387764 -0.00635461 -7.52275e-16)
(3.55018 -0.0420122 0)
(0.359265 -0.879782 -2.91683e-16)
(0.0365536 -0.100657 4.13562e-16)
(0.0508739 6.04009 1.25115e-17)
(0.0204908 5.86533 0)
(1.1571 7.54463 7.1665e-18)
(0.362213 3.67104 2.69461e-16)
(4.09831 0.0480895 0)
(0.856624 -0.515702 -6.25101e-16)
(-0.0569877 2.72374 -2.76292e-16)
(0.705841 -0.490507 4.95811e-16)
(-0.136973 7.48222 -7.87362e-17)
(1.65286 1.35816 -7.68656e-19)
(-1.72164 -0.307398 6.6616e-17)
(-1.74313 0.15665 0)
(-0.0448507 -0.00741101 -2.70051e-16)
(-0.0498036 -0.0303688 0)
(0.110492 -0.0988126 0)
(-0.293623 -0.363649 -2.4177e-17)
(3.00323 0.0538498 6.76976e-17)
(0.480244 0.0936886 2.45922e-16)
(-1.82509 -0.201123 1.52165e-16)
(-1.0564 -0.64011 0)
(0.180273 -0.0494467 1.93255e-16)
(1.83246 -0.187875 0)
(1.52413 -0.429947 4.59909e-16)
(1.67647 -0.755827 -2.56304e-16)
(0.263062 0.0198214 5.08748e-16)
(3.26049 -0.294588 3.35205e-16)
(-1.61303 -0.0370242 -9.37121e-17)
(0.382965 0.0513526 -1.16563e-16)
(2.86714 0.110031 9.01289e-17)
(-1.65497 0.422627 0)
(-0.250779 -0.193627 -3.82547e-16)
(0.1015 -0.289904 1.77817e-16)
(0.419057 -0.0126557 0)
(9.01005 -0.289063 3.20871e-17)
(0.498428 -0.0227738 2.05961e-16)
(0.401735 -0.02199 0)
(0.12183 7.0525 0)
(4.1021 -0.0572661 7.14943e-17)
(0.199956 -0.392544 0)
(0.334978 3.90035 1.7163e-16)
(-0.0533435 7.0556 -6.39303e-17)
(-0.391177 -0.103191 -2.09684e-16)
(0.303381 2.29197 -2.91352e-16)
(0.340416 -0.0491633 3.44886e-16)
(0.373196 -0.425556 1.718e-16)
(-0.280049 -0.169162 2.66035e-16)
(0.0210986 -0.324734 8.34581e-17)
(0.0156 6.59338 -1.9201e-21)
(0.0650466 -0.056709 -2.4711e-16)
(-0.0276723 6.45589 -3.27184e-17)
(0.43161 -0.176951 -4.05362e-16)
(10.029 0.325992 -2.16459e-18)
(2.55676 3.269 5.70476e-17)
(6.22019 1.11279 -4.74839e-18)
(0.431052 -0.202843 3.30281e-17)
(8.38573 2.24455 -2.63342e-18)
(-0.0669184 2.52258 1.62808e-16)
(0.554195 -0.00683437 -2.10529e-16)
(0.483293 -0.159839 1.4292e-17)
(0.8767 -0.0234068 -5.05912e-17)
(0.067588 4.68907 -1.40434e-16)
(-0.119451 6.17741 4.24464e-16)
(1.47786 0.93436 7.33653e-18)
(0.300443 -0.275926 2.61824e-16)
(3.15195 2.02105 2.03086e-17)
(8.59617 1.29509 -5.6742e-18)
(0.256525 2.80893 0)
(0.0459451 6.70015 -3.00255e-17)
(9.02539 0.0272082 3.57305e-18)
(2.11568 2.17351 -9.63525e-18)
(10.2367 0.147931 0)
(0.302089 -0.0967935 0)
(0.660804 6.91351 -1.03085e-16)
(0.477099 2.99631 -2.46576e-16)
(0.607865 5.20061 -2.60848e-17)
(0.179354 -0.000501042 -5.02628e-16)
(0.487105 -0.0523472 0)
(0.574342 1.94129 6.86281e-18)
(9.96822 2.88423 -2.41162e-18)
(0.84351 6.98736 7.3345e-17)
(0.0621874 4.17129 0)
(0.907998 3.81989 -1.05024e-17)
(2.67466 2.61935 -3.68452e-18)
(0.142005 6.70535 4.72874e-17)
(10.5091 -0.22692 2.11523e-17)
(-0.0571988 6.93378 -5.18521e-17)
(0.0756022 6.53414 -3.0085e-17)
(0.0273252 6.6054 -4.65904e-17)
(1.00567 6.69922 0)
(-0.0607052 0.00844228 0)
(3.10206 4.08807 -5.42965e-17)
(4.44802 2.99311 0)
(0.95933 5.71301 -1.5646e-16)
(0.977693 -0.0231168 3.79065e-16)
(2.36248 0.355838 0)
(1.09676 1.89766 -3.81171e-21)
(0.531001 -0.0223634 -1.23045e-16)
(1.31175 8.84239 -3.60898e-17)
(0.198135 -0.0898875 1.23801e-16)
(-0.0150003 2.51693 -4.98417e-17)
(-0.00939864 6.88418 3.44349e-18)
(0.0257538 5.68123 8.86308e-17)
(0.935985 0.120279 2.92924e-16)
(8.70037 0.48439 -1.11393e-18)
(1.18883 1.60788 -1.61898e-16)
(-1.37501 0.143884 2.86049e-16)
(0.557403 -0.0100899 0)
(-0.0180575 5.90413 2.7945e-17)
(0.225249 6.00606 3.10966e-17)
(10.2225 0.971692 0)
(-0.980903 0.0273873 5.64868e-16)
(0.0148377 6.58503 1.42516e-16)
(1.07987 5.87899 -4.13693e-17)
(0.482085 2.21911 -5.25897e-17)
(1.10292 8.71902 2.39979e-16)
(-0.097774 6.93576 2.27014e-16)
(0.649294 1.7615 0)
(3.41768 0.866485 2.11332e-16)
(0.506713 -0.0871399 0)
(-0.0478441 6.17395 -1.2841e-16)
(8.78027 1.21095 1.85681e-18)
(2.1238 7.28583 -2.97722e-17)
(3.74157 2.14768 1.97688e-17)
(-0.00243284 6.7369 1.57589e-16)
(0.738734 9.03616 4.13427e-17)
(2.02541 0.0877981 2.76853e-17)
(0.0462799 7.04828 6.12614e-21)
(-0.0393502 5.956 -3.48357e-18)
(0.0254077 6.71813 6.36145e-17)
(-0.0184127 6.69886 -3.21728e-17)
(7.28805 1.71616 6.29362e-18)
(-0.0182372 5.9966 0)
(0.389546 5.84269 -3.82554e-17)
(0.00527591 7.064 0)
(0.796473 1.3812 2.73395e-17)
(0.373676 -0.0711597 9.0476e-17)
(1.01937 3.46041 1.16026e-17)
(8.67357 0.805525 -7.44385e-19)
(0.191401 6.593 0)
(0.180479 6.48753 2.35903e-17)
(-0.614773 -1.05799 5.93529e-16)
(0.253304 6.14073 2.38954e-16)
(1.1294 9.1064 0)
(-0.132011 6.59511 -2.86746e-16)
(0.394949 -0.288011 1.95643e-16)
(0.746232 0.143988 0)
(9.89075 0.275592 -2.01689e-19)
(0.435603 -0.170299 3.18089e-18)
(0.442672 0.0584483 -2.0494e-17)
(-0.015583 6.87566 3.99405e-17)
(-0.336976 7.52239 -4.67466e-17)
(0.430395 -0.126713 -2.75897e-21)
(9.00484 1.71267 -4.40981e-18)
(5.94674 2.72785 2.52343e-17)
(0.0589537 6.49401 -4.68512e-17)
(0.069098 2.6168 1.2613e-16)
(9.08974 -0.179379 -2.02992e-17)
(0.519477 2.10227 0)
(0.33016 -0.155431 1.09602e-16)
(-0.00385388 5.43178 2.83463e-17)
(1.34245 7.52754 -5.68193e-17)
(-0.0557157 5.72965 -1.2801e-16)
(1.08015 5.7156 0)
(0.914085 9.87495 6.25508e-17)
(-1.11949 0.130103 0)
(0.918354 2.67123 -5.46674e-17)
(-0.0116981 6.29954 5.74564e-17)
(1.36696 1.47816 -1.14234e-17)
(0.601196 0.869461 5.95181e-17)
(9.02946 1.82604 0)
(0.0136859 6.78991 2.23954e-20)
(9.46069 1.28246 -5.29212e-17)
(1.09942 6.9499 2.32145e-17)
(0.0063372 4.04821 2.17408e-20)
(-0.0137856 4.37998 -7.35945e-17)
(0.21926 3.36249 0)
(-0.306795 5.06336 1.5983e-16)
(-0.0150949 6.94949 8.27622e-17)
(0.457519 1.8687 2.26287e-16)
(0.746716 0.57949 0)
(4.94992 1.76487 0)
(-0.295812 7.63 1.15277e-16)
(5.11361 2.54394 -3.01495e-17)
(10.9135 0.47223 0)
(1.65523 2.15802 -2.42452e-17)
(0.639958 0.121947 -2.42794e-16)
(-0.124954 6.55196 1.2836e-16)
(3.89625 2.79849 -2.29462e-17)
(0.0711375 2.55893 -5.4817e-17)
(0.685872 8.64768 -1.33398e-16)
(0.00984685 6.77894 -3.73671e-17)
(1.99022 5.12848 0)
(0.163247 4.18176 0)
(-0.37667 1.21065 2.066e-16)
(0.0452762 4.01717 8.34952e-18)
(0.354257 2.83134 -1.74497e-16)
(-0.348574 -0.050079 -2.32387e-16)
(1.0672 1.16876 -3.40179e-18)
(0.0509325 1.95132 7.34064e-17)
(0.235543 5.37678 -4.57522e-17)
(0.424127 -0.0822866 -7.40764e-17)
(1.97521 2.65375 1.69364e-17)
(0.0247752 6.3542 -2.67354e-16)
(-0.369282 7.00288 -2.24682e-16)
(2.59343 1.86686 -1.49784e-17)
(3.58977 5.11448 1.87511e-16)
(-0.160476 0.0594489 0)
(0.321558 0.00638622 -1.02562e-16)
(0.269125 1.09981 0)
(-0.00326342 6.91308 -2.27886e-16)
(4.19313 3.457 0)
(0.892651 5.44781 -6.12425e-19)
(0.992706 0.850444 1.51308e-17)
(0.554064 -0.315371 -2.39053e-17)
(6.54972 5.98668 1.12091e-18)
(1.78805 3.09146 1.66847e-17)
(3.62658 3.72208 0)
(-0.376802 -0.224449 0)
(0.0841018 2.0484 0)
(0.90018 6.05533 2.93051e-16)
(0.924936 -0.218701 -2.3808e-16)
(-0.777294 -0.106546 0)
(-0.176735 7.27001 2.52729e-16)
(2.61781 0.525672 2.80666e-17)
(0.460506 0.0374056 9.57291e-17)
(0.373159 4.22748 1.95555e-16)
(0.590181 -0.508199 1.80052e-16)
(-0.110078 7.16301 -2.53066e-16)
(-0.58007 -0.19392 -3.38853e-16)
(0.369979 -0.185916 -2.30262e-17)
(0.0703913 1.89643 -3.3192e-17)
(-0.264266 7.36932 0)
(6.53145 1.8334 4.53303e-18)
(0.918962 6.36753 -1.40535e-16)
(0.495118 1.98686 0)
(-0.166461 -0.0396568 0)
(0.0832476 1.82491 2.64096e-17)
(3.16235 6.52669 7.19349e-17)
(-0.205195 7.74466 0)
(0.0493584 6.98114 1.27127e-16)
(-0.0574836 6.45957 0)
(1.37615 1.80633 1.56236e-17)
(9.70862 0.810754 4.99082e-17)
(2.99276 5.51144 -1.31769e-16)
(0.0101317 2.46072 0)
(0.708128 6.55447 1.54738e-16)
(0.150465 -1.00685 -3.6278e-16)
(0.148371 2.09403 1.80952e-16)
(1.89545 4.16139 -5.80066e-19)
(0.43419 -1.49388 2.72617e-16)
(0.385899 1.7922 -1.58516e-16)
(7.78467 2.48239 1.64927e-18)
(-1.09081 0.689518 -6.89154e-17)
(9.87912 -0.0558655 -7.99071e-21)
(-0.274515 8.02352 -1.81996e-19)
(-0.396142 0.0278538 -4.18397e-16)
(-0.00521029 4.18297 -3.08617e-17)
(0.14956 4.17381 -6.44041e-17)
(0.823587 0.833784 3.62177e-18)
(0.716647 -0.149117 -4.26875e-17)
(6.92887 6.54727 1.38684e-17)
(-0.000494553 7.26111 1.22035e-16)
(11.2543 4.11446 -4.67958e-19)
(-0.189882 6.99409 3.14217e-17)
(0.42753 7.2137 1.07851e-17)
(1.20335 9.11176 -8.42525e-17)
(-1.09255 -0.638278 -1.85852e-16)
(9.37188 0.392014 8.10098e-17)
(0.855424 2.9405 0)
(-0.203938 7.79368 6.55161e-17)
(6.84034 1.34436 -1.02737e-18)
(2.21535 3.76085 -1.70446e-17)
(0.344312 0.696333 -7.28254e-17)
(0.311159 0.520068 0)
(7.00533 2.06202 -2.0507e-18)
(-0.138971 3.0814 3.16295e-16)
(0.894843 6.69543 7.01168e-17)
(0.257889 1.32407 0)
(0.66613 -1.08214 1.47754e-16)
(10.0225 5.6717 -1.13178e-17)
(0.111504 6.8783 3.39403e-17)
(0.63015 3.98924 -4.25572e-16)
(0.0510514 6.81443 1.89732e-18)
(0.886098 6.19137 0)
(0.762701 3.13724 -2.25788e-17)
(0.457354 0.159229 1.57087e-16)
(0.494663 4.07866 -1.24597e-16)
(0.448661 4.04418 1.35505e-16)
(0.424286 -0.0437599 2.49544e-16)
(6.83275 2.68088 -3.23807e-18)
(0.19981 2.34291 -8.38141e-20)
(-0.0870859 4.23961 2.58964e-19)
(-0.0947021 4.46742 -8.80983e-17)
(-0.0883581 7.42709 -2.47642e-16)
(0.33598 6.68337 -3.60677e-17)
(2.16593 4.94452 -6.98008e-17)
(-0.19849 7.76818 1.93237e-17)
(5.10747 3.36907 8.61736e-17)
(-0.327128 7.44929 -1.98048e-17)
(0.370833 0.724147 -8.02385e-17)
(-0.0482636 4.37393 -9.93407e-21)
(0.392508 6.91589 6.55759e-17)
(0.0792171 0.482895 9.94769e-17)
(0.543724 0.305775 3.87818e-17)
(-0.0185843 4.36048 1.16872e-17)
(2.63348 4.58117 0)
(0.846397 5.66449 0)
(0.0076117 4.34891 5.70179e-18)
(-0.0747919 1.62423 1.27817e-16)
(0.125969 6.82832 -1.24843e-17)
(-0.450183 -0.558098 2.13921e-16)
(1.32523 4.61243 -9.16348e-20)
(0.130578 0.732215 0)
(0.734668 6.49727 -1.32683e-16)
(0.0369448 4.32698 0)
(-0.0930385 5.36247 -6.80495e-17)
(-0.0292243 1.91986 -3.78454e-16)
(0.448568 2.04599 -8.93962e-17)
(1.58807 4.44147 2.94352e-17)
(0.0877108 4.28413 1.20609e-17)
(-0.0730805 -1.20154 3.62319e-16)
(-0.776912 0.381806 1.46927e-19)
(2.31515 -0.49436 9.72542e-17)
(0.695241 -0.873422 -2.77708e-16)
(10.9424 1.69849 2.0948e-18)
(-0.108061 3.00985 1.18754e-16)
(-0.16367 3.22021 1.86984e-16)
(-0.202503 3.716 -9.38187e-20)
(-0.202605 3.42847 0)
(-0.243986 3.97524 -1.05375e-16)
(-0.231255 3.77351 -8.2707e-17)
(-0.162072 3.27068 -8.50461e-17)
(-0.223856 4.1396 -1.53473e-16)
(-0.202734 3.40391 2.60465e-16)
(-0.212711 4.07307 6.74158e-17)
(0.477426 -1.90934 0)
(9.39758 0.078082 4.54746e-19)
(0.217437 -1.59003 -9.84331e-17)
(0.306989 -1.09862 2.92931e-16)
(-0.153241 -0.756347 -4.31673e-16)
(0.20524 -0.587531 1.18495e-18)
(0.28501 0.328362 0)
(0.597379 0.247503 -1.00856e-16)
(2.22064 0.788579 4.51347e-17)
(0.400952 0.361696 6.45155e-17)
(0.503044 0.53953 5.99807e-17)
(0.159164 -0.411848 -2.75288e-16)
(0.448892 -0.0287151 -1.95776e-16)
(-0.221519 -1.00519 0)
(0.442594 -0.0316758 -1.03819e-16)
(0.44243 -0.0260198 3.29823e-16)
(0.389481 0.0413171 9.13659e-17)
(7.03255 0.108962 -2.21805e-18)
(0.238042 -0.432042 0)
(1.01132 -0.200031 2.8526e-16)
(0.253767 0.211503 -1.23296e-16)
(0.390762 -0.421124 2.43877e-16)
(7.09023 -0.142684 -2.99068e-17)
(0.462416 -0.0222422 -3.03668e-16)
(0.744058 -0.0642981 -1.78121e-16)
(0.389543 -0.434238 2.87174e-16)
(-0.0858118 -1.64851 3.15001e-16)
(7.06193 -0.345316 1.21055e-19)
(0.239818 -0.397303 -2.67589e-16)
(7.24775 -0.46093 -2.57268e-17)
(0.470754 -0.0331128 -7.8504e-16)
(0.475132 -0.0415248 0)
(-0.161952 -1.66485 -1.05376e-18)
(0.655036 -0.222911 0)
(9.07344 -0.230203 3.47474e-17)
(9.81076 0.0340995 1.02744e-16)
(0.0746098 -0.263214 1.54905e-16)
(0.260772 -0.351931 -1.3498e-16)
(0.0518193 -0.151021 7.39251e-16)
(0.452403 -0.0583072 0)
(0.133441 -0.287456 0)
(-0.0698282 0.207993 0)
(8.84335 -0.20075 2.37496e-17)
(0.368956 0.0455354 2.48775e-16)
(-0.67955 0.0759419 1.8084e-17)
(0.80103 -0.415133 2.38856e-16)
(-0.185134 -1.10341 0)
(-0.385521 -0.327932 0)
(0.978157 -0.893214 2.12672e-17)
(0.147703 -0.104408 1.89955e-16)
(8.20892 -0.206695 -6.88263e-17)
(0.451258 -0.0629957 2.41827e-16)
(0.926853 -0.991799 1.62656e-16)
(0.25398 0.172658 3.31408e-16)
(1.41393 -0.562197 -2.87127e-16)
(-0.34139 -0.416233 -1.96344e-16)
(1.02986 -0.928936 1.45987e-16)
(8.04636 0.0229388 1.52518e-17)
(0.47538 0.0679392 -2.96469e-16)
(-0.602677 1.65058 -4.29539e-16)
(0.0644423 0.847743 1.43903e-16)
(0.327364 0.580615 -3.97179e-16)
(-0.307654 1.57433 8.11102e-16)
(-0.0237315 0.331508 -2.02244e-16)
(8.28361 0.387686 -3.18893e-17)
(9.77871 0.322966 -8.27175e-17)
(-0.0937261 -1.47141 -2.98993e-16)
(0.43556 0.312594 2.29292e-16)
(0.442859 0.301771 2.05504e-16)
(-0.376834 1.24057 0)
(0.348059 0.290564 2.43984e-16)
(0.730452 -1.05329 2.89392e-16)
(-0.0618336 0.502506 0)
(0.644027 -1.08417 0)
(0.135199 0.355281 2.20706e-16)
(0.287652 0.0768771 -2.38605e-16)
(0.171911 0.745627 -7.49206e-17)
(0.252272 0.448343 1.37255e-16)
(-0.454447 -1.47418 1.68042e-16)
(9.46089 0.532127 -2.56553e-17)
(0.504154 2.49521 0)
(0.411172 0.651071 -3.68006e-16)
(0.194547 2.04808 -1.70302e-16)
(0.435147 -0.0121801 -9.58568e-17)
(0.245112 0.832465 -9.54224e-17)
(0.323801 -0.0656607 -1.32027e-16)
(8.64199 0.918268 5.32827e-17)
(0.0285956 6.49906 -3.30894e-19)
(0.961433 -1.76674 0)
(0.110207 0.282303 2.66449e-17)
(1.38967 2.18653 1.04968e-16)
(0.336003 1.56489 -2.23143e-16)
(0.170484 1.30324 0)
(-0.340136 -0.548216 0)
(-0.23403 4.57974 0)
(0.509838 -0.630001 3.9918e-16)
(0.250792 1.14514 2.43891e-18)
(0.437435 5.73471 2.49672e-17)
(0.182328 0.935865 6.0193e-17)
(1.66419 -1.05029 2.04624e-16)
(-0.0536998 3.65743 1.2314e-16)
(-0.0906544 0.418566 -3.21346e-16)
(-0.19272 7.03921 -4.66607e-17)
(0.385037 1.14985 4.10687e-16)
(-0.0482829 3.46587 3.22299e-16)
(0.269347 0.934337 5.56056e-17)
(0.709677 2.43601 -6.30692e-18)
(0.801108 7.34466 -4.2897e-17)
(-0.0685537 3.92081 0)
(-0.265503 5.01796 0)
(0.806371 4.20062 1.84504e-16)
(-0.08382 0.34154 3.77513e-16)
(-0.180913 7.7262 0)
(0.248709 4.5241 -2.64893e-16)
(-0.00276367 -0.278036 -4.35506e-16)
(-0.337955 0.782727 -6.12562e-16)
(0.33221 -0.111055 2.2065e-17)
(-0.0123204 0.899232 -1.39115e-16)
(0.512409 6.53135 3.02741e-18)
(2.7353 7.60352 0)
(-0.256813 4.93218 2.94613e-17)
(9.37983 1.52614 -4.88715e-18)
(4.25639 4.66461 5.40492e-17)
(0.0212958 1.98679 0)
(5.51117 8.34263 0)
(0.0329142 1.56079 7.70954e-17)
(0.377034 1.74973 0)
(0.499498 -0.127295 -1.42917e-17)
(-0.0314497 1.38586 -8.95933e-17)
(-0.310973 7.27446 1.18703e-16)
(0.0632063 3.65266 -2.64477e-17)
(3.92758 7.40637 -3.02984e-17)
(-0.200153 3.27892 -5.02054e-17)
(0.412125 0.782474 -1.04808e-16)
(0.0480381 1.01657 9.26144e-17)
(0.914655 6.39678 3.7876e-17)
(0.341197 0.00100728 1.71075e-16)
(-0.138177 4.7354 0)
(-0.136173 2.6248 1.08029e-17)
(-0.101754 2.73321 -8.94424e-21)
(0.0198313 3.66254 0)
(2.10202 7.83899 2.06378e-18)
(1.00325 4.74554 1.4692e-16)
(1.38735 5.28578 -1.00703e-16)
(1.73637 5.18504 1.37954e-16)
(-0.00730955 6.49968 -7.63618e-21)
(0.0782202 6.83763 -1.07171e-16)
(0.414574 1.63273 -5.23287e-16)
(0.0487173 1.0608 0)
(0.541992 1.08639 1.11563e-16)
(-0.0803291 1.93884 -2.67531e-17)
(-0.462408 5.58948 2.87449e-17)
(0.44486 2.40823 -1.19404e-19)
(0.585009 2.78396 -1.1428e-16)
(-0.134236 6.07923 -1.56775e-19)
(-0.147672 4.02787 0)
(-0.613457 -1.21229 -1.79315e-16)
(0.703087 4.28031 3.43006e-16)
(3.33205 2.80657 0)
(8.81994 0.239277 2.14796e-18)
(1.16928 8.70325 2.69699e-17)
(0.143048 1.39243 7.03704e-18)
(0.102452 4.98908 3.53992e-17)
(0.320564 1.28317 0)
(1.64346 6.79291 9.55187e-17)
(1.13218 6.55101 -1.78976e-16)
(2.64623 12.5546 4.80693e-18)
(2.3268 5.84905 5.02871e-17)
(0.292945 0.0515596 -5.76951e-17)
(0.507835 -0.754978 -2.70484e-16)
(0.325931 -0.028297 8.73311e-17)
(0.042009 1.56413 -9.0947e-17)
(0.38599 3.81934 2.24549e-16)
(-0.153165 2.58408 -1.40884e-17)
(-0.0428279 6.34474 -5.34738e-17)
(-0.224853 7.31563 1.25422e-16)
(11.0306 0.095535 -1.0187e-17)
(0.40577 -0.213828 -5.41878e-17)
(0.223105 0.900941 -1.13858e-16)
(0.676437 5.13507 -1.98698e-17)
(2.07912 1.62162 -1.0892e-17)
(1.43101 2.60206 -2.08125e-16)
(0.0699655 0.960763 -9.21753e-17)
(0.377753 4.45073 1.2922e-16)
(0.0205483 1.94233 8.25529e-17)
(0.861511 6.98565 -6.54487e-17)
(-0.191713 4.6434 -1.46038e-16)
(0.14334 0.68811 0)
(2.3443 6.83558 -4.9793e-17)
(0.493699 1.25277 0)
(0.017805 2.14143 9.68289e-17)
(0.322757 1.95157 0)
(0.295322 -0.00051348 5.15231e-16)
(-0.195698 3.15515 -1.51466e-16)
(0.0966469 3.63372 3.20383e-17)
(1.34461 5.98863 7.65835e-17)
(4.82479 -0.0829031 -5.91876e-17)
(0.614329 0.479915 1.32969e-16)
(0.0380421 5.33474 -1.41666e-16)
(0.952413 1.85318 6.42179e-17)
(-0.178431 7.54867 -1.22564e-16)
(4.81005 4.09799 -1.69799e-16)
(0.3721 -0.0185889 7.23678e-17)
(0.158805 4.85864 0)
(-0.266672 5.63386 -2.70112e-17)
(0.0353565 1.73253 6.62701e-17)
(1.16713 6.62102 -1.8582e-17)
(0.942936 5.96923 1.06382e-16)
(-0.0532602 -0.574375 1.53e-16)
(1.59173 3.51531 1.5642e-17)
(0.0246269 1.30136 1.17227e-16)
(-0.335029 6.40698 -4.63073e-18)
(-0.0111889 4.7293 1.20321e-16)
(1.76921 6.00132 -8.9055e-17)
(0.297997 -0.86516 6.45442e-17)
(1.02953 6.31517 -6.29948e-17)
(0.0838456 6.56704 -1.35777e-16)
(1.27186 7.4171 -4.40256e-17)
(0.373738 0.118645 0)
(9.35536 0.637044 -1.27567e-16)
(7.65452 2.48057 8.57746e-18)
(-0.13869 4.73915 9.47955e-17)
(0.113312 1.49796 4.94144e-16)
(0.0317413 2.51027 2.78155e-17)
(-0.0548698 0.981109 0)
(1.92498 0.0147017 -1.61839e-16)
(-0.891301 0.890635 6.27066e-17)
(0.519219 -0.245134 -2.97073e-16)
(0.383162 2.47736 1.42917e-19)
(-0.0012449 -0.658775 -1.64825e-17)
(0.152852 4.23899 4.32236e-17)
(1.90323 1.10735 -6.76964e-18)
(9.48034 0.486403 0)
(-0.212189 4.05797 0)
(0.117435 1.15743 -5.78015e-17)
(0.173841 -0.746438 2.28854e-16)
(10.0786 0.55041 0)
(-0.0861392 -0.102721 4.82688e-19)
(1.04845 6.47914 -2.47878e-16)
(0.836912 1.1454 0)
(1.08038 1.5279 0)
(0.424572 1.59066 -1.16512e-16)
(1.37835 3.80326 1.72254e-17)
(8.87911 0.426792 0)
(0.481473 -0.267608 2.06011e-16)
(2.38591 -0.157415 -1.15577e-16)
(-0.101838 2.00009 0)
(0.168232 5.42833 0)
(-0.20097 -1.6038 1.66565e-16)
(0.678716 0.262859 -7.8807e-18)
(0.0193153 1.64646 1.32797e-16)
(-0.0840246 2.72694 -2.48411e-16)
(-0.0532727 7.08967 4.4878e-17)
(0.34402 0.213026 0)
(-0.107336 0.0990609 0)
(-0.30344 4.38057 -1.11446e-16)
(3.43158 0.459799 -2.57307e-18)
(1.09106 3.1452 -1.91699e-16)
(-0.210842 0.029257 2.07078e-17)
(3.97817 6.25801 -3.05834e-18)
(2.12614 0.390188 0)
(1.14671 5.273 0)
(-0.0105505 3.64607 -5.80329e-18)
(0.080233 0.159509 0)
(-0.134823 5.44193 0)
(10.9453 0.628881 -1.35678e-18)
(0.0432462 4.76947 -2.40456e-16)
(2.74481 0.425279 0)
(0.966262 2.73649 -3.07975e-18)
(0.129416 6.38266 2.17253e-17)
(-0.128737 6.29485 6.22532e-17)
(0.308146 1.44349 -1.8416e-16)
(0.602204 6.76244 -3.28133e-18)
(-0.151508 6.70175 2.76194e-17)
(0.817173 -0.405477 3.28287e-19)
(-0.164686 6.76916 -2.59913e-16)
(-0.0648284 1.47834 -2.75788e-19)
(-0.171166 2.93893 1.90184e-16)
(0.426399 0.374391 -2.83157e-16)
(-0.0394782 6.93719 1.27834e-16)
(-0.328274 6.8158 0)
(0.00716147 6.92365 1.69764e-18)
(10.0074 0.180493 -7.28969e-18)
(-0.00683872 3.0141 0)
(-0.33537 0.0586426 5.81387e-16)
(1.60218 0.663603 1.50853e-17)
(-0.0358516 3.23699 0)
(-0.0179625 1.45758 3.33477e-16)
(1.68948 7.83681 0)
(1.82109 8.74476 2.67e-17)
(0.308412 -0.387664 0)
(3.54741 1.51003 1.39301e-17)
(0.18126 1.01004 -2.67331e-16)
(0.467999 0.280671 -1.12559e-16)
(0.560986 0.730862 -2.1855e-17)
(-0.214779 2.22598 2.09852e-16)
(-0.0238346 7.09771 -4.17566e-17)
(4.1514 0.495295 9.06433e-18)
(8.42926 0.36516 0)
(0.346569 -0.160594 -2.56147e-17)
(0.0214045 5.5196 0)
(0.00228934 6.61599 0)
(0.62855 0.681948 -1.2251e-16)
(1.29019 5.24739 0)
(-0.0517541 2.35765 0)
(0.854256 6.27758 -2.90524e-17)
(1.57123 -0.0936359 0)
(0.222552 -1.45043 1.70299e-16)
(0.0946104 6.38256 4.93564e-17)
(0.450382 -0.0162978 2.64129e-16)
(0.118367 1.00897 1.33961e-16)
(0.723926 1.56849 1.44447e-17)
(0.824813 0.566072 -5.43037e-17)
(0.471827 -0.0233145 -4.6015e-16)
(12.4675 2.80878 0)
(0.199982 6.41244 0)
(-0.221881 7.55237 -1.24981e-16)
(0.343049 0.645299 -3.70363e-19)
(0.28639 6.89333 1.00155e-17)
(0.286983 0.97578 2.20377e-17)
(9.423 2.2985 2.98289e-18)
(1.67372 1.21219 4.97026e-17)
(-0.284597 1.99839 -7.59089e-17)
(0.433331 -0.0255552 4.55311e-16)
(-0.413238 0.174794 -3.08622e-16)
(0.0498437 5.898 0)
(0.441904 -0.0302173 5.09015e-16)
(0.417562 -0.0224437 -2.75853e-16)
(0.0463553 5.03742 -2.30201e-17)
(0.552475 1.05022 -1.51182e-17)
(-0.0377334 1.13701 -3.75924e-16)
(-0.0279287 6.00048 -5.2343e-18)
(0.288044 6.70845 1.44017e-16)
(-0.125845 7.16812 6.78801e-17)
(-0.188378 7.43689 0)
(0.5395 2.81034 7.39849e-17)
(-0.123951 -0.0616127 8.18393e-17)
(0.0818819 1.54735 0)
(-0.104906 5.73452 -1.17125e-16)
(0.283368 1.9764 -5.44547e-16)
(1.13446 4.69286 0)
(-0.0845466 -0.22095 -1.8003e-16)
(0.0195008 3.0591 0)
(-0.0201724 -0.307337 -1.63988e-19)
(1.08601 0.310045 -3.66226e-18)
(9.22681 2.40402 1.62408e-18)
(1.28469 6.31593 0)
(0.60616 3.40172 1.42673e-16)
(0.0524753 6.65548 -9.19863e-17)
(0.707173 3.37388 0)
(0.520209 -0.611883 -1.23537e-16)
(-0.373405 1.07988 -1.39539e-16)
(0.0133903 5.97886 -9.14548e-17)
(-0.108546 5.21442 8.52784e-17)
(0.0617172 5.78608 2.04958e-16)
(-0.210606 -0.0341204 -4.35001e-17)
(0.243933 -0.141428 0)
(0.0857871 6.19398 0)
(0.209425 -0.0492844 4.15848e-17)
(-0.0146579 2.48826 1.27714e-16)
(0.015621 6.57301 -3.23133e-17)
(0.406638 -0.0454388 1.26492e-16)
(0.238169 0.691872 -2.38482e-16)
(-0.0673937 2.55008 0)
(-0.0945325 2.57052 8.35359e-17)
(10.0249 8.13295 -1.28586e-18)
(0.101521 5.7262 2.7662e-17)
(0.162179 6.83349 -1.09202e-17)
(0.0459026 1.55706 -8.21461e-17)
(1.07797 6.68706 1.41282e-16)
(4.6773 2.35772 2.33257e-18)
(0.149043 -0.10313 -1.83194e-16)
(0.891744 2.06454 0)
(10.0422 0.697491 2.30796e-18)
(-0.343767 6.6412 4.48183e-17)
(6.91703 0.409228 1.11409e-18)
(-0.0423835 1.85506 -1.02492e-16)
(-0.343332 -1.57024 -1.50182e-16)
(-0.31321 4.7937 -2.05986e-16)
(0.0565042 6.81614 7.17738e-19)
(0.889817 0.0840125 4.15694e-16)
(0.988973 5.47882 -1.182e-16)
(0.161967 2.92574 -2.80918e-16)
(-0.181147 3.83755 1.18042e-19)
(1.57643 0.354664 1.37506e-17)
(0.0440603 5.49446 -4.8833e-17)
(-0.306706 7.36493 2.29982e-17)
(0.182017 7.04354 -1.99518e-18)
(-1.23398 -0.993531 0)
(0.492126 -0.029331 0)
(-0.261954 4.43328 -5.70592e-17)
(4.93563 0.523488 1.99602e-18)
(8.02442 0.247669 -1.45969e-17)
(0.0461735 6.54482 1.2918e-16)
(1.16228 3.24391 -2.27979e-17)
(2.57899 -0.146753 6.40344e-17)
(3.77982 0.29253 9.07243e-18)
(-0.282257 4.43073 4.19744e-17)
(-0.0343077 3.60058 -9.14537e-17)
(0.443366 1.37279 3.78334e-16)
(-0.0158914 2.91052 -8.62467e-17)
(0.424907 0.0349877 0)
(0.297519 -0.251112 -1.27365e-16)
(0.0728928 4.03622 -9.75491e-17)
(0.283243 3.88874 0)
(7.98248 1.54413 -7.68131e-18)
(-0.0666353 -0.180317 1.06189e-16)
(4.86127 0.278478 0)
(0.155246 1.56554 0)
(6.06298 3.82675 -2.27625e-17)
(-0.163695 6.9985 1.42811e-17)
(0.270508 7.07872 -5.59398e-18)
(0.0867254 1.5078 0)
(0.430336 1.45426 6.50758e-17)
(2.77948 0.0153063 6.02572e-16)
(0.57423 -0.151362 -6.57213e-16)
(0.403938 0.181604 -4.92168e-17)
(1.81155 2.27018 6.68539e-17)
(2.0073 -0.53873 2.13189e-16)
(0.177586 -0.275909 0)
(0.393831 1.62592 -6.31131e-17)
(1.18651 4.01042 -1.41489e-18)
(1.3675 4.66153 6.86764e-17)
(0.635971 2.61474 -2.35975e-17)
(-0.102927 2.41532 0)
(0.0258513 5.97797 6.84694e-17)
(-0.133254 2.33751 7.09343e-17)
(0.346878 -0.101792 0)
(9.82492 0.50486 1.15415e-16)
(0.0835538 5.77038 0)
(-0.198496 3.68444 0)
(3.85543 5.6169 -2.56603e-18)
(-0.152707 5.97923 1.41882e-16)
(0.127641 5.02538 1.295e-16)
(2.68466 -0.0387923 -2.06617e-16)
(1.01065 -1.25719 2.09434e-16)
(0.363223 -0.0338348 2.97442e-16)
(-0.177663 5.75397 0)
(0.0850602 6.45519 -2.61184e-20)
(0.0187044 5.26469 -1.56038e-16)
(6.71507 -0.593398 -6.47531e-17)
(0.143475 -0.112304 7.19039e-17)
(-0.118689 7.03206 2.40196e-16)
(-0.516396 0.391888 -1.12974e-16)
(2.61242 2.952 1.34575e-17)
(5.50097 -0.599685 3.93811e-17)
(2.72123 0.0341496 -5.97101e-17)
(0.130395 9.03733 8.35706e-17)
(0.0824713 5.24579 3.13014e-19)
(0.083114 5.14893 8.61919e-17)
(0.0354186 4.92637 7.93239e-19)
(0.0647194 5.03485 0)
(0.119946 9.77661 -7.40818e-17)
(0.0706688 5.26332 -1.64185e-16)
(-0.00497164 5.22322 -7.7845e-19)
(-0.0171337 5.41722 -2.07559e-17)
(-0.0323748 5.23247 0)
(0.0405268 5.34129 4.41802e-17)
(0.149257 8.49852 0)
(0.239363 10.5321 0)
(0.0548811 5.54488 -5.86102e-17)
(0.282132 7.43488 -4.08798e-18)
(0.217118 7.99566 -3.83704e-18)
(0.0521355 5.6545 1.87202e-17)
(0.0425834 5.18104 8.56526e-17)
(0.0191175 5.12738 0)
(0.0235274 5.65522 -2.59627e-17)
(0.0181848 5.1076 0)
(0.0272113 5.15358 0)
(-0.0147145 5.59653 1.93549e-17)
(0.0387951 5.2184 0)
(-0.117029 2.07023 7.82928e-17)
(5.14016 5.64942 -4.81654e-17)
(0.315281 -0.448866 2.86551e-16)
(0.429414 0.136498 0)
(1.18303 6.19825 -9.77749e-17)
(-1.35164 -0.162142 9.81397e-17)
(-0.44915 0.561322 5.36489e-16)
(6.85453 1.29803 -1.60352e-17)
(-0.16871 6.97927 -1.77845e-17)
(0.600198 7.47576 0)
(-1.05004 0.129284 4.88398e-16)
(2.2452 0.0694722 2.50989e-16)
(0.406098 0.601015 0)
(4.791 -0.294652 3.0617e-17)
(0.321768 -0.770013 -2.59574e-16)
(0.128538 -0.00617624 -1.9854e-16)
(5.90712 4.72368 8.03589e-17)
(1.41737 4.12715 -4.62325e-17)
(-0.158631 2.55683 7.30907e-17)
(0.824511 0.805973 -5.13609e-17)
(0.277078 -0.0906998 -1.28004e-16)
(6.82682 0.809218 -2.76268e-19)
(-2.11802 0.547887 -2.59275e-16)
(0.0407671 5.30456 0)
(0.670229 5.90117 2.59558e-16)
(0.907833 3.65561 9.15376e-20)
(0.278255 0.127884 7.21928e-17)
(0.373079 0.456551 0)
(10.0875 -0.12605 2.77186e-17)
(0.0331003 2.14162 -1.37041e-16)
(1.63305 0.0136355 3.82012e-18)
(-0.0798204 1.92892 1.14812e-16)
(-0.185196 7.63862 0)
(0.0419282 2.01326 7.7453e-18)
(0.00638557 2.3564 -5.58205e-17)
(8.53715 3.66969 2.01542e-17)
(0.351289 -0.320813 3.25758e-16)
(0.475777 -0.0323071 -3.20228e-16)
(-0.841932 -1.03127 1.9027e-16)
(0.108785 0.00349756 -8.40509e-17)
(0.058326 3.09773 2.80493e-17)
(-0.0674194 5.56225 4.33881e-21)
(0.154653 5.93913 -1.78867e-17)
(0.317384 0.50067 0)
(0.535537 3.19217 1.55157e-19)
(0.14665 0.40601 5.97422e-17)
(1.59715 0.213971 1.14808e-16)
(1.02675 -0.904873 0)
(0.0320675 0.440328 -3.7142e-16)
(0.0861219 0.909506 0)
(9.98686 0.488737 2.11743e-18)
(-0.0765049 3.35272 0)
(0.503444 3.57154 -5.06569e-17)
(-0.022165 2.5234 1.30585e-16)
(-0.196366 -1.54471 2.57939e-16)
(1.59806 -0.236914 0)
(0.349482 -0.182413 -4.12627e-17)
(0.0406152 5.27679 3.54569e-19)