/*--------------------------------*- C++ -*----------------------------------*\
| =========                 |                                                 |
| \\      /  F ield         | OpenFOAM: The Open Source CFD Toolbox           |
|  \\    /   O peration     | Version:  v1912                                 |
|   \\  /    A nd           | Website:  www.openfoam.com                      |
|    \\/     M anipulation  |                                                 |
\*---------------------------------------------------------------------------*/
FoamFile
{
    version     2.0;
    format      ascii;
    class       volScalarField;
    location    "0.51";
    object      nut;
}
// * * * * * * * * * * * * * * * * * * * * * * * * * * * * * * * * * * * * * //

dimensions      [0 2 -1 0 0 0 0];


internalField   nonuniform List<scalar> 
1431
(
0.00117559
0.00222889
0.00222878
0.00154549
0.000803241
0.00165051
0.00404657
0.000786587
0.00491806
0.00677355
0.000685267
0.000777205
0.00105477
0.00134365
0.00386914
0.000676577
0.00396523
0.00169966
0.000390714
0.000601552
0.000745506
0.00749905
0.00246999
0.00144689
0.0014623
0.000544488
0.00143965
0.00124895
0.00100682
0.00166433
0.00156317
0.000727864
0.00193155
0.00103527
0.00100034
0.00190787
0.000721883
0.000857686
0.00376737
0.000856699
0.0024556
0.000465579
0.00147376
0.00238271
0.00362069
0.00161281
0.00226192
0.000816323
0.00092333
0.000868996
0.00161813
0.00566029
0.00346052
0.00266912
0.00305961
0.000773425
0.00299046
0.00227703
0.00101017
0.000578782
0.00314913
0.000557753
0.00218604
0.000783212
0.000907058
0.00166991
0.00230081
0.00111823
0.00426984
0.000750571
0.000931266
0.000908783
0.00095372
0.00218128
0.000716923
0.00116498
0.00112608
0.00294831
0.000784789
0.00215838
0.000805792
0.00222179
0.000974391
0.0027878
0.00213567
0.000919199
0.00095987
0.000685919
0.00155919
0.00068544
0.00128626
0.000732336
0.000934216
0.000860961
0.00195269
0.000917333
0.000736191
0.00072847
0.00116301
0.00116996
0.00467225
0.000806113
0.00143467
0.000710907
0.00094449
0.00198568
0.000785899
0.00309665
0.00222752
0.000944803
0.00246276
0.00127557
0.000756221
0.000605751
0.000915233
0.00065103
0.00181095
0.00300651
0.00168314
0.00276337
0.00085754
0.00297915
0.00439493
0.00144188
0.000831274
0.00223339
0.0018261
0.000738597
0.00166873
0.000810005
0.000797434
0.00292681
0.00101401
0.0010946
0.000895658
0.000844539
0.000912212
0.00226069
0.00154871
0.00287888
0.00453437
0.000472096
0.000769865
0.000989543
0.00116751
0.000775619
0.000733626
0.00319942
0.000850614
0.000829359
0.00081958
0.00096007
0.00340734
0.000580114
0.00039512
0.000786921
0.000803216
0.000770851
0.000757059
0.000712713
0.00179415
0.000781267
0.00164045
0.000718722
0.000952898
0.00300001
0.000974021
0.000862027
0.00152717
0.000966641
0.00111163
0.000817828
0.00144313
0.000769451
0.000771641
0.000433204
0.00048294
0.000875088
0.00161572
0.000709057
0.000839579
0.00387949
0.00075508
0.000719995
0.000773374
0.000834323
0.000753721
0.00115632
0.000531792
0.000799552
0.00576575
0.00395666
0.00100708
0.000790629
0.00549796
0.000844072
0.000785341
0.000840621
0.000542638
0.000532552
0.000613947
0.000663968
0.000769836
0.00236173
0.000786159
0.0018246
0.000945572
0.000834366
0.000755335
0.000878833
0.000789789
0.000783172
0.00172397
0.000831699
0.00100418
0.0013691
0.000757715
0.00492973
0.00140444
0.000833784
0.000830387
0.00223459
0.000777561
0.00209741
0.000825525
0.000874588
0.00101872
0.00072249
0.000841383
0.00171126
0.000923323
0.00100695
0.00074723
0.000797301
0.000790714
0.000783862
0.000736766
0.00168926
0.000827035
0.00295393
0.000842634
0.000733995
0.00557179
0.00328423
0.000841764
0.00084607
0.000830286
0.00203763
0.00170677
0.001004
0.000725518
0.00528889
0.00742373
0.00109495
0.00244723
0.00109395
0.000502584
0.00323183
0.00112826
0.00110271
0.0010825
0.000806935
0.00122618
0.00438598
0.000790339
0.00081822
0.00102803
0.000744661
0.000942137
0.00531791
0.000743513
0.000985242
0.000727167
0.000726617
0.00107217
0.000764252
0.0015296
0.00278097
0.00241564
0.00592301
0.00446363
0.0029353
0.00127684
0.00131901
0.00102539
0.00123989
0.000922153
0.000754124
0.00092899
0.000832847
0.000776678
0.000868518
0.000745421
0.0039822
0.000737562
0.000745573
0.00115192
0.000761964
0.00298676
0.000704497
0.000844532
0.00106795
0.000865996
0.000750307
0.0005463
0.0024095
0.000828717
0.00110096
0.00111056
0.00162121
0.0008364
0.000783742
0.00269245
0.000786226
0.000886328
0.00211434
0.00525146
0.0027152
0.000795708
0.00336872
0.00222893
0.00268698
0.00362306
0.00245683
0.00615123
0.00369411
0.000806953
0.00398293
0.00186231
0.000831087
0.00224038
0.00078148
0.00313267
0.00550459
0.000786392
0.00597504
0.00117767
0.00216554
0.0011516
0.00118704
0.000556693
0.000822734
0.00388717
0.000934707
0.0016896
0.000553784
0.000826128
0.000565128
0.000199817
0.000440395
0.000703707
0.000465501
0.000616452
0.00058342
0.000329586
0.000683735
0.000538446
0.000447563
0.000580787
0.000441453
0.000471426
0.00052379
0.000568924
0.000205672
0.000360047
0.000549335
0.000527633
0.000561803
0.00194925
0.00248747
0.00225598
0.00321982
0.00329167
0.000774204
0.00360718
0.00152224
0.00247448
0.000842178
0.000848851
0.00063678
0.000465038
0.000573659
0.000468902
0.000582797
0.000617137
0.000549768
0.000619865
0.000313758
0.000588755
0.000190592
0.00058965
0.00273896
0.000921146
0.000848693
0.00367513
0.000816222
0.0019499
0.000834652
0.00661438
0.000772148
0.000514767
0.00216475
0.000832712
0.00127042
0.00179754
0.000779746
0.00266304
0.000732645
0.00139803
0.00257028
0.000831502
0.000540012
0.00218562
0.00211367
0.00106818
0.00101936
0.00235251
0.00482985
0.00158389
0.00184041
0.002581
0.0046808
0.00727383
0.00318505
0.00298847
0.00249397
0.00331587
0.0057204
0.00605888
0.00291095
0.00540057
0.00239325
0.000415074
0.00630806
0.00300611
0.0026839
0.00587003
0.00603006
0.00367786
0.00407605
0.00361932
0.00115384
0.00618241
0.00598673
0.000587962
0.00666541
0.0064933
0.00231816
0.000714354
0.00603247
0.00629626
0.00660056
0.00642917
0.00711125
0.00483011
0.00646858
0.00586732
0.00598429
0.00627785
0.00302307
0.00295093
0.000564676
0.00387508
0.00234502
0.0028259
0.00240285
0.00119646
0.00290994
0.00267045
0.00223546
0.00258461
0.00239914
0.000750778
0.00106653
0.00207988
0.00187003
0.00256816
0.00246754
0.00368319
0.000519495
0.00311964
0.00277366
0.0010774
0.000800854
0.000853731
0.00196847
0.00198202
0.00707079
0.00548715
0.000650523
0.000612641
0.000556755
0.00139712
0.00295396
0.000539058
0.00283674
0.00125578
0.00538118
0.000837181
0.00496054
0.00185621
0.00149393
0.00533524
0.00304085
0.00314442
0.00235547
0.00151459
0.00724168
0.00321715
0.00114238
0.00107107
0.00227683
0.000743386
0.00170328
0.000792546
0.00332222
0.00320937
0.00137807
0.00318239
0.00238565
0.00266304
0.00356755
0.00439417
0.00126723
0.00278423
0.00580774
0.00140157
0.00463727
0.00375794
0.0057012
0.000835161
0.000750964
0.0041587
0.00401851
0.00621424
0.0047604
0.00435613
0.00527301
0.00662965
0.00212838
0.00329911
0.00344224
0.00229183
0.00411879
0.000489465
0.00705001
0.0056811
0.000796433
0.0068215
0.00121442
0.00452681
0.000431273
0.00107704
0.00566756
0.00307085
0.00168085
0.00395169
0.0025828
0.00103797
0.000758275
0.00650015
0.00371474
0.00475571
0.00374384
0.00247225
0.00162577
0.00658266
0.00073745
0.00269709
0.003459
0.000590106
0.00647456
0.00251475
0.00672635
0.00276272
0.00100169
0.00596139
0.00280644
0.00342261
0.000953389
0.00259504
0.000798428
0.00154035
0.00279282
0.0011589
0.00474598
0.00166698
0.00077819
0.00188293
0.000802147
0.0035063
0.00236575
0.0008482
0.000768625
0.000759875
0.00417723
0.00075849
0.00577915
0.000736058
0.000623683
0.00199964
0.00128791
0.00126654
0.00521506
0.00486914
0.00683303
0.000791172
0.00101497
0.00651114
0.00195955
0.0015936
0.00664885
0.00207224
0.00562713
0.00180976
0.000741853
0.00247206
0.00326661
0.00480171
0.00684235
0.00113457
0.00178168
0.00143844
0.000858167
0.00493594
0.000935633
0.000978114
0.000902269
0.00653183
0.000805007
0.00626471
0.00129671
0.000561295
0.000805788
0.00237661
0.00635861
0.00106735
0.000728759
0.00103694
0.00118808
0.00463934
0.00594294
0.000806865
0.00662773
0.00393008
0.00390212
0.0040036
0.004039
0.00695533
0.0011977
0.00226751
0.00156338
0.000757836
0.00109203
0.00445437
0.00644778
0.000820666
0.000841126
0.00607673
0.00672167
0.00282606
0.00120228
0.00114082
0.00120301
0.000827728
0.000606156
0.000848134
0.00735714
0.0067819
0.00275981
0.00100223
0.000822177
0.0012381
0.00281991
0.000823351
0.000777458
0.00165771
0.00133159
0.00101921
0.000993386
0.00396283
0.000430326
0.000738341
0.00208704
0.0044351
0.00311598
0.00388004
0.00348864
0.00288963
0.00232047
0.00205913
0.00287009
0.00377566
0.00152251
0.00658323
0.000892243
0.000228786
0.000602814
0.000824661
0.000717276
0.00432774
0.000855762
0.000760962
0.000896053
0.00083083
0.00130702
0.00107395
0.00643739
0.000850381
0.00247302
0.00206125
0.000711537
0.00131397
0.00757822
0.00516801
0.000635471
0.00201649
0.00571226
0.000710519
0.0017063
0.000644463
0.000839604
0.00080411
0.00334185
0.00118515
0.000626258
0.00773361
0.00573297
0.000688051
0.000436907
0.00320651
0.000587726
0.000701047
0.000715643
0.00387756
0.000763808
0.00123402
0.00265904
0.00653398
0.00115443
0.00310028
0.00577513
0.000688583
0.00140513
0.000784674
0.000663507
0.000749696
0.000877227
0.00125075
0.000801911
0.00428837
0.000753347
0.000735098
0.000757594
0.00125607
0.000817249
0.000845059
0.000842618
0.000872625
0.00199208
0.000996774
0.00120397
0.00163541
0.00184278
0.000853305
0.00242131
0.000423247
0.00183234
0.000793617
0.000749766
0.00361784
0.00317195
0.000732482
0.00127765
0.000413252
0.000775577
0.00129864
0.00276357
0.00636337
0.000852247
0.000813645
0.000479378
0.000766253
0.00377651
0.0018439
0.0035841
0.00061973
0.00143004
0.000786336
0.00219242
0.00147228
0.00077008
0.000877274
0.00091533
0.000847841
0.000834537
0.000880785
0.00115451
0.00380173
0.000808042
0.00658821
0.00325615
0.000707884
0.000988462
0.000250511
0.0017361
0.00201788
0.00201869
0.0024321
0.00121112
0.000829102
0.000809818
0.00322692
0.00112613
0.00181215
0.000833812
0.000673602
0.000597112
0.0005387
0.000648984
0.000837464
0.000732303
0.000771845
0.000962185
0.000679261
0.000776751
0.000831852
0.00358489
0.00108207
0.0010936
0.000663211
0.000524025
0.00161782
0.000911625
0.00115295
0.0010484
0.0061981
0.00112422
0.000612423
0.00625836
0.000777679
0.000730419
0.00073153
0.000663856
0.00227049
0.000711172
0.00157994
0.00259861
0.00113389
0.000820242
0.00184085
0.00294885
0.00345019
0.000438612
0.00169775
0.000669441
0.00613281
0.00313719
0.00083775
0.000866284
0.000806331
0.00139907
0.000815728
0.00267197
0.0022755
0.0012952
0.000803673
0.00076247
0.000903868
0.00135656
0.000801747
0.001936
0.0014639
0.00263749
0.000959072
0.000773255
0.00206897
0.00242447
0.00251158
0.000818246
0.00146253
0.00123379
0.00108698
0.00150836
0.000746128
0.00127329
0.000959898
0.00291148
0.00392435
0.000709709
0.000876603
0.0028382
0.00231125
0.000825597
0.000792978
0.00298907
0.000772148
0.00167335
0.00239194
0.000937159
0.00170776
0.00187299
0.00534105
0.00449346
0.00094819
0.000960071
0.000846649
0.00128594
0.00111595
0.000443414
0.0013417
0.000805939
0.00444029
0.00149015
0.00488953
0.00293308
0.00202151
0.000863348
0.000747596
0.00108973
0.00543938
0.000783908
0.000989011
0.000814442
0.000794589
0.00106434
0.00110897
0.000729958
0.00638477
0.00070117
0.00470666
0.000745389
0.000794322
0.000464513
0.000251565
0.000349041
0.000541084
0.000236122
0.000202433
0.00100105
0.000254644
0.00054584
0.000819403
0.000168127
0.00132697
0.000339156
0.0025522
0.00106922
0.00247916
0.000172306
0.00685194
0.00025925
0.000713994
0.00648305
0.00363647
0.000958718
0.000148776
0.00188322
0.00659083
0.00133313
0.0032525
0.00592874
0.00135593
0.00246698
0.00103531
0.000168637
0.000152844
0.000908801
0.000247551
0.002298
0.00639968
0.00445104
0.00125123
0.000968033
0.00491557
0.00422394
0.000816336
0.000156922
0.000155926
0.000867852
0.00232523
0.00078393
0.00643133
0.00216626
0.00261246
0.000761378
0.00027191
0.00300727
0.000244523
0.0010276
0.000317051
0.000824247
0.00611664
0.00253576
0.000830151
0.0011314
0.00505111
0.000897959
0.00244551
0.000881203
0.00087652
0.000999268
0.00081148
0.00199008
0.00210503
0.000776457
0.00143504
0.00412803
0.000846012
0.00132574
0.0057642
0.00756998
0.000812852
0.000727097
0.00098492
0.00265985
0.002309
0.00350146
0.00196202
0.00604957
0.00264636
0.00262331
0.00295735
0.00253151
0.00108231
0.00118936
0.00163147
0.00233213
0.000644924
0.00271122
0.00613413
0.00727328
0.00324783
0.00274081
0.00088072
0.00470222
0.00267303
0.000837571
0.00369492
0.00238909
0.00116649
0.000780134
0.000833499
0.00132545
0.00518123
0.00227331
0.00304049
0.00597039
0.000749504
0.00362704
0.00142555
0.000624268
0.00547939
0.00354791
0.00160361
0.00253364
0.00162156
0.000790422
0.000518362
0.000747902
0.00484847
0.00430133
0.00084641
0.00079185
0.000782806
0.00138832
0.000721738
0.000777278
0.000840546
0.0055535
0.00109115
0.000798124
0.00079993
0.0020024
0.000821844
0.00299464
0.000279118
0.000783504
0.000791294
0.000802701
0.000271348
0.000734423
0.00204842
0.00132169
0.00075385
0.00032387
0.00100489
0.00104661
0.000796874
0.00439314
0.00270692
0.000743931
0.00179153
0.000769261
0.000534383
0.000207802
0.00132044
0.000833506
0.00173263
0.00234736
0.0018781
0.000299998
0.000759043
0.000905795
0.000440843
0.000864933
0.00263658
0.000986661
0.0011496
0.000809764
0.00106822
0.00466954
0.00334461
0.00069895
0.00180663
0.000903553
0.00287113
0.00217192
0.0010128
0.000797785
0.0023552
0.00221297
0.000790648
0.00027551
0.000934605
0.000232127
0.00227473
0.00244038
0.00268504
0.00299957
0.000788465
0.000458035
0.000974202
0.00530167
0.000428769
0.000756275
0.000752348
0.00101436
0.00240542
0.000470576
0.00151734
0.00104555
0.0058413
0.0069107
0.00158679
0.000800167
0.000820395
0.000348862
0.00169716
0.000822249
0.00295785
0.000726935
0.00135972
0.00398632
0.00191873
0.00175507
0.00414743
0.00116128
0.000519131
0.000836137
0.00136438
0.00023024
0.000956338
0.00170484
0.00652049
0.00167491
0.000771061
0.000562727
0.00143957
0.000259226
0.000840554
0.00312843
0.00530602
0.000821338
0.000839217
0.000839723
0.000789093
0.000449828
0.000528893
0.00528901
0.000620017
0.00321665
0.000742951
0.00139514
0.0040413
0.000827968
0.00304302
0.00433085
0.000591993
0.000937118
0.00199599
0.00208822
0.000870586
0.000300237
0.00447893
0.00595627
0.000890327
0.00532575
0.000735317
0.000739395
0.00328275
0.00236058
0.00207505
0.00189949
0.00502988
0.000883701
0.000851703
0.00131459
0.00608181
0.000842428
0.000819726
0.00149798
0.00568195
0.000742969
0.00204128
0.00183438
0.0027099
0.000737284
0.00209513
0.00156091
0.00252245
0.00622021
0.000473622
0.000379458
0.00411197
0.000742763
0.000786297
0.000750637
0.0007734
0.000844403
0.000907817
0.00213285
0.000831021
0.000925231
0.000249704
0.00626967
0.00110579
0.000880422
0.00236139
0.00143389
0.00228786
0.00311133
0.00153736
0.00169764
0.00230669
0.00570389
0.00103934
0.000984442
0.0024629
0.000733497
0.00094443
0.000695746
0.000791268
0.00192236
0.00322011
0.00631295
0.00208614
0.000622106
0.00594679
0.00153777
0.00119197
0.00334473
0.00340654
0.00340231
0.000770141
0.000844223
0.00273756
0.00233577
0.00159936
0.00454918
0.00260096
0.00242377
0.00108041
0.000829229
0.000724012
0.000815048
0.000871965
0.000651844
0.000839688
0.00101653
0.00059798
0.000791584
0.000826256
0.000964147
0.00329447
0.00264379
0.0061001
0.0059287
0.00768289
0.00221726
0.00262671
0.00115582
0.00332345
0.000722597
0.000950949
0.000845898
0.00185133
0.00418389
0.00117415
0.00128895
0.00602427
0.000785189
0.00387864
0.00538418
0.0077112
0.00613461
0.0069077
0.000774823
0.00298195
0.00723591
0.000845527
0.000785114
0.000694634
0.00370428
0.00165408
0.000766751
0.00261829
0.00505754
0.00153019
0.00229237
0.00108715
0.000279511
0.00304218
0.00754754
0.00319089
0.00234449
0.00104086
0.000855149
0.00545088
0.00144225
0.00208029
0.0030638
0.00166615
0.00161036
0.000757871
0.000832964
0.00204837
0.000819197
0.000963395
0.00085076
0.000734445
0.000746404
0.00240748
0.000822529
0.000228167
0.000777569
0.0018661
0.000802119
0.000834539
0.000747604
0.00086498
0.000683359
0.00169056
0.00135425
0.0026262
0.0014695
0.00177867
0.000858826
0.000622871
0.00316187
0.00170472
0.00280089
0.00073112
0.00273939
0.00291943
0.00253762
0.00054315
0.000751151
0.000726285
0.000696422
0.0009477
0.000757684
0.000720415
0.00104002
0.00172568
0.00163037
0.00297352
0.000991239
0.000804541
0.00695492
0.000734684
0.00194305
0.00224862
0.00289158
0.000811952
0.00102901
0.00180795
0.000843008
0.000527412
0.000701834
0.000873601
0.000932412
0.00137239
0.00209055
0.00608923
0.00122321
0.00119014
0.00103724
0.000517207
0.000721355
0.00088202
0.000837241
0.00083274
0.00134512
0.00369928
0.00155634
0.00087815
0.000911314
0.000914262
0.000792789
0.00277601
0.00433497
0.00560632
0.00769604
0.000741433
0.000666977
0.00547826
0.00738625
0.00589358
0.00740234
0.00311597
0.000803722
0.000757904
0.00113707
0.000739726
0.000868995
0.00106002
0.00162587
0.00086216
0.000850882
0.00102535
)
;

boundaryField
{
    frontAndBack
    {
        type            empty;
    }
    wallOuter
    {
        type            nutkWallFunction;
        Cmu             0.09;
        kappa           0.41;
        E               9.8;
        value           nonuniform List<scalar> 
90
(
8.17359e-05
7.67439e-05
7.78033e-05
7.56564e-05
8.2874e-05
8.44202e-05
8.61352e-05
9.41106e-05
8.0041e-05
8.83999e-05
9.10013e-05
9.51369e-05
9.00987e-05
9.30658e-05
9.19977e-05
0.000104651
9.97477e-05
8.12221e-05
7.22054e-05
6.52312e-05
7.83346e-05
0.000100167
8.80644e-05
9.2639e-05
8.00822e-05
0.000112694
0.000113938
8.77906e-05
8.43536e-05
5.50198e-05
2.92329e-05
3.99886e-05
6.49883e-05
2.6825e-05
2.2159e-05
1.77621e-05
1.93401e-05
3.04491e-05
8.61759e-05
1.54215e-05
1.87882e-05
1.62107e-05
0.000108697
2.88773e-05
1.7081e-05
1.68574e-05
2.91269e-05
0.000122071
3.78684e-05
0.000107042
0.00011677
7.79043e-05
7.54239e-05
9.50656e-05
9.61718e-05
3.19851e-05
3.87487e-05
0.000119501
0.000123608
8.94116e-05
6.47138e-05
2.42376e-05
3.60974e-05
0.000108218
9.69892e-05
8.41118e-05
0.000107629
3.27625e-05
0.00011151
2.75363e-05
6.28135e-05
2.66782e-05
9.24853e-05
3.09832e-05
9.86498e-05
7.488e-05
7.1597e-05
0.000103941
3.60357e-05
0.000106433
5.73518e-05
0.000110441
2.93133e-05
7.51679e-05
7.21542e-05
3.35407e-05
9.87649e-05
2.63478e-05
8.23642e-05
8.38909e-05
)
;
    }
    inlet
    {
        type            calculated;
        value           uniform 0.000851986;
    }
    outlet
    {
        type            calculated;
        value           nonuniform 0();
    }
    wallInner
    {
        type            nutkWallFunction;
        Cmu             0.09;
        kappa           0.41;
        E               9.8;
        value           nonuniform List<scalar> 
138
(
9.42179e-05
4.72366e-05
0.000219094
0.00012279
0.00011738
5.6678e-05
0.000257366
0.000133878
0.000110852
0.000107574
0.000136966
0.000120087
7.13266e-05
4.5726e-05
5.29823e-05
5.95022e-05
6.4037e-05
6.36686e-05
7.47962e-05
8.00971e-05
0.000236415
0.000128977
6.13959e-05
0.000132772
0.000129945
0.000127707
0.000121637
0.000126562
0.000121341
0.000129753
0.000130815
6.72606e-05
6.75071e-05
6.96055e-05
2.20249e-05
5.36832e-05
8.57126e-05
5.73733e-05
7.56629e-05
7.11278e-05
4.03452e-05
8.33971e-05
6.63029e-05
5.37131e-05
7.09366e-05
5.41017e-05
5.76729e-05
6.45195e-05
6.93509e-05
2.34842e-05
4.21855e-05
6.76714e-05
6.43884e-05
6.8694e-05
7.7748e-05
5.73263e-05
7.04373e-05
5.68338e-05
7.16406e-05
7.55383e-05
6.70428e-05
7.54706e-05
3.7581e-05
7.18229e-05
2.14823e-05
7.25676e-05
6.33975e-05
6.57552e-05
0.000120789
5.09395e-05
0.000136512
7.07809e-05
8.67446e-05
6.77498e-05
0.000126056
6.27255e-05
0.000127271
7.90208e-05
7.41769e-05
6.68689e-05
6.48951e-05
0.000147095
0.000172924
0.000135314
0.000127415
0.000160394
6.04375e-05
5.16505e-05
0.000127095
0.000122745
7.27436e-05
7.65056e-05
6.88254e-05
7.42271e-05
5.26393e-05
2.65036e-05
7.42386e-05
5.34826e-05
7.2169e-05
8.29515e-05
0.000120298
5.15838e-05
5.0278e-05
5.92888e-05
0.000109079
2.94072e-05
8.12028e-05
0.000132324
7.47448e-05
5.35222e-05
5.39414e-05
0.000125695
3.03259e-05
6.73416e-05
4.02866e-05
0.000114966
9.15844e-05
3.21386e-05
0.000105493
0.000118773
6.32346e-05
3.31094e-05
9.39858e-05
5.48368e-05
5.58292e-05
5.24254e-05
9.82894e-05
4.19023e-05
5.48699e-05
6.48184e-05
4.60845e-05
8.04185e-05
0.000133841
8.8905e-05
0.000104127
0.000186961
0.000102319
0.00012308
)
;
    }
    procBoundary0to1
    {
        type            processor;
        value           nonuniform List<scalar> 
29
(
0.00393073
0.0040974
0.00379632
0.00379632
0.00506522
0.00506522
0.00303934
0.00131991
0.00187719
0.00466835
0.00268225
0.00192274
0.00134837
0.00126098
0.00241923
0.0013693
0.00785171
0.00585143
0.00538904
0.00384998
0.000900125
0.000741564
0.00319069
0.000745964
0.000727693
0.00585143
0.000734579
0.000913749
0.000745964
)
;
    }
    procBoundary0to2
    {
        type            processor;
        value           nonuniform List<scalar> 
42
(
0.00757929
0.00655924
0.00110064
0.000884267
0.00178945
0.00757929
0.00110064
0.00147857
0.00166967
0.00155366
0.00265293
0.00348756
0.00265293
0.0037178
0.00380459
0.00748198
0.00380459
0.00135559
0.00168233
0.00369106
0.00369106
0.00135559
0.00113593
0.00289947
0.00289947
0.000920755
0.00496252
0.000755531
0.0067491
0.00606784
0.00606784
0.000753953
0.000850762
0.000947676
0.00107968
0.00110064
0.0042573
0.000279853
0.0067491
0.00147857
0.001546
0.00131046
)
;
    }
}


// ************************************************************************* //
