/*--------------------------------*- C++ -*----------------------------------*\
| =========                 |                                                 |
| \\      /  F ield         | OpenFOAM: The Open Source CFD Toolbox           |
|  \\    /   O peration     | Version:  v1912                                 |
|   \\  /    A nd           | Website:  www.openfoam.com                      |
|    \\/     M anipulation  |                                                 |
\*---------------------------------------------------------------------------*/
FoamFile
{
    version     2.0;
    format      ascii;
    class       surfaceScalarField;
    location    "0.51";
    object      phi;
}
// * * * * * * * * * * * * * * * * * * * * * * * * * * * * * * * * * * * * * //

dimensions      [0 3 -1 0 0 0 0];
oriented        oriented;


internalField   nonuniform List<scalar> 
2708
(
-1.51287e-05
4.93701e-05
6.53183e-06
-4.07732e-05
-5.31025e-05
8.89324e-05
-2.70545e-05
-8.77538e-06
0.00120439
0.000228577
-0.000901328
-0.000531634
-0.000334579
0.000186466
6.67323e-05
8.1381e-05
-1.66597e-05
1.12232e-05
0.000103693
-9.82567e-05
0.000411302
0.000288221
-0.000215421
-0.000484103
0.000108612
-0.000149655
0.000605558
-0.000819066
0.000999435
-0.000785927
0.000184685
0.000452038
-0.000541043
-9.56802e-05
0.000155683
0.000210195
-0.00028444
-8.14381e-05
5.02088e-05
3.04198e-05
-1.68123e-06
-7.89474e-05
-9.10138e-05
5.65191e-05
3.44948e-05
0.000152295
-8.97117e-05
0.000152134
-0.000214717
0.000834724
-0.000852205
4.73836e-05
-2.99022e-05
0.000151978
-0.000162948
7.72058e-05
-6.62362e-05
3.59103e-05
-0.000318831
0.000282921
-0.000249989
0.000220979
0.000180988
2.5306e-05
1.69607e-05
-0.000109221
6.69546e-05
7.03805e-05
-3.13884e-05
-3.89921e-05
3.68108e-05
7.47677e-06
5.92127e-06
5.25942e-05
5.48241e-05
-1.06028e-05
-9.68156e-05
1.887e-05
-0.000107784
-8.3498e-05
6.10144e-05
0.000208676
-0.000186192
0.000801819
6.49629e-05
-3.20582e-05
0.000386005
7.93119e-05
-0.000413176
-5.21412e-05
3.10489e-05
6.41203e-06
-6.50199e-07
-0.000417939
0.000348367
-0.000166974
0.000236547
3.99509e-05
-2.23767e-05
-0.00086978
-0.00103783
8.67416e-05
0.000959041
-7.95155e-06
-7.88845e-05
-7.51304e-05
7.72194e-05
7.67955e-05
-0.000419997
0.000935881
-0.000535192
1.93094e-05
0.000908559
0.000439219
-0.000600662
-0.000747116
0.000210488
0.000198998
-0.000409486
0.000195516
-0.000261585
6.60688e-05
0.000233422
-0.000227936
-5.48571e-06
-0.000886554
0.000864232
0.000702203
-0.000679881
9.07889e-06
-5.87186e-07
-3.61931e-05
2.77014e-05
-0.00117952
0.00113671
-5.10555e-05
9.38625e-05
9.03947e-05
-8.95307e-05
-0.000109982
-0.00139258
-3.4271e-05
0.000247334
-0.000326014
-0.000238157
3.67239e-05
0.000527446
-0.000140024
1.60285e-06
0.000138421
-8.42045e-05
0.000124104
-0.000249641
0.000209741
-5.1285e-05
6.86343e-05
-0.000126619
0.00010927
0.000144116
-5.46685e-05
-0.000224911
0.000135463
-6.70973e-05
-8.12703e-05
6.24418e-05
8.59258e-05
6.25208e-05
0.000712696
-0.000400063
-0.000375155
-1.19398e-05
2.26261e-05
-0.000935737
0.000925051
-0.000647166
0.00114788
-0.000864449
0.000363734
3.03494e-05
-0.00107535
0.00110175
-5.67521e-05
8.62673e-05
-9.39543e-05
-0.000103027
0.000110714
-0.00038414
0.000213947
0.000325876
-0.000687132
0.000424951
0.000446866
-0.000108425
0.000116661
-0.000128592
0.000120356
0.000120073
-6.46268e-05
-1.78382e-06
-5.36629e-05
-0.000952662
0.000123392
0.000933862
-0.000104593
-0.000158981
-1.8628e-05
0.000551716
-0.000374108
-7.19798e-05
-0.000115578
0.000579232
-0.000391674
-0.000576054
0.00054412
3.65035e-05
-2.60852e-05
4.2176e-05
0.000349434
-0.00029411
7.19725e-06
0.000145553
0.000107665
-0.00019507
-5.81476e-05
0.000487405
-0.000770323
-0.000603636
-0.000426022
0.000471484
0.00101113
-0.0010566
0.000843099
-0.000171079
-4.60464e-05
-0.000625974
-0.000114272
0.000111652
7.46191e-05
-7.19996e-05
0.00021658
-4.19875e-05
-9.09467e-05
0.00011516
-8.41502e-05
5.99365e-05
-0.0006239
0.00102885
-0.000733529
0.000328579
0.000111312
0.000182137
0.000157971
7.63837e-05
-0.000134691
-9.96634e-05
-0.000219537
0.00012832
-0.000114759
0.000205976
6.52284e-05
0.00014526
-3.81477e-05
-0.000102002
0.000132269
7.88053e-06
1.71105e-05
0.00061278
-0.000401313
0.00096631
6.0574e-05
-0.00101412
-1.27632e-05
0.000134499
-0.0002624
-7.08884e-05
0.00019879
-0.000952504
0.000924743
-0.000398261
5.44417e-05
0.00011165
-5.24324e-05
-0.000113659
0.000252521
-3.25769e-05
-6.6472e-05
-0.000153472
4.00509e-05
-0.000149339
0.000187236
-7.79471e-05
-0.000280397
-5.7003e-05
0.000198779
0.000138621
-9.99402e-05
0.000116597
-4.33148e-05
2.66579e-05
-8.19071e-05
3.65721e-05
8.18124e-05
-3.64774e-05
-0.00018675
-8.21346e-05
0.000207118
6.17666e-05
0.000757938
8.40674e-05
-4.01857e-05
-1.48491e-06
2.17172e-05
-6.56284e-05
4.53962e-05
-5.10011e-05
2.65422e-05
-2.31909e-05
4.76498e-05
-0.000279943
0.000216701
-0.000123507
-8.41039e-05
-2.0385e-05
2.25818e-05
0.00112439
-1.61939e-05
2.85192e-05
5.91855e-06
-1.31821e-05
-0.000178448
0.000185712
8.15932e-05
-0.000124631
7.95413e-05
8.45948e-05
-0.000226
-7.81316e-05
-7.14632e-05
-0.00100154
0.00102969
4.33132e-05
4.65529e-05
3.55964e-05
-3.98377e-05
-4.23117e-05
-0.000790358
-0.000276806
2.96748e-05
-0.000118416
-2.20584e-06
3.23163e-05
-0.00108254
0.0010828
-3.25773e-05
-5.48991e-05
5.21537e-05
1.20636e-05
-9.31819e-06
0.000108583
-2.72077e-05
3.71577e-05
-0.000118533
0.000263566
2.86938e-05
4.30157e-06
-0.000296562
-4.04429e-05
0.00010161
6.04634e-05
-0.000121631
0.00103869
-0.00146223
0.000182756
0.000240783
0.00043663
6.54047e-06
1.35523e-05
-0.000456723
8.65331e-05
8.15733e-05
-0.000909187
-3.42454e-05
-7.9269e-05
0.000116604
-3.08928e-06
-1.03556e-06
0.000169118
-0.000217048
4.89654e-05
-9.98224e-05
0.000116539
-0.000130988
0.000840067
-0.000574134
5.482e-05
-0.000320753
-5.49022e-05
0.000102882
9.75732e-05
-8.56136e-06
-3.27038e-06
0.000275398
1.44456e-05
-1.12746e-05
0.000105412
-6.30689e-05
3.54827e-05
5.28923e-05
3.68013e-05
-4.95519e-06
-5.00864e-05
1.82403e-05
0.000699963
0.00010445
-4.64755e-05
0.000178394
0.00016472
-0.00113364
0.00113647
9.79061e-05
-0.000100733
-0.000293259
-0.000465853
-0.000254912
-0.000288209
0.000744486
0.000182982
-0.000799664
-0.000127804
-0.000991623
-0.000637223
0.00105404
0.00057481
-3.8218e-05
8.66768e-05
9.63064e-05
-0.000144765
0.000120938
-4.4729e-05
0.000623754
-0.00013645
0.000167586
9.71835e-05
1.92622e-05
-4.64033e-05
6.32652e-05
-3.6124e-05
0.000821916
-0.00104002
0.000355868
-0.000137769
6.27494e-05
-0.000111735
0.000100404
-5.14182e-05
-0.000318581
1.87173e-05
-0.000104357
-0.000748027
0.000852384
-6.54014e-05
-3.45596e-05
4.50619e-05
8.2451e-06
2.04636e-06
-9.43953e-05
-7.08707e-05
4.93632e-05
-0.000258435
0.000149141
6.72594e-05
-5.84294e-05
2.82239e-05
2.60687e-06
-0.000170053
0.000139222
4.91347e-05
-4.81689e-05
-4.17029e-05
4.07371e-05
-0.000304082
-6.944e-05
5.49407e-05
-0.000483789
4.35177e-05
0.000433382
6.88946e-06
3.87821e-05
-2.55371e-06
-2.79833e-05
0.000898252
-2.3013e-05
-0.000765372
-0.000109867
-0.000100749
0.0010939
0.000154726
-0.00108799
8.89805e-05
0.000859346
-0.00102687
-0.000262442
0.000429965
-0.000222836
-0.000987573
0.00118844
2.19642e-05
0.000142037
-9.48913e-06
-3.38046e-05
4.49063e-05
0.000138039
-0.000911313
0.000871836
-0.000276849
0.000316326
0.00126871
7.63243e-05
-0.000315271
-0.00102976
-5.09217e-05
0.000900634
-6.61346e-06
-5.91996e-05
4.75788e-05
-1.15266e-05
2.31473e-05
-2.57849e-05
0.000278306
7.63762e-05
3.12884e-05
-0.000173011
0.000121156
-0.00092923
-0.000377232
0.000353958
-6.71835e-05
-8.01085e-05
8.18905e-05
0.000903073
0.000124164
-0.00018717
-0.000197482
0.000896479
-0.000881525
0.000182528
7.23562e-05
-0.000145762
9.03663e-05
-0.00011371
8.73824e-05
1.41591e-05
5.48027e-05
-1.68081e-05
-5.62351e-05
0.000185841
-0.000138168
3.15022e-05
-7.66584e-05
-6.11841e-05
-2.07838e-05
8.09324e-05
0.000100602
-5.32538e-05
2.30616e-05
-9.48724e-05
0.000102255
-6.82913e-05
6.11682e-05
-2.74364e-05
-0.000932283
0.000190601
0.00086262
3.15043e-05
0.000299916
-0.00029551
0.000363865
-0.000567953
-0.00053404
0.000738128
1.45259e-05
0.000237421
-0.000875847
-3.33943e-05
0.000917657
1.39891e-05
-8.32086e-05
-3.70681e-05
0.000120277
0.000101344
-0.000172215
0.00107579
-0.00125231
-0.000158066
0.00033458
0.000140493
-0.000120002
-9.56216e-05
-0.000811903
-0.000362299
0.0008491
0.000325103
-8.15147e-05
0.00104387
-0.000948302
-1.40519e-05
-3.30391e-05
0.000134914
-2.508e-05
-7.67953e-05
0.000139796
-0.000968674
0.00093214
-0.000103262
6.16993e-05
-8.36147e-05
-3.29867e-05
-0.000333092
0.000247174
0.000945264
-0.000916688
0.00090292
-0.000183714
0.000628019
-0.000596595
-6.78639e-06
0.000578381
-0.000522231
3.19523e-06
2.63688e-05
-0.000332233
-0.000908401
0.000311404
9.88877e-05
-0.000110573
9.656e-05
-8.48744e-05
-0.000373772
0.000368039
-9.05454e-05
9.62784e-05
-0.000107955
0.00101604
-0.000891632
-0.000157804
0.000349356
-3.12462e-05
-1.57343e-06
-0.000316537
-0.000159913
0.000168312
0.00112807
9.47118e-06
2.17859e-05
0.00100743
0.000136311
0.000908615
-0.000977692
-6.72336e-05
-0.000155972
-3.90978e-05
-0.000111066
4.38068e-05
-0.000215905
0.00028501
-6.91044e-05
-0.000205143
-0.000912998
0.000206829
-0.000297326
-6.5759e-05
3.70715e-05
-0.000198655
-0.00024753
-3.66921e-05
3.73535e-05
4.22719e-05
0.00102114
-8.77687e-05
-0.000975642
0.000134328
0.000169672
-0.000195067
-0.000108933
-7.78431e-05
0.00104928
-0.00065006
-0.000264586
0.000676099
-1.00833e-05
-0.000888851
0.000135344
0.000796697
-0.000187554
0.000975798
0.000149666
-0.000159839
-0.000965624
0.000333696
-7.46691e-06
-0.000344857
0.0001396
-0.00010935
-0.000145829
0.000215231
0.000890906
-0.000203064
0.000153346
0.00013797
-0.000192428
-5.88017e-05
0.000106433
2.41109e-05
-7.17424e-05
0.000369095
-9.21464e-05
0.000583195
-0.000860143
0.00035327
-0.000108446
0.000513781
0.00122641
-0.000556178
-0.00034515
0.000810272
-0.000883571
-1.88475e-05
-0.0010233
-0.000826563
0.000597559
0.000820302
-0.000890101
-3.25926e-05
-0.00100559
5.68416e-05
0.000996133
0.000841672
-0.000101984
7.6901e-06
7.39087e-05
-0.000186799
0.000203633
0.000199867
0.00101167
0.000199932
-0.000535206
0.000965326
-0.00124919
-0.000419518
-0.000919153
0.000803466
-0.000614076
0.000870656
-7.90708e-05
-0.000991009
8.25076e-05
-5.36415e-05
-3.68401e-05
7.53529e-05
-0.000936245
0.000663173
-5.91609e-05
-4.73524e-06
1.62343e-05
3.12063e-05
-4.27054e-05
-0.00110466
-3.8003e-05
0.00106482
-0.000195801
0.000179282
-0.00040399
-7.32084e-05
0.000126203
0.000350995
-0.000534104
0.000647738
-0.000180396
-1.8556e-05
2.5941e-05
-0.000169312
2.90888e-05
-4.01734e-05
0.000756243
0.000133889
0.000312165
-0.000991385
0.000163552
-0.000971696
-9.63413e-05
0.00116942
-0.00010138
0.000130476
-8.24282e-05
0.000112222
-5.61704e-05
0.000774754
0.000501168
-0.00113961
0.000217709
-0.000275336
-0.000959604
0.000983427
-2.38231e-05
0.000107312
-0.000159531
5.22187e-05
-3.39373e-05
4.56957e-05
-1.64937e-05
-0.00104457
-2.45608e-05
0.00106913
-0.00100114
0.00101259
-1.145e-05
-0.000929255
-7.32516e-05
-0.000672171
0.000189068
-6.86197e-07
0.000247188
-0.000871347
-0.0010199
5.4264e-05
-0.000990672
0.00108858
0.00090503
-0.000222191
-0.00092665
-0.000132966
0.000933083
0.000126533
-0.000328506
-1.75303e-05
0.000461454
-0.000115418
0.000993484
3.57101e-05
0.000445343
-0.000978136
6.38767e-05
-5.74366e-05
9.58454e-05
-0.00101714
-3.47729e-05
-0.000894482
0.00103026
-0.00066153
-4.10829e-05
1.20071e-05
4.11393e-05
-2.96006e-05
-0.000123862
6.2449e-05
5.42797e-05
-7.44292e-05
0.000109985
-8.98356e-05
-0.00046118
-7.81713e-05
-6.97891e-05
-0.000764513
-3.86188e-05
3.81437e-05
1.67093e-05
2.89678e-05
-4.41519e-05
-4.36175e-05
-3.87882e-05
4.27673e-05
-0.00096761
-0.00041754
-0.000832274
0.000525499
0.000724315
-0.00100366
-0.00104814
-9.35499e-05
5.63675e-05
0.00108532
0.00055129
3.19836e-05
0.00115176
-1.38195e-05
-0.00116993
-0.000688516
-0.000540928
0.00015332
2.28872e-05
1.71514e-06
-0.000177922
0.00097067
-0.00102933
-0.000394398
0.000217559
0.00120617
3.79376e-05
-8.87896e-05
-5.71026e-05
0.000208758
-0.00105413
0.000985167
4.71523e-06
-3.6926e-05
-1.72655e-06
-0.000244582
0.000212157
-0.00134424
-2.45002e-05
0.00023975
-0.000182287
-8.32485e-05
0.000302172
0.00101528
-6.47246e-05
-0.00125273
9.3841e-05
5.40499e-05
-7.29761e-05
2.36414e-05
0.000377836
-0.000260045
-1.77091e-05
5.83661e-05
-5.91848e-05
-2.74222e-05
0.000863658
-2.85712e-05
-2.92779e-05
6.98553e-05
-1.20062e-05
1.7854e-05
4.35099e-05
-0.000177636
0.000155472
2.47189e-05
-1.60763e-05
4.54072e-05
-2.61313e-05
-0.000408217
-2.68324e-05
-5.46613e-05
6.36445e-05
-1.21713e-05
3.18807e-06
0.00030795
-0.000979915
-2.0619e-05
9.24199e-05
-6.46941e-05
-4.52079e-05
4.29735e-05
-2.63418e-05
7.7908e-05
3.29586e-05
-0.000460695
0.000471255
-6.91552e-05
6.4695e-05
-3.41586e-05
-6.27954e-06
8.98053e-05
3.93036e-05
-0.000122829
-3.75049e-05
0.000105319
0.000404297
0.000921722
-0.000401276
-0.000109152
3.82619e-05
-6.41422e-05
0.000135032
0.00107725
2.32298e-05
-5.26197e-05
-7.98109e-06
3.73709e-05
0.000186662
-0.000211036
0.000191027
-0.000166653
-7.17594e-05
8.66548e-05
2.32483e-05
9.4936e-05
2.68969e-05
-0.000232406
-2.87957e-05
-0.00025194
0.000207527
-0.00010034
-3.38305e-05
3.92981e-05
4.90006e-05
5.93697e-05
-4.8963e-05
-0.000145331
-0.000154052
-8.55338e-05
9.82061e-05
0.00014138
0.0011757
-0.000889755
-3.94231e-05
-6.21975e-05
0.000135478
8.62865e-05
-0.000246689
-0.000557058
0.000717461
7.0916e-05
-0.000168041
9.71251e-05
0.000105681
-0.000915921
-7.33311e-05
5.44794e-05
2.19939e-05
-7.64732e-05
-1.43316e-05
-6.37819e-06
2.07098e-05
9.40047e-05
-0.000119474
2.54688e-05
0.000247863
-0.000163498
-8.43653e-05
-0.000180771
9.86223e-06
0.000170909
0.000143631
-4.67682e-05
-9.68628e-05
0.000212629
-0.000187703
-2.49255e-05
-1.32713e-05
3.18264e-06
1.00886e-05
0.000209327
3.85368e-05
-0.000173381
-7.39029e-06
8.98422e-06
6.19318e-05
-9.93816e-05
0.000145549
-4.61671e-05
-8.70869e-05
0.000101013
-1.3926e-05
5.83494e-05
-8.02776e-05
6.70063e-05
0.000218547
2.07293e-05
-2.26882e-05
1.95892e-06
-5.76694e-05
4.33378e-05
0.000110271
-5.57918e-05
-0.000199108
3.95773e-05
0.000117436
-0.000131661
1.42251e-05
5.35513e-05
-5.44588e-05
-1.4062e-05
1.49696e-05
-7.075e-06
7.03557e-05
-5.79384e-05
3.33773e-05
-2.85414e-05
5.14262e-06
-3.01891e-05
9.62672e-05
-0.000110565
0.000185762
7.81233e-05
-7.50737e-05
2.35671e-05
0.00015794
3.05173e-05
-3.40196e-05
-4.91174e-05
1.62833e-05
-0.00032756
-0.000637025
-0.000339063
0.000388078
0.0010621
-6.25486e-05
-3.6833e-05
0.000138235
1.35887e-05
-0.000151824
-5.3227e-05
3.63353e-05
-2.97501e-05
3.7158e-05
1.9439e-05
-0.000161331
2.96707e-05
1.21669e-05
-4.21547e-05
1.43511e-05
0.000119484
-9.74899e-05
-0.000328472
-0.000583617
0.000359144
0.000552944
0.00103923
-0.000267179
0.000113392
-4.36724e-05
0.000153578
-0.000172047
6.21415e-05
5.55275e-05
3.2363e-05
0.000914301
-0.000923885
9.33656e-05
-8.37818e-05
-2.84788e-05
1.80306e-05
3.85952e-05
-2.8147e-05
-7.69673e-05
-1.01196e-05
-6.79177e-05
-4.25135e-06
6.41879e-05
8.11044e-05
-0.000174217
4.17284e-05
-6.76692e-05
-2.18478e-05
4.77886e-05
0.00109039
-0.000282321
-4.64445e-05
-2.92245e-05
2.10077e-05
0.000415739
-0.00106113
0.000947563
5.65174e-05
-4.6624e-05
2.8314e-05
-4.87173e-06
0.000156481
-0.000369186
0.000726486
-5.09628e-05
-0.000125144
0.000149673
0.000665418
0.000688057
-0.000489243
8.04351e-05
-7.45219e-05
0.000644455
-0.000350173
-0.000294282
-3.77155e-05
5.41819e-05
5.36493e-05
-7.01156e-05
-0.000607928
-0.000136028
0.00041545
2.32669e-06
8.37464e-05
3.32739e-05
-0.000119347
4.09711e-06
1.76349e-05
-2.31457e-05
-1.60728e-05
-9.50502e-06
-0.000141057
0.000166635
8.5975e-05
-3.14221e-06
-9.8006e-06
-7.30322e-05
6.37526e-05
-5.91442e-05
-9.78538e-05
9.32453e-05
-0.000140227
1.62187e-05
0.000107935
-7.15455e-05
5.73795e-05
-2.35496e-05
-4.67284e-05
2.32299e-05
8.72511e-05
-2.11162e-05
1.0687e-05
2.63813e-06
7.79102e-06
8.25406e-05
5.01282e-06
-4.04241e-05
7.57089e-05
-4.02976e-05
-0.000120467
-0.00018087
2.64212e-05
9.53046e-05
-2.1995e-05
6.31945e-05
1.71485e-06
-2.67916e-05
-3.81177e-05
1.40636e-05
2.02806e-05
-5.27603e-06
-5.87608e-05
6.14047e-05
2.63212e-06
-0.000125439
0.000159096
-4.3162e-05
-5.84379e-05
-1.09016e-05
4.82234e-05
-0.000104439
-6.31852e-05
6.97708e-05
0.000107773
0.000403104
-0.000370145
5.22783e-05
-4.75218e-05
8.0774e-05
-3.93973e-05
-4.529e-06
-0.000157944
0.000162473
-2.13462e-05
4.37217e-05
2.18269e-05
-4.42024e-05
2.4732e-06
2.05045e-06
-2.58698e-05
-0.000170888
-1.45113e-05
0.000169075
3.6045e-05
-0.00020512
-1.19825e-05
4.88776e-06
8.80963e-06
-2.41465e-05
-1.46276e-05
-1.66855e-05
7.49219e-05
2.77386e-05
4.92799e-06
2.61567e-05
-2.86115e-05
5.05177e-06
5.55286e-05
-6.37226e-05
1.79622e-05
-3.05067e-05
-0.000128513
5.45756e-05
-6.63506e-05
1.68268e-05
-9.82095e-05
9.22505e-05
-1.07264e-05
5.84279e-05
-2.80464e-05
4.45404e-05
1.18947e-05
1.05475e-05
-8.65514e-06
0.000252696
-0.000260471
0.000226436
-0.000218661
9.57631e-05
-3.8689e-05
-5.7074e-05
-2.06625e-05
3.89051e-05
-9.96126e-05
-0.000135705
0.000151819
2.10181e-05
-5.69151e-05
-9.09598e-05
9.76355e-05
1.43425e-05
-7.58076e-05
-0.000411553
-0.000111052
0.000194134
-2.97598e-05
-0.000155838
8.59848e-05
5.82978e-05
-0.000146931
0.000520323
-0.000266458
1.71874e-05
-6.39548e-06
5.659e-05
-6.73819e-05
-4.19945e-05
1.75773e-05
0.000862564
-0.000218109
0.000126858
3.55833e-05
-0.000192201
2.97275e-05
0.000112317
-0.00078922
0.000725927
0.000720422
-0.000821586
0.000602215
-0.000528355
0.000294179
-1.50433e-05
-0.000137407
0.00015245
-0.000137308
2.39069e-05
-2.55181e-05
1.87986e-05
-0.000147102
0.00100967
-0.00110115
-0.00113509
-2.57016e-05
-0.000265658
-0.000106677
-0.000117229
0.000108382
1.4202e-05
-5.46987e-05
-1.56703e-05
5.6167e-05
4.64624e-05
-5.47911e-05
9.74367e-05
-8.9108e-05
0.000156316
1.27591e-05
-1.62828e-06
0.000119945
-2.41819e-05
0.000120755
5.41507e-06
-9.28957e-05
-0.000770758
0.000979969
0.000516716
-1.74617e-05
1.2542e-05
2.83031e-05
-1.69382e-05
-0.000471191
9.4869e-05
0.000376322
0.000123143
-3.20837e-05
3.04821e-05
-0.000121541
9.57472e-05
-8.9885e-05
-0.000929747
-2.87867e-05
3.37184e-05
0.000118211
-0.000156976
7.53307e-05
0.000553601
0.000158884
-0.000712486
-2.47497e-05
1.34306e-05
2.20061e-05
-4.53728e-05
-1.93039e-05
6.96895e-05
-4.6778e-05
-3.90189e-05
0.000181608
-0.000190627
2.17775e-05
1.49334e-05
0.000135549
6.35885e-05
-5.91871e-05
-0.000111069
0.000124917
-3.80298e-05
0.000414934
-1.18306e-05
1.815e-05
0.000396784
9.09251e-06
0.000179386
-6.02569e-05
4.20658e-05
-5.44754e-05
-9.52827e-05
0.00055188
8.24108e-05
-2.98526e-05
7.18761e-05
-3.46512e-06
3.50396e-05
-0.000189621
-0.000136179
1.72285e-05
0.000160203
-0.000157247
-9.64644e-05
9.55987e-05
-4.57583e-05
6.63009e-05
4.26602e-06
-5.80249e-05
-0.000108098
-4.78479e-05
5.36821e-05
-1.04506e-05
-4.14946e-05
-1.73688e-06
0.000118429
-0.000109996
-0.000153194
2.61072e-05
8.52392e-05
2.60168e-05
-0.00111938
-8.41573e-06
-0.000922382
-0.000321928
-0.000103064
5.71076e-05
-6.25856e-05
6.62224e-05
-3.99365e-05
-3.22196e-05
2.62562e-05
-2.13627e-05
2.7326e-05
8.37582e-05
3.51994e-05
1.01456e-05
3.8504e-05
-0.000265634
0.000339659
0.000461624
-0.000535648
-6.0535e-05
-2.46017e-05
6.58329e-05
-4.77554e-05
-0.000459155
9.45629e-05
-6.27132e-05
6.02282e-05
-5.22137e-05
4.94905e-05
-0.000959548
-2.20634e-05
0.000991082
2.87415e-05
0.000140817
-4.11026e-05
-9.42991e-05
4.12541e-05
4.59551e-05
-2.33962e-05
-2.25589e-05
0.000983804
-0.00103486
-5.05973e-05
0.000101316
5.61914e-06
5.07268e-05
-6.34572e-05
1.92054e-05
-3.46511e-05
-5.82081e-05
7.36538e-05
4.22784e-05
-3.77465e-05
-0.000335766
4.47355e-05
-2.1033e-05
2.4543e-06
8.49874e-05
-6.19451e-05
0.000164331
-0.000140266
-4.85986e-06
0.000636071
-0.000334181
-2.18389e-05
-0.000102006
0.000117121
6.72378e-06
-8.88061e-05
7.4229e-05
3.64041e-05
-0.000857108
6.7213e-05
0.000167993
8.51465e-05
-0.000182784
-4.27583e-05
-6.45547e-05
-0.000198566
-2.24158e-05
0.000220982
5.66032e-05
-6.67093e-05
-1.83728e-05
0.000280483
-0.000378124
4.70537e-05
-5.31637e-05
7.15473e-05
-2.8445e-05
-4.07382e-05
0.000127584
7.22497e-05
-0.000144768
5.70897e-05
6.54591e-05
0.000282323
-0.00100021
3.22343e-05
5.05105e-05
-0.000739208
2.04434e-05
4.37368e-06
6.60591e-05
7.54297e-05
0.00014186
-0.000196549
-2.07404e-05
7.77084e-05
4.73039e-05
-1.26866e-06
-7.26391e-05
0.00109669
2.9411e-05
8.97269e-05
-0.00105018
-4.11834e-05
2.39364e-05
6.86247e-05
-8.18094e-05
0.000452106
0.000208935
0.000250985
0.0012482
0.00109547
0.000180606
0.000218309
0.00109472
7.28709e-05
-2.77718e-07
-1.16394e-05
-4.32493e-05
-2.68576e-05
-0.000134081
-0.000918131
0.000124899
0.000250962
2.73435e-05
-7.31892e-05
-3.11378e-05
-5.11217e-05
9.6204e-06
7.85273e-07
0.000154965
3.44793e-05
5.02106e-05
1.56904e-05
4.9414e-05
-0.00014172
0.000201675
-8.23424e-05
-0.000160436
-0.000126825
0.000124649
-5.09876e-05
0.000859821
-0.000187489
-0.000657928
-1.4405e-05
-0.000766168
0.000702787
0.000345705
-3.66618e-05
2.70102e-05
-3.45508e-05
-7.75669e-05
8.8091e-05
-1.22878e-05
1.98137e-05
-0.000264635
0.000358287
0.000160537
-0.000982823
9.75431e-05
0.000689838
-0.000692512
5.95205e-06
0.000479134
-0.000466936
2.68375e-05
2.14249e-05
5.65009e-05
2.84076e-05
5.11585e-05
-0.00020789
-2.6323e-05
0.000183055
0.000191488
-0.000139204
-0.0001284
-5.79069e-05
7.70856e-05
0.000100316
0.000206768
-0.000120423
-3.07591e-05
8.04131e-05
0.000816262
-0.000220298
0.000199012
7.24444e-05
-1.07915e-05
-1.89301e-05
-7.954e-05
-6.61562e-05
0.000102534
-0.00100556
0.00103881
-0.000280775
-4.21912e-05
-0.000151343
-3.53784e-05
-9.54972e-05
2.47553e-06
-4.52539e-05
-3.79547e-05
-0.000964897
-0.000198469
-4.27044e-05
7.2126e-05
-5.42928e-06
0.000784234
6.63678e-05
0.00104873
-0.00101791
-6.376e-05
9.32652e-05
-6.48836e-05
5.08329e-05
4.66816e-05
0.000292883
-8.03383e-06
2.51105e-05
-0.00030996
-0.000307761
5.00129e-06
-2.44245e-05
-1.72386e-05
-8.24103e-05
-1.3291e-05
-4.27228e-05
5.91491e-05
0.000567241
-1.18137e-05
5.82084e-05
-6.58501e-05
-9.34071e-05
-9.41486e-05
-7.77631e-05
9.14768e-05
-0.000122065
-1.46197e-05
0.000216115
-0.000175525
0.00100372
-0.00125963
0.000285321
8.55155e-05
-5.52619e-05
0.000720801
5.66348e-05
0.00094502
0.000278119
-0.000100336
-0.0011228
-8.50427e-05
-2.25597e-05
4.40327e-05
3.00305e-05
-2.37279e-05
3.1199e-05
7.42035e-06
-1.48915e-05
5.59565e-05
4.85705e-05
-4.27833e-05
-6.17437e-05
-3.02005e-05
3.51559e-05
0.00133173
9.87941e-05
8.29211e-05
3.56524e-05
0.00132644
5.14108e-05
-5.03697e-05
-8.37915e-06
0.00012184
-2.00148e-05
5.60889e-06
-0.00102961
8.06937e-05
8.39288e-05
-9.04935e-06
4.59846e-05
7.09747e-06
-0.00097307
-0.00115896
0.000739855
-9.91856e-05
9.19744e-05
-7.61459e-05
4.17689e-05
-1.3638e-05
4.8015e-05
8.11703e-05
3.11204e-05
1.48347e-05
0.000213052
1.87795e-06
0.000164792
-2.25091e-05
8.82698e-05
5.94092e-05
-2.53635e-05
0.000103946
0.000115648
-5.29593e-05
-5.41965e-05
-5.86562e-07
4.14921e-05
2.90275e-05
4.23859e-05
-6.05831e-05
-2.13887e-05
4.23698e-05
-1.96492e-05
-5.82058e-05
1.87234e-05
-0.000236959
1.12317e-05
-1.27694e-05
-9.91881e-06
-7.90827e-05
4.20765e-05
0.000855747
0.000140644
-0.000218985
-0.00080948
0.000141854
-1.64035e-05
5.92526e-05
0.000448057
0.000407111
0.000166411
-7.09442e-05
0.00108457
-0.000460902
-2.39783e-05
-5.6079e-05
1.17621e-05
0.000121536
-6.1523e-05
-2.84099e-05
0.00014321
-1.45683e-05
1.67718e-05
-3.83932e-05
2.23407e-05
-0.000726518
0.000676794
4.97239e-05
3.08379e-05
-1.67721e-05
-8.41814e-05
-1.45215e-05
0.000366407
-2.52961e-06
0.000886717
0.000151559
-0.000788843
6.23258e-05
5.23467e-05
0.00106884
-8.80499e-05
-0.000947434
0.00101342
-0.000361914
0.000606355
4.328e-05
-0.000287721
-0.000176545
-6.8758e-07
2.31802e-05
5.82513e-05
0.000618542
1.77119e-05
7.3405e-05
1.0884e-05
-0.000102001
0.000154748
-3.55344e-05
3.97236e-05
-0.000158937
-0.000174997
4.14984e-05
0.000133498
2.45189e-05
4.23505e-05
9.73134e-05
-4.33967e-05
-8.13248e-07
-4.44407e-05
-0.000219209
4.42121e-05
-0.000263938
0.00036797
-0.000425378
-0.000304506
-0.000887645
5.09525e-05
1.9532e-05
1.06285e-06
-0.000231011
-4.35551e-05
-8.23437e-06
2.52081e-05
-1.70389e-05
4.38576e-05
0.000282998
-6.80302e-05
0.000383038
0.000525521
-8.73236e-05
-2.82323e-05
7.76013e-05
-0.000470735
0.000450317
2.04181e-05
8.29473e-05
-0.000871791
6.19704e-05
-0.000120758
0.000271158
-4.06369e-06
-0.000274251
0.000852653
-0.000310413
0.000350599
-0.000382657
-3.36156e-05
2.86231e-05
1.94446e-05
7.44253e-05
0.000878203
-0.000195101
0.000356125
-0.000958592
0.000655418
0.000631752
-0.00105953
-5.05941e-05
0.000547208
0.00032412
-0.000263106
-0.000629353
0.000599037
0.000525408
-0.000623277
0.000346395
0.000592301
-0.000265378
-0.000412821
0.000114589
0.000406615
-0.000144936
4.9124e-06
-0.000638237
0.000766522
-0.000494491
2.37564e-05
-0.000172342
2.27839e-05
0.00036868
0.000588505
2.00479e-06
-1.66167e-05
-2.86374e-05
-2.95522e-05
7.25234e-05
0.000140083
2.51117e-05
-4.71067e-05
0.000434936
1.53809e-05
-1.67633e-06
-4.02444e-05
1.81929e-05
0.000108212
-5.86681e-05
-6.44923e-05
-9.3661e-05
-0.000178501
6.11257e-05
-8.11729e-05
5.79794e-05
3.65835e-05
-0.000412559
-0.000344534
7.29069e-05
2.13858e-05
-8.1006e-05
-0.00053384
0.000116989
-0.000139327
-1.96885e-05
-3.98297e-05
7.25804e-06
0.0001064
-2.86837e-05
1.431e-05
2.63808e-05
-0.000914278
0.000117556
-8.08324e-05
9.7884e-05
-0.000169557
0.00101349
-0.000960027
-2.70659e-05
-8.48089e-06
0.000103629
0.000167906
0.000258987
0.000399868
-0.00108293
2.89131e-05
4.53038e-05
3.90708e-05
3.97948e-05
2.08359e-05
-1.67731e-05
0.000923834
0.000142164
0.000103034
0.000111265
-1.3988e-05
1.21855e-06
0.000146804
1.0525e-05
-0.00100634
0.000666309
6.46956e-05
-9.6271e-05
9.35173e-05
7.51099e-05
0.000114616
-8.06009e-05
1.65365e-05
0.00111377
7.03444e-05
-0.00107712
-0.000643988
0.000844119
2.21642e-05
-2.58445e-05
7.4393e-05
-0.000107431
0.000167536
0.000501273
-0.000725248
0.000223975
0.000433888
6.73853e-05
0.000444883
-1.09946e-05
-0.000308765
0.000465246
-0.000677951
-0.000601627
-0.000503366
-9.82613e-05
2.02427e-05
-9.28751e-05
-0.00015248
0.000149404
-0.000937712
-0.000121151
-0.000153835
2.30787e-05
-3.17417e-05
2.08343e-05
3.25289e-05
-6.2368e-05
-2.17404e-06
3.75222e-05
7.98961e-06
-9.2824e-05
-5.11983e-05
9.07953e-05
2.39392e-05
1.33516e-06
-0.000214402
-4.87675e-05
0.00044224
0.000814651
-0.000116646
-0.000115366
3.83982e-05
6.15247e-05
0.000104007
-0.000120228
-0.000235596
-0.000994742
0.000152107
-3.31926e-05
0.000220098
-0.000475776
-2.75901e-05
0.000252153
-0.000145476
-0.000595919
0.000135921
0.000126009
-5.02859e-06
-1.95735e-05
-1.3646e-05
0.000142527
-0.000101666
5.06165e-05
9.74547e-05
-0.00114731
0.00103604
-9.01067e-05
5.44345e-05
-5.71633e-05
4.06041e-05
-3.78752e-05
4.48153e-05
1.03698e-06
1.087e-05
-0.000130343
7.41254e-05
-8.72947e-06
8.07397e-05
-0.00118296
1.58421e-06
0.000681053
-0.000381453
0.000129165
-0.000157123
6.90066e-05
0.000109535
-1.66513e-05
-6.22578e-05
-3.26637e-05
1.43207e-05
-0.000119083
0.000122342
-0.000142864
3.07854e-05
-0.000237505
1.30387e-06
-0.00061064
-0.000386919
-7.43837e-05
1.36022e-05
-6.07572e-05
-5.83008e-05
6.02972e-05
4.90359e-05
6.11285e-05
-0.000112338
0.000974542
0.000184621
5.61437e-05
-0.00011115
0.000115158
-4.9066e-05
-0.000125448
5.06514e-05
-0.000800572
0.0011201
7.95995e-05
-7.11051e-05
0.000125532
9.14115e-05
-9.44365e-05
-2.94501e-05
-5.2455e-06
0.00103871
5.37749e-05
8.27081e-06
-1.26756e-05
5.1792e-05
0.000144001
-7.6659e-05
-7.76637e-05
9.266e-05
-0.000842122
4.20977e-05
0.000684909
8.03297e-05
-4.86935e-05
-1.49078e-05
0.00108465
7.11974e-05
3.81856e-05
8.22175e-05
-0.000361156
6.68696e-05
-6.03538e-05
-0.0001068
0.000144707
-3.56516e-05
2.40158e-05
0.000113891
-3.55614e-05
0.000110624
9.38788e-05
-4.93112e-05
0.000123663
-6.10624e-06
-0.000147271
0.000137782
-0.000962951
0.0010278
-0.000249312
0.000184466
-6.35584e-06
8.09197e-05
0.000102234
-3.18534e-05
4.47011e-05
-0.000245937
0.000599301
-0.000533004
-0.000187072
-5.56478e-05
-7.34942e-05
2.09375e-05
-5.09727e-05
1.37689e-05
-4.99482e-05
-0.00115072
-0.000134423
5.35645e-05
-0.000169166
-1.61233e-06
5.41977e-05
-0.00106831
0.00096729
1.6118e-05
-1.63702e-05
0.000991334
-2.24625e-05
0.00055658
-0.000480562
-7.6018e-05
0.000263055
3.69696e-06
0.00010952
2.12037e-05
-8.24627e-05
8.2684e-05
-0.000890035
0.000898729
0.000120045
-2.11038e-05
2.62004e-05
-7.61847e-05
4.99843e-05
-3.4401e-06
1.75887e-06
2.27603e-05
-0.000144687
6.85024e-05
7.68014e-06
1.40922e-05
0.000319222
-0.00106316
1.72874e-05
1.07793e-05
-1.23501e-05
-2.53671e-07
0.000112519
-0.000106902
-2.11884e-05
-1.89559e-06
2.3084e-05
-4.24115e-05
0.000114847
-9.50194e-05
-1.43234e-06
-0.000337065
1.82341e-05
-4.39034e-05
-0.000620826
0.000455666
5.23955e-05
-8.36661e-05
1.8421e-05
-1.13357e-06
8.9858e-06
5.65418e-05
0.000134301
0.000684457
3.92382e-05
8.67143e-05
1.54539e-05
0.000152852
-0.000131148
-1.80786e-05
-4.91135e-05
-8.12487e-05
7.92405e-05
-1.9104e-05
-2.08439e-06
1.98725e-05
-1.45153e-06
7.62053e-05
0.00011026
0.00010322
-9.19968e-05
4.44866e-06
-4.77842e-05
-2.26395e-05
-9.71505e-05
7.73367e-05
0.000465807
-0.000410298
-2.04537e-05
0.00011415
-0.00025597
-1.92853e-05
1.81287e-07
-0.000155852
6.14783e-07
0.00105028
-1.61257e-05
-0.00101219
-0.000168609
0.000167742
0.000690705
-0.000107156
0.000559458
-0.000224652
-3.37832e-05
-2.57725e-05
-2.21083e-06
0.000255033
-3.5862e-05
4.41328e-05
-0.000235437
0.000311642
-3.02818e-05
0.000133502
0.0014017
-0.00113242
4.37603e-05
-0.000924643
-7.506e-05
-7.66114e-06
-3.42424e-05
0.000181275
-1.85171e-05
0.000545413
-0.000716492
-0.00011261
9.43408e-05
-1.56386e-06
7.48527e-05
0.000289629
0.000207713
-8.24032e-05
-0.000885794
-0.000106766
-0.000125853
-0.000371225
0.000388763
-0.000202949
0.000588646
0.000925421
-0.000265863
1.97423e-05
-6.01514e-05
3.34266e-05
-8.54916e-05
3.94808e-05
0.000680496
6.01951e-06
6.68127e-05
0.000133719
-1.00561e-05
7.48086e-05
0.000169773
-7.51232e-06
-4.32052e-05
-0.000160168
-0.000220845
-4.33855e-05
0.00022204
3.40149e-07
1.09781e-05
4.17124e-05
0.00017871
2.16894e-05
7.09718e-05
9.09642e-05
0.000138984
3.31008e-05
0.000895582
-0.000908265
-4.18767e-05
-5.86801e-05