/*--------------------------------*- C++ -*----------------------------------*\
| =========                 |                                                 |
| \\      /  F ield         | OpenFOAM: The Open Source CFD Toolbox           |
|  \\    /   O peration     | Version:  v1912                                 |
|   \\  /    A nd           | Website:  www.openfoam.com                      |
|    \\/     M anipulation  |                                                 |
\*---------------------------------------------------------------------------*/
FoamFile
{
    version     2.0;
    format      ascii;
    class       volScalarField;
    location    "0.15";
    object      epsilon;
}
// * * * * * * * * * * * * * * * * * * * * * * * * * * * * * * * * * * * * * //

dimensions      [0 2 -3 0 0 0 0];


internalField   nonuniform List<scalar> 
1466
(
6.22399
12.7688
0.451133
5.06724
0.438441
0.431741
0.988518
0.53073
11.2248
0.554385
1.88128
3.80007
7.48614
0.42548
0.396849
3.55863
0.39266
9.82648
9.5412
2.49232
6.61756
1.80455
7.98941
2.18393
9.96626
0.898938
6.65486
3.55324
0.717755
75.2806
3.12145
3.35795
0.395987
1.80199
116.156
1.55053
1.23697
0.437013
0.743263
0.643849
1.02248
2.27023
1.15083
1.72013
0.537089
2.2785
23.1252
0.404799
0.45815
0.491148
0.717781
17.9372
0.448647
0.436002
0.559578
8.96101
4.95259
3.01831
0.592621
0.45589
1.22985
1.34383
0.629955
4.14451
30.4644
1.27018
18.0759
3.72235
82.734
0.686547
2.42915
12.5804
2.88485
10.9955
1.42343
101.873
1.66189
0.458328
3.58607
100.159
0.394001
1.97873
0.637358
9.7183
4.46619
9.35773
2.24141
91.4118
0.473354
7.05115
0.654391
5.66085
1.72365
6.24356
0.668148
0.482397
6.43826
9.81892
10.6656
0.588694
0.586843
0.795948
0.431452
0.531204
2.22847
0.966884
0.44549
0.410887
1.60246
5.33965
0.941711
102.609
4.65111
1.39103
0.946598
0.587354
3.85617
6.78556
1.01243
1.30604
14.7016
4.81488
0.498014
3.21736
0.66736
0.661128
100.611
9.4021
2.02608
25.2036
0.450391
3.60577
7.86241
2.15204
0.83065
1.05849
1.44561
0.457827
0.961598
0.845984
0.455976
4.46455
1.86657
9.20512
28.5
8.36916
4.04079
9.82482
42.265
22.6832
0.582641
8.83998
95.2054
0.774921
30.0421
3.02969
2.63013
3.00153
6.61619
84.4997
4.70562
111.588
20.3383
2.37739
6.45403
9.44139
1.73684
9.59221
2.88608
35.9995
3.37862
9.76582
0.414482
88.9075
1.42616
12.1912
64.4263
78.8625
0.827833
3.06979
16.0178
2.30304
5.42854
1.09242
92.8645
7.99889
4.44774
6.7007
79.9124
6.35689
4.36455
1.70284
1.48663
8.46743
77.5853
0.678036
0.893031
25.166
4.69158
9.77049
1.04027
31.7922
90.9412
15.718
1.43258
3.97865
8.97808
63.233
8.45612
2.3646
9.05081
3.9198
29.3555
3.07943
7.313
2.19742
6.6317
4.12544
8.07373
1.73553
8.78459
0.672142
2.29676
0.761608
2.52343
9.34104
1.06813
0.780544
0.711088
0.824386
2.00862
91.7259
9.30545
27.8869
1.0043
2.93152
1.78923
9.34517
15.2916
3.8214
9.85324
102.967
67.3702
12.1567
15.1354
109.474
2.24741
11.9836
87.4354
61.8603
5.70754
29.0617
55.4564
21.6473
7.60575
6.77613
2.64076
27.548
8.02712
9.83183
8.24456
7.93554
2.18267
1.02861
83.2846
0.520178
2.94879
34.8346
9.72288
32.8693
24.753
9.31731
3.4186
10.4975
0.631766
1.01051
0.587234
37.1386
3.33414
53.9546
2.65572
8.43831
45.643
102.864
9.12036
0.668645
50.1798
44.0623
1.26293
50.3537
70.0987
7.74282
11.7056
2.06609
41.4418
5.04738
14.1748
0.448034
58.3898
1.27684
0.363283
0.375703
0.354374
17.0225
1.91332
4.11016
9.21514
0.575268
52.6474
30.6835
87.6358
15.5819
2.35233
27.2366
52.8747
59.7808
25.6125
54.6184
0.990431
0.47355
4.09168
11.1966
15.0463
1.64266
5.58365
39.0666
0.504475
56.798
2.54658
0.922394
8.43428
43.6668
0.408006
34.3645
60.7095
25.6284
103.932
14.4592
9.08601
9.09256
2.17622
71.0442
0.425011
99.925
32.0808
0.4565
100.055
66.3436
81.0692
98.4484
62.3736
24.7792
112.206
42.2573
18.6015
36.5871
2.19497
24.6831
22.1094
60.7325
29.5857
35.0457
33.9174
16.9238
1.10709
15.7478
70.5075
74.7701
21.6299
32.8502
44.7897
29.1522
116.502
34.2597
0.383946
2.5886
4.1634
112.796
5.39997
56.8718
12.6543
9.56779
11.3177
9.43043
6.27448
7.97231
0.409115
0.384876
0.456224
0.654777
3.93087
1.84029
14.8058
2.2039
12.9839
20.4665
1.0857
105.143
14.2479
30.733
1.80482
1.1008
83.5919
0.837854
59.9913
2.12582
85.7122
3.86961
3.24815
7.43179
0.851634
98.5221
70.5191
4.26314
7.91424
0.798689
0.718128
4.30286
0.611929
2.61161
8.68813
5.3261
2.52615
98.3409
2.00114
1.54138
9.127
115.076
1.41268
1.86457
0.367879
16.1908
26.1028
161.201
5.4169
39.7009
1.77045
45.7944
0.35857
0.394461
2.73609
8.46064
0.472049
2.69661
3.42019
3.64423
42.9185
2.91112
4.46286
1.37135
1.67
4.91556
14.4314
18.0139
2.87921
9.60535
0.950863
0.708071
11.617
1.90596
0.38684
4.64354
0.799376
1.42045
2.75776
5.63781
5.31769
5.69134
7.37936
6.76016
6.86742
0.912144
1.44552
0.596715
1.3121
7.0271
2.6932
17.5003
22.6058
14.9159
31.505
2.39546
2.11727
21.172
19.0122
49.0871
7.02218
3.73783
28.3989
31.9584
17.2941
3.4006
0.382501
4.05943
16.1191
1.84794
1.78487
4.78795
53.5379
16.4232
7.38005
8.81634
0.802237
3.99738
2.64252
20.1444
83.3664
1.13646
6.26801
1.63381
8.4786
19.2353
15.9558
27.2539
1.42978
16.9869
4.49596
16.8774
45.4872
0.430822
5.67791
7.5806
21.5993
51.1646
18.3826
5.91877
6.73965
46.5619
4.65813
19.76
24.5757
105.398
25.5407
2.34802
2.7271
5.63481
44.6656
98.4972
3.55292
2.59634
44.5814
4.30764
4.4008
14.7957
3.58453
37.4438
2.76476
43.5222
31.055
0.820734
19.7719
7.74285
4.5611
3.61238
57.5762
1.21068
1.373
14.6045
84.6252
38.9747
19.2792
18.3407
2.22345
64.7966
37.5204
13.5762
3.06953
22.8021
108.305
3.68832
6.87876
25.3473
20.1892
58.9785
14.2494
47.7648
25.1362
3.4049
2.08012
9.32925
16.3032
2.8531
2.41672
18.2511
14.8417
16.5829
20.664
28.6777
1.50945
13.3732
1.90606
40.6825
16.026
3.23078
6.26542
2.06651
9.35745
89.5083
12.9607
49.886
59.6164
34.5597
35.3279
37.7266
11.2954
19.6891
7.30458
0.39191
0.788973
11.1038
14.8554
1.37671
42.7297
57.941
2.92739
56.3243
67.6203
49.7785
75.863
31.0678
42.153
0.509429
7.4954
43.8226
70.3255
4.29687
4.14972
14.9199
12.9941
1.93738
13.0018
59.7066
78.943
40.6213
4.44318
35.8349
80.7869
57.2369
40.2731
5.63589
36.1627
115.141
103.221
0.592494
10.7911
34.8677
11.1673
26.0264
94.5337
46.9712
5.74089
25.6201
30.6272
0.431007
18.5387
13.2212
7.87662
3.93747
3.87996
11.8094
22.0327
98.2762
37.2761
36.8227
14.7318
23.5079
0.8885
27.3636
8.66103
6.75129
0.613302
11.1347
11.6232
1.06332
0.747331
0.397208
0.373145
0.964348
3.47836
54.8979
4.36019
0.3705
0.90831
17.9545
7.89636
47.3977
21.2403
6.50987
11.2008
6.59475
19.4514
59.8762
44.8698
68.1911
9.85877
6.55614
60.2068
16.0726
28.4824
17.3275
13.0951
14.2647
6.56026
2.08882
13.3662
17.4427
20.2345
31.9566
6.34348
15.136
14.3245
9.78179
7.65479
96.2335
42.2368
2.92783
78.9136
23.4332
10.8094
54.9802
92.8172
2.26098
23.2453
5.42325
4.02277
5.43405
5.14921
7.13403
10.2441
0.570116
10.6357
2.90021
16.7123
0.590143
16.3108
4.90171
3.4373
66.1927
0.711897
26.9799
1.59039
0.422183
7.50553
0.65711
1.81164
1.50533
44.5577
1.44891
14.4228
105.098
4.63073
21.5762
0.820191
3.67502
1.10432
16.827
10.5553
5.74868
47.5383
20.4669
4.24459
24.4417
0.68396
41.6696
26.0077
81.8128
2.79841
30.7773
6.39741
5.52503
10.9644
13.1217
0.401008
3.46632
6.69757
4.04155
46.5456
6.95697
8.13137
101.131
2.45701
14.562
3.91366
22.9846
14.3503
0.575951
0.419311
1.23279
21.1035
33.8672
10.6546
12.3061
3.46651
19.9864
11.5943
54.3468
62.5125
19.7478
0.482048
3.71634
10.0491
30.6059
3.30952
0.36867
69.8045
0.482818
0.966373
38.5101
4.60222
5.36176
3.53627
42.2707
8.65135
1.88004
0.923675
0.376823
79.9118
3.1182
0.721872
75.3323
9.80348
24.6708
5.57127
69.5936
0.755428
2.60509
5.59448
42.8691
58.1368
8.36835
94.9375
112.25
14.8949
2.04222
3.39183
1.59586
0.91184
6.63769
14.1193
16.6884
13.8386
25.3532
20.0794
4.17132
20.7827
80.2498
48.2638
2.66285
22.5895
29.0551
20.5558
96.224
5.29991
1.45338
11.9017
13.2855
78.9546
1.07321
1.18359
51.9396
28.5626
2.23544
20.8664
9.3276
0.973754
44.6828
6.00006
4.30414
15.2602
1.27873
13.193
1.24562
26.8731
7.54718
23.0723
8.013
22.3405
2.90091
3.15758
2.80057
3.74004
3.54111
3.55621
3.73573
5.90008
11.9017
11.9718
6.53107
5.64521
5.45443
7.33077
11.9963
11.8115
8.49696
7.92251
10.9036
9.10435
4.39359
6.52773
5.28149
5.04891
4.67486
2.77734
100.816
7.75241
0.663805
12.6834
12.8763
0.739288
8.14814
0.372694
0.384961
38.4131
8.94041
6.96518
0.510049
40.0342
42.7166
1.3028
8.36754
17.4117
5.12226
5.59932
4.25592
52.8503
29.3875
2.93343
4.31746
4.08527
0.496438
15.1839
5.47319
16.9097
9.17616
0.76653
21.1701
3.91661
0.766633
1.75519
1.8836
0.371003
11.3275
1.48964
6.17487
1.31673
0.931298
20.2949
9.89681
81.7151
56.2837
1.59041
1.84782
91.1345
13.4993
1.75735
7.3552
1.02806
0.379467
11.1322
60.4542
35.0814
3.75213
4.18999
51.5209
3.97797
33.3735
0.754275
0.438951
9.09196
25.534
0.642823
3.81512
1.24338
3.44476
1.60863
4.63821
0.603383
3.91252
0.975869
1.31668
5.78269
3.65154
33.9942
4.762
39.152
4.22995
20.3913
3.1961
27.7064
4.6186
0.9417
0.359344
0.518851
68.3868
11.3456
13.3732
84.4709
33.3412
0.545566
0.69355
12.658
7.79067
10.8575
40.762
3.08626
1.38179
1.45151
0.369291
0.623487
9.77757
5.69808
5.96295
1.91688
1.05698
2.11187
5.06895
9.64925
5.81533
44.9031
57.8381
9.66592
24.8039
2.91535
42.2343
8.72315
10.0869
2.59445
8.44478
2.26441
0.450873
2.61742
8.09262
0.722039
11.3279
10.6948
33.5572
25.0393
1.17883
7.35698
13.1931
0.815106
52.9567
7.13453
1.15954
55.4318
0.45227
1.85035
0.985478
1.28445
44.8746
7.20601
1.40068
1.49154
2.45141
50.4177
8.1614
13.7586
6.7278
5.62734
1.34173
16.8582
14.5919
34.7395
57.4622
1.0258
11.2949
3.25486
5.47843
0.714416
0.271413
9.93443
10.7949
1.11095
15.608
1.87222
3.60845
15.9162
1.59955
2.14531
9.16444
3.92912
9.69567
3.90992
1.2736
1.46422
1.125
1.40038
50.6997
52.6925
4.12424
3.0714
2.6504
2.39057
71.5932
10.9398
20.5284
17.9937
3.83157
8.17185
40.4624
2.36026
11.2202
2.77816
11.9146
2.02254
0.941832
0.706282
4.79921
110.142
48.4728
13.3466
5.84878
8.77045
31.2531
40.8824
2.66263
110.599
101.926
5.52146
4.2681
10.2224
1.48409
102.214
3.01933
13.174
18.4704
0.503645
3.19191
64.1566
1.14903
93.2096
88.4861
0.722219
4.92961
2.30212
10.4404
31.0204
7.19715
3.31241
3.82834
8.73936
0.573807
0.354712
0.443159
7.24172
31.3701
1.25193
3.56691
15.8075
50.3796
6.08742
55.7838
63.8445
4.86691
8.96127
0.601097
1.01944
2.25565
38.003
10.3
38.2737
16.9276
12.6718
3.00334
6.17255
20.0628
86.4921
21.7274
26.5538
0.63354
2.10306
12.2854
1.60578
10.436
2.31578
25.5247
104.077
7.61474
8.27059
5.74482
22.0924
58.4736
0.94002
2.31348
2.84393
9.05234
7.96773
12.2084
3.44258
8.91607
18.7966
4.40482
23.0287
0.703064
2.88511
0.395997
68.1947
43.2908
13.8755
0.841002
87.7546
6.68348
0.73689
96.8325
78.7321
4.93009
14.4851
9.52875
13.6639
18.831
9.32375
1.02478
35.0395
5.98061
0.792605
11.6978
2.28364
69.7175
3.66103
4.22016
15.9684
0.513095
93.8038
18.712
10.4177
22.4423
0.367245
0.741769
1.29082
23.2607
9.09391
73.0057
23.0288
7.67933
12.5488
5.54957
4.32289
1.56564
0.354046
0.399242
3.92831
10.4751
13.548
33.3156
6.49478
6.02102
0.577933
0.431555
23.4579
15.9401
16.9119
1.46557
4.24018
3.62126
2.79614
76.6236
11.5247
2.26311
4.72104
16.8989
8.98112
1.12864
5.53245
0.961995
2.2159
23.7425
35.8586
3.90547
15.1239
2.4756
11.1174
6.13986
3.13004
5.06408
32.48
8.23387
103.579
30.1723
2.87643
13.5897
2.52302
13.353
7.35495
19.2547
0.919721
65.1914
1.06753
2.26392
12.4916
18.9054
16.235
21.2108
88.9244
6.99208
17.9208
9.20956
6.2891
14.1933
71.7943
8.84654
1.96174
7.22595
0.389501
7.62311
7.08851
11.8877
2.91676
17.6755
7.27565
0.421199
8.3469
4.42072
2.51498
0.411971
2.92076
3.47338
18.5701
27.4872
1.01262
13.8543
2.24553
92.6822
29.6372
14.4295
0.339715
97.7528
1.62607
12.0447
0.581791
0.766732
1.168
17.392
1.12619
22.8474
2.23158
11.2291
0.609606
0.695303
24.6365
3.47913
1.76051
9.60224
2.78519
16.4266
2.24014
122.842
55.5817
29.4375
11.8684
16.6677
3.6151
4.78459
21.4339
12.3607
0.635559
96.9209
4.39353
1.25116
72.2927
43.1044
17.9255
1.53406
78.5258
1.3024
101.896
24.6667
10.1445
0.929252
0.401189
1.27549
12.4088
5.32637
91.6896
1.1322
35.4861
4.69472
3.05931
19.9133
2.63507
7.23956
13.1216
1.80253
17.3754
1.56209
0.602468
7.92871
5.04485
0.604574
8.0424
2.3449
2.97754
9.44354
2.6749
6.04059
5.5681
99.7961
9.71433
5.01392
10.3767
1.25185
0.357187
0.385573
5.39366
22.8834
24.203
8.03892
2.03394
9.35512
2.26939
5.05495
0.879049
15.0059
3.82734
3.28653
0.603594
8.42303
15.5656
2.59264
2.03805
84.3432
17.3041
122.531
12.4363
1.19666
1.03519
12.2872
106.935
9.78755
28.9864
1.04815
10.9353
2.81901
4.83779
16.4063
14.1991
16.1211
6.62587
29.6711
2.70425
11.0869
1.37132
1.72086
9.64111
2.57596
1.08902
3.57453
11.3698
59.9624
37.8418
1.47922
2.10563
62.2464
12.4137
12.0317
12.1874
1.24398
4.30859
0.541903
1.6053
0.82698
0.818835
2.70957
0.7891
37.9397
1.7072
2.15539
)
;

boundaryField
{
    frontAndBack
    {
        type            empty;
    }
    wallOuter
    {
        lowReCorrection 0;
        type            epsilonWallFunction;
        value           nonuniform List<scalar> 
108
(
9.82648
12.5804
2.88485
0.354374
0.4565
7.89636
21.2403
6.50987
6.59475
9.85877
6.55614
28.4824
14.2647
6.56026
6.34348
0.570116
3.4373
44.5577
1.44891
6.95697
0.966373
3.53627
6.63769
48.2638
2.90091
3.15758
2.80057
3.74004
3.54111
3.55621
3.73573
5.90008
11.9017
11.9718
6.53107
5.64521
5.45443
7.33077
11.9963
11.8115
8.49696
7.92251
10.9036
9.10435
4.39359
6.52773
5.28149
5.04891
4.67486
2.77734
0.663805
40.0342
4.31746
5.47319
9.89681
4.18999
51.5209
4.22995
3.08626
1.05698
9.66592
10.0869
2.59445
52.9567
55.4318
0.985478
50.4177
34.7395
57.4622
3.25486
0.271413
0.271413
1.11095
1.87222
1.59955
2.14531
3.90992
1.2736
1.46422
1.125
1.40038
50.6997
52.6925
4.12424
3.0714
2.6504
2.39057
71.5932
11.2202
2.77816
5.84878
2.66263
3.01933
13.174
55.7838
63.8445
12.6718
3.00334
69.7175
5.06408
9.20956
71.7943
1.01262
1.62607
1.12619
0.401189
1.27549
4.69472
)
;
    }
    inlet
    {
        type            fixedValue;
        value           nonuniform 0();
    }
    outlet
    {
        type            zeroGradient;
    }
    wallInner
    {
        lowReCorrection 0;
        type            epsilonWallFunction;
        value           nonuniform List<scalar> 
126
(
0.437013
0.743263
0.643849
1.02248
2.27023
1.15083
1.72013
0.537089
2.2785
23.1252
0.404799
0.45815
0.491148
0.717781
17.9372
0.448647
0.436002
0.559578
8.96101
4.95259
3.01831
0.592621
0.45589
3.58607
0.482397
6.43826
9.81892
10.6656
0.588694
0.586843
0.795948
0.431452
0.531204
2.22847
0.966884
0.44549
0.410887
1.60246
5.33965
1.39103
0.946598
3.21736
0.66736
0.450391
3.60577
1.05849
1.44561
0.457827
0.455976
20.3383
1.42616
0.893031
8.02712
9.83183
8.24456
0.520178
2.94879
24.753
9.31731
3.4186
7.74282
2.06609
5.04738
14.1748
4.09168
11.1966
15.0463
24.6831
21.6299
116.502
112.796
105.143
30.733
115.076
26.1028
161.201
39.7009
45.7944
8.46064
14.4314
9.60535
11.617
27.2539
105.398
57.5762
4.14972
3.93747
4.02277
44.6828
4.30414
24.8039
2.24014
3.6151
10.9353
4.83779
16.4063
14.1991
16.1211
6.62587
2.70425
11.0869
1.37132
1.72086
9.64111
2.57596
1.08902
3.57453
11.3698
59.9624
37.8418
1.47922
2.10563
62.2464
12.4137
12.0317
12.1874
1.24398
4.30859
0.541903
1.6053
0.82698
0.818835
2.70957
0.7891
37.9397
1.7072
)
;
    }
    procBoundary1to0
    {
        type            processor;
        value           nonuniform List<scalar> 
29
(
1.68625
1.68625
0.900838
1.07462
9.25076
4.21359
122.08
1.93109
34.6026
1.49555
1.69224
4.21359
0.900838
1.54559
86.4498
32.8388
9.25076
17.2252
1.07462
1.66835
15.0483
7.63146
25.9634
12.5048
12.5048
25.9634
8.51362
84.8399
8.51362
)
;
    }
    procBoundary1to2
    {
        type            processor;
        value           uniform 1.69425;
    }
    procBoundary1to3
    {
        type            processor;
        value           nonuniform List<scalar> 
48
(
0.965821
1.59892
1.38345
1.38345
3.71518
2.15101
2.15101
4.38558
1.02294
0.997763
0.814912
0.997763
0.77241
0.942825
1.46964
0.77241
0.392726
0.392726
0.354571
0.354571
0.406945
0.516656
0.414708
0.981089
0.981089
0.625375
1.32461
1.32461
3.42611
4.9242
1.67343
3.42611
4.38558
1.11309
0.415212
4.9242
2.31662
0.814912
1.00433
1.81688
0.501579
1.33136
1.11309
0.415212
1.65984
2.69175
2.3156
0.501579
)
;
    }
}


// ************************************************************************* //
