/*--------------------------------*- C++ -*----------------------------------*\
| =========                 |                                                 |
| \\      /  F ield         | OpenFOAM: The Open Source CFD Toolbox           |
|  \\    /   O peration     | Version:  v1912                                 |
|   \\  /    A nd           | Website:  www.openfoam.com                      |
|    \\/     M anipulation  |                                                 |
\*---------------------------------------------------------------------------*/
FoamFile
{
    version     2.0;
    format      ascii;
    class       surfaceScalarField;
    location    "0.15";
    object      phi;
}
// * * * * * * * * * * * * * * * * * * * * * * * * * * * * * * * * * * * * * //

dimensions      [0 3 -1 0 0 0 0];
oriented        oriented;


internalField   nonuniform List<scalar> 
2776
(
0.000675056
0.000137212
-0.000610865
-0.000201403
-0.00068874
0.000625072
0.000324972
-0.000261304
-0.000160142
-7.8137e-05
8.94353e-05
0.000148844
-5.96602e-05
6.41112e-05
0.000152886
-0.000157337
-2.93774e-05
-3.0489e-05
5.95203e-05
3.4611e-07
-3.03028e-05
-8.53282e-06
4.58012e-05
-6.96563e-06
-0.000201905
-0.000217587
-0.000123846
7.22183e-05
7.49409e-05
-2.33128e-05
0.00110447
0.000965143
-0.000985481
-0.00108413
2.82186e-05
-5.43518e-05
3.78178e-05
-1.16846e-05
-0.00014259
-0.000354488
0.000146182
0.000350897
-0.00011173
4.57156e-05
9.77155e-05
-3.1701e-05
0.000971007
9.99829e-05
-0.00150328
0.000432292
-1.61581e-05
-1.09679e-05
-2.25146e-06
-1.39537e-05
-3.02611e-05
1.3912e-05
0.000183025
-5.76896e-05
-0.000267926
2.81356e-06
-0.000118723
1.90382e-05
9.68713e-05
7.16774e-05
-0.000391442
0.000319764
0.000559471
-0.000126072
6.12309e-05
-0.000494631
0.000347145
-2.63404e-05
2.48096e-05
-0.000345614
-0.000464531
3.70826e-05
-1.02581e-05
0.000437707
2.44912e-05
-0.000108147
0.000190257
-0.000106601
0.000623814
2.31105e-05
-2.67683e-05
-0.000620156
0.000329675
1.95845e-05
-8.76576e-06
-0.000340494
0.000361169
-0.000452222
-0.00129843
0.00138949
-0.000107371
0.000104752
-0.000123416
0.000126035
2.50146e-05
-9.8703e-05
9.35325e-05
0.000358402
-0.000424785
-2.71496e-05
6.24922e-05
-4.65717e-05
5.95069e-05
-7.54274e-05
-0.000325987
0.000367715
0.000651731
-0.000693459
0.000173357
-0.000347615
-1.53093e-05
0.000189567
-8.15445e-05
-4.85832e-05
3.01688e-05
9.99589e-05
9.6579e-05
-0.000105659
-5.02348e-05
5.93147e-05
-8.36989e-05
0.000108919
-0.000416648
0.000391427
4.12544e-05
8.49293e-06
0.000350476
9.36586e-05
-2.27418e-05
-8.4246e-06
-0.000307551
-7.89435e-05
-0.00010465
-0.000121033
3.65179e-05
1.91164e-05
-5.56343e-05
-5.45633e-05
0.000216601
-0.000162037
-7.54672e-05
0.000230312
-0.000154844
0.000144858
-0.000115529
-2.93288e-05
0.000195636
-0.000169349
-2.62867e-05
-9.71037e-05
-1.60052e-05
0.000113109
-0.000119927
-1.49802e-05
0.000134907
-0.000518601
0.000146696
0.000363574
0.000181456
3.40393e-06
4.58681e-06
-7.99073e-06
6.38333e-05
-3.21682e-05
-3.16652e-05
6.63387e-05
-4.46591e-05
-2.16796e-05
-5.94209e-05
8.48154e-05
-2.53945e-05
-0.000117825
-0.000570915
1.08271e-05
-1.93599e-05
-1.48063e-05
-1.56826e-05
0.000112187
-1.56082e-05
-0.00120347
0.00156464
-0.000538308
0.00010355
0.000434758
-0.00030678
-4.77087e-05
0.000128095
-0.000147701
1.9606e-05
6.15492e-06
2.20637e-05
-1.79678e-05
-0.000143662
0.000139977
2.16524e-05
-0.000180109
0.000174869
-7.02269e-05
-0.000114724
0.00010636
-4.61991e-05
-0.00012143
5.72423e-06
0.000432606
-0.0003169
0.000994194
-0.000830047
-0.000345686
0.000181539
-3.47876e-05
5.93966e-05
1.64709e-05
-4.10799e-05
0.000582752
-0.000115283
-7.89546e-05
-0.000388515
-0.000103154
-2.39498e-05
-0.000237018
0.000771283
-0.000774259
3.93781e-05
-3.64021e-05
0.000104364
-0.000156319
-0.000122335
0.00017429
0.000289919
-0.00023138
-0.00017783
0.000119291
5.68199e-05
-0.000540216
0.000483396
1.83049e-05
-0.000219476
0.000201171
0.00120922
-0.00053631
-0.000914279
0.000241372
-9.4555e-05
0.000118347
-4.17602e-05
-0.000573952
-7.22256e-05
0.000270606
0.000375572
-3.27877e-05
-0.000189057
4.17354e-05
-2.37111e-05
-0.000118143
2.71303e-05
-0.000251176
0.000151313
9.9863e-05
0.000103978
-0.000301885
0.000258659
-6.07531e-05
-1.91256e-05
-1.3031e-05
3.17985e-05
3.58055e-07
-0.000169048
0.000210171
0.000105059
0.000134705
6.84136e-05
-0.000112811
-9.03078e-05
-0.000483172
-9.02185e-05
0.000465386
0.000108005
-0.000342716
8.582e-06
0.000336105
-1.97068e-06
1.05364e-05
0.000530645
-0.00051808
-2.31011e-05
-0.00015097
0.000443193
-0.000375922
4.87806e-05
-2.10192e-05
0.00025094
-0.000278702
6.87611e-06
1.05163e-05
6.87989e-05
-7.37675e-05
6.63898e-05
-6.14212e-05
-0.000120344
0.000106673
-9.37006e-05
6.24005e-05
9.41262e-05
-0.000131512
-2.80792e-05
-8.78022e-05
5.62211e-05
0.000105145
-0.000437047
0.000467715
-0.000135813
7.0113e-05
3.8497e-05
-3.63917e-05
-4.79552e-05
0.000471413
0.000153658
5.67945e-05
-9.90002e-05
5.6493e-05
3.02732e-06
-1.36197e-05
-2.09632e-05
0.000105779
-5.37737e-06
8.78129e-06
-3.00672e-05
9.39005e-05
0.000237411
-4.17748e-05
4.87689e-05
2.6172e-05
-2.13411e-05
-1.02195e-05
6.30706e-05
0.000287826
0.000136748
-0.000149269
-1.62821e-05
2.18896e-05
0.000469307
-0.000501612
1.87118e-05
1.35934e-05
-2.96084e-06
0.000560611
-0.000420438
6.11489e-06
-6.04667e-05
-5.86167e-05
-0.000297878
0.000157394
0.000199101
2.54667e-05
-7.85955e-05
-8.70662e-06
9.21677e-05
-0.000195191
8.53758e-05
-0.00013047
-0.000156811
9.83852e-05
-0.000102606
-0.000142085
-0.00028877
0.000253394
9.94866e-05
0.000388734
1.28856e-05
-0.000252672
-0.000148948
0.000114485
2.72964e-05
-0.000103335
-3.84461e-05
2.91891e-05
-0.000126293
6.93661e-08
-0.000119996
9.59359e-05
0.000143133
-0.000587508
0.00017353
0.000518298
-0.00010432
-0.000262387
0.000828755
3.58224e-05
-0.000602191
-0.000162464
0.000430473
3.35623e-05
-0.000301571
-6.04239e-05
-1.24673e-05
8.69009e-05
-1.40097e-05
0.000116974
0.000563659
6.11364e-05
0.000286844
-9.36266e-06
0.000222329
-1.13245e-05
-0.000201642
-0.000227826
-0.000220542
7.06231e-06
-0.000127984
-0.000106547
-3.93203e-05
-4.52701e-05
0.000431586
9.43761e-06
-0.000395754
0.000367248
8.2094e-06
-3.35063e-06
-0.000372107
0.000622554
-4.05796e-05
2.76005e-05
-0.000609575
-8.48628e-06
0.000277371
-9.66838e-05
-0.000172201
-0.000453874
-8.97825e-07
-5.92974e-05
0.000514069
-5.64364e-05
3.21159e-05
-5.7224e-05
0.000244557
-0.000113402
-0.000205245
7.4089e-05
0.000123919
-9.74565e-05
3.11611e-05
-5.76236e-05
0.00017557
-0.000146245
3.94737e-05
-0.000201902
2.29409e-05
0.000335805
-0.000373408
0.000362576
-0.000714984
-9.73019e-05
0.000224778
-4.01381e-05
2.43653e-05
8.58858e-05
-0.000186006
-0.00011973
4.8641e-05
0.000257095
-0.000140185
2.70892e-06
7.02029e-05
0.00034381
-3.35917e-05
-0.000380422
0.000264582
-0.000124902
-0.000290651
-5.2844e-05
-5.93317e-05
4.3516e-05
6.86596e-05
-0.00076665
0.000189628
0.000512489
6.45333e-05
-5.54257e-05
2.98751e-05
-3.08858e-05
-0.000534314
0.000182992
0.0004553
-0.000409615
0.000420152
0.000302039
-0.000427901
-9.48483e-05
0.00022071
-0.000171281
0.000238083
-0.000329687
0.000262885
-0.000127653
0.000356578
0.000384468
-0.000370295
4.69643e-05
0.000679747
-0.000634776
7.20039e-05
0.000401446
-0.00034929
-6.2998e-05
1.0842e-05
0.000342256
0.00164466
-0.00126808
-0.000718844
0.00037714
-0.000576948
0.000293341
7.63443e-06
-1.8677e-05
9.72341e-05
-8.61916e-05
-1.53946e-05
-1.69789e-05
-1.22857e-05
-5.17448e-05
0.000108043
0.00034803
-0.000399394
5.13636e-05
-0.000476523
0.000321542
-0.0014589
0.00161388
-0.000487559
-8.85089e-05
0.00064811
-7.20429e-05
0.000224098
-0.000176261
-0.000373824
-4.72102e-05
-1.64352e-05
-8.5624e-05
0.000224371
-7.54403e-05
0.000140989
-0.00144651
0.00125645
-0.000299983
0.000490035
0.000275288
-0.000230357
-9.85569e-05
5.36259e-05
6.22451e-05
-0.000527417
0.00053805
-7.28778e-05
8.54242e-06
-1.64018e-05
1.7992e-05
-1.01326e-05
-9.89083e-06
-5.31398e-06
0.000293276
-0.000278071
0.000541018
4.84705e-05
-5.88441e-05
-0.00034251
2.12163e-05
-2.14222e-05
-0.000472699
-0.000204874
0.000194401
-0.000862895
-0.000132684
0.00022132
-7.25307e-05
7.261e-05
-0.000251255
0.000500298
-0.000121794
-0.000423775
-5.31754e-05
6.24601e-05
0.000130693
-3.66403e-05
-4.21396e-06
1.27752e-05
0.000401316
0.000251755
-0.00052455
-0.000128521
8.33298e-05
0.000241813
-0.00109179
0.000160877
-0.000126894
-8.11931e-05
-6.7525e-05
-8.87942e-05
-0.000124793
9.72624e-05
0.00010768
-8.01494e-05
-0.000345527
-2.19586e-05
0.000132729
0.000234756
-0.000527889
0.000475331
-4.86328e-05
7.88483e-05
-6.68559e-05
0.000100358
-3.68627e-05
-0.000477281
0.000417177
0.000341381
-0.000281278
-0.000575831
0.000578952
-0.000585502
0.000582381
-0.000225049
6.62529e-05
-7.25839e-05
-0.000292437
-0.000336779
2.77509e-05
0.000560782
0.000586954
0.000826281
-0.000527537
-0.000885698
4.79065e-05
-2.63934e-05
-6.16241e-05
4.0111e-05
9.18327e-06
0.000346187
-8.22458e-06
3.32318e-05
0.000600945
-7.4705e-05
-1.6537e-05
6.08211e-06
-0.000336662
0.000347117
-1.08882e-05
1.54203e-05
-0.000447973
0.000443441
0.000300893
-0.00010672
0.000182967
-2.80616e-06
-0.000487891
2.61665e-05
4.01031e-05
-0.000334245
0.000430065
-0.000135922
0.000523297
0.000136505
-0.000118785
-0.000352134
4.97273e-05
-0.000351567
-0.000392957
0.000271825
-8.06769e-05
0.000350396
0.000114749
-0.000167771
0.000640787
0.000206731
-0.000209387
-2.02353e-05
-6.82549e-05
-4.55891e-06
-2.76475e-05
0.000178999
-3.44043e-05
4.37481e-05
-0.000381477
0.000267993
-0.000102097
7.54622e-05
6.5252e-05
-3.86173e-05
-1.92405e-05
-4.4648e-06
1.93495e-05
4.35586e-06
-0.000112108
8.99668e-05
-0.00033569
0.000142567
-1.62652e-05
8.01155e-05
-0.000172547
-8.53992e-05
-4.15672e-05
0.000264446
-0.000445833
0.000222955
0.000300365
-0.000455749
-0.000369167
-0.000249126
0.000769874
-0.000679361
0.000158613
8.52626e-05
-6.30043e-05
-6.28431e-05
4.05848e-05
0.000115345
-0.000288491
8.71665e-05
-0.000127728
1.19921e-05
2.85693e-05
-1.44044e-05
0.000292828
4.50253e-05
1.13539e-05
-0.000349207
8.26292e-05
-5.13799e-05
-0.000333134
0.00046711
6.65251e-05
-0.000294049
-7.81397e-06
-4.4378e-06
4.35575e-06
7.89603e-06
7.77388e-05
-0.000529424
-4.49538e-05
2.51468e-05
0.000142784
-0.000122977
-0.000316215
0.00104891
-0.000209361
0.000195058
-5.41741e-05
6.84779e-05
-0.000422825
0.000801426
0.000518937
0.000141857
-0.000137497
0.00108732
-0.000570395
0.000973851
0.00034585
-0.000307695
7.24572e-05
-0.000110613
2.61532e-05
6.8009e-05
-4.62557e-05
2.50692e-05
0.000166644
-3.92219e-05
0.000288184
-0.000887158
-0.00114177
0.00132568
0.000703244
-0.000266108
0.00027219
-0.000468622
0.000605128
4.43844e-06
1.09819e-05
-3.05457e-05
0.000426433
-5.66896e-06
0.000211836
-0.000181698
-0.000163354
0.000344381
-0.000418735
-0.000465758
0.000540112
-6.85215e-06
-0.000225157
0.000271082
-4.59249e-05
-9.81153e-05
2.17373e-05
-0.000487036
-0.000210909
-0.00147647
0.000800226
4.36468e-05
-0.000453262
-0.000258456
-7.65203e-06
-1.87279e-05
2.31663e-05
-5.93171e-05
-5.4545e-06
3.83783e-05
8.78753e-05
-0.000310012
1.79807e-05
0.00018267
0.000151959
-0.000689455
0.000261697
-0.000218518
0.000646276
-0.000400839
0.000352441
0.000159254
-0.00017331
-8.34e-05
-1.32235e-05
0.000150819
0.00012788
-0.000265476
-0.000181735
1.35138e-05
0.00014685
2.13713e-05
0.000358821
-0.000281039
0.00042037
-0.000498151
-0.000456151
0.00040763
-0.000142589
0.000243964
-0.000397895
0.00029652
5.00274e-05
-5.66442e-05
-4.69963e-05
5.36132e-05
0.000356711
-0.000414513
-4.03135e-05
-0.000100172
0.000337153
-0.000115469
2.42195e-05
-5.64513e-05
0.00102534
-0.000910259
-0.000642613
0.000502637
0.000373949
-0.000703056
-0.000478523
-0.000132343
-0.000927721
3.58434e-05
-0.000783179
0.000452545
0.000108946
-0.00031382
0.000249874
-0.000228657
-3.52079e-05
-2.33652e-05
3.68936e-05
-0.000292054
5.83469e-05
5.2009e-05
-1.16511e-05
-2.33738e-06
1.5181e-05
-1.19249e-06
-2.07353e-05
-1.87327e-05
2.69548e-05
1.25131e-05
-1.16171e-05
2.90426e-06
8.71281e-06
-0.000641708
0.00155588
-0.00123039
0.000215682
-0.000241193
-0.000194843
8.66263e-05
-0.000284268
-3.71604e-05
0.000344257
0.000388318
-0.000214013
-0.000518561
-0.000126329
0.000115504
3.89598e-05
-2.81349e-05
-0.000934281
0.000964303
0.00036343
-0.000393451
-0.000297191
0.000338947
-0.000568477
0.00052672
-0.0010395
0.000528659
0.000693829
-0.00027261
0.00065101
-0.000189876
0.000377807
6.35175e-05
0.000398321
-0.000128282
-0.000333556
-1.29614e-05
-0.000484665
0.000120254
0.000377372
0.00069161
4.54626e-05
-8.89619e-05
-0.000127353
-0.000360451
0.000285122
0.000202682
0.000748823
0.000120055
0.000256362
-0.00112524
-2.34645e-05
6.06898e-05
-0.000163555
-3.41493e-05
-2.68494e-05
4.7045e-05
-0.000223776
-0.000203663
0.000135385
-0.000257883
3.31013e-05
-1.97675e-05
0.000244549
-0.0010814
0.000650371
0.00108855
-0.000657517
-2.15937e-06
-0.000579856
0.000581573
0.000747106
0.000133106
-0.000191284
-1.11416e-05
7.83978e-05
0.000326825
-0.000394081
0.000149755
-0.000579621
0.000501543
-0.000626463
-6.59433e-05
8.58715e-05
-9.80652e-05
0.000792418
-0.000871744
0.000341022
-0.000282971
0.000241608
0.000385744
0.00142762
-0.000667796
0.000327145
-0.00108697
0.000347521
-9.56494e-05
-0.000168541
0.000181723
-0.000153874
5.18148e-05
-0.000655372
0.000130887
0.000472671
6.80124e-05
0.000217883
-0.000152841
-0.000133054
5.79017e-05
5.86345e-05
-9.14947e-05
-2.50415e-05
-0.000479757
2.78047e-05
-0.000433745
2.13351e-05
-0.000132996
0.000365961
-0.000567887
0.000519847
-0.000317922
0.000144774
0.00124989
0.000250002
7.62175e-06
-1.92388e-05
-0.000477986
-2.991e-05
0.000838543
-0.000712671
0.000463046
-0.000588919
-0.000119307
-0.000699539
-4.40488e-05
0.000118414
0.000583865
-0.000537134
-0.000800686
0.00181059
0.000417718
-7.80789e-05
-0.000553855
0.000422532
0.000209402
-0.00029191
-9.3104e-05
-0.000442634
0.000175287
0.000245691
5.92514e-05
0.000117403
-8.29954e-05
-0.000117041
-0.000550754
0.00157541
-0.000610117
-0.00176598
0.000391917
-0.000487656
-0.000362206
-2.28077e-05
0.000435507
-0.000233656
4.49982e-05
-9.25083e-05
0.000693786
-0.000852317
-0.000609618
0.000846256
0.000615679
0.000141525
-0.00014077
-0.000155519
0.000503572
0.0002347
0.000709633
-0.000695488
-0.000509346
0.000495201
0.000702294
-0.000905183
0.00064134
-0.000438452
-0.00014696
2.9919e-05
0.00019158
0.000645836
-0.000413599
0.000281145
0.00109676
0.000502255
-0.000159256
0.000532512
-0.000267925
-0.000264587
0.000662916
-0.000884935
-5.98068e-05
-8.30358e-05
7.68993e-05
-0.000421829
-2.9552e-05
2.60244e-05
0.000425357
8.30385e-05
-0.000101003
6.36797e-05
0.000761948
-0.000229436
0.000439588
0.000182508
-0.00051695
0.000531761
-0.000644168
0.000400913
-0.00054935
0.000498157
-0.00034972
-0.000381614
0.000382275
0.000345418
-0.000346079
0.000444737
-0.000425438
0.000274262
0.000482753
-0.000312277
-0.000423419
0.000144829
0.000440747
-0.000162157
0.000233118
1.39035e-05
0.000122936
-9.45157e-05
2.45402e-05
8.38789e-05
-0.000115226
5.96701e-05
-9.421e-05
3.96739e-05
3.08702e-05
-3.42991e-05
-0.000358326
0.000361755
-0.00037448
-4.61769e-05
0.000367694
5.2963e-05
-0.000469739
-0.000556006
0.000538936
0.00048681
-4.05354e-05
-0.000375215
4.127e-05
-0.000289391
-0.000512625
0.00033994
0.000462076
0.00015974
-0.000296711
2.45299e-05
0.000112441
-8.06074e-05
-7.02469e-05
-0.000253247
0.0010152
0.000399701
-0.000189582
-0.00049951
0.000124974
3.47653e-05
2.38478e-05
-2.42639e-05
-8.01913e-05
-4.23784e-05
1.92299e-05
-0.000495816
-1.98647e-05
-0.000260839
0.00077652
-8.23499e-06
6.8572e-05
-0.00113299
0.000107836
0.00107919
-5.40322e-05
-0.00018338
6.08108e-05
-6.20406e-05
0.00018461
0.000404649
-0.000297929
-0.000602536
2.76449e-05
-1.61499e-05
-0.000117155
2.13321e-05
0.000185283
-8.94595e-05
0.000229594
5.04695e-05
-0.000262627
-1.7436e-05
-1.1711e-05
-6.11223e-05
3.97348e-06
6.88598e-05
-0.000103506
0.00048829
-0.000289777
0.000213917
3.34853e-05
1.27281e-05
-1.04105e-05
-7.35958e-05
1.46265e-05
6.93798e-05
7.02198e-05
1.59847e-05
7.50385e-05
-1.30537e-05
-6.55981e-06
-2.00006e-05
1.91231e-06
-4.77726e-05
0.000358434
-0.000113275
0.000236648
-0.000481807
0.000209696
0.000143907
-0.000303133
7.72482e-05
0.000165933
0.000158907
-0.000153471
0.000352999
-0.000521317
0.00024346
0.000157451
-0.000242004
3.96825e-05
0.00011335
-5.4594e-05
0.000129138
-0.000182122
9.80359e-05
9.26716e-05
-0.000138037
-0.000172222
-2.79965e-05
-0.000107224
-5.42328e-05
2.06332e-05
3.01439e-05
-2.79826e-05
-2.27945e-05
0.000172336
-0.000220843
-0.000248204
-0.000103741
-4.32195e-05
0.000434531
0.000246028
-0.000680559
0.000272965
-0.000143854
0.000206693
0.000203474
-7.85001e-05
-0.000125737
-0.000108064
-3.15186e-06
-0.000383896
0.000387048
1.18658e-05
-3.71229e-05
3.70208e-05
-3.1388e-05
-0.000118613
-0.000342747
0.000373617
-4.92556e-05
2.61026e-05
-1.39699e-05
0.000161378
-0.000169579
0.000158278
0.000247475
-0.000132788
-0.000573304
2.43858e-05
0.000545957
0.000222921
-0.000194118
0.00106833
0.000254969
-0.000284597
0.000187905
-0.000406378
-0.000317942
0.000151016
5.45792e-05
-8.55457e-06
-9.47978e-05
4.87731e-05
-0.000146468
0.000274035
0.000128741
-0.000256308
-0.000208285
0.000241495
0.000284057
-3.66256e-05
-0.000247431
0.00152133
-3.02944e-05
-0.000358532
-4.56305e-05
0.000369864
-0.0003132
-2.95467e-05
6.56465e-05
6.37573e-05
-9.33144e-05
-3.60894e-05
-0.00010719
5.66761e-05
0.000118928
-2.91432e-05
0.000283019
-0.000174518
-6.74952e-05
7.69305e-05
-0.000342415
-4.54575e-05
6.72647e-06
-4.82701e-05
4.26052e-05
-8.39466e-05
8.48718e-05
-3.22643e-05
3.0431e-05
-0.000332301
0.000306523
-0.000366918
0.000385152
0.000126595
-0.000309264
-6.22945e-05
0.000264246
-0.000217316
-8.06154e-05
3.36857e-05
0.000191938
-0.000325738
-8.16437e-05
9.86603e-05
-2.81764e-05
3.15629e-05
-4.8788e-05
-3.9816e-06
-3.11217e-06
0.000178012
-0.000318673
0.000201026
-0.000214654
-0.000102371
9.74881e-05
-8.79488e-05
0.000478183
-0.000616778
-0.000500046
0.000638641
0.000655471
0.000209395
-0.000603254
-0.000261612
-0.000141052
0.00040235
-0.00033141
7.0113e-05
0.000202347
0.00110641
-0.000129659
-0.000256181
0.000295664
0.000695684
-0.000335877
-0.000450386
0.000518729
0.00121145
0.000412775
5.02181e-05
3.95767e-05
-0.000408467
-8.43994e-06
-0.000164272
-6.60862e-05
-1.96703e-05
0.000588011
0.00010372
-0.000401233
-0.000152873
0.000263242
-1.15607e-05
8.21672e-05
-7.9889e-05
7.28628e-05
0.000392178
-0.000536133
0.000438485
-0.000381581
-3.40914e-05
0.000369496
8.17993e-06
0.000446312
-0.000407166
-4.7326e-05
-6.46851e-05
0.000425543
0.000798703
-0.000682606
0.0003676
0.000490944
-0.000175939
-0.000262349
0.000582945
-0.000509869
-0.000242695
0.000490215
0.000106704
4.64199e-06
3.07966e-05
-3.87569e-06
-7.55248e-05
-0.000628047
-0.000735952
0.000511682
-0.000880788
0.000990971
0.000292424
0.000159622
-0.000428025
-3.87069e-05
0.000352881
-0.000388525
4.38239e-05
0.000336917
-6.60709e-06
-0.000240759
-8.9551e-05
0.000580271
0.000234122
-0.000690489
0.000659823
-9.63115e-05
1.82326e-05
0.000225899
-2.36562e-05
0.000244069
-0.000306089
-9.46404e-05
-0.000307475
0.00033982
0.000693596
0.000683435
0.000218226
2.2694e-06
-0.00090393
5.91114e-05
1.44471e-05
0.000449318
6.89414e-05
0.000117648
-0.00029597
-3.89936e-05
0.00041969
0.000839022
-0.000845853
-0.000412858
-0.00106201
0.000738511
-0.000402071
0.000365564
0.000329264
0.000142176
-0.000279502
0.000246942
-0.000209909
7.18492e-05
-0.000114562
-6.10279e-05
0.000361218
0.000713303
-0.000201501
0.000253585
-5.52355e-05
0.000234703
0.000199827
-0.00029531
0.000307345
-3.52955e-05
-0.000386821
-0.000404807
0.000395814
-2.63024e-05
-0.000893616
0.000642198
-0.000718307
-6.41695e-05
-0.000210615
-0.000175225
-0.000805301
0.000954742
7.68817e-05
3.22253e-06
5.06221e-05
-0.000130612
0.00056298
-0.000503307
0.000369911
-0.000921546
0.000502347
-5.09342e-05
-0.00100573
0.000796671
-0.000684562
0.000484245
-0.00043133
0.000902278
-0.000955193
0.000366737
0.000240552
0.000382511
-0.000161275
-0.000461787
2.03244e-06
-8.58006e-05
-0.000159567
4.55773e-05
-2.48414e-05
0.000138392
-0.00025555
7.36747e-05
0.000304277
0.000602259
0.000428914
-0.000722476
-0.000497149
0.000710406
-0.000343829
0.000251201
-0.000698985
-0.00066252
0.00122665
0.000414371
-0.000364016
0.000826118
9.02326e-06
0.000420799
-0.000421676
-8.14648e-06
2.28154e-05
-2.06479e-06
-0.000278633
-0.000497529
0.00056325
0.000760397
-0.000539374
-0.000298063
-0.000353132
0.000429917
0.000221278
0.00049308
-0.000487503
0.000463401
-0.000468978
0.000457913
1.11424e-05
-0.000423949
-2.68025e-05
0.000338407
-0.000226371
-0.000176221
6.41851e-05
0.000468632
0.000167839
-2.51306e-05
0.000416378
-0.000407944
-0.000641906
-0.00067663
-0.000738992
0.000377466
0.000617854
-0.000256328
-0.000359308
-9.96589e-05
0.000170197
0.000920546
0.0001034
0.000236813
-0.00126076
0.00035086
6.24601e-05
0.000408683
0.000492497
7.28879e-05
0.000129113
-0.000931074
0.000651725
0.000491548
-0.000127542
0.000118786
-0.000482792
-0.000423104
0.000495373
-0.000517135
0.000382302
-0.000507946
0.000576275
0.000358874
0.00083073
-0.000943576
-0.000303787
0.000118494
0.0009459
-0.00101836
-0.000241662
0.000670847
-0.000572803
0.00106266
-0.00111632
0.00099469
-0.000937363
-0.000483797
-0.00024718
0.000275228
3.42933e-05
-0.000400107
3.60708e-06
-0.000146032
0.000311082
0.000171867
-2.41142e-06
1.46299e-05
-8.80592e-05
-3.65888e-05
7.586e-05
-0.000329929
-0.000492217
0.000530985
0.000337417
-0.000102861
9.3907e-05
0.000820339
-0.000788618
-0.000149021
-0.00014459
0.000859865
0.000735851
-7.80747e-05
-0.000155139
-0.000163418
-0.000922672
6.99219e-05
-0.000277575
0.000296037
-0.00092723
-2.8717e-06
4.10767e-05
0.000757147
-0.000795352
1.37312e-06
-2.15344e-05
3.85572e-05
-1.70227e-05
8.32075e-05
-0.000392253
0.000223712
0.000450465
-7.24341e-05
-7.35012e-06
-0.00022034
-0.000680383
-0.000225906
0.000522089
-0.000422627
5.19484e-08
0.000929038
-0.000830107
-0.000418946
-0.000432012
0.000256063
0.000594895
0.000438232
-0.000342284
0.000849952
0.000273007
0.0001844
0.000140967
-0.000139686
0.000842982
0.000174716
-0.000795104
0.00074158
-0.000121192
-0.000688273
0.00027281
0.000190387
-0.000119621
-0.000498456
-0.000199509
0.00045527
-0.000451635
-0.000644685
-0.000667589
0.000576322
-0.000360159
6.47341e-06
-0.001086
-0.000596776
0.000571126
8.91677e-05
-0.000485048
-3.44026e-06
0.000468818
-0.00054466
-0.000283725
0.000442165
-6.3514e-05
-3.22869e-05
9.58009e-05
7.36638e-06
0.00011311
-0.000169059
0.00032493
-0.00149247
-6.9878e-05
0.00123742
-0.000838833
-0.000342897
6.44523e-06
-1.64027e-05
0.00046149
-0.000451533
-0.00014292
-3.75011e-05
-0.00105569
-0.000382475
-0.000111111
9.23528e-05
-4.76967e-06
-2.58624e-05
-6.23057e-06
0.000104186
0.000110677
0.000260456
0.000269646
-0.000106057
-3.65241e-06
-3.3589e-05
6.6975e-06
0.000160016
-0.000171505
-0.000170247
2.07676e-05
-2.70091e-05
2.55909e-05
9.6033e-05
-0.000154349
0.000123568
7.70188e-06
-1.88499e-05
2.38057e-05
-6.26219e-05
4.64379e-05
0.000351711
-0.000672696
0.000362495
-4.15107e-05
0.000935844
-0.000148949
0.00011232
-2.35476e-05
6.01762e-05
5.44911e-05
4.69797e-05
0.000172075
-9.83689e-05
1.41689e-05
-0.000250175
0.000122575
0.000158396
9.25678e-05
-0.000117184
2.46157e-05
-1.3248e-05
-0.000105209
2.20519e-06
-2.96682e-05
2.74631e-05
-0.000190626
0.00018837
2.25562e-06
-0.000264192
3.05182e-05
-0.000176332
0.000158408
1.79242e-05
-0.000336959
-0.00120663
0.00124906
-0.000545914
-0.00130568
6.13028e-05
3.1265e-05
-0.000182991
0.000310772
0.000284074
-0.000354294
-2.36223e-05
2.58275e-05
-0.000588767
0.00039532
-0.000442729
-0.0001521
3.16346e-05
1.20381e-05
5.73236e-05
-0.000437596
-0.000480059
-0.000549237
0.00030119
0.000118574
-0.000196891
-0.000162795
-2.01957e-05
-0.00060948
0.000443593
0.000669773
-0.000593424
0.000211152
0.000532027
0.000361672
-0.00037248
7.38433e-05
-7.02577e-05
-0.000397729
0.000527535
0.000713176
0.00029718
-0.000181619
0.0007701
7.65313e-05
0.000899463
-0.000837753
-0.000367798
0.000207849
0.000259827
0.000118342
5.76664e-05
-0.000107833
-6.81758e-05
-0.000103178
-0.000288576
-0.000251069
-2.49568e-05
-0.000402741
-2.07216e-05
2.20967e-05
0.000401366
0.000149112
-0.000292115
-0.000197296
0.000235176
-0.000561927
-0.000328622
-3.4134e-05
1.48952e-05
7.28931e-05
-9.15053e-05
-7.58265e-05
-0.000325538
0.000506284
0.000103328
-4.22721e-05
5.86029e-05
0.000146119
3.97924e-05
-6.33364e-05
0.00013026
-0.000344603
-0.000265011
0.000231419
0.000725032
1.59509e-05
-5.02606e-05
-0.000381398
-0.000986653
0.000251833
4.3787e-05
-1.32783e-05
1.28987e-06
-0.000177034
0.000307089
-6.68912e-05
6.49582e-05
-3.03708e-05
3.23038e-05
-5.89628e-05
-0.000231974
-5.63316e-05
-9.82646e-05
7.20854e-05
2.61792e-05
-2.7643e-05
6.23491e-05
-3.47061e-05
0.000600109
-8.92e-05
-3.21239e-05
0.000277055
0.000206408
-0.000145056
0.000101316
-5.48395e-05
6.59739e-05
-5.35128e-05
0.000108029
-0.000147538
0.000187601
-0.000153595
1.18967e-05
2.01251e-06
0.00120257
-0.00116001
6.54767e-05
-0.000125941
-0.000113061
0.000211829
-5.58466e-05
4.12892e-05
0.000520483
0.000216384
-0.000255518
0.000809008
-0.000262817
-0.000402837
-7.52749e-06
-0.000435892
-0.000171663
-2.67259e-05
-0.000130274
-4.68348e-05
-0.000471499
3.44131e-05
0.000312481
-0.000350868
3.97386e-06
0.000125151
2.39824e-05
0.000390628
2.24915e-05
0.000141532
-0.000257464
0.000149967
0.00059833
-0.000138737
2.15539e-05
-0.000272435
-0.00089166
3.05555e-05
0.000380578
0.000321369
0.000250669
-7.60281e-06
2.04387e-06
0.000277687
-2.61459e-05
0.00012209
0.000174287
-0.000507357
0.000440911
-0.000288834
-0.000385657
-6.67666e-05
6.99483e-05
-4.06293e-05
0.000403912
-9.46208e-05
-0.000228211
-0.00026282
-0.00025662
-0.000799897
0.00101871
-0.000688562
0.000629922
-0.000373372
0.000260858
0.000440958
-7.35052e-05
9.43964e-05
6.49804e-05
-0.000404606
0.000200287
-7.99487e-05
-0.000287184
0.000558494
-0.000485323
3.00667e-05
1.24124e-07
-0.000144753
0.000381974
-1.3539e-05
-0.000393566
5.53342e-05
0.00013622
-2.12972e-05
-2.16767e-05
-5.96628e-06
-8.14771e-05
0.00117544
-9.11272e-06
8.40378e-06
-0.000272538
-0.000328804
-0.00107095
0.000648904
-4.58588e-05
0.00022571
-8.66859e-07
8.55654e-05
4.76114e-06
-9.06863e-05
4.557e-05
1.03174e-05
-0.000103948
0.000245873
0.000130428
-1.85387e-05
-0.000717571
0.0003915
0.000128357
-6.64229e-05
-0.000134465
-0.000231229
8.07479e-05
1.0729e-05
0.000209862
-1.44826e-05
-0.000308655
0.000362544
-0.000457872
5.46992e-05
-0.000724296
-0.000571839
0.000496239
-8.23452e-05
0.000151628
0.000104356
-5.50578e-05
0.000440768
0.000263418
-0.000180807
0.000138439
0.000226357
-0.000393248
-6.87054e-06
-6.26935e-05
5.1181e-05
-7.51837e-05
-3.88405e-05
1.96703e-05
-2.98231e-06
0.000766164
-0.000475223
4.80064e-05
0.000684888
0.000613992
8.33669e-05
-0.000172945
0.000229918
0.000588261
-0.00118655
-0.000293367
-0.000119284
7.27039e-05
-6.66511e-05
-3.92198e-05
-0.000571078
0.000492473
3.4633e-05
-7.77284e-05
0.000253869
-0.00013809
-0.000448499
-0.000163089
-8.43441e-05
8.56855e-05
-0.00036732
-0.000491855
0.00029627
0.000539044
-0.000343459
9.90364e-05
-0.000297584
-2.47529e-05
0.000155179
-0.000181806
-8.29294e-05
0.000325087
-0.000253299
4.90768e-05
3.15308e-05
-7.00914e-05
-1.71619e-05
-0.000214278
9.01896e-05
0.000454341
-0.00028389
0.000447601
0.00019914
-0.000515854
9.4914e-05
-3.82497e-05
-7.30995e-05
0.000389091
-0.000218478
-5.12603e-06
-0.000463877
0.000377823
0.000221105
2.42604e-05
-4.63607e-05
9.06285e-06
0.000246355
-0.000220785
5.48683e-05
-0.000539744
-0.000125651
-0.000367616
-0.000636427
-0.000216717
0.0002259
-0.000191907
0.000228242
-2.34187e-06
-0.000192197
0.000163483
2.87143e-05
-0.000163554
-2.83529e-05
-7.14583e-08
-0.000313033
0.000310227
-0.000558595
0.000566984
-8.38926e-06
-0.000525363
-0.00029944
-1.35937e-05
0.000299969
0.000291302
8.66678e-06
-0.000271689
-0.000464132
0.000249952
-0.000241093
-8.85835e-06
-0.000392486
-7.16462e-05
-0.000324955
-6.75311e-05
0.00029652
-0.000318479
-2.84347e-05
0.000287853
3.44898e-06
0.000299096
-1.12428e-05
0.000308534
-5.80545e-06
0.000472241
-0.000385682
-6.28322e-05
2.86981e-05
-0.000218604
0.00014734
0.000292542
-8.22655e-05
0.000101887
4.34961e-05
0.000395586
-2.7531e-06
2.15069e-05
-0.000571155
0.000466079
-5.83334e-05
0.000155258
0.000404619
-0.000414944
8.59647e-05
-7.37615e-05
3.11731e-06
3.69621e-05
4.83753e-05
2.37101e-05
-0.0008962
-3.04892e-06
0.000365446
-0.000272258
-9.31049e-05
0.000260333
-0.000124963
-0.000199334
-0.00143626
0.000651505
-0.000154825
0.000115067
-2.01672e-06
0.000300931
-0.000140496
0.000182571
-8.17749e-05
0.000109141
0.0012605
-0.00148632
0.000136642
-3.17918e-05
-0.000104851
0.00141079
6.36139e-05
-1.77051e-05
0.000255693
-1.1974e-05
-0.000472029
0.00028931
-0.000300072
0.000311431
-0.000328011
3.04132e-06
-7.64202e-05
-0.000126552
-0.000273587
7.76408e-05
0.000543976
0.000348125
-0.000370912
0.000171581
-0.000124697
8.29679e-05
-8.31554e-05
0.00040398
-0.000112359
0.0001067
-0.000473787
-0.000690824
-0.000267607
4.53685e-05
4.15655e-05
7.80807e-05
-5.80571e-05
-6.15892e-05
0.000163187
0.000202403
-0.000170533
-0.000154738
-0.000330517
3.56357e-05
-5.47575e-05
1.49079e-05
4.96083e-05
0.000260426
6.8359e-05
5.03607e-05
-2.91834e-05
2.49075e-06
0.00020807
-0.000323714
-0.000146984
-3.84764e-05
0.000807359
0.000569593
-0.000585677
-0.000219234
-0.000487544
-0.000273782
0.000262221
-0.000134619
1.53356e-05
-0.000420238
0.000306237
-7.58749e-05
-0.000541918
0.000366664
-9.73552e-05
-1.84691e-05
-3.21758e-06
6.76168e-06
3.42737e-05
-5.24148e-05
-0.000316286
-3.1575e-05
3.97223e-05
-0.000410855
5.41619e-05
9.14507e-06
3.6805e-05
0.000306752
9.72769e-05
0.000242839
0.000234299
-0.000155016
0.000234495
0.000133466
-0.000146048
5.24783e-05
-7.94314e-05
3.88159e-05
0.000176001
0.000470825
-2.61569e-05
-2.64731e-05
-0.000399528
-0.00135574
0.00109684
0.000483129
-0.000254343
0.000537378
0.000166959
3.52897e-05
-0.000109977
0.000188064
-8.59048e-05
0.000141074
8.63964e-05
-3.29481e-05
-0.000157396
1.24937e-05
-1.73208e-05
2.41566e-06
5.18163e-05
-7.18268e-05
-1.65782e-05
0.000846864
0.000425252
-0.000597315
0.000230927
0.000219464
-0.000161876
-0.000288817
-4.85765e-05
7.34945e-05
-5.6479e-05
0.000569512
-0.000301378
-0.000207375
8.72516e-05
-5.55844e-05
0.000175708
0.000431525