/*--------------------------------*- C++ -*----------------------------------*\
| =========                 |                                                 |
| \\      /  F ield         | OpenFOAM: The Open Source CFD Toolbox           |
|  \\    /   O peration     | Version:  v1912                                 |
|   \\  /    A nd           | Website:  www.openfoam.com                      |
|    \\/     M anipulation  |                                                 |
\*---------------------------------------------------------------------------*/
FoamFile
{
    version     2.0;
    format      ascii;
    class       volVectorField;
    location    "0.96";
    object      U;
}
// * * * * * * * * * * * * * * * * * * * * * * * * * * * * * * * * * * * * * //

dimensions      [0 1 -1 0 0 0 0];


internalField   nonuniform List<vector> 
5794
(
(-0.0792174 -0.207107 -3.52989e-17)
(-0.131189 -0.222246 0)
(-0.249721 -1.43918 -1.34688e-16)
(0.372371 3.28722 1.0595e-16)
(1.71325 1.78919 2.39188e-17)
(0.00276517 -2.0137 -1.07165e-16)
(2.64521 -0.18947 -1.80397e-16)
(1.23092 -0.361917 0)
(5.78539 0.817272 1.00516e-16)
(-0.0521177 0.0120384 2.57091e-16)
(4.71855 -0.108311 -3.18922e-19)
(-2.05943 -0.19839 0)
(-2.79198 -0.19064 4.88987e-16)
(0.54118 6.88072 1.79219e-16)
(0.293829 -0.0119958 5.42574e-16)
(-0.77317 -0.157201 -1.52245e-16)
(1.37774 -0.0312029 4.70453e-17)
(0.0231525 7.12438 1.21233e-16)
(0.189525 -0.00975986 5.04201e-16)
(-0.0194085 -0.197114 1.88283e-16)
(-2.99582 1.78622 -4.5982e-17)
(0.281672 -1.11815 -1.4626e-16)
(3.02467 -0.0506129 2.51613e-16)
(0.862168 -0.00321777 -6.34186e-16)
(2.62471 0.237725 -3.67233e-16)
(2.90904 10.7439 2.13706e-17)
(5.90467 -0.588573 0)
(0.00995855 2.06166 -1.48814e-16)
(0.0352009 9.31694 -3.80413e-17)
(0.226328 -0.01062 3.15526e-16)
(-0.566559 -0.856092 -6.47245e-16)
(-1.82443 0.0338929 -5.07059e-16)
(-2.12613 0.113428 -9.04635e-16)
(-0.1727 -0.179131 4.80903e-16)
(-0.916791 0.335128 -2.15107e-16)
(-0.913882 0.326549 2.14318e-16)
(9.76149 0.606544 -2.18893e-16)
(2.61704 -0.435863 0)
(3.21017 -0.366778 1.32177e-16)
(0.0175307 3.55235 0)
(0.119318 2.57458 -1.04393e-16)
(-0.583911 2.32527 1.3502e-16)
(7.36918 0.110834 -8.82742e-19)
(0.260732 2.59301 0)
(0.311297 -0.0316293 -4.71138e-16)
(4.82269 -0.170663 1.35017e-16)
(3.75806 -0.193601 -2.46707e-16)
(-1.40682 -0.390365 0)
(0.0358502 0.0490094 9.2341e-16)
(1.28926 -0.229424 6.42101e-17)
(0.493031 -0.0845349 -1.73913e-16)
(5.90643 -0.230061 -1.83485e-16)
(-0.0853765 -0.339869 0)
(0.324294 0.0955141 1.81801e-16)
(-0.0657715 -0.0605631 1.07018e-17)
(5.05388 -0.510224 0)
(3.815 -0.419525 -1.99055e-16)
(-1.73732 -0.00351289 1.55147e-16)
(8.38684 0.0649025 0)
(4.39867 10.1225 -7.22041e-19)
(9.10678 0.485331 1.92043e-18)
(0.311052 0.570994 -1.39112e-16)
(-0.212878 -1.38803 -1.51324e-16)
(-0.950427 -0.033881 2.09323e-16)
(-1.21283 0.137205 0)
(0.579797 0.249556 -2.72788e-18)
(0.226496 0.912125 -2.31082e-16)
(-0.13401 3.63433 0)
(0.222697 5.41016 -1.39836e-16)
(0.151772 0.517756 -2.39853e-21)
(4.57253 -0.49685 1.41936e-16)
(0.34802 2.48597 -2.8809e-16)
(11.3757 2.09307 -3.50297e-18)
(1.93938 0.0839751 0)
(0.120442 6.68783 1.2337e-16)
(0.199855 1.07274 6.57023e-20)
(-0.0399392 -0.098699 1.47453e-16)
(1.58201 10.5583 -2.2126e-17)
(0.379276 2.67321 3.75107e-17)
(-0.292685 0.0702981 7.49779e-17)
(0.145951 -1.44056 -1.7454e-17)
(0.0558111 -0.429087 -1.78463e-16)
(0.0903635 1.3209 7.94259e-21)
(2.37606 -1.52579 -8.73917e-17)
(1.70089 -1.37623 -3.61667e-16)
(-0.100945 5.33616 -4.16271e-17)
(0.21162 6.18447 3.0488e-17)
(0.0308232 5.2581 -2.51838e-17)
(0.948634 0.0405228 -1.69737e-16)
(1.99392 1.11337 -4.67666e-17)
(0.916022 5.58058 -8.03557e-17)
(0.0593614 7.07254 -8.2546e-17)
(-0.0785368 7.45029 1.3476e-16)
(0.104231 7.54442 5.90228e-17)
(-0.0295559 6.72164 3.30376e-17)
(-2.14558 0.0444186 5.38739e-18)
(0.0157144 6.18086 -5.61357e-17)
(-0.114489 7.1968 -1.46004e-17)
(-0.031583 7.03042 0)
(8.82318 0.535564 -3.10948e-17)
(1.73388 3.25262 -1.24149e-16)
(-1.20465 0.17783 -4.12005e-16)
(8.26399 0.142274 7.37891e-17)
(0.487917 5.71393 -2.41964e-16)
(0.234742 0.0914719 0)
(-0.293236 5.57902 0)
(0.0844837 0.473293 0)
(-0.322407 0.0692309 -2.77478e-16)
(-1.40399 0.579122 -1.23378e-16)
(0.533354 2.73196 -1.0206e-16)
(0.528269 -0.10601 -6.06251e-20)
(0.385166 -0.0436726 0)
(-1.43871 4.71816 1.14586e-16)
(-0.273896 -0.0436281 1.55702e-16)
(0.0122288 6.63692 0)
(-0.10724 7.65821 0)
(0.294919 -0.041186 -3.91057e-16)
(-0.230054 8.30729 -9.29265e-20)
(9.36008 0.435816 -2.39016e-20)
(10.8422 0.608953 6.07784e-18)
(-0.394454 7.66662 1.09419e-16)
(0.347265 0.0398319 0)
(-1.70545 -0.00760326 0)
(0.0787316 1.50215 -1.98963e-16)
(0.428104 -0.0479902 2.39782e-16)
(4.73992 2.35524 5.10283e-17)
(0.783452 5.72493 0)
(-0.183714 -1.77848 6.77741e-17)
(6.0383 -0.636995 1.21877e-16)
(-0.467122 -0.0416418 1.68552e-16)
(-0.34261 -0.937482 3.39131e-16)
(-0.684395 -0.95928 2.15219e-16)
(0.172559 1.12403 2.36049e-17)
(1.08662 10.2276 -6.67934e-17)
(-0.380402 6.4422 1.38795e-16)
(0.35465 -0.0237654 0)
(4.23346 -0.205196 9.40249e-17)
(0.332148 0.57105 -1.98887e-16)
(-1.03923 -0.169479 1.59902e-16)
(0.318801 -0.377932 0)
(1.34897 -0.353254 -5.09133e-16)
(0.436791 2.63359 0)
(0.456045 -0.0835271 0)
(0.410694 3.01531 2.56971e-16)
(-1.01273 -0.230054 1.6834e-16)
(2.09699 -0.129629 1.56617e-17)
(-0.920863 1.02204 2.2882e-16)
(7.67247 0.28391 2.37443e-16)
(1.30148 1.10805 -1.71104e-18)
(0.262773 1.22745 4.1439e-16)
(7.20753 -0.173157 -1.76136e-16)
(0.231924 0.108881 3.58554e-16)
(-0.306881 5.78154 0)
(-1.30324 0.313107 1.88256e-16)
(4.0829 -0.755158 0)
(4.32618 0.126608 0)
(2.21419 -0.664193 -2.55452e-16)
(1.44897 -0.315513 4.00927e-16)
(5.21083 0.178733 -2.66974e-16)
(1.63168 -0.602375 -1.32965e-16)
(0.241505 0.00108788 4.28233e-16)
(-1.64816 -0.0787004 -3.62471e-16)
(-0.0719548 -0.069774 0)
(-1.87375 -0.032355 -1.39424e-16)
(-2.97955 0.0205827 -3.04454e-16)
(-3.10742 -0.0961798 1.66165e-16)
(-1.8759 -0.137918 1.23761e-18)
(-0.964021 -0.283876 -4.09393e-18)
(0.403693 -0.0787573 0)
(0.259194 -0.0105553 1.02161e-18)
(0.22587 0.00235243 0)
(-1.85114 0.414371 -1.16487e-16)
(-1.10207 0.244429 0)
(-1.01712 0.27613 1.04581e-16)
(-0.45069 -0.0315814 4.58053e-16)
(2.9848 0.00178323 0)
(0.124156 0.0022374 -2.62264e-16)
(2.61347 0.0726335 -2.19768e-16)
(0.609141 -0.0980867 -9.2414e-17)
(6.14973 0.102752 6.89336e-18)
(0.728849 -0.18374 -5.76484e-18)
(-1.21145 -0.308336 0)
(1.42716 -0.115153 0)
(-1.87382 -0.326996 1.25986e-16)
(0.608464 -0.232409 0)
(0.0042576 -0.841524 6.99584e-17)
(-1.37106 0.137505 -1.46769e-16)
(-1.22877 0.29824 -1.01671e-16)
(-0.0852755 0.0105249 1.48569e-16)
(-1.09761 0.106925 3.38066e-16)
(4.62151 -0.0694545 -3.44983e-16)
(-1.89974 -0.100644 3.7553e-16)
(-2.26843 -0.0866551 6.02735e-16)
(0.0141321 -0.399405 6.43046e-16)
(-1.24106 -0.549478 -9.7012e-17)
(-0.823548 -0.481762 -5.15177e-16)
(2.10882 -0.286434 -2.06528e-17)
(0.0545137 -0.0959291 -1.95704e-16)
(0.116933 -0.0293535 -3.23106e-16)
(6.39388 -0.0465993 1.23156e-16)
(2.99178 -0.0628002 -1.87265e-17)
(5.80841 0.00682362 0)
(-0.605037 -0.443109 0)
(-0.206445 -0.0925437 1.16335e-17)
(3.75811 -0.0100649 -5.81043e-17)
(4.76143 0.0224132 0)
(-0.127614 -0.238901 1.23206e-17)
(0.339655 -0.0357762 2.12924e-19)
(4.68243 1.07283 -5.81699e-18)
(1.91555 8.71731 1.24887e-16)
(0.740925 1.39993 1.07274e-16)
(9.72925 -0.00905434 0)
(-1.19789 0.128688 -1.12457e-16)
(-1.09723 -0.234092 1.7862e-16)
(0.553023 -0.169607 0)
(1.18936 0.309767 7.53977e-16)
(0.845631 0.253478 -1.81294e-16)
(1.04609 1.46552 9.64238e-17)
(4.10867 -0.194499 1.33889e-16)
(1.41389 5.60741 -1.76576e-16)
(9.64628 -0.00553732 0)
(1.98492 0.555911 2.20579e-16)
(-0.347013 1.97211 0)
(-0.0368184 5.25322 2.74409e-17)
(5.07402 0.12411 1.33779e-16)
(11.1775 0.719078 2.15557e-18)
(-0.92779 -0.215073 -7.31535e-17)
(0.0772825 -0.0780763 -1.34857e-16)
(0.347804 -0.0978812 0)
(0.343486 -0.0415239 -3.48224e-16)
(-1.03478 0.410714 0)
(-0.995847 0.412353 -7.02016e-17)
(-0.416724 0.0862722 -1.15784e-16)
(-1.06626 0.742239 1.54191e-16)
(2.04136 0.354185 1.62456e-16)
(9.77482 0.15124 5.68509e-18)
(7.63651 0.936723 1.90413e-18)
(7.25016 0.509083 2.90265e-17)
(-2.09513 0.125669 -1.59251e-16)
(0.759518 -1.14796 -3.78601e-16)
(-0.0418914 -0.39528 0)
(1.20006 0.818007 1.17909e-15)
(1.47911 4.6979 2.16546e-16)
(-0.702435 0.712818 -2.59952e-16)
(-1.40619 0.90617 2.6721e-16)
(0.554519 -0.0418653 3.07316e-16)
(0.369038 -0.0773143 -1.61689e-16)
(1.13426 0.75382 8.09426e-18)
(-0.116819 5.97833 0)
(-0.0324169 5.85728 0)
(-0.0235939 5.45971 0)
(0.349723 0.258769 2.9017e-17)
(2.83637 -0.699453 -7.24765e-17)
(-0.228413 0.14647 -3.3083e-20)
(7.25627 1.19742 -5.82175e-17)
(4.3974 2.31983 -9.07728e-18)
(8.17391 0.21238 -1.51883e-16)
(8.99317 0.529298 1.59942e-16)
(0.0639683 -0.35658 2.93006e-16)
(0.399831 -0.0275883 0)
(5.90272 -0.0608689 -1.13636e-16)
(-1.26816 0.0658958 9.71264e-17)
(-0.965787 -0.442866 -1.01955e-16)
(0.942601 -0.158248 0)
(-1.37187 -0.159317 0)
(-1.36477 -0.193357 -6.22539e-19)
(0.228572 1.84698 1.46874e-16)
(3.7566 0.779173 0)
(0.323174 -0.0144927 -7.56087e-16)
(4.34824 0.0132655 -1.25494e-16)
(3.51324 -0.0497581 0)
(0.266407 -0.840308 -2.96522e-16)
(1.15137 1.841 -4.75359e-16)
(4.80343 -0.371108 -1.72908e-16)
(9.48632 0.0883199 3.66756e-17)
(0.265662 -0.0468321 3.50508e-16)
(0.319666 0.126819 -1.96611e-16)
(1.46408 -0.268344 -8.64562e-17)
(0.404392 -0.0988272 -2.06038e-16)
(-1.76235 1.24451 -2.45851e-16)
(-0.0295396 -0.104677 4.10528e-16)
(0.917681 3.28904 2.59693e-16)
(0.252148 3.34226 9.89872e-17)
(-0.470511 2.26296 -3.6998e-16)
(0.218061 4.87435 4.71585e-17)
(-0.125826 5.2642 1.15162e-16)
(0.0468163 6.05828 1.24613e-17)
(0.0215995 5.89443 0)
(0.582288 5.79439 4.22662e-17)
(-0.442777 7.73299 0)
(-0.68171 0.452052 -1.79966e-17)
(-0.64231 0.524285 -1.46435e-16)
(-0.13164 -0.0528915 2.74234e-18)
(0.354742 0.148525 0)
(8.03911 1.71974 0)
(1.14875 7.54448 7.18831e-18)
(0.284773 3.51791 5.89093e-17)
(-0.274572 1.45953 -2.26338e-20)
(0.191706 4.51661 -2.07508e-16)
(0.613792 -0.161625 -1.7823e-16)
(0.085185 -0.425892 1.25868e-16)
(-0.460396 6.35275 0)
(0.14696 -1.39191 -6.84554e-16)
(0.741833 2.08413 0)
(0.544468 0.6478 -1.74361e-16)
(3.5443 0.262715 1.66057e-18)
(0.476165 -0.165055 -2.84412e-16)
(0.350183 3.66716 2.68812e-16)
(4.98832 0.102629 2.48039e-16)
(4.06063 0.0425175 0)
(0.698119 -0.515059 -6.34607e-16)
(-0.172843 0.487883 -3.08259e-16)
(1.34507 7.60938 -1.38547e-16)
(-0.243706 -0.0862437 -8.73324e-17)
(10.5877 0.120052 0)
(10.0052 0.302367 -1.83119e-17)
(-0.0878518 0.0641528 -9.88868e-17)
(-0.0501646 2.76281 -2.74918e-16)
(-2.07444 0.379112 -2.20803e-16)
(0.148431 7.07971 -4.2117e-17)
(0.544491 -0.330203 5.03409e-16)
(1.70822 -0.833857 -1.96481e-16)
(-0.128282 7.51039 -7.8273e-17)
(1.66153 1.35671 -7.66659e-19)
(-0.617306 -0.146195 0)
(1.70631 -0.457434 0)
(1.95549 -0.0934639 0)
(-1.61617 -0.29787 6.71622e-17)
(-2.10497 -0.356084 -3.26011e-16)
(4.50035 -0.128526 3.02193e-16)
(6.1939 -0.0353589 -7.15955e-18)
(6.56283 -0.1255 3.07759e-16)
(-1.06152 -0.421163 9.16431e-17)
(-1.83041 0.253822 4.99156e-16)
(-1.7329 0.149988 0)
(-0.075047 -0.0185413 -2.68544e-16)
(-0.0696017 -0.0214729 0)
(0.212109 -0.0866992 0)
(-0.018546 0.0312996 -3.61989e-16)
(-0.606753 0.0200792 0)
(0.755331 -0.0681999 4.38473e-16)
(2.62085 0.0898075 3.80541e-16)
(6.31398 0.372355 0)
(3.0747 -0.0918822 0)
(0.157559 -0.00722426 4.49839e-16)
(1.47533 -0.0296109 3.74069e-16)
(-1.06922 -0.524807 3.28138e-16)
(-0.275872 -0.35719 -2.41989e-17)
(-3.02368 -0.150519 -1.24376e-16)
(2.94697 0.0393448 6.79457e-17)
(3.56054 0.167128 6.14561e-17)
(0.515962 0.0913839 2.46016e-16)
(-2.34917 -0.165625 -2.27675e-17)
(-1.79479 -0.201651 1.52238e-16)
(0.883942 -0.305309 0)
(-1.01907 -0.637741 0)
(0.0560864 -0.0507595 1.92656e-16)
(5.21901 -0.424766 1.74815e-16)
(2.68663 0.00565366 6.66112e-17)
(1.47219 -0.260809 0)
(0.194203 -0.00216009 -2.76759e-16)
(1.47752 -0.459561 4.62837e-16)
(4.65902 -0.0872799 3.71114e-17)
(2.04167 -0.394587 -3.34327e-17)
(1.5991 -0.818789 -2.60402e-16)
(0.274837 0.0237339 5.15617e-16)
(-3.23432 -0.00872639 -3.83151e-17)
(4.24979 -0.339125 0)
(3.20227 -0.293892 3.36289e-16)
(-1.65219 -0.0167298 -9.29243e-17)
(0.288269 -0.0804771 -1.45818e-16)
(1.09191 -0.0204085 0)
(0.388945 0.0567623 -1.18009e-16)
(-0.332262 0.703569 2.86238e-16)
(0.51236 0.0674323 8.9916e-17)
(-2.79796 0.165169 1.41362e-16)
(3.78609 -0.0221636 0)
(2.80705 0.110593 9.06283e-17)
(-1.64992 0.431222 0)
(0.0850459 -0.0226189 1.69596e-17)
(0.10325 -0.364626 1.77378e-16)
(0.23936 -0.0887115 0)
(10.7706 0.0881097 0)
(-1.30625 0.186254 1.51631e-16)
(-1.30171 0.135046 -6.21437e-16)
(-0.196719 -0.228625 -3.84515e-16)
(-0.268467 9.09906 -2.95678e-17)
(-0.370964 -0.339784 3.09065e-16)
(0.110422 -1.01549 -1.10746e-15)
(-1.66999 -0.243981 0)
(-0.345933 -0.279771 -8.02451e-16)
(-1.19836 1.05906 -5.86367e-19)
(0.0528735 0.534561 -2.65984e-18)
(0.0550294 -0.289358 1.76117e-16)
(-0.673535 0.257122 9.32772e-17)
(-0.556531 0.249757 -1.00535e-16)
(-0.45451 0.0426028 1.15131e-16)
(-0.0629139 0.625793 0)
(0.370887 -0.0167852 0)
(2.56421 0.0570066 -2.70499e-16)
(0.837748 -0.126932 1.44813e-16)
(2.37886 0.119585 -3.81581e-16)
(8.98313 -0.285378 3.22011e-17)
(0.552891 -0.0118289 2.0429e-16)
(0.39076 -0.0443173 0)
(6.39331 0.953533 4.68311e-17)
(-0.0549839 1.02608 8.44051e-21)
(0.0899677 -1.86592 1.75421e-16)
(-0.102677 0.403772 -4.20669e-17)
(-0.246912 5.79062 -6.14332e-17)
(-0.078489 7.04178 2.30712e-17)
(0.123579 7.06844 0)
(0.855287 0.472686 1.769e-16)
(-0.960474 0.31373 2.82358e-16)
(5.04391 -0.0315146 2.04183e-17)
(4.05785 -0.0612039 7.16175e-17)
(0.158323 -0.352384 0)
(0.323585 3.90443 1.70998e-16)
(-2.42963 0.182222 0)
(-0.152243 6.31003 3.87769e-17)
(-0.0515702 7.06838 -6.36965e-17)
(-0.145614 7.24625 3.05962e-17)
(-0.0192052 -0.0307321 -1.60535e-17)
(0.318191 -0.0474696 -4.42073e-17)
(-1.50922 0.060498 0)
(-1.46459 0.056872 0)
(-0.31247 -0.108855 -2.11005e-16)
(-0.285116 0.00484801 -2.03937e-16)
(0.0660008 -0.0992866 -1.6203e-17)
(0.0526424 -0.678551 5.69064e-17)
(3.61534 0.671557 3.2384e-16)
(9.99542 0.166547 1.30168e-17)
(0.283008 2.33812 -2.88378e-16)
(0.980646 -3.03705 -2.12814e-17)
(0.271844 -0.0689835 3.45588e-16)
(0.282955 -0.0170208 0)
(0.321787 -0.413035 1.7254e-16)
(0.649073 -0.536371 -1.01606e-17)
(-1.73045 0.0563276 -9.38281e-17)
(-1.6569 0.0115908 1.94883e-16)
(-0.182029 -0.19444 2.69683e-16)
(9.94455 0.098523 -2.53968e-16)
(-0.157058 -0.32171 0)
(0.122352 -0.351775 8.26333e-17)
(1.68729 -0.209711 -2.12443e-18)
(-0.0483617 7.67078 -5.8064e-17)
(0.0139282 6.63968 -7.45919e-22)
(-0.896285 -0.159738 0)
(-0.36018 0.225901 2.53268e-16)
(1.31829 0.401031 -8.14476e-17)
(0.0466247 -0.0591769 -2.4695e-16)
(0.0614467 -0.249005 -8.05156e-17)
(-2.75921 1.32453 4.67022e-17)
(0.302236 -1.22079 -5.00216e-16)
(-0.111943 6.51592 -2.72806e-17)
(0.952812 -0.132802 -5.24019e-16)
(0.358774 5.23867 -2.23656e-18)
(-1.56967 -0.495703 -2.24037e-16)
(-0.0251237 6.49179 -3.24878e-17)
(0.942731 6.48705 8.89932e-17)
(0.498681 -1.55848 -1.02279e-16)
(-0.293555 -0.0377152 -2.61302e-16)
(-0.265933 0.387414 1.90838e-16)
(0.467148 -0.139115 -4.00711e-16)
(8.46508 0.579289 9.35046e-17)
(-0.468139 -0.047922 -2.89457e-16)
(10.0006 0.329148 -2.16959e-18)
(2.55163 3.26475 5.68017e-17)
(0.543246 0.0697213 -4.49889e-16)
(0.769144 2.19148 -5.05223e-17)
(0.650779 -0.0498796 3.90786e-17)
(6.22267 1.10853 -4.73979e-18)
(1.53198 0.704745 -6.98355e-17)
(0.445467 -0.199104 3.29393e-17)
(0.200582 0.073377 -2.29347e-16)
(-1.01163 -1.04662 1.14729e-15)
(8.36724 2.22797 -2.6316e-18)
(-0.0595633 2.55988 1.62106e-16)
(1.73204 0.0840554 1.77137e-16)
(-0.252317 -0.143442 6.05805e-17)
(-1.02486 0.573747 2.78285e-16)
(0.569282 -1.46092 0)
(0.586217 -0.0212918 -2.09046e-16)
(0.50159 -0.16267 1.42272e-17)
(0.0148581 0.0402778 1.84565e-16)
(3.3892 -0.12487 -5.20585e-20)
(9.79232 0.0324259 0)
(1.35447 -0.0643024 2.23216e-18)
(0.906562 -0.0186106 -5.06137e-17)
(0.165818 -1.3657 -1.50655e-19)
(0.116668 -0.341265 2.27488e-16)
(0.0778319 4.72707 -1.39599e-16)
(-0.110787 6.21654 4.21663e-16)
(1.49147 0.933233 7.32058e-18)
(-0.0739378 0.873019 -8.50903e-21)
(0.374746 -0.255231 2.58162e-16)
(0.280367 -0.0311939 0)
(0.171349 -0.0539281 0)
(-0.931225 -0.0794943 -3.28103e-17)
(6.83968 0.818035 -1.37459e-19)
(3.15851 2.01718 2.02324e-17)
(8.57978 1.2854 -5.67426e-18)
(10.374 0.537126 3.29889e-18)
(0.806551 0.126969 0)
(0.239957 2.85246 0)
(-0.404242 0.180538 2.48698e-16)
(0.346199 -1.32303 2.01833e-16)
(8.89863 0.493858 -4.51117e-16)
(1.57728 0.696276 0)
(0.62344 0.161999 0)
(-2.08872 0.135378 2.09193e-16)
(0.49306 -0.204176 1.7474e-18)
(0.112651 -0.264598 -1.85431e-16)
(0.829725 -0.148149 1.95503e-16)
(-0.142304 -0.135459 -9.98602e-17)
(0.0383254 6.73535 -2.98218e-17)
(-0.200892 7.5229 -1.41239e-17)
(0.784661 -0.150254 -2.56036e-16)
(9.89802 0.167633 -6.73046e-17)
(9.00093 0.0324925 3.58322e-18)
(0.131105 -1.35855 1.40608e-16)
(-0.180257 0.374822 -4.13792e-17)
(2.11717 2.17052 -9.59596e-18)
(-0.450006 8.52485 -1.31461e-16)
(-0.197846 0.00830458 1.08885e-15)
(-0.479901 -0.564927 6.74331e-18)
(0.968591 0.513063 0)
(5.46207 3.72294 6.71051e-17)
(-0.139095 -0.0508123 1.34092e-16)
(0.34494 -1.69981 -1.92466e-19)
(-0.809909 2.10922 1.82792e-16)
(-0.537711 -0.0582408 0)
(10.2057 0.150526 0)
(0.101372 0.0242643 -7.31481e-17)
(0.311548 -0.0835614 0)
(-0.731252 0.404349 8.4714e-17)
(10.0239 0.0658545 -1.06081e-16)
(4.74773 -0.0333964 7.67189e-17)
(-0.452903 -0.00607237 1.27487e-16)
(6.93044 0.0223663 9.65585e-17)
(0.0983673 -0.66847 8.74395e-17)
(-0.721367 -2.58118 1.85133e-16)
(0.0991317 -0.126738 2.60903e-16)
(0.646244 6.9289 -1.02773e-16)
(1.26117 -0.104918 -7.45868e-17)
(-0.505968 -0.119012 0)
(9.70499 0.830169 0)
(0.44447 3.02914 -2.43974e-16)
(-0.42824 -0.0645677 -2.08538e-16)
(-0.48025 -1.54303 5.9511e-16)
(0.590572 5.24356 -2.59651e-17)
(0.0658091 0.00330265 0)
(0.112876 0.00575757 -5.05017e-16)
(1.118 1.32899 -1.53247e-16)
(-0.729182 -0.986391 1.40103e-16)
(0.460312 -0.0909754 0)
(-0.28341 2.26191 0)
(0.288714 -1.82302 0)
(-0.142203 0.0440546 -2.07993e-16)
(0.551637 1.93473 6.79304e-18)
(9.96843 2.89132 -2.41015e-18)
(0.189439 -0.0243404 0)
(5.32011 1.28594 0)
(0.309884 0.122994 -1.10853e-16)
(0.829512 7.01374 7.31341e-17)
(1.55885 0.11285 0)
(-0.685285 -0.171711 4.10405e-16)
(0.301519 -0.0793476 -3.99045e-20)
(-0.252644 -0.620955 -1.66377e-16)
(0.72189 -0.00125549 0)
(8.01087 0.598469 -6.42308e-17)
(-1.605 0.694731 -1.55237e-16)
(0.569091 3.04035 7.40288e-17)
(0.0641137 4.1879 0)
(0.902099 3.83671 -1.05056e-17)
(9.92151 0.260364 -2.02847e-17)
(2.67524 2.61502 -3.6706e-18)
(0.156954 5.36979 -1.2975e-16)
(-0.405552 2.24408 -2.43742e-16)
(0.241668 3.73472 -4.34269e-16)
(-0.176846 6.79903 5.35979e-19)
(0.130909 6.73492 4.70055e-17)
(2.58961 2.61711 0)
(10.4781 -0.226303 2.12328e-17)
(-2.67575 -0.22758 1.39944e-16)
(8.85255 0.824971 -1.19037e-16)
(-0.281805 0.0624861 1.85122e-16)
(-0.0945247 6.57282 0)
(-0.0554406 6.95587 -5.16411e-17)
(-0.207021 4.88646 1.88111e-16)
(0.652809 0.110323 -7.61173e-18)
(-0.495667 -1.01197 5.00942e-17)
(0.376777 0.520208 7.06375e-18)
(-0.14694 6.5704 -2.86522e-17)
(0.0669879 6.56889 -2.98889e-17)
(2.03109 8.81569 5.65506e-17)
(0.151646 -0.0296727 2.22925e-17)
(10.1251 0.169315 0)
(-0.295977 -0.075845 5.19633e-16)
(0.480326 0.0140239 -1.12697e-16)
(0.594315 0.0869739 -3.58505e-16)
(7.47531 0.587489 1.69553e-17)
(0.0236171 6.64443 -4.62539e-17)
(-0.107426 6.74154 1.93254e-16)
(0.846768 -0.178736 -1.00645e-19)
(-0.405491 0.0773254 -1.222e-16)
(1.00495 6.70656 0)
(-0.0770967 0.0226924 0)
(-0.0706471 -0.162361 -2.13596e-17)
(-0.086427 1.90249 0)
(3.097 4.08281 -5.40802e-17)
(4.44861 2.98546 0)
(0.951683 5.73614 -1.55933e-16)
(-0.1067 0.273359 7.73118e-17)
(1.0283 -0.00860272 3.74018e-16)
(0.960041 -0.101011 4.83699e-17)
(7.15781 0.663282 -1.51639e-17)
(3.87228 -0.00641662 -2.36021e-16)
(7.67014 0.138596 -2.93036e-16)
(2.38398 0.347122 0)
(0.188177 0.481761 -9.12926e-17)
(5.09457 2.92556 1.62685e-16)
(3.59636 1.64612 -7.44904e-17)
(0.0538224 0.0269338 -3.74754e-16)
(0.262726 0.569747 6.52714e-16)
(-0.568002 -0.684624 3.24734e-17)
(-0.328984 0.659906 -4.11208e-16)
(1.08884 1.89697 2.79274e-21)
(0.932458 1.13903 -2.46074e-16)
(-0.482129 0.0103545 1.96371e-16)
(0.194253 -0.627894 1.01747e-16)
(-0.0872791 -0.213201 0)
(0.0780043 0.223384 -8.25405e-17)
(0.0736158 -0.954074 -7.65694e-17)
(-0.124943 0.376105 3.35477e-16)
(0.560233 -0.0386331 -1.22357e-16)
(1.30038 8.85307 -3.60368e-17)
(10.6466 0.424532 -7.35502e-17)
(0.204701 -0.0732674 1.24329e-16)
(-0.0099207 2.55955 -4.95647e-17)
(0.474158 -0.0314826 -1.47409e-16)
(8.64921 0.162727 3.59426e-16)
(3.94916 -0.132616 -2.44001e-17)
(-0.010786 6.90578 3.42965e-18)
(4.19821 -0.153758 2.51098e-16)
(-0.0803092 4.81061 -1.79534e-16)
(0.0236938 5.70876 8.80952e-17)
(7.2244 0.312507 0)
(0.0441026 0.183925 -1.27801e-16)
(-0.0353023 -0.0111768 3.10827e-17)
(-1.32902 -0.864684 0)
(1.52336 1.08183 -1.61112e-16)
(0.0845156 0.0729717 7.00349e-17)
(0.9226 0.236185 2.86488e-16)
(0.952788 0.133711 2.91188e-16)
(3.80262 0.179269 -4.20329e-17)
(8.68387 0.491985 -1.11539e-18)
(1.208 1.60617 -1.60686e-16)
(-1.35179 0.134216 2.88102e-16)
(-1.0655 1.35319 -2.80498e-16)
(0.418454 -0.193395 1.29809e-16)
(0.588643 -0.0221166 0)
(0.527109 -1.3897 -1.00704e-17)
(-2.02014 1.15092 -2.85729e-16)
(-0.0727244 -0.282972 -2.458e-20)
(-0.0183761 5.93303 2.77674e-17)
(0.188637 5.51516 -2.87261e-18)
(-0.135218 5.18437 -1.13504e-16)
(0.215829 6.0238 3.09698e-17)
(2.00164 4.57736 -1.43533e-16)
(7.09175 0.33692 7.17882e-17)
(-0.00847464 0.661836 0)
(10.2034 0.97641 0)
(-1.46636 -0.058627 3.8702e-16)
(-1.01901 0.046732 5.57922e-16)
(0.0131219 6.62478 1.41503e-16)
(-0.0531647 6.86628 -1.29905e-16)
(1.16252 -0.221768 1.24855e-16)
(1.07412 5.89538 -4.12531e-17)
(1.07858 -0.356169 4.76578e-17)
(-0.30746 -0.304719 2.48364e-17)
(0.381279 -0.0932816 1.64785e-19)
(0.320843 7.61101e-05 -7.15134e-17)
(-0.435888 -0.101585 -9.97537e-18)
(0.439875 2.21077 -5.21071e-17)
(3.42457 -0.0739361 -4.12366e-16)
(0.571803 4.09609 6.72425e-18)
(0.127786 -0.0321224 1.77336e-16)
(0.327083 -0.0316175 0)
(0.673649 -0.158081 0)
(0.0974205 3.21869 0)
(0.77197 6.14504 2.31097e-16)
(1.09384 8.73245 2.39507e-16)
(-0.0954582 6.97497 2.25444e-16)
(0.398607 0.112392 4.13054e-17)
(5.84183 3.25804 -3.97342e-17)
(0.320269 0.107041 0)
(-0.254362 -0.180174 1.02067e-16)
(0.595292 -0.868064 3.17459e-17)
(10.5331 0.0574845 -7.65873e-18)
(0.0360608 0.0314271 -1.18526e-16)
(-1.52907 0.248987 3.28671e-18)
(-0.596397 -0.0474675 -1.67492e-16)
(8.94852 0.37965 -2.06087e-17)
(0.634109 1.76076 0)
(3.44999 1.19046 -3.5636e-16)
(3.413 0.859689 2.10884e-16)
(0.533969 -0.105243 0)
(0.0801 0.145687 7.88572e-17)
(1.3018 2.29605 -2.61002e-16)
(8.62526 0.157947 0)
(1.68926 5.8462 -4.69099e-16)
(-0.0427553 6.2056 -1.27528e-16)
(0.348718 3.17381 0)
(1.16102 0.55301 0)
(11.3872 0.28329 4.45373e-17)
(10.3594 0.358432 3.43756e-17)
(8.77178 1.22022 1.85691e-18)
(5.33416 2.15614 -5.18429e-21)
(0.320101 2.264 0)
(1.36166 0.607303 2.06201e-16)
(2.09755 7.30069 -2.97524e-17)
(4.53021 -0.061669 0)
(0.19671 0.0113903 -4.77257e-16)
(3.74727 2.14298 1.96897e-17)
(0.0877797 0.745231 -1.33052e-16)
(9.35495 0.932801 -5.28401e-17)
(10.8675 0.043753 7.97627e-17)
(1.66375 1.84198 -1.86044e-16)
(9.91841 0.420734 -1.58705e-17)
(-0.000725176 6.78157 1.56357e-16)
(0.732152 9.03654 4.12923e-17)
(0.582316 6.86096 -1.0382e-16)
(6.73845 3.59532 0)
(0.372297 0.130728 1.66441e-16)
(-0.0704944 -0.665526 -1.98238e-16)
(2.0522 0.0871485 2.76871e-17)
(-0.0444538 0.0803648 1.38962e-16)
(0.0442981 7.06461 5.77428e-21)
(-0.0589378 7.3397 2.26048e-19)
(0.548439 5.98779 7.51265e-17)
(0.0122431 0.175757 0)
(-0.0887713 -0.147654 0)
(-0.492615 0.00546465 1.08854e-16)
(0.213887 0.100083 1.82981e-16)
(-0.0792842 5.32539 -1.0808e-16)
(-0.0388209 5.97849 -3.46908e-18)
(-0.240402 2.37523 0)
(-0.126365 0.0903262 -4.96725e-17)
(10.0899 0.110782 8.76826e-17)
(-0.781066 -0.673483 0)
(1.58554 1.24864 -3.65011e-16)
(0.233465 -0.0187435 7.9746e-17)
(0.900989 -0.142425 2.53403e-16)
(0.0198375 6.75896 6.31376e-17)
(-0.153037 7.16258 1.41949e-16)
(9.59947 0.937213 0)
(0.248536 7.32814 -3.65579e-17)
(-0.0184321 6.74502 -3.19315e-17)
(9.5003 1.16122 -9.75641e-17)
(2.0182 0.0282871 -4.29116e-20)
(7.2822 1.70691 6.28486e-18)
(-0.16105 6.5467 2.30967e-19)
(-0.0190474 6.02625 0)
(-0.00162591 5.5243 2.96284e-18)
(-0.1426 5.02455 -9.92337e-17)
(0.375223 5.86441 -3.8091e-17)
(3.59343 4.12738 1.4429e-16)
(0.23827 1.57994 3.89322e-17)
(-0.115637 6.90045 2.11407e-16)
(0.00715622 7.08489 0)
(-0.273872 5.41853 -1.42467e-16)
(0.789731 1.38665 2.71615e-17)
(0.0634816 0.121179 -1.59932e-16)
(0.375326 -0.0626747 9.18604e-17)
(0.00756876 0.118794 4.85273e-18)
(-0.363625 -0.460393 1.32365e-16)
(0.464611 -0.0215454 0)
(0.998594 3.46209 1.152e-17)
(-0.183953 -1.78103 -1.99271e-17)
(0.552855 0.0122998 -1.25806e-16)
(8.66114 0.814169 -7.45367e-19)
(-0.0830639 0.842392 -4.51428e-17)
(0.334903 -1.79521 -1.9712e-16)
(-0.243974 0.0994005 -2.23948e-16)
(-0.140295 6.36401 -2.13126e-16)
(0.179197 6.61739 0)
(0.572816 0.153606 2.49533e-16)
(-0.153525 6.44074 9.15237e-17)
(0.16911 6.51946 2.34612e-17)
(-0.232495 -0.218727 -7.76114e-17)
(3.52457 3.60387 -1.52031e-16)
(-0.850595 -1.3671 4.94742e-16)
(-0.584657 -1.04994 5.94413e-16)
(0.758736 0.62378 -2.74832e-16)
(0.239889 6.16564 2.37688e-16)
(0.101103 -0.19446 -4.44457e-16)
(-0.884682 -0.405615 -1.9283e-16)
(0.146038 -1.14477 -1.20457e-16)
(1.12282 9.10957 0)
(9.85037 0.105373 0)
(0.0160336 0.0758663 -3.02601e-16)
(0.404721 -0.388183 2.19717e-16)
(-0.136443 0.297545 -7.04451e-17)
(-0.680485 -0.609812 0)
(0.30951 0.138001 1.32329e-16)
(0.521511 -0.022942 -3.3355e-20)
(0.691906 0.355844 -6.27863e-16)
(4.07897 0.083416 2.26847e-16)
(1.00726 5.0211 1.15157e-16)
(-0.127985 6.62698 -2.84957e-16)
(1.34197 -0.296879 4.01085e-16)
(1.17052 1.15743 -1.51867e-16)
(9.7292 0.920194 -1.3695e-17)
(0.562576 3.28169 2.08284e-16)
(0.445902 -0.261437 1.93186e-16)
(0.696947 0.106663 0)
(-0.927579 0.777674 5.51575e-17)
(2.08252 1.35465 -7.42931e-16)
(-0.146001 0.263104 -2.70392e-17)
(0.197659 -2.0306 2.42631e-16)
(0.103225 2.31653 2.70421e-17)
(8.54452 0.560867 -1.16813e-16)
(9.85899 0.27125 -1.99653e-19)
(-0.466173 -0.0309905 1.90718e-16)
(11.0609 0.0501136 0)
(0.32174 0.0873202 -5.65852e-18)
(0.453565 -0.177301 3.16531e-18)
(0.460563 0.0514668 -2.03475e-17)
(-0.0153666 6.89752 3.97752e-17)
(-0.101356 6.51282 4.00519e-17)
(0.0181072 5.03181 1.78806e-17)
(10.5168 0.0385513 1.45266e-17)
(0.113922 -0.020176 -7.51321e-21)
(-0.331986 7.52547 -4.66124e-17)
(0.448377 -0.140939 -4.18955e-21)
(-0.641093 1.5121 0)
(9.00021 1.72208 -4.40973e-18)
(0.844905 -0.89752 0)
(0.0790627 -0.136933 1.04989e-16)
(0.72312 0.0330765 9.52379e-17)
(-0.0221332 0.466625 5.51258e-18)
(0.613968 0.268834 2.48502e-16)
(-1.15305 -0.229711 2.94578e-16)
(9.34462 0.637648 -1.8016e-17)
(-0.313524 -0.108202 2.69231e-16)
(0.991106 -0.309991 3.2533e-16)
(9.52418 1.09472 9.99734e-17)
(9.74203 0.31021 4.16974e-17)
(5.94503 2.71788 2.51668e-17)
(0.0566608 6.53163 -4.65412e-17)
(-0.0549604 6.53581 2.47025e-17)
(0.068835 2.63172 1.25353e-16)
(0.182587 1.80205 0)
(4.14789 0.721398 4.76055e-17)
(5.68186 3.08518 8.66606e-17)
(9.0633 -0.174934 -2.03649e-17)
(0.516564 0.855783 1.11027e-16)
(-0.085678 -0.143282 2.61216e-16)
(0.0444439 0.016243 0)
(8.85496 1.71823 0)
(0.487126 2.0923 0)
(1.12438 1.9634 2.9129e-16)
(0.342048 -0.136402 1.10572e-16)
(2.30725 4.35433 2.12106e-16)
(0.00383745 5.45478 2.8187e-17)
(1.33024 7.55101 -5.66497e-17)
(0.144899 0.198712 0)
(0.144554 -0.0479387 1.00744e-16)
(-0.0598692 5.76502 -1.27429e-16)
(-1.17026 -0.184767 -6.44411e-16)
(11.2522 0.116098 9.7335e-17)
(5.73671 1.18004 0)
(0.013983 -1.85636 1.63219e-16)
(1.08771 5.72552 0)
(0.352293 0.0326046 1.79944e-16)
(0.128639 -0.0259341 -2.61523e-17)
(0.910232 9.87063 6.26139e-17)
(9.89274 1.10154 -1.36332e-17)
(9.85605 0.695687 1.03727e-16)
(-1.12618 0.108284 0)
(0.903301 2.65553 -5.45858e-17)
(-0.428766 -0.02735 0)
(8.57258 0.332991 0)
(0.541262 0.281904 -1.41886e-16)
(0.10231 0.0041991 2.55661e-17)
(-2.76848 4.58433 -1.32755e-16)
(2.8814 0.801989 -1.24833e-16)
(0.670992 2.64725 1.41375e-16)
(10.2763 0.106178 -2.01109e-20)
(5.94677 3.54961 -7.86875e-17)
(1.32784 -1.07894 -2.61018e-19)
(-0.0128824 6.33375 5.70419e-17)
(-0.0509119 6.15547 -5.38847e-17)
(0.61774 2.44439 -1.13686e-16)
(1.21233 6.05414 -2.50746e-16)
(1.36973 1.47794 -1.1389e-17)
(0.154741 -1.23 -3.38201e-16)
(0.0698428 -0.28233 -2.34091e-16)
(0.595621 0.88133 5.93023e-17)
(0.480234 -0.00923562 2.21462e-16)
(0.283965 -0.137767 -3.29312e-16)
(-0.0954967 0.399004 -5.86146e-16)
(0.0932659 -1.5445 -3.49302e-16)
(6.93118 4.19495 3.32705e-18)
(0.288825 0.563138 6.23751e-16)
(10.0684 0.0432228 -6.41299e-17)
(0.417803 0.119928 0)
(-0.277102 2.52578 4.05895e-20)
(3.65989 -0.894514 -1.10286e-16)
(-0.0474467 2.39686 0)
(10.0663 0.422118 4.02672e-17)
(-0.485666 0.0457415 3.11429e-16)
(0.376158 0.00771977 -2.80364e-16)
(9.00425 1.80983 0)
(0.00582436 6.82144 2.43325e-20)
(-0.25548 7.65342 0)
(10.0251 0.0867227 0)
(0.376713 0.226036 -5.35679e-17)
(9.43102 1.26905 -5.30339e-17)
(8.93864 3.95259 -1.85174e-16)
(1.09279 6.98372 2.31211e-17)
(7.304 2.12359 -1.07314e-16)
(-0.0367175 3.85099 -7.40239e-17)
(0.00539904 4.08583 2.14934e-20)
(-0.0137593 4.39541 -7.32103e-17)
(-0.86039 -1.02417 0)
(-0.0922376 2.43344 1.13934e-16)
(-0.0034457 -0.565947 0)
(0.16778 0.239683 0)
(0.0349069 0.0987003 0)
(-0.139265 0.292284 -2.16711e-16)
(0.286514 -0.202362 0)
(-0.0562459 0.250999 1.44805e-16)
(2.85978 2.65734 -2.80837e-16)
(0.205277 3.40594 0)
(-0.300567 5.07825 1.59595e-16)
(-0.195684 6.41981 -2.45969e-17)
(-0.0127606 6.95995 8.24573e-17)
(-0.132657 7.208 -3.90124e-17)
(0.396237 1.89236 2.23321e-16)
(9.36479 1.03872 -2.75619e-17)
(-0.134032 0.352277 2.29279e-17)
(0.155881 -1.98819 -6.8686e-17)
(0.753739 0.580934 0)
(0.564 -0.0835394 3.97342e-20)
(4.95496 1.75982 0)
(0.551052 -0.0628598 1.96961e-21)
(3.71534 0.131768 -4.65894e-16)
(10.0437 0.0527894 3.52529e-17)
(-0.289088 7.63324 1.14875e-16)
(-2.38126 2.46069 -2.9922e-16)
(0.105498 -0.297907 0)