/*--------------------------------*- C++ -*----------------------------------*\
| =========                 |                                                 |
| \\      /  F ield         | OpenFOAM: The Open Source CFD Toolbox           |
|  \\    /   O peration     | Version:  v1912                                 |
|   \\  /    A nd           | Website:  www.openfoam.com                      |
|    \\/     M anipulation  |                                                 |
\*---------------------------------------------------------------------------*/
FoamFile
{
    version     2.0;
    format      ascii;
    class       volScalarField;
    location    "0.92";
    object      p;
}
// * * * * * * * * * * * * * * * * * * * * * * * * * * * * * * * * * * * * * //

dimensions      [0 2 -2 0 0 0 0];


internalField   nonuniform List<scalar> 
1431
(
93.9475
93.1783
91.503
93.815
88.4394
89.8611
93.3464
38.9479
91.6904
93.3352
45.3959
45.3173
92.3656
84.5342
89.0635
93.3186
86.1272
91.3786
87.9202
90.3775
40.402
84.3839
91.9929
20.1113
91.4136
92.3812
51.5043
90.2759
92.1794
84.2772
87.2145
91.3957
87.5169
85.1465
91.6168
93.1903
91.3164
92.4336
93.2122
90.8917
91.438
91.4389
92.3907
93.2694
87.1927
91.2742
85.6567
55.6284
93.3577
92.4915
93.0088
93.2349
92.9567
53.3047
93.7925
93.3217
89.343
48.5482
84.8171
91.6715
90.4965
93.3303
92.6189
92.5007
93.2454
93.3694
89.58
92.5246
91.0215
86.563
47.4718
84.8859
93.7737
85.2637
84.8536
91.5011
90.6145
92.5416
93.3267
92.1336
85.5892
91.2617
86.7968
86.1007
40.3133
93.8687
93.9517
88.1517
52.5908
70.1945
90.1121
88.8288
92.3951
93.2808
93.9726
87.4718
45.081
86.661
93.2843
90.1996
93.3139
93.3093
84.9346
92.2368
92.5121
86.9242
91.4556
55.9642
89.905
84.3696
92.3547
92.2773
91.4052
90.9751
93.4794
89.8712
84.6478
93.7934
93.8633
92.5664
87.8287
88.531
55.2159
85.5205
43.7946
93.2967
91.1836
87.0965
91.2523
94.0178
86.7719
90.9642
94.0248
87.6812
91.357
92.494
92.3647
93.345
50.1463
92.4388
93.2042
86.3188
85.1296
92.3512
94.1997
87.4123
92.5386
93.2224
93.3037
91.1916
92.542
91.6327
90.8353
93.9171
90.834
92.3268
48.9947
91.0791
79.2634
93.9442
63.3364
92.2543
93.8266
93.927
54.666
91.8544
90.4091
93.7834
92.4913
90.7053
62.6451
93.0934
89.6619
50.7704
92.5097
48.5636
94.0033
88.5254
93.0778
91.9298
93.3451
93.1984
93.64
23.406
89.4325
90.6905
51.3469
91.1753
89.485
51.2873
87.406
89.8708
90.8587
58.4017
93.832
88.0463
85.3758
90.9584
90.8169
91.0893
93.7789
93.8431
66.4203
93.9856
92.2943
87.4162
91.2815
91.166
50.2389
90.3201
37.849
93.817
91.3867
87.1146
42.1871
90.8196
90.8114
90.1965
93.1823
70.4155
91.2458
93.7949
90.6877
93.8812
90.879
45.5921
67.4523
88.9894
91.0334
68.5218
35.9675
87.3576
87.4597
90.7825
91.3328
71.888
91.377
88.1294
87.7068
93.9447
94.0178
92.6972
48.5306
88.367
89.7825
86.9825
88.7138
61.1474
91.7024
92.4032
86.8199
51.1746
93.9148
93.7875
87.4295
91.91
93.8865
40.7378
79.0515
90.7269
91.1179
51.4188
93.4164
93.9899
91.2184
74.4582
91.9701
59.4936
60.3722
88.8611
90.6719
91.1915
93.6577
94.0583
58.3184
89.4769
54.157
83.4712
87.4972
91.4299
92.8553
91.7782
87.2982
92.9561
94.0269
84.953
91.7128
83.3657
46.8785
92.8546
90.9155
91.8437
87.7368
92.7671
71.8217
90.9755
50.6748
91.1817
90.6292
86.8418
93.0143
92.3185
93.8995
92.2012
88.5903
93.8612
92.5043
90.4163
91.7155
92.049
84.5454
93.2124
93.3659
58.0809
91.6189
86.2481
91.4685
93.9556
90.1593
31.9458
92.158
87.8938
91.1002
92.9081
91.7523
91.5183
90.6132
91.244
57.2808
93.8003
85.6654
90.7777
91.5369
84.7256
93.9963
92.2316
91.8536
76.6818
91.1399
56.2765
92.4079
92.1613
79.2076
91.1424
91.0835
88.0668
93.6119
52.3508
84.911
92.4453
90.4504
90.6081
93.0437
90.7327
90.8742
93.0646
41.7353
36.8756
50.5214
91.5807
84.2106
90.9756
85.6627
94.0065
90.525
40.8297
91.3876
11.1817
91.7363
84.7225
56.864
88.1359
56.3731
93.1368
91.9899
50.113
90.793
94.005
91.3876
46.15
92.0993
90.3505
93.3172
91.316
11.93
91.7422
92.5905
91.0337
91.0719
93.0419
94.035
92.4208
92.4234
93.8392
73.8562
93.2142
92.1827
92.523
91.1149
90.9168
88.6927
92.0496
81.8718
91.8859
93.2372
92.3773
90.104
93.551
94.0388
92.2885
88.4458
91.9763
92.3192
91.956
91.3619
90.8171
91.1861
93.2567
90.3627
92.4046
91.7218
92.2783
93.057
90.8792
92.4751
88.2348
89.9443
88.5622
91.4954
30.0179
91.4847
91.5234
91.5687
91.3366
91.3194
91.6135
91.4362
91.9601
91.8782
91.9159
90.0274
48.1281
90.6128
90.2921
90.2335
89.956
89.9324
90.1291
85.79
84.5155
84.8528
92.5156
93.3608
88.7723
93.3777
93.3454
84.38
52.9691
87.9044
89.1629
84.2495
92.541
53.061
93.333
88.895
92.4999
90.8135
52.7718
92.4761
49.8785
93.2819
93.2656
90.8876
84.5977
49.4231
49.1149
92.3336
92.375
89.754
93.2593
84.8565
89.9014
48.7713
93.1833
90.038
85.0352
90.0319
89.9638
90.7198
92.206
47.361
93.2066
91.228
92.2255
86.0377
89.6268
91.4427
45.5736
93.1572
89.0503
91.4164
92.3681
88.6259
91.582
45.7458
49.8723
90.8872
93.1219
93.1486
87.6185
92.2957
88.0512
89.7735
91.4047
91.3814
93.7709
91.2826
92.2341
87.519
48.1757
86.0304
93.1047
88.1989
93.822
92.2764
93.8511
44.6357
90.6869
89.9838
93.7527
93.5277
93.2234
92.4857
89.1798
92.0284
91.4765
93.5874
91.8383
92.1931
88.2977
92.2112
92.0454
91.4286
93.1873
89.2285
93.8231
93.4325
81.2989
92.2042
91.653
92.4321
91.8128
91.7469
92.3781
92.5654
88.1493
93.8756
91.6376
86.9721
54.2055
91.731
47.7105
83.4836
92.5133
38.1404
92.5779
93.2913
93.9035
91.5614
92.1286
92.6104
70.9318
91.9016
93.1266
92.7937
89.8463
93.8147
89.7595
91.5602
91.4323
92.4804
77.3979
86.9969
90.0545
89.2513
91.4218
88.0208
93.146
92.5937
87.6437
91.5349
89.5197
92.965
92.9907
91.8954
92.2036
86.5045
92.4623
89.4141
50.7914
71.3546
92.301
92.2279
93.0812
84.8515
90.6093
20.8834
85.7769
93.9792
90.4808
93.8319
92.419
92.8115
91.7626
90.4296
90.8742
45.8824
93.9718
91.3459
91.9341
92.9228
93.0208
92.9972
92.4265
92.3356
86.6008
92.0703
86.9633
82.1061
93.9551
92.3881
93.3456
93.293
91.9325
92.7715
88.8356
41.4759
94.0379
90.0807
93.5465
90.7903
82.0617
94.0183
91.9273
90.0189
92.3031
87.5593
91.6754
35.7917
92.0423
91.3893
91.1282
89.5325
87.2234
90.9237
91.7308
91.7578
82.2411
91.3971
56.7248
68.3906
92.0671
92.3074
92.6323
91.8849
90.1136
90.6913
91.3844
93.1656
91.1613
92.6411
93.3898
39.933
92.1108
91.2913
86.5624
34.6696
84.4455
88.1769
93.9535
93.8973
92.9923
92.0072
43.8021
92.5745
89.584
91.7056
90.2241
90.4523
94.7841
90.397
90.8035
91.5259
94.6419
94.2526
91.6149
91.1584
86.543
94.1128
79.158
93.9488
90.8151
92.3999
94.4468
91.7479
27.761
89.729
92.8523
93.2341
91.8307
90.4952
93.1018
86.3516
91.8849
91.5398
92.4445
91.7647
90.0762
94.0712
90.6421
91.4651
87.2584
50.2285
92.4051
92.3482
94.0532
89.6737
92.2853
57.4598
55.7021
92.4303
90.0522
91.4569
94.0367
90.9818
91.2234
92.027
88.7666
45.728
93.9046
90.0693
90.626
94.034
88.2464
91.6663
92.4987
84.2998
91.7235
90.3478
93.3226
92.1752
93.8784
94.0474
93.3006
9.97104
89.8795
92.1092
90.3086
90.4496
92.9633
33.7679
90.4815
92.6386
93.3734
87.599
91.4928
93.2996
93.3318
92.2717
94.0203
92.1611
87.2495
89.361
92.2633
91.3669
93.1198
94
93.0038
91.9744
89.2558
91.4883
92.3372
92.55
92.4698
94.7825
50.8966
89.6782
92.7643
89.7029
92.9714
90.0602
90.2336
91.1706
91.7984
90.2139
94.0321
93.8972
87.6069
93.8439
92.1741
90.8216
84.3242
87.7077
91.4327
91.6682
17.3655
90.5567
91.4582
92.7879
89.3731
52.919
93.9981
93.6242
45.5976
91.8262
52.8808
91.4604
89.265
91.8396
90.6737
90.5714
86.9205
92.9781
92.1233
94.544
89.8612
91.916
86.1135
89.5458
93.1851
91.7302
85.6486
44.9582
90.298
92.7501
54.14
86.4424
91.3779
92.4363
93.1654
92.3139
92.2789
92.2901
90.5571
92.6924
67.1886
92.2669
55.0856
93.3013
76.2242
91.6973
85.7519
92.3127
93.7852
89.6051
92.5941
94.0389
94.0521
90.7885
92.4687
93.5514
92.0656
92.6222
93.2351
92.0928
92.263
91.9293
93.2707
52.3563
92.1151
91.8761
52.3399
91.8287
89.5134
84.5066
91.3082
93.3686
93.1946
91.867
90.2976
48.0952
93.8985
90.9582
37.5114
58.1129
50.4726
36.6195
62.3514
91.2403
90.9186
90.6945
90.7423
56.4622
91.6244
88.0002
89.9525
89.0189
87.383
67.3839
49.4926
87.152
75.7807
71.6042
87.5027
91.6778
91.3456
87.9581
90.9614
90.762
87.9586
90.725
91.8075
76.367
92.5032
91.3494
92.1393
84.755
85.3739
40.4557
91.5663
82.7225
84.1905
88.5199
93.1372
53.8169
86.5258
89.5753
76.369
89.4358
91.9401
85.2683
93.9699
52.1293
88.5159
90.8564
91.51
92.6776
93.9492
93.2043
49.9696
90.664
84.5577
92.1026
91.8241
92.7278
92.3516
57.8144
92.3642
93.2492
90.7549
93.81
92.6584
92.39
85.3907
91.3011
92.9378
92.2159
84.7225
88.804
92.4711
93.2215
47.9553
92.3441
92.7479
89.9677
91.5
84.6641
93.9969
90.5573
87.3707
93.959
92.8999
87.1402
42.9613
90.4986
85.1882
90.9367
91.3496
93.3528
28.2444
92.1973
90.7125
93.1729
41.5929
92.2142
81.2215
93.3156
93.2086
93.936
87.1078
91.4814
92.52
87.4352
59.4934
36.9961
90.8728
91.9908
93.7904
88.1326
85.6101
91.6285
86.7858
87.4845
91.8423
89.2333
91.4313
39.6243
91.9856
93.9274
92.5328
86.6681
91.5674
87.0166
90.4468
92.1884
92.8476
92.7404
90.8763
92.3114
92.6099
27.9508
19.0327
93.355
91.4275
82.4977
93.951
92.2223
51.5259
85.8483
91.0075
87.5726
69.7547
49.7375
94.0029
85.1906
91.0101
92.2799
81.8816
50.7827
91.7491
92.2733
93.943
50.6937
93.9142
91.2621
93.5543
8.18888
91.9137
42.7212
58.2071
91.6232
91.3917
92.0763
93.9724
92.3855
93.8985
93.9673
93.8613
92.5863
91.9184
91.0825
91.4347
91.6875
63.8044
92.5422
90.164
91.8895
54.2894
92.1917
53.4806
91.8577
92.2357
55.1095
90.0844
69.006
65.1504
61.3923
52.0788
52.14
51.4132
57.7219
52.3025
93.8149
93.8791
93.8625
93.8241
93.8193
93.8145
92.4122
85.7794
91.6196
88.8047
91.575
85.9992
93.8067
91.4982
92.5356
93.3693
92.9267
93.2261
90.956
94.2722
93.9743
88.4767
87.3744
92.7466
91.5195
91.8503
91.6024
78.6574
94.0248
92.1681
46.689
91.3506
90.2267
88.5626
92.724
92.2317
93.1091
34.9648
92.2747
91.8468
93.8035
87.0199
93.8682
86.8837
84.3206
89.8373
93.7928
85.3385
90.0577
91.4464
91.6083
91.685
92.2695
86.0574
93.1465
17.5831
92.5448
44.2643
8.52236
94.0547
49.4136
85.0085
90.2671
89.1526
43.8648
93.9165
92.0617
92.7019
73.5963
91.7853
86.3843
90.8587
86.7567
93.2557
91.779
93.374
92.7012
60.2288
40.7088
18.2216
87.8938
88.8689
93.4606
91.5149
93.9186
90.0313
89.6069
85.2013
91.9368
50.0215
92.3484
93.166
42.3588
92.6105
84.3756
91.9996
93.1625
92.0047
81.4981
65.0719
91.7316
92.4686
88.2328
92.0275
47.6041
91.5966
48.3876
93.2698
89.8533
86.6155
39.1092
83.3591
92.4017
91.699
91.756
93.7817
54.6693
87.6781
88.9229
85.5366
85.585
90.3068
91.927
93.7916
87.2729
89.9301
53.9554
84.8046
92.3389
92.4198
85.1991
93.7986
90.0746
93.9879
89.4585
87.0163
91.9278
47.3827
92.1778
92.5183
92.788
88.9332
93.7706
86.207
90.3861
91.6592
77.6039
92.2193
29.527
90.7032
94.1264
91.6555
62.8567
91.3509
93.3688
93.0841
92.3696
92.0432
92.3908
91.4057
93.0086
95.619
85.6844
93.3346
84.9292
93.8242
91.4529
56.1308
92.0006
58.5223
91.4715
92.1994
91.8545
92.724
85.0788
87.9127
91.3698
84.5855
93.8101
92.0946
38.5855
91.91
92.194
92.5451
89.1806
86.5906
91.8179
90.2884
73.2309
91.7156
91.517
50.6686
85.3761
92.5982
92.0256
92.6573
89.6328
91.0386
90.8675
79.6484
87.5479
87.3651
85.5939
87.2724
91.3458
52.488
92.8683
90.6975
84.7474
92.203
57.8221
87.0029
91.6927
88.3098
55.5735
92.4744
89.5647
92.5087
38.9259
91.1739
91.953
92.4497
88.9576
43.8828
94.2144
53.6802
93.9415
93.9221
94.0228
55.0375
93.8975
37.1992
74.7695
92.1926
91.6471
87.4015
49.8913
91.4268
17.6738
94.056
90.6893
94.2508
91.4412
87.4715
65.7048
93.933
93.5922
44.6225
58.2147
91.1301
87.1473
93.9282
51.5988
93.9907
85.5129
88.891
56.096
93.3803
94.0008
92.4254
91.41
85.4085
90.9109
86.8223
93.7782
93.9796
59.1754
55.4456
93.949
90.6338
87.0859
92.3586
90.2945
90.9524
84.3946
91.5252
93.7757
88.4074
87.9085
91.2999
65.816
91.1404
93.8525
91.299
75.3982
93.7893
93.9589
91.8273
85.3398
93.8456
86.8942
88.5006
91.281
93.8776
93.832
61.9761
51.5621
86.9855
93.3333
93.8217
90.0786
92.4502
91.8286
92.535
92.4688
89.1578
89.3643
88.2711
93.7867
58.8389
91.4006
79.7051
92.269
86.0125
48.9234
92.4021
93.7857
85.0817
88.8992
89.524
38.8927
92.4075
92.5232
91.4754
92.8869
93.1525
93.2637
93.5327
93.2222
93.945
22.1542
57.4079
85.7723
102.104
85.2461
86.7149
86.739
93.33
98.2817
89.5239
90.4314
95.0058
98.9298
90.0966
92.5807
86.2069
89.4198
90.2109
88.5965
)
;

boundaryField
{
    frontAndBack
    {
        type            empty;
    }
    wallOuter
    {
        type            zeroGradient;
    }
    inlet
    {
        type            zeroGradient;
    }
    outlet
    {
        type            fixedValue;
        value           uniform 0;
    }
    wallInner
    {
        type            zeroGradient;
    }
    procBoundary3to1
    {
        type            processor;
        value           nonuniform List<scalar> 
48
(
91.7227
91.4465
91.5507
91.3565
91.1838
89.3174
91.4465
91.5403
91.4834
88.4294
88.4294
90.0804
90.0804
89.2056
88.9535
91.1272
90.4812
91.0739
90.4812
89.6607
90.5576
91.2342
89.6607
89.9282
88.2402
90.0086
91.4814
91.2342
91.4678
90.3617
90.3617
91.4827
91.4827
91.4834
89.7941
91.218
91.477
88.2402
91.7884
91.3077
89.2056
91.5121
91.4949
89.6607
88.9195
91.7653
90.8808
89.824
)
;
    }
    procBoundary3to2
    {
        type            processor;
        value           nonuniform List<scalar> 
29
(
92.3823
92.3823
93.4067
93.4017
89.9769
92.5301
93.7594
92.2969
93.3967
93.3839
92.4016
89.5598
92.3946
93.7591
93.78
93.7645
93.3918
93.3836
92.2954
93.769
93.7721
93.3918
93.8064
93.3836
93.7882
93.3855
93.3836
89.1623
89.1623
)
;
    }
}


// ************************************************************************* //
