/*--------------------------------*- C++ -*----------------------------------*\
| =========                 |                                                 |
| \\      /  F ield         | OpenFOAM: The Open Source CFD Toolbox           |
|  \\    /   O peration     | Version:  v1912                                 |
|   \\  /    A nd           | Website:  www.openfoam.com                      |
|    \\/     M anipulation  |                                                 |
\*---------------------------------------------------------------------------*/
FoamFile
{
    version     2.0;
    format      ascii;
    class       volVectorField;
    location    "0.92";
    object      U;
}
// * * * * * * * * * * * * * * * * * * * * * * * * * * * * * * * * * * * * * //

dimensions      [0 1 -1 0 0 0 0];


internalField   nonuniform List<vector> 
1431
(
(0.384604 3.30045 1.05011e-16)
(1.74036 1.786 2.39118e-17)
(0.833733 -0.326221 0)
(-0.0458886 0.00656741 2.56068e-16)
(-1.94072 -0.23457 0)
(0.522945 6.88779 1.78569e-16)
(0.234901 -0.00244939 5.42271e-16)
(1.41943 -0.0286636 4.7185e-17)
(-0.00224419 7.1448 1.20409e-16)
(0.119895 -0.00621363 5.05236e-16)
(2.91981 10.7192 2.13755e-17)
(5.93753 -0.577118 0)
(0.00206808 2.10492 -1.47021e-16)
(-1.7884 0.0281323 -5.07273e-16)
(2.48845 -0.453492 0)
(0.25466 -0.0306994 -4.71174e-16)
(3.66936 -0.195013 -2.48178e-16)
(-1.51572 -0.367415 0)
(3.71068 -0.412072 -2.0051e-16)
(-1.75015 0.0334937 1.53132e-16)
(4.41191 10.1016 -7.21159e-19)
(-0.918496 -0.0459959 2.09226e-16)
(0.199042 5.39399 -1.39215e-16)
(11.3763 2.09453 -3.49637e-18)
(0.0958353 6.68856 1.22663e-16)
(0.19101 1.11654 6.27956e-20)
(1.58818 10.5293 -2.21417e-17)
(1.52273 -1.35233 -3.67394e-16)
(-0.101331 5.37679 -4.1193e-17)
(0.211311 6.1511 3.04229e-17)
(0.0531451 7.05782 -8.23158e-17)
(-0.0318991 6.77017 3.26677e-17)
(-0.0307017 7.00969 0)
(-1.19812 0.175486 -4.10623e-16)
(0.466166 5.75521 -2.39941e-16)
(0.148491 0.0858034 0)
(-0.286329 5.59904 0)
(0.565612 -0.0933084 -3.964e-20)
(0.324787 -0.0671851 0)
(0.00561978 6.67716 0)
(-0.225467 8.32674 -9.53114e-20)
(-0.388852 7.67706 1.08638e-16)
(0.0736789 1.54792 -1.96421e-16)
(0.379473 -0.0605799 2.40286e-16)
(0.763778 5.65151 0)
(-0.211703 -0.874513 3.40987e-16)
(0.172513 1.10456 2.35604e-17)
(1.08854 10.1959 -6.68743e-17)
(0.305598 -0.014735 0)
(0.325862 -0.353059 0)
(0.395543 2.63712 0)
(0.40725 -0.115865 0)
(0.375295 3.03767 2.53593e-16)
(2.13411 -0.120814 1.57068e-17)
(1.33518 1.1051 -1.72167e-18)
(0.230463 1.26867 4.05737e-16)
(-1.31954 0.293057 1.87211e-16)
(4.12874 -0.744374 0)
(4.25379 0.122125 0)
(1.24476 -0.352917 4.03712e-16)
(1.49477 -0.597434 -1.3395e-16)
(0.156746 -0.00385093 4.29741e-16)
(-0.0121852 -0.0747783 0)
(0.447192 -0.0702753 0)
(0.200477 -0.0136038 1.02516e-18)
(0.0359096 0.0152228 -2.63707e-16)
(2.4953 0.0542537 -2.22041e-16)
(0.522206 -0.139418 -9.25516e-17)
(0.786741 -0.184502 -5.68889e-18)
(-1.16948 -0.307652 0)
(0.0479085 -0.849379 7.02111e-17)
(-1.36048 0.132133 -1.46338e-16)
(-0.0930127 0.0141993 1.47902e-16)
(-1.08907 0.106158 3.36769e-16)
(-1.86013 -0.101841 3.75404e-16)
(-0.671806 -0.437333 -5.21509e-16)
(1.77169 -0.337599 -2.11275e-17)
(-0.00851434 -0.113594 -1.94312e-16)
(0.054375 -0.0356003 -3.23146e-16)
(-0.713674 -0.435379 0)
(3.67511 -0.0138178 -5.83073e-17)
(-0.140636 -0.260448 1.22041e-17)
(4.70792 1.0675 -5.79113e-18)
(1.03036 1.43434 9.63794e-17)
(11.1599 0.721189 2.15507e-18)
(0.0939382 -0.088026 -1.33872e-16)
(0.367976 -0.0803151 0)
(2.00468 0.324312 1.62403e-16)
(9.74071 0.148026 5.704e-18)
(7.63525 0.926139 1.90094e-18)
(-0.714548 0.704684 -2.5872e-16)
(-1.36629 0.853411 2.67345e-16)
(0.573791 -0.0270842 3.02398e-16)
(0.315471 -0.0862665 -1.61675e-16)
(1.17235 0.750426 8.14682e-18)
(-0.0202708 5.41382 0)
(2.89464 -0.689557 -7.24398e-17)
(4.422 2.30877 -9.03949e-18)
(0.340063 -0.0334711 0)
(-1.47406 -0.187921 -6.12725e-19)
(0.201788 1.88054 1.4475e-16)
(0.244353 -0.0210031 -7.60552e-16)
(3.44636 -0.058233 0)
(0.153049 -0.795159 -3.01823e-16)
(-0.140483 -0.111839 3.99929e-16)
(0.0392283 6.07503 1.23915e-17)
(0.0212999 5.92894 0)
(1.14303 7.53607 7.20797e-18)
(0.32627 3.63344 2.68299e-16)
(3.98699 0.0353154 0)
(0.504198 -0.49581 -6.46209e-16)
(-0.0598199 2.80311 -2.71926e-16)
(0.416798 -0.203917 5.03513e-16)
(-0.122326 7.5366 -7.75732e-17)
(1.69516 1.35406 -7.68495e-19)
(-1.47678 -0.290684 6.77719e-17)
(-1.70976 0.143073 0)
(-0.0704119 -0.0311273 -2.67408e-16)
(-0.0467523 -0.0120269 0)
(0.271731 -0.0831683 0)
(-0.242519 -0.345149 -2.42141e-17)
(2.84438 0.0162774 6.83359e-17)
(0.564696 0.0894299 2.45708e-16)
(-1.74736 -0.204419 1.52237e-16)
(-0.961194 -0.62731 0)
(-0.0254842 -0.0560848 1.91584e-16)
(1.0937 -0.306937 0)
(1.41651 -0.500016 4.66332e-16)
(1.39648 -0.821765 -2.67353e-16)
(0.315876 0.0268057 5.28545e-16)
(3.11856 -0.289467 3.37654e-16)
(-1.71895 0.0085227 -9.14868e-17)
(0.42774 0.059248 -1.20417e-16)
(2.72791 0.11284 9.11608e-17)
(-1.65653 0.448015 0)
(-0.173036 -0.26996 -3.82462e-16)
(-0.0243636 -0.287133 1.74011e-16)
(0.316449 -0.0183233 0)
(8.96295 -0.275844 3.22992e-17)
(0.58177 -0.00961136 2.02296e-16)
(0.362712 -0.0726997 0)
(0.126405 7.04955 0)
(3.97688 -0.0652247 7.18575e-17)
(0.118038 -0.307107 0)
(0.301771 3.87796 1.70325e-16)
(-0.0481175 7.0436 -6.354e-17)
(-0.262758 -0.111725 -2.10944e-16)
(0.2516 2.36546 -2.84265e-16)
(0.206399 -0.0728213 3.45776e-16)
(0.249918 -0.395502 1.73392e-16)
(-0.112921 -0.205835 2.70606e-16)
(0.234926 -0.36594 8.15006e-17)
(0.00999325 6.68422 1.71185e-21)
(0.0637804 -0.0617825 -2.45985e-16)
(-0.0246936 6.53266 -3.21387e-17)
(0.469658 -0.117919 -3.94797e-16)
(9.97639 0.335547 -2.17098e-18)
(2.56911 3.25717 5.64335e-17)
(6.23687 1.09991 -4.72261e-18)
(0.489329 -0.193897 3.26393e-17)
(8.34451 2.19618 -2.6275e-18)
(-0.065419 2.59958 1.60346e-16)
(0.659393 -0.0405525 -2.05808e-16)
(0.547113 -0.160102 1.40842e-17)
(0.945076 -0.0116537 -5.05399e-17)
(0.0852786 4.75291 -1.38397e-16)
(-0.104823 6.24776 4.17757e-16)
(1.52926 0.930754 7.34071e-18)
(0.411659 -0.238975 2.55027e-16)
(3.18877 2.01134 2.01787e-17)
(8.56005 1.26753 -5.67113e-18)
(0.2118 2.88036 0)
(0.0244276 6.75692 -2.95577e-17)
(8.9853 0.0429773 3.58944e-18)
(2.14326 2.16652 -9.56872e-18)
(10.1759 0.15605 0)
(0.354392 -0.0724981 0)
(0.628249 6.89619 -1.02608e-16)
(0.408516 3.04685 -2.40201e-16)
(0.568677 5.28217 -2.57446e-17)
(0.0407464 0.0148047 -5.06632e-16)
(0.41433 -0.135628 0)
(0.545811 1.92058 6.71055e-18)
(9.97884 2.89174 -2.40421e-18)
(0.812827 6.99715 7.29993e-17)
(0.0654201 4.20998 0)
(0.894186 3.84744 -1.05008e-17)
(2.69947 2.60897 -3.65599e-18)
(0.109708 6.75938 4.66192e-17)
(10.4397 -0.22389 2.1301e-17)
(-0.0528328 6.96212 -5.14236e-17)
(0.0502048 6.60509 -2.96024e-17)
(0.0152596 6.68654 -4.57532e-17)
(1.00736 6.70461 0)
(-0.0562385 0.0335076 0)
(3.11242 4.07038 -5.36848e-17)
(4.4692 2.9707 0)
(0.950495 5.74466 -1.54992e-16)
(1.0796 0.00451992 3.67788e-16)
(2.39421 0.325568 0)
(1.10312 1.89156 -2.36971e-21)
(0.630728 -0.0593806 -1.2063e-16)
(1.28987 8.84716 -3.59726e-17)
(0.240656 -0.066352 1.23593e-16)
(-0.0285593 2.59888 -4.89708e-17)
(-0.0135789 6.91451 3.41398e-18)
(0.0182863 5.74655 8.72161e-17)
(0.968534 0.142346 2.88473e-16)
(8.68013 0.504297 -1.11548e-18)
(1.21986 1.58565 -1.59253e-16)
(-1.30454 0.125076 2.90982e-16)
(0.656482 -0.0386503 0)
(-0.0199364 5.96797 2.74831e-17)
(0.197735 6.03965 3.0795e-17)
(10.1939 0.982985 0)
(-1.08401 0.0641326 5.47176e-16)
(0.00846907 6.66834 1.40011e-16)
(1.07694 5.8949 -4.10224e-17)
(0.411244 2.19365 -5.14451e-17)
(1.08557 8.7249 2.39061e-16)
(-0.0951292 7.01959 2.23026e-16)
(0.636498 1.74983 0)
(3.38368 0.843175 2.10916e-16)
(0.598168 -0.123567 0)
(-0.0404809 6.2425 -1.26162e-16)
(8.77749 1.23207 1.85454e-18)
(2.06936 7.31088 -2.97034e-17)
(3.77548 2.1348 1.96225e-17)
(-0.000539662 6.82944 1.54575e-16)
(0.72601 9.00522 4.12764e-17)
(2.1063 0.0878895 2.76467e-17)
(0.0405808 7.04824 5.12653e-21)
(-0.0383645 6.004 -3.44866e-18)
(0.0087235 6.79859 6.2465e-17)
(-0.0199786 6.7934 -3.15781e-17)
(7.28294 1.6885 6.26976e-18)
(-0.021415 6.06277 0)
(0.346961 5.88835 -3.78673e-17)
(0.0102999 7.08268 0)
(0.80426 1.37881 2.70866e-17)
(0.417071 -0.0564071 9.35344e-17)
(0.992414 3.45933 1.13842e-17)
(8.66252 0.826725 -7.45346e-19)
(0.155587 6.63747 0)
(0.147185 6.55198 2.3279e-17)
(-0.542679 -1.032 5.94715e-16)
(0.213687 6.19228 2.35869e-16)
(1.11851 9.09769 0)
(-0.12631 6.66513 -2.8205e-16)
(0.465205 -0.245291 1.90834e-16)
(0.636846 0.0562082 0)
(9.81867 0.267013 -1.97217e-19)
(0.50399 -0.183693 3.13028e-18)
(0.513653 0.0422392 -2.00665e-17)
(-0.0155535 6.90597 3.95904e-17)
(-0.330172 7.53807 -4.63113e-17)
(0.502394 -0.156729 -5.59833e-21)
(9.00963 1.73205 -4.40368e-18)
(5.95755 2.69741 2.5059e-17)
(0.0503511 6.5739 -4.60796e-17)
(0.065949 2.65563 1.24041e-16)
(9.044 -0.16525 -2.04119e-17)
(0.470571 2.07521 0)
(0.382016 -0.121083 1.10635e-16)
(0.00831486 5.48337 2.79186e-17)
(1.3184 7.56725 -5.64281e-17)
(-0.0814841 5.81197 -1.26314e-16)
(1.09758 5.72397 0)
(0.907555 9.83859 6.27101e-17)
(-1.13331 0.0827515 0)
(0.873497 2.61244 -5.44783e-17)
(-0.0161729 6.37411 5.64077e-17)
(1.3973 1.4749 -1.1426e-17)
(0.61283 0.872952 5.94926e-17)
(8.96985 1.78119 0)
(-0.00807208 6.83391 2.71621e-20)
(9.39129 1.24808 -5.31453e-17)
(1.08735 7.00977 2.30112e-17)
(0.00356022 4.14666 2.0538e-20)
(-0.0146936 4.41922 -7.25199e-17)
(0.178753 3.43874 0)
(-0.299064 5.1019 1.58627e-16)
(-0.00848273 6.92953 8.22844e-17)
(0.338595 1.89548 2.1962e-16)
(0.787248 0.576518 0)
(4.97841 1.75013 0)
(-0.285086 7.64641 1.14073e-16)
(5.13451 2.52111 -2.99159e-17)
(10.8625 0.476558 0)
(1.67209 2.15178 -2.40109e-17)
(0.704979 0.142331 -2.3866e-16)
(-0.153066 6.61816 1.26781e-16)
(3.92189 2.78103 -2.27441e-17)
(0.0430345 2.62489 -5.33439e-17)
(0.674496 8.62527 -1.32882e-16)
(0.0119741 6.87331 -3.66669e-17)
(1.93538 5.11444 0)
(0.172668 4.22232 0)
(-0.436455 1.2688 2.02207e-16)
(0.0384891 4.1051 8.22807e-18)
(0.298195 2.89933 -1.70515e-16)
(-0.507489 -0.037142 -2.24786e-16)
(1.09662 1.16664 -3.41945e-18)
(0.025059 2.02737 7.17924e-17)
(0.24938 5.46773 -4.50016e-17)
(0.492423 -0.119164 -7.26497e-17)
(1.98843 2.64541 1.67639e-17)
(0.0054268 6.43027 -2.6243e-16)
(-0.35399 7.01327 -2.22404e-16)
(2.63226 1.85974 -1.4889e-17)
(3.5989 5.08715 1.85334e-16)
(-0.312371 -0.0106517 0)
(0.155133 0.0209242 -1.03408e-16)
(0.285951 1.14862 0)
(-0.0366709 6.9857 -2.25017e-16)
(4.21053 3.43272 0)
(0.873595 5.49339 -5.44753e-19)
(1.03438 0.847081 1.53058e-17)
(0.61322 -0.2327 -2.36362e-17)
(6.56855 5.97264 1.11981e-18)
(1.78948 3.08332 1.64633e-17)
(3.64177 3.70067 0)
(-0.568785 -0.25732 0)
(0.0591671 2.11067 0)
(0.878295 6.11422 2.90693e-16)
(0.368175 -0.120135 -2.5544e-16)
(-0.974567 -0.0922949 0)
(-0.205277 7.31766 2.4994e-16)
(2.66363 0.558561 2.81692e-17)
(0.534503 0.0153286 9.37663e-17)
(0.338547 4.27274 1.93608e-16)
(0.689 -0.452784 1.76835e-16)
(-0.141967 7.21991 -2.5009e-16)
(-0.542709 -0.214797 -3.38476e-16)
(0.421517 -0.154684 -2.34389e-17)
(0.0544409 1.97964 -3.25226e-17)
(-0.279959 7.399 0)
(6.53996 1.80953 4.50672e-18)
(0.892735 6.42235 -1.39521e-16)
(0.501224 2.05665 0)
(-0.354854 -0.0203364 0)
(0.075536 1.91082 2.59098e-17)
(3.17492 6.49517 7.1269e-17)
(-0.189347 7.79033 0)
(0.0157217 7.03353 1.2571e-16)
(-0.0385182 6.51659 0)
(1.39553 1.80206 1.55307e-17)
(9.63614 0.787858 5.00913e-17)
(2.99988 5.49119 -1.30275e-16)
(-0.0173689 2.52312 0)
(0.71822 6.5025 1.54282e-16)
(0.0203539 -1.05086 -3.53716e-16)
(0.118995 2.16272 1.76742e-16)
(1.89131 4.15632 -5.71814e-19)
(0.225548 -1.38359 2.73361e-16)
(0.288268 1.75795 -1.52664e-16)
(7.80331 2.44612 1.66204e-18)
(-1.04457 0.685168 -7.00637e-17)
(9.80881 -0.0529625 -7.66625e-21)
(-0.26175 8.04486 -1.87391e-19)
(-0.370085 0.00207709 -4.16826e-16)
(-0.00473126 4.21812 -3.04158e-17)
(0.133535 4.23765 -6.36649e-17)
(0.852642 0.832667 3.66397e-18)
(0.801881 -0.0668425 -4.21824e-17)
(6.93592 6.4563 1.38855e-17)
(-0.03612 7.31034 1.20643e-16)
(11.2599 4.10953 -4.63595e-19)
(-0.188158 7.0766 3.09146e-17)
(0.423641 7.21847 1.0695e-17)
(1.21402 9.09549 -8.44793e-17)
(-1.01808 -0.738303 -1.87612e-16)
(9.32598 0.38083 8.13883e-17)
(0.823167 2.93106 0)
(-0.191101 7.83142 6.47233e-17)
(6.86516 1.37377 -1.02716e-18)
(2.21799 3.75148 -1.68265e-17)
(0.346208 0.716098 -7.20198e-17)
(0.27367 0.756694 0)
(7.03333 2.08628 -2.04998e-18)
(-0.137969 3.15044 3.12091e-16)
(0.865346 6.73337 6.9634e-17)
(0.209927 1.29354 0)
(0.384021 -0.992126 1.51386e-16)
(10.0291 5.65596 -1.12697e-17)
(0.080713 6.94461 3.36582e-17)
(0.57883 4.03808 -4.17935e-16)
(0.020203 6.84727 1.87989e-18)
(0.886304 6.20957 0)
(0.720598 3.13462 -2.21523e-17)
(0.491011 0.16282 1.62269e-16)
(0.443354 4.14711 -1.22263e-16)
(0.399483 4.11788 1.33167e-16)
(0.487602 -0.0798992 2.46091e-16)
(6.82916 2.64331 -3.22123e-18)
(0.16237 2.41368 -7.73148e-20)
(-0.10129 4.31447 2.62596e-19)
(-0.107866 4.53854 -8.69597e-17)
(-0.121639 7.47207 -2.44908e-16)
(0.30461 6.75314 -3.5744e-17)
(2.16608 4.93764 -6.89244e-17)
(-0.192058 7.79946 1.91342e-17)
(5.12073 3.33783 8.54174e-17)
(-0.326206 7.46727 -1.9627e-17)
(0.277381 0.786515 -7.72307e-17)
(-0.0695763 4.45498 -1.14134e-20)
(0.361516 6.93831 6.51722e-17)
(0.0844191 0.539054 9.80935e-17)
(0.583934 0.305211 3.99527e-17)
(-0.0416828 4.44288 1.15244e-17)
(2.6378 4.56804 0)
(0.82297 5.72554 0)
(-0.0173461 4.43264 5.61898e-18)
(-0.0716987 1.70467 1.26006e-16)
(0.0969801 6.85972 -1.24006e-17)
(-0.679516 -0.611211 2.03623e-16)
(1.31136 4.62119 -9.48281e-20)
(0.089961 0.751807 0)
(0.701225 6.56201 -1.31609e-16)
(0.00980845 4.41179 0)
(-0.0840878 5.40157 -6.71827e-17)
(-0.0249444 2.00223 -3.72451e-16)
(0.338159 2.04562 -8.62812e-17)
(1.57865 4.44259 2.90029e-17)
(0.05792 4.3694 1.18884e-17)
(-0.106351 -1.28365 3.59704e-16)
(-0.797436 0.46598 1.79017e-19)
(2.21032 -0.493894 9.79589e-17)
(0.550899 -0.478474 -2.84972e-16)
(10.9292 1.70749 2.0903e-18)
(-0.104587 3.09119 1.18151e-16)
(-0.150819 3.29869 1.8567e-16)
(-0.192004 3.78104 -8.37242e-20)
(-0.18292 3.50029 0)
(-0.234712 4.03292 -1.04746e-16)
(-0.225727 3.83274 -8.20737e-17)
(-0.158186 3.34156 -8.44983e-17)
(-0.220285 4.19254 -1.52571e-16)
(-0.199427 3.46732 2.58537e-16)
(-0.209966 4.12679 6.69274e-17)
(0.379757 -1.84318 0)
(9.33561 0.0775399 4.54295e-19)
(0.169607 -1.45738 -9.89514e-17)
(0.275446 -1.10233 2.90299e-16)
(-0.26248 -0.773068 -4.22343e-16)
(0.218499 -0.521953 1.3457e-18)
(0.288434 0.44254 0)
(0.634718 0.348567 -9.82172e-17)
(2.16841 0.750218 4.50941e-17)
(0.395848 0.329388 6.42114e-17)
(0.49794 0.508205 5.96741e-17)
(0.179149 -0.432638 -2.72608e-16)
(0.376463 -0.0222867 -1.95159e-16)
(-0.195575 -1.24996 0)
(0.374656 -0.0264643 -1.03428e-16)
(0.358224 -0.0182234 3.29208e-16)
(0.386857 0.0172995 9.07763e-17)
(7.0402 0.134792 -2.22486e-18)
(0.291736 -0.714344 0)
(0.999571 -0.418754 2.84648e-16)
(0.25259 0.179833 -1.22739e-16)
(0.282097 -0.413617 2.48639e-16)
(7.09434 -0.119635 -3.00591e-17)
(0.38418 -0.0222556 -3.03578e-16)
(0.731408 -0.23759 -1.82921e-16)
(0.303246 -0.485257 2.85291e-16)
(-0.109332 -1.63389 3.12888e-16)
(7.06619 -0.325122 1.20407e-19)
(0.196122 -0.483467 -2.63074e-16)
(7.24808 -0.443282 -2.58715e-17)
(0.388602 -0.0574288 -7.8287e-16)
(0.39259 -0.0846055 0)
(-0.236936 -1.61227 -1.45799e-18)
(0.643452 -0.244033 0)
(9.02294 -0.220158 3.50227e-17)
(9.73694 0.034569 1.03569e-16)
(0.0744031 -0.391981 1.51836e-16)
(0.214869 -0.320416 -1.3257e-16)
(-0.0186127 -0.0410376 7.37308e-16)
(0.357933 -0.116796 0)
(0.142916 -0.308034 0)
(-0.118062 0.293617 0)
(8.79953 -0.192641 2.39988e-17)
(0.208031 0.0106112 2.44588e-16)
(-0.762352 0.126925 1.76468e-17)
(0.779473 -0.432748 2.38633e-16)
(-0.20197 -0.937913 0)
(-0.459866 -0.277036 0)
(0.992421 -1.07998 2.11422e-17)
(0.0867313 -0.0373295 1.83306e-16)
(8.18695 -0.199105 -6.92818e-17)
(0.320924 -0.127487 2.40093e-16)
(0.8509 -0.967969 1.66552e-16)
(0.223077 0.250033 3.1136e-16)
(1.36956 -0.574214 -2.88099e-16)
(-0.345962 -0.262986 -1.9591e-16)
(0.714291 -0.686735 1.55778e-16)
(8.03039 0.0231441 1.54008e-17)
(0.35421 0.0394034 -2.89315e-16)
(-0.578306 1.58706 -4.31056e-16)
(0.0242306 0.926687 1.40827e-16)
(0.331999 0.662176 -3.8592e-16)
(-0.323119 1.52396 8.07467e-16)
(-0.0349545 0.427902 -1.97513e-16)
(8.25806 0.375975 -3.21159e-17)
(9.70424 0.313794 -8.33328e-17)
(0.00341843 -1.34744 -2.99929e-16)
(0.28807 0.333597 2.22124e-16)
(0.330752 0.323907 1.97778e-16)
(-0.383208 1.12273 0)
(0.344383 0.367846 2.32666e-16)
(0.709555 -1.03945 2.88999e-16)
(-0.0861177 0.588082 0)
(0.589628 -0.75242 0)
(0.0374336 0.419131 2.17384e-16)
(0.28584 0.0550125 -2.35189e-16)
(0.0965092 0.841145 -7.27833e-17)
(0.22737 0.526251 1.30882e-16)
(-0.400937 -1.43712 1.6837e-16)
(9.39713 0.516636 -2.58996e-17)
(0.476357 2.42667 0)
(0.289633 0.698394 -3.49794e-16)
(0.163783 1.96981 -1.70503e-16)
(0.497614 -0.0447317 -9.43684e-17)
(0.234565 0.915601 -9.2771e-17)
(0.360264 -0.0930209 -1.29991e-16)
(8.60993 0.889713 5.37505e-17)
(0.0182987 6.57618 -3.25082e-19)
(0.749541 -1.72624 0)
(0.121739 0.330954 2.63009e-17)
(1.39777 2.1798 1.03735e-16)
(0.24957 1.63175 -2.14965e-16)
(0.160285 1.3907 0)
(-0.312397 -0.484683 0)
(-0.237329 4.63438 0)
(0.490356 -0.212322 4.0445e-16)
(0.232973 1.14103 2.3889e-18)
(0.465396 5.6261 2.51293e-17)
(0.148124 1.01266 5.84716e-17)
(1.49819 -1.09787 2.09086e-16)
(-0.0729124 3.73649 1.21305e-16)
(-0.080165 0.506967 -3.15106e-16)
(-0.186476 7.08803 -4.61055e-17)
(0.267516 1.20523 3.94988e-16)
(-0.0599172 3.43821 3.20978e-16)
(0.271719 0.948597 5.4567e-17)
(0.67574 2.4182 -6.17391e-18)
(0.816834 7.24607 -4.30009e-17)
(-0.0847566 3.99909 0)
(-0.265892 5.06213 0)
(0.768487 4.23199 1.81483e-16)
(-0.0717433 0.442978 3.69092e-16)
(-0.181972 7.75535 0)
(0.210335 4.61217 -2.60399e-16)
(0.137204 -0.25627 -4.27502e-16)
(-0.291853 0.849504 -6.08029e-16)
(0.374806 -0.13607 2.17432e-17)
(-0.0230466 0.982098 -1.36804e-16)
(0.532242 6.42065 3.05755e-18)
(2.76082 7.59391 0)
(-0.254988 4.97506 2.92567e-17)
(9.32187 1.48569 -4.9137e-18)
(4.26644 4.63104 5.34366e-17)
(-0.00585068 2.04026 0)
(5.53253 8.32312 0)
(0.00733416 1.60537 7.52136e-17)
(0.3104 1.71219 0)
(0.580923 -0.150212 -1.40274e-17)
(-0.0453083 1.4668 -8.82839e-17)
(-0.319559 7.29872 1.17665e-16)
(0.0341005 3.73151 -2.59333e-17)
(3.93854 7.35471 -3.01291e-17)
(-0.197063 3.34213 -4.97904e-17)
(0.263003 0.81141 -1.00749e-16)
(0.0292255 1.07088 9.07524e-17)
(0.920401 6.3935 3.76813e-17)
(0.370484 -0.0227605 1.68917e-16)
(-0.152863 4.69783 0)
(-0.136878 2.69903 1.07083e-17)
(-0.0860097 2.82609 -5.16602e-21)
(-0.00675148 3.7409 0)
(2.11327 7.78692 2.05966e-18)
(0.959284 4.6475 1.47335e-16)
(1.38027 5.29496 -9.95782e-17)
(1.73274 5.18551 1.36302e-16)
(-0.0090896 6.58016 -7.05189e-21)
(0.0538253 6.8722 -1.05982e-16)
(0.302121 1.67666 -5.02544e-16)
(0.0188313 1.10047 0)
(0.469694 1.00215 1.12584e-16)
(-0.0884605 2.01987 -2.64562e-17)
(-0.452607 5.63966 2.84083e-17)
(0.357096 2.44989 -5.62549e-20)
(0.521745 2.77863 -1.12384e-16)
(-0.126047 6.13419 -1.66741e-19)
(-0.154485 4.09556 0)
(-0.550584 -1.18632 -1.79732e-16)
(0.659856 4.32542 3.37496e-16)
(3.35743 2.79223 0)
(8.79007 0.257262 2.15343e-18)
(1.18477 8.61909 2.69671e-17)
(0.119647 1.47407 6.86666e-18)
(0.0716976 5.0804 3.498e-17)
(0.245998 1.36699 0)
(1.65186 6.77098 9.49615e-17)
(1.10767 6.56154 -1.78082e-16)
(2.65771 12.4957 4.82667e-18)
(2.33208 5.83587 4.97736e-17)
(0.288932 0.0612662 -5.84119e-17)
(0.530058 -0.736705 -2.68739e-16)
(0.357434 -0.0536634 8.63682e-17)
(0.00522981 1.61302 -8.83939e-17)
(0.338257 3.89429 2.19989e-16)
(-0.15208 2.65524 -1.39649e-17)
(-0.066598 6.34228 -5.30841e-17)
(-0.247672 7.35354 1.2411e-16)
(10.9727 0.0998469 -1.02426e-17)
(0.457269 -0.185864 -5.40355e-17)
(0.167077 1.06969 -1.10608e-16)
(0.637934 5.21119 -1.96775e-17)
(2.12013 1.61653 -1.08499e-17)
(1.43099 2.59421 -2.04965e-16)
(0.0555975 1.04054 -9.01886e-17)
(0.33478 4.53549 1.27042e-16)
(-0.0122871 1.99795 8.01085e-17)
(0.865895 6.9283 -6.52937e-17)
(-0.199493 4.70402 -1.44316e-16)
(0.0739606 0.582633 0)
(2.35532 6.80852 -4.94184e-17)
(0.491535 1.25357 0)
(-0.0107503 2.20945 9.43477e-17)
(0.254588 2.02761 0)
(0.161171 -0.00666611 5.1963e-16)
(-0.192888 3.21957 -1.49979e-16)
(0.0646871 3.71315 3.13353e-17)
(1.34449 5.99193 7.59779e-17)
(4.89739 -0.0800107 -5.96778e-17)
(0.64457 0.480514 1.3595e-16)
(0.00930266 5.34592 -1.40387e-16)
(0.95406 1.84631 6.31398e-17)
(-0.208155 7.58992 -1.21291e-16)
(4.82006 4.06206 -1.68079e-16)
(0.401405 -0.0113834 7.47992e-17)
(0.124903 4.94927 0)
(-0.264532 5.68594 -2.6706e-17)
(-0.00231041 1.79051 6.43002e-17)
(1.17346 6.60502 -1.84889e-17)
(0.928998 6.0116 1.05496e-16)
(0.0526029 -0.526438 1.52654e-16)
(1.58413 3.50943 1.53952e-17)
(-0.00519324 1.39092 1.15174e-16)
(-0.327192 6.4264 -4.592e-18)
(-0.025994 4.67119 1.19815e-16)
(1.77161 5.99565 -8.82467e-17)
(0.420324 -0.788322 6.42435e-17)
(1.01669 6.34145 -6.26264e-17)
(0.0503798 6.59524 -1.3436e-16)
(1.27662 7.36253 -4.39057e-17)
(0.369225 0.421342 0)
(9.30409 0.620059 -1.28012e-16)
(7.63255 2.43642 8.54057e-18)
(-0.150879 4.80488 9.36257e-17)
(0.111668 1.58728 4.82991e-16)
(0.00513545 2.5734 2.70798e-17)
(-0.0501861 1.06616 0)
(1.80694 0.0237342 -1.63032e-16)
(-0.893632 0.935259 6.19385e-17)
(0.413524 0.0834301 -2.89592e-16)
(0.313221 2.54209 7.40711e-20)
(-0.151279 -0.717391 -1.61489e-17)
(0.119739 4.32488 4.25386e-17)
(1.95317 1.10393 -6.74852e-18)
(9.46272 0.486776 0)
(-0.210619 4.1136 0)
(0.0700723 1.27444 -5.64872e-17)
(0.215033 -0.720485 2.26308e-16)
(10.0619 0.550044 0)
(-0.0714586 -0.127852 5.30327e-19)
(1.01241 6.41391 -2.47445e-16)
(0.853705 1.14396 0)
(1.09712 1.52489 0)
(0.282393 1.57094 -1.12528e-16)
(1.36364 3.80191 1.69351e-17)
(8.85968 0.427851 0)
(0.283238 -0.224944 2.09393e-16)
(2.24573 -0.328014 -1.18197e-16)
(-0.104076 2.07657 0)
(0.139718 5.42741 0)
(-0.141467 -1.55536 1.67138e-16)
(0.725206 0.259977 -7.81533e-18)
(0.04213 1.74579 1.30365e-16)
(-0.0781841 2.75074 -2.45192e-16)
(-0.0559341 7.13493 4.43973e-17)
(0.392616 0.208585 0)
(-0.048112 0.0909068 0)
(-0.29421 4.43013 -1.10683e-16)
(3.47194 0.457414 -2.55244e-18)
(1.0546 3.05484 -1.92313e-16)
(-0.14634 0.023302 2.10786e-17)
(3.99102 6.21319 -3.04776e-18)
(2.17062 0.389014 0)
(1.13594 5.29251 0)
(-0.0348074 3.72425 -5.69263e-18)
(0.133682 0.153281 0)
(-0.137571 5.49301 0)
(10.9289 0.627693 -1.35601e-18)
(0.0281375 4.69113 -2.39882e-16)
(2.78781 0.423656 0)
(0.944632 2.72527 -3.01743e-18)
(0.0987567 6.46883 2.15281e-17)
(-0.154242 6.29999 6.16817e-17)
(0.217201 1.39498 -1.79659e-16)
(0.598526 6.81889 -3.24473e-18)
(-0.145519 6.76663 2.72082e-17)
(0.379996 -0.230037 5.24644e-20)
(-0.147959 6.83657 -2.56236e-16)
(-0.06721 1.55834 -2.64817e-19)
(-0.193534 2.93848 1.8869e-16)
(0.435792 0.380042 -2.86666e-16)
(-0.0700315 6.96964 1.26497e-16)
(-0.312215 6.87177 0)
(-0.00121279 6.95337 1.68254e-18)
(9.93374 0.174414 -7.34183e-18)
(-0.0323613 3.0853 0)
(-0.454287 0.0889276 5.56822e-16)
(1.65416 0.661583 1.50081e-17)
(-0.00477359 3.33908 0)
(-0.0118436 1.54352 3.28214e-16)
(1.65373 7.82734 0)
(1.84122 8.73209 2.67566e-17)
(0.305821 -0.343153 0)
(3.58826 1.50195 1.38344e-17)
(0.189454 1.20389 -2.62494e-16)
(0.489498 0.283207 -1.15355e-16)
(0.538888 0.8041 -2.16292e-17)
(-0.210359 2.25185 2.0737e-16)
(-0.0328086 7.14043 -4.13392e-17)
(4.18737 0.491962 8.99648e-18)
(8.40761 0.366771 0)
(0.393284 -0.175131 -2.52684e-17)
(0.0128087 5.53349 0)
(-0.027935 6.63906 0)
(0.649096 0.683723 -1.2383e-16)
(1.25355 5.14472 0)
(-0.0558152 2.4569 0)
(0.864373 6.24032 -2.90102e-17)
(1.53014 -0.117739 0)
(0.105205 -1.34251 1.72346e-16)
(0.0710447 6.37216 4.90413e-17)
(0.357632 -0.0244497 2.6493e-16)
(0.068032 1.07641 1.28934e-16)
(0.722667 1.56339 1.4217e-17)
(0.876375 0.560497 -5.49849e-17)
(0.385799 -0.0350412 -4.60966e-16)
(12.4621 2.80871 0)
(0.175932 6.39288 0)
(-0.234831 7.58122 -1.23829e-16)
(0.347139 0.712888 -4.29693e-19)
(0.258667 6.91963 9.95864e-18)
(0.149193 0.934161 2.20088e-17)
(9.43258 2.3142 2.97919e-18)
(1.58413 1.23666 4.95615e-17)
(-0.273406 2.01697 -7.51763e-17)
(0.35524 -0.0220405 4.5528e-16)
(-0.440087 -0.0223544 -3.06146e-16)
(0.0551458 5.96278 0)
(0.346524 -0.0505676 5.08072e-16)
(0.316169 -0.0168053 -2.75908e-16)
(0.0176397 5.12786 -2.27621e-17)
(0.557521 1.05471 -1.49685e-17)
(-0.0304533 1.22411 -3.70096e-16)
(-0.0316693 6.04317 -5.18404e-18)
(0.262881 6.67757 1.43654e-16)
(-0.143541 7.20633 6.72192e-17)
(-0.210886 7.47254 0)
(0.465259 2.81783 7.22393e-17)
(-0.0694968 -0.0464727 8.32419e-17)
(0.0644182 1.6125 0)
(-0.127977 5.80666 -1.15594e-16)
(0.289979 1.96582 -5.39326e-16)
(1.11653 4.71033 0)
(-0.264254 -0.222425 -1.71969e-16)
(-0.00726395 3.13006 0)
(0.00333793 -0.403605 -6.18782e-20)
(1.13168 0.30833 -3.62943e-18)
(9.16693 2.34565 1.63503e-18)
(1.2546 6.2675 0)
(0.544317 3.43246 1.39857e-16)
(0.0344922 6.72054 -9.05379e-17)
(0.657774 3.3849 0)
(0.477701 -0.579469 -1.2383e-16)
(-0.374841 1.13098 -1.37443e-16)
(0.00825379 6.04631 -8.99536e-17)
(-0.125928 5.28204 8.42412e-17)
(0.0455122 5.85814 2.01377e-16)
(-0.143967 -0.0308115 -4.43456e-17)
(0.264298 -0.150917 0)
(0.0994998 6.26843 0)
(0.217878 -0.0682004 4.11116e-17)
(-0.0343444 2.56698 1.25021e-16)
(0.00818841 6.66042 -3.17623e-17)
(0.404453 -0.0681929 1.2579e-16)
(0.173676 0.57257 -2.4048e-16)
(-0.0620562 2.648 0)
(-0.0971166 2.654 8.28384e-17)
(10.0378 8.10928 -1.28449e-18)
(0.075472 5.7985 2.72563e-17)
(0.132153 6.89985 -1.08369e-17)
(0.0283037 1.60915 -8.00088e-17)
(1.04665 6.66711 1.40661e-16)
(4.71352 2.37772 2.3337e-18)
(0.20668 -0.0753106 -1.8561e-16)
(0.883518 2.05409 0)
(10.0058 0.70892 2.31009e-18)
(-0.344597 6.66439 4.44513e-17)
(6.9303 0.43746 1.1152e-18)
(-0.0566811 1.9483 -1.01272e-16)
(-0.315611 -1.56752 -1.49946e-16)
(-0.302201 4.83723 -2.04671e-16)
(0.0223757 6.8449 7.09115e-19)
(0.965434 0.144517 4.04791e-16)
(0.972882 5.57774 -1.17177e-16)
(0.125426 2.9987 -2.73995e-16)
(-0.183677 3.90137 1.06501e-19)
(1.62164 0.353464 1.36322e-17)
(0.0377648 5.52538 -4.82716e-17)
(-0.311051 7.38579 2.27944e-17)
(0.184649 7.04343 -1.97762e-18)
(-1.08044 -1.04204 0)
(0.403064 -0.10024 0)
(-0.256548 4.48151 -5.66719e-17)
(4.96574 0.519113 1.98261e-18)
(7.99977 0.249888 -1.46513e-17)
(0.0323314 6.61541 1.27098e-16)
(1.1432 3.23795 -2.23662e-17)
(2.63428 -0.123456 6.4347e-17)
(3.7114 0.27095 9.00004e-18)
(-0.267733 4.4811 4.16933e-17)
(-0.0560199 3.67912 -8.99439e-17)
(0.306443 1.40017 3.64318e-16)
(-0.0398309 2.98353 -8.44447e-17)
(0.43773 0.104482 0)
(0.284702 -0.192823 -1.24322e-16)
(0.0524901 4.10037 -9.59225e-17)
(0.240649 3.96908 0)
(7.96197 1.5146 -7.65993e-18)
(-0.184086 -0.14382 1.00651e-16)
(4.89829 0.309695 0)
(0.134106 1.64616 0)
(6.06202 3.78318 -2.26067e-17)
(-0.160998 7.07531 1.40631e-17)
(0.270822 7.08276 -5.54343e-18)
(0.0534779 1.58019 0)
(0.415296 1.44246 6.36524e-17)
(2.5462 -0.0595024 6.24923e-16)
(0.382729 -0.187063 -6.69031e-16)
(0.454252 0.178998 -5.07476e-17)
(1.78987 2.19885 6.66688e-17)
(1.72176 -0.720431 2.15043e-16)
(0.0106454 -0.296861 0)
(0.355391 1.59837 -6.16202e-17)
(1.16596 4.01556 -1.3908e-18)
(1.35508 4.57706 6.86613e-17)
(0.587111 2.59868 -2.31291e-17)
(-0.0996982 2.48979 0)
(-0.00296862 6.06732 6.77683e-17)
(-0.130436 2.4108 7.00326e-17)
(0.169356 -0.125737 0)
(9.7532 0.489568 1.16092e-16)
(0.05395 5.86391 0)
(-0.197347 3.74544 0)
(3.88034 5.60899 -2.56876e-18)
(-0.173755 6.0413 1.40207e-16)
(0.114851 4.91932 1.29512e-16)
(2.61574 -0.0633423 -2.072e-16)
(0.764475 -1.24001 2.09709e-16)
(0.244508 -0.0209868 2.9731e-16)
(-0.18836 5.79833 0)
(0.0541641 6.53975 -2.61876e-20)
(-0.00572691 5.28669 -1.54527e-16)
(6.73472 -0.576968 -6.50672e-17)
(0.148401 -0.114791 7.14022e-17)
(-0.144092 7.06659 2.37701e-16)
(-0.429135 0.372965 -1.14807e-16)
(2.64346 2.95914 1.35042e-17)
(5.54179 -0.5839 3.95386e-17)
(2.82417 0.03126 -5.95258e-17)
(0.129177 8.96563 8.37633e-17)
(0.0824362 5.33068 3.14319e-19)
(0.0835135 5.23248 8.45678e-17)
(0.0359676 5.00587 7.78584e-19)
(0.0654164 5.11679 0)
(0.1206 9.70099 -7.42384e-17)
(0.0697904 5.34745 -1.61145e-16)
(-0.00928739 5.18613 -7.75973e-19)
(-0.0265238 5.41164 -2.05783e-17)
(-0.0398843 5.20803 0)
(0.0386816 5.29859 4.40838e-17)
(0.147138 8.43246 0)
(0.242936 10.4573 0)
(0.0542041 5.49791 -5.85023e-17)
(0.279028 7.38562 -4.07665e-18)
(0.21406 7.93757 -3.83063e-18)
(0.0524034 5.60326 1.86908e-17)
(0.0406421 5.26162 8.4075e-17)
(0.0163839 5.20385 0)
(0.0250135 5.60222 -2.59207e-17)
(0.0153671 5.17953 0)
(0.0246554 5.22273 0)
(-0.0114792 5.54445 1.93248e-17)
(0.0364098 5.28435 0)
(-0.115572 2.14559 7.74214e-17)
(5.14352 5.60098 -4.77163e-17)
(0.274031 -0.422429 2.84798e-16)
(0.302357 0.384562 0)
(1.17105 6.16714 -9.72868e-17)
(-1.28157 -0.175055 9.82312e-17)
(-0.441937 0.554869 5.33174e-16)
(6.90059 1.2762 -1.61265e-17)
(-0.167524 7.06753 -1.74815e-17)
(0.592381 7.47945 0)
(-1.01073 0.105268 4.88231e-16)
(2.27032 -0.0451758 2.49541e-16)
(0.221264 0.608785 0)
(4.82995 -0.269683 3.07698e-17)
(0.327471 -0.77413 -2.58896e-16)
(0.107352 0.154752 -1.9436e-16)
(5.89858 4.67464 7.98044e-17)
(1.3813 4.02417 -4.63219e-17)
(-0.156385 2.62738 7.24055e-17)
(0.807405 0.776633 -5.12036e-17)
(0.299783 -0.064532 -1.27062e-16)
(6.84611 0.839082 -2.76381e-19)
(-2.00549 0.452133 -2.60823e-16)
(0.0378495 5.36724 0)
(0.634991 5.98005 2.56071e-16)
(0.874481 3.66287 1.02619e-19)
(0.263877 0.152883 7.20515e-17)
(0.298924 0.507422 0)
(10.0225 -0.117742 2.78839e-17)
(0.0245828 2.19001 -1.34649e-16)
(1.5913 -0.0110513 3.8148e-18)
(-0.0756828 2.00763 1.13139e-16)
(-0.192712 7.66763 0)
(0.0181183 2.06969 7.52556e-18)
(-0.0225372 2.42063 -5.43565e-17)
(8.49609 3.58454 2.01554e-17)
(0.311485 -0.436748 3.17182e-16)
(0.369908 -0.0731186 -3.21288e-16)
(-0.648176 -1.02487 1.95488e-16)
(0.0911693 -0.00610864 -8.35701e-17)
(0.0295748 3.16977 2.73532e-17)
(-0.0669421 5.64024 5.67234e-21)
(0.155876 5.91195 -1.7783e-17)
(0.197997 0.660895 0)
(0.467747 3.23235 1.32985e-19)
(0.0938509 0.476464 5.77419e-17)
(1.56021 0.185892 1.14631e-16)
(1.02965 -1.16026 0)
(-0.0366481 0.493268 -3.57047e-16)
(0.0720737 1.01664 0)
(9.94242 0.499378 2.12312e-18)
(-0.086495 3.43047 0)
(0.445257 3.63147 -4.94523e-17)
(-0.0437299 2.53587 1.29384e-16)
(-0.3857 -1.55029 2.61542e-16)
(1.55112 -0.254982 0)
(0.390659 -0.158849 -4.22679e-17)