/*--------------------------------*- C++ -*----------------------------------*\
| =========                 |                                                 |
| \\      /  F ield         | OpenFOAM: The Open Source CFD Toolbox           |
|  \\    /   O peration     | Version:  v1912                                 |
|   \\  /    A nd           | Website:  www.openfoam.com                      |
|    \\/     M anipulation  |                                                 |
\*---------------------------------------------------------------------------*/
FoamFile
{
    version     2.0;
    format      ascii;
    class       surfaceScalarField;
    location    "0.65";
    object      phi;
}
// * * * * * * * * * * * * * * * * * * * * * * * * * * * * * * * * * * * * * //

dimensions      [0 3 -1 0 0 0 0];
oriented        oriented;


internalField   nonuniform List<scalar> 
2708
(
-0.0004026
-1.90024e-05
0.000195802
0.0002258
0.000188806
0.000194177
-0.000143368
-0.000239615
-5.07183e-05
3.5036e-05
-2.95936e-05
4.52759e-05
-0.000204531
0.000212826
-5.10986e-05
4.28035e-05
-0.000574939
-0.000174898
0.000404903
0.000344935
0.000806238
-0.000949167
0.000420971
-0.000278043
0.000120489
-0.000115602
6.63486e-05
-7.12357e-05
-9.62702e-05
9.90335e-05
-2.61192e-05
2.33559e-05
-0.000571949
0.00059344
0.00068107
-0.000702561
5.53595e-05
0.000173638
-0.000108509
0.000965572
-0.000999425
0.000279229
-0.000245375
0.000245756
-0.000342893
0.000695755
-0.000598618
-0.000152524
0.00022226
-0.000221374
0.000151639
-0.000110209
-0.000404964
0.000361406
0.000153767
0.00053636
-0.000639836
-0.000208118
0.000311595
0.000158475
4.51699e-05
-0.000148286
-0.000851663
0.000677516
-0.000209319
0.000383466
2.62216e-05
-0.000175966
0.000151581
-1.83714e-06
0.000389579
0.000150561
-0.000502722
-3.74178e-05
-0.000187953
-4.50782e-06
0.000223641
-3.11801e-05
-0.000382998
0.000818605
0.000529965
7.95054e-05
-3.07532e-05
-0.000158961
-0.000676605
-0.000334038
0.000551923
0.000458721
-0.000270786
-0.00126646
0.00130385
0.000233393
-0.00072757
-0.000520985
-6.93555e-05
4.43469e-06
0.000141823
-7.69022e-05
-0.000974819
-0.000156768
0.000132161
-0.000296951
0.000268926
0.00030481
-0.000276785
5.51374e-05
-0.000432688
0.00037755
-1.91088e-05
-0.000571595
0.000590703
0.000660835
5.683e-05
-6.23577e-05
-0.000655308
-0.000543966
4.3817e-05
-1.8125e-05
0.000518274
0.000639173
4.67466e-05
-2.84888e-05
-0.000657431
-0.000228893
0.000170432
6.55126e-05
-7.05109e-06
0.000693431
0.00027739
-0.000729648
-0.000241172
-9.167e-05
0.000175857
-0.000119397
3.521e-05
0.000207121
0.000815391
-0.000113045
-6.28626e-05
4.82037e-05
5.00435e-05
-3.53846e-05
-8.22197e-05
8.87911e-05
6.50505e-05
-7.1622e-05
7.62658e-05
0.000487927
-0.000551372
-1.28205e-05
-0.000498505
0.000431343
0.000886145
0.00103134
-0.000124788
-9.70914e-05
-8.65807e-05
-3.95737e-05
5.59143e-05
7.02401e-05
-0.000514834
0.000720994
-0.000583627
0.000377466
0.000310347
-0.000196969
-0.000226269
0.000112891
0.000188722
-0.000137873
-7.558e-05
2.47303e-05
-0.000924599
0.000106661
-0.000156881
5.64162e-05
-6.28873e-05
-0.000109131
5.25377e-05
7.95341e-05
-7.0225e-05
-6.18469e-05
-1.45456e-05
-0.000322946
0.00037346
-3.59685e-05
8.85906e-05
-8.57607e-05
-7.97962e-05
7.69663e-05
0.000412575
-0.000249267
-0.000196462
3.31543e-05
3.21259e-06
0.000229724
-0.000142664
-9.02723e-05
0.000111207
0.000121782
-0.000150969
-8.20198e-05
-3.71245e-05
0.000132385
-3.56129e-05
-5.96476e-05
0.000117229
-0.000184258
-6.08218e-05
0.000127851
-0.000325078
-0.000359662
0.000432594
0.000252146
0.000864129
-0.000204781
-0.000659349
0.000349885
-2.56025e-05
-0.000324283
0.000239408
0.000125034
-2.96655e-05
-9.53689e-05
2.13542e-05
-1.67674e-05
-4.58681e-06
-3.43143e-05
-2.85483e-05
-4.66369e-05
-3.55827e-05
5.06687e-05
2.16943e-05
0.00041509
-7.10478e-05
0.000128025
-6.08104e-06
3.94796e-05
7.65424e-05
-0.000116022
-0.000190982
0.000256324
-6.53428e-05
-0.000117354
0.000254507
-0.000137153
-0.000251146
2.22528e-05
0.000152713
-4.47312e-05
2.51168e-05
0.000145315
-0.000316637
-8.83271e-05
0.000406182
-9.58349e-05
0.000123537
8.88631e-05
-0.0002124
8.47328e-05
-1.00057e-05
-7.47271e-05
0.000146679
2.69589e-05
-8.55714e-05
0.000111793
-0.000719317
-0.000132346
-4.97277e-05
-3.06072e-05
8.03349e-05
-0.000174602
8.76329e-05
0.000481978
-0.00039501
-0.000256173
0.000217456
0.00022744
-7.4672e-05
5.36072e-05
0.00124805
-0.00122698
8.67823e-06
0.000148888
-8.50257e-06
-0.000149063
-9.50142e-05
6.73256e-06
-8.1404e-06
9.6422e-05
0.000223163
-0.000252432
1.38116e-05
1.5457e-05
2.28372e-05
2.90524e-05
-0.00104932
0.000997432
-0.000136763
5.38553e-05
-0.000749504
0.000832412
8.65483e-06
0.000201839
-9.32651e-05
0.000241343
-0.00026561
3.29219e-05
-1.00421e-06
-1.69715e-05
6.61795e-05
-2.23191e-05
6.9825e-05
-0.000154053
0.000106547
8.0166e-05
-3.94522e-05
7.04932e-05
3.94138e-05
-0.000507864
0.00046845
-0.000196676
-0.000302387
-0.00037375
0.000442931
0.000233206
-9.06234e-05
-6.61479e-05
7.01906e-05
-9.3358e-05
9.57036e-05
-2.34563e-06
0.000281555
-0.000163599
-0.00015508
9.32072e-05
-5.87961e-05
-0.000540324
2.99588e-05
-5.64735e-05
0.000566839
-0.000189165
-7.52009e-05
0.000116037
0.00014833
6.35753e-05
4.92148e-05
-2.80574e-05
-0.000580885
-1.02859e-05
0.0005897
1.47005e-06
5.76054e-06
0.00057456
-0.000558388
-2.19332e-05
-0.000121763
0.000695258
-0.000746428
0.000172933
0.000522688
-0.000299096
-0.00055763
0.000689358
-0.000365553
0.000160772
-5.25204e-08
-0.000330273
0.000177409
0.000375124
8.21823e-05
-4.85805e-06
6.98434e-06
-8.43086e-05
-0.00061955
0.000567671
0.000483223
0.000134506
0.000176082
-0.000168758
0.00011026
-5.18181e-05
0.00022076
-0.000212081
-1.29601e-05
-5.19575e-05
-0.000139024
-0.000125959
-0.000513877
6.85238e-06
-3.63978e-06
-6.03124e-05
-4.10308e-05
0.000295538
0.000145825
8.54465e-07
7.28186e-05
-0.000153453
-0.000235226
0.00018056
0.000133543
-0.000154571
5.60635e-05
-8.11791e-06
-3.90444e-05
-3.72698e-07
4.7535e-05
0.000246014
0.000431503
1.70481e-05
-0.000193014
3.75158e-05
-3.63193e-05
-9.3144e-06
8.97155e-05
-0.000394085
0.000693948
-0.000125125
0.000224194
-0.000287022
3.06673e-05
4.41843e-05
-4.90312e-06
-3.65799e-05
3.97793e-05
-8.08884e-05
7.76889e-05
0.000135359
-3.39003e-05
-0.000131124
0.0012133
0.000131694
-0.00117403
-0.000170961
4.90393e-05
3.22919e-05
5.64992e-05
0.000634056
3.02953e-05
7.74681e-05
-0.000741819
-0.000146869
0.000332455
0.000366336
0.000110471
0.000568116
-3.61457e-05
-0.000213959
0.000276145
0.000219369
0.000163115
0.000189681
-8.72883e-06
-0.000157489
-7.84775e-05
0.000540752
2.25143e-05
-0.000484789
-2.34025e-05
0.000244162
-0.00049865
-5.0761e-06
-6.3508e-05
0.000567235
-0.000129074
0.000104819
7.28317e-06
-0.00123157
-0.000115546
0.00118458
0.000162537
0.000503297
0.00031492
-0.000277127
-0.00054109
-0.000171706
8.96659e-05
-0.000586712
0.000668752
1.94372e-05
-1.61665e-05
-6.72404e-07
-2.59829e-06
0.00107854
-0.000925095
0.000238717
-0.000392162
-0.00027585
-0.00017758
0.000232056
-5.37667e-05
2.86499e-05
7.32944e-05
-4.81776e-05
7.68129e-06
6.0449e-05
-5.89663e-05
-9.16405e-06
-6.41885e-05
7.10409e-05
-0.000652671
0.00032873
-7.86582e-05
0.000128505
8.61669e-05
8.92987e-05
-6.53093e-05
0.000359815
-0.000328993
-0.000199362
0.000168541
-0.0001584
-0.000948001
7.35725e-05
0.00103283
-0.000235304
-0.000338981
0.000360326
1.39935e-05
0.000600164
-1.26618e-05
-0.000601496
0.000258451
-0.0015213
5.03886e-05
0.00121246
0.000303001
-0.000341698
0.000232873
0.000316815
-0.00128993
-1.90661e-05
4.41627e-05
1.24192e-05
0.000943725
-0.00065232
2.61861e-05
0.000391529
-5.14086e-06
0.000539994
-7.52672e-05
-0.000412944
-5.1783e-05
-5.784e-05
7.04364e-05
8.32047e-05
0.000228566
-0.000267725
0.000133529
-9.43704e-05
0.00114216
-0.00111617
-0.000296768
0.00051586
-0.000106147
0.000534013
-0.000437739
0.0004435
-0.00032852
0.000206757
0.000249392
0.000556906
-0.000755366
0.00030729
-8.13054e-05
0.00052938
-2.46298e-05
-5.85553e-05
-0.00112842
0.0012116
0.000625513
-0.000675201
0.000160159
0.00061662
-0.00052762
4.8719e-06
-9.38721e-05
0.000529411
-0.000741574
0.000288428
0.000621677
-6.41647e-05
0.000137745
7.44382e-07
0.00015745
0.000833344
-0.000675873
-0.000288744
-0.000364464
0.000350822
0.000671976
-0.000631864
-0.000144417
0.000104304
8.77347e-05
-4.50785e-05
3.38861e-05
-0.000172131
9.59174e-05
0.000237474
-0.000161261
0.000206519
-0.000225903
0.000144081
-0.000124697
4.90491e-05
-5.96933e-05
-4.31224e-05
-0.000653083
-0.000410769
0.000800723
0.000263129
-1.42944e-06
-8.89466e-05
9.22214e-05
-1.84541e-06
-4.02821e-05
0.000246211
-0.000285131
7.92019e-05
7.21618e-06
0.000667052
-0.000664225
-1.0043e-05
0.000165004
-0.000582163
0.000580414
-0.000163254
-0.000112278
-1.03695e-05
8.96042e-05
3.30438e-05
0.00108509
-0.00111675
-4.23622e-05
7.40196e-05
-0.000172064
-1.90691e-05
0.000215144
-2.13631e-06
-0.000213008
-7.69073e-06
-2.96756e-05
6.60162e-05
0.000590919
4.35762e-05
-5.99348e-05
-0.000511365
-6.14959e-05
-8.02326e-06
-8.7472e-05
-0.00117793
0.00119073
-8.05491e-05
-4.18667e-05
2.90578e-05
0.000596649
-0.000182141
-0.000492985
3.10219e-06
0.000680811
-1.19368e-05
0.000295593
-0.000106493
0.000115384
-0.000304484
0.000234209
-0.00060213
-0.000285161
0.000425708
0.000288789
-0.000578569
-0.000135927
-9.25013e-05
0.000196922
0.000124146
0.000303265
-0.000307919
0.000486414
-0.00048176
2.09524e-05
-6.22065e-05
-2.03256e-05
6.15797e-05
-0.000583986
0.000511043
-0.0010636
0.00108256
-0.000106436
-0.000607628
0.000742386
-0.000545527
-0.000200628
0.000186693
-0.000385251
3.26483e-05
0.000641392
-0.00051209
6.21641e-05
0.000684134
-5.57275e-05
-9.85009e-05
0.000200133
-4.59049e-05
-1.84074e-05
1.56794e-05
0.000663563
-3.11972e-07
-0.000586069
0.000593597
0.000337149
-0.000111574
0.000303836
-9.6293e-06
-0.000565163
3.0826e-05
-0.000755809
-0.0002513
0.000846046
0.000161063
0.000591885
0.000123689
-0.000124656
7.63167e-06
-0.00034595
-0.000173047
-0.000132094
0.000413718
0.000343888
-0.00010047
8.25705e-05
0.000204062
-0.000186162
1.60284e-06
1.22515e-05
-3.29205e-05
-0.000176031
0.000363434
0.000179185
-0.000366588
9.21433e-05
-7.06464e-05
-0.000345697
0.000514617
-0.000161289
-0.000124752
-0.000124116
-0.000126902
9.01233e-05
0.000160895
-0.000384357
0.000209116
-0.00028307
0.000874677
0.0003023
-0.000505621
-0.000375248
-7.51598e-05
-0.000134902
2.89453e-05
-4.74962e-05
-0.000380463
0.0012649
-0.000861602
2.20567e-05
5.06185e-06
-3.98014e-05
-4.95139e-05
6.45342e-05
3.85981e-05
-0.00114712
1.35699e-05
0.000899893
0.00023366
2.43369e-05
1.09177e-05
-1.31979e-05
-0.000172759
0.00110304
0.000152278
-0.000590002
0.000760158
-0.00047628
0.000306124
2.00785e-05
0.000253631
0.000152077
-8.48004e-05
-0.000320908
0.000105133
-0.000413131
-0.000112933
0.000140802
-7.93952e-06
5.06728e-05
5.57596e-05
-0.000337446
-0.00062817
-0.000581588
0.000351868
-0.00046699
-0.000506358
0.00062148
-4.63138e-05
0.000159094
0.000508897
0.000112958
-0.000828441
-4.89365e-05
-0.000135322
0.000242496
0.000133323
0.000564629
0.000176262
-0.000149006
-0.000120171
-0.000174166
-9.50186e-05
0.000115453
-0.000120905
0.00127047
-0.000350327
-3.3454e-05
0.000552312
0.0015573
-0.00021723
-6.95996e-05
-0.000689354
-0.000104366
-9.23856e-06
0.000802959
-0.000353911
0.000353599
-0.000487076
0.000610765
-0.000347825
0.000400362
-0.000287841
-0.000252054
0.00031533
-0.000566806
0.000503531
-2.27083e-06
0.000438293
0.000277479
-0.000152726
-1.14955e-05
-0.000113258
4.70926e-05
-9.23906e-05
-1.66805e-05
6.19785e-05
-0.000283681
0.000541111
-0.000432032
-0.000970299
0.000106435
-0.000283259
-0.000430752
6.64321e-05
-8.32548e-05
0.00120478
-0.00118796
0.000155126
-0.000109023
-0.000285718
-2.45438e-05
-0.000545028
0.000488177
-0.000619415
0.000676266
-3.11455e-05
-0.000458227
-2.09273e-05
-0.000291553
8.66899e-06
0.000303811
2.30041e-05
-0.000820255
2.89182e-05
-0.000550097
0.000287112
-0.000615632
5.24203e-05
-0.00049016
-1.1904e-05
-0.000138376
6.97305e-05
-0.000353448
-4.62926e-07
0.000225922
0.000293513
-0.00024329
-7.92499e-05
8.03016e-05
-1.0517e-06
0.000121661
-9.43771e-05
-0.000147454
-0.000202574
0.000266413
1.61338e-05
-7.99729e-05
-0.000227284
-0.000518678
0.000130592
0.000615369
2.69641e-05
1.83252e-05
-0.000463699
-0.00059901
0.00040854
0.000341907
0.000896558
-0.000252741
0.00017314
-0.000746331
0.000815623
8.81579e-05
-2.19392e-05
0.000167764
1.74381e-06
-0.000142592
9.62783e-05
0.000686679
-0.000649164
0.000555925
-0.00059624
0.000200631
-0.00035784
-0.00051189
0.000237866
8.67334e-05
8.14392e-05
-0.000147767
0.000118621
-5.22931e-05
-0.000656943
0.000573329
0.00076538
-0.000681765
0.000260922
-0.000316469
-0.000408153
0.00013642
0.000100683
-5.23421e-05
2.78553e-05
-6.12047e-06
0.000273589
-4.09142e-05
-0.000253602
-0.000551415
0.000282202
0.000452362
-0.000183149
-4.93558e-05
1.97622e-05
4.33616e-05
0.000714885
-0.00061052
-0.000672727
0.000568363
0.000275598
-0.000296427
5.42913e-05
-3.34626e-05
-5.02319e-05
-5.60154e-05
6.64459e-05
0.000363734
-0.00042523
5.75188e-05
-0.000130237
-4.33034e-05
0.000714572
-0.000590573
-0.000669027
-2.0855e-05
2.6042e-05
4.8276e-05
-5.34631e-05
1.08627e-05
-1.71994e-05
-0.00019551
-4.73462e-05
-0.000680311
0.000510167
0.000596161
-0.000426017
-0.000271285
-0.00065623
-0.000669396
0.000424757
-0.000306776
-1.56746e-05
-3.32775e-05
-0.000182486
2.02531e-05
-0.000168057
0.000300303
-0.000759995
0.000627749
-0.000257752
0.00098243
-0.000157007
-0.000541958
0.000450811
0.000777826
-0.00077262
0.000503903
0.000682435
-0.000115216
-0.000167973
0.000774791
-0.000534322
0.00131683
-0.000198642
-0.000715746
-3.49605e-05
0.000280572
1.69169e-05
-0.000262529
6.39495e-05
-2.87439e-05
0.000808876
-0.000844081
-0.000117068
0.000260367
4.94405e-05
-0.00019274
0.000358946
-4.55091e-05
-3.98477e-05
0.000523127
0.000228208
-0.000512936
-0.000238399
-0.000308227
0.000326517
-0.000135357
0.000235986
-0.000192183
-0.000105769
6.1966e-05
0.000385108
-4.0269e-05
0.000914748
-0.00125959
0.000102854
-0.000158581
0.000118533
-0.00138421
0.00124105
3.97514e-06
9.43594e-06
6.60944e-05
-6.02618e-05
-0.000126506
9.38796e-05
-0.000729252
0.00111708
0.000173542
-0.000561374
-0.000595129
0.000582131
-0.000577985
0.000443835
0.000119831
-0.000602679
0.000537985
-4.42581e-05
-0.000672677
0.000697826
0.000871707
-0.000890729
-8.47152e-05
-0.000186854
9.66707e-05
-0.000604122
0.000102513
0.00114875
-0.000647145
-0.000338173
-0.000158671
0.000320813
0.000874507
0.000214358
0.000864186
-0.000856455
-0.000114167
0.000242959
-1.38024e-05
8.10498e-05
-0.0001087
4.14531e-05
2.66459e-05
5.82513e-06
-7.4413e-05
4.1942e-05
-0.000207441
0.000898868
0.00027806
-0.000194626
-0.000359285
-0.000656666
0.00050313
-4.83718e-05
0.000110539
9.70923e-05
-0.000159259
0.000150379
-0.000961811
-0.000718823
9.50806e-05
0.000660453
-0.000101067
-0.000654467
0.000449779
0.000147182
-0.000154982
-0.000441979
0.000607778
1.38398e-05
-0.000403579
-0.00021804
0.000805419
-0.000918137
-3.16992e-05
-0.00036109
-0.000175924
0.000198841
3.32309e-05
-5.72987e-05
-0.000390756
4.10004e-05
4.54832e-05
0.000304272
-0.00052229
5.75731e-05
7.3961e-05
3.10844e-05
2.85275e-05
-3.26478e-05
0.000860027
-0.000371155
-0.000143635
-0.000591081
0.000420363
-0.000151349
0.000322067
-0.000349764
-6.56162e-05
-0.000175701
-0.000596515
0.000720827
0.000245447
-0.000700952
-0.000252733
0.000708238
0.000631556
-0.00062356
0.000220212
4.28279e-05
0.000845249
-0.00062505
0.000545119
-1.49001e-05
0.000797156
0.000117638
-4.3839e-05
3.03417e-05
6.52246e-05
-5.17272e-05
0.000437256
-0.000104569
-2.0066e-05
-0.000312621
-0.00078334
7.96209e-05
2.24989e-05
-2.89016e-05
6.4027e-06
-6.33004e-05
3.73055e-05
0.000458388
-4.76886e-05
2.65564e-05
0.000684309
-0.000418031
1.59243e-05
0.000439238
-3.45986e-05
5.37491e-05
-9.9651e-05
6.02134e-05
-7.0564e-05
0.000110002
2.92733e-05
0.000673586
8.40274e-05
-3.79746e-05
-1.81975e-05
0.000509683
0.000143043
-0.000487933
-0.000164792
-2.58728e-05
0.000200581
-0.000963395
0.000423404
-4.52711e-05
6.11048e-05
-0.000122557
0.000576969
0.000226987
-0.000124683
-0.000177685
-2.32665e-05
0.0002862
0.000199809
-0.000203062
-6.47901e-05
7.51764e-05
0.000413018
7.58465e-05
-7.2395e-05
-8.81667e-05
-1.54183e-05
-0.000130701
0.000141611
0.000190873
0.00033902
-0.000379332
-7.00503e-06
5.66701e-05
3.25172e-05
-0.000212647
-0.00120868
0.000154865
-0.000189352
0.000288216
6.826e-05
-0.000167124
0.000299278
-0.000260814
0.000198433
-0.000236897
0.000425189
-0.000315262
0.000184378
-9.1245e-05
0.000251848
0.000204593
0.00025034
-2.97438e-05
-0.000327593
0.000408708
-0.000297035
0.00021592
0.000165216
-8.90583e-05
0.000394514
-0.000277598
-2.7857e-05
0.000347006
-2.73561e-05
-3.57856e-05
-3.08106e-05
0.00046111
5.98294e-05
-0.000317305
0.000164903
9.25725e-05
0.00109454
0.000532719
-0.000302451
-0.00132481
6.3011e-05
0.000323335
3.18876e-05
0.00029149
0.000132072
1.39547e-06
1.61928e-05
-2.94289e-05
-3.61384e-05
1.67028e-05
4.88645e-05
8.18381e-05
7.35402e-06
0.00024105
-0.000228179
-0.000287083
0.000274211
-6.92666e-05
5.77847e-05
7.46562e-05
-6.31744e-05
-9.95272e-05
-8.84833e-05
0.000118744
-0.000127749
6.80008e-05
-1.7029e-05
7.67774e-05
-0.000131204
0.000131183
3.90225e-05
-3.9001e-05
9.17143e-06
-2.97812e-05
2.34861e-05
5.22201e-05
0.000135379
-6.1791e-05
5.80769e-05
7.68925e-06
-0.000957493
1.98398e-05
0.000890965
4.66881e-05
-3.52379e-05
3.51265e-05
9.28282e-06
-4.68627e-05
-0.000138881
6.42702e-05
3.81002e-05
-4.21065e-05
-9.39728e-05
7.49614e-05
-7.40335e-05
9.30449e-05
-0.00103119
0.00012409
5.25459e-05
-0.000140805
0.00014048
-2.68406e-05
-7.18548e-05
6.06384e-06
7.75591e-06
-0.000107793
-0.00021578
-9.23107e-05
-0.00114122
0.000215161
-7.7669e-06
-0.000113918
-0.000304214
-0.000705316
0.000108425
-0.000116699
-3.13002e-05
7.8579e-05
-0.000235129
-0.000147653
5.85952e-05
-3.62051e-05
-7.71284e-05
5.47383e-05
-0.00133764
0.000282137
0.000853385
-0.000673204
0.000914363
0.000106353
1.3493e-05
-7.66705e-05
0.000121119
-8.10287e-05
2.05587e-05
-4.05042e-05
9.69744e-05
5.14296e-05
2.37968e-05
1.39433e-05
1.14194e-05
2.58421e-05
-0.000927308
0.000443058
-0.000138366
9.10052e-05
-4.43095e-05
2.00651e-05
-1.09914e-05
5.80775e-05
0.000121866
-0.000156147
-0.00021085
-8.71348e-05
-1.90436e-05
5.29596e-05
-0.000172434
-1.28765e-05
-1.12026e-05
-6.5836e-05
8.99152e-05
-0.000737483
8.27557e-05
-8.48208e-05
-0.000136301
-4.48801e-06
-9.98273e-05
9.79284e-07
6.43839e-05
-9.1792e-05
2.64288e-05
0.000138167
-0.000222366
8.56544e-05
-1.45545e-06
7.69223e-05
-2.62788e-05
-0.000182806
6.33717e-05
-7.48648e-05
-0.0012023
0.000162364
0.000113922
5.52913e-05
-8.64573e-05
0.000140264
0.000296149
-0.00019507
2.74055e-05
2.8539e-06
1.76695e-05
-4.79289e-05
-4.40559e-05
0.000108112
-5.96219e-05
0.00034523
0.000104265
5.72408e-05
-2.98353e-05
-0.000326149
-0.000864749
-1.14001e-05
-0.00122179
-0.000483489
9.18325e-05
5.23346e-06
3.09776e-05
0.000173949
7.28556e-05
-6.14033e-05
0.00021781
0.000126286
-0.000203832
6.06777e-05
-0.000103754
0.000169103
8.17531e-05
-5.9983e-05
-3.4919e-05
4.18157e-05
-3.69222e-05
9.4163e-05
-5.05828e-05
7.29673e-05
-5.75001e-05
2.34319e-05
5.92542e-05
6.58073e-05
-0.000116576
0.000161562
-0.000773143
-0.000299277
0.000402495
-0.000241091
0.000134175
-0.00032922
0.000247935
4.34221e-05
3.67114e-05
6.48813e-05
0.000102485
2.43674e-05
-1.98413e-05
1.37992e-05
-0.0014254
-0.000212488
0.00036874
7.6128e-06
-0.000147852
8.0605e-07
-2.97077e-05
-0.000194415
3.36216e-05
-0.000123379
-8.27646e-05
0.000172522
0.00014258
-0.000110976
-1.25229e-06
-3.41116e-06
-0.000111912
0.00044669
-0.000387067
-0.000552228
0.000492605
-4.58011e-05
5.10097e-05
6.59316e-05
0.000743838
-0.000679888
5.82988e-05
0.000122808
-7.86211e-05
-0.000162933
0.000197744
-0.000366542
0.000449557
-0.000187584
6.4177e-06
-2.5404e-05
1.89863e-05
2.87999e-06
0.000683198
-0.00064325
1.7126e-05
0.00015067
-0.000452674
0.000419603
3.80134e-05
-0.000312538
0.000287396
-0.000807161
0.000928005
-0.000120844
0.000197906
-0.000144085
-0.000559873
3.90521e-05
-0.000232686
0.000753507
-0.000367932
0.000308322
-0.000264834
0.000324444
-2.34176e-05
4.16644e-05
0.000788685
0.000358843
-0.000446994
0.000491791
-0.00040364
-6.79257e-05
1.70277e-05
4.63112e-05
5.96947e-05
-0.000187849
2.58889e-05
9.39614e-06
-4.35486e-05
3.78005e-05
-6.33231e-05
-0.000785426
0.000630378
-0.00022795
-0.000148526
-0.000447132
-0.00132891
-0.000313721
0.000788778
0.000163264
-6.4217e-05
-0.000211166
0.000240422
-0.000506731
0.000668393
-7.38673e-05
-0.000176684
0.000186335
0.000226584
-1.49553e-05
-5.48074e-05
-7.90639e-05
9.03227e-05
0.000201782
-0.000656832
2.51734e-05
0.000429877
-0.000367459
0.000335496
-3.28277e-05
-0.00088157
0.000417344
0.00076453
-9.68264e-06
0.000325878
0.00015073
4.03453e-05
-6.7761e-05
2.96421e-05
3.81189e-05
0.000779778
1.30419e-05
-2.34901e-06
3.27292e-05
3.85684e-05
0.000526502
-0.000565071
5.02277e-05
0.000257321
-0.000334905
0.000165993
-0.000242429
-0.000382704
-3.00258e-05
0.000252708
-0.000256255
-0.000878024
-0.000554802
0.000769883
-0.000514358
0.000612519
0.000115742
-0.000585218
0.000188768
0.00056001
-0.000576127
0.000740352
-0.000233758
4.97021e-05
-5.17572e-05
-0.000141628
-9.21945e-05
0.000168423
0.000171706
0.000166208
-0.000170788
0.000489275
-0.000486395
-0.000308255
-0.000471279
0.000239003
0.00034766
-0.000542604
-0.000227542
0.000264524
-0.000417187
0.000278402
-0.000265087
0.000403873
-0.000122589
9.90736e-05
0.000185077
0.000239336
0.000417285
-0.000206841
0.00118071
0.000153533
0.000456269
-0.00048019
9.90972e-05
7.42302e-05
0.000792445
-0.000781903
-0.000170285
0.000159743
0.000657669
0.00022372
-0.000456633
-0.0011896
0.00110554
0.000223805
-0.000719339
-1.08739e-05
0.000158751
-0.000141962
-5.91572e-06
0.00010896
2.17281e-05
5.87659e-05
-9.29239e-05
-0.000142526
-0.000301386
0.000178823
-0.000399727
3.4142e-05
0.000213496
-0.000586016
0.000653858
0.00070871
-0.000657883
0.00059018
-0.000641007
0.000144725
0.00113712
-0.000965025
2.18451e-06
-7.48834e-06
4.88573e-05
6.2734e-05
-8.49454e-05
0.000646341
-0.000167257
6.091e-05
0.000156215
-0.000301538
-0.000209346
2.06129e-05
9.02922e-06
-0.000476515
0.000547531
-0.000372402
-0.000153162
7.61505e-07
-9.35719e-05
0.000839124
-0.000361446
-0.00047684
0.000421099
-0.00010081
0.000111774
-0.000123226
5.24743e-05
0.0002417
-2.77614e-05
0.000210835
4.65703e-05
7.99476e-05
-4.89206e-05
0.000294851
0.00013949
0.000220441
-2.44345e-05
9.56969e-05
0.000700856
0.000574927
-0.000682597
-9.03314e-05
-0.00037104
-0.000614948
0.000533314
-0.000229058
8.57254e-05
0.000708348
-0.000610159
0.00036436
4.85419e-05
-3.3324e-05
-4.81383e-05
-8.51446e-05
7.22651e-05
0.000469149
-2.53425e-05
0.000514618
-0.000193611
-0.000591668
9.36037e-05
-8.92507e-05
-0.000416519
-0.000230033
-6.51878e-05
-6.1805e-05
0.000878504
-7.08143e-05
-0.00057403
0.000542059
-1.55567e-05
0.000518363
0.000597833
8.65885e-06
-0.000136798
-0.00100165
-0.000316368
0.000328925
-0.000400287
2.51359e-05
-3.61162e-05
-4.66295e-05
5.90259e-05
0.000311331
0.000117405
-0.00011654
-0.000139285
-4.20003e-05
0.00018749
0.000467363
9.70435e-05
0.000187676
0.000996863
-0.000943256
0.00058011
-7.38306e-05
3.41172e-05
-6.2516e-06
6.22577e-05
0.00108483
-8.7965e-05
-4.09163e-05
0.000700205
0.000171346
-9.37902e-05
0.000105131
-0.000320581
-0.000195329
-0.000424252
-0.000875904
-6.73516e-05
-6.87515e-05
0.000106494
-3.29691e-05
-4.77346e-06
-0.000221044
0.000295639
-2.60593e-05
-4.85349e-05
5.59578e-05
0.000144393
-0.000659012
-1.8406e-05
0.000188542
1.85968e-05
2.18124e-05
-4.04092e-05
-0.000216258
3.87075e-05
0.000174139
0.000226838
0.000261643
0.00069952
5.16505e-05
-3.30537e-05
9.13195e-05
-7.60941e-05
-1.52254e-05
-0.00029875
-0.000248392
0.000323043
-7.46517e-05
-0.000155062
0.000301383
9.90294e-05
-7.70988e-06
0.00113325
0.000180961
-0.000121469
-5.94928e-05
-6.29712e-05
-0.000534184
-1.64676e-05
-0.000400835
-2.44436e-05
-5.55288e-05
0.000570146
-0.000100556
0.00118538
-1.34222e-05
0.000555481
-6.74303e-05
0.000176774
-0.000151715
0.000295754
0.000112232
-0.00010283
-0.000618182
0.00060878
-0.000412262
-0.000159915
-0.000159896
-0.000659985
-7.36273e-05
-0.000627061
0.000179371
0.000567521
5.35905e-05
-9.5962e-05
0.000654946
-0.000364271
7.7425e-05
-7.90978e-05
-9.33458e-05
-0.000503115
-0.000443906
1.50136e-05
-3.16874e-06
-0.000679464
-2.36078e-05
0.000615306
0.00032801
-0.000327561
5.2798e-05
-9.6655e-05
0.000124159
4.7521e-05
-8.19732e-05
0.000131496
-0.000383847
-8.55671e-05
-0.000104704
6.55879e-05
-7.22961e-05
-0.000299934
0.000351912
0.000134714
0.000108422
-8.44114e-05
6.86682e-05
5.57416e-05
-8.72459e-05
7.02118e-05
0.000269333
1.83196e-05
-6.08144e-05
0.000751623
-0.000107632
0.000410676
-0.000809472
4.7854e-06
2.61653e-05
-0.000482531
0.000469869
-0.000365029
-3.87611e-08
0.00061486
-0.000235129
0.000242468
6.09207e-05
-0.00104449
0.000168713
-2.65965e-05
-0.000314448
0.000284571
-0.000197428
9.76844e-05
0.000692111
-5.38103e-05
0.000129109
4.76003e-05
-9.05243e-05
0.000165732
-9.77277e-05
0.000108487
-6.73567e-06
5.40168e-05
-5.37379e-05
0.000319634
-7.37355e-05
0.000752425
0.000268906
-0.000747434
6.73123e-05
7.95076e-05
-6.49818e-05
-0.000718657
-0.000138419
-0.000185769
-0.000225777
0.000254492
0.000112581
-0.000136446
0.000289238
0.000135683
6.16324e-08
0.000111953
-0.000140184
5.3442e-05
7.79543e-05
-0.00049704
-0.000106859
3.36722e-05
-6.7978e-05
0.000900024
0.000910649
0.000109879
0.000762934
-5.41363e-05
-4.36827e-05
-0.000107688
0.000120739
-1.30506e-05
-0.000175158
0.000154856
-0.000653789
0.00054228
0.000599686
9.45073e-05
-0.00013179
-0.000419115
7.33195e-05
0.00032312
9.36835e-05
6.93334e-05
-0.00129413
-0.000746702
0.000970384
-0.000428232
0.000521277
2.97026e-05
-0.000626326
-0.000392681
0.000270594
-0.000199675
-0.000390481
-0.000378803
6.82214e-05
-8.65857e-06
9.9421e-06
7.73248e-05
-8.24815e-05
-0.000361546
0.000148372
-0.000305503
8.1588e-05
-7.44413e-05
6.65247e-06
0.000198888
6.34575e-05
9.45799e-06
0.00010359
0.000112628
-0.00020382
7.27793e-05
0.000134647
-0.000711547
-0.000234037
0.000548705
9.88814e-05
0.000673804
4.9296e-05
-0.000262245
0.000602776
-0.000547972
1.02919e-05
-8.68192e-05
-0.000259827
0.000139256
-0.00117534
8.95554e-05
-7.3942e-05
-0.000716968
0.000181878
0.000609032
-1.74584e-05
0.000866061
-0.000159814
0.000150013
0.00021875
-0.000547244
0.000103222
-0.00052087
0.000475922
-5.94187e-05
-0.000172573
-0.000318886
0.000363305
-5.21352e-05
-0.000452828
6.63812e-05
0.000636564
1.29329e-05
-1.54406e-05
-0.000205598
-8.91199e-05
7.3099e-05
0.000253651
0.000496948
-8.62718e-05
-0.000697776
-0.000111696
4.62499e-05
0.000344879
-0.000115692
0.000281227
0.000497248
4.70672e-05
-0.000183082
-0.000426715
0.000294535
1.03378e-06
8.71738e-05
2.00668e-05
-0.000346594
1.50207e-07
9.14724e-07
0.00010208
2.63226e-05
0.000377681
-0.000520945
-9.07731e-05
0.000282691
-3.81756e-05
9.86185e-05
-0.000567738
-8.26307e-06
0.000558543
-1.72932e-05
0.00012664
-0.000964422
0.00103326
-5.91498e-05
0.000115961
2.18251e-05
-5.79383e-05
0.00012116
-0.000179583
-6.68895e-05
0.000260935
-2.02272e-05
7.95005e-05
-1.90432e-05
1.73043e-05
-0.000300836
0.000199732
-0.000202961
0.000304066
-0.000220277
0.000138525
-8.65587e-05
-2.2387e-05
-0.00040986
-0.000444253
-0.000545452
0.000688869
-0.000138532
-0.000233779
-0.000122785
0.000578384
7.14128e-05
-0.000527012
-9.82186e-05
-0.000140186
0.000133234
0.00010517
0.000185646
-2.16765e-05
-2.8263e-05
-0.000561184
0.000536309
-0.000166242
-0.000359627
0.000483273
-0.000504953
-0.000504943
0.000487503
0.000150786
-8.47182e-05
-0.00043162
3.47791e-05
-0.000232259
0.000107381
-8.49437e-05
0.000680025
-9.21237e-05
-0.000627125
-0.000585694
-0.000281692
0.00077915
0.000135427
-0.000432919
4.09317e-06
5.24693e-05
-0.000362688
-0.000259184
0.000484352
-0.000355971
0.000163957
0.000837815
-0.000718993
-0.000118822
-0.000391736
0.000404458
-1.27212e-05
-0.000359088
0.00033017
-0.000314283
-1.58872e-05
0.000950773
0.000394828
-0.000397286
0.000406205
-8.919e-06
0.000436415
3.91295e-05
0.000467754
-6.15493e-05
-0.000656829
0.00105743
0.000524584
0.000633825
-0.000604022
-2.98028e-05
0.000540263
0.000376703
0.000363552
1.31514e-05
0.000536352
3.91101e-06
0.000360679
2.87279e-06
0.000379814
-1.91348e-05
0.000402328
-2.43899e-05
0.000960497
0.000336018
7.27373e-05
-3.43251e-05
3.42668e-05
-0.000199012
3.96616e-05
-2.78376e-05
-8.7404e-05
0.000729782
-0.000128755
-5.01224e-05
0.000138727
0.000449381
2.4817e-06
0.000686106
9.60328e-05
0.000123828
-0.000179029
0.000228014
4.69315e-05
0.000140153
7.60496e-05
0.000586329
-0.00057793
-4.44047e-05
0.000360434
0.000370791
-0.000110251
-4.76744e-06
1.97468e-06
-6.10403e-05
-3.76408e-05
-0.000288791
0.000411786
0.000818744
-0.000350663
0.000182916
-0.000149282
-5.92982e-05
-2.8042e-05
-0.000130658
0.000907679
-0.00119015
9.90356e-05
0.000221908
-0.000155974
0.000946828
5.52955e-05
0.000191645
-0.00119377
9.48605e-06
-0.000109912
-8.11781e-05
-0.000109979
-2.99251e-05
8.88053e-05
0.000298962
-0.000549769
5.18408e-05
-7.26709e-05
0.000104442
-0.000117256
0.000202592
0.000119118
-0.000247054
8.73128e-05
1.8681e-05
-7.08673e-05
6.67157e-05
-8.26396e-06
-0.000405582
-0.000110246
0.000364478
-0.000366601
0.000402461
-0.000284896
-9.00615e-05
-0.000183366
4.59217e-05
3.68698e-05
0.000170573
-2.77754e-05
-2.27479e-05
-0.000398966
0.000406578
2.79231e-06
-0.000113462
3.82749e-05
0.000124418
-0.000129185
0.000275874
-0.000620547
8.08669e-06
-0.000553051
0.000100206
0.000331208
-0.000471362
-6.9165e-05
3.94715e-05
-7.67565e-05
0.000188866
-0.000172724
-6.17838e-05
-0.000518215
7.49244e-05
-0.000172351
0.000596304
4.76025e-05
6.78941e-05
-0.000138673
0.000614444
-0.000282642
0.000191005
-5.09398e-07
2.60023e-05
5.04078e-06
9.44223e-05
-1.51208e-06
-0.000267472
1.16475e-05
-8.17408e-05
0.000134326
-9.24347e-05
-6.93622e-05
-0.00024149
8.1051e-05
-7.60058e-05
9.40284e-05
-0.000587331
-0.000138022
0.000213736
2.0872e-05
0.000149247
-0.000187074
-0.000177506
0.000790805
7.88171e-06
6.89337e-05
0.000189108
-5.59879e-05
-4.93143e-05
-0.00020661
0.00049842
-0.000323966
-0.000105374
0.000411977
-0.000186693
4.95758e-05
0.000118099
-7.80708e-05
-0.000115217
0.000464699
-0.000504464
0.000228253
-0.00129441
0.00134872