/*--------------------------------*- C++ -*----------------------------------*\
| =========                 |                                                 |
| \\      /  F ield         | OpenFOAM: The Open Source CFD Toolbox           |
|  \\    /   O peration     | Version:  v1912                                 |
|   \\  /    A nd           | Website:  www.openfoam.com                      |
|    \\/     M anipulation  |                                                 |
\*---------------------------------------------------------------------------*/
FoamFile
{
    version     2.0;
    format      ascii;
    class       volScalarField;
    location    "0.69";
    object      epsilon;
}
// * * * * * * * * * * * * * * * * * * * * * * * * * * * * * * * * * * * * * //

dimensions      [0 2 -3 0 0 0 0];


internalField   nonuniform List<scalar> 
1466
(
0.583966
0.43324
0.152209
0.489042
3.95843
7.78835
3.62322
2.4733
7.52418
1.52096
7.95263
0.840203
0.117984
0.751834
0.332748
0.875152
1.12587
0.462618
5.52359
0.622455
0.545098
2.50367
0.786372
0.454024
0.756948
0.534092
0.917738
0.572134
2.536
2.91888
2.72007
5.05977
2.1153
2.03817
0.247599
0.363644
0.26853
0.29317
8.01379
2.20798
0.851368
0.69107
6.72818
2.7647
0.754321
5.77802
0.274812
0.541209
0.715275
0.509631
0.148128
2.77949
4.69616
9.40418
2.98909
1.18164
0.309506
0.507759
0.625718
1.35891
0.924181
2.1502
2.9658
5.97861
0.460056
0.637823
0.999467
0.542355
0.464985
2.32156
0.306848
0.506006
0.355769
0.583366
0.49995
1.37613
0.630099
0.467654
2.4171
1.2974
0.198096
0.570368
0.321757
0.691197
0.405516
0.395436
0.474973
0.438666
0.402206
0.290382
0.488544
0.692034
1.13463
0.515906
0.142283
0.486243
0.767162
0.640856
0.557802
0.516996
3.24963
0.666656
0.172486
0.591087
0.313596
6.86068
0.514533
0.329771
0.912183
0.631235
0.492144
0.391607
0.364103
0.280048
0.134006
12.3705
0.736234
0.720442
0.350291
0.44553
0.500341
0.378658
0.369996
0.407055
0.416308
1.14041
0.207173
0.353942
1.23861
5.74567
0.491254
0.622922
0.142267
0.875721
0.174805
1.11717
0.667441
0.423651
0.872857
0.520624
1.9303
0.661241
1.29831
0.809661
0.786692
0.824867
0.304014
0.199373
0.818035
0.379364
1.18868
0.343567
0.246301
0.584223
0.50392
1.42869
0.478837
9.79746
0.476645
0.17408
0.647955
0.560423
0.325903
0.49803
0.688876
0.951684
6.74763
0.411976
0.688271
1.13054
0.45422
0.372349
0.271217
0.750066
0.693462
0.463787
0.716575
1.4272
0.387158
1.29833
0.410417
0.37306
0.546497
0.508235
0.478729
0.640789
0.420907
11.5998
0.384729
0.516917
0.500357
1.06161
0.588061
0.409998
0.331697
0.516363
0.990663
0.553103
0.511038
0.587851
4.7219
0.462354
0.326785
0.682488
0.455717
0.855009
0.406054
3.42634
0.374741
0.654871
0.585963
5.97221
0.39323
0.303125
0.425308
0.412789
0.107801
0.258822
0.676852
0.502699
5.13441
0.388277
0.710742
0.268174
0.753279
0.271388
0.532476
0.922946
0.361209
7.92052
0.392638
0.396847
0.479454
0.377473
0.315295
0.609504
0.339463
2.17319
0.353739
0.792903
7.72281
0.382914
0.702712
0.640995
0.781172
0.34048
0.624326
0.622661
0.206023
0.468167
0.528622
1.36317
0.804957
0.379562
0.432643
1.41955
0.467014
5.31106
13.1824
1.61439
0.307974
0.272691
1.94838
0.155609
11.0334
0.399389
7.74554
2.62415
0.460356
0.507596
1.31144
0.393189
0.387368
0.455445
0.275947
0.574753
0.331234
0.492104
0.246075
0.835215
0.618956
0.19547
0.560593
0.205521
0.59633
0.308202
0.652348
0.729922
4.47872
0.542183
0.273787
8.55607
0.68805
1.20911
0.801643
0.634069
12.0682
18.354
0.446623
0.497228
0.467791
6.39589
0.3409
0.592593
0.489936
0.405576
0.19532
0.464299
0.3025
18.9603
8.42607
0.15033
0.574872
0.836677
0.672733
0.382121
2.6523
0.512604
1.12756
0.302652
0.314187
0.912927
0.544017
0.713051
0.37213
0.458345
0.16445
0.755643
1.5256
0.205009
0.593516
0.65867
0.243251
0.136955
0.455019
0.703561
0.533075
0.742132
0.422223
0.282146
0.530618
0.57123
0.173176
0.192148
0.513971
0.482131
0.472532
0.560624
0.545975
5.89964
0.981598
0.33918
1.04108
0.521191
0.477414
0.37806
4.80633
0.494153
16.2584
0.804316
3.31836
1.07291
0.808831
0.140063
0.565554
0.590423
0.162833
0.564324
0.510713
0.448084
0.374449
0.498185
0.411132
0.686635
0.197293
0.556728
0.304682
13.7558
0.388544
0.617805
0.408226
0.76767
0.735047
0.141439
0.678248
0.820912
0.553119
0.544556
0.292698
0.77398
1.01508
2.5891
0.780242
16.0367
0.437849
0.424075
0.770008
0.389135
0.299588
0.339713
0.797288
0.649985
0.933969
0.34431
1.01822
0.655367
1.12422
13.6152
0.607703
0.323159
0.556797
1.1257
0.485956
0.905443
12.1668
1.40392
1.2812
0.585998
0.905125
1.19294
0.585552
0.896269
2.09203
1.90939
1.80996
1.78993
1.938
2.05231
2.0042
2.29244
1.06829
0.487114
1.43249
12.2698
23.9812
14.0351
11.6054
2.45068
1.11191
2.60864
18.7686
0.620409
11.245
0.546879
1.5262
10.0031
5.3168
6.62734
19.2218
0.487689
20.2535
10.3172
0.657852
0.863832
10.6524
1.03159
7.33892
9.00706
2.4088
0.431065
9.0736
1.32823
1.00469
0.46788
10.9676
13.4422
14.1928
0.53668
0.471243
0.689449
12.0985
0.760447
0.408349
0.860725
4.31083
2.83397
1.45406
0.940398
4.42072
5.12323
0.334531
0.593309
4.19906
0.60554
3.47739
0.2884
0.574127
0.1725
3.74483
1.26968
3.46952
0.364121
0.632775
0.205181
1.84301
4.75271
5.56285
9.30038
13.8632
15.7905
0.329815
0.609464
0.737401
0.730984
0.255915
0.799848
1.24831
0.552862
0.847328
0.871549
4.57302
4.14679
3.13709
0.418647
0.510179
1.88183
0.368174
0.548737
0.671333
0.53081
0.76813
13.267
8.08772
17.8016
15.0505
0.782565
9.59231
6.76491
0.754592
0.255525
0.617798
0.762678
0.582639
0.640234
0.427489
7.76686
0.762907
11.003
0.443588
0.666928
9.23225
12.2446
6.36822
10.8774
1.01081
0.445923
0.23547
13.6877
13.0654
0.332583
0.613277
0.297179
12.752
1.29079
0.842677
7.75563
0.853652
0.403705
1.34446
4.34042
0.582322
0.470014
1.0313
12.4883
1.13177
1.40945
0.340966
0.651199
1.1365
14.6534
0.376069
2.38243
1.37821
0.740995
0.13512
1.2537
3.0708
0.33036
2.05222
1.87259
0.469093
0.621613
1.12776
0.80412
0.286348
22.3525
5.25862
0.416974
17.3088
4.0817
0.266153
0.72374
1.01542
0.153236
0.367296
0.520791
0.895963
1.15233
14.6956
0.729356
18.8813
0.301461
0.56785
0.115298
0.428487
1.82965
1.27604
0.579358
11.309
14.2866
1.31276
11.3939
5.801
12.0169
0.215709
0.43722
12.604
0.832359
3.61758
0.206654
0.391067
0.378002
10.6253
1.01804
0.350684
0.805019
0.458849
0.586599
0.441811
15.6669
1.76582
13.267
0.141941
0.256736
0.785368
1.35262
0.758991
13.8541
0.336401
0.462472
0.479187
6.71146
0.324633
2.25359
1.11994
0.793013
0.129784
5.44025
9.8101
0.507567
0.536752
17.9333
1.25714
8.41305
0.446311
2.1456
7.04498
0.925101
0.529502
0.136037
0.847634
14.5251
0.746315
4.24688
7.40636
14.1659
1.58285
0.309609
16.5812
0.770527
0.517692
0.275914
0.282107
0.119023
0.307975
0.71484
4.08366
15.1876
0.29246
0.718499
0.244717
0.319949
0.363734
0.130005
0.601379
0.394252
3.53681
0.643759
0.304919
0.359817
0.481154
0.476583
1.54881
0.670903
11.0442
0.423574
1.00071
0.322878
0.54687
1.4246
3.14094
0.118188
1.21427
8.07673
1.31706
0.441214
1.3959
16.3809
2.25408
0.281651
0.387147
0.127427
0.737649
0.249508
0.491437
0.53909
1.24104
15.5357
0.437416
1.30902
0.734196
1.17234
0.49404
1.22157
11.9844
0.286347
0.847335
0.73952
4.98875
0.647495
3.69169
0.22161
0.978439
0.676231
0.433911
9.1104
0.907131
0.237606
1.18475
19.531
0.178758
1.10823
0.139094
0.567894
0.346401
0.956892
0.756143
0.112003
4.64055
0.840505
0.128268
1.11196
0.25893
0.915445
1.01993
0.823242
15.7068
7.65954
0.1212
0.46985
1.26727
0.141128
0.655009
0.210658
0.417269
7.08606
2.71974
1.20883
0.113316
0.17357
1.036
10.2564
7.56558
0.232958
0.959449
0.346127
0.421295
0.91741
0.453049
6.02906
9.38543
6.66587
0.207258
0.607945
1.09631
0.597846
0.334673
0.465854
3.15292
0.894938
0.531706
0.349862
0.176256
0.526212
0.357298
5.43438
11.9488
0.628556
2.0724
0.525727
0.272288
0.698867
0.404766
0.166533
0.113874
0.300894
5.66535
0.278477
0.272506
1.93485
13.9556
0.147379
0.476171
4.98294
0.684913
5.53442
0.476919
0.297021
0.522567
6.76123
13.6497
0.254267
1.12259
1.47525
0.714478
0.724526
0.852974
0.307869
0.469401
0.154009
0.470537
1.21504
0.200457
3.25179
0.424814
0.27797
3.20939
0.789153
0.523674
8.53004
0.253216
0.388919
0.924943
5.47135
0.195293
1.16128
1.14375
1.0123
1.19221
1.35377
7.48559
0.560553
0.788518
6.86414
0.570947
0.19606
0.53328
0.861686
0.168622
1.29683
6.40787
0.150923
10.6688
0.474578
0.501482
0.242956
0.500313
0.43223
0.951391
0.167355
0.474026
0.772019
4.17316
2.56932
0.170588
0.314573
0.516809
0.371988
11.5828
0.739542
0.5603
0.144729
2.15699
0.58321
0.559358
0.165398
0.661099
2.91004
1.01945
3.9485
0.398908
0.341677
0.397022
0.559929
0.469235
11.2468
0.519548
0.661873
1.62456
0.552207
0.522673
0.605791
0.585103
0.3992
1.03172
1.04745
0.398574
0.318785
0.908664
0.129445
0.847593
0.306916
2.84064
0.839313
0.709473
0.295392
0.915902
0.438857
0.414828
0.499179
0.339719
0.451846
4.24152
8.12093
7.60785
0.66446
0.526927
0.410039
0.856506
0.875861
0.482781
0.355718
0.587788
1.16189
0.214529
9.31599
0.459527
1.61857
0.446841
0.361047
0.334337
0.343059
0.311638
0.543058
0.482898
0.566772
0.576518
0.421987
0.59356
0.577489
0.442448
0.439427
0.405023
0.622999
0.375504
0.339024
0.894189
0.164789
0.8423
0.646195
0.568571
14.3071
0.707343
0.866836
0.531322
0.285237
6.7164
0.488775
0.153796
0.566599
1.121
0.755366
0.668956
0.200304
0.674438
1.12259
0.567273
0.29682
0.594857
0.886697
6.26071
6.95253
12.2001
8.83608
0.525583
0.141212
1.14474
0.305634
0.452859
0.555742
0.79228
0.973186
1.08932
0.697501
3.64738
0.244733
0.962349
19.8787
6.16993
9.65509
1.01995
0.876049
1.64255
0.543852
0.851537
0.847415
0.824915
9.9777
0.951771
0.620354
0.477558
1.0791
0.759987
1.0367
0.239173
0.650303
0.585922
0.328572
0.37829
2.52431
0.286846
0.52127
12.2929
4.95354
2.87971
0.629813
2.3148
0.60242
5.14814
6.49435
0.509162
0.106864
9.70916
0.810692
0.972537
1.92818
12.4361
0.206
0.317463
6.47133
10.9114
0.126568
0.447504
0.390863
0.604839
0.927758
0.944556
0.125617
1.31015
0.58717
0.329307
0.169101
0.478415
8.27584
1.29913
0.985083
14.0916
0.236108
0.360753
12.7474
10.553
0.472492
0.185217
0.246466
0.503059
0.28301
0.345246
13.8798
0.541719
0.815113
0.29269
0.715713
0.50493
0.313354
12.5775
0.47324
0.628923
2.12999
0.148881
2.29019
1.81646
0.785797
0.927832
3.00919
0.113129
0.820353
11.1236
0.852446
0.134136
0.53143
2.50153
1.53559
0.557477
11.0649
0.642413
0.740944
1.31529
1.23143
0.860534
0.549875
0.693356
0.81897
0.430619
2.99948
0.776386
0.236004
0.188934
1.02046
0.549834
1.09548
0.909481
0.840757
0.329783
0.391458
1.97604
1.00993
0.840403
0.328741
0.260469
0.560124
0.605061
0.273989
0.951832
0.22215
0.688706
0.429174
0.347793
0.23631
0.756338
1.3807
0.33588
1.81711
0.331962
1.27803
0.38775
0.471198
1.05677
1.02929
17.6432
0.396841
1.07408
0.647168
0.425625
0.80103
0.559013
3.12935
0.137423
0.537946
1.24675
0.98265
0.632613
0.930694
0.297356
0.566471
0.90247
0.630284
1.03044
0.293621
6.45993
0.367989
0.141561
2.49926
8.65501
0.715019
1.18944
0.141754
0.627436
0.890452
0.240105
0.245556
1.11407
0.493758
9.36062
0.307167
1.07466
3.36741
5.44106
1.02443
0.945008
0.395169
0.931943
0.583119
0.379244
1.01335
0.979934
0.14267
0.655256
0.424927
4.34897
0.489703
0.586087
0.319748
0.951804
0.984149
0.444548
15.4751
6.78099
1.60965
0.128669
2.23148
0.273391
0.843159
7.56505
0.376165
0.470886
0.309527
0.326026
15.9363
0.596435
10.4926
0.531371
0.567192
0.336624
0.902881
11.6698
0.306976
0.918266
1.07907
1.1302
0.619353
1.9705
0.440127
0.607078
0.297279
0.635737
0.508139
1.08434
20.9792
7.41906
0.573427
0.416007
0.328552
0.152838
0.198795
0.642107
1.07848
0.171252
2.3928
0.587305
0.164672
1.95861
0.534753
11.8145
17.9881
1.94211
15.6354
0.326409
0.259792
0.1467
0.345477
6.7358
11.7189
0.659997
11.7422
0.75625
0.773672
0.353642
7.03797
1.03036
1.71708
2.26288
0.389506
0.517267
0.596353
1.2197
0.614934
0.429769
2.31801
0.423109
0.515431
0.583402
2.98155
1.13586
0.334251
21.6866
8.12562
8.477
0.577309
0.278225
0.538452
0.162567
6.47631
4.10008
13.9061
0.411279
0.228866
1.14582
1.19007
0.783217
0.285597
0.597324
18.7081
8.0572
0.155428
10.3576
8.82521
1.11673
0.119264
1.45556
0.345354
3.95443
11.3401
0.240416
0.40814
0.967243
1.5833
0.829987
9.12346
0.119039
0.494018
0.822504
0.413637
0.345392
1.05037
0.229775
1.25671
0.147179
5.43429
0.328727
10.6754
0.339047
2.44064
1.51666
0.344004
0.908996
0.814578
0.109776
2.86106
0.46746
10.5512
0.315508
10.8071
0.407048
0.316282
1.91432
1.23657
0.395133
0.453811
0.353647
0.473354
0.960216
1.77763
1.07262
0.470275
0.351085
0.695042
0.271612
0.161645
0.43742
0.28799
0.894941
1.01618
2.08794
0.448966
0.374797
1.30379
0.651405
1.82782
0.34713
0.615046
0.424437
0.309066
0.598725
0.173424
0.440018
0.694801
0.146869
1.3291
17.056
0.118477
0.360563
0.671177
0.508209
0.319366
0.675626
0.650278
0.876156
0.896187
0.397072
0.191758
0.296633
0.470264
0.601787
0.428392
3.2962
0.718058
0.698607
0.567257
0.294016
0.57495
0.427973
0.468027
0.133283
1.17843
0.335023
0.253132
0.397881
0.225275
1.53262
0.183659
0.953744
1.17475
10.7027
0.456209
0.299221
1.84038
0.117072
3.07606
0.545992
0.622859
0.770306
0.566697
0.742529
0.310712
0.420932
0.922
0.703814
1.80171
18.5116
7.20513
5.27534
0.430238
0.270551
0.476735
0.527985
1.62643
2.72052
0.653809
0.342342
0.210894
0.425388
0.703661
0.433648
0.94979
0.3711
0.853778
0.430975
0.78683
0.582964
0.407901
0.434964
0.897676
0.459714
1.42177
1.24591
0.149696
0.594052
0.544424
0.498537
0.355923
8.48215
0.115918
0.835066
9.38383
9.49166
0.537308
0.590812
8.49378
0.154922
17.1056
1.73852
4.21202
12.0816
5.53901
3.02937
1.53377
)
;

boundaryField
{
    frontAndBack
    {
        type            empty;
    }
    wallOuter
    {
        lowReCorrection 0;
        type            epsilonWallFunction;
        value           nonuniform List<scalar> 
102
(
0.117984
0.117984
0.786372
0.49995
0.134006
0.3025
0.437849
0.363734
0.676231
0.433911
0.907131
0.237606
1.10823
0.139094
0.567894
0.346401
0.756143
1.11196
1.26727
1.20883
0.232958
0.207258
0.607945
0.525727
0.272288
0.714478
0.724526
0.570947
1.29683
0.839313
0.295392
0.361047
0.334337
0.343059
0.311638
0.543058
0.482898
0.566772
0.576518
0.421987
0.59356
0.577489
0.442448
0.439427
0.405023
0.375504
0.339024
0.646195
0.568571
1.121
0.668956
1.12259
0.594857
1.08932
0.697501
0.962349
1.01995
0.876049
1.0791
0.759987
0.810692
0.206
0.126568
0.125617
1.29913
0.246466
0.715713
0.785797
0.927832
0.740944
0.693356
0.81897
0.188934
1.02046
1.09548
1.00993
0.605061
0.688706
0.756338
1.02929
1.07408
0.137423
0.90247
1.03044
0.715019
1.11407
1.07466
0.979934
0.984149
1.08434
0.423109
0.515431
0.119264
0.240416
0.119039
1.05037
1.23657
1.07262
0.695042
0.118477
0.675626
0.876156
)
;
    }
    inlet
    {
        type            fixedValue;
        value           nonuniform 0();
    }
    outlet
    {
        type            zeroGradient;
    }
    wallInner
    {
        lowReCorrection 0;
        type            epsilonWallFunction;
        value           nonuniform List<scalar> 
138
(
7.95263
1.12587
2.536
2.91888
2.77949
4.69616
9.40418
2.98909
2.1502
0.692034
3.24963
0.591087
0.369996
1.9303
0.661241
0.824867
0.304014
0.411976
0.516917
0.500357
1.06161
0.258822
0.702712
0.34048
0.624326
0.622661
0.206023
0.468167
11.0334
0.19547
0.560593
0.729922
0.713051
0.37213
0.458345
0.16445
0.755643
1.5256
0.205009
0.593516
0.65867
0.243251
0.136955
0.455019
0.703561
0.533075
0.742132
0.422223
0.282146
0.530618
0.57123
0.173176
0.192148
0.513971
0.482131
0.472532
0.560624
0.494153
0.140063
0.565554
0.590423
0.162833
0.564324
0.510713
0.448084
0.374449
0.498185
0.411132
0.686635
0.197293
0.556728
0.304682
0.617805
0.339713
0.797288
0.485956
0.905443
0.896269
23.9812
18.7686
2.4088
13.4422
0.689449
1.45406
0.940398
1.84301
13.8632
15.7905
0.737401
17.8016
15.0505
0.754592
0.23547
3.0708
0.266153
0.72374
10.6253
0.256736
4.24688
0.307975
0.71484
0.304919
0.127427
1.18475
0.178758
7.56558
0.894938
0.300894
0.147379
0.297021
3.25179
8.53004
0.253216
0.861686
0.772019
1.04745
0.214529
0.164789
0.285237
0.620354
12.2929
4.95354
0.972537
2.29019
0.642413
0.273989
0.98265
0.930694
0.627436
0.931943
0.619353
3.07606
17.1056
1.73852
12.0816
5.53901
3.02937
1.53377
)
;
    }
    procBoundary2to0
    {
        type            processor;
        value           nonuniform List<scalar> 
42
(
22.8499
22.8499
0.320847
0.276865
4.11592
19.217
0.351598
0.351598
2.29147
0.551956
7.33951
7.33951
5.45316
8.9085
11.7058
17.4099
17.7436
0.404835
1.06562
4.0575
3.5962
0.324058
0.324058
4.84191
3.5962
0.402422
9.16996
0.420366
9.16996
24.335
20.9244
0.411917
0.372197
0.305776
0.261706
0.276865
17.7436
0.271642
17.754
0.327961
0.327961
0.269935
)
;
    }
    procBoundary2to1
    {
        type            processor;
        value           uniform 5.20366;
    }
    procBoundary2to3
    {
        type            processor;
        value           nonuniform List<scalar> 
29
(
2.0833
2.03339
1.48298
1.87948
6.94918
2.18196
2.79047
2.30787
1.93213
1.86157
2.15946
5.23146
2.51087
1.47376
1.44093
1.87754
1.67112
1.67112
2.03339
1.47376
1.45492
1.63451
0.832531
1.74518
1.17819
1.56248
1.93213
5.11224
5.23146
)
;
    }
}


// ************************************************************************* //
