/*--------------------------------*- C++ -*----------------------------------*\
| =========                 |                                                 |
| \\      /  F ield         | OpenFOAM: The Open Source CFD Toolbox           |
|  \\    /   O peration     | Version:  v1912                                 |
|   \\  /    A nd           | Website:  www.openfoam.com                      |
|    \\/     M anipulation  |                                                 |
\*---------------------------------------------------------------------------*/
FoamFile
{
    version     2.0;
    format      ascii;
    class       volVectorField;
    location    "0.12";
    object      U;
}
// * * * * * * * * * * * * * * * * * * * * * * * * * * * * * * * * * * * * * //

dimensions      [0 1 -1 0 0 0 0];


internalField   nonuniform List<vector> 
1466
(
(0.104999 2.50831 0)
(0.0812454 2.64117 -1.06313e-16)
(0.471496 -0.645052 -1.62978e-16)
(-0.0397115 2.01223 1.3442e-16)
(2.36628 -0.196684 -5.03995e-16)
(1.79414 -0.236621 -4.52478e-16)
(-0.548245 0.052168 2.8466e-16)
(-0.481717 -0.52064 4.48733e-16)
(0.362326 2.97297 1.3139e-16)
(0.827684 0.0741065 7.50965e-16)
(-0.0863953 -0.000648093 -1.94987e-16)
(2.98937 1.75295 1.187e-16)
(0.00229244 0.010232 1.14162e-17)
(0.65834 1.09944 -1.28052e-16)
(0.809314 -0.0366063 -2.86817e-18)
(-0.060439 1.1515 -6.52387e-21)
(0.392891 -0.0128083 7.65141e-17)
(0.0667633 2.41194 -1.26242e-16)
(1.95215 0.826616 -1.58791e-16)
(-0.0602108 1.52162 0)
(0.597093 -0.0386875 1.61963e-16)
(3.00314 0.479034 -2.55753e-16)
(3.11261 -0.020377 0)
(0.026879 2.42007 6.52728e-17)
(0.742542 0.923684 -1.85716e-16)
(0.047259 -0.0925596 2.20599e-16)
(0.0523127 -0.052004 2.45536e-16)
(2.45683 0.491652 2.57212e-16)
(-1.69377 0.0260122 0)
(-1.27931 -0.145267 4.30338e-16)
(1.26952 -0.602717 0)
(0.883873 -0.732821 8.59869e-16)
(3.42613 0.0124527 -2.26103e-16)
(-1.25298 0.438157 -1.05235e-16)
(0.404563 2.31178 0)
(0.831561 -0.0834336 2.94361e-17)
(0.207758 -0.209578 1.75294e-19)
(0.63801 -0.0129583 0)
(1.04215 1.19286 -5.67341e-16)
(3.33626 -0.187778 2.40481e-16)
(3.35059 1.34712 -1.29833e-16)
(1.34922 0.747308 -1.7808e-16)
(0.352792 3.22059 -3.32096e-16)
(-0.479746 -0.158074 2.6649e-18)
(3.18313 0.553178 0)
(0.19051 2.75648 -2.57448e-19)
(0.63286 -0.0192206 -1.89434e-16)
(0.0128778 2.16956 8.87751e-17)
(1.1443 0.797421 -2.51064e-16)
(0.605771 -0.0222913 -9.12965e-17)
(-0.087593 -0.409619 0)
(0.449147 0.147357 -3.27181e-16)
(1.95923 -0.342438 4.00489e-16)
(1.25703 -0.420871 4.67686e-16)
(2.90296 -0.0428775 3.53934e-16)
(1.30712 1.7416 -1.16076e-16)
(0.671988 -0.00787557 0)
(0.404408 1.00339 3.00095e-16)
(1.2881 0.228884 1.33568e-17)
(1.13537 1.65395 0)
(-0.11477 1.11291 -2.43633e-18)
(-1.19705 0.122027 1.09249e-16)
(2.28181 -0.444762 1.24233e-16)
(1.59068 -0.593223 -4.61613e-16)
(-0.0551186 2.71432 1.60803e-16)
(0.21433 1.67898 -3.36765e-17)
(1.5286 1.84889 -3.40053e-17)
(0.586134 -0.0681092 -2.11194e-16)
(0.05189 2.23117 -1.20966e-17)
(2.34299 0.534605 0)
(0.0919389 -0.0662053 0)
(-0.043638 2.34747 -5.40421e-17)
(0.628161 -0.00694229 -5.82669e-16)
(0.101375 2.59508 -1.77204e-16)
(0.576884 -0.0102448 4.13733e-17)
(3.09687 0.0435345 -1.56688e-16)
(0.00394498 2.59433 4.40079e-17)
(0.00919179 2.49582 1.58211e-16)
(-1.25798 0.215668 0)
(1.01071 1.77589 0)
(0.183934 -0.0731528 -3.95139e-17)
(0.343164 2.37273 1.76385e-16)
(0.725977 -0.0589251 0)
(0.983931 0.774441 1.51442e-18)
(0.631251 -0.00545999 2.08325e-16)
(0.616237 -0.0102302 -1.03062e-16)
(0.638058 -0.00661488 -2.76821e-16)
(-0.190541 2.41207 1.25666e-16)
(0.473217 1.9829 -3.645e-17)
(-0.0372089 2.71294 5.55535e-18)
(0.103087 2.21609 9.6278e-17)
(0.572086 0.0112559 0)
(0.749077 1.85123 -5.99322e-17)
(0.00150722 2.02804 1.81589e-16)
(-0.212567 -0.309951 0)
(0.59584 -0.0211446 -2.20761e-16)
(-0.00405373 2.47782 5.65287e-16)
(1.64401 0.286222 0)
(-0.193827 2.53093 1.34875e-16)
(0.177247 2.0645 -1.53057e-16)
(-0.97153 0.271557 0)
(2.48932 0.768855 -8.14235e-17)
(0.886921 -0.55275 3.99518e-16)
(-0.0322265 1.81315 -1.50073e-16)
(0.658421 -0.0367884 0)
(0.262233 3.21759 -2.3419e-16)
(0.574193 -0.114237 1.91064e-16)
(0.694028 -0.0541378 -8.12722e-18)
(-0.135979 2.82966 4.55246e-17)
(0.812986 0.411936 6.9908e-18)
(1.01202 0.167802 1.89308e-17)
(0.457337 -0.0261794 5.26897e-16)
(-0.63304 -0.186161 -3.78007e-16)
(0.634177 -0.0132646 9.35266e-21)
(0.018178 0.0381159 -2.29821e-17)
(0.391617 2.76583 0)
(0.250297 1.29683 -8.35493e-17)
(0.374656 1.36556 5.84805e-16)
(-0.141489 2.68038 2.83954e-17)
(0.465035 1.86171 -3.89893e-16)
(0.562234 -0.048501 2.07223e-16)
(0.272806 2.61038 0)
(0.114906 0.454373 -8.12568e-17)
(-0.0643493 2.16191 -6.51197e-17)
(0.433333 1.69962 2.92549e-16)
(0.383182 1.07171 -1.17026e-16)
(0.210113 0.275756 2.98459e-17)
(-0.108797 1.46871 0)
(0.648254 1.71891 5.87767e-17)
(0.434614 2.77596 -2.62971e-16)
(0.657183 0.589607 1.17833e-16)
(-0.0775268 2.57109 3.03689e-21)
(0.408166 1.68025 2.13994e-17)
(1.80468 1.99262 -5.21491e-17)
(-0.0423664 -0.13654 -1.21378e-17)
(0.899646 1.8616 1.43134e-16)
(1.57209 0.723634 0)
(0.637044 0.0139043 0)
(3.43109 0.247855 2.84626e-17)
(-0.0192215 1.66399 8.57144e-17)
(0.130392 0.0569714 -1.04365e-16)
(0.563949 0.00750927 -1.76988e-16)
(0.493192 1.59963 6.88755e-17)
(0.830676 2.0905 -4.05334e-16)
(3.3258 0.369759 1.09913e-16)
(0.535623 0.590943 0)
(0.425196 0.868425 0)
(-0.178338 1.58287 0)
(1.57666 2.24608 5.90563e-17)
(0.628686 -0.00719863 2.74592e-16)
(0.537947 1.4753 -1.41522e-16)
(0.354815 0.289182 4.66313e-18)
(0.111549 2.68461 1.04689e-16)
(0.0663221 2.67956 -1.83998e-17)
(0.248113 2.41705 -1.46341e-16)
(0.0905524 0.00699416 -9.99643e-17)
(-0.00281227 2.37474 -3.12624e-16)
(-0.030868 2.12687 1.80792e-16)
(0.268966 0.245003 -8.18931e-17)
(-0.139238 1.75827 0)
(2.72158 0.652771 9.40851e-17)
(0.270244 1.86028 -2.30369e-17)
(-0.114445 2.4637 2.36782e-16)
(0.582673 -0.0293349 2.01946e-16)
(2.21138 0.851883 -4.29488e-18)
(0.820902 1.9192 1.50281e-19)
(0.511148 2.76821 0)
(0.898046 0.812289 9.3569e-17)
(-0.0297475 1.41437 4.65272e-18)
(0.0148817 0.129951 4.09168e-16)
(0.613578 -0.0169208 2.77163e-16)
(0.613795 -0.0111656 2.68073e-16)
(0.232836 0.404715 0)
(1.0498 2.316 7.4227e-17)
(0.0111627 -0.089477 -9.2096e-16)
(0.0844466 2.67615 1.54019e-16)
(1.93583 0.896386 1.44572e-16)
(0.898753 1.66657 -2.122e-17)
(0.838886 -0.00110475 -1.44385e-16)
(0.810237 1.76006 2.07787e-17)
(0.0756079 2.5146 -1.71015e-16)
(0.645652 -0.0447676 2.318e-16)
(0.649577 0.732107 -2.95755e-16)
(0.243988 1.74412 -4.94189e-16)
(-0.00248836 2.58181 -3.07986e-16)
(0.666799 1.18802 5.79116e-16)
(0.680599 -0.0782296 0)
(0.423216 2.66359 0)
(0.769996 -0.100259 -5.51155e-17)
(-0.0837148 1.68899 0)
(0.0140816 1.59028 0)
(0.0535855 1.1213 1.25001e-16)
(0.286392 1.83986 2.02982e-17)
(-0.0974265 2.63271 -6.57563e-17)
(0.637975 -0.0311658 -2.49599e-20)
(-0.0392005 2.53506 0)
(3.50512 0.144772 -3.63111e-17)
(0.804051 0.197101 -1.46805e-17)
(0.907645 0.242138 -1.39179e-17)
(0.903366 0.528427 -6.37064e-18)
(-0.277537 0.23926 -1.16554e-16)
(0.382603 -0.0370381 3.46982e-16)
(0.672284 -0.0457203 -6.72039e-17)
(0.0465591 1.51051 2.41623e-16)
(0.395587 0.421855 0)
(1.22534 1.05014 3.20111e-16)
(0.657916 -0.0606701 1.76192e-16)
(-0.0401035 1.20328 1.32707e-16)
(0.890481 -0.0264648 5.27295e-17)
(0.693264 0.0623562 1.17667e-17)
(0.722419 0.140779 5.82945e-17)
(-0.255388 0.852323 -4.47525e-19)
(0.360332 -0.0202204 -1.1782e-16)
(0.626427 -0.00131995 1.75451e-20)
(-0.193538 2.60272 -6.67615e-17)
(0.717648 -0.0939246 2.86192e-17)
(-0.228284 0.513421 -8.56859e-17)
(-0.202095 -0.152488 0)
(0.108891 1.5466 0)
(-0.005582 2.50241 -4.69769e-20)
(0.125421 1.55853 1.57801e-16)
(0.22671 2.81874 0)
(-0.0457231 1.41202 5.87377e-17)
(0.628213 -0.0157177 4.12384e-17)
(0.824842 2.17154 -4.09702e-17)
(0.62766 -0.00925237 0)
(0.903672 0.649116 8.27168e-17)
(0.288149 1.15804 1.2298e-16)
(0.39706 -0.195768 2.96852e-18)
(0.481889 2.85677 -3.3791e-16)
(0.620362 0.022601 2.93083e-16)
(-0.41849 1.97194 0)
(0.64445 2.05012 -1.12487e-16)
(0.772224 0.29365 -8.27043e-20)
(0.767166 -0.0553402 0)
(0.561679 0.389461 0)
(0.655111 0.306093 0)
(-1.16091 -0.385196 -5.65878e-16)
(0.562844 0.351237 -1.16154e-16)
(0.724351 0.713521 0)
(0.428778 2.92525 1.34311e-16)
(0.509409 0.41448 3.24493e-16)
(0.584127 0.0199128 -4.14817e-17)
(1.81463 0.696301 -6.95524e-16)
(1.66267 1.00578 0)
(0.297292 -0.102679 -1.9121e-16)
(0.0172943 -0.0222147 -6.19109e-19)
(0.54496 -0.00216043 3.62587e-16)
(-0.102016 -0.154712 0)
(0.428705 -0.0568579 -5.87902e-18)
(0.414221 2.41206 -5.91688e-16)
(0.75665 2.73586 -8.41184e-17)
(1.0312 0.991552 -1.19907e-16)
(-0.282094 1.70482 4.1308e-16)
(0.800251 1.63264 0)
(0.875912 2.71357 1.41223e-16)
(0.98623 0.278776 -1.30471e-17)
(0.476217 2.72002 -5.98251e-17)
(0.553579 2.7177 1.12666e-16)
(1.83513 0.0108652 -1.05955e-16)
(0.620312 0.00560193 2.3323e-20)
(0.632571 -0.00707413 2.91182e-16)
(0.903838 2.9625 -8.70327e-19)
(-0.0351416 1.86065 -2.22438e-17)
(1.68743 0.0498469 -2.08843e-16)
(0.787945 -0.0357767 -2.85952e-16)
(0.260317 2.98013 9.28632e-17)
(-0.319062 -0.11525 1.93774e-19)
(0.410406 -0.042404 -7.42374e-17)
(-0.0425356 2.45826 -4.86524e-17)
(1.44016 2.58551 -7.61262e-17)
(0.176925 2.49282 5.27185e-17)
(0.617434 0.0486522 3.25714e-17)
(0.951813 0.30252 3.15748e-18)
(0.63114 -0.0119736 -4.34319e-16)
(1.23655 0.36792 5.81096e-17)
(0.0423619 1.23413 1.36192e-16)
(0.753042 1.14771 0)
(-0.157184 1.44413 -5.54671e-18)
(1.43086 1.04531 1.89474e-16)
(0.70698 0.308862 2.96644e-17)
(0.118963 -0.144238 0)
(0.507385 -0.022335 2.86982e-20)
(0.199372 0.163094 5.17893e-18)
(0.40237 -0.0786915 -1.028e-16)
(0.652366 0.0731301 -1.011e-16)
(0.443362 0.427083 0)
(0.562785 0.0153892 0)
(0.249884 1.76808 2.80857e-16)
(0.0735195 1.70445 1.18398e-16)
(0.622373 -0.00789627 -2.27879e-16)
(0.196465 2.92338 -4.66382e-17)
(0.512061 1.10254 -4.15566e-17)
(2.52251 0.10205 0)
(0.875192 1.04872 -1.69605e-16)
(0.387876 -0.0330448 0)
(0.280809 2.47578 7.33912e-17)
(0.552012 2.97389 5.31718e-19)
(0.332914 0.0299987 0)
(0.473502 0.47726 -2.25415e-16)
(0.109854 -0.364501 -6.70679e-17)
(-0.167205 1.54266 3.87206e-16)
(0.151464 0.558085 -4.13632e-17)
(0.493623 1.04208 7.69275e-17)
(0.796574 0.0175918 2.6872e-16)
(1.28803 -0.125346 -3.86343e-16)
(0.23114 -0.31163 -1.71417e-16)
(0.718 0.485708 -1.28665e-16)
(0.176217 0.0663646 5.5077e-18)
(0.93736 2.77086 2.25332e-16)
(0.430511 2.85143 2.7695e-16)
(-0.278826 -0.191125 4.3111e-17)
(0.409043 -0.0561017 -1.45791e-16)
(1.73593 2.65712 -1.62857e-16)
(0.833136 0.832831 6.07121e-17)
(0.414685 -0.0269256 -2.65525e-17)
(-0.42308 -0.108741 4.47636e-20)
(0.0517365 -0.0379385 2.11912e-16)
(3.60842 0.20968 0)
(0.33176 0.172079 -4.03076e-17)
(0.623348 -0.0127213 -3.34146e-17)
(0.975501 1.95739 -1.49524e-16)
(0.636082 0.78559 5.45609e-16)
(1.26758 -0.16504 -1.66962e-16)
(0.898388 -0.219181 1.67432e-16)
(-0.0653005 -0.0920471 -1.37815e-16)
(-0.0453187 -0.0165645 2.28671e-17)
(0.265957 -0.0138812 0)
(0.02869 0.00308729 0)
(0.194699 -0.0784509 -1.63771e-16)
(-0.298618 0.0610574 0)
(0.600361 -0.0623026 3.8427e-16)
(-0.00935939 -0.0124453 2.16993e-17)
(0.736379 -0.270173 0)
(0.164968 -0.171853 -1.226e-17)
(0.995679 -0.15596 0)
(0.363294 -0.008232 -4.97583e-17)
(0.0240471 -0.0564016 -1.3791e-16)
(-0.791392 -0.102647 -1.51683e-17)
(0.117884 -0.042551 1.70172e-16)
(-0.394561 0.0516806 0)
(0.535235 -0.0490041 -2.92536e-16)
(-0.538843 -0.112693 0)
(-0.175805 -0.0360777 0)
(0.108432 -0.0583938 -1.46285e-16)
(0.0476063 -0.0139762 0)
(-0.476623 0.0251456 -8.9721e-17)
(0.3954 -0.0259862 9.06737e-17)
(0.0121699 -0.200033 1.13484e-16)
(0.256021 2.19254 -2.91423e-16)
(1.07927 1.22492 4.69989e-17)
(0.603223 0.014562 5.54537e-16)
(1.26681 1.29245 -4.64001e-17)
(0.967105 0.41592 -3.98008e-16)
(0.824153 0.425854 2.30831e-16)
(0.392072 -0.0182732 -4.87994e-18)
(-0.35401 0.260016 -4.48893e-16)
(-0.0143051 1.72561 3.25726e-16)
(0.739038 2.50955 -6.92277e-20)
(0.450804 0.0953839 -2.11207e-16)
(0.252627 1.22483 0)
(1.14113 1.88818 1.54542e-16)
(0.864737 1.97166 1.64567e-16)
(1.29425 -0.363161 -2.54648e-16)
(0.413328 2.49595 2.7915e-17)
(0.218107 -0.0363201 0)
(-0.0983068 -0.0239593 -2.3467e-17)
(0.0191003 -0.00414878 -1.57985e-17)
(0.471904 -0.0362858 1.37477e-16)
(-0.410592 0.0642269 0)
(0.0731389 -0.0205774 2.0786e-17)
(0.366646 0.000883165 -9.35634e-17)
(-0.573308 -0.047013 -2.70343e-16)
(0.749625 -0.110853 0)
(0.289247 -0.084742 -4.44762e-16)
(-0.237081 -0.00563977 0)
(-0.287386 -0.120147 9.25844e-17)
(0.320142 3.26498 -7.46207e-18)
(0.63322 0.00158929 3.8251e-16)
(0.0334327 -0.231945 -2.25607e-16)
(0.642982 0.0432561 2.74064e-17)
(0.944934 2.68717 -1.92713e-17)
(0.549966 1.64073 -6.68026e-18)
(-0.153408 -0.128166 -9.0976e-17)
(0.594046 2.33775 -1.74627e-17)
(0.445099 0.459769 4.1688e-16)
(0.625422 -0.00686626 1.0225e-16)
(0.411138 -0.0524737 0)
(0.542456 0.198493 0)
(0.435989 0.475932 0)
(0.334969 0.689378 3.4483e-16)
(0.436133 2.74705 0)
(0.709115 2.02356 1.01888e-17)
(0.323698 2.95475 6.23499e-17)
(0.306787 0.0685259 -4.35306e-17)
(0.925591 0.0844913 -8.28341e-17)
(0.79408 1.9932 1.44105e-18)
(0.0567369 -0.0314286 -1.46913e-16)
(0.649462 -0.0294328 -1.00081e-16)
(0.386272 0.0136209 5.28659e-17)
(-0.991731 0.0154528 3.62124e-17)
(0.0509385 -0.0422086 -4.40871e-18)
(0.722102 1.91953 -1.43198e-16)
(0.587279 0.0417676 -2.74135e-17)
(3.72716 0.730911 0)
(0.398733 -0.104031 3.10378e-16)
(0.757708 2.14412 -1.12822e-16)
(0.620521 2.60731 -2.30663e-16)
(0.532191 -0.25051 -1.00978e-16)
(-0.336933 -0.180358 -1.12477e-16)
(0.407592 -0.0618857 2.35163e-17)
(0.631097 1.80196 -3.05068e-16)
(0.289987 -0.326606 5.77731e-17)
(0.364925 3.23266 2.77211e-17)
(0.288608 2.86744 -4.22456e-17)
(0.389191 1.44488 1.37279e-16)
(0.787592 2.24412 -2.85032e-17)
(0.567439 2.59176 -1.76093e-19)
(0.279561 0.566681 0)
(0.28931 0.973133 0)
(0.604039 2.48855 5.71029e-16)
(0.320834 0.213897 9.16969e-17)
(3.13251 1.07508 -1.06721e-16)
(2.77328 0.866195 4.1614e-16)
(2.9869 1.53927 -2.28998e-16)
(2.49833 1.94281 5.38501e-16)
(3.02298 0.180824 -1.16882e-16)
(3.32977 0.678816 -2.94883e-16)
(1.76567 0.888196 -2.50697e-16)
(0.988208 0.901183 -2.83439e-16)
(-0.363149 -0.227262 -2.30039e-17)
(0.416033 -0.0546337 -4.69153e-17)
(0.700625 2.22659 3.33908e-17)
(0.0725231 2.46069 -2.49896e-19)
(0.21037 1.93255 -1.06133e-16)
(0.240951 2.94549 -1.52654e-16)
(0.270433 2.84996 2.5904e-16)
(-0.028994 -0.483441 2.50912e-16)
(0.111518 1.35758 4.51831e-16)
(0.329846 2.34764 -1.64706e-16)
(-0.163008 0.866833 -5.26672e-17)
(0.442423 0.403046 0)
(-0.111951 1.73821 3.66693e-16)
(0.160596 1.27537 4.32102e-17)
(0.271054 2.14323 -2.25467e-16)
(0.287865 2.80643 -2.26472e-16)
(0.393771 2.75646 0)
(0.400261 2.81121 2.76948e-16)
(0.434334 3.1705 0)
(0.482603 2.47219 5.93134e-17)
(0.543785 3.2115 2.01156e-16)
(0.32168 2.8527 0)
(0.181585 0.768603 -5.12707e-17)
(0.692957 2.47661 -2.95269e-16)
(0.226198 2.748 -8.01806e-17)
(0.0554406 0.779642 -3.36033e-16)
(0.389628 2.81268 -1.27978e-19)
(0.3366 2.8065 0)
(0.138417 0.347876 0)
(0.388356 2.17792 -1.02818e-16)
(0.234581 2.64919 1.63957e-16)
(0.71608 2.29587 2.65733e-18)
(0.708001 2.37731 2.70161e-16)
(0.523497 2.32639 3.12106e-16)
(-0.0325161 1.67856 -6.75849e-17)
(0.128752 0.961365 0)
(0.200927 2.8612 1.74042e-16)
(0.420772 -0.0748956 -1.2573e-17)
(-0.389963 -0.203252 0)
(0.0802915 -0.0984281 1.25184e-16)
(0.0828915 2.45383 3.25512e-17)
(0.111108 1.32299 -3.3664e-17)
(0.439533 2.06614 -2.30916e-16)
(0.113108 0.790053 6.92586e-17)
(0.123945 -0.478837 -1.15113e-15)
(0.865201 -0.415567 -7.24126e-16)
(0.134928 0.168576 0)
(-0.0224877 0.0268791 -5.23579e-17)
(1.48855 0.718614 -1.16893e-16)
(0.856001 0.68293 2.88972e-16)
(-0.390254 -0.201162 -5.67819e-17)
(0.428198 -0.10411 -5.79908e-17)
(0.458024 0.133198 5.75152e-16)
(0.414757 -0.149066 -1.79119e-16)
(0.738966 0.465657 0)
(-0.42358 -0.176626 1.43744e-16)
(0.459602 -0.187793 -5.65771e-16)
(0.0988325 -0.275598 6.95117e-17)
(-0.22566 0.574198 -2.65131e-16)
(3.67739 0.126172 -3.67876e-17)
(0.280456 1.10588 -1.63412e-16)
(-0.414274 -0.255746 -9.86746e-17)
(0.423783 -0.297251 9.81556e-17)
(0.0872505 -0.177339 -4.81033e-17)
(0.640356 1.52148 0)
(1.07954 1.42043 1.52167e-16)
(0.252663 1.08117 -1.28259e-18)
(0.156143 2.50126 1.40775e-16)
(0.0437697 1.08196 -1.39507e-17)
(-0.0619478 0.974373 1.25306e-17)
(-0.311487 -0.335759 2.05321e-16)
(0.575422 -0.360989 1.22691e-17)
(0.410355 1.96496 4.42703e-17)
(0.492828 2.05413 -4.49256e-17)
(0.0767834 -0.122087 5.04588e-17)
(0.822452 1.91057 -1.13566e-16)
(3.81484 0.197041 2.42998e-16)
(0.243564 1.8474 -1.83269e-17)
(0.484311 2.6696 -3.51245e-16)
(0.234387 1.97876 -9.55544e-18)
(0.402697 2.78207 -3.45812e-16)
(0.652608 1.62654 0)
(0.367529 2.65205 2.30033e-16)
(0.293606 1.7595 6.82356e-17)
(0.213905 0.696199 -6.38757e-18)
(0.348481 2.51593 -7.27458e-17)
(-0.445425 -0.362503 2.90411e-18)
(0.433426 -0.418766 -9.43521e-17)
(0.630255 2.37137 -4.40041e-16)
(0.554138 2.16014 -1.59574e-16)
(0.653708 2.24446 7.40516e-16)
(0.272959 2.88377 4.81917e-17)
(0.0101341 1.57961 1.37855e-18)
(0.0925967 2.12287 2.74615e-16)
(0.0117588 2.1383 0)
(0.472386 0.572669 2.70875e-16)
(-0.00400478 1.61227 0)
(0.0756689 1.60474 9.04516e-17)
(0.0849816 -0.288368 9.33506e-17)
(0.0304172 -0.120257 -5.49514e-17)
(0.348542 -0.111128 3.77952e-16)
(0.817701 1.97007 -4.23465e-17)
(0.353147 2.29341 -5.71673e-17)
(0.444302 2.56147 1.18743e-16)
(0.247712 1.23324 0)
(0.0846852 2.09796 0)
(2.57473 1.05596 1.53261e-16)
(0.071164 2.33046 -3.29551e-17)
(0.611856 -0.0138263 -4.6267e-17)
(0.15973 0.00237697 -4.75072e-16)
(0.0641002 2.17961 4.1433e-17)
(0.219912 2.82297 4.22135e-17)
(0.38974 2.75784 2.22853e-16)
(0.154684 2.61447 -1.24866e-16)
(0.341776 2.40011 9.59522e-17)
(0.14381 0.510373 -5.20179e-17)
(-0.295893 -0.0579327 0)
(0.301042 2.87096 0)
(0.250356 2.88561 0)
(-0.296483 -0.536814 1.03645e-16)
(0.658623 -0.461536 2.70963e-16)
(0.684095 -0.035363 -9.46308e-18)
(0.171294 2.75174 7.15921e-17)
(0.632801 1.99278 7.24358e-17)
(0.784225 1.96962 -1.20371e-16)
(0.37002 2.79262 0)
(-0.452127 -0.240777 -1.58534e-16)
(0.431512 -0.044548 -6.16185e-17)
(0.786859 2.35165 -1.22884e-16)
(0.386208 2.59015 -5.97288e-17)
(0.397711 -0.0331497 5.47619e-16)
(0.209124 0.0320365 1.36587e-17)
(0.720917 1.94604 7.82442e-17)
(0.305425 2.83289 0)
(3.81116 0.416132 -3.79436e-16)
(1.00212 1.56459 -8.44455e-17)
(0.627432 -0.0214935 0)
(0.45664 0.572193 4.89408e-17)
(0.40353 2.6127 -1.06843e-17)
(0.339272 2.88734 1.9745e-17)
(0.768859 -0.00884179 0)
(0.195148 0.779302 0)
(0.43243 2.70285 9.33847e-17)
(3.02873 0.703038 1.66909e-16)
(-0.557706 0.724281 -7.10206e-17)
(0.489194 2.70181 1.15226e-16)
(0.275289 3.138 1.05295e-16)
(0.0683459 -0.0945065 0)
(0.390441 2.66939 -1.18227e-16)
(0.454139 2.72027 9.58334e-17)
(0.453174 0.440096 -1.0417e-16)
(0.743309 0.0320964 9.72567e-17)
(0.881318 2.24166 0)
(0.791261 1.95382 2.2688e-16)
(0.641145 -0.0214497 0)
(0.789377 3.35789 6.33609e-19)
(0.390703 2.75417 -1.71745e-16)
(0.202354 -0.531476 8.92498e-17)
(0.380567 2.97785 0)
(0.439193 2.68648 9.752e-17)
(1.04435 0.326443 -2.03627e-17)
(1.09978 0.136646 1.67029e-16)
(3.60258 0.340788 3.39457e-16)
(0.381192 -0.602908 0)
(-0.532758 -0.51857 0)
(0.450675 -0.531422 -8.25809e-17)
(1.28119 2.04649 -6.97515e-17)
(0.631301 1.41448 -1.0629e-17)
(0.288418 2.91761 0)
(0.82952 1.98173 -1.50137e-16)
(0.437167 3.08305 1.23022e-16)
(-0.298748 -0.694845 -1.84682e-16)
(0.781934 -0.498897 -3.42626e-16)
(-0.144094 0.0232813 4.38964e-16)
(0.0696882 -0.0679356 2.43211e-16)
(1.54378 3.02966 2.04913e-16)
(0.913932 2.34905 0)
(0.409443 -0.0511757 -1.7764e-16)
(0.3023 2.85741 3.11025e-20)
(0.401658 2.85108 3.77274e-16)
(0.711605 1.61707 -1.04997e-17)
(0.0688148 2.87722 6.96623e-17)
(0.547011 2.70249 2.35224e-16)
(0.515857 2.59084 -3.05794e-16)
(0.109514 0.420195 0)
(0.0575803 -0.0857935 -2.25463e-16)
(0.285806 2.857 -8.90718e-18)
(0.234695 1.42762 -5.18255e-16)
(0.130378 1.1066 2.79847e-20)
(-0.473812 -0.0899413 -1.91614e-16)
(1.03642 -0.0675399 -1.86349e-16)
(0.629362 -0.034421 -1.55611e-16)
(0.242258 2.41946 -3.08989e-19)
(0.917401 1.27911 0)
(0.157 -0.542851 0)
(0.536768 2.6664 -1.21722e-16)
(0.970527 0.275168 -1.02037e-16)
(0.62908 0.196804 -5.91196e-17)
(0.630648 -0.0494341 -9.92952e-17)
(0.274451 2.97846 -1.02474e-16)
(0.715097 2.90408 0)
(0.346554 2.83427 -1.6196e-17)
(0.0630351 -0.680252 -2.23636e-17)
(1.50265 0.167352 2.08203e-17)
(1.02996 2.09663 6.59374e-17)
(0.802832 1.53712 2.19409e-17)
(0.867868 2.05396 0)
(0.225715 2.88549 7.00119e-18)
(-0.661885 -0.611801 -8.22786e-17)
(0.500898 -0.557737 8.09061e-17)
(0.639161 -0.0720054 0)
(0.100137 2.05845 -2.18984e-20)
(0.695809 -0.00870171 -7.17337e-17)
(0.245616 1.71905 -2.15767e-16)
(0.0793654 -0.0349292 4.25214e-17)
(2.26373 1.17307 0)
(-0.318665 -0.459762 -3.78866e-16)
(0.335368 2.26068 -2.9038e-16)
(0.266166 2.82059 1.53074e-16)
(0.658912 -0.100599 0)
(0.56861 0.143908 -4.75626e-17)
(0.361029 3.04066 0)
(0.893475 1.45118 0)
(0.300662 2.6922 0)
(0.35105 0.359571 -8.06102e-17)
(0.511405 3.22041 2.08959e-16)
(0.496036 3.09475 8.55895e-17)
(0.899126 1.74676 8.84628e-16)
(0.695513 -0.131391 -5.36299e-17)
(-0.304565 -0.48367 -2.91675e-18)
(0.00218507 1.14558 1.36001e-20)
(0.252971 2.92349 -6.00407e-18)
(2.83594 0.885099 -1.66495e-16)
(0.239109 2.74467 1.08749e-16)
(0.581452 2.96756 1.00754e-16)
(0.21013 2.88814 -8.15999e-17)
(0.537716 2.77659 1.35101e-16)
(0.456356 0.0868443 -4.41321e-16)
(0.308217 2.99084 0)
(0.781395 1.0775 -7.71107e-18)
(0.752765 -0.153609 3.96533e-17)
(-0.263662 0.501167 9.67834e-17)
(0.82597 0.122262 1.00005e-16)
(-0.439066 -0.154484 1.67622e-16)
(1.30768 -0.0418039 -1.92412e-16)
(1.37298 -0.0894737 -7.21033e-19)
(0.302973 2.69483 1.3709e-19)
(0.255087 2.93584 0)
(0.136141 -0.366352 0)
(0.424274 0.527366 4.24599e-17)
(-0.935726 0.0469536 1.15026e-20)
(0.60203 -0.012737 1.96141e-16)
(0.578693 -0.0132686 0)
(0.0572571 -0.352012 1.42574e-16)
(1.05123 0.564995 0)
(0.0188946 -0.0415688 0)
(0.196551 1.3944 7.23004e-17)
(0.41888 -0.0559456 -1.71678e-16)
(-0.772499 -0.0192351 -4.6407e-17)
(-0.290142 2.40265 -3.18402e-17)
(0.351921 2.30113 7.33818e-17)
(0.828951 -0.146552 -1.30534e-17)
(0.122088 1.16142 2.85546e-16)
(0.247172 0.419367 1.26491e-16)
(0.0420762 2.3589 -1.63435e-16)
(0.97674 0.0602236 4.03291e-17)
(1.46836 1.30096 8.6992e-17)
(0.544376 0.0265569 -1.94408e-16)
(0.613353 0.782266 8.7287e-17)
(0.51543 1.80032 -1.98147e-16)
(0.392395 2.73763 2.04624e-16)
(0.208647 0.0332029 -1.93208e-16)
(1.07002 1.42088 8.6165e-17)
(0.16548 2.407 3.29276e-20)
(0.3919 1.29911 1.22651e-16)
(0.100207 2.89028 -2.31302e-17)
(0.665574 2.11948 0)
(0.314431 3.04478 0)
(0.41039 2.73112 -2.49563e-16)
(-0.817402 -0.431836 8.50629e-17)
(0.569479 -0.404964 -1.75945e-16)
(-0.698453 -0.061291 1.08884e-17)
(3.47467 0.0843294 1.87351e-17)
(-0.329182 -0.592138 0)
(0.928977 -0.389828 1.75188e-16)
(-0.06024 2.57167 0)
(1.23208 1.49362 0)
(0.388853 2.90548 -1.12991e-16)
(0.912442 -0.082371 0)
(0.083615 0.0896021 -4.94515e-16)
(0.933676 2.01354 4.41245e-16)
(0.774376 2.42783 8.00379e-17)
(0.262643 -0.421386 -8.76586e-17)
(0.619191 1.84737 -7.54553e-17)
(0.293935 2.85154 -1.69774e-16)
(0.614706 -0.00407898 -2.60813e-16)
(0.897335 2.11847 1.61004e-16)
(0.64726 0.53524 -1.47852e-17)
(0.173069 1.80127 -2.78985e-16)
(3.17903 0.289424 -8.76256e-17)
(0.430097 2.71118 6.26974e-17)
(0.271693 2.60234 0)
(0.445771 0.811798 -2.39422e-16)
(0.852658 0.0665448 9.4188e-18)
(0.757776 0.0669691 -3.59412e-17)
(0.3654 2.86305 -6.90988e-20)
(0.976789 0.069832 -9.5164e-18)
(0.686824 0.0624993 0)
(-0.0842256 -0.0539555 -2.95398e-16)
(0.554512 3.30943 0)
(1.67805 -0.158995 3.52425e-16)
(1.12148 0.0722517 -7.49426e-17)
(0.570471 0.0393369 0)
(0.0887072 0.645064 7.64142e-16)
(-0.0218247 1.52674 1.49568e-16)
(0.455425 0.0219071 -3.30875e-16)
(0.533843 0.0202999 -4.24465e-16)
(0.668825 0.278999 2.61145e-17)
(-0.0204483 0.924669 0)
(1.96518 1.23163 2.20755e-16)
(-0.711494 0.29208 8.07325e-17)
(2.30503 0.027147 1.2099e-16)
(0.153331 -0.109042 1.53706e-16)
(0.607226 1.17033 4.53428e-17)
(0.729094 2.04307 3.59175e-17)
(-0.150283 2.50353 3.05093e-20)
(0.705777 2.71692 -8.51442e-19)
(0.485007 2.8047 0)
(-0.451207 0.952794 4.44816e-17)
(0.700595 0.287634 0)
(1.87905 0.0585077 -6.39525e-19)
(1.02939 0.53967 -1.02096e-19)
(0.665841 0.95067 4.75666e-17)
(0.319675 0.615569 -1.32408e-16)
(1.14466 0.598593 0)
(0.625147 2.82582 -6.33447e-17)
(0.929887 1.36863 -2.95132e-16)
(2.08854 0.0436948 -2.49377e-16)
(-0.516468 0.388397 0)
(-0.63826 -0.245252 -7.68962e-20)
(1.445 2.18558 -1.48566e-16)
(1.69309 0.299916 4.81062e-16)
(1.97146 -0.181576 4.7497e-16)
(0.559833 -0.0027725 -4.59513e-16)
(0.796497 1.27143 -1.88028e-17)
(0.392774 0.0433142 2.00309e-16)
(0.275771 0.552265 -3.23432e-17)
(1.69988 1.27463 -1.59982e-16)
(0.460878 0.156164 -1.78564e-20)
(1.12261 2.05693 1.06199e-16)
(0.551663 1.66973 7.43044e-16)
(0.158366 2.19848 3.73141e-21)
(0.0595876 0.0474613 0)
(0.441986 0.0580468 8.92226e-17)
(0.734248 1.36386 -7.87848e-23)
(0.829012 0.673808 -9.58103e-17)
(-0.0384788 -0.451498 -9.23248e-17)
(0.605605 -0.0166862 4.42147e-17)
(-0.00246601 0.393684 -3.31767e-16)
(-0.0320731 1.25757 1.14736e-16)
(0.272449 1.37237 -7.83662e-17)
(1.27961 0.29997 1.46901e-16)
(-0.0254849 0.326323 2.1418e-16)
(0.207141 1.40814 2.85288e-16)
(0.0927517 1.7014 -1.93825e-16)
(0.503532 2.61005 -3.88281e-16)
(0.465201 2.33601 -2.43638e-19)
(0.418595 -0.0350463 6.62072e-20)
(2.53761 1.15774 2.19099e-16)
(0.136234 1.00581 -2.52989e-16)
(-0.0186374 1.83603 0)
(0.859101 2.01207 2.5484e-16)
(0.09673 -0.361612 -9.99837e-17)
(-0.455926 -0.252123 3.98004e-17)
(-0.25642 1.09658 2.41903e-17)
(-0.750832 0.0993061 4.19351e-17)
(0.392782 2.63378 1.18069e-16)
(0.656745 -0.0256385 -1.24322e-16)
(-0.183406 -0.450908 9.30532e-17)
(1.18126 2.98858 2.13946e-16)
(0.598394 2.38528 -3.79388e-16)
(-0.767966 0.0508029 -2.11787e-17)
(0.529198 -0.083771 -3.697e-16)
(0.377709 2.3697 0)
(-0.0838064 1.44157 -6.72843e-17)
(0.711078 2.6246 -6.0222e-19)
(0.116508 2.21088 -5.76581e-17)
(-0.641216 -0.0776652 -4.15265e-17)
(0.00340092 2.16999 -2.28618e-16)
(0.744291 3.06354 5.75099e-17)
(0.380394 1.97051 -1.93277e-16)
(0.104044 0.0660546 -3.17714e-18)
(0.814456 2.61781 -6.68051e-17)
(0.561543 1.94807 7.61815e-17)
(0.613772 0.00731995 0)
(0.627495 -0.0133519 0)
(-0.0864772 2.48388 -3.48214e-18)
(0.59783 -0.00408324 -4.3034e-16)
(0.604143 -0.0810453 2.43219e-16)
(0.333375 -0.367561 0)
(0.914695 0.0181558 0)
(0.300812 0.954525 -1.80769e-17)
(-0.363241 0.0888009 -9.40454e-17)
(0.109798 0.0442418 1.50553e-16)
(0.148789 -0.179655 1.65179e-16)
(-0.344412 0.556083 1.00279e-16)
(1.03731 3.71904 -6.26491e-16)
(0.670075 1.10102 0)
(0.741021 0.719814 -1.04807e-16)
(-0.745686 0.454761 -7.0571e-17)
(0.434979 0.0424314 0)
(0.523962 -0.068434 -1.76842e-16)
(3.52482 0.554741 -1.81991e-16)
(0.463897 2.75264 5.87152e-16)
(0.770572 0.0992195 -1.12778e-16)
(0.671321 2.16286 -1.86988e-16)
(1.42239 1.53525 0)
(1.65933 1.56166 0)
(0.578408 2.71126 1.35839e-16)
(0.624487 2.07137 -6.72962e-17)
(0.238813 2.46397 1.60217e-16)
(0.49948 0.650141 0)
(0.790747 2.02672 7.66527e-17)
(0.322648 2.51682 -2.06923e-19)
(0.589057 -0.0110925 0)
(0.0104536 -0.173198 0)
(0.431873 1.01701 4.92654e-17)
(0.296648 -0.00831995 0)
(-0.570842 0.432606 2.76272e-17)
(1.67072 0.0695106 1.3481e-16)
(0.529189 3.21277 1.47369e-16)
(0.732897 0.0742811 3.63368e-16)
(0.202832 3.12492 -9.47223e-17)
(0.0670346 2.67264 -1.61524e-16)
(1.15249 -0.340892 1.7514e-16)
(0.224989 -0.671807 0)
(0.154888 2.26636 -6.37871e-17)
(0.475421 -0.136341 1.96398e-16)
(0.994076 2.13909 0)
(-0.62807 0.132424 -1.50834e-16)
(0.239056 -0.162315 0)
(0.584652 -0.00146505 -2.51775e-16)
(0.331057 1.89611 0)
(-0.549525 0.48241 -2.08894e-16)
(-0.75852 -0.0844824 4.68478e-18)
(0.620385 -0.0131565 1.37236e-16)
(0.537227 2.17555 5.79739e-16)
(-0.508687 1.82508 0)
(0.59988 2.08124 2.18715e-18)
(0.634622 2.62623 1.59151e-16)
(0.492941 1.85785 -1.47208e-16)
(-0.370788 -0.408216 3.95848e-17)
(0.125245 0.0797511 -1.60751e-16)
(0.374364 -0.0741561 1.88276e-16)
(0.144223 2.42547 3.3925e-17)
(-0.827931 0.200403 5.03111e-18)
(0.0366021 2.50231 -4.38337e-16)
(0.674961 3.52052 -1.24157e-16)
(0.661516 2.67303 2.33587e-16)
(1.9467 0.0716003 2.73861e-16)
(0.438384 0.346381 -1.0041e-16)
(0.620864 -0.0161915 -9.39938e-17)
(0.178785 0.117329 -7.77936e-17)
(0.635469 0.0698183 3.89786e-16)
(0.206194 -0.259978 1.96752e-16)
(0.254648 2.62682 8.44988e-17)
(0.0632108 -0.0650196 0)
(0.0682058 -0.0791017 0)
(0.104581 0.426679 -1.9069e-16)
(2.47989 0.313142 2.20585e-16)
(-0.00497346 2.91519 -2.40849e-17)
(0.331747 -0.186328 -3.13799e-16)
(0.309838 0.324775 7.65866e-18)
(0.343858 1.23446 -8.3079e-17)
(1.10874 2.22478 4.74243e-16)
(0.391658 -0.0157194 1.11635e-16)
(0.618563 -0.0215397 4.67219e-17)
(0.730563 -0.0455053 0)
(1.93064 1.57793 1.29943e-16)
(0.657404 -0.201243 0)
(0.515162 0.739837 0)
(0.0905087 -0.0465393 -4.27636e-18)
(0.408054 2.74882 0)
(0.647186 -0.00964498 0)
(0.561426 0.844176 0)
(0.085923 0.573994 0)
(3.28706 1.67747 -4.27006e-16)
(0.445348 2.19324 -1.84475e-16)
(-0.265 2.4258 -1.18514e-16)
(0.499955 0.265466 -4.37014e-18)
(-0.347473 1.25257 -4.33856e-16)
(0.943058 1.51565 -3.49521e-16)
(0.421004 2.77362 2.56767e-16)
(-0.0288308 2.04177 -5.33037e-16)
(0.353851 2.71122 2.83255e-16)
(-0.0907947 1.4536 6.52044e-17)
(0.623377 -0.117725 0)
(0.287753 0.150728 0)
(0.539778 0.888799 2.26133e-16)
(-0.0416407 -0.0363644 9.75022e-16)
(0.748486 1.85171 2.74586e-16)
(-0.525265 1.52416 0)
(0.906779 0.605231 0)
(0.522153 2.69564 1.64318e-16)
(-0.492268 -0.058237 2.38855e-17)
(0.254654 2.85147 -1.31709e-16)
(0.616376 -0.0326234 -1.36714e-16)
(0.597324 2.83121 -2.77248e-16)
(0.555634 -0.236508 -3.00764e-18)
(-0.0795076 0.542069 3.44737e-17)
(-0.0629473 0.456619 -1.21367e-17)
(0.0447874 0.407634 0)
(-0.018446 0.405449 -5.1893e-17)
(0.0528505 1.52573 0)
(0.0468145 1.49669 0)
(0.0561578 1.46271 0)
(0.0587272 1.30135 0)
(-0.0795771 0.640681 0)
(0.0306692 1.18774 0)
(-0.0102885 1.18516 0)
(-0.0654554 0.733727 -2.22077e-17)
(-0.0414532 0.806195 -2.15357e-17)
(-0.00352691 0.833251 2.18467e-17)
(-0.087124 2.90318 1.21722e-17)
(0.03897 0.795698 1.13621e-17)