/*--------------------------------*- C++ -*----------------------------------*\
| =========                 |                                                 |
| \\      /  F ield         | OpenFOAM: The Open Source CFD Toolbox           |
|  \\    /   O peration     | Version:  v1912                                 |
|   \\  /    A nd           | Website:  www.openfoam.com                      |
|    \\/     M anipulation  |                                                 |
\*---------------------------------------------------------------------------*/
FoamFile
{
    version     2.0;
    format      ascii;
    class       volScalarField;
    location    "0.42";
    object      nut;
}
// * * * * * * * * * * * * * * * * * * * * * * * * * * * * * * * * * * * * * //

dimensions      [0 2 -1 0 0 0 0];


internalField   nonuniform List<scalar> 
1466
(
0.00165873
0.00201615
0.00154681
0.00469719
0.00158445
0.00242617
0.00347402
0.00218861
0.000738851
0.00230448
0.0029473
0.00229556
0.000731591
0.00133982
0.005756
0.00595832
0.00204222
0.00102411
0.00504309
0.0036736
0.00552503
0.00812278
0.003987
0.00337523
0.000750857
0.00430567
0.00509963
0.00422648
0.000833715
0.00342403
0.00340386
0.00391328
0.00198501
0.0115005
0.00285431
0.00238195
0.0113977
0.00201855
0.0021111
0.00127189
0.00152068
0.00195876
0.00189605
0.00131567
0.001063
0.00163727
0.00193427
0.00073381
0.00154362
0.000822017
0.00112351
0.00162863
0.00171908
0.00100933
0.00111382
0.00100011
0.00137506
0.00211843
0.00115557
0.00199601
0.00606165
0.0049781
0.00309414
0.00358229
0.00570177
0.00284859
0.00853713
0.00390967
0.0019078
0.00112038
0.00788786
0.00114408
0.00101084
0.000897384
0.00389136
0.00239809
0.00487741
0.00311613
0.000817975
0.00352086
0.00288212
0.00496637
0.00152761
0.00328229
0.00532745
0.00535323
0.0100133
0.00298487
0.00248511
0.00281929
0.00530206
0.00458273
0.00456418
0.00198198
0.00249384
0.00138761
0.00184852
0.00182836
0.000814894
0.000765465
0.00150921
0.000919913
0.000680096
0.00171518
0.00221912
0.00228518
0.00148711
0.000801498
0.00188351
0.00153198
0.00608727
0.00283033
0.00261636
0.00175323
0.00154793
0.00688818
0.00301527
0.00166186
0.00292401
0.00311025
0.00756315
0.00509416
0.00381042
0.00138517
0.00106725
0.00202714
0.00241495
0.0041498
0.00354433
0.00433123
0.00173499
0.00194698
0.00351483
0.00307396
0.00554745
0.00137327
0.00113141
0.00156936
0.00206629
0.00184134
0.0011364
0.00471343
0.00520342
0.00459583
0.00835531
0.00727516
0.00393011
0.00524458
0.00434724
0.00312837
0.00561186
0.00345502
0.0021987
0.00225092
0.00475542
0.00806613
0.00398248
0.00811056
0.00440895
0.00208386
0.00388004
0.00311641
0.00145797
0.00518546
0.00801273
0.00333854
0.00473785
0.00495161
0.00555583
0.00310231
0.00571754
0.00274459
0.000944431
0.00202137
0.00104459
0.000855541
0.00310711
0.00392361
0.00588243
0.00627396
0.000825579
0.00406489
0.00542811
0.00063341
0.00290013
0.00565824
0.00552062
0.00279771
0.001899
0.00138293
0.00595562
0.00528051
0.00449125
0.0083218
0.00187967
0.0066609
0.00076981
0.0032024
0.00707492
0.00782946
0.00358295
0.00431898
0.00290709
0.00649494
0.00796178
0.00831662
0.00654424
0.00207589
0.00440156
0.00364793
0.00462919
0.00504288
0.0046891
0.00534118
0.00603539
0.00523297
0.00593519
0.00592487
0.00346496
0.00432365
0.00467555
0.00679998
0.00541871
0.00706249
0.00552977
0.0058432
0.00699954
0.00109782
0.00590967
0.00675922
0.00579867
0.00293993
0.00893533
0.0103588
0.00298144
0.0083664
0.0050743
0.0048594
0.00448961
0.00589332
0.00236412
0.00337882
0.00277903
0.00761892
0.00386154
0.00286901
0.00388728
0.000884095
0.00377532
0.00252462
0.00602828
0.00622254
0.00193889
0.00346235
0.00294298
0.00554622
0.00349481
0.00100942
0.00136908
0.00194457
0.0012707
0.00325205
0.00292622
0.00653425
0.00348492
0.000558354
0.00093634
0.00463309
0.00547703
0.00115545
0.00166255
0.00144456
0.00109747
0.00419434
0.00530683
0.00725877
0.00649816
0.00420702
0.00561096
0.00417876
0.00614338
0.00705885
0.00505374
0.00293968
0.0099549
0.00130603
0.00456069
0.00466052
0.000965276
0.00160662
0.00160479
0.00131976
0.000777393
0.000437547
0.003269
0.00103163
0.00158721
0.00173
0.00429028
0.0063655
0.00136429
0.00669373
0.000533462
0.000840393
0.00730985
0.0026363
0.00412671
0.00197398
0.00269196
0.00980656
0.00206155
0.00569762
0.00424611
0.00440034
0.00405894
0.00329803
0.00995688
0.00258586
0.00172756
0.00584934
0.000967657
0.00151642
0.0015025
0.00603071
0.00834353
0.00143398
0.0014374
0.00256826
0.005565
0.00545399
0.00403044
0.00150962
0.0022255
0.00288559
0.00549656
0.00082854
0.00561217
0.00471314
0.00333807
0.00403603
0.00226097
0.00220197
0.00194958
0.00337372
0.00340523
0.000481497
0.00278736
0.00266576
0.00196082
0.00498915
0.00166128
0.000877445
0.00380871
0.0076304
0.0110328
0.0074859
0.00344377
0.000629858
0.000991043
0.00269141
0.0100108
0.00667452
0.00503786
0.00888519
0.00164239
0.00961582
0.00196537
0.00188369
0.00118999
0.00319003
0.00270287
0.00818834
0.00138532
0.00266966
0.00214663
0.0118496
0.00381289
0.00138338
0.0032393
0.00356657
0.0112514
0.00834757
0.0115775
0.0115614
0.00810565
0.00832491
0.00201249
0.0021114
0.0020537
0.00169826
0.00251875
0.00442246
0.0099285
0.00422184
0.00835089
0.00451659
0.00126667
0.00142282
0.0074151
0.000851588
0.00128181
0.00124682
0.00266549
0.00128338
0.00284476
0.0111182
0.00261226
0.00304969
0.009197
0.009248
0.00478715
0.00291705
0.00310753
0.0103791
0.00328017
0.00123226
0.00126423
0.00304172
0.00568161
0.00420819
0.00938948
0.0102582
0.00455273
0.00286063
0.00545182
0.00300378
0.00775023
0.00142011
0.00494694
0.00322304
0.00666181
0.00583519
0.00167146
0.00166244
0.00495873
0.000673402
0.00126509
0.000827712
0.00143843
0.00698883
0.00134403
0.000633589
0.00656308
0.00112812
0.00575252
0.00454256
0.001243
0.00540112
0.00390005
0.00532217
0.0056986
0.00311948
0.000548931
0.000856226
0.00332596
0.000631638
0.00201944
0.00196832
0.000575352
0.00610061
0.0021862
0.00232893
0.00181318
0.00306484
0.00526903
0.00386344
0.00454657
0.00203121
0.00106995
0.00452269
0.0012688
0.00224035
0.0064653
0.00134456
0.00658959
0.00405245
0.00342333
0.00874113
0.0121919
0.00749485
0.00307872
0.00419144
0.00539327
0.0117333
0.0104961
0.00183856
0.00392589
0.00305042
0.00921156
0.00542914
0.0114038
0.00407075
0.00208633
0.00470733
0.00585145
0.00602303
0.0105295
0.00790167
0.00348326
0.010904
0.0113574
0.0126584
0.00279637
0.0076657
0.00127558
0.00997422
0.00316381
0.00651451
0.0034811
0.00851255
0.00572537
0.00959208
0.00756457
0.00161324
0.0104391
0.00996846
0.00191583
0.000843889
0.00124769
0.00214572
0.0109373
0.00141249
0.0115212
0.00211668
0.00895169
0.00215425
0.0013093
0.00456148
0.00237742
0.0113103
0.00159494
0.001664
0.00950286
0.00557176
0.00795359
0.00141526
0.00241148
0.00331569
0.00259998
0.00440231
0.00174315
0.00821073
0.00132579
0.00856962
0.00285701
0.00244157
0.00358482
0.00174263
0.00955052
0.00695199
0.0082133
0.00370066
0.00276938
0.00783685
0.00164995
0.00949804
0.00878153
0.0108392
0.00191093
0.00142249
0.0110548
0.0113597
0.00616467
0.00260381
0.00111194
0.00880622
0.00507275
0.0115161
0.0034069
0.0124206
0.00849669
0.0114931
0.00447687
0.00393187
0.00341922
0.00704793
0.000899558
0.0118544
0.0082078
0.00391911
0.00636962
0.0122965
0.0103989
0.00939622
0.0117449
0.0057896
0.00739788
0.000982988
0.00643266
0.00982578
0.00981573
0.00204274
0.0100156
0.0103406
0.00670396
0.0052431
0.00463882
0.00302485
0.00376529
0.00583935
0.00326998
0.00122195
0.00110873
0.00248786
0.00969678
0.0102893
0.00591762
0.00150892
0.0061248
0.0126619
0.00382208
0.0041134
0.00178117
0.00225497
0.00380097
0.00246789
0.00374415
0.00207515
0.00171096
0.00719425
0.00230672
0.00165842
0.00589546
0.00137171
0.00173946
0.0104798
0.00188319
0.0107498
0.011473
0.0118074
0.00904107
0.00175102
0.0017843
0.00117468
0.0119057
0.00118352
0.00683676
0.00646429
0.00464811
0.00497519
0.00990689
0.00319597
0.00331859
0.00711442
0.0124115
0.00120917
0.0106282
0.0110584
0.00310886
0.00215982
0.0120645
0.000942834
0.00380166
0.00207879
0.0121166
0.0124224
0.00310446
0.00172426
0.00557999
0.000900271
0.0114749
0.00306602
0.00154872
0.00126628
0.0118816
0.00383705
0.00321509
0.00473303
0.00393864
0.00248196
0.00187025
0.00493633
0.0064116
0.00121756
0.00580613
0.00124581
0.00685484
0.00256794
0.00238059
0.00153561
0.00490904
0.0022608
0.00305159
0.00954021
0.000619264
0.00821028
0.000697505
0.000456107
0.00485221
0.000478278
0.0113723
0.00148447
0.00139429
0.00239503
0.000670075
0.000461747
0.00261778
0.0084496
0.000692807
0.00892895
0.0114035
0.00070654
0.000459655
0.00558078
0.0125021
0.0114788
0.00479597
0.0037
0.000477278
0.0121828
0.00508459
0.00732427
0.00156818
0.00362369
0.0100976
0.00481526
0.00179825
0.0106601
0.0114109
0.00393451
0.00216603
0.00768219
0.00944649
0.00317622
0.00176592
0.0120576
0.00487376
0.00214285
0.00596474
0.000497684
0.00864191
0.0028143
0.00948866
0.00132878
0.00815449
0.00738291
0.00113532
0.00701031
0.00139991
0.00909225
0.0116854
0.00521809
0.0125909
0.00106458
0.00313327
0.00429022
0.000730859
0.000552628
0.00684618
0.00263997
0.00486889
0.00456142
0.00378333
0.00119568
0.00373727
0.006267
0.00558254
0.00516631
0.00119331
0.00398423
0.00519238
0.00263933
0.00745632
0.00426397
0.0109492
0.0029787
0.00436924
0.00364392
0.00607373
0.00562582
0.00535497
0.00456491
0.00399454
0.00552034
0.00834973
0.00569847
0.00365475
0.000564339
0.00449055
0.00247647
0.003372
0.00657355
0.00457849
0.00168237
0.0118535
0.00124171
0.0063853
0.0111473
0.0111354
0.00317351
0.00790325
0.0120018
0.00573513
0.00418377
0.00430634
0.00131764
0.00877998
0.00315014
0.00230507
0.00234299
0.00464585
0.00732171
0.011722
0.00219117
0.00165182
0.00124041
0.000439887
0.00110064
0.00842211
0.00529053
0.00116913
0.00523196
0.00423165
0.0034122
0.00771075
0.00223888
0.00533672
0.00445324
0.00540439
0.0074747
0.00305421
0.0104163
0.00232112
0.00406695
0.00322132
0.00535241
0.0050004
0.00114936
0.00136949
0.00406807
0.0036585
0.00516937
0.00589305
0.0102444
0.00184554
0.00339256
0.00326123
0.000515453
0.00535377
0.00639122
0.00740185
0.0111271
0.0109934
0.00255774
0.00972973
0.00184533
0.000742846
0.011202
0.00280058
0.00441949
0.0077478
0.00263611
0.0042762
0.0048547
0.00908098
0.00519948
0.00299549
0.00281311
0.00368544
0.00429172
0.00980941
0.0120213
0.000886848
0.0037491
0.00463597
0.00113446
0.00389912
0.00199693
0.00463311
0.00701603
0.0103829
0.00245101
0.00837162
0.00452223
0.0124703
0.00215755
0.0110118
0.00114275
0.00108491
0.00113295
0.000914093
0.000955638
0.00103071
0.000862424
0.00130657
0.00131626
0.00134371
0.00131274
0.00124007
0.00117614
0.00121754
0.00125532
0.00133605
0.000935725
0.00105569
0.00129161
0.00120713
0.00135187
0.00115068
0.00112422
0.00113247
0.00116816
0.00109443
0.00291906
0.000731445
0.000566704
0.0096989
0.00235219
0.00211225
0.00209635
0.00143258
0.0054134
0.00980383
0.00404338
0.0121366
0.00371755
0.000711995
0.00116105
0.00578411
0.00207995
0.00963866
0.00604245
0.00351987
0.00458864
0.00243173
0.0113992
0.00762958
0.0011772
0.00436687
0.00284986
0.000912679
0.000485875
0.000839629
0.00241877
0.00439232
0.00919969
0.0102666
0.00133169
0.00289139
0.00486506
0.00225642
0.00398887
0.00155934
0.0106704
0.00514638
0.0031011
0.00467915
0.0011338
0.00195825
0.00131637
0.00777505
0.00380395
0.00380084
0.00794903
0.00329718
0.00923956
0.00402873
0.00566853
0.00725593
0.0034041
0.0111613
0.00161796
0.00106783
0.000748264
0.00406551
0.00630847
0.00114759
0.00387083
0.00420746
0.00939292
0.0012963
0.00606101
0.00829927
0.00592351
0.00468716
0.00192115
0.00726785
0.00619559
0.00263002
0.00494653
0.00201104
0.00457706
0.00549538
0.0124849
0.00118012
0.00112387
0.0114202
0.00367726
0.00774809
0.00352455
0.00262324
0.00158904
0.00638323
0.00299744
0.00698162
0.00989347
0.00380473
0.00914258
0.00130455
0.00212329
0.0104998
0.00571328
0.0114267
0.00110818
0.00109452
0.00525607
0.00326981
0.00133687
0.00551828
0.000736335
0.0014822
0.00745344
0.00104767
0.000417247
0.00237741
0.000928297
0.00758014
0.00604018
0.00194928
0.00921395
0.000921294
0.00148473
0.0101224
0.00324107
0.00867897
0.00121812
0.00114325
0.00435382
0.00357929
0.00377486
0.00570144
0.00635073
0.0069348
0.00271797
0.00251176
0.00720707
0.00470719
0.00464802
0.00799132
0.00079515
0.00656281
0.000818578
0.0027163
0.0015298
0.000732142
0.00227187
0.00266968
0.000640883
0.00296013
0.0104704
0.0045076
0.00334336
0.00367358
0.00530551
0.00091971
0.00144827
0.00507562
0.00786846
0.00543599
0.00147117
0.0017773
0.000914118
0.000704334
0.000741799
0.00303393
0.00891447
0.00108793
0.0044373
0.00406143
0.00027499
0.0070316
0.00699161
0.000590881
0.00240874
0.000598493
0.00242706
0.000929105
0.000585564
0.000599715
0.00412175
0.00250666
0.000726054
0.00111658
0.00048917
0.000531812
0.000514511
0.00048817
0.000981229
0.00100344
0.000546284
0.000608543
0.00062742
0.000612625
0.000906318
0.0119441
0.00741326
0.00488278
0.00622587
0.00490089
0.0105023
0.00491318
0.00118434
0.0011016
0.00953803
0.00568134
0.00322981
0.00193566
0.00609353
0.00336293
0.0101528
0.0110132
0.000483763
0.00734671
0.00243691
0.00391797
0.000703174
0.00288053
0.00268543
0.00648374
0.00153291
0.00545649
0.00711674
0.00323324
0.000931629
0.00103795
0.000858478
0.00240996
0.00557147
0.00306947
0.00426004
0.00258362
0.00298093
0.0046842
0.00228924
0.00318438
0.00618914
0.0038948
0.00520011
0.00968302
0.00933187
0.0122658
0.00234215
0.00140701
0.00524129
0.0043679
0.00405902
0.00403255
0.00196748
0.00527994
0.00279953
0.0125366
0.00103145
0.00103902
0.0105502
0.00285387
0.00140153
0.00246358
0.00325468
0.00376429
0.0109784
0.00117451
0.00352017
0.00105821
0.000970363
0.00518754
0.0123212
0.00237232
0.0096915
0.00704357
0.00343971
0.00575109
0.00890278
0.00454676
0.00216143
0.00169717
0.00985485
0.0030865
0.00998881
0.00784821
0.0103263
0.0124639
0.0015513
0.00474649
0.00465729
0.00367124
0.00247702
0.0107472
0.00509381
0.00175793
0.00449463
0.0057457
0.0017835
0.0101726
0.00734427
0.00527961
0.00321639
0.00302872
0.00122939
0.00283912
0.00517282
0.00341886
0.00297819
0.00374067
0.00249638
0.00243763
0.00631022
0.00938288
0.000944329
0.0020306
0.00381684
0.000992987
0.00353122
0.00425979
0.00421286
0.00310546
0.000900153
0.00387581
0.000892667
0.00305859
0.0119511
0.0122568
0.00176255
0.00282278
0.00086515
0.00973457
0.00247575
0.00166029
0.00656933
0.00311807
0.00962465
0.00996872
0.00390832
0.00375171
0.0015924
0.00424272
0.00134686
0.00731709
0.00179742
0.00149998
0.00658985
0.00139566
0.0102107
0.0031761
0.00227293
0.00293723
0.00650234
0.00572973
0.000970198
0.00997805
0.00189965
0.000843316
0.0109359
0.00797404
0.00348624
0.00310936
0.00186353
0.0102859
0.00237535
0.00817277
0.00341316
0.00336871
0.00542993
0.00500616
0.00743008
0.010623
0.0113254
0.00232462
0.00213411
0.00170552
0.0044711
0.000768671
0.00313191
0.00340934
0.00049953
0.0109275
0.00136255
0.00323052
0.0106924
0.00339351
0.00655634
0.00393683
0.000911793
0.00327601
0.00436445
0.00212658
0.00164166
0.00235595
0.00295806
0.00692032
0.0101106
0.0115145
0.00516255
0.00181375
0.00105377
0.00384698
0.000869877
0.00153934
0.00580217
0.000970779
0.00442789
0.00524419
0.00692996
0.00607826
0.00386155
0.0081897
0.000893922
0.00407525
0.00671207
0.00540301
0.00220126
0.00403533
0.00244749
0.00467183
0.00292292
0.00420041
0.00625844
0.0118642
0.000967708
0.00043497
0.00384358
0.00396674
0.00295856
0.0107484
0.00655405
0.000741156
0.00308683
0.000547458
0.000877778
0.00145061
0.00218234
0.00329188
0.00922357
0.00043468
0.0114428
0.00306006
0.00678465
0.00190895
0.00122029
0.00782202
0.00105233
0.00393787
0.00245415
0.00391865
0.00735729
0.00130352
0.00343375
0.00319852
0.00310054
0.00209247
0.00292665
0.00112896
0.00551689
0.00299728
0.0077337
0.00111933
0.00344103
0.00305443
0.00395739
0.00301916
0.00320725
0.0100684
0.00283157
0.00315492
0.00267299
0.00298951
0.00851677
0.00280215
0.0015635
0.000268833
0.000412227
0.00275867
0.00491804
0.00282248
0.00625604
0.00464474
0.00116015
0.00208912
0.00984349
0.00647255
0.00443925
0.00351182
0.00338895
0.00554473
0.0109227
0.00236909
0.00268205
0.00473057
0.00248257
0.0062567
0.00260676
0.0030569
0.00563499
0.00359813
0.00508184
0.00480221
0.00301525
0.00533729
0.00201823
0.00402928
0.00319069
0.00147922
0.00522266
0.00333891
0.00515873
0.00404409
0.00358179
0.00330365
0.00691505
0.00438961
0.00627763
0.00330432
0.0100964
0.0104963
0.00451652
0.00122822
0.00704889
0.00260191
0.00292718
0.0025965
0.00299043
0.00323835
0.00394585
0.00480573
0.00322863
0.00339996
0.000738558
0.00358879
0.00417171
0.00308402
0.00539075
0.00168189
0.00209159
0.000911669
0.00167249
0.000871971
0.00103286
0.00159679
0.00220672
0.000847155
0.00101584
0.0013454
0.000761904
0.00126807
0.00195459
0.00117743
0.000725633
0.00167391
0.00232672
0.0014682
0.00135289
0.000993394
0.00170234
0.000722905
0.000829147
0.000952155
0.00134705
0.00124167
0.00112627
0.00249166
0.000605545
0.000568675
0.00179324
0.000900234
0.00128187
0.00117842
0.00235803
)
;

boundaryField
{
    frontAndBack
    {
        type            empty;
    }
    wallOuter
    {
        type            nutkWallFunction;
        Cmu             0.09;
        kappa           0.41;
        E               9.8;
        value           nonuniform List<scalar> 
108
(
0.000121671
0.000134895
0.000119659
6.48704e-05
5.85316e-05
7.48935e-05
8.40585e-05
5.5278e-05
5.80067e-05
8.08644e-05
5.59364e-05
8.34998e-05
8.51196e-05
5.57323e-05
5.78084e-05
6.04733e-05
0.000133816
8.7897e-05
6.71685e-05
6.83693e-05
5.34484e-05
0.000137569
6.25054e-05
8.92783e-05
0.000134408
0.000128047
0.000133295
0.00010902
0.000113637
0.000122163
0.000103119
0.000152763
0.000153781
0.000156758
0.000153449
0.000145483
0.000138446
0.000143042
0.000147131
0.000155915
0.000111681
0.000125139
0.000151062
0.000141796
0.000157616
0.000135568
0.000132701
0.000133606
0.000137544
0.000128999
6.8758e-05
8.57153e-05
0.000138534
5.88546e-05
0.000133883
0.00012639
8.98993e-05
0.00013263
0.000129455
5.05537e-05
0.000110086
0.000143175
0.00013408
9.79852e-05
8.80282e-05
7.74941e-05
0.000109483
8.48336e-05
8.91439e-05
0.000128623
3.25119e-05
3.25119e-05
7.15637e-05
7.25323e-05
7.09892e-05
7.26709e-05
0.000131786
5.93511e-05
6.45377e-05
6.24029e-05
5.92443e-05
0.000116399
0.000118872
6.61953e-05
7.36486e-05
7.59139e-05
7.41837e-05
0.000107979
0.000139436
0.000129538
5.85893e-05
8.49507e-05
0.000110727
0.000123104
0.000122012
0.000122849
0.000125398
0.000115016
0.000106417
6.05317e-05
0.000104227
0.000115205
5.27116e-05
6.65308e-05
5.26786e-05
3.17278e-05
4.98472e-05
0.000136658
)
;
    }
    inlet
    {
        type            calculated;
        value           nonuniform 0();
    }
    outlet
    {
        type            calculated;
        value           nonuniform 0();
    }
    wallInner
    {
        type            nutkWallFunction;
        Cmu             0.09;
        kappa           0.41;
        E               9.8;
        value           nonuniform List<scalar> 
126
(
0.000227217
0.000237974
0.00015339
0.000176104
0.000221914
0.000215439
0.000152796
0.000128648
0.000189698
0.000219858
8.88059e-05
0.000177798
9.70823e-05
0.000132443
0.000186971
0.000196789
0.000120155
0.0001298
0.000118538
0.000160476
0.000238773
0.000134205
0.000225739
9.99455e-05
0.000159769
0.000210238
0.000208659
9.75719e-05
9.17334e-05
0.00017448
0.000109597
8.24797e-05
0.00019594
0.000249093
0.000255339
0.000171914
9.66164e-05
0.00021418
0.000176793
0.000200399
0.000178322
0.000159339
0.000128252
0.000198469
0.000220577
0.00016007
0.000137939
0.000179493
0.000130716
0.000169235
0.000123614
9.18266e-05
0.000159433
0.000220904
0.000148737
6.71352e-05
0.000111437
0.000191071
0.000167606
0.000129681
0.000153286
5.44788e-05
0.000122345
0.000182825
0.00011517
0.000175303
0.000174097
7.61392e-05
0.000139942
0.000160765
0.000160572
0.000164843
9.75911e-05
0.000164506
0.00019203
0.000190506
7.81577e-05
9.81153e-05
7.62898e-05
6.65864e-05
7.68348e-05
7.01725e-05
0.000185416
0.000190713
0.000189269
0.000214362
0.000197495
0.000201961
0.000134568
0.000226308
0.000172114
0.000152312
0.000132826
0.000192911
0.000108633
0.000192066
0.000104068
0.000116574
0.000184179
0.000102191
0.000119321
0.000156501
9.27086e-05
0.000148157
0.000221799
0.000138179
8.74936e-05
0.000191818
0.000259775
0.000169897
0.000157603
0.000117923
0.000194679
8.69675e-05
9.91791e-05
0.000113131
0.000157075
0.000146175
0.000136337
0.00027675
7.32039e-05
6.85916e-05
0.000204756
0.000106524
0.00014963
0.000138425
)
;
    }
    procBoundary1to0
    {
        type            processor;
        value           nonuniform List<scalar> 
29
(
0.00336988
0.00336988
0.00158914
0.00365408
0.00600782
0.0024989
0.00274125
0.00142241
0.0023725
0.00288723
0.0024096
0.0024989
0.00158914
0.00216026
0.00199891
0.00107351
0.00600782
0.00512273
0.00365408
0.00357673
0.000820014
0.000742213
0.00305045
0.0007043
0.0007043
0.00305045
0.000722687
0.000898161
0.000722687
)
;
    }
    procBoundary1to2
    {
        type            processor;
        value           uniform 0.00252358;
    }
    procBoundary1to3
    {
        type            processor;
        value           nonuniform List<scalar> 
48
(
0.0112592
0.00676237
0.00925498
0.00925498
0.0040101
0.00470417
0.00470417
0.00282551
0.00984414
0.00132184
0.00150062
0.00132184
0.00123631
0.00271348
0.00256736
0.00123631
0.00123287
0.00123287
0.00151253
0.00151253
0.00424956
0.0044967
0.00172361
0.0024507
0.0024507
0.00148129
0.00414817
0.00414817
0.00338657
0.00284059
0.00153487
0.00338657
0.00282551
0.00776405
0.0016483
0.00284059
0.00363751
0.00150062
0.0110169
0.00307728
0.00357388
0.00566553
0.00776405
0.0016483
0.0023416
0.00107068
0.0038215
0.00357388
)
;
    }
}


// ************************************************************************* //
