/*--------------------------------*- C++ -*----------------------------------*\
| =========                 |                                                 |
| \\      /  F ield         | OpenFOAM: The Open Source CFD Toolbox           |
|  \\    /   O peration     | Version:  v1912                                 |
|   \\  /    A nd           | Website:  www.openfoam.com                      |
|    \\/     M anipulation  |                                                 |
\*---------------------------------------------------------------------------*/
FoamFile
{
    version     2.0;
    format      ascii;
    class       volScalarField;
    location    "0.3";
    object      nut;
}
// * * * * * * * * * * * * * * * * * * * * * * * * * * * * * * * * * * * * * //

dimensions      [0 2 -1 0 0 0 0];


internalField   nonuniform List<scalar> 
1466
(
0.00106201
0.00206281
0.00128177
0.00360679
0.0017906
0.00223491
0.00221321
0.00213116
0.000737305
0.00239488
0.00307464
0.0024892
0.000716513
0.00179105
0.00464414
0.00592632
0.00168251
0.000982021
0.00492111
0.00316175
0.00501263
0.00828883
0.00379427
0.00290564
0.000738298
0.0036002
0.00530075
0.00384145
0.000558928
0.0033667
0.00367438
0.00425805
0.00142587
0.00528427
0.00270048
0.00114616
0.00491659
0.00177538
0.00210759
0.00121478
0.00114907
0.00210323
0.00208913
0.00102571
0.000818976
0.0011857
0.0021046
0.000979832
0.00178196
0.000861284
0.0011007
0.00167038
0.0018907
0.00135187
0.000763665
0.00100328
0.000906186
0.00227088
0.000869268
0.00203313
0.00536588
0.0027542
0.00335263
0.00375551
0.00532339
0.00246508
0.00722796
0.00365429
0.00176378
0.000816615
0.00772118
0.00118256
0.000957879
0.00088812
0.00297459
0.0021787
0.00277428
0.00326022
0.00114853
0.00345116
0.00293743
0.00515095
0.00112117
0.00311987
0.0051012
0.00421155
0.00477729
0.00291751
0.0024733
0.00263244
0.00466479
0.00473604
0.00386607
0.00189825
0.00224532
0.000968846
0.00189367
0.00198219
0.000818509
0.00106575
0.00156101
0.000814085
0.000862229
0.00195911
0.00247283
0.00222156
0.00169427
0.00108679
0.00200197
0.000982247
0.00530076
0.00265054
0.00153384
0.00190661
0.00161041
0.00692203
0.00316551
0.00176351
0.00246112
0.00258944
0.00573634
0.00274541
0.00380054
0.0010968
0.000792792
0.00164924
0.00226585
0.00358081
0.00316413
0.00448422
0.00174736
0.00206833
0.00328875
0.00269088
0.00577439
0.000968587
0.00134317
0.00103871
0.0019482
0.00167034
0.00104442
0.00427407
0.00457326
0.00433076
0.00939177
0.00582474
0.00415967
0.00527991
0.00440809
0.00297204
0.00515847
0.003539
0.00204902
0.00204489
0.0048926
0.00819276
0.00353208
0.00425906
0.00426891
0.00213394
0.00382569
0.0029891
0.0012632
0.00450915
0.00798962
0.00372589
0.00413198
0.00455393
0.00496053
0.00298036
0.00511412
0.00280448
0.000872373
0.00187419
0.00109523
0.000852099
0.00307485
0.00387812
0.0050704
0.00620051
0.000793759
0.00440587
0.00508331
0.000698899
0.00280411
0.00467354
0.00522011
0.00265534
0.00175128
0.00131807
0.00517985
0.00461583
0.00409509
0.00728874
0.00192095
0.00618841
0.000607502
0.00319346
0.00713832
0.00625628
0.00337292
0.0044234
0.00281709
0.00627607
0.00775826
0.00833654
0.00581719
0.0020169
0.00423381
0.00312234
0.00448253
0.00480264
0.00443842
0.00478647
0.0053683
0.00453954
0.0049942
0.00545252
0.00321195
0.00376908
0.00420912
0.00709957
0.0046953
0.00666345
0.00486666
0.00574813
0.00633642
0.00134788
0.00521234
0.00726297
0.00575189
0.0028144
0.00773174
0.00970965
0.00214719
0.00827038
0.00443572
0.00455605
0.00460313
0.00525156
0.00202332
0.00328935
0.00272791
0.00578221
0.00401574
0.00273028
0.00431658
0.000871122
0.00374343
0.00248408
0.00510394
0.00563521
0.00189241
0.00482974
0.002672
0.00563332
0.00307572
0.000986537
0.00133741
0.00185336
0.00128279
0.0029837
0.0025958
0.007204
0.00357816
0.000649841
0.000963744
0.00474625
0.0048303
0.00112256
0.00149429
0.00141038
0.00110518
0.0041262
0.00495699
0.00687338
0.00613254
0.00419326
0.0050595
0.00418832
0.0068556
0.00962519
0.00513912
0.00280367
0.0114887
0.00146216
0.00460043
0.004735
0.000837602
0.00155814
0.0015039
0.000843697
0.000753916
0.000767695
0.00328252
0.00104169
0.00155301
0.00139823
0.00429443
0.00701999
0.00177617
0.00593083
0.000550796
0.000810734
0.00371577
0.00464424
0.0030123
0.00109425
0.00272555
0.0077122
0.00195435
0.00498145
0.00383548
0.00452925
0.00409882
0.00329159
0.0103499
0.00259092
0.00121111
0.00479315
0.00097527
0.0014784
0.00124669
0.00671978
0.00504184
0.00140329
0.0013892
0.00258731
0.00617332
0.00618461
0.00329296
0.00147099
0.00144809
0.0028613
0.00565618
0.000827098
0.00583332
0.0047591
0.00353139
0.00235638
0.00235595
0.00213244
0.0012923
0.00344871
0.00315782
0.000489529
0.00264465
0.00269766
0.00180295
0.00517481
0.00167444
0.000864532
0.00316877
0.00790545
0.0112534
0.00770592
0.00226618
0.000657775
0.000971418
0.00272663
0.0103746
0.00672537
0.00494529
0.00736114
0.00105077
0.0082337
0.00189055
0.00179864
0.00131795
0.00313273
0.00271938
0.00810725
0.0014126
0.0026409
0.00144931
0.00594077
0.00417616
0.00141264
0.00226738
0.00362488
0.004248
0.00363694
0.00456879
0.00478763
0.00401112
0.0038266
0.00127338
0.00124198
0.00113471
0.00133394
0.00336429
0.00485241
0.00632383
0.00473883
0.00342391
0.00302835
0.00150654
0.00145532
0.00455472
0.000751709
0.00139541
0.00132629
0.00270177
0.00126993
0.0027193
0.0112888
0.00269269
0.00243123
0.00954234
0.00894934
0.00352761
0.00301503
0.00310504
0.0102739
0.00314101
0.00156973
0.00159207
0.00276861
0.00473527
0.00214401
0.00903545
0.0102579
0.00222004
0.00294253
0.00250129
0.00539611
0.00764095
0.00144634
0.00225268
0.00525174
0.00628673
0.00389258
0.00187597
0.00172796
0.00523573
0.000765924
0.00141283
0.00111331
0.00197273
0.00655782
0.001521
0.000665698
0.00638008
0.00133472
0.00632329
0.00213455
0.00114298
0.00589785
0.00198526
0.00563522
0.00636293
0.00182217
0.000706459
0.000818741
0.00432479
0.000638648
0.00173322
0.00181896
0.000639263
0.00685871
0.0013427
0.00302995
0.00133928
0.00138142
0.00546969
0.0023358
0.0041389
0.00257967
0.00225823
0.00396875
0.00215965
0.00190916
0.00596417
0.0016028
0.00740755
0.00268052
0.00362009
0.00843674
0.0120295
0.00888597
0.00300369
0.00273765
0.00366914
0.0115038
0.0110455
0.00180515
0.00290847
0.00393261
0.00893795
0.00520868
0.0119666
0.0036887
0.00154038
0.00432055
0.00615045
0.00482717
0.00542701
0.00420053
0.00351649
0.00718611
0.00502716
0.00658622
0.00268355
0.00679499
0.00138009
0.00838465
0.00324772
0.00731427
0.00278771
0.00505382
0.00587479
0.00996595
0.00673739
0.0016646
0.00539271
0.00752251
0.00367494
0.000808628
0.00115606
0.00199814
0.00502172
0.00307623
0.0107394
0.00211447
0.00902643
0.0040385
0.00320332
0.00502489
0.00422115
0.0108803
0.0025524
0.00172592
0.0096742
0.00467113
0.00467292
0.00335061
0.00241717
0.00339859
0.00403741
0.00338073
0.00171989
0.00722534
0.00138955
0.00657658
0.00442058
0.00243388
0.00459563
0.00173181
0.00832156
0.00770681
0.00998724
0.00305465
0.00439292
0.00442438
0.00170653
0.00525341
0.00514872
0.00603822
0.00200641
0.00139888
0.0103338
0.0114245
0.00694475
0.00262999
0.00103935
0.00517305
0.0044995
0.0105567
0.003486
0.00651231
0.00550817
0.0103083
0.00463399
0.00393736
0.00450589
0.00568057
0.000886251
0.00598203
0.00490116
0.00442047
0.00744487
0.00629474
0.00535047
0.0082096
0.00573709
0.00650306
0.00573239
0.000947261
0.00495395
0.00467763
0.00445103
0.00203358
0.0109529
0.00519729
0.00539776
0.0045949
0.00436448
0.00276455
0.00514706
0.00477554
0.00334844
0.00119245
0.00108859
0.00248208
0.00830654
0.0106679
0.00614455
0.00166064
0.0056761
0.00652772
0.00457857
0.00352075
0.00176555
0.00227605
0.00302255
0.00244912
0.00371472
0.002075
0.00160835
0.00569343
0.00230909
0.00142412
0.00605715
0.00135751
0.00158327
0.00505956
0.00186218
0.0112365
0.011705
0.00580083
0.0104973
0.00169033
0.00168373
0.00115442
0.00601505
0.00114649
0.00549392
0.00519846
0.00474543
0.00333975
0.0085411
0.00316833
0.00287523
0.00700619
0.00767102
0.0011834
0.0114988
0.00945416
0.00277851
0.00216212
0.00610692
0.000894873
0.00392193
0.00139961
0.011956
0.00777813
0.00322933
0.00167819
0.00606345
0.000891853
0.0107772
0.00291434
0.00201647
0.00123101
0.0123754
0.00397536
0.00275269
0.00486844
0.00393658
0.00274903
0.00104887
0.00495232
0.0088618
0.00141564
0.00559079
0.00163323
0.00601878
0.00191106
0.00145407
0.00147672
0.00327155
0.00132463
0.00266135
0.00820742
0.000633376
0.00869842
0.000709314
0.00046411
0.00671498
0.00049898
0.0113888
0.0014143
0.00134841
0.00245279
0.000683723
0.000457627
0.0025836
0.0105963
0.000702824
0.00818545
0.0078919
0.000719928
0.000477353
0.00620551
0.00643008
0.00740923
0.00490861
0.00302335
0.000466194
0.00619166
0.00530164
0.00609774
0.00116411
0.00298216
0.00859694
0.0032112
0.00185279
0.00828817
0.0119508
0.0039471
0.00195542
0.00776726
0.00813414
0.00310556
0.00173703
0.00699847
0.00315291
0.00390386
0.00301792
0.000492716
0.010911
0.00232678
0.0114318
0.00187577
0.00714224
0.00738446
0.00114331
0.00555657
0.000819237
0.00797195
0.00544506
0.00487011
0.006704
0.00128783
0.00548063
0.00191297
0.000736001
0.000597418
0.00619088
0.00249502
0.00318675
0.00549642
0.00322831
0.00123457
0.00320745
0.00521621
0.00440072
0.00363707
0.00111887
0.00378011
0.00495635
0.00347159
0.0074035
0.00434904
0.0102364
0.00290315
0.00393002
0.00358407
0.00569749
0.00522573
0.00546101
0.0046938
0.00434338
0.00263062
0.00837103
0.00519619
0.00372892
0.000579962
0.00382955
0.00252305
0.00454009
0.00261321
0.0041604
0.00219531
0.011979
0.00164908
0.00554558
0.00524879
0.00811373
0.00307712
0.00343193
0.0125113
0.00516048
0.00400021
0.00440026
0.0012437
0.00711633
0.00328819
0.00151974
0.00438273
0.00256671
0.00797029
0.00627066
0.00132609
0.00168378
0.00109924
0.000465019
0.00103103
0.00850034
0.00394379
0.0011788
0.00436686
0.00350662
0.00304267
0.00759011
0.00153142
0.00570228
0.0040176
0.00537379
0.00589829
0.002991
0.00853204
0.0020564
0.00404548
0.00514114
0.0024774
0.00434135
0.00109028
0.00128257
0.0033127
0.00360889
0.0054462
0.00556938
0.0103306
0.00125534
0.00283776
0.00224694
0.000534233
0.00443131
0.00490156
0.00589695
0.00837578
0.00995122
0.00149962
0.0117014
0.00190446
0.000746651
0.00568382
0.0028664
0.00542231
0.00911466
0.0024927
0.0033952
0.0050195
0.003073
0.0052676
0.00297514
0.00318776
0.00350915
0.00352384
0.00932184
0.00591743
0.000846499
0.0036916
0.00351975
0.00137091
0.00319318
0.00197617
0.00474686
0.00506169
0.00446694
0.00207804
0.00903661
0.00433683
0.0122473
0.00375671
0.00967258
0.00110415
0.0010569
0.0010876
0.000913942
0.00093852
0.00103519
0.000853988
0.00130935
0.00136681
0.00139867
0.00130462
0.00124374
0.00118141
0.0011944
0.00130087
0.00139511
0.0008892
0.00101531
0.00135487
0.00127321
0.00143565
0.00121937
0.00113126
0.00114277
0.00118115
0.00104379
0.00275045
0.000716819
0.000544325
0.0112716
0.0034653
0.00163279
0.00304599
0.00183584
0.00450191
0.00788968
0.00338671
0.00726069
0.00283606
0.000718673
0.00110866
0.00597275
0.00352198
0.0102517
0.00640487
0.00296842
0.00485627
0.00248024
0.00998995
0.00808076
0.00119195
0.00288306
0.002959
0.000911708
0.00048287
0.000810685
0.00197669
0.00405625
0.0100392
0.00570291
0.000642868
0.00539979
0.00217511
0.00161336
0.00404073
0.00170016
0.00664716
0.00272933
0.00371701
0.00481
0.00110426
0.0017866
0.0012453
0.00778959
0.00335707
0.00374923
0.00761491
0.00314267
0.0111483
0.00291735
0.00529677
0.00680899
0.00353846
0.00956416
0.0015637
0.00108305
0.000750986
0.00397123
0.00571859
0.00112479
0.00401481
0.00374495
0.0108441
0.00153738
0.00550367
0.00851956
0.00534255
0.00521076
0.00198014
0.00759174
0.00370046
0.00231802
0.00535895
0.00134738
0.00440369
0.00508685
0.00665404
0.00109734
0.00113936
0.00827988
0.00389586
0.00688314
0.0034878
0.00244886
0.00178169
0.00584464
0.00307647
0.00574353
0.008447
0.00375272
0.00955049
0.00165635
0.00166718
0.00378006
0.00803969
0.0121237
0.00103903
0.00117577
0.00258296
0.00453875
0.00147848
0.00509657
0.000728956
0.00153139
0.00663716
0.00115938
0.000401837
0.0021289
0.000887513
0.00824925
0.0063614
0.00199788
0.00753686
0.000871065
0.00166071
0.0102544
0.0032191
0.00598977
0.00120274
0.00106894
0.00419586
0.00305625
0.00467372
0.00263357
0.00564158
0.00764914
0.0029043
0.00371212
0.00793318
0.00484492
0.00350679
0.0102793
0.000772922
0.00718493
0.000819908
0.00167689
0.00131449
0.000734015
0.00171802
0.00219885
0.000625919
0.00268837
0.00874201
0.00272702
0.00326968
0.00402159
0.00332584
0.00092022
0.00190085
0.0051805
0.00789838
0.00563905
0.00157534
0.00277052
0.000910662
0.000712712
0.000743042
0.00226997
0.00645025
0.00118363
0.0023936
0.00394581
0.000259198
0.00913856
0.00320289
0.000583477
0.00344717
0.000659406
0.00144599
0.000919105
0.000641392
0.000659196
0.00264785
0.00287764
0.000717166
0.00112979
0.000502851
0.0005736
0.000514768
0.000516382
0.000979912
0.000999844
0.00056928
0.000644598
0.00067232
0.000667233
0.000906571
0.0124341
0.0079854
0.00500388
0.00678493
0.00468789
0.00861085
0.00537396
0.00118204
0.00103586
0.00328007
0.00264348
0.00508471
0.00140619
0.00513209
0.00325277
0.0085651
0.00514837
0.000473505
0.00620604
0.00249679
0.00395701
0.000777168
0.00273886
0.00251
0.00531079
0.0015979
0.00520105
0.00678034
0.00332283
0.00087746
0.00106837
0.000831732
0.00211144
0.00613444
0.00307526
0.00367694
0.00244159
0.00293009
0.00489434
0.00140814
0.00490393
0.00280308
0.00397728
0.00583869
0.00511343
0.00914616
0.00749184
0.00193492
0.00144661
0.00468378
0.00443817
0.00359971
0.00297318
0.00374567
0.00165224
0.0028448
0.00675072
0.00102871
0.0010351
0.00622199
0.00273386
0.00115543
0.00278319
0.00314865
0.00387236
0.00742825
0.00109184
0.00253153
0.00107651
0.000912962
0.00454211
0.0120245
0.0022786
0.0115259
0.00624689
0.00482778
0.00269497
0.00310216
0.00493996
0.00188305
0.00151888
0.0115099
0.002963
0.0115441
0.00847623
0.0110255
0.0121628
0.00141989
0.00537003
0.00400506
0.00393134
0.00264462
0.00701545
0.00179018
0.00407868
0.00658803
0.00765371
0.00163599
0.0118074
0.00766437
0.00241137
0.00331759
0.00282646
0.00114144
0.00300943
0.00426561
0.00334467
0.00264476
0.00266257
0.00238531
0.00235691
0.0067093
0.00776729
0.000942543
0.00311191
0.00399539
0.00134705
0.00281292
0.00437083
0.00286351
0.00293014
0.000891368
0.00427417
0.000891505
0.00262386
0.00668235
0.00784326
0.00137203
0.00282889
0.00083908
0.0111623
0.00319901
0.00180169
0.00648566
0.00334322
0.010858
0.0115228
0.00389535
0.0037693
0.00157727
0.00165235
0.00222394
0.00775291
0.0015494
0.00192369
0.00591581
0.00135806
0.0113233
0.00409565
0.00207062
0.00262755
0.00658973
0.00547235
0.00124885
0.00765192
0.00259988
0.000816049
0.00472737
0.00439189
0.00370412
0.00272518
0.00169761
0.0114423
0.00256879
0.00464784
0.00390469
0.00512558
0.00613264
0.0045219
0.00762357
0.0109841
0.0106326
0.00281084
0.0020478
0.00175503
0.003831
0.000751445
0.00322938
0.00316292
0.0005075
0.00912961
0.00260441
0.00312409
0.00855472
0.00191895
0.00538046
0.00357168
0.000902114
0.00259688
0.00448759
0.00161622
0.00149947
0.00217509
0.004696
0.00223185
0.00875899
0.00811989
0.00522881
0.00186463
0.00164285
0.00119343
0.000818489
0.00155111
0.00522169
0.000966054
0.00416065
0.00462508
0.00550956
0.00581622
0.00291731
0.00782893
0.000884653
0.00376639
0.00570267
0.00486403
0.00188521
0.00282598
0.00397205
0.00285542
0.00318391
0.00210689
0.00686029
0.00778872
0.000931409
0.000418956
0.00552205
0.0020822
0.00287603
0.00841335
0.00612647
0.000716654
0.00294319
0.00059705
0.000866662
0.00190637
0.00168948
0.00234479
0.00750547
0.000418083
0.00833404
0.00480249
0.00244285
0.00141729
0.00115944
0.00686221
0.00111594
0.00436128
0.00229252
0.00432386
0.00837414
0.00139495
0.00342222
0.00321517
0.00313375
0.00301265
0.00302238
0.00119302
0.00589582
0.00304824
0.00574321
0.00093693
0.00335783
0.00298086
0.00440363
0.00301218
0.00323099
0.00753372
0.00312694
0.0028999
0.00199986
0.00288439
0.00746571
0.00415257
0.00126654
0.000271667
0.000411383
0.00297569
0.00430447
0.00271644
0.00670982
0.00398874
0.00121154
0.002203
0.011417
0.00669314
0.00442342
0.00356615
0.0019877
0.00513958
0.0114359
0.00167249
0.00216248
0.00431177
0.00198815
0.00629139
0.00243856
0.00269719
0.00556911
0.00313276
0.00466366
0.00442111
0.00285301
0.00463891
0.00251915
0.00236705
0.00344508
0.00166948
0.00448439
0.00316194
0.00660715
0.00417324
0.00322779
0.00293444
0.00682482
0.00376352
0.00522339
0.00321155
0.00743578
0.0113189
0.00219077
0.00105127
0.00604337
0.00360827
0.00183789
0.00181736
0.00295531
0.00330818
0.00399505
0.00491647
0.00365547
0.00351411
0.000734413
0.00349885
0.00354602
0.00401929
0.00569474
0.0016893
0.0022461
0.000935281
0.00186635
0.000872565
0.000894826
0.00174584
0.00258506
0.000693874
0.000737501
0.00116154
0.000808232
0.00138268
0.00196776
0.00109266
0.000665436
0.00173555
0.00240556
0.0014999
0.00138607
0.00105422
0.00174099
0.000727341
0.000828883
0.000951501
0.00102277
0.000844202
0.000936413
0.0024575
0.000529491
0.000493359
0.0017918
0.000685589
0.00131427
0.00122156
0.00253474
)
;

boundaryField
{
    frontAndBack
    {
        type            empty;
    }
    wallOuter
    {
        type            nutkWallFunction;
        Cmu             0.09;
        kappa           0.41;
        E               9.8;
        value           nonuniform List<scalar> 
108
(
0.000114839
0.000137308
0.000111522
6.54182e-05
5.81138e-05
7.65833e-05
8.55528e-05
5.61421e-05
6.05693e-05
8.25201e-05
5.52937e-05
8.48082e-05
8.67707e-05
5.78707e-05
5.64056e-05
5.84859e-05
0.000132923
8.86917e-05
7.15589e-05
7.02693e-05
5.55872e-05
0.000136961
6.48278e-05
8.9929e-05
0.000127715
0.000122667
0.000125825
0.000107324
0.000109762
0.000120909
0.000100474
0.000153466
0.000157344
0.000160848
0.000153128
0.000146079
0.000139038
0.000141056
0.000150194
0.000160592
0.000106187
0.000120852
0.000156462
0.000147878
0.000165673
0.00014221
0.000133319
0.000134328
0.000138284
0.000120988
6.46092e-05
8.66725e-05
0.000139292
5.86787e-05
0.000128158
0.000126978
9.043e-05
0.000133355
0.000137254
4.75183e-05
0.000102708
0.000138858
0.0001237
9.8357e-05
8.84569e-05
7.46356e-05
0.000109776
8.59708e-05
8.94986e-05
0.000138529
2.94262e-05
2.94262e-05
6.98118e-05
7.95209e-05
7.72708e-05
7.95814e-05
0.000131841
6.02903e-05
6.90939e-05
6.17763e-05
6.20387e-05
0.00011649
0.000118697
6.92077e-05
7.80922e-05
8.12099e-05
8.05882e-05
0.000108128
0.00013668
0.000120097
5.74286e-05
9.28077e-05
0.000102592
0.000124711
0.00012193
0.000122602
0.000125388
0.000106553
0.000106414
6.17333e-05
9.73711e-05
0.000114842
4.99001e-05
7.16535e-05
4.97155e-05
3.14518e-05
4.94466e-05
0.000140695
)
;
    }
    inlet
    {
        type            calculated;
        value           nonuniform 0();
    }
    outlet
    {
        type            calculated;
        value           nonuniform 0();
    }
    wallInner
    {
        type            nutkWallFunction;
        Cmu             0.09;
        kappa           0.41;
        E               9.8;
        value           nonuniform List<scalar> 
126
(
0.000188398
0.00023763
0.000137728
0.000140443
0.000237484
0.000235975
0.000130677
9.79125e-05
0.000133314
0.000238932
0.000113997
0.00019984
0.000104688
0.000125306
0.000191794
0.000208746
0.00015704
9.25656e-05
0.000119063
0.000104955
0.00025553
0.000104724
0.000230602
0.000134695
0.000114258
0.000215063
0.000225973
9.81163e-05
0.000125362
0.000174062
9.43717e-05
9.9693e-05
0.000218286
0.000275689
0.000243353
0.000189846
0.000127059
0.000227109
0.000114971
0.000216798
0.000186042
0.00013911
9.60861e-05
0.000200492
0.000234105
0.000118147
0.000155091
0.000113568
0.00012523
0.000143552
0.000129611
7.19137e-05
0.000154648
0.000209487
0.000149037
7.96089e-05
0.000114635
0.000167608
0.0001627
0.00012885
0.00010436
9.21615e-05
0.00012131
0.000178465
0.000114192
0.000170217
0.000143377
7.93343e-05
0.000153509
0.000164936
0.000164923
0.000169525
8.85629e-05
0.000168632
0.000213577
0.000194783
9.32717e-05
0.000134978
8.58304e-05
8.96233e-05
8.22828e-05
8.08731e-05
0.000188201
0.000194568
0.000192546
0.000211604
0.000190509
0.000197697
0.000161503
0.000223915
0.000191278
0.000162724
0.000140915
0.000192517
0.000111345
0.000212895
0.000104347
0.000114428
0.000200887
8.73766e-05
9.42838e-05
0.000127882
9.45329e-05
0.000161356
0.000223183
0.000127477
7.96527e-05
0.000197893
0.000264076
0.000173975
0.000159501
0.00012478
0.000200013
8.75908e-05
9.93204e-05
0.000113279
0.00012924
9.74088e-05
0.000108286
0.000270462
5.76948e-05
5.62854e-05
0.000204041
8.1496e-05
0.000153707
0.000143458
)
;
    }
    procBoundary1to0
    {
        type            processor;
        value           nonuniform List<scalar> 
29
(
0.00371444
0.00371444
0.00183582
0.00174448
0.00609056
0.00265185
0.0025831
0.00107279
0.00259132
0.00197232
0.00185335
0.00265185
0.00183582
0.00201892
0.00180459
0.000996594
0.00609056
0.00478613
0.00174448
0.00521015
0.000789148
0.000728268
0.00327291
0.000704735
0.000704735
0.00327291
0.00071099
0.000898996
0.00071099
)
;
    }
    procBoundary1to2
    {
        type            processor;
        value           uniform 0.00408629;
    }
    procBoundary1to3
    {
        type            processor;
        value           nonuniform List<scalar> 
48
(
0.00468239
0.0038932
0.00405011
0.00405011
0.00368502
0.00320861
0.00320861
0.00468361
0.0051581
0.00133005
0.00096958
0.00133005
0.00152865
0.00473373
0.00470519
0.00152865
0.00157241
0.00157241
0.00179411
0.00179411
0.00430338
0.00402644
0.00182237
0.000549924
0.000549924
0.00165559
0.0038827
0.0038827
0.00435092
0.0026949
0.00145957
0.00435092
0.00468361
0.00514579
0.00169127
0.0026949
0.00500958
0.00096958
0.0050758
0.00278038
0.0047663
0.00509596
0.00514579
0.00169127
0.00437387
0.0009956
0.00342829
0.0047663
)
;
    }
}


// ************************************************************************* //
