/*--------------------------------*- C++ -*----------------------------------*\
| =========                 |                                                 |
| \\      /  F ield         | OpenFOAM: The Open Source CFD Toolbox           |
|  \\    /   O peration     | Version:  v1912                                 |
|   \\  /    A nd           | Website:  www.openfoam.com                      |
|    \\/     M anipulation  |                                                 |
\*---------------------------------------------------------------------------*/
FoamFile
{
    version     2.0;
    format      ascii;
    class       volScalarField;
    location    "0.3";
    object      p;
}
// * * * * * * * * * * * * * * * * * * * * * * * * * * * * * * * * * * * * * //

dimensions      [0 2 -2 0 0 0 0];


internalField   nonuniform List<scalar> 
1466
(
76.9821
118.54
80.0435
82.2391
83.3489
98.6224
74.7767
80.7478
109.546
97.8993
76.7197
100.709
109.709
79.8449
96.9146
75.9748
81.6596
105.74
105.811
82.1567
85.3122
75.5244
101.111
83.5302
109.777
118.473
74.7668
81.917
84.1813
116.772
78.423
118.227
81.4613
77.6729
109.77
84.39
78.1531
82.1456
100.097
73.284
77.2351
74.7981
76.4037
78.0516
71.8897
77.4488
79.884
80.1041
98.9549
80.0687
100.947
118.432
97.4659
82.7845
82.4052
107.989
77.0118
75.8738
81.8704
98.0523
118.626
77.2571
72.9778
118.799
91.4756
75.9983
107.034
83.1168
112.419
78.138
119.27
102.76
83.9409
108.674
118.836
110.329
77.4056
72.3793
79.8878
116.193
98.2365
74.9358
77.2649
96.4232
83.1226
79.4611
79.3543
114.566
97.9278
100.768
118.517
74.6842
84.3369
75.4332
77.3314
81.4019
118.733
76.9198
110.845
85.2445
100.112
101.153
81.5322
102.791
77.022
79.1438
97.0429
80.6205
77.9947
76.7396
118.502
110.784
76.8314
75.6055
98.9657
118.586
74.7189
101.711
76.1338
74.3599
81.3806
77.4654
71.4141
78.646
71.3378
78.8823
113.82
103.679
82.9261
117.972
98.3815
74.9379
101.548
83.5988
118.803
75.8944
74.4197
82.4298
76.5469
73.9714
81.2586
81.946
83.3483
99.1916
78.3738
86.7206
118.132
118.255
117.88
101.883
118.669
118.025
113.188
75.8153
118.029
74.6619
81.3111
82.0017
118.133
89.4742
118.032
115.314
75.9786
82.2135
116.999
77.4842
83.5179
100.507
80.2873
95.6915
81.603
117.982
79.686
112.738
117.612
106.786
117.877
117.157
118.459
120.556
110.281
118.814
82.2919
81.1811
113.652
80.812
82.9915
96.407
112.491
80.3931
81.7413
119.011
87.0795
95.8737
88.3304
118.418
78.4471
111.751
119.278
88.1694
78.3181
117.876
115.853
82.1714
118.747
118.85
93.207
114.206
118.104
82.8092
102.736
83.5925
98.3072
81.3314
87.5926
83.123
81.6411
82.714
103.703
83.6164
102.079
118.869
82.8782
118.432
80.993
112.746
100.713
82.4565
118.445
118.61
119.572
112.51
101.316
90.9507
101.721
118.645
83.5091
99.6321
118.065
81.3698
80.9092
115.856
116.261
97.7776
117.961
115.061
118.447
108.206
116.679
116.24
82.7324
92.1678
113.617
82.9368
118.08
118.133
82.0547
97.974
83.8113
80.7249
97.2653
102.678
83.6659
118.854
88.3904
80.2743
118.352
117.871
97.1641
100.168
72.6883
83.5451
96.0015
118.094
118.846
118.542
118.47
90.7157
80.511
117.669
118.561
87.6312
88.1986
114.26
85.4034
77.9642
117.933
118.241
81.0947
109.997
111.945
76.5423
110.241
80.3686
92.6223
93.4022
83.3868
78.9703
117.675
118.595
76.7164
96.0802
119.617
109.426
83.4373
71.9525
77.7575
80.1126
109.41
81.3387
113.084
102.647
83.5489
119.51
119.291
118.679
86.0457
120.112
78.8362
97.5743
95.5697
83.4399
78.8659
118.728
80.0035
107.402
78.6457
125.099
118.392
118.371
106.697
108.71
79.7504
96.3962
86.6841
88.3498
84.6193
118.201
75.5322
78.5829
70.9799
113.931
82.2168
134.617
95.4912
119.327
113.779
124.2
111.961
86.1463
92.4544
91.9757
86.7696
85.5398
85.4677
86.6395
84.4469
80.5998
100.911
117.088
84.9512
87.9609
90.1829
83.2301
80.1534
109.773
113.022
112.311
85.2791
93.9767
102.816
88.4643
137.156
99.3467
79.7929
74.1706
100.869
126.915
76.522
89.5967
78.1968
74.6862
77.0263
75.8608
73.0077
73.8161
81.0863
80.3157
79.3765
78.0483
70.0324
70.5516
83.6038
70.3032
82.9874
79.9316
77.7806
115.732
82.0573
79.6439
78.3272
78.4915
103.286
84.1831
100.88
75.1101
103.168
102.086
76.342
74.8441
98.7832
105.754
103.854
74.8218
102.467
83.8727
84.5611
101.77
98.2271
77.1762
74.3578
74.4988
76.8222
103.285
76.7834
73.8594
74.3423
141.646
75.9398
74.5563
96.2851
80.4321
84.8433
79.0466
118.405
79.8395
78.5029
80.1994
75.8644
95.8301
78.8041
70.1521
95.7489
79.292
118.579
76.7933
110.378
118.775
76.8735
96.7043
118.819
76.7791
69.5922
110.226
70.0635
70.0633
74.8995
76.7943
69.9272
118.737
79.9826
70.0196
75.7338
84.2521
99.6148
77.0772
71.6576
70.0521
71.0993
72.257
70.223
75.5803
99.5497
81.3848
118.807
77.5632
71.1934
85.098
91.0765
90.1174
94.5645
83.9774
84.9805
90.1791
90.8143
113.567
77.375
71.3349
89.5243
90.8878
91.1734
81.8636
80.6498
71.1887
82.9271
71.0397
73.5866
72.3184
120.356
82.5539
74.8209
76.5207
76.4779
103.041
82.4015
83.2115
113.352
118.794
76.7024
72.4142
118.273
89.5448
82.5249
86.2244
74.3597
83.2009
70.3452
110.379
111.521
79.9319
73.8436
71.92
89.2432
119.316
87.3763
71.3221
71.418
84.3571
70.8275
88.5219
79.7604
75.6677
87.1843
70.8291
71.7057
70.7502
96.1679
122.611
70.1679
84.1303
113.76
102.228
83.054
83.3683
70.5025
100.312
70.3149
100.92
88.1788
118.672
79.7622
77.111
71.7962
71.8651
82.7566
74.2294
73.0933
83.0804
84.6975
105.148
86.5075
86.7984
118.661
127.177
111.45
83.4542
70.8996
87.3569
131.378
75.3108
79.2768
85.5674
118.044
118.639
82.9263
81.4537
94.3137
74.0011
71.8685
79.3581
88.2676
75.5347
72.9381
83.2529
81.3371
85.4166
80.6447
106.481
71.6113
83.478
80.5389
105.532
82.9784
72.8085
83.9475
82.5725
101.777
89.1973
86.429
89.3549
127.353
101.865
94.5145
103.306
105.801
84.4585
118.57
79.0677
97.3735
77.5975
80.4011
79.5031
110.443
92.8165
84.2464
117.995
118.145
119.176
113.024
79.4208
109.346
78.2259
118.304
97.3319
111.438
73.0833
80.455
84.4286
85.953
74.7628
90.6967
111.454
113.124
94.7155
74.3297
104.536
82.6535
86.0185
118.641
81.1548
85.9463
110.052
86.5849
118.44
77.8749
100.425
84.5014
83.5634
85.7264
115.552
75.1014
110.767
120.664
79.3688
89.4228
78.7449
76.2018
83.1642
118.233
104.367
90.5887
112.234
79.6784
104.146
90.8925
117.771
77.74
118.521
104.537
75.6604
81.3542
118.086
84.9296
83.5169
100.393
77.9474
96.453
119.021
77.0459
109.67
84.5871
80.6602
118.754
106.354
117.163
84.9868
116.492
117.806
89.1403
117.569
88.0492
109.749
106.729
101.821
117.001
117.901
99.2623
81.2997
116.139
83.7103
78.9221
116.791
117.694
118.555
78.7842
81.8237
118.286
79.6168
117.971
80.0969
80.682
108.315
75.8646
87.6575
84.8035
83.7018
85.3874
83.1389
86.6981
117.513
110.123
75.7863
105.062
83.3003
81.9492
76.7571
82.1861
71.9594
77.2945
118.977
83.5517
84.2263
80.5917
83.5601
107.733
117.481
82.6345
84.8939
84.1768
90.3446
75.9979
97.2855
76.1207
84.6709
74.7617
76.043
114.872
119.2
82.1526
114.573
83.4643
79.8969
118.656
79.4751
77.3435
108.277
79.3903
81.062
110.886
97.0788
83.3753
79.2543
118.422
119.661
91.2892
116.331
80.6972
108.301
104.028
82.2451
118.538
79.2883
71.8055
77.1241
74.206
80.2135
122.385
117.304
72.935
103.443
70.0998
81.6609
81.742
80.5104
87.7529
80.3629
97.1901
75.9012
82.4424
94.7636
75.5211
90.2652
80.8823
79.2252
118.187
110.159
83.6797
76.8832
78.2211
70.7899
79.1309
84.2247
77.1911
80.4823
87.7541
79.2834
119.326
110.841
74.2622
82.5319
81.3853
92.8919
105.681
83.2336
118.476
81.0311
83.9978
80.9004
118.706
85.2925
103.799
83.282
80.0339
117.52
72.8023
76.9105
80.1856
108.82
110.902
106.818
116.567
84.925
80.1784
75.4242
77.1031
101.499
100.513
117.436
79.6786
80.5665
82.1024
81.0367
84.8736
76.829
79.2242
101.527
114.401
78.0649
119.013
84.4814
78.8965
113.25
80.2003
72.2817
80.9332
118.17
116.049
117.623
99.0943
82.8381
90.3101
76.2335
110.446
74.4938
118.621
78.9228
77.8403
80.6133
118.624
72.5825
82.6794
118.59
84.2242
118.135
91.2891
72.6008
83.9573
82.9534
81.7943
83.9821
82.0274
81.2441
82.9769
81.2737
88.0472
102.916
104.281
90.6911
86.1086
84.6597
93.5647
102.728
107.481
100.024
96.9502
112.131
116.738
120.92
119.775
83.4883
82.5161
81.9403
84.2913
111.359
110.071
118.767
82.6187
80.5653
101.509
74.6115
78.4838
96.4251
82.2803
105.257
77.0228
98.1103
115.32
107.29
97.1843
73.4671
84.2053
118.35
78.5872
118.748
100.548
84.4524
76.6979
82.0831
77.9192
71.5076
96.8852
118.039
109.235
80.1163
98.4878
82.1384
79.0269
84.2279
74.4184
76.3552
81.6443
118.017
115.755
77.9156
76.9629
73.644
118.598
106.071
112.012
109.239
118.5
100.468
117.13
74.8402
82.3657
86.9983
118.768
96.9313
75.7167
128.278
83.8343
102.095
81.7054
113.868
83.4687
100.602
79.5035
96.6767
73.6205
80.1761
84.7051
81.9672
75.9433
81.3606
118.591
118.838
118.515
84.7529
76.6417
118.695
76.5163
83.9664
99.9614
75.5126
110.867
82.2494
80.714
119.327
102.319
83.3536
118.698
76.3378
96.1567
105.431
108.25
109.255
117.215
84.1356
85.1571
100.831
79.1545
89.0905
87.8687
110.787
120.451
76.5774
74.2195
80.485
98.3882
109.188
83.6842
100.894
79.938
118.74
78.9185
81.5066
77.1314
118.223
118.518
82.1588
104.556
86.3711
74.9059
104.538
79.0791
105.239
83.8495
101.456
83.3787
72.2089
77.1333
90.6983
118.488
117.899
84.3253
79.7028
118.864
118.715
89.2944
109.636
118.266
112.607
78.6898
71.1579
113.326
78.3983
119.142
118.688
76.4714
83.4504
77.9014
71.1196
118.591
82.3746
112.513
74.18
118.224
117.199
118.138
117.85
79.5481
97.5889
115.746
112.874
118.766
80.1114
120.959
77.2655
71.3776
119.556
90.4857
76.3808
118.696
78.8444
118.416
76.9926
101.626
118.497
118.319
78.204
71.006
111.138
80.9073
118.703
118.56
118.698
118.652
112.238
111.89
118.113
118.106
118.138
118.216
109.643
89.1191
84.6763
118.402
118.347
82.6637
82.7937
118.984
103.704
82.9875
79.9276
76.9613
73.3562
76.0384
82.275
115.899
84.1114
81.7282
118.013
105.941
118.882
117.592
119.653
110.057
110.996
83.3948
79.4044
108
118.872
109.313
83.2881
102.663
108.723
78.0363
118.465
116.773
98.9622
112.579
115.079
96.1002
76.7275
72.2171
78.5212
117.687
79.1397
80.3132
75.0767
77.3787
76.9638
78.3211
96.9493
112.748
95.5813
100.278
70.1794
80.9152
99.7858
75.9952
111.423
111.025
78.2881
118.043
77.6044
117.404
100.866
122.724
78.4241
110.001
95.7712
102.812
82.8659
80.5573
90.2512
114.5
78.3513
92.3768
72.6999
77.1118
82.3683
71.1564
79.5505
70.9989
78.8328
114.778
88.6895
77.454
76.9412
90.9308
109.735
117.972
82.3583
75.1082
81.8729
77.9135
80.4666
70.3822
87.2805
82.8147
79.5633
78.0343
118.415
76.8482
97.752
100.812
111.403
117.687
118.495
116.722
118.089
99.0923
114.459
114.899
118.279
104.298
108.635
79.4756
117.871
71.3782
118.589
120.12
77.9876
71.21
106.05
97.4749
110.224
85.7169
76.7905
79.8413
78.3467
106.934
107.534
90.3179
82.5325
76.1108
95.9721
96.0649
77.5956
89.993
117.419
98.9582
84.1961
79.4816
70.5722
76.9391
101.429
75.8709
96.1905
79.2407
77.3248
78.9956
87.3001
118.09
118.076
100.823
83.0805
81.1254
81.1907
109.151
79.8405
82.3928
114.811
82.3705
111.708
76.8052
97.0073
81.0738
78.6496
87.5176
118.378
81.0013
118.319
75.8333
91.2344
81.7163
85.276
86.4531
84.8264
109.844
118.433
101.647
118.074
83.4145
72.6857
115.334
82.5391
77.0442
105.867
82.6353
102.345
80.1816
118.54
119.232
110.907
75.3032
70.3446
81.9524
108.847
79.7928
81.6668
104.667
70.4076
80.4292
102.697
83.5681
100.055
110.716
99.4582
82.9433
84.9491
96.1022
81.1115
75.0515
106.564
83.0145
104.338
81.3439
79.1874
78.0248
71.0182
77.6158
71.8781
76.9635
118.475
80.9366
105.913
118.655
84.9133
76.6687
114.05
82.3525
75.0183
119.555
112.613
119.374
106.854
84.9691
75.3869
118.93
108.814
118.676
81.9125
70.957
80.573
76.9287
84.2423
92.3018
80.406
118.567
81.9863
118.359
79.3253
77.0843
107.309
117.153
117.391
82.3686
117.572
99.6456
118.313
117.484
81.7648
84.2485
116.663
102.24
116.314
116.422
117.272
80.7989
118.25
97.477
118.981
115.826
91.7252
85.4614
119.295
119.466
118.692
117.797
80.7105
113.24
117.738
94.8484
121.411
118.815
78.0914
117.786
76.0918
76.5612
76.7663
75.2766
75.9261
76.5908
79.8151
82.5346
99.3881
115.202
119.648
82.6817
110.705
82.4095
84.0986
83.431
111.877
99.7726
70.8252
78.7295
118.702
77.5567
96.3709
118.121
81.1023
118.805
103.119
83.3781
113.893
82.9461
83.4367
118.803
79.9712
76.6806
76.7073
78.4882
102.909
83.5051
77.0029
77.3469
115.582
118.55
118.255
118.248
117.99
118.76
110.337
116.556
103.186
81.0135
118.722
107.519
78.8233
118.64
78.8291
100.801
80.2095
78.8108
79.1755
70.7864
74.2384
83.3678
83.3348
83.2043
96.4392
77.1253
81.7271
101.555
132.05
98.0843
101.198
112.777
121.088
110.503
108.385
107.028
77.516
77.3293
72.5791
78.6616
85.1845
84.5314
103.147
79.6822
118.278
117.709
118.536
)
;

boundaryField
{
    frontAndBack
    {
        type            empty;
    }
    wallOuter
    {
        type            zeroGradient;
    }
    inlet
    {
        type            zeroGradient;
    }
    outlet
    {
        type            fixedValue;
        value           nonuniform 0();
    }
    wallInner
    {
        type            zeroGradient;
    }
    procBoundary1to0
    {
        type            processor;
        value           nonuniform List<scalar> 
29
(
74.6117
74.6117
73.7308
75.3209
75.0127
75.4563
108.795
79.0334
83.9617
77.7149
78.1967
75.4563
73.7308
74.8458
109.553
109.967
75.0127
75.4483
75.3209
74.7829
110.107
110.124
77.2867
108.736
108.736
77.2867
110.805
108.92
110.805
)
;
    }
    procBoundary1to2
    {
        type            processor;
        value           uniform 74.7111;
    }
    procBoundary1to3
    {
        type            processor;
        value           nonuniform List<scalar> 
48
(
79.2796
84.9218
82.3576
82.3576
83.6035
84.9839
84.9839
73.2289
75.8005
83.9658
84.1268
83.9658
82.3923
72.4417
73.9139
82.3923
77.0576
77.0576
75.7091
75.7091
71.8751
71.5061
77.5664
84.2807
84.2807
80.6938
71.7152
71.7152
71.9033
82.8407
82.0438
71.9033
73.2289
74.0708
78.1539
82.8407
74.5928
84.1268
77.2466
83.7714
72.6188
74.216
74.0708
78.1539
74.3205
84.5083
83.5523
72.6188
)
;
    }
}


// ************************************************************************* //
