/*--------------------------------*- C++ -*----------------------------------*\
| =========                 |                                                 |
| \\      /  F ield         | OpenFOAM: The Open Source CFD Toolbox           |
|  \\    /   O peration     | Version:  v1912                                 |
|   \\  /    A nd           | Website:  www.openfoam.com                      |
|    \\/     M anipulation  |                                                 |
\*---------------------------------------------------------------------------*/
FoamFile
{
    version     2.0;
    format      ascii;
    class       surfaceScalarField;
    location    "0.21";
    object      phi;
}
// * * * * * * * * * * * * * * * * * * * * * * * * * * * * * * * * * * * * * //

dimensions      [0 3 -1 0 0 0 0];
oriented        oriented;


internalField   nonuniform List<scalar> 
2708
(
3.63585e-05
-1.03231e-05
-8.83148e-06
-1.72039e-05
7.70405e-05
0.000400783
-0.000372368
-0.000105455
0.00121881
0.000268871
-0.00112523
-0.000362446
0.000115936
-7.93496e-05
-4.39009e-05
7.31417e-06
-0.000277584
-5.69992e-05
0.000191272
0.000143311
0.000580356
-0.000576203
0.000219646
-0.000223799
0.000439174
-0.000327055
0.000296473
-0.000408592
-9.04312e-05
0.000251405
-5.08216e-05
-0.000110153
-0.000183342
0.000203152
0.000368562
-0.000388372
0.000334263
0.000681928
-0.000577017
0.000866793
-0.000902234
0.000278849
-0.000243408
0.000262723
-0.000354038
0.000913006
-0.000821691
-0.000664763
0.000665111
-0.000375211
0.000374863
-5.7135e-05
-0.000310409
0.000238892
0.000128652
0.000366913
-0.000382671
-0.000141138
0.000156896
0.000502734
0.000220652
-0.000389123
-0.00080564
0.000676601
-0.000231363
0.000360403
0.000346519
-0.000417698
0.000231175
-0.000159997
0.000415746
0.000122105
-0.000513023
-2.48268e-05
-0.00028819
-7.11093e-05
0.00036918
-9.88066e-06
-0.000366779
0.000710135
0.000523437
6.65332e-05
1.00929e-05
-0.000133761
-0.000349133
-0.000117207
0.00029185
0.00017449
-0.000262595
-0.00135176
0.0013829
0.00023145
-0.000361025
-0.00017145
-0.000353903
0.000225318
0.000612396
-0.000483811
-0.000870011
-0.00016467
0.000132447
-0.000158359
0.0002374
0.000131723
-0.000210765
3.07695e-05
-0.00019578
0.000165011
-1.90146e-05
-0.000431956
0.00045097
0.000531991
4.73705e-05
-5.4743e-05
-0.000524619
-0.000347701
7.31178e-06
2.19961e-06
0.00033819
0.000515785
4.51909e-05
-3.02033e-05
-0.000530773
-9.57161e-05
7.27059e-05
1.83897e-05
4.62056e-06
0.000486715
0.000140902
-0.000542208
-8.54092e-05
-0.000103841
0.000421877
-0.000321617
3.58121e-06
-0.000239915
0.000285928
0.000248428
3.53181e-05
-3.99791e-05
4.46724e-05
-4.00115e-05
0.000331115
-0.000299261
-0.000147082
0.000115227
4.75287e-05
0.000352827
-0.000394309
-6.04742e-06
0.000135865
-0.000110427
0.000140486
0.000297129
-0.000358829
-0.000659838
9.05297e-05
-3.71458e-05
-2.28163e-05
-3.05675e-05
-0.000397651
0.00046127
-0.000398566
0.000334946
0.000181635
-0.000163174
-0.000113022
9.45604e-05
0.000165523
-0.000170755
-4.9298e-05
5.45307e-05
-0.000810541
0.000108264
-0.000167734
0.000127183
-0.000234788
-0.00021945
4.44927e-05
-7.15111e-05
-6.21635e-05
8.91818e-05
-0.000152427
-0.000291092
0.00036094
8.25785e-05
-1.05364e-06
-5.94786e-05
0.00010197
-4.14377e-05
0.000227823
-0.000177948
-9.89988e-05
4.91236e-05
-1.03876e-05
0.000282458
-0.000138625
-0.000133445
5.52198e-05
0.000452187
-5.89165e-05
-0.00044849
-7.10895e-05
1.27964e-05
3.58249e-05
2.24683e-05
4.41771e-05
-7.05687e-05
-2.86786e-05
5.50703e-05
-0.00052154
-0.000401218
0.000605115
0.000317643
0.000738023
-0.000204887
-0.000533136
-0.000182863
7.2312e-05
0.000110551
0.000208555
-0.000412595
0.000145512
0.000267083
-0.000111194
0.000191855
-8.06614e-05
6.71392e-05
-3.18211e-05
0.000206972
0.000124143
0.000323422
0.000220525
-0.000505069
0.000208334
0.000156085
2.67738e-05
7.65136e-05
-2.08373e-05
-5.56762e-05
-0.000165503
0.000215477
-4.99739e-05
-0.000120194
0.000141305
-2.11113e-05
-0.000135741
4.00252e-05
-0.000161866
-5.79771e-06
-1.04567e-05
8.31626e-05
-0.000255571
-5.48386e-05
0.000214597
-3.29619e-05
-0.000860882
0.000289623
0.000571259
-5.69245e-05
4.45581e-05
1.23664e-05
0.000425194
0.000256734
0.000206389
0.00014013
-0.000659529
-0.000146111
-9.25397e-05
3.50294e-05
5.75103e-05
-0.000106637
5.88462e-05
0.000637154
-0.000589364
-0.00027245
0.000263985
0.000173988
-8.26197e-05
5.36819e-05
0.00128275
-0.00125381
3.55762e-05
0.000162137
-4.57195e-05
-0.000151993
0.000398696
-9.42608e-06
5.18901e-06
-0.000394459
0.000133863
-0.000158057
8.81837e-06
1.53756e-05
2.29685e-05
2.49394e-05
-0.000983227
0.000935319
-7.14419e-05
2.13493e-05
-0.000789398
0.000839491
-8.78065e-06
6.88233e-05
-1.58656e-05
8.29114e-05
-0.000100214
8.52186e-06
4.03625e-05
-5.08459e-05
-2.94957e-05
-0.000223126
0.000254589
-0.000312689
0.000281225
0.000463723
-0.000447736
3.92331e-05
3.96054e-05
-0.00041207
0.000372464
-0.000379011
-0.000184791
-0.00048587
0.000535286
0.000135374
0.000195723
5.56679e-05
-0.000160861
5.28649e-05
-2.38411e-05
-2.90238e-05
0.000130662
-0.000132161
-6.95907e-05
-0.000356884
0.000140011
-0.000486363
3.9197e-05
-8.65854e-05
0.000533751
0.000126322
-3.89294e-05
0.000124542
-0.000211935
-5.77261e-05
-3.24225e-05
3.32241e-05
-0.000445313
-1.54829e-05
0.000452536
8.25999e-06
-2.16015e-05
0.000484614
-0.000471664
8.65192e-06
-0.000138523
0.000592911
-0.000649633
0.000195245
0.000295435
-0.000116504
-0.000296139
0.000620332
-0.000368672
-0.00016746
0.000110919
-0.000357081
0.000430938
0.000591253
-0.000440904
-0.000816964
0.00097467
0.000283198
-0.000117839
5.29032e-05
-4.54906e-05
5.58797e-05
0.000473348
-6.29872e-05
0.000103151
-4.59296e-05
-2.98994e-05
6.54755e-05
-4.40546e-05
-4.0399e-05
-0.000125104
-8.30298e-05
-0.000299641
5.62456e-05
-6.66332e-05
-4.00933e-05
-6.75527e-06
0.00014806
0.000271227
0.000153967
0.000357927
-9.18742e-05
-0.000130239
8.09752e-05
4.8972e-05
0.000912527
-0.000692628
-0.000213648
0.000380501
6.44526e-05
-0.000231305
0.00022344
0.00045316
-5.81367e-05
-0.000359561
-0.000532982
-0.000117837
0.000437171
8.21264e-05
-0.000428333
0.000761953
-0.000249527
0.000369441
-0.000408104
8.3177e-05
-0.000107146
-0.000149566
3.09485e-05
-1.63821e-05
1.61964e-05
-3.07628e-05
-0.000187197
0.000100955
0.000231754
0.00132677
0.000100173
-0.001287
-0.000139942
8.5035e-05
-0.000128181
-0.00017108
0.000499614
1.83978e-05
7.26197e-05
-0.000590631
-5.16495e-05
0.000148821
0.000194678
9.83568e-05
0.000457034
-0.00022117
-0.000125356
0.000161751
9.4267e-05
0.000536342
0.000116015
-0.00013646
-8.66604e-05
-6.72239e-05
0.000382338
2.07575e-05
-0.000335872
-4.75367e-05
1.76374e-05
-0.000384456
-2.29828e-05
-1.15039e-05
0.000418943
6.81893e-05
-6.80295e-05
-5.10057e-05
-0.00125196
-0.000149266
0.00122501
0.000176216
0.000259639
0.000446224
-0.000365879
-0.000339983
-9.71224e-05
5.62104e-05
-0.000704653
0.000745565
-0.000438227
0.000426538
1.28707e-05
-1.18246e-06
0.00100124
-0.000875744
0.000139116
-0.000264617
-0.000308685
-0.000661941
0.000595416
0.00045202
-0.000416897
-0.000217313
0.000182189
1.56793e-06
-0.000451227
0.000449028
6.30829e-07
-4.44163e-05
0.000100662
9.27795e-05
6.52857e-05
-0.000121707
0.000474725
4.48768e-05
-6.52281e-05
7.78998e-05
0.000505227
-0.000525603
-3.78312e-05
5.82074e-05
-8.03529e-05
-0.000900581
2.08347e-05
0.000960099
-0.000147176
-0.000220432
0.000242251
-6.61404e-06
0.000455609
-9.74813e-07
-0.000448021
0.000301572
-0.0016481
1.08282e-05
0.0013357
0.000469556
-0.000163058
9.42852e-05
0.000324848
-0.00127524
-7.46439e-05
-0.000462407
4.06903e-06
0.000565419
-0.000382714
-9.12922e-05
0.000264786
5.43299e-05
0.000360628
6.78043e-06
-0.000294877
-7.25313e-05
-0.000253594
-8.1779e-05
-6.63562e-05
8.62398e-05
-0.000168778
0.000114259
-3.17206e-05
0.00121694
-0.00122569
-0.000253847
0.000296912
-0.000136019
0.000404526
-0.00042989
0.000408289
-0.000213898
7.53748e-05
8.79449e-05
0.000641249
-0.000560193
0.000200197
-4.48829e-05
0.00040488
-3.94481e-05
-5.28934e-05
-0.00107172
0.00116407
0.000488471
-0.000528532
0.000138418
0.000446175
-0.000384917
1.78902e-05
-7.91482e-05
0.0003889
-0.000544639
0.000203268
0.000503934
-5.43223e-05
0.000143299
-1.3874e-05
0.000287583
0.000661112
-0.00050247
-0.000332604
-0.000281594
0.000429407
0.000482383
-0.000459464
-2.83349e-05
5.41563e-06
1.14862e-06
-2.08698e-05
-1.11612e-06
2.76618e-05
1.49358e-06
-2.46916e-05
-4.46379e-06
0.000183521
-9.55562e-05
-7.85786e-05
-9.38646e-06
-0.000112649
0.000453474
0.000111195
-0.000530748
-0.000411362
0.000685664
0.000256446
-2.00962e-05
0.000420574
-0.000404205
3.72687e-06
-0.000124752
0.000347348
-0.000436586
0.000213989
1.03431e-05
0.000522896
-0.000520574
-1.26651e-05
0.000128484
-0.000446126
0.000430773
-0.000113131
-8.96888e-06
-1.18309e-05
2.53909e-05
-4.59108e-06
0.00122672
-0.00124911
-7.91373e-05
0.000101527
2.65326e-05
-9.19395e-06
1.08866e-05
2.60978e-05
-3.69843e-05
-8.55002e-05
0.000132321
-0.000463718
0.000487798
1.72002e-05
-2.0384e-05
-0.000388896
-6.9501e-05
1.30844e-05
-0.000103765
-0.00124525
0.00126639
-3.92978e-05
-5.90257e-05
0.000151188
0.000438712
-0.000148106
-0.00035783
7.28163e-05
0.000491135
-8.15687e-05
0.000249309
-0.00014525
0.000205829
-0.000309888
0.000211342
-0.00053012
-0.00021197
0.000281617
0.000197214
-0.000414145
-6.46856e-05
-5.03539e-06
3.48137e-05
5.64615e-05
0.000242879
-0.000260958
0.000361267
-0.000343188
-1.40258e-05
0.000461356
1.21154e-05
-0.000459445
-0.000509744
0.000406905
-0.00120947
0.00122868
-0.000122972
-0.000477993
0.000639353
-0.000572722
-6.54849e-05
8.48419e-05
-0.00021885
3.10556e-05
0.000385008
-0.000422658
6.49974e-05
0.000569003
-9.26387e-06
-0.000289841
0.000411623
-0.000112518
-1.32294e-05
1.03324e-05
0.000534888
5.36714e-06
-0.000450988
0.000455964
0.000234626
-7.51023e-05
0.000229377
9.01001e-06
-0.000352544
-4.16759e-06
-0.000779678
-0.00014358
0.000832907
9.03517e-05
0.000476002
8.44439e-05
-7.26483e-05
2.78356e-05
-0.000242799
-0.000173933
-0.000113334
0.000337283
0.000264522
-0.000182846
0.000101773
0.000127004
-4.59307e-05
-0.000421258
0.000428602
-8.19884e-05
-0.000223402
0.000265652
0.000229526
-0.000271776
0.000116176
-9.89262e-05
-0.000265873
0.000397332
-0.000103623
-0.000120633
-7.74316e-05
-0.000135534
6.46081e-05
0.000148357
-0.000308475
0.000215579
-0.000307238
0.000777323
0.000221446
-0.000401387
-0.000234205
-3.70504e-05
-7.05025e-05
1.89946e-06
-2.32711e-05
-0.000368177
0.00119077
-0.000799619
-0.000457058
2.03991e-05
0.000476107
2.71232e-06
-4.10938e-05
3.95547e-05
-7.02427e-05
8.80327e-06
5.00262e-05
1.14133e-05
-0.000471792
1.55174e-05
-7.83324e-07
-0.00017432
0.00123843
0.000164571
-0.000653208
0.000778443
-0.000317239
0.000192004
2.25575e-05
0.000167425
9.44823e-05
-2.31448e-05
-0.000238762
6.7748e-05
-0.000389073
-9.77222e-05
0.000178253
-4.00645e-05
-0.000442439
3.45655e-05
-0.000322864
-0.000464939
-0.000543174
0.000111801
-0.000403964
-0.000174141
0.000466304
-1.41686e-05
0.000141884
0.000376218
0.000113534
-0.000708496
-1.71414e-05
-5.34274e-05
0.000145384
9.84022e-05
0.000430491
0.00014278
-9.72693e-05
-0.000390118
-4.11667e-05
-0.000237068
9.68793e-05
-4.26578e-05
0.00117844
-0.000257545
-1.80405e-05
0.000428767
0.00144922
-0.000166421
-0.000104367
-0.000527004
-0.000122471
1.11757e-05
0.000638299
-0.000235074
0.000240441
-0.000425489
0.000509933
-0.000248672
0.000292334
-0.000190838
-0.0001559
9.13957e-05
-0.000156292
0.000220796
-8.37804e-06
0.000352078
0.000336169
-0.000190998
0.000120179
-0.00026535
0.000446594
-7.94454e-05
-0.000439482
7.23337e-05
-0.000178193
0.000648011
-0.000576454
-0.000104094
-6.10494e-05
9.4901e-05
-0.000296115
6.65805e-05
-9.61962e-05
0.00122044
-0.00119083
0.00030977
-0.00021199
-0.000203236
-7.82026e-06
-0.000108132
0.000115399
-0.00040521
0.000397943
8.31759e-05
-0.000481265
-1.33732e-05
-0.000236409
1.85925e-05
0.000231189
3.10041e-05
-0.000665633
2.28121e-05
-0.000306347
0.000317517
-0.000531415
8.77425e-05
-0.000517633
-4.97717e-05
-8.27206e-05
9.31946e-05
-0.000235718
6.44167e-07
0.000101041
0.000191997
-0.000131287
6.32952e-05
-4.39408e-05
-1.93544e-05
6.02882e-05
-0.00042245
-2.79566e-05
-0.0003641
0.000376676
5.62077e-05
-6.87846e-05
-0.000151024
-0.000394598
9.5139e-05
0.000450483
-0.000481185
-4.63315e-06
-0.000219167
-0.000431883
0.000281592
-0.000141352
0.000198566
-0.000507199
6.95411e-05
-0.000588326
0.000663028
0.00021288
7.24665e-05
0.00019876
9.49172e-05
-2.10525e-05
6.88388e-06
0.000421859
-0.000414473
0.000195765
-0.00050903
0.000310611
-0.000167821
-0.000395608
0.000103965
5.83913e-05
5.332e-05
-0.000103661
6.3658e-05
-1.33173e-05
-0.000539194
0.000560411
0.00066445
-0.000685667
0.000309763
-0.000291582
-0.000237347
0.000274235
-0.000122153
1.10893e-05
1.1218e-05
1.27221e-05
0.000211279
-1.94171e-05
-0.000205235
-0.000330028
0.000148859
0.000348305
-0.000167137
-0.000802235
-0.000323
-1.27518e-05
0.000311228
-6.39279e-05
-0.000318739
7.14383e-05
0.000315643
-0.000339949
5.90016e-05
-3.46959e-05
0.000596831
-4.05742e-05
-8.015e-05
0.000251201
-0.000320702
-6.34662e-06
-6.73486e-05
1.80189e-05
0.000356585
-0.000105436
-0.000359281
4.09795e-06
1.8786e-05
1.79553e-05
-4.08392e-05
-0.000419288
-4.20345e-05
-0.000438533
-5.03184e-05
-2.73981e-05
0.000177321
1.11447e-05
-0.000161067
-0.000156394
-0.000720406
-0.00038092
0.000328878
-0.000277986
5.56906e-06
-5.36567e-05
-0.000538686
0.000153809
-0.000254146
0.00033249
-0.000593005
0.000514661
0.00010496
2.81939e-05
-8.0251e-05
-0.000218291
0.000271
0.00036915
-0.000578181
0.000397368
0.000518096
2.50069e-05
-0.000278164
0.000760317
-0.000523718
0.00121263
-0.000295869
-0.000546603
-2.83104e-05
0.000248129
4.17742e-05
-0.000261593
6.54822e-05
-7.41021e-05
0.000579331
-0.000570711
-0.000137265
0.000164708
0.000105788
-0.000133232
0.000252536
-7.93326e-06
-3.33241e-05
0.000360386
0.000300186
-0.000366699
-0.000293872
-0.000166202
0.000157414
-0.000128477
0.000190534
-0.000208433
-0.000124578
0.000142478
0.000344932
-2.31625e-05
0.00115296
-0.00147473
-5.3927e-05
4.46631e-05
8.05685e-05
-0.00133874
0.00121873
2.01185e-05
3.96041e-05
6.81059e-06
-0.000426862
-7.50329e-05
2.61036e-05
-0.000781096
0.00118564
3.51179e-05
-0.000439667
-0.000152501
0.000148062
-0.000506751
0.000410897
8.78278e-05
-0.000358005
0.000300946
-4.12795e-05
-0.000525149
0.000547413
0.000783463
-0.000804834
-1.19906e-05
-0.000131396
8.63873e-05
-0.000551284
8.65201e-05
0.00108804
-0.000623276
-0.000267003
-0.000184236
0.000227837
1.37311e-06
-3.42286e-05
0.00101615
-0.00102898
-0.000110142
0.000330165
2.14849e-05
3.99424e-06
-2.56308e-05
1.5164e-07
0.000733301
-0.000618084
-0.000750237
0.00063502
-0.000168336
0.00101016
0.000567238
-0.000593138
-0.000282786
-0.000458491
0.000374483
-2.09739e-05
1.19371e-05
8.33435e-05
-7.43067e-05
0.000187213
-0.000854793
-0.000729668
0.000101507
0.000374801
-0.000125328
-0.00035098
0.000326413
2.4264e-05
-4.38767e-05
-0.0003068
0.000329271
3.25393e-05
-0.000199017
-0.000162794
0.000564692
-0.000649159
5.61326e-05
-0.000277959
-0.00024104
0.000251995
0.000420818
-0.000110053
-0.000252925
-1.91957e-05
6.49884e-05
0.000207132
-0.000352476
-6.04971e-07
0.000100156
-0.00048876
-4.32068e-05
5.07819e-05
0.000836497
-0.000214448
-0.000100057
-0.000415871
0.000312306
-0.000314829
0.000418394
-0.000200293
0.000123381
-0.000338959
-0.000110596
0.000316388
0.000207038
-0.00042373
-0.00021831
0.000435001
0.000468174
-0.000456227
0.000288239
1.1256e-05
-1.07966e-06
-0.000475261
0.000608554
5.74221e-05
5.07084e-05
-5.81044e-05
-7.29221e-05
-3.51539e-05
7.24287e-05
3.56474e-05
0.000354363
-0.000202953
6.93355e-05
-0.000220745
-0.000475466
0.000106301
3.61906e-05
-2.19918e-05
-1.41988e-05
-0.000108975
0.000106665
0.000374101
-0.000140365
0.000120627
0.000493698
-0.000284332
-6.05063e-05
0.000353618
-0.000108242
0.000128726
-0.000708815
0.000105344
-3.41094e-05
0.00063758
4.72581e-05
0.00038352
7.95155e-05
-0.000111492
4.31941e-05
0.000361645
0.000191532
-0.000340636
-0.000212541
1.52167e-05
5.34115e-05
-0.000647922
0.000332891
-9.61966e-05
0.000116923
-0.000169143
0.000563464
0.000378071
-0.000708186
-0.000312584
-0.000152293
0.000336036
0.000256876
-0.00026193
-9.39456e-05
0.000112588
0.000314249
2.25042e-06
-1.50276e-05
7.86666e-07
-8.22856e-05
-0.000320331
0.000331507
0.000139687
0.00036707
-0.000384653
0.000630329
-0.000103935
-0.000967298
-0.000218502
-0.00129032
0.000157058
-0.000234341
0.000364325
0.000108403
-0.000238386
0.000238008
-0.000250907
0.000344115
-0.000331215
0.000305946
-0.000302279
0.00037306
-0.000272112
0.000127108
0.000163355
0.000167474
-2.48837e-05
-0.000384453
0.000317964
-0.000154301
0.00022079
0.000143227
-0.000224456
0.000274688
-0.000132443
8.22111e-05
0.000376744
-0.000283237
0.000168347
-0.000250588
0.000356929
3.5334e-05
-0.00011838
5.35439e-05
2.95021e-05
0.00113922
0.000561969
-0.000372374
-0.00132882
4.79425e-05
0.000144806
4.76389e-05
0.000165012
0.00011236
7.29436e-05
5.63383e-05
-1.3443e-05
-4.78958e-05
1.66655e-05
4.46733e-05
3.46853e-05
1.55296e-05
0.000228223
-0.000227503
-0.000279955
0.000279235
-8.28547e-05
7.18883e-05
9.08671e-05
-7.99007e-05
-0.000125673
-8.19642e-05
0.000124782
-2.69859e-05
-0.000131643
0.00013899
1.96393e-05
-9.03454e-05
0.000156021
-3.96605e-05
-2.6015e-05
2.41632e-05
-0.000138779
-7.46465e-05
4.02398e-05
0.000242964
-8.71941e-05
7.05042e-05
3.68085e-05
-0.0011635
6.2683e-05
0.00108361
1.72069e-05
0.000147787
-9.94544e-05
-2.41692e-05
0.000466253
0.000179133
-0.000730752
6.27292e-05
-7.8035e-05
3.07139e-06
0.000131927
-0.000102966
-3.20319e-05
-0.00125039
9.77257e-05
-3.86723e-05
-1.64085e-05
9.53206e-05
-0.000331019
0.000384683
0.000156534
-8.23961e-05
-7.10665e-05
-0.000206488
7.45012e-05
-0.0013745
0.000191854
0.000151324
-2.17756e-05
-0.000423669
-0.000850658
8.62617e-05
-1.91283e-05
-0.000104279
3.96673e-06
-2.43752e-05
-0.000132909
5.59572e-05
-7.65681e-05
-5.72055e-05
7.78164e-05
-0.0014825
0.000276064
0.000864907
-0.000632724
0.000907039
-6.62921e-05
-0.000133786
6.8508e-05
-3.26101e-05
-4.94941e-06
4.79433e-05
-3.95008e-05
0.000232678
2.58785e-05
5.82096e-05
1.8456e-06
1.25935e-05
5.20153e-05
-0.00108055
0.000462956
-0.000203809
0.000384668
-0.0002847
-7.66073e-05
6.0177e-05
8.89213e-05
0.000121906
-0.000152618
-0.000211689
6.40927e-05
-4.31645e-05
-0.000559455
0.000593528
1.74885e-05
-7.18401e-07
3.66856e-05
-5.34557e-05
-0.000872617
0.000290338
-3.05841e-05
-0.000463563
-0.000436936
0.000291315
-6.35157e-05
-5.37184e-05
7.79965e-05
3.92376e-05
0.000119385
-0.000216278
0.000120989
-2.40963e-05
-1.62777e-05
0.000108074
-0.000229128
-0.000450218
0.000643611
-0.0013873
0.000142308
0.000128004
0.000165201
-2.8671e-06
5.99575e-05
0.000110338
-8.73845e-05
-3.20824e-05
-0.00085645
0.000876941
1.15912e-05
0.000191853
0.000275607
-0.000242143
3.34667e-05
-0.000141579
-0.000822042
0.000789959
-0.000348923
-0.000978675
-5.96995e-05
-0.00123978
-0.000457214
-1.57043e-05
4.74882e-05
0.000178547
0.000334125
5.86262e-05
3.36531e-05
8.17363e-05
5.72179e-05
-7.89967e-05
3.59497e-05
9.23879e-05
0.000121553
0.000104203
-8.60691e-05
-0.000243192
0.000221172
-3.31196e-05
-0.000788922
0.000422502
0.000378235
-0.000100729
-0.000788841
-9.39078e-05
7.61391e-05
-0.00010281
0.000146932
-0.000828387
-0.000296098
0.000318545
-0.000193202
0.000202019
-0.000177161
0.000142394
-9.58657e-05
-0.000505543
-1.40745e-05
0.000195774
0.000469029
-0.000483263
9.60005e-06
-0.00154293
-0.000264136
0.000268535
9.18995e-06
-0.000115133
-1.73025e-05
-4.68929e-06
5.29236e-06
-9.21274e-05
-5.21401e-05
-8.05743e-06
0.000152325
0.000380842
-0.000448574
-7.06867e-06
-1.12655e-05
-8.4476e-05
0.00019311
-0.000624018
-4.8048e-05
0.000478956
0.000602641
-2.34036e-05
2.11419e-05
0.000556214
-0.000490731
-3.09619e-05
0.000169613
5.71232e-05
-0.000123324
6.94546e-05
-0.000307071
0.000414983
-0.000310866
-0.000758844
-4.3019e-05
0.000801863
8.9718e-06
-3.67093e-05
3.89936e-05
-0.00011822
0.000228112
-0.000218957
0.000152134
-1.92212e-05
-0.000246379
0.000176403
-0.000630637
0.000768325
-0.000137688
0.000288213
-0.000282978
-0.000305342
-0.000279069
0.000110882
0.000473528
-0.000307518
0.000172465
-0.000126833
0.000261885
3.11158e-05
4.64936e-05
9.84885e-06
0.000226483
-0.000355239
0.000381778
-0.000253022
6.20049e-05
-8.17312e-05
-6.09352e-05
1.96837e-05
-0.000162286
0.000449411
3.51353e-05
3.48485e-05
0.000873209
-7.44233e-05
-0.000681939
0.000513934
-0.000198773
0.000104348
-0.000241343
-0.00136419
-0.000345158
0.000636729
0.000300535
-3.70063e-05
-0.000197529
0.000206225
-0.000478419
0.000649361
-4.11993e-05
-0.000171028
0.000175221
0.000128628
9.34549e-06
7.74066e-05
-0.000827125
0.000784567
0.00011574
-5.45528e-05
-8.03454e-05
1.91577e-05
-0.000303427
0.000262467
-5.29854e-05
-0.000709935
0.000238775
0.00080365
-0.000258996
0.000385153
0.000313226
-9.73219e-05
-0.000111086
8.83624e-05
2.27237e-05
0.000563406
0.000502539
-0.000529204
-6.92001e-05
5.43032e-06
0.000322119
-0.000327549
-0.000129612
0.000524071
-0.000677696
0.000421573
-0.000299419
-0.000333448
-6.61756e-05
0.000267491
-0.000288884
-0.000688543
-0.000468578
0.000543727
-0.000371246
0.000439696
0.00016669
-0.000414854
0.000240345
0.000410355
-0.000423427
0.000578095
-0.000167678
-3.03777e-05
6.7492e-05
-0.000152285
-3.73814e-05
8.59163e-05
9.38591e-05
0.000665698
-0.000717903
-7.72183e-05
8.61901e-05
-0.000262205
-0.000440553
0.000337215
0.000309166
-0.000474325
-0.000168418
0.000241356
-0.000196499
0.000387814
-0.000495227
0.000303911
-8.79642e-05
8.68586e-05
0.000148038
9.99707e-05
0.00031146
-8.50178e-05
0.00103582
0.000299562
0.000333914
-0.000350617
0.000129292
3.3085e-05
0.000604061
-0.000581856
-0.000216463
0.000194258
0.000390344
0.000199211
-0.000260677
-0.00108449
0.00100268
0.000277827
-0.000536192
3.89486e-06
0.000154057
-9.64909e-05
-6.14611e-05
8.43457e-05
-2.39308e-05
3.26921e-05
-0.000117584
-8.6136e-05
-0.000160353
8.56168e-05
-0.00027774
-0.000175531
0.000440606
-0.000332614
0.000385302
0.000256744
-2.91264e-05
3.1395e-05
-0.000259013
0.000140071
0.00112464
-0.000939867
1.21583e-05
-4.90743e-06
0.000794345
0.000335731
-0.000396776
0.000431916
-0.00017422
0.000102932
6.04343e-05
-0.000134516
-0.000151774
1.26093e-05
7.57531e-05
-0.000352042
0.000410202
-0.000218514
-0.000152865
-1.19719e-05
-0.000127065
0.000631973
-0.000503458
-0.000117951
0.00042491
-5.0666e-05
6.43523e-08
-1.1055e-06
9.50934e-05
0.00028122
3.6311e-07
0.000119295
-0.000149911
0.000349319
-0.000315613
0.000351447
0.000135149
0.00015974
-3.24219e-05
0.000145515
0.00051231
0.000813745
-0.000963876
-0.000115019
-0.000118784
-0.000251741
0.000151568
-6.50351e-05
7.12518e-05
0.00025588
-6.30643e-05
0.000472079
0.00035666
-0.000352314
-8.63348e-05
-0.00011523
9.07424e-05
0.000358401
-2.65042e-05
-5.07141e-05
-0.000175355
-0.000323283
1.16805e-06
-0.000344936
-0.000284717
-0.000246502
-0.000832961
1.74268e-05
0.000128775
-2.48417e-05
-9.25204e-05
0.00034761
-2.54912e-05
0.000415367
0.000324761
0.000808849
-0.000148688
-0.000926315
-0.000182827
0.000307337
-0.000119816
4.00624e-05
-2.83417e-05
-1.85092e-05
0.000848699
0.000358531
9.06652e-05
-0.00026875
-0.000301109
0.000594526
4.2388e-05
0.000334168
3.61065e-05
0.000499053
0.000959521
-0.000905839
0.000427179
-0.000139345
3.87936e-05
-1.89367e-05
4.47512e-05
0.00104672
-8.71994e-05
-4.76891e-05
0.000397218
0.000384699
-0.000332728
5.79132e-05
-0.00041864
-0.000241282
-0.000305365
-0.000837936
-6.79034e-05
-7.48205e-05
4.49362e-05
7.61547e-05
-4.62703e-05
0.00041353
-0.000960043
0.000668496
-0.000121983
-5.72432e-05
0.000547409
-0.000315454
2.09901e-05
8.0042e-05
-0.00032468
0.000350137
-2.54572e-05
-0.000165736
2.19599e-05
0.000132511
0.000432862
0.000332172
-1.672e-05
-0.00030313
-2.15496e-05
-0.000251225
0.000277355
-2.61302e-05
-0.000142726
-0.000474597
0.000520661
-4.60642e-05
-0.000168316
0.000214411
-0.000230902
-2.03227e-05
0.000966316
0.000432883
-0.000399078
-3.38049e-05
-0.000116988
-0.000379435
-7.3434e-05
-0.000368257
-2.57749e-05
-4.23348e-05
-8.37923e-06
-9.82853e-05
0.00114501
-2.87129e-05
0.000376323
-4.17138e-05
0.000194654
-0.000129385
0.000162569
0.000127779
-0.000134605
-0.000368326
0.000375152
-0.000232784
-6.72904e-05
-0.000140972
-0.000502236
-6.60476e-05
-0.00048736
0.000173779
0.000401409
0.000443148
-0.000270713
-6.04559e-05
-0.000137345
0.000104261
-0.00029172
-4.96087e-05
-0.000106456
1.40448e-05
-9.27977e-06
-2.19202e-06
-0.000531612
-2.15626e-05
0.000579604
0.000295961
-0.00032762
-6.13671e-05
1.5134e-05
2.29231e-06
2.69656e-05
-0.000453217
0.000462358
-0.000297076
-0.000769691
-0.000241973
0.000303478
-4.00535e-05
-0.000520492
0.000530704
7.463e-05
0.000663639
-0.000528208
0.000350867
5.07737e-05
-0.000110392
8.15783e-05
0.000451519
0.000164596
-0.000183252
1.47897e-05
-7.38445e-05
0.000579507
-0.000771355
4.3151e-05
0.00042666
-0.000374409
0.000373434
-0.000160801
-0.000102455
0.000477866
-0.000461075
0.000522213
4.72652e-05
-0.000657962
0.000143384
-6.24192e-05
-0.000320097
0.00029593
0.000134044
-0.00021599
0.000423873
-6.40621e-05
-8.58582e-05
-2.01886e-05
4.9285e-05
0.000140516
-6.20067e-05
5.08896e-05
-0.000437885
4.85405e-05
-4.93185e-05
0.000302354
-8.25001e-05
0.00047766
0.000113056
-2.47134e-05
1.81234e-05
2.93806e-05
-1.28187e-05
-0.000424196
-0.00013377
-0.000125755
-0.000205763
0.000302509
0.000106796
-0.000260508
0.000443277
-4.48856e-05
-0.000102085
-4.24555e-06
-0.000196316
0.000150314
0.000127684
-0.000361378
-0.0001046
0.000184353
-1.94175e-05
0.000603379
5.48889e-05
7.29567e-05
0.000203083
8.90125e-05
-0.000168625
0.00023551
-0.000266978
3.14688e-05
-0.000170592
0.000163784
-0.000506533
0.00019095
0.000430981
-6.17073e-05
-0.000167387
-0.000290237
-4.32355e-05
0.000269847
-6.45343e-05
0.000377103
-0.0012768
-0.000511024
0.00060778
-0.000322255
0.000435531
2.89878e-05
-0.000459118
-0.000227984
0.00028724
-0.000163741
-7.58152e-05
-0.000273771
4.51553e-05
4.60738e-06
6.09515e-05
0.000328968
-0.000346769
-0.000260017
0.000106486
-0.000241068
0.000357353
-0.000367386
1.96329e-05
0.000265797
0.000137759
1.05873e-05
-1.33297e-05
-0.000132495
-0.000355347
-1.22563e-05
5.22787e-05
-0.000609768
-0.000171711
0.000374155
0.000104738
0.000397842
2.73521e-05
-0.000175856
0.000632584
-0.000625064
-2.43207e-05
0.000448964
-0.000103479
8.93336e-05
-0.00123034
0.00010127
9.25534e-05
-0.000118028
-8.9722e-05
0.000115197
-4.54135e-05
0.00104988
-0.000712733
5.27426e-05
7.38102e-05
-0.00024142
1.71672e-05
-0.000389263
0.00035745
-9.06575e-05
-0.000117465
-0.000231264
0.000256891
-2.19754e-05
-0.000345421
8.87091e-05
0.000498398
6.70334e-06
-5.48709e-06
-0.000141641
-0.000160656
7.60096e-05
0.000179743
0.000631617
-5.21096e-05
-0.000661323
-0.000110032
3.87939e-05
0.000219024
-9.96764e-05
0.000337718
0.000425044
4.60575e-05
-0.00020034
-0.000164148
6.22093e-05
-9.3638e-05
1.74985e-05
-7.65513e-06
-0.000413603
4.05593e-05
-1.62008e-05
-6.10773e-05
-2.25384e-05
0.000236653
-0.000351984
-5.638e-05
0.000166776
1.66157e-05
-4.23627e-05
-0.000698085
-2.51917e-05
0.000677863
-2.34664e-06
0.000158198
-0.000737889
0.0010292
-4.13056e-05
0.000105575
1.67995e-05
-4.35506e-05
0.000210589
-5.20473e-05
0.000357737
-0.000449276
4.73602e-05
3.39039e-05
0.000417826
6.93395e-05
-0.000255789
0.000183136
-0.000152345
0.000224998
0.000978582
0.000291872
1.86283e-06
4.75577e-05
-0.00028838
-0.000365185
-0.000356142
0.000465537
-0.000602474
-0.000303247
-0.000203072
0.0003605
0.000107731
-0.000265159
-0.000389953
-0.00024834
0.000206867
0.000431425
0.00053385
0.000156459
-4.42072e-05
-0.00036575
0.000358829
-0.000479625
-0.00033475
0.000370264
-8.6463e-05
-0.000394562
0.000356906
0.000124732
-0.000101889
-0.000391515
0.000127784
0.000117179
0.000441662
-0.000232887
6.45774e-05
-0.000133637
-0.000360018
-0.000174996
-6.88049e-05
0.000974744
0.000175552
-3.49772e-05
-5.59738e-05
0.000111524
-0.000244788
-0.000265817
0.000581597
-0.00040015
0.000332487
0.000730241
-0.000613287
-0.000116954
-0.000212264
0.000233224
-2.09606e-05
-0.000181208
0.000158396
-0.000141396
-1.7e-05
0.000843775
0.000242234
-0.000329943
0.000340825
-1.08819e-05
0.000355393
2.54501e-05
0.00039312
-5.22944e-05
-0.00054829
0.000952039
0.00044049
0.000517286
-0.000481993
-3.52928e-05
0.000450823
0.000244434
0.000246931
-2.49653e-06
0.000442273
8.54953e-06
0.000252775
-5.84419e-06
0.00027214
-1.93649e-05
0.000292897
0.000123347
0.000778326
0.000488525
-6.188e-05
0.000670706
0.00055884
-0.000170645
3.85942e-05
-6.35894e-05
-2.43028e-05
0.000976462
-0.00016866
-2.18959e-05
8.10743e-05
0.000241768
1.14756e-05
0.000547114
6.99174e-05
6.55451e-05
8.4231e-05
-4.77233e-05
-3.50141e-05
0.000252712
7.18429e-05
0.000729329
-0.000731279
-5.46482e-05
0.000512516
0.000336135
-8.91909e-05
2.63017e-06
-8.13912e-06
-7.80198e-05
-1.16816e-05
-0.000117211
0.000303485
0.000546907
-0.000236809
0.000217028
-2.64252e-05
-9.05546e-06
8.05277e-05
-0.000117842
0.000907703
-0.00117893
5.53441e-05
0.000130204
-0.000158556
0.000829195
-4.43688e-05
0.000342211
-0.00112704
-6.70321e-05
-8.85291e-05
0.00018663
-0.000168156
-1.00539e-05
0.000134309
0.000235454
-0.000415156
0.000217597
2.51095e-05
7.24612e-05
6.08011e-05
0.000197716
0.000139442
-0.000246291
-6.35067e-05
-9.63839e-05
6.04362e-05
6.0379e-05
7.34064e-05
-0.000395891
-0.000308477
0.000389539
-0.000227134
0.000262268
-5.15053e-05
-3.31653e-05
-0.000132542
-0.000107823
6.58438e-05
0.000172881
-0.000371594
-2.27542e-05
-0.000297437
0.000306627
-2.84319e-05
-3.14876e-05
4.48919e-05
-0.000284942
0.000287572
0.000178615
-0.000473536
3.37724e-05
-0.000521252
2.08659e-05
0.0003202
-0.000453484
-9.80797e-05
-0.000149811
0.000204346
0.00017664
-0.000804813
-0.000138064
-0.000371539
0.000138886
-0.000137275
0.000390797
-0.000100607
-9.39299e-05
-0.000134361
0.000453984
-0.000272848
0.000119608
4.14413e-05
0.000398089
2.76728e-05
3.02826e-05
0.000763759
-0.000211909
2.19829e-05
-6.73426e-05
0.000140648
-8.70706e-05
-0.000127015
-0.000159725
5.87393e-05
-4.31617e-05
7.12809e-05
-0.000450647
-7.94064e-05
0.000262918
-4.82745e-06
0.00053795
-0.000471724
9.64429e-05
0.000197024
6.31689e-05
0.000307241
0.000169685
-6.20466e-05
-2.62618e-05
-0.00011262
0.000284265
-0.000246049
-7.59624e-05
0.000256228
-0.000161994
1.50977e-05
5.68711e-05
-4.65778e-05
-6.97022e-06