/*--------------------------------*- C++ -*----------------------------------*\
| =========                 |                                                 |
| \\      /  F ield         | OpenFOAM: The Open Source CFD Toolbox           |
|  \\    /   O peration     | Version:  v1912                                 |
|   \\  /    A nd           | Website:  www.openfoam.com                      |
|    \\/     M anipulation  |                                                 |
\*---------------------------------------------------------------------------*/
FoamFile
{
    version     2.0;
    format      ascii;
    class       volVectorField;
    location    "0.47";
    object      U;
}
// * * * * * * * * * * * * * * * * * * * * * * * * * * * * * * * * * * * * * //

dimensions      [0 1 -1 0 0 0 0];


internalField   nonuniform List<vector> 
1466
(
(3.7038 -0.166056 -1.52482e-16)
(4.66471 -0.103336 -2.79557e-19)
(-3.62468 0.0207195 4.38355e-16)
(0.328698 9.10385 -3.81828e-17)
(-0.598396 -0.929092 -6.25984e-16)
(-2.14366 0.118258 -9.01029e-16)
(-1.3919 0.505637 1.84786e-16)
(4.14329 -0.303912 1.18674e-16)
(7.2113 0.106551 -8.6207e-19)
(4.65989 -0.159466 1.36601e-16)
(5.78976 -0.225337 -1.84951e-16)
(4.8716 -0.520476 0)
(8.26015 0.0609033 0)
(-0.0365062 -1.50673 -1.44076e-16)
(-1.24435 0.154284 0)
(4.46903 -0.484503 1.43093e-16)
(3.47902 -1.6001 -7.62268e-17)
(0.0190211 5.03113 -2.57257e-17)
(0.90397 5.44843 -8.08916e-17)
(-0.00644627 7.54711 1.31333e-16)
(0.106198 7.17454 6.19192e-17)
(-2.16385 0.0435452 5.3829e-18)
(0.00617875 6.02167 -5.66296e-17)
(-0.068294 7.36498 -1.42041e-17)
(8.10577 0.137416 7.38733e-17)
(-0.394137 0.0688814 -2.7e-16)
(-1.42557 0.579814 -1.2317e-16)
(-0.0517554 7.31474 0)
(-1.97829 -0.146471 0)
(4.66303 2.33881 5.09346e-17)
(5.91623 -0.630926 1.23036e-16)
(-0.520797 -0.035983 1.65606e-16)
(-1.62077 -1.17151 1.81586e-16)
(0.0140379 6.03121 1.40732e-16)
(4.11079 -0.212898 9.40728e-17)
(-0.887611 1.39037 2.06283e-16)
(0.129288 5.47151 0)
(3.2042 -0.735525 -2.31993e-16)
(4.99146 0.176833 -2.70511e-16)
(0.147488 -0.180085 -3.95483e-16)
(-2.81553 -0.0524942 -1.22311e-16)
(-2.97798 0.0184722 -3.04262e-16)
(-3.10067 -0.100966 1.66169e-16)
(-2.77989 -0.167245 1.10248e-18)
(1.13662 -0.203238 -4.00201e-18)
(3.80283 0.065213 0)
(6.02668 0.097946 6.9316e-18)
(1.64842 -0.126922 0)
(-1.89796 -0.325838 1.25339e-16)
(0.238097 -0.42448 0)
(-1.21902 0.30234 -1.01569e-16)
(4.57467 -0.0653546 -3.42595e-16)
(-2.28828 -0.087412 6.00426e-16)
(0.0582517 -0.469741 6.20993e-16)
(-2.3753 -0.679684 -8.78547e-17)
(6.24862 -0.0473118 1.23267e-16)
(3.9881 -0.0482029 -1.66787e-17)
(5.6965 0.00707839 0)
(-0.0813988 -0.239855 1.11989e-17)
(4.60198 0.0321955 0)
(0.317202 -0.0875114 2.10856e-19)
(-1.8146 0.117212 -9.40479e-17)
(0.968124 -0.503184 1.67344e-16)
(4.0476 -0.186037 1.33039e-16)
(1.36392 5.6207 -1.75293e-16)
(2.49931 0.775625 2.0144e-16)
(-0.385876 1.8697 0)
(0.164214 5.22556 2.66618e-17)
(7.14784 0.50153 2.8991e-17)
(-2.02567 0.24571 -1.59035e-16)
(1.19379 0.736207 1.16905e-15)
(-0.119941 5.8354 0)
(-0.0287706 6.34965 0)
(8.00729 0.207047 -1.52476e-16)
(0.0399036 -0.422908 2.85701e-16)
(5.77359 -0.0718763 -1.13689e-16)
(-1.91587 0.0213316 8.28151e-17)
(1.12436 -0.490179 -9.50595e-17)
(-0.717725 -0.111417 0)
(3.6823 0.776749 0)
(4.16264 0.0295555 -1.26944e-16)
(4.70057 -0.364147 -1.7472e-16)
(-1.99935 1.60434 -2.30747e-16)
(0.876046 3.13002 2.6334e-16)
(-0.0854581 5.26909 1.13726e-16)
(0.55159 5.48435 4.439e-17)
(-0.0615562 7.24222 0)
(3.47153 0.262781 1.65977e-18)
(4.77988 0.109886 2.52396e-16)
(-0.206564 0.460137 -3.08668e-16)
(-0.150165 0.0682516 -9.63596e-17)
(-2.09047 0.377595 -2.20371e-16)
(0.45678 7.30746 -4.11379e-17)
(2.66902 -0.822836 -1.66355e-16)
(2.37448 -0.24127 0)
(-3.09518 -0.374048 -2.92167e-16)
(4.46349 -0.123916 2.99855e-16)
(6.07291 -0.0361453 -7.19385e-18)
(6.4162 -0.126205 3.07782e-16)
(-1.14869 -0.386835 8.83377e-17)
(-1.83236 0.259726 4.98007e-16)
(-0.590708 0.0169299 0)
(1.70954 -0.0579516 3.5978e-16)
(-1.08944 -0.523978 3.26253e-16)
(-3.01277 -0.158501 -1.24379e-16)
(4.37638 0.273497 5.64954e-17)
(-2.37502 -0.164194 -2.26592e-17)
(1.00301 -0.351293 0)
(5.11828 -0.419622 1.75843e-16)
(3.68119 0.039238 5.89877e-17)
(0.160095 -0.0391019 -2.7344e-16)
(4.5489 -0.0945457 3.71012e-17)
(2.84063 -0.366247 -2.80506e-17)
(-3.23078 -0.0115394 -3.83097e-17)
(4.109 -0.334396 0)
(0.460187 0.070338 8.89599e-17)
(-2.80379 0.162733 1.41197e-16)
(3.62499 -0.0437234 0)
(-2.00669 0.259034 1.25564e-16)
(0.722726 -0.57429 -6.02716e-16)
(0.0171507 8.62518 -3.04068e-17)
(-0.699794 -0.356558 2.5597e-16)
(1.59592 -0.587603 -8.98017e-16)
(-2.54853 -0.255034 0)
(1.44749 -0.154504 -7.19284e-16)
(-1.09426 1.19116 -4.09912e-19)
(6.30317 0.948993 4.6801e-17)
(-0.267408 5.61061 -6.23695e-17)
(0.0151872 7.36366 2.18005e-17)
(0.787148 0.461167 1.77375e-16)
(4.85977 -0.0209942 2.0628e-17)
(-2.4318 0.180217 0)
(-0.162804 6.14668 3.91728e-17)
(-0.100024 7.4767 2.95646e-17)
(-0.0921756 -0.0257791 -1.56728e-17)
(-2.34933 0.0841743 0)
(-0.647403 -0.374439 0)
(1.3853 -0.742224 -9.45519e-18)
(-2.64714 0.0731916 -7.73955e-17)
(0.0699437 -0.447594 2.24056e-16)
(-0.96192 -0.360864 0)
(-0.0213291 7.31292 -6.07718e-17)
(-0.0523384 6.52207 -2.69088e-17)
(0.342694 5.06378 -2.26422e-18)
(-1.58564 -0.523478 -2.22983e-16)
(0.886106 6.16207 9.3182e-17)
(-0.520423 -0.0397955 -2.8466e-16)
(0.485541 0.078986 -4.50063e-16)
(1.45704 0.686787 -7.00421e-17)
(-0.992014 -1.01115 1.15004e-15)
(-0.0491306 0.0468942 1.79618e-16)
(3.32494 -0.115701 -5.48052e-20)
(6.74399 0.812666 -1.37102e-19)
(1.2956 0.487979 0)
(1.50337 0.685031 0)
(-2.10725 0.133657 2.08984e-16)
(-0.0843462 7.32228 -1.4497e-17)
(-0.134345 8.14578 -1.29468e-16)
(-0.247643 0.0172997 1.07562e-15)
(5.37511 3.6841 6.75968e-17)
(-0.502888 0.00140418 1.2538e-16)
(5.23978 1.28163 0)
(0.532848 2.86848 7.74396e-17)
(0.00911376 6.65175 4.15971e-20)
(2.57547 2.52317 0)
(-2.66391 -0.24013 1.39948e-16)
(0.00822903 6.61054 0)
(-0.218961 4.72094 1.89975e-16)
(-0.00707887 6.31522 -2.9607e-17)
(1.93004 8.7219 5.66422e-17)
(-0.0457179 6.42605 2.02613e-16)
(-0.438731 0.0812235 -1.20695e-16)
(0.677622 -0.266888 5.1326e-17)
(7.05749 0.656905 -1.51458e-17)
(3.84253 -0.00775485 -2.34155e-16)
(7.50224 0.135708 -2.94461e-16)
(5.01697 2.90409 1.62514e-16)
(3.51948 1.63073 -7.44634e-17)
(0.010173 0.00176718 -3.68208e-16)
(0.930701 1.04717 -2.45398e-16)
(8.53085 0.15246 3.58873e-16)
(3.8895 -0.128839 -2.42398e-17)
(-0.0409868 4.5404 -1.87342e-16)
(0.816679 0.150053 2.94823e-16)
(3.72661 0.177787 -4.20351e-17)
(0.188187 5.22354 -3.08616e-18)
(-0.0117359 5.22009 -1.1278e-16)
(1.93848 4.40936 -1.45717e-16)
(6.98918 0.328562 7.16979e-17)
(-0.77132 -0.343423 4.45195e-16)
(-0.0229179 6.5324 -1.36119e-16)
(0.368161 -0.164112 1.8711e-19)
(0.889121 4.46011 6.54618e-18)
(0.725127 5.8568 2.40228e-16)
(5.7412 3.22136 -4.01418e-17)
(0.279488 0.0895729 0)
(-1.49618 0.426749 3.21649e-18)
(3.30193 1.11297 -3.60596e-16)
(1.29783 2.19621 -2.61289e-16)
(1.58584 5.55198 -4.90477e-16)
(0.644185 3.59042 0)
(1.09008 0.537944 0)
(5.25515 2.14379 -2.20851e-21)
(0.252941 2.35869 0)
(1.34236 0.549359 2.03514e-16)
(1.65656 1.7508 -1.86367e-16)
(0.548874 6.53483 -1.08512e-16)
(6.63559 3.56259 0)
(-0.0927224 0.0885697 1.36921e-16)
(-0.00691976 7.4614 1.82127e-19)
(0.537579 5.84184 7.57896e-17)
(-0.0283049 5.25943 -1.07295e-16)
(-0.247782 2.25895 0)
(-0.0663677 6.8456 1.48153e-16)
(0.239318 6.9711 -3.82785e-17)
(0.0151459 6.49156 5.125e-19)
(0.01086 5.23659 3.10753e-18)
(0.106411 5.0021 -1.00882e-16)
(3.53805 4.00009 1.45383e-16)
(-0.0204752 7.04078 2.04568e-16)
(-0.288857 5.24856 -1.44468e-16)
(0.491021 0.0146281 -1.24766e-16)
(0.0702449 6.24817 -2.13112e-16)
(0.541678 0.124403 2.46012e-16)
(0.0408716 6.2331 9.19948e-17)
(3.49582 3.48891 -1.52819e-16)
(-0.894403 -1.37293 4.91932e-16)
(0.992484 0.815297 -2.61883e-16)
(-0.0369918 0.0663139 -2.9733e-16)
(0.459081 -0.0198968 -3.27991e-20)
(0.690775 0.279319 -6.21454e-16)
(3.99671 0.0795722 2.2707e-16)
(0.940044 4.78981 1.18359e-16)
(0.513195 3.34315 2.0422e-16)
(-0.934367 0.785921 5.49698e-17)
(2.06338 1.28286 -7.34147e-16)
(-0.0247886 6.52759 3.94707e-17)
(0.00691884 4.85954 1.80558e-17)
(0.553673 0.267844 2.48917e-16)
(-0.0108577 6.21866 2.57271e-17)
(0.218223 1.66108 0)
(4.07298 0.72047 4.75796e-17)
(5.59738 3.06126 8.66066e-17)
(2.16875 4.1298 2.20621e-16)
(0.0934458 0.197412 0)
(5.65314 1.17631 0)
(-0.489682 -0.0253609 0)
(8.40663 0.326469 0)
(2.80662 0.794659 -1.24857e-16)
(5.85717 3.51823 -7.88003e-17)
(-0.0313426 5.84362 -5.67405e-17)
(1.15326 6.06708 -2.49053e-16)
(6.81632 4.14925 3.25786e-18)
(3.56144 -0.878103 -1.11176e-16)
(-0.525278 0.0523447 3.0734e-16)
(0.324539 0.0197668 -2.79791e-16)
(-0.141028 7.53125 0)
(8.76206 3.89967 -1.86665e-16)
(0.0782957 3.6592 -7.4575e-17)
(-0.0789617 2.29324 1.18714e-16)
(0.0029304 -0.57128 0)
(-0.206976 6.25382 -2.48848e-17)
(-0.0931401 7.52479 -3.74115e-17)
(0.484485 -0.0614947 1.87285e-21)
(4.23243 3.76046 1.07041e-17)
(0.612843 -0.0681856 -3.21248e-16)
(4.04219 -0.0735082 2.38223e-16)
(1.4768 0.753082 -1.23765e-16)
(0.464839 6.38205 -1.96046e-17)
(9.09466 3.53151 -8.94033e-17)
(1.65861 3.92559 -1.29802e-16)
(0.0409435 3.71473 0)
(-0.264167 -0.639124 7.07835e-18)
(-0.0330364 0.107765 -1.75822e-16)
(-0.178136 -0.00976003 -3.94925e-16)
(0.715609 0.174597 4.74039e-16)
(0.199123 0.0871925 -2.57427e-16)
(2.65854 5.21761 -1.28439e-16)
(-0.0743889 5.92022 -1.34602e-16)
(1.91089 0.827984 1.91114e-16)
(0.33782 -0.0436529 2.24947e-16)
(1.82575 -1.07618 2.53783e-17)
(2.43059 3.67222 0)
(5.11241 0.509758 -4.2572e-17)
(0.0988916 -1.6264 4.82949e-16)
(0.555549 -0.623134 -1.75404e-16)
(2.52573 1.24179 0)
(2.59852 1.22175 -3.44096e-16)
(-0.257836 -0.00147274 0)
(7.70818 4.00485 -2.95333e-16)
(7.4963 1.16055 1.51385e-16)
(2.99461 -0.118295 -2.1684e-18)
(8.45314 0.116794 -3.76876e-16)
(-0.248231 -0.0746515 0)
(3.7924 5.71393 1.1171e-16)
(0.953509 2.32339 -3.94504e-16)
(0.138093 3.64902 1.32397e-16)
(0.245853 -0.937055 4.36124e-17)
(2.44609 1.19716 8.4641e-17)
(0.300518 -0.0413473 -2.74191e-16)
(0.387584 -1.37867 0)
(-0.840626 -0.0278945 1.92273e-16)
(-0.466254 -0.23092 0)
(8.61851 0.385435 -2.27432e-16)
(-0.000217258 8.0806 0)
(1.32267 1.13875 1.06859e-16)
(0.132791 -1.04796 1.41177e-16)
(1.16236 -2.03352 -2.12432e-17)
(3.16129 8.26403 -2.83749e-17)
(-0.115619 6.94274 7.30238e-17)
(6.89319 1.86066 1.64885e-16)
(-0.402741 4.25476 0)
(0.0257904 6.64639 -5.87925e-20)
(2.98737 0.339956 -1.51652e-16)
(3.73546 1.82997 -2.01466e-16)
(4.75227 2.82941 -3.02322e-16)
(-0.110305 0.0381548 0)
(5.21285 3.48496 2.27191e-16)
(0.544314 -1.10517 0)
(-0.670957 0.194706 3.19476e-16)
(0.0236349 -1.32321 0)
(0.0420728 3.76482 -1.39221e-16)
(0.0684592 1.80189 -7.40953e-17)
(0.188267 -0.0217941 3.51867e-16)
(-0.120228 8.28971 -2.07187e-17)
(7.6794 5.16068 -9.23184e-17)
(0.531787 -0.508244 -8.99465e-17)
(4.7676 3.67759 -2.27818e-16)
(-0.0889699 -0.0422898 -2.87683e-16)
(3.00714 0.116597 1.81401e-16)
(0.0267499 5.53474 1.02908e-16)
(7.74705 4.58016 5.60515e-16)
(-2.01935 -0.507288 -3.48902e-16)
(3.49489 7.07097 2.41794e-17)
(2.34819 2.66791 -1.66594e-16)
(7.01101 1.73134 6.92137e-17)
(2.41378 1.40823 -4.35593e-16)
(0.591855 0.166097 4.34551e-16)
(1.47323 -0.683576 -2.25644e-16)
(-1.40815 -0.773517 -1.66225e-16)
(1.80689 -0.200696 7.60595e-19)
(6.39658 3.12131 7.33959e-17)
(2.6054 -1.87116 3.6402e-17)
(3.17235 3.21952 -3.57728e-17)
(1.52576 8.68259 -6.18054e-17)
(-0.691378 -0.14734 -9.61333e-17)
(5.36255 0.409563 -2.00054e-17)
(3.82307 5.99096 -8.38432e-17)
(6.68473 0.202457 2.66609e-17)
(2.78744 2.22657 1.81567e-16)
(6.17104 4.49786 -2.10383e-18)
(8.41649 2.70852 -5.25521e-17)
(0.0170987 10.235 -6.44197e-17)
(0.854008 0.911678 1.32273e-17)
(-0.781571 -0.909394 0)
(0.972911 1.60082 2.34605e-16)
(-0.175075 4.36282 -1.98991e-16)
(3.47135 0.444272 6.32669e-18)
(9.35096 2.46777 0)
(3.45867 7.2688 2.53664e-17)
(-0.322157 -0.310991 0)
(1.34465 2.88011 1.10501e-16)
(1.90479 4.88967 1.14197e-16)
(-0.106905 2.47968 0)
(0.31476 -0.620026 -3.02863e-16)
(-0.0588037 1.90969 3.37245e-19)
(6.96908 2.91411 5.86654e-17)
(7.15487 2.48411 5.08118e-17)
(-0.994992 -1.997 1.71086e-16)
(2.75687 6.79047 4.14205e-18)
(2.97067 8.75696 0)
(0.761234 2.41236 1.17159e-16)
(1.35098 2.88326 -3.46899e-17)
(2.96307 8.28218 -3.35673e-18)
(0.0863076 -1.18943 5.76658e-16)
(0.0971244 4.29767 4.29848e-17)
(2.96724 -0.539461 -2.69178e-17)
(1.20523 5.26109 7.72423e-17)
(1.76939 -0.892266 5.10733e-16)
(3.97646 4.5536 -9.05423e-17)
(0.371293 1.27459 1.12639e-16)
(0.828663 1.53004 -3.65645e-16)
(0.419103 1.89783 -2.11845e-16)
(0.399324 2.42622 2.94569e-16)
(0.544792 2.39746 0)
(0.702584 2.04275 1.71726e-16)
(1.74725 -2.30889 -1.79391e-17)
(0.883209 -2.61695 -1.85055e-16)
(0.594059 -2.28024 1.58851e-16)
(0.409442 -1.47702 -4.34067e-17)
(0.00811617 -0.599247 2.33794e-17)
(0.420226 0.800791 6.06251e-17)
(-0.320461 1.24956 -6.34502e-17)
(0.0813237 0.599439 -7.46002e-17)
(-0.629979 -0.338149 4.41573e-19)
(-0.34646 -0.727023 1.3624e-16)
(0.396341 -0.698371 -5.86746e-17)
(1.19949 6.9391 -3.12824e-17)
(-0.506225 -0.190585 7.3016e-17)
(-0.534216 -0.63492 0)
(0.327872 -0.138736 -2.13635e-16)
(0.511879 -0.0974041 2.44713e-16)
(1.47017 8.74562 0)
(-0.885202 -0.55063 2.61256e-16)
(1.09375 9.60515 -2.08513e-17)
(-0.0791623 -0.139758 6.19809e-19)
(1.5148 7.54202 -3.32689e-16)
(-0.277681 0.512912 -1.24094e-16)
(2.24674 -0.350418 0)
(1.50266 -0.0917165 1.09388e-16)
(-0.0446848 0.411404 -1.49837e-16)
(1.25985 6.65503 -1.49114e-16)
(0.988396 3.3815 2.67073e-16)
(0.72527 -0.145845 6.21312e-16)
(2.71748 1.41486 -1.19865e-16)
(-0.518598 -1.61169 0)
(-1.3385 -0.967443 0)
(0.89349 0.924957 1.38325e-16)
(0.17168 0.193498 0)
(1.41223 0.0345129 0)
(0.199701 0.158512 -1.85037e-16)
(-0.558259 0.086147 4.06397e-16)
(1.03032 0.0704823 0)
(0.947394 4.39338 1.09245e-16)
(0.0397961 0.18303 1.28383e-16)
(1.67395 -0.534432 -4.30496e-20)
(-0.309145 0.561203 4.47624e-16)
(2.0344 0.433384 2.73344e-17)
(-0.484481 0.363474 -6.83881e-16)
(1.71161 -0.569541 3.2208e-16)
(0.582925 -0.0801918 0)
(-0.344954 -0.503362 -2.54854e-19)
(-0.391903 -1.0422 5.77969e-16)
(-1.64877 10.0742 1.93387e-17)
(2.10191 -0.0236495 -5.08254e-16)
(-0.121279 -0.891955 -4.23243e-16)
(0.147742 -0.466739 8.20588e-17)
(0.0425128 -0.871103 -7.91845e-17)
(0.278641 -1.35699 3.18039e-16)
(-0.0258416 -0.124065 -3.76549e-16)
(0.0407296 -0.101319 5.06966e-17)
(0.324649 -0.430109 -1.05305e-16)
(0.837161 -0.263984 2.79856e-16)
(-0.401024 -0.0896998 0)
(1.28555 -0.0209447 -3.06598e-16)
(1.30025 -0.246946 1.48265e-16)
(8.43636 0.0753388 8.0081e-17)
(2.12615 -0.0885165 0)
(1.46963 -0.455706 -8.75364e-17)
(1.61649 -0.417448 1.65313e-16)
(2.49431 -0.136865 2.08905e-20)
(2.27637 -0.665477 -1.07408e-16)
(-0.0564099 -0.51089 -5.06439e-17)
(8.65478 0.122683 3.64096e-17)
(-0.132001 -0.292167 -2.73788e-18)
(-0.119888 -0.463089 6.2641e-18)
(0.750115 1.49331 0)
(-0.970043 2.20211 0)
(-0.0703249 -0.578292 0)
(1.41237 -0.0801122 2.69861e-16)
(-0.414222 -2.08268 -4.54184e-16)
(-0.210734 -0.669079 -2.80993e-17)
(-0.294471 1.88031 -1.78059e-16)
(-0.217482 3.06936 5.03855e-16)
(0.997421 -1.00731 2.23833e-16)
(1.04426 -0.832522 -1.37927e-16)
(0.6173 1.91342 -1.29992e-16)
(-0.0471072 -0.589207 -4.34326e-17)
(0.467555 -0.0683096 -8.48526e-17)
(0.94314 1.73202 6.87436e-17)
(0.157574 -0.393741 1.8189e-16)
(0.532692 1.75037 -2.07768e-18)
(-0.55989 -1.3779 -6.18357e-16)
(0.719876 0.843964 1.00807e-18)
(1.01708 -0.0871923 1.55449e-16)
(0.047544 -0.876905 1.30286e-18)
(1.66138 -0.256379 -1.96173e-16)
(0.419314 2.85036 0)
(0.48301 2.38065 0)
(1.31643 1.18758 -9.26598e-18)
(2.46922 7.42133 -9.17853e-17)
(0.221807 5.80877 1.73872e-16)
(0.279119 8.54449 -1.2173e-16)
(0.433237 2.78375 8.10538e-17)
(0.842063 1.58177 -3.19259e-17)
(6.72949 4.68723 -1.81821e-16)
(0.0722166 -1.13831 -1.57458e-16)
(1.67843 0.0561483 1.92664e-16)
(0.563515 2.47344 -1.10164e-16)
(1.5384 5.12796 1.06146e-16)
(0.784252 1.09096 1.37591e-16)
(-0.0529591 7.38949 3.82284e-17)
(1.66884 -1.76705 -1.69498e-16)
(0.360522 1.92576 1.27913e-16)
(0.539725 2.28983 0)
(0.259936 1.73528 3.05912e-17)
(0.193322 3.67009 0)
(0.387903 2.5778 6.56554e-18)
(4.46357 2.71882 0)
(-0.225558 2.03185 6.42704e-17)
(0.327091 2.90907 0)
(0.144962 3.67207 0)
(-0.253359 3.15514 -1.78379e-18)
(-0.129513 -1.31936 2.61001e-16)
(0.292845 1.43501 -2.46485e-16)
(-0.0641007 3.44225 0)
(2.2515 7.91385 0)
(1.93378 -0.065999 2.2442e-16)
(1.13015 -0.998747 1.1064e-16)
(0.274743 2.80651 0)
(1.69121 -0.043559 2.84012e-16)
(0.787213 2.07966 -1.48563e-17)
(0.0324119 2.39525 5.33278e-17)
(-0.651806 9.16419 -6.68939e-17)
(0.209869 3.69452 -8.89067e-17)
(-0.204372 2.3702 -9.84711e-17)
(0.102797 -0.0175324 -3.25632e-17)
(8.70852 0.126751 -3.38594e-16)
(8.0418 0.231805 8.53806e-18)
(2.79954 -0.936329 5.00149e-16)
(0.259381 3.13499 -4.71631e-18)
(1.3874 0.125126 2.90518e-16)
(0.0560759 4.37369 6.23822e-18)
(5.67382 4.76515 0)
(0.626057 2.52357 0)
(0.783342 1.05445 4.48566e-17)
(0.774861 0.337359 0)
(0.241076 -0.945044 -4.33608e-16)
(0.397174 1.01968 -6.23778e-17)
(0.331512 3.19156 -1.05225e-16)
(0.500091 -0.608693 2.02041e-16)
(-1.16702 10.0923 -2.23863e-17)
(0.25521 0.836215 -2.58874e-16)
(0.16529 1.71941 0)
(0.218411 2.63505 0)
(0.379802 0.184427 -6.15593e-17)
(5.15811 6.09033 0)
(2.2828 6.5293 0)
(-0.129879 -0.162847 0)
(0.337423 8.32104 -1.2771e-16)
(6.65039 5.39891 7.3325e-17)
(-0.667837 -1.12626 -2.53022e-16)
(0.394227 1.56483 -2.34946e-16)
(-0.280559 1.3857 1.75858e-16)
(0.124375 0.88697 7.9713e-17)
(4.41005 7.05797 -3.30863e-17)
(-0.0146093 0.699922 2.38095e-18)
(6.45674 6.11532 -3.86579e-17)
(-0.245873 6.44603 -4.51292e-17)
(1.27569 -0.0106038 1.2489e-16)
(2.23057 -1.27038 2.05052e-16)
(0.374315 -1.12492 8.53531e-17)
(1.46998 0.59074 -4.26659e-17)
(0.269068 2.63057 -1.00252e-17)
(-0.774083 9.60002 2.722e-17)
(0.287588 3.3096 1.58435e-16)
(0.306581 2.9268 -1.1888e-19)
(-0.259227 1.18077 2.74203e-17)
(2.01306 -0.273955 1.32112e-16)
(7.32751 5.73822 -1.64554e-16)
(0.215274 3.56414 1.29348e-17)
(-0.363272 -0.477531 2.01467e-16)
(0.725982 -0.045387 2.88128e-16)
(4.28752 4.67458 2.74934e-17)
(8.11428 0.316949 -2.954e-16)
(-0.464559 0.435609 6.58043e-17)
(0.198326 1.82709 7.85829e-18)
(-0.035322 4.72389 -1.19634e-17)
(2.54812 4.84909 5.98522e-17)
(0.0159566 5.01245 8.76058e-17)
(-0.101624 8.2678 1.89275e-17)
(-0.0671078 5.03565 0)
(0.743405 0.401236 0)
(3.78714 1.96625 4.85138e-16)
(1.03616 1.6197 -6.27717e-18)
(-0.403444 8.7898 4.99151e-17)
(8.56751 3.51674 -4.04358e-17)
(0.0975533 4.12025 2.32273e-17)
(0.235428 2.67391 -1.33303e-17)
(4.9507 -0.646498 2.57949e-16)
(1.19534 1.72781 -5.34833e-17)
(0.00507387 5.22945 -4.09337e-17)
(0.174988 3.46773 9.52303e-17)
(0.0844368 3.25777 -1.48767e-16)
(-0.0313869 1.35963 2.03969e-16)
(0.891991 2.11856 6.10327e-17)
(-0.0618802 8.88722 7.38986e-20)
(8.83569 1.81708 1.10616e-17)
(0.375232 1.94641 -1.83491e-16)
(-0.458984 0.346424 -1.0558e-16)
(-0.0181896 7.48197 -7.50364e-17)
(5.40215 6.81965 0)
(-1.24416 -1.38961 0)
(0.172703 3.36229 -9.89364e-17)
(0.209567 6.39641 2.07991e-19)
(-0.0260669 6.62382 3.04259e-17)
(1.53556 5.29597 7.51773e-17)
(-0.499847 10.4428 5.07551e-18)
(1.57497 1.40112 2.28408e-18)
(-0.333408 8.57701 1.59238e-17)
(4.20721 2.32039 0)
(8.38223 4.6277 -5.26843e-18)
(8.16137 4.27835 -7.93665e-17)
(3.62803 8.01518 3.15328e-18)
(0.832805 3.57836 -7.20675e-17)
(-1.01592 -1.05698 -1.80689e-16)
(1.72717 -0.0234165 -2.05776e-16)
(1.05079 0.173296 -1.26235e-16)
(-0.844687 -0.949408 -1.02621e-16)
(0.170958 3.20399 0)
(0.503221 1.50274 7.10685e-18)
(0.448145 6.82386 0)
(6.22438 6.23029 0)
(5.71315 5.19343 4.14639e-17)
(0.314253 7.19963 0)
(5.68109 3.89184 1.08144e-16)
(4.04469 2.09286 -1.31266e-16)
(5.43755 5.75192 4.88204e-17)
(7.21261 1.33357 0)
(-0.241709 9.09432 -6.86759e-18)
(4.24236 7.55346 1.14535e-17)
(0.440598 -1.23267 3.24271e-16)
(1.03142 -0.0540485 -1.48421e-16)
(7.17911 5.34558 2.26915e-16)
(7.04477 0.0983306 -5.62538e-18)
(0.197122 3.26452 1.00948e-16)
(-0.343861 7.51081 9.83996e-17)
(-1.13538 -1.39112 1.04842e-16)
(-0.712321 -1.21891 -1.78161e-16)
(0.103482 4.51589 0)
(1.23975 0.679653 -4.78561e-17)
(7.47937 3.45514 1.06872e-16)
(7.2488 1.66358 -1.1029e-16)
(7.50049 4.65272 6.41969e-17)
(0.114035 3.98315 -4.92826e-17)
(8.87861 2.83469 5.73929e-17)
(-0.465733 9.16239 -6.33957e-19)
(-0.281834 8.80935 -2.16314e-17)
(2.74823 1.09727 3.91009e-16)
(0.0938005 8.86834 3.744e-17)
(-0.243642 6.71312 4.56763e-17)
(0.430653 8.67215 2.94538e-17)
(0.153521 10.5478 5.349e-18)
(0.606254 0.13089 2.13071e-16)
(-0.00361983 4.77791 -8.41981e-17)
(8.04423 5.10055 -9.62726e-17)
(-0.735137 -1.61563 1.03868e-16)
(-0.0708765 4.51028 0)
(-0.0466916 10.6556 2.39748e-18)
(4.89258 6.74659 -2.4156e-17)
(0.131174 3.89879 -4.55812e-17)
(8.51204 0.367796 4.13379e-16)
(3.93994 0.313238 2.41883e-19)
(-0.203394 -1.43838 2.46976e-16)
(0.110154 0.444916 2.20124e-16)
(0.00752424 4.30483 1.64868e-16)
(1.09026 -1.00886 1.52932e-16)
(-0.16567 7.27216 1.08995e-16)
(-0.0810374 -0.0524753 3.65064e-16)
(9.22246 1.15224 6.85419e-17)
(0.191985 4.07277 -7.69007e-17)
(4.4535 0.00204448 4.97382e-18)
(0.143797 -0.86914 4.31163e-16)
(8.48717 4.09602 0)
(0.665897 0.584353 0)
(0.407014 0.252073 1.66303e-16)
(-0.379318 3.86527 1.0255e-18)
(1.86077 0.682599 0)
(2.69549 -0.326656 0)
(1.92635 -0.928911 0)
(1.17201 -1.37416 -4.05712e-17)
(0.496217 0.140619 5.67488e-17)
(2.30887 -1.35805 0)
(0.937931 0.407064 8.40158e-16)
(-0.706609 -0.910362 -8.99016e-16)
(0.11947 -1.77504 1.33918e-16)
(-0.293696 0.0643093 -2.77925e-16)
(-0.52433 -0.174165 2.50237e-17)
(3.48648 0.036087 9.17573e-17)
(7.93301 3.00336 2.66381e-16)
(0.0384692 8.77793 3.61466e-18)
(-0.569897 -2.07219 -1.80479e-17)
(-0.525726 0.00493966 8.69757e-16)
(-0.0509783 -0.599489 0)
(-0.2517 0.0960532 -3.83747e-16)
(0.412825 -0.0120766 2.76392e-16)
(0.458041 0.184681 0)
(-0.669407 0.0470014 2.11702e-16)
(1.83453 0.893857 9.78741e-18)
(-0.567953 0.0399336 0)
(0.00580627 0.348976 1.14257e-16)
(8.01351 2.42771 -3.90159e-17)
(8.42783 3.59212 -1.79077e-16)
(1.90174 9.14278 -1.17976e-16)
(-0.0488208 0.118101 3.71441e-16)
(-0.726883 0.0462818 -7.33203e-16)
(1.66207 9.73355 -6.86524e-17)
(1.46247 -1.48792 -9.76678e-17)
(0.698458 0.188388 -5.6547e-18)
(0.234316 3.07219 8.11889e-17)
(-0.071548 6.04442 1.27506e-16)
(0.219647 0.144712 0)
(-0.617105 0.0428907 1.96162e-16)
(-0.0850947 -0.0398784 0)
(0.148135 2.66181 0)
(-0.14257 2.24054 1.15422e-16)
(1.15786 0.311001 -1.76147e-16)
(-0.0268139 -0.729359 9.38972e-17)
(-0.784446 0.0406788 3.54181e-16)
(0.0811522 2.05298 -1.00481e-16)
(0.139888 1.44199 0)
(0.167007 4.20984 8.90607e-19)
(3.02118 -0.482679 2.66064e-16)
(-0.0934244 10.3586 1.97811e-17)
(-0.229692 6.91124 4.68068e-17)
(0.0250132 8.73043 1.11895e-16)
(4.20934 1.30173 -5.01505e-17)
(-0.114147 3.4265 -1.0934e-19)
(-0.34148 -1.2849 -1.53305e-16)
(1.58012 0.593066 -1.18753e-16)
(6.4523 -0.0808416 6.1009e-17)
(3.33845 -0.407753 -1.70211e-16)
(-0.569372 0.0547412 0)
(0.177019 3.41829 0)
(-0.250992 7.49332 0)
(-0.0427524 5.88686 2.39111e-16)
(0.0720531 8.83044 -2.17389e-17)
(1.30256 0.897398 0)
(0.53456 -0.546304 0)
(-0.842017 -0.0919062 5.70918e-17)
(0.869404 -1.63613 8.19462e-17)
(0.252964 4.92315 1.56327e-16)
(-0.180591 -1.37289 3.51924e-16)
(-0.711407 -1.38646 0)
(0.944924 -0.493171 -4.85243e-17)
(3.0856 1.8979 6.78273e-16)
(-0.0677379 6.84404 -2.14421e-20)
(-0.306276 8.78195 0)
(-0.676722 0.744405 -2.31405e-16)
(-0.118937 6.16657 4.19211e-17)
(0.0868813 5.01428 7.62949e-17)
(1.64177 0.0146937 1.14041e-16)
(0.088609 4.23617 0)
(-2.21642 0.0756628 1.32136e-16)
(2.13123 -0.318655 4.79733e-16)
(0.260794 0.389003 2.98492e-16)
(1.44054 0.172981 0)
(0.0344642 -0.812436 2.83695e-17)
(-0.122833 1.4403 -1.19053e-16)
(5.93301 1.05789 -1.0007e-17)
(0.062486 8.77638 -1.18616e-17)
(4.67005 -0.876678 -3.15191e-16)
(-0.421822 0.0498361 1.42152e-19)
(0.434878 0.529951 1.48978e-16)
(0.0345492 5.90476 2.25797e-16)
(2.35648 0.352071 -1.1408e-16)
(1.18946 5.75269 1.21479e-16)
(0.107885 8.89153 0)
(8.31532 0.896934 -1.21523e-16)
(0.150081 2.51744 -8.87965e-17)
(-0.078753 5.25452 5.68471e-17)
(0.360281 -0.514525 1.91672e-16)
(0.990381 0.22918 -7.4588e-20)
(3.31093 1.29351 -4.24934e-17)
(0.437192 3.63838 -5.13701e-17)
(5.4599 2.64746 0)
(-0.0387292 7.23856 -1.97204e-17)
(2.60964 2.9428 0)
(1.1017 -0.978665 0)
(-0.0372428 5.05352 1.89159e-16)
(1.81086 -0.0195106 -7.73751e-17)
(0.156255 0.254216 2.68023e-20)
(1.48936 -0.640107 2.27742e-16)
(-0.270462 -0.139873 1.70992e-16)
(-1.01169 0.36374 4.63199e-19)
(-0.0228643 4.94997 -3.08335e-16)
(4.01243 1.87559 2.91673e-17)
(-0.405128 0.069412 3.94429e-16)
(1.30063 1.33735 1.3226e-18)
(1.25895 6.23853 1.64982e-16)
(0.343995 -0.1286 0)
(-0.679676 -0.677136 3.41965e-17)
(-0.0367474 7.22697 2.60896e-17)
(1.75093 -0.186237 -2.13816e-17)
(-0.236902 -0.701731 -7.17021e-17)
(-0.0675485 -1.77314 -2.12942e-16)
(0.243127 0.102073 3.49503e-16)
(0.165787 4.45475 0)
(-0.141114 3.07128 5.59682e-17)
(2.21986 8.04477 -1.41044e-16)
(0.885337 0.877608 1.28068e-16)
(0.533931 0.0506069 -4.25642e-16)
(0.0213249 5.14742 0)
(0.120987 -0.437603 -4.74216e-16)
(2.77581 -0.0927978 -1.01938e-17)
(8.14324 1.46175 -6.11848e-17)
(-0.406615 7.91503 7.87181e-17)
(5.73017 -0.090532 8.48784e-18)
(-1.34408 0.00493654 -2.11925e-16)
(1.64876 0.794799 -5.28388e-17)
(-0.666283 -1.21938 -2.54815e-16)
(-0.291357 -0.859697 -1.66611e-16)
(-0.0668051 6.29622 8.0552e-17)
(-0.720702 -1.85164 -2.38488e-16)
(5.75336 2.59525 1.98823e-16)
(0.721142 -0.167428 -3.65865e-16)
(-0.0881858 -0.676908 1.85469e-16)
(8.29942 0.491933 8.15072e-17)
(-1.64172 0.232761 3.43554e-19)
(0.183615 8.89396 7.69996e-17)
(-0.0276205 6.93323 4.46647e-17)
(-0.205416 8.27353 -5.72163e-17)
(-0.223024 5.46034 3.83479e-18)
(-0.000868976 7.41842 8.80323e-17)
(1.23926 0.379509 -1.0597e-19)
(-2.35112 -0.995452 1.7362e-16)
(1.02634 -0.217474 -7.98078e-17)
(-0.0430669 7.26174 0)
(-0.183315 -0.00421149 -1.87792e-16)
(-0.44489 8.81033 -4.80921e-17)
(4.39701 0.601399 -6.98681e-17)
(-0.0979419 3.92111 2.59638e-19)
(-0.301291 0.473297 -3.03512e-16)
(2.58683 1.08184 -9.94984e-17)
(1.6014 -0.521302 1.55945e-16)
(0.396698 0.0786213 1.52692e-16)
(0.0577441 3.30029 0)
(8.58907 1.41249 0)
(8.03397 1.04344 4.47737e-17)
(-0.125452 5.44251 0)
(3.27685 0.81908 0)
(2.01197 0.711784 -2.09549e-16)
(-0.0653594 0.510161 0)
(1.49563 -0.318077 9.70819e-17)
(3.98047 0.0959151 1.37384e-16)
(-0.00281272 0.719455 6.72954e-19)
(-0.929174 0.665411 -1.0344e-16)
(-0.505221 0.0507834 -3.99321e-16)
(-0.0770724 -0.273306 -2.03596e-19)
(-0.268509 -0.100064 0)
(-0.324876 0.525106 -6.86446e-17)
(-0.0526559 5.10493 8.64926e-17)
(0.114703 3.87576 2.52019e-17)
(3.20331 -0.185648 -6.49365e-19)
(0.652185 -1.12275 0)
(2.00128 8.45 2.78901e-18)
(1.65038 0.1412 -1.54618e-16)
(-0.0821198 6.63636 1.46426e-16)
(4.32055 -0.0503155 0)
(-0.725835 -1.15441 -6.36158e-16)
(2.96714 -1.00821 1.7015e-16)
(5.44566 0.300989 4.10449e-17)
(0.353194 9.31971 -4.89262e-17)
(0.735484 1.71089 0)
(-0.333165 -0.365794 1.3939e-16)
(1.14927 0.113996 6.31933e-16)
(2.60393 0.373889 -9.35764e-19)
(3.97159 0.0975096 4.44179e-16)
(3.07676 0.0814809 6.00335e-17)
(-0.340617 10.2454 -9.79683e-17)
(0.542875 2.88903 -3.1578e-16)
(-0.00419777 5.55392 -2.97068e-16)
(8.53524 0.229487 6.39176e-19)
(1.75537 -0.0169059 -5.41764e-16)
(-0.265917 -0.0684604 -1.24049e-17)
(1.05617 -0.22086 1.87144e-16)
(0.246515 9.32591 5.30149e-17)
(-0.424369 7.46966 -1.87502e-16)
(2.93303 -0.0537085 2.35763e-16)
(0.440764 2.26882 6.07607e-17)
(-0.367226 0.345821 -7.91921e-17)
(-0.682653 0.0592654 5.15215e-16)
(-1.02661 -1.0386 -9.41401e-17)
(-0.14829 0.053621 -6.65942e-17)
(0.470416 1.98296 -1.18914e-16)
(1.92225 0.429945 1.3541e-18)
(0.022168 4.16841 0)
(0.08142 6.5748 0)
(0.0533702 6.47366 0)
(0.0669611 6.5631 -3.58746e-17)
(-0.120647 6.28187 2.20745e-17)
(0.0108368 6.29562 0)
(-0.118827 6.58847 0)
(-0.0534615 6.22455 0)
(0.0984216 7.08198 -8.18547e-17)
(0.0623884 6.00354 0)
(0.166103 5.76833 0)
(0.151384 6.78885 8.25697e-17)
(0.0252625 7.12937 0)
(-0.0326456 7.0923 -3.77499e-17)
(0.184552 6.45029 2.00743e-17)
(-0.0379286 6.0334 0)
(0.302462 5.26772 -1.02246e-16)
(0.21064 5.67614 -3.86164e-17)
(0.21202 6.07702 2.35051e-17)
(0.451684 4.49431 1.1427e-16)
(0.551276 3.5133 3.49542e-17)
(0.648165 1.7268 1.89442e-17)
(0.604698 2.58712 -2.06661e-17)
(-0.0507111 7.0534 3.93216e-17)
(-0.0498555 7.04998 0)
(-0.0363361 7.04947 0)
(0.0161368 6.50919 3.57543e-17)
(4.55412 -0.0764558 4.3569e-17)
(8.23274 0.0231125 -2.39974e-18)
(-0.871435 -0.0256818 -3.00036e-16)
(-0.572287 -1.57884 -8.72456e-17)
(1.0332 0.852234 -1.7851e-16)
(-1.409 0.585865 -2.02092e-16)
(2.60778 -0.68138 2.37823e-16)
(0.40566 -1.12675 2.34726e-16)
(-1.68244 0.0132896 0)
(-0.187532 6.46316 -1.50231e-16)
(0.184041 5.73071 -6.90936e-17)
(-0.0372981 5.63946 -4.41884e-17)
(-1.34994 0.294516 -4.20293e-16)
(1.21 0.19029 0)
(8.62126 2.16384 -1.0421e-17)
(0.375368 -0.612593 -1.51748e-16)
(2.45178 -0.183986 1.44894e-16)
(-1.22073 -1.1558 7.98547e-17)
(1.40761 -0.051952 8.38836e-16)
(0.198601 8.35339 1.01201e-16)
(3.0683 -0.0834967 0)
(2.22374 9.57551 3.16314e-16)
(-0.100074 5.34221 0)
(-1.87366 -0.233578 0)
(-0.0348572 7.08134 0)
(-1.94397 -0.26316 6.42826e-17)
(1.54872 -0.415901 1.51177e-16)
(8.74886 0.906132 -2.64794e-16)
(-0.874886 0.037467 -2.05961e-16)
(8.64462 0.566025 -8.03409e-17)
(0.183052 1.54832 0)
(1.68737 0.116727 0)
(-1.64002 -0.944475 -1.09878e-16)
(-0.114019 7.394 1.65933e-16)
(-0.980209 0.933993 0)
(1.90795 -0.471087 -2.58515e-16)
(0.330444 0.281316 0)
(-1.91857 -1.2293 0)
(-0.00364327 0.151235 3.70461e-17)
(4.43806 0.26395 5.83761e-19)
(-0.09358 7.09619 -3.94751e-17)
(-1.45624 0.209764 -3.2109e-16)
(1.0193 -0.596146 2.51865e-16)
(2.64608 0.148111 -1.51251e-16)
(-0.0390909 5.12211 0)
(6.78585 0.15798 3.28379e-17)
(8.28342 1.88647 0)
(2.10611 0.863689 -3.50383e-16)
(1.50038 0.356747 -2.77923e-16)
(3.14783 1.02402 -3.22018e-16)
(0.810344 0.313875 -1.90068e-16)
(3.0484 1.22973 -1.58895e-16)
(0.850123 -1.34228 -5.47291e-16)
(-0.272115 -0.179266 -1.36261e-17)
(1.71542 -0.150458 5.65649e-17)
(3.03604 -0.0908358 -1.26574e-17)
(4.26769 0.281435 1.56665e-17)
(-0.171827 5.73414 9.09716e-17)