/*--------------------------------*- C++ -*----------------------------------*\
| =========                 |                                                 |
| \\      /  F ield         | OpenFOAM: The Open Source CFD Toolbox           |
|  \\    /   O peration     | Version:  v1912                                 |
|   \\  /    A nd           | Website:  www.openfoam.com                      |
|    \\/     M anipulation  |                                                 |
\*---------------------------------------------------------------------------*/
FoamFile
{
    version     2.0;
    format      ascii;
    class       volScalarField;
    location    "0.84";
    object      p;
}
// * * * * * * * * * * * * * * * * * * * * * * * * * * * * * * * * * * * * * //

dimensions      [0 2 -2 0 0 0 0];


internalField   nonuniform List<scalar> 
1431
(
90.8854
89.1639
87.8115
90.6561
90.5896
86.2847
88.022
96.6321
90.2749
90.0894
88.8095
89.0073
88.8726
102.322
88.8765
89.339
89.2483
89.428
90.44
89.0617
90.514
89.9955
88.5411
103.239
78.9224
89.4888
72.1585
101.461
90.2555
89.9943
112.869
119.643
81.9716
86.5747
88.5444
87.3945
90.7937
95.6894
86.2813
95.7816
109.745
89.242
86.7467
88.8032
81.3312
90.5268
90.6762
117.937
113.875
97.0985
89.7954
90.0776
89.7746
86.3943
88.2683
110.841
89.4745
87.5283
78.8854
90.4937
89.4611
88.6703
90.2602
96.5259
98.5739
89.1884
86.5213
86.0767
90.1995
96.9398
86.7289
88.7268
88.5685
86.6113
88.867
82.1539
90.6607
81.9774
96.9484
73.5003
96.5509
89.6256
88.6319
89.6309
80.8093
90.6249
90.6156
88.8354
104.184
89.4258
89.9709
89.3091
90.6865
95.4194
89.5491
90.5834
88.9407
98.7504
90.4713
112.835
90.194
95.5787
90.9598
90.5091
89.3504
88.798
96.6677
113.097
114.791
90.6209
75.1326
89.0374
97.1557
89.0996
89.1109
90.4623
89.4306
89.0403
105.091
82.3931
94.0496
88.7204
89.906
107.96
96.246
88.4549
105.928
88.7969
90.7584
96.3794
88.7844
114.075
103.403
90.6382
90.706
90.0573
88.5754
89.2266
90.5765
113.629
91.1525
90.7715
95.6676
113.98
115.213
94.5247
98.2108
113.549
88.6216
112.366
97.2277
99.6879
88.5667
88.7466
88.5338
88.8567
96.5558
89.6629
97.9366
107.203
89.3833
88.7443
90.9798
88.9209
90.4448
71.5672
90.6068
94.8179
89.9043
90.8324
105.814
88.9009
111.717
97.4366
96.1767
88.8909
88.3946
98.1097
90.1499
103.819
96.5534
89.3286
103.999
89.6851
95.9416
106.875
95.6312
86.067
90.0146
96.524
89.8332
89.2804
90.6075
96.3556
89.7653
93.7468
96.6778
116.35
88.6262
88.6036
88.5028
116.214
110.792
108.445
96.5878
75.2896
90.6066
96.9721
88.7046
100.551
96.3514
97.2348
108.657
96.8807
89.4655
87.1492
98.8646
89.323
89.241
96.5813
96.5814
69.0105
95.8342
100.621
97.2572
91.3188
109.707
90.0594
101.544
113.202
90.6006
90.0615
96.8258
95.0148
96.3044
96.9579
97.9768
90.9425
96.5013
88.3575
98.3936
109.074
90.6324
89.1921
88.9216
88.9565
95.8372
88.3291
86.4327
104.693
102.535
90.5823
90.0733
116.619
90.1985
97.4529
89.795
88.3773
96.2915
96.8063
97.2905
88.998
90.3394
90.9988
96.5321
100.641
91.6955
95.4828
102.639
90.7424
96.6746
112.789
101.506
100.507
96.9122
93.6517
90.7144
89.1843
89.3947
90.0929
89.8219
88.3388
89.4926
90.3037
93.6589
88.2067
90.6363
102.445
103.509
97.7024
94.4322
96.501
102.32
90.0954
104.04
99.1482
90.6291
101.94
88.4619
105.428
96.6918
111.364
88.7835
115.746
88.739
88.6656
96.6641
97.1623
96.518
89.9255
97.4862
95.9991
89.4906
90.7532
88.7096
88.8708
90.4775
88.4464
95.902
90.0683
88.6009
90.0815
91.532
88.4035
90.6256
90.0483
96.4489
90.0741
110.231
97.1942
89.4597
88.7946
88.3309
89.9897
96.2844
90.678
90.0599
90.0225
89.8884
88.8577
88.56
96.5426
90.0209
88.9496
101.463
88.8157
97.2096
88.7996
90.3699
90.0991
88.8296
89.372
89.314
89.504
88.8939
88.7749
89.3681
88.8361
89.5181
88.45
89.9256
88.8662
89.5635
90.4396
90.3064
88.8249
89.697
88.6898
89.5718
89.4881
88.954
88.3423
90.1069
105.453
89.6535
89.2807
89.3382
95.9259
95.1616
89.5836
89.2125
88.8413
90.2043
89.3624
88.7993
89.6244
88.5664
88.8695
89.4737
90.3993
88.7893
88.3532
108.369
95.9173
90.0878
89.0844
89.9642
96.9096
90.5578
96.6151
88.4388
89.4698
96.8381
89.7684
89.5825
93.4012
88.5243
115.51
89.9576
89.3267
93.7594
89.3879
89.3689
86.2371
114.603
129.518
89.2576
90.7376
88.7907
89.9279
88.3977
90.4244
90.315
88.6018
90.3789
89.1957
88.6871
90.0681
80.9054
88.9668
81.1552
88.5427
89.6154
90.3482
88.3587
88.9852
90.426
90.0731
88.6356
86.2786
87.9955
92.418
90.0364
89.7409
88.3679
90.589
90.6055
88.4266
87.9934
90.5699
90.5288
90.3389
90.6658
90.2189
90.3627
90.0848
90.2082
90.3423
90.153
88.4307
83.8397
90.0666
86.3676
86.8573
88.534
88.6506
89.9997
84.8746
86.5759
88.7015
85.5596
89.3599
115.458
112.869
86.7303
88.7592
88.3481
87.99
89.2059
90.2373
90.2965
89.4209
99.2289
94.8784
115.414
88.9183
86.8452
90.4945
90.3649
88.223
88.2617
90.221
88.8051
92.6024
90.2611
89.4893
87.7419
89.152
96.9775
88.8876
86.8238
83.3618
89.7989
88.8623
88.9244
88.276
88.7904
90.4216
90.2859
91.2682
90.9327
88.2686
97.7151
89.437
96.6005
90.2304
90.078
84.0549
90.2974
88.6357
88.3729
88.532
88.7788
89.9976
89.4267
90.4076
89.4505
90.3368
88.5053
89.4552
115.399
116.253
88.7196
88.5524
90.3951
90.3579
89.5241
89.1644
90.6558
94.8576
88.8148
89.0161
89.3583
89.3593
89.0949
90.5223
89.6889
96.4638
90.4147
88.7974
88.7541
88.6611
95.8375
90.4038
88.3636
89.5583
89.2463
89.2444
94.8355
100.253
90.6374
88.7417
89.3063
90.3186
81.4459
89.9984
90.5823
101.631
89.7438
88.8561
88.7889
90.575
90.8985
90.5662
88.4063
89.3363
90.5113
89.8611
88.7915
98.3724
89.5457
96.5261
89.5066
89.0091
88.5809
88.9622
89.4552
94.8191
89.7019
99.7735
89.4167
87.6846
94.1517
95.3486
96.3988
88.8402
90.2813
89.5164
100.589
88.7839
89.472
89.4043
88.7846
89.3484
89.4612
90.5326
88.6567
88.7842
90.616
90.0093
94.2103
90.5348
89.9712
90.2879
91.9189
99.613
89.5845
90.372
89.8836
90.468
88.7686
88.4813
89.3924
88.7943
89.162
121.97
88.7694
90.2925
90.4605
96.3879
90.667
89.196
89.454
96.3776
88.4562
90.4378
88.7716
103.947
92.9718
89.0254
89.0992
90.5896
96.4208
90.5318
88.8021
89.2014
88.9415
90.4627
90.2082
88.98
89.3299
88.7189
98.791
93.6219
90.6485
90.4509
96.6941
96.3392
89.9131
90.513
88.7779
90.5385
89.3069
89.7353
96.9655
88.8026
92.7045
90.438
90.4944
89.3264
90.2987
96.5983
89.3419
88.8641
115.263
114.564
86.897
89.3439
88.8124
95.3491
88.9469
88.625
88.979
89.368
89.4703
88.5375
90.3724
88.9486
89.2767
90.0323
113.577
88.7526
88.9509
91.0135
90.5212
88.7726
90.4922
88.8189
96.7039
105.513
89.1694
88.7813
100.678
88.7905
90.59
127.922
92.6282
90.5676
90.9598
108.43
89.8943
90.2394
88.7839
90.3023
90.1831
97.2963
89.2497
90.1219
107.617
90.8744
97.1255
98.1539
96.2924
88.6818
88.8156
97.7312
90.1365
90.5994
106.719
90.0767
90.1563
89.4312
106.151
105.518
89.4906
99.6938
89.2493
88.677
90.5981
89.2783
88.818
90.6144
116.802
89.8245
98.977
97.7822
101.396
102.474
106.877
88.7951
90.6699
103.009
104.835
103.244
89.8426
88.6141
96.4034
96.7447
97.1191
106.697
89.3693
104.924
109.824
101.463
96.1935
89.4247
88.9094
108.293
98.5328
104.068
89.1301
96.9929
90.3208
88.7752
89.7385
100.407
90.4763
89.3383
90.3242
88.8108
88.7615
88.9361
102.411
91.527
90.0688
104.712
90.2958
88.7979
88.9422
107.422
90.406
98.7566
109.798
139.578
95.7393
96.7969
90.3378
88.7727
91.5496
95.9609
90.6269
88.8423
109.861
88.7848
90.6245
88.5325
93.0279
89.415
88.2718
90.7038
97.2256
96.072
89.9641
90.3105
78.6479
97.9452
97.7152
95.1437
95.2668
95.3961
98.6494
96.7975
101.555
89.3912
88.6536
97.4044
88.6378
88.9696
88.7971
90.4309
89.2082
90.2694
88.8385
90.7218
88.8345
90.8141
90.2724
96.1951
88.4693
90.5258
97.9339
113.747
98.398
95.1314
85.1997
111.967
88.789
88.8345
88.9305
96.4686
89.3705
88.8878
88.5027
90.0376
120.477
88.6312
89.7477
89.1231
96.5884
96.7221
96.3707
90.0256
88.7903
89.3308
88.5731
90.7563
95.1207
107.204
90.5439
88.8026
115.12
97.6931
89.7414
89.0552
90.1712
105.846
86.6048
88.7008
89.3525
96.6256
90.3139
88.8671
88.9169
89.9501
96.9391
90.8591
88.5596
83.3511
81.9532
114.136
98.4235
87.1747
86.6993
96.8476
90.4109
86.7795
90.2282
88.8176
90.0748
88.8555
89.732
89.6585
90.2482
90.2878
110.954
113.205
98.5509
90.9773
90.0611
90.233
89.6055
96.2935
89.9555
89.6768
90.1298
89.208
89.5504
97.0157
88.9854
88.8857
90.2805
97.0866
88.6281
96.4466
96.4794
98.3691
88.8999
96.8458
90.4713
107.545
89.9518
107.661
88.7088
88.9215
89.3109
89.0382
88.9432
89.6765
90.0568
89.5168
90.9706
89.0069
96.7988
90.3814
90.8141
88.6689
72.4582
90.6507
89.5045
90.8622
90.5539
90.408
89.8391
90.52
107.624
88.8004
90.6405
89.3194
90.598
89.099
91.0184
90.744
88.7534
89.562
89.1884
90.8271
90.8079
95.1437
90.5729
89.5978
90.582
90.0956
89.0718
85.6366
90.5624
89.9048
96.5624
90.8053
90.8159
89.223
89.1606
99.4817
90.4527
89.6774
90.2127
86.657
90.5706
96.1266
90.8465
93.9243
90.5156
96.9069
90.5342
89.0312
97.344
88.8168
89.667
102.72
79.5288
90.6298
90.8244
88.8304
97.3437
86.8241
88.9915
97.0887
86.9913
89.0639
94.8322
90.1107
90.6287
90.2142
96.3737
99.562
111.905
88.1264
91.233
90.8968
89.497
90.6969
89.0514
92.0493
88.4476
82.8096
99.5165
88.8135
88.6112
89.4837
89.1004
110.898
90.6755
90.0238
88.7882
89.9047
88.4682
90.8592
90.3091
96.4635
90.2899
89.3778
91.5062
90.5135
90.4238
88.7959
90.4171
88.6673
81.9141
90.6291
105.031
88.7831
88.7884
95.5776
90.883
89.2835
86.5418
88.4624
89.4896
99.3529
90.2242
115.893
90.4244
89.6593
92.8533
81.4018
118.216
90.2106
88.8172
96.793
96.0668
90.8433
88.8095
95.8826
90.4771
95.2441
96.6518
89.4099
90.4318
94.9554
97.5093
97.471
90.4539
90.2889
89.5838
89.9745
116.829
90.4953
91.5669
112.655
96.6574
88.9955
90.11
100.712
89.8098
117.339
94.1927
90.8791
88.6095
97.5641
90.8794
92.8819
90.2782
90.7482
88.8404
77.8416
88.765
97.1971
88.9642
90.3651
88.7904
100.54
88.4739
89.1756
90.3817
113.202
89.3223
114.189
88.949
88.4215
108.2
110.564
88.399
89.5976
97.4292
90.6726
80.5264
90.8666
89.3582
90.2666
86.4602
88.5179
97.5062
90.1146
90.8997
90.0366
88.6591
88.9622
88.8456
91.9413
88.4368
90.3402
88.8165
88.7724
90.2344
90.2724
90.7285
96.039
80.74
90.4749
90.2325
96.7866
82.469
90.3759
88.7804
88.7765
88.7577
89.6074
90.3024
100.46
107.722
97.2927
81.9306
90.6223
90.0901
88.8088
90.5824
111.425
113.784
90.3563
88.7877
90.8185
96.906
86.5558
89.4266
92.4353
95.0246
95.1997
114.661
90.0426
88.6872
90.2915
108.643
82.5145
110.508
90.6662
90.1438
92.3744
95.7179
89.585
97.9179
90.1468
88.7384
94.6168
99.1526
90.7102
89.7387
90.6617
80.6064
90.0933
88.7117
97.1043
88.7013
89.6152
88.0579
89.5322
89.2675
98.1614
92.2434
88.8661
90.6489
96.9266
96.6466
97.7363
90.7352
88.9695
89.506
89.9409
84.9999
88.6736
88.5066
89.6943
89.3975
90.672
95.1634
90.2446
89.2603
113.275
88.6564
115.994
95.6112
95.8708
98.3123
86.8952
90.62
77.4494
90.6404
90.6818
80.9325
90.6614
88.5006
90.058
89.4568
89.3862
92.0999
86.8835
88.9321
89.9685
90.6085
88.8235
89.52
114.862
90.5313
88.8705
96.4514
89.4691
89.9422
90.6221
90.1349
91.723
90.6637
89.2808
88.831
88.4089
95.5298
92.058
96.5251
94.6238
89.2004
82.4712
88.6888
89.7138
89.1521
89.2595
90.0057
96.9846
88.71
96.1548
93.4709
90.0341
96.9645
99.4103
89.0241
88.9592
120.133
125.801
88.5928
89.9044
90.612
90.6083
90.0976
89.2494
95.0662
92.1761
93.6223
88.795
90.8793
95.5626
89.4906
89.0483
88.8353
90.3237
90.6491
96.9009
88.9691
90.4432
90.2544
90.6446
90.0658
96.617
88.6325
90.4723
95.3121
98.955
89.9847
90.1327
89.0289
90.4925
89.1578
90.2302
89.4752
89.3825
90.4754
90.785
88.3555
90.3924
88.3703
91.4309
85.8665
90.9619
90.0299
90.402
88.4703
88.7377
90.6337
88.5579
97.6849
88.8232
72.3125
96.303
89.4929
90.5643
116.475
89.2041
89.6757
86.6759
90.6051
88.8577
90.3836
96.2128
89.2713
88.8006
88.854
94.9016
90.3487
89.2817
89.4659
88.6571
89.5139
96.4769
90.796
88.891
89.1401
88.3887
116.142
88.5606
91.1965
90.1796
90.4313
98.7237
88.7976
99.2463
97.9352
90.8258
88.7873
90.1766
89.2163
89.5202
88.8244
88.8315
120.777
90.4829
88.7224
100.616
88.6028
112.364
95.9873
99.9743
90.4856
95.7137
89.3085
90.3825
88.9839
90.7593
81.7084
90.1769
90.6589
88.8538
94.3239
88.8217
90.8778
88.7797
90.9108
97.6283
96.9746
96.7017
90.1836
84.8978
94.9593
96.2607
97.0954
96.4667
88.502
90.0046
90.4913
90.2256
97.4441
113.094
90.2929
90.3484
90.4309
90.1761
89.0768
96.4913
98.1077
79.1849
122.794
86.8704
87.3817
115.822
88.8227
89.3238
96.7934
)
;

boundaryField
{
    frontAndBack
    {
        type            empty;
    }
    wallOuter
    {
        type            zeroGradient;
    }
    inlet
    {
        type            zeroGradient;
    }
    outlet
    {
        type            fixedValue;
        value           nonuniform 0();
    }
    wallInner
    {
        type            zeroGradient;
    }
    procBoundary0to1
    {
        type            processor;
        value           nonuniform List<scalar> 
29
(
88.1535
87.8909
86.2858
86.2858
80.6878
80.6878
114.936
86.2445
84.3922
86.2268
86.4958
80.8968
86.382
88.3405
115.269
115.599
80.2361
80.926
86.1967
87.8738
115.468
115.353
82.1591
115.674
115.815
80.926
116.42
114.84
115.674
)
;
    }
    procBoundary0to2
    {
        type            processor;
        value           nonuniform List<scalar> 
42
(
89.983
89.8884
90.3249
90.2602
90.0514
89.983
90.3249
90.2171
89.9911
89.9335
90.0857
90.0217
90.0857
90.0123
89.9547
90.1291
89.9547
89.959
89.9442
88.2676
88.2676
89.959
90.0357
88.7853
88.7853
90.1153
89.3464
90.204
90.0536
89.9229
89.9229
90.247
90.2497
90.2342
90.2128
90.3249
89.8397
90.3018
90.0536
90.2171
90.1245
90.1842
)
;
    }
}


// ************************************************************************* //
