/*--------------------------------*- C++ -*----------------------------------*\
| =========                 |                                                 |
| \\      /  F ield         | OpenFOAM: The Open Source CFD Toolbox           |
|  \\    /   O peration     | Version:  v1912                                 |
|   \\  /    A nd           | Website:  www.openfoam.com                      |
|    \\/     M anipulation  |                                                 |
\*---------------------------------------------------------------------------*/
FoamFile
{
    version     2.0;
    format      ascii;
    class       surfaceScalarField;
    location    "0.84";
    object      phi;
}
// * * * * * * * * * * * * * * * * * * * * * * * * * * * * * * * * * * * * * //

dimensions      [0 3 -1 0 0 0 0];
oriented        oriented;


internalField   nonuniform List<scalar> 
2708
(
1.47346e-05
-3.77602e-05
-3.47387e-06
2.64995e-05
-4.06131e-05
5.12189e-05
-0.00015991
0.000149304
0.00123751
0.000236172
-0.000913241
-0.000560445
-0.000326483
0.000184405
6.20447e-05
8.00338e-05
1.68696e-05
-5.33892e-06
-8.7447e-05
7.59164e-05
0.00046119
0.000353598
-0.000241238
-0.00057355
6.60065e-05
9.49117e-05
0.00060218
-0.000825671
0.00100601
-0.000782524
0.000193873
0.00031752
-0.000412831
-9.85624e-05
0.000158359
0.000257789
-0.000293086
-0.000123063
0.000255759
1.51994e-05
-2.29987e-05
-0.00024796
-5.04247e-05
0.000137895
-8.74706e-05
1.78192e-05
-3.18073e-05
-1.46289e-05
2.86171e-05
0.000850937
-0.000865457
4.14853e-05
-2.69654e-05
0.000137121
-0.000142196
6.1439e-05
-5.63634e-05
-4.85271e-07
-0.000325496
0.000325981
-0.000221132
0.000199077
0.000159176
-8.84572e-05
0.00024647
-0.000188855
3.08425e-05
-2.02751e-06
-2.08208e-05
2.28484e-05
0.000255132
4.0687e-05
-4.00601e-05
-7.69527e-05
-3.98165e-05
1.01857e-05
0.000106584
-0.000109515
-0.000159748
-4.03827e-05
7.42033e-05
0.000271907
-0.000305728
0.000821461
5.87115e-05
-2.92361e-05
0.000377336
7.71508e-05
-0.000406611
-4.7876e-05
0.000231897
-5.66054e-05
7.98405e-05
-0.000414671
0.000345383
-0.00015607
0.000225358
3.46346e-05
-1.94607e-05
-0.000880631
-0.001038
8.37648e-05
0.000958546
-4.30956e-06
-0.000222422
0.000139278
9.80594e-05
-1.49151e-05
-0.00043578
0.000976524
-0.000560009
1.92648e-05
0.000929776
0.000449679
-0.00061419
-0.000765265
0.000210795
0.00019633
-0.000407125
0.000118442
-0.00014573
2.7288e-05
0.000103338
-0.00014442
4.1082e-05
-0.000877022
0.000873935
0.000675001
-0.000671914
0.000147305
-3.02188e-05
-0.000183316
6.623e-05
-0.0011861
0.00114283
-5.22344e-05
9.54973e-05
5.99816e-05
-6.44571e-05
-0.000125672
-0.00140047
-3.51271e-05
0.000249499
-0.000358403
-0.000256935
4.23464e-05
0.000572992
0.000116616
-1.51398e-05
-0.000101476
-3.69865e-05
5.13711e-05
-0.000133331
0.000118947
-4.83981e-05
7.38424e-05
-0.000132167
0.000106723
0.00014172
-5.08336e-05
-0.000222017
0.000131131
7.44134e-05
0.000140445
-0.000100398
-0.000114461
5.36301e-05
0.000677619
-0.000375344
-0.000355905
-1.74501e-05
2.78831e-05
-0.000956102
0.000945669
-0.000655997
0.00116346
-0.000871037
0.000363577
3.00391e-05
-0.00108239
0.00110884
-5.64833e-05
0.000217864
-5.15461e-06
-0.000223854
1.1145e-05
-0.000429519
0.000271011
0.000316867
-0.000562092
0.000325439
0.000430527
-4.61221e-05
5.15679e-05
-5.39325e-05
4.84867e-05
-3.37648e-05
4.86092e-05
-8.24591e-05
6.76146e-05
-0.000970242
0.00011457
0.000953063
-9.73918e-05
-7.56019e-05
-8.61801e-05
0.000464849
-0.000303068
-0.000142136
-7.05781e-05
0.000625133
-0.000412419
-0.000568379
0.000531045
-4.59849e-05
9.76452e-05
-0.000128613
0.000331271
-0.00027702
-6.20355e-07
0.000118713
7.69112e-05
-7.55434e-05
-0.000120081
0.000460266
-0.000744843
-0.000592445
-0.000426775
0.000472266
0.00101195
-0.00105744
0.000847792
-0.000171105
-4.76096e-05
-0.000629077
-1.87217e-06
5.78964e-06
-0.000255817
0.0002519
0.000222113
-2.36429e-05
2.49744e-05
7.59142e-05
-4.69174e-05
-5.39712e-05
-0.000624492
0.0010295
-0.000734645
0.000329637
8.14552e-05
5.49403e-05
8.37808e-05
-1.244e-05
-7.94322e-05
8.0914e-06
-0.000106879
-3.68759e-06
-2.07276e-06
0.00011264
6.48971e-05
0.000145898
1.99854e-05
8.76359e-05
-0.000104407
-3.21453e-06
2.14822e-05
0.000644772
-0.000430082
0.000967444
6.29144e-05
-0.00101536
-1.50029e-05
0.000136961
-0.000265281
-6.88767e-05
0.000197197
-0.000953689
0.000926096
-0.000399182
1.36872e-05
0.000228099
-7.93863e-06
-0.000233847
-3.55603e-05
4.19344e-05
-3.42167e-05
2.78426e-05
4.8365e-05
-0.000138516
0.000187415
-9.72642e-05
-0.000277877
-6.456e-05
0.000202544
0.000139893
9.02897e-05
-0.000107345
3.65694e-05
-1.95142e-05
0.000138447
-2.00718e-06
-0.000153141
1.67011e-05
-6.68528e-05
-3.97929e-05
6.03127e-05
4.63329e-05
0.000781426
7.79435e-05
-3.79079e-05
-0.000118636
0.000139598
-0.000189204
0.000168243
0.000124519
0.000119369
-0.000112605
-0.000131283
-0.000204285
0.000182716
-4.52836e-05
0.00012292
-3.63742e-07
1.58906e-05
0.00113004
-1.74757e-05
3.02649e-05
-1.33821e-06
5.40944e-06
-0.000184581
0.00018051
-6.93097e-05
0.000124129
-0.000100804
-1.22428e-05
-9.46305e-05
-5.98723e-09
-6.6026e-05
-0.00100312
0.00103127
3.78744e-05
-0.000137717
-2.56172e-05
0.000139082
2.42528e-05
-0.000806242
-0.000285536
6.9447e-05
2.32267e-05
-6.76993e-05
3.01826e-05
-0.001087
0.00108712
-3.03018e-05
-6.25477e-05
1.80736e-05
0.000128256
-8.37816e-05
-0.000138249
7.99219e-06
-1.78843e-05
0.000148141
0.000205545
2.05139e-05
8.14998e-06
-0.000234209
4.46422e-05
-8.10236e-05
-4.56673e-05
8.20486e-05
0.00104003
-0.00146422
0.000184091
0.000240101
0.000475586
8.96064e-06
1.26046e-05
-0.000497151
8.82609e-05
8.77381e-05
-0.000957383
2.191e-05
5.98103e-05
-8.66602e-05
4.9399e-06
-6.15359e-06
0.00017066
-0.000216891
5.23843e-05
6.44355e-06
-0.000175087
0.000166771
0.000845112
-0.000579183
4.91712e-05
-0.0003151
-0.000223239
0.000141775
0.000200178
8.47656e-07
-1.52815e-06
0.000206226
1.2269e-05
-6.38915e-06
-0.000144129
-0.000148764
-5.76273e-05
0.000117934
3.47537e-05
-3.50224e-06
-4.49991e-05
1.37477e-05
0.000727278
9.92835e-05
-4.51357e-05
0.000171643
0.000166407
-0.00113878
0.00114082
9.59165e-05
-9.79535e-05
-0.000304017
-0.000400211
-0.000216007
-0.000289114
0.000772606
0.000179097
-0.000823267
-0.000128435
-0.0009932
-0.000637389
0.00105505
0.00057554
2.28591e-05
-3.0272e-05
-1.90375e-05
2.64504e-05
0.000117336
-4.4332e-05
0.000654274
-6.6373e-05
1.34013e-05
4.92841e-05
-2.3016e-05
4.76769e-05
-6.92601e-05
4.45991e-05
0.000822504
-0.00104102
0.000356532
-0.000138016
-9.33129e-05
6.31876e-05
1.95299e-05
1.05954e-05
-0.000351436
2.00863e-05
-0.000102464
-0.000755686
0.00085815
-9.31568e-05
-0.000194871
0.000225481
6.20624e-06
-1.47813e-05
0.000131495
-6.13898e-06
5.01436e-05
-0.00024829
8.85212e-05
-1.54329e-06
-3.19707e-06
-1.59633e-05
9.97323e-07
0.000174434
-0.000159468
-0.00010656
0.000131295
-1.28178e-06
-2.34529e-05
-0.000332863
-7.95064e-05
6.09334e-05
-0.000337799
4.4554e-05
0.000313039
-1.97942e-05
-0.000106587
9.14759e-06
0.000103646
0.000899133
-2.32708e-05
-0.000766298
-0.000109564
-0.00010386
0.00111226
0.000155062
-0.00110946
9.22406e-05
0.000860026
-0.00102786
-0.000262866
0.000430697
-0.000227115
-0.000988277
0.00118973
2.56572e-05
0.00015501
-1.22875e-05
-2.41249e-05
9.33661e-06
0.000103309
-0.000917849
0.000881754
-0.000275552
0.000311648
0.0012705
7.66069e-05
-0.00031579
-0.00103132
-4.97198e-05
0.000906619
-9.10744e-06
-8.83924e-05
0.000130716
-8.42161e-06
-3.39021e-05
-1.22561e-06
-3.43347e-05
6.7825e-05
9.08622e-06
-3.75749e-05
-4.10409e-05
-0.000930172
-0.00037805
0.000354532
-0.000269751
-9.69875e-05
0.000273581
0.000909223
0.000115338
-0.000179449
-0.000189075
0.000900543
-0.000885569
0.000174102
0.000249383
-2.49806e-05
2.20669e-05
-0.000159513
0.000176075
-3.45398e-05
-2.79145e-05
8.05279e-05
-1.72818e-05
7.08357e-05
-5.27063e-05
-2.59645e-05
0.000146772
-6.99333e-05
-2.19221e-05
8.57018e-05
-9.60129e-05
4.86132e-05
2.14428e-05
1.647e-06
-6.20536e-06
-0.000103568
6.88596e-05
-0.000160163
-0.000948024
0.000183233
0.000882127
-2.37973e-06
0.000216317
-0.000214423
0.000369621
-0.000583752
-0.00055437
0.000768501
1.41542e-05
0.000238265
-0.000876911
-3.3865e-05
0.000918565
1.44328e-05
8.52715e-05
4.12359e-05
-0.000126507
-2.51981e-05
1.90591e-05
0.00108402
-0.00126059
-0.000153598
0.000330175
0.000150472
6.92725e-05
-8.04666e-05
-0.000820429
-0.000351588
0.000853953
0.000318063
-8.41462e-05
0.00104642
-0.000949675
-1.26003e-05
-2.02707e-05
0.00014136
-2.71901e-05
-9.38988e-05
0.00012728
-0.000981384
0.000947272
-9.31674e-05
0.000176236
-0.000151282
-0.000248193
-0.000333613
0.000247638
0.000946002
-0.000924829
0.000913568
-0.000177814
0.000627723
-0.000604726
2.42683e-06
0.000555829
-0.000508112
-6.35351e-05
0.000176796
-0.0003329
-0.000909168
0.000311895
-3.65076e-05
-0.000157711
0.000224324
-3.01051e-05
-0.000339662
0.000350534
-9.47382e-05
8.38666e-05
0.000104298
0.00101744
-0.000892798
-0.000158504
0.000278286
-2.96794e-05
1.17397e-05
-0.000260346
-0.000153809
0.000166032
0.0011286
8.18425e-06
2.31457e-05
0.0010087
0.000127599
0.000935351
-0.00100269
-6.02652e-05
-3.72878e-05
-3.82556e-05
-2.79512e-05
2.94945e-05
-0.000210135
0.000280671
-7.05369e-05
-0.000200302
-0.000917716
0.000200168
-0.000326958
-7.50099e-05
4.35648e-05
-0.000198074
-0.00024871
4.08232e-05
-4.65463e-05
4.08783e-05
0.00102321
-8.68363e-05
-0.000977255
-1.65968e-05
0.000136463
-0.000123722
3.8552e-06
-7.52924e-05
0.00105684
-0.000650762
-0.000265307
0.000675091
-1.24875e-05
-0.000889718
0.000133064
0.000833905
-0.000194364
0.000977339
0.000149031
-0.000159369
-0.000967001
0.000174701
-3.33415e-05
-0.00022754
0.000179636
-5.19742e-05
-0.00019824
0.00020504
0.00089899
-0.000194807
0.000176802
4.32226e-05
-0.000256532
-8.12993e-05
0.00010089
5.46789e-06
-2.5059e-05
0.000369029
-9.18786e-05
0.000583821
-0.000860972
0.000353169
-0.000100841
0.000514915
0.00122785
-0.00055447
-0.000358771
0.000810525
-0.000883957
-1.84461e-05
-0.00102097
-0.000832583
0.000592958
0.000836704
-0.000903942
-0.000231544
-0.0010113
4.9539e-05
0.00100324
0.000881625
0.000105257
-1.66245e-05
-8.89958e-05
-0.000164786
0.000184987
0.000162515
0.00101257
0.000201018
-0.000531696
0.000962138
-0.00125611
-0.000416745
-0.000922963
0.000808012
-0.000616214
0.00087456
-8.19627e-05
-0.000991689
8.5374e-05
2.76304e-05
6.00614e-05
-7.29573e-05
-0.00093754
0.000664196
-5.95552e-05
-4.05918e-05
2.68041e-05
-2.46942e-05
3.8482e-05
-0.00110912
-3.60039e-05
0.00106984
-0.000188723
0.00017155
-0.000262568
-8.02808e-05
0.00013314
0.000209709
-0.000508275
0.000628879
-2.2441e-05
1.56874e-05
-3.08212e-05
-1.62938e-05
1.71831e-05
-2.33303e-05
0.000756957
0.000173544
0.000159976
-0.00100362
0.000154881
-0.000973958
-8.72059e-05
0.00117359
-0.00011243
0.000142583
-8.76306e-05
0.00014846
-0.000128407
0.00079202
0.000489867
-0.00115429
0.000197275
-0.000264499
-0.000964088
0.000987678
-2.35901e-05
9.58344e-05
-9.94908e-05
3.65637e-06
1.2863e-05
-3.76414e-06
-4.96907e-05
-0.00104851
-2.41671e-05
0.00107267
-0.00100524
0.00101654
-1.13044e-05
-0.000934049
-1.57564e-05
-0.000478542
0.000179826
-3.90822e-05
0.000244489
-0.000873191
-0.00102457
4.79104e-05
-0.000989278
0.00108519
0.000908977
-0.000232083
-0.000933644
-0.000118184
0.000942755
0.000109073
-0.000204097
2.55781e-05
0.000295579
-0.000117061
0.00100048
2.38313e-05
0.000445133
-0.000980259
5.5371e-05
-4.90705e-05
8.825e-05
-0.00101897
-3.4406e-05
-0.000899643
0.00102852
-0.00067111
-3.90429e-05
0.000143716
2.35829e-05
0.000144618
-7.18801e-05
-0.000123162
2.52653e-05
-2.77832e-05
-0.000154452
0.00015697
-0.000411563
-9.75298e-05
-7.66252e-05
-0.000640223
1.2956e-05
-1.26348e-05
2.64828e-05
1.90651e-05
-2.74991e-05
-7.28654e-05
-4.83465e-05
0.000234784
-0.000967836
-0.000411966
-0.000844191
0.000531936
0.000724221
-0.00101288
-0.0010513
-9.2658e-05
5.52922e-05
0.00108866
0.000551604
3.19651e-05
0.00115869
-1.35175e-05
-0.00117714
-0.000686135
-0.00054626
-1.36383e-05
-0.000139383
0.000243968
-9.09466e-05
0.000976888
-0.00103941
-0.000383597
0.000203631
0.00121938
-2.56521e-05
9.26499e-05
3.73004e-05
0.000192951
-0.00106827
0.0010026
1.68985e-05
8.60061e-05
-9.00415e-05
-0.000235292
0.000203676
-0.00134687
-2.25999e-05
-4.68247e-05
4.85842e-05
-2.98518e-06
0.000305453
0.00102155
-6.52497e-05
-0.00126175
0.000171015
3.83196e-05
0.00010343
-0.000124851
0.000378502
-0.000260995
-1.75585e-05
-1.60147e-05
2.21258e-05
-3.55586e-06
0.000864278
-2.0469e-05
-6.08027e-05
8.52281e-05
-3.95643e-06
5.25803e-05
-0.000143277
-3.9586e-05
-3.08957e-05
-0.000139769
0.000149859
2.82298e-05
-4.4645e-05
-0.000330883
-3.60346e-05
4.9605e-05
-5.85719e-05
3.02044e-05
-2.12375e-05
0.000304461
-0.000982935
7.37792e-05
8.2864e-05
7.08675e-05
0.000118569
-6.68737e-05
7.92745e-05
8.05657e-05
3.3759e-05
-0.000367671
0.000378466
6.31211e-05
-6.23401e-05
1.2175e-05
-4.10044e-05
3.11562e-05
5.82266e-05
-4.83785e-05
6.09886e-05
6.69688e-05
0.000405113
0.000923303
-0.000402321
-4.00983e-05
-7.02818e-05
5.94003e-05
5.09798e-05
0.00107959
4.68569e-05
-2.88267e-05
-3.43401e-05
1.63099e-05
9.02382e-06
5.31348e-05
-5.49707e-05
-7.18797e-06
1.27732e-06
-3.81777e-06
-1.00943e-05
-0.000129306
0.000171156
-0.000199561
-4.50652e-05
-0.000140106
0.00010489
-0.000167644
-1.12843e-05
0.000180575
-3.962e-05
6.06198e-05
-3.79177e-06
-0.000169007
-2.93897e-05
1.48173e-06
-1.41635e-05
4.20715e-05
0.00117793
-0.000891788
4.86541e-05
-6.10334e-05
0.000134143
0.000103831
-0.000248962
-0.000547878
0.000693009
-5.54583e-05
4.93963e-05
6.06192e-06
0.00010525
-0.00091628
-7.29277e-05
2.47269e-06
-1.09339e-05
8.46125e-06
1.51574e-05
-3.66183e-05
2.14609e-05
4.89831e-05
-6.00541e-05
1.10711e-05
-9.5697e-05
3.52472e-05
6.04498e-05
1.93173e-05
-6.49916e-06
-1.28182e-05
-4.61751e-05
-1.51661e-05
6.13411e-05
0.000107369
-0.000106195
-1.17447e-06
-2.98589e-05
4.43338e-05
-1.44749e-05
-0.000112134
1.64371e-05
3.25127e-05
-1.31953e-05
-5.36457e-05
-1.81258e-06
-9.67405e-05
0.000101222
-4.48124e-06
5.23038e-05
-5.09423e-05
-1.36148e-06
9.20426e-05
-8.33769e-06
-2.15212e-05
0.000106031
5.20289e-05
-5.89838e-05
6.95492e-06
-2.27019e-05
3.78593e-05
-1.10269e-05
1.34995e-05
-0.000102658
3.16711e-06
-2.50229e-05
4.30288e-05
-1.80059e-05
1.13599e-05
-5.76824e-05
2.45097e-05
2.18129e-05
1.29505e-05
8.22714e-05
-6.4695e-05
-0.000121697
0.000145779
-2.71811e-05
7.8979e-05
8.31595e-05
-0.000110523
0.00023958
-0.000142695
-9.18782e-05
2.03225e-05
0.000172446
4.02049e-05
-3.82473e-05
-3.07843e-05
1.72373e-05
-0.000329785
-0.000637128
-0.000338914
0.000387843
0.00106218
-0.000113508
1.67677e-05
1.39565e-05
-1.29544e-05
-1.00212e-06
2.42203e-05
2.62811e-05
-1.36624e-05
-3.33606e-05
3.37291e-06
6.1672e-05
-1.86432e-05
-9.31183e-06
-4.97279e-06
1.54106e-05
-1.44058e-05
3.47182e-06
-0.000334132
-0.000613766
0.00036142
0.000586478
0.00103928
-0.000267087
7.5666e-05
1.57966e-05
-5.40066e-05
4.96578e-05
-1.14478e-05
-3.01998e-05
3.68492e-05
0.000915091
-0.000924514
9.27077e-05
-8.32845e-05
2.07824e-05
1.59668e-05
-3.14621e-05
-5.28705e-06
4.85047e-05
3.79906e-06
-7.00691e-05
-1.52703e-05
5.09994e-05
7.03836e-06
-0.000172388
1.13611e-05
-7.54378e-05
1.83011e-05
4.57757e-05
0.00109073
-0.000294287
5.37814e-05
2.35821e-05
-2.77584e-05
0.000424062
-0.0010829
0.000964295
-7.1112e-06
-2.05519e-05
3.80343e-05
1.51211e-05
0.000156944
-0.000370142
0.000728113
-8.64103e-05
9.39329e-05
-8.23299e-05
0.000692254
0.000671239
-0.000489557
8.20452e-05
-7.92524e-05
0.00065765
-0.000361821
-0.000295829
-7.96987e-05
7.85168e-05
4.59197e-05
-4.47378e-05
-0.000398489
-0.00012845
0.000322842
-4.77096e-05
-4.52411e-05
3.22493e-05
6.07014e-05
1.53877e-05
9.3975e-06
-4.84832e-06
-2.67801e-05
4.91567e-05
-1.73194e-05
-5.05723e-06
-6.10196e-05
6.20645e-05
-3.67837e-05
3.57388e-05
6.32911e-05
-4.85518e-05
-0.000171617
0.000156878
-7.01331e-06
-1.75591e-05
-2.20766e-06
-5.6006e-05
4.83364e-05
-7.20291e-05
-0.000140771
-3.01195e-05
0.000234181
-5.17714e-05
0.000118539
-7.91629e-05
1.23953e-05
7.84856e-05
-8.96175e-05
-0.000112346
0.000108019
9.39442e-05
-0.000134223
-0.000102406
-5.10579e-07
5.43649e-05
-6.73452e-05
0.000121108
5.40578e-05
-4.21199e-05
-0.000133045
2.53488e-05
1.05315e-05
-0.000122311
-1.34194e-05
5.90969e-05
7.66338e-05
-2.92682e-05
3.68417e-05
4.15833e-05
-0.000166683
-4.02084e-05
0.00015512
-0.00012224
-0.000121356
7.19789e-05
3.24817e-05
0.000374081
-0.000340322
9.77187e-05
-0.000143294
0.000167018
-0.000109508
-1.06789e-05
4.52057e-06
6.1583e-06
6.23625e-05
1.9164e-05
-7.11394e-05
-1.03871e-05
-7.84351e-07
2.91554e-05
3.39915e-05
-8.8427e-05
-2.46579e-05
2.41376e-05
6.86677e-05
-9.28053e-05
-8.18702e-05
0.00013589
3.79045e-08
-0.000112763
-1.12269e-05
-2.71492e-05
-4.05288e-05
6.6584e-06
-6.869e-05
8.16893e-06
5.97367e-05
1.8815e-05
-2.92778e-05
7.25273e-05
-1.06552e-05
2.84542e-05
-3.51185e-05
-3.53549e-05
5.88615e-05
-4.69163e-06
4.09433e-05
-2.87593e-05
-3.93332e-05
2.82885e-05
-3.40943e-05
-3.4723e-05
-2.36895e-05
2.33511e-05
3.22021e-05
0.000271785
-0.000277402
0.000247726
-0.000242109
2.58304e-05
3.18975e-05
-5.77278e-05
-2.25877e-05
-9.3877e-06
-2.23728e-05
-0.000230825
0.000212815
1.9682e-05
5.74505e-05
8.85915e-05
-9.4593e-05
2.56835e-05
-4.7216e-05
-0.00044534
-0.000109469
0.000220678
-4.64549e-05
-5.14553e-05
7.55374e-05
1.18901e-06
3.96929e-05
0.000518438
-0.000271524
0.000276737
-0.00027799
-3.46296e-06
4.71539e-06
-4.32266e-05
1.76262e-05
0.000872799
-0.000215149
7.46e-05
-2.52789e-05
-9.5776e-05
3.01176e-05
-7.41697e-05
-0.000803209
0.00070788
0.000682492
-0.000814462
0.000579082
-0.000489417
0.000260869
-4.76204e-06
2.77844e-06
1.9836e-06
-2.24305e-05
0.000272848
1.47191e-05
-1.08296e-05
-0.000144408
0.00101721
-0.00110546
-0.00114028
9.55673e-05
-0.000106631
-8.69501e-05
-0.000167164
1.09391e-05
2.81429e-05
3.47395e-05
-2.17619e-05
-4.11206e-05
-4.90282e-05
4.63582e-05
4.23975e-05
-3.97275e-05
-3.5116e-06
2.76492e-05
1.00898e-06
4.96962e-06
2.08608e-05
-5.13365e-05
4.08619e-05
4.27239e-05
-0.000763548
0.00093945
0.000531979
7.74807e-06
1.93022e-05
0.000266134
-1.25884e-05
-0.000446715
7.90296e-05
0.000367686
0.000181872
-7.75552e-05
6.51117e-05
-0.000169429
9.50734e-05
-8.9405e-05
-0.000930182
-4.42288e-05
4.10864e-05
0.000185015
-0.000192264
-1.79117e-07
0.000522466
0.000155993
-0.000678458
-2.67438e-05
0.000136879
8.40342e-06
-4.70592e-06
-0.000162868
7.79566e-05
-0.000174162
5.71104e-05
9.77928e-05
-0.000111288
4.11439e-05
3.73845e-05
-5.86034e-05
-4.77747e-05
3.91339e-05
-5.8686e-05
3.91755e-05
4.03712e-05
0.000383848
-9.76679e-06
2.3275e-05
0.000360573
1.03748e-05
0.000166114
-6.83393e-05
5.46402e-05
4.91747e-05
-7.59632e-05
0.000498025
7.57502e-05
2.4493e-05
-5.94831e-05
-1.15278e-05
8.25077e-05
-0.000125127
-0.000145503
-1.39502e-06
0.000157978
-0.000153026
-9.50186e-06
1.24668e-05
-2.35169e-05
-0.000251226
2.70802e-05
0.000243448
-3.75083e-05
3.66943e-05
6.71588e-05
-4.75562e-05
-4.27057e-05
2.31032e-05
4.85748e-05
-5.72318e-05
-0.000154893
1.97654e-05
0.000188088
4.40412e-05
-0.00112349
-7.61188e-06
-0.000927125
-0.000327012
-0.000173814
5.10632e-05
4.61455e-05
2.85012e-05
3.79493e-05
-3.99784e-06
-8.01241e-05
8.72084e-05
-3.08644e-06
0.000198228
3.09473e-05
-5.67837e-05
7.2577e-06
-0.000252243
0.000325958
0.000430981
-0.000504696
3.59026e-06
-0.000161312
-5.14618e-06
-2.97996e-05
-0.00033946
2.97531e-05
-5.68755e-05
6.46025e-05
2.70126e-05
0.000172418
-0.000961543
-2.3304e-05
0.000993032
5.02921e-06
-3.67753e-05
4.72143e-05
3.04229e-05
3.0966e-05
-4.15036e-05
1.79041e-05
2.35994e-05
0.000985311
-0.00103755
4.28386e-05
-6.81058e-06
1.35243e-05
2.86796e-05
-7.50009e-05
-7.91428e-06
2.64035e-06
1.01632e-05
-4.88924e-06
4.15816e-05
-2.64462e-05
-0.000328798
1.75253e-05
-9.43767e-05
8.50203e-05
0.000143551
-0.000212342
0.000104283
-9.19314e-05
-2.02662e-05
0.000588249
-0.000311356
-2.32109e-05
-1.33564e-05
2.79827e-05
8.5847e-06
-3.29993e-05
5.49933e-05
-9.31333e-05
-0.000859324
6.07594e-05
0.000163391
8.74944e-05
-0.000168614
7.41448e-05
-0.000244717
1.57073e-05
-9.49399e-06
-6.21326e-06
4.80938e-05
1.40996e-05
-4.14111e-05
0.000257621
-0.000346474
-2.94621e-05
2.06804e-05
0.000273506
-4.82711e-05
7.19455e-05
6.16493e-05
-9.67531e-05
-9.54331e-05
-0.000154474
0.000187576
0.00026191
-0.0010026
0.000259246
2.05747e-05
-0.000741313
1.98706e-05
-9.357e-05
7.9278e-05
-2.0694e-05
-9.82537e-05
0.000115905
3.04263e-06
0.00020265
2.65437e-05
-3.37269e-05
-8.88303e-05
0.00110001
1.4551e-05
1.12826e-05
-0.00105406
-3.65383e-05
-8.10072e-05
0.000206396
-1.03096e-05
0.000538414
9.70277e-05
0.000250429
0.00124853
0.0011024
0.000163719
0.000200703
0.00110533
4.13707e-05
-2.33577e-05
1.35498e-05
-4.40998e-05
-0.000121832
-0.000157105
-0.000920774
0.00011682
-4.1054e-05
6.7193e-06
-0.000124435
7.3148e-05
-5.94522e-05
-0.000102526
3.95073e-05
-3.88981e-05
1.62174e-05
0.000187148
0.000149099
-3.52572e-05
-0.000147511
-1.89764e-05
4.8273e-05
1.79177e-05
-9.23789e-05
9.93724e-05
1.36869e-05
0.000835931
-0.00016632
-0.000639744
-2.98678e-05
-0.000750373
0.000693479
0.000318804
1.94935e-05
-6.54495e-05
3.55689e-05
1.7873e-05
-4.23471e-06
5.75621e-05
-8.34875e-07
-0.000242551
0.000328109
0.00015294
-0.000985464
7.8167e-05
0.00064667
-0.000645808
3.49323e-06
0.000400508
-0.000380726
-7.05958e-05
-1.12485e-06
-4.32732e-05
7.18187e-06
2.81337e-05
1.86886e-05
-3.03075e-05
-1.65148e-05
-0.000114992
8.94502e-05
0.000147822
-0.000203899
-0.000132778
-4.81495e-05
4.46774e-06
5.27056e-05
-9.80558e-05
7.7045e-05
0.000840856
3.48929e-06
-1.58408e-06
2.62285e-05
-3.46011e-05
-2.6599e-05
-2.69556e-05
4.20355e-05
2.65034e-05
-0.0010076
0.00104084
-0.000281945
1.62227e-05
-9.45019e-05
-0.000156781
1.76076e-06
0.000302842
0.000104592
-1.9321e-05
-0.00096676
-0.000199344
4.70093e-05
2.80665e-05
3.92195e-05
0.000790088
5.99113e-05
0.00104621
-0.00101183
0.000148811
-0.00015044
-0.000155151
0.000203257
1.04345e-05
0.000235409
1.6459e-05
-2.18804e-05
-0.000229988
-0.000308763
-2.03033e-05
3.2643e-05
7.15379e-06
-0.000179961
9.06878e-05
-8.3906e-07
-8.9179e-08
0.000421275
4.67461e-05
-5.27706e-06
0.000231249
-8.06779e-05
0.00010681
-2.80428e-05
-8.75995e-06
7.57658e-05
5.15631e-05
0.000198943
-0.000161883
0.000996723
-0.00124918
0.000267006
0.000155927
3.78052e-05
0.00072229
5.64622e-05
0.000945832
0.000277498
-9.96482e-05
-0.00112368
-7.60757e-05
-9.72987e-06
2.27612e-05
-3.83747e-05
-8.04527e-05
6.26985e-05
3.76965e-05
-1.99424e-05
-0.000138472
0.000213546
-0.000245433
0.000170359
-0.000198757
0.000184803
0.00133448
9.82773e-05
8.3423e-06
3.50553e-05
0.00132648
7.30058e-05
3.07305e-05
7.62254e-07
0.000124766
-4.6068e-05
-1.07689e-05
-0.00103183
8.04852e-05
-0.000140793
-3.56951e-05
2.48118e-05
3.36446e-05
-0.000976038
-0.00116342
0.000737516
-2.29382e-05
-1.29367e-05
-4.13488e-05
2.38064e-06
1.30783e-05
2.58899e-05
8.13751e-05
1.44694e-05
-5.5973e-05
8.13229e-05
6.69594e-06
-6.62267e-05
-2.92986e-05
-0.000146258
0.000109825
-4.13402e-05
7.77567e-05
-1.04274e-05
-7.23866e-05
2.70713e-06
8.80792e-05
-9.85392e-08
5.74649e-05
4.19209e-05
3.65719e-05
-8.15678e-05
7.49805e-06
-0.000158694
-3.82543e-06
-3.08402e-06
4.44867e-06
3.82601e-05
-5.41735e-05
-4.81034e-06
1.3015e-06
4.1654e-05
0.00086132
0.000132444
4.57217e-06
-0.000814299
1.37904e-06
2.53163e-05
-8.52976e-05
0.00046016
0.000408906
0.000148614
-1.40552e-05
0.00108513
-0.000495436
-2.5886e-05
0.000144655
-0.000135309
8.8713e-05
-5.75567e-05
7.83744e-06
-3.62179e-05
-3.29877e-05
8.7221e-05
2.15236e-05
-6.38382e-07
-0.000727233
0.000677778
4.94549e-05
0.000120302
-0.000123783
-4.12574e-05
-4.95689e-06
0.000276797
6.44603e-06
0.000891672
0.00014375
-0.000789296
6.20632e-05
5.12946e-05
0.00107383
-8.94641e-05
-0.000949939
0.0010161
-0.000332017
0.000565692
4.62984e-05
-0.000279973
-3.55934e-05
1.68084e-05
-1.06046e-05
5.80333e-05
0.000619744
-8.96602e-05
0.000100196
0.000106088
-0.000116623
4.70719e-05
-3.46035e-05
4.58638e-05
-5.83322e-05
-0.000200844
4.3515e-05
0.000157329
8.07583e-05
-5.9255e-05
5.89879e-05
8.34266e-05
8.04165e-05
2.41759e-05
-0.00024588
4.50363e-05
-0.000290212
0.00033631
-0.00038312
-0.000285207
-0.000892285
0.000268431
-2.41635e-05
2.92388e-05
-0.000134871
5.32821e-06
3.73945e-05
-0.000100018
0.000123015
1.3652e-06
0.000157394
-7.61357e-05
0.000392226
0.000537551
0.000184705
-4.57977e-05
-0.000158228
-0.000479685
0.000461572
1.8113e-05
8.27225e-05
-0.000872018
7.61074e-05
-0.000118954
-5.17329e-05
1.16275e-05
-0.000130122
0.000860239
-0.000335348
0.000373256
-0.000402492
-0.000222318
-7.64566e-05
-0.000156647
7.78033e-05
0.000878358
-0.000194832
0.000355758
-0.00096041
0.000657364
0.000632683
-0.00106665
-5.0151e-05
0.000580356
0.000389587
-0.000315384
-0.000635646
0.000579905
0.000523823
-0.00061386
0.000336916
0.000568947
-0.000265944
-0.000522879
2.28835e-05
0.000510935
0.000116248
3.67817e-07
-0.000636899
0.000758666
-0.000501613
2.19276e-05
-0.000136511
1.43376e-05
0.000369717
0.000555396
1.72141e-05
-3.18138e-05
-2.95001e-05
-1.97366e-05
1.68044e-05
-1.35826e-05
-2.86106e-05
-3.87346e-05
0.000448918
1.26539e-05
-0.000129096
6.20225e-06
4.24411e-05
0.000105368
-0.000169504
-3.96171e-05
-1.29459e-05
4.9052e-05
1.70287e-05
2.77689e-05
-1.56245e-05
4.53776e-05
-0.000429457
-0.000269483
8.16377e-05
2.17146e-05
6.84989e-06
-0.000536688
0.000113715
-0.000131497
1.44815e-06
-4.17907e-05
-2.90936e-05
-2.68608e-05
1.16971e-05
0.000111704
2.03146e-05
-0.000918795
0.000142344
-9.9998e-05
9.83392e-05
-0.000169492
0.00101352
-0.000961129
-4.35051e-05
-1.49078e-05
1.6593e-05
-1.3727e-06
0.000232703
0.000369884
-0.00108742
3.06876e-05
-7.21106e-05
7.03202e-05
-1.29776e-05
7.11135e-06
7.23146e-06
0.00092803
0.000135191
2.15151e-05
6.09244e-06
-1.49326e-05
-3.92409e-05
-9.19605e-05
-1.08569e-05
-0.000988305
0.000659414
6.43922e-05
-6.81101e-06
0.000248206
7.98878e-06
1.53562e-05
7.41024e-05
-1.21186e-05
0.00111706
6.98741e-05
-0.00108139
-0.000574301
0.000745584
3.57404e-06
-5.38344e-05
8.06061e-05
-0.000108051
0.000164406
0.000504232
-0.0007285
0.000224268
0.00043703
6.72024e-05
0.000448344
-1.13147e-05
-0.000309781
0.000466725
-0.000679923
-0.000603316
-0.000504754
-9.85617e-05
7.83728e-05
-4.79305e-05
0.000113845
-9.58505e-05
-0.000938301
-0.000121166
-6.81865e-05
-2.91298e-06
-1.16977e-05
1.27994e-05
5.34732e-05
-2.61295e-05
1.45342e-05
3.3392e-05
-1.00669e-05
4.24801e-05
2.20383e-05
-4.02982e-05
6.01834e-05
3.00933e-05
-2.52585e-05
-1.28458e-05
0.000437085
0.000814143
-2.84527e-05
2.87696e-05
1.97352e-05
-0.000154327
0.000180106
-9.78902e-05
-0.000227879
-0.000998318
0.000146546
-2.85931e-05
0.00021521
-0.000476986
-2.77678e-05
0.000272844
-0.000149182
-0.000613219
0.00012988
-5.80287e-05
-3.35624e-05
-4.10208e-05
-0.000163443
-0.000143928
7.50952e-05
6.00725e-05
9.81736e-05
-0.001152
0.00104031
-3.39323e-05
0.000205962
-0.000204731
-7.55541e-05
7.4323e-05
-2.231e-05
6.29846e-05
1.75903e-06
-6.18132e-05
0.00015543
-3.26857e-05
7.97762e-05
-0.0011903
1.85792e-06
0.000682656
-0.000383133
-5.37365e-05
3.33803e-06
-0.00025247
-7.68073e-05
-1.04342e-05
5.81388e-05
2.88148e-05
-1.28512e-05
-0.000116294
0.000111401
-0.000134371
5.80503e-05
-1.79441e-05
1.4825e-07
-0.000612609
-0.000374047
0.000131278
0.000172796
7.56444e-05
-0.000201923
0.000112859
1.70223e-05
3.91842e-05
-4.16723e-05
0.000995817
7.73827e-05
2.55563e-05
6.62392e-05
5.62125e-05
0.000168485
-7.54284e-05
-0.000164937
-0.000802759
0.00112273
-1.748e-05
-2.84908e-05
2.57172e-05
-0.000181274
-4.5144e-06
-8.54332e-06
-4.04704e-06
0.00103977
-4.71007e-05
-8.78732e-06
1.81278e-05
0.000202573
0.000154948
-9.27746e-05
-9.82237e-05
9.51313e-05
-0.00086058
4.14924e-05
0.000639911
8.17733e-05
-8.79448e-05
5.95219e-05
0.00108781
7.0905e-05
9.19969e-05
8.72252e-05
-0.000375885
5.18625e-05
0.000199695
-5.56644e-07
-4.34694e-05
-0.000238276
0.000203293
2.87774e-05
-0.000250207
2.30761e-05
6.59338e-06
6.78571e-05
0.000150359
-8.01504e-06
-0.000173011
0.000160724
-0.00096501
0.00103147
-0.000249251
0.000182787
-1.87474e-05
4.43506e-06
3.15139e-05
-3.35414e-05
0.000175289
-0.000247413
0.000523194
-0.000474706
-0.00017716
-3.36347e-05
1.75282e-05
1.51641e-05
-4.58564e-05
4.88314e-05
-4.98965e-05
-0.00115796
6.04064e-06
-3.74185e-05
-0.00010992
-4.23679e-06
0.000168941
-0.00107119
0.000970017
1.78563e-05
-1.80999e-05
0.000993275
-3.19186e-05
0.000558837
-0.000482319
-7.65188e-05
0.000233909
-4.31456e-05
0.000131443
2.84977e-07
1.50084e-06
-2.91067e-06
-0.000899516
0.000908896
0.000131765
-6.67113e-05
0.000299449
-0.000305129
5.67955e-06
-0.000290944
0.000267946
8.50526e-06
-0.000310133
5.00369e-06
0.000227885
0.00017128
0.000319944
-0.00106624
0.000107745
-1.19779e-05
-8.91983e-06
4.01668e-06
0.000239713
-0.000245133
2.49846e-05
-3.49582e-06
-2.14888e-05
2.31052e-05
0.00010328
7.53293e-05
2.19969e-05
-0.000326997
1.50127e-06
-0.000134855
-0.000616827
0.000449855
-5.08625e-05
1.50436e-05
5.82947e-05
4.94501e-05
-0.000279011
-1.67988e-05
1.14926e-06
0.000638345
-2.42854e-05
2.62921e-05
-4.78707e-05
3.21574e-06
1.12944e-05
-6.72242e-06
-0.00011813
9.20755e-05
-3.33974e-05
2.2825e-05
2.15964e-06
2.12739e-05
3.70209e-05
8.63411e-05
9.80634e-05
-4.87071e-05
4.33682e-05
9.48265e-06
-6.52076e-06
3.09503e-05
-5.18475e-06
-0.000112199
0.000457407
-0.000310931
2.96542e-06
-1.59884e-05
-0.000257222
8.94494e-06
1.388e-05
3.77007e-05
-0.00012857
0.00105346
-1.29497e-05
-0.00101485
-0.00014273
0.000110583
0.000678817
-0.000110143
0.000474616
-0.000217164
-3.11254e-05
0.000103297
3.48906e-07
0.000276572
9.68657e-06
-1.84739e-05
-0.000221671
0.000308012
2.82253e-05
-7.69324e-05
0.00140737
-0.00113732
-0.000129374
-0.000924925
-7.46395e-05
-4.39987e-05
2.35591e-05
0.000109548
6.47484e-06
0.000551332
-0.000722437
-0.000110134
9.57871e-05
4.80862e-06
-5.48994e-05
0.00025043
0.000224956
-8.17061e-05
-0.000887351
-4.13315e-05
-3.36476e-05
-0.000368761
0.000394249
-0.000192684
0.000589127
0.000924883
-0.000265485
-7.73574e-05
3.81033e-05
-7.2669e-05
-7.1435e-05
5.43021e-05
0.000682448
5.6232e-06
6.02097e-05
0.000160406
-1.00471e-05
6.98532e-05
0.000161005
-1.20268e-05
3.90519e-07
-0.000186146
-0.000143425
6.87112e-06
0.000152776
-4.2865e-05
5.69627e-05
-1.6847e-05
0.000222054
2.67263e-05
-1.33477e-06
9.14545e-05
0.00013985
2.91947e-05
0.000904515
-0.000915597
-1.95958e-05
1.83211e-05
3.08146e-05