/*--------------------------------*- C++ -*----------------------------------*\
| =========                 |                                                 |
| \\      /  F ield         | OpenFOAM: The Open Source CFD Toolbox           |
|  \\    /   O peration     | Version:  v1912                                 |
|   \\  /    A nd           | Website:  www.openfoam.com                      |
|    \\/     M anipulation  |                                                 |
\*---------------------------------------------------------------------------*/
FoamFile
{
    version     2.0;
    format      ascii;
    class       volScalarField;
    location    "0.66";
    object      epsilon;
}
// * * * * * * * * * * * * * * * * * * * * * * * * * * * * * * * * * * * * * //

dimensions      [0 2 -3 0 0 0 0];


internalField   nonuniform List<scalar> 
1431
(
80.5582
25.178
2.93236
3.20398
10.5006
39.8619
1.27975
385.35
50.1877
1.09478
143.444
312.153
55.6942
14.4853
31.1455
0.890241
31.9321
10.1128
29.3914
21.5949
291.07
18.7098
49.9808
368.445
51.3162
28.828
97.8895
19.0675
57.8271
30.8158
19.0812
31.3153
17.2829
7.7132
41.7498
0.534245
90.809
0.539408
0.419714
23.6351
77.5399
75.5326
46.6558
0.598164
60.876
13.6742
40.6997
83.0377
1.56737
0.832438
20.9064
0.465221
26.4863
343.941
22.0274
10.243
9.80103
353.694
53.6058
13.2834
25.1306
0.985507
1.2079
0.673518
0.590257
1.82076
9.04471
1.56671
9.88983
27.4016
370.375
10.6802
3.67245
6.59572
18.2049
18.426
5.76173
0.583057
0.988362
4.95006
38.2619
6.64992
150.018
45.8574
167.859
3.30552
7.51231
28.4334
190.898
210.591
32.9535
12.527
0.515314
0.644301
26.5834
32.2497
348.633
99.7307
0.679687
6.12453
20.4276
0.769904
38.1503
9.32138
0.454662
35.4635
39.88
147.443
42.212
42.9769
11.0323
64.4543
15.4103
78.1881
29.2743
13.0608
15.0099
3.80526
4.45595
0.870192
38.4675
47.0817
304.059
22.4219
287.391
0.813201
3.50783
18.2656
4.82693
11.433
38.2259
14.6929
7.77975
30.2902
30.0775
2.46008
0.437441
1.3083
178.685
0.688834
0.390537
16.6391
51.2484
9.18517
58.7306
17.4974
2.04085
23.1399
0.695853
18.3546
1.85833
12.1414
26.233
4.38
34.1377
0.536685
163.239
40.596
189.273
5.20284
180.416
68.9063
3.76243
5.88418
278.114
78.4502
81.9106
34.9649
0.801213
66.7501
190.982
26.3953
19.6217
185.837
33.6534
160.34
7.33822
44.5585
26.0484
38.2618
1.77944
0.388623
11.6301
604.072
42.2222
83.5213
155.994
45.5085
21.4889
189.3
18.6644
23.3017
23.1178
195.993
4.663
52.9712
89.2676
32.3435
6.94668
42.5637
16.5348
4.14812
112.286
9.31103
51.9378
20.0759
32.8752
4.96652
223.471
20.779
168.868
3.77302
36.7654
36.4005
196.564
12.6445
25.7674
33.0331
10.1242
101.214
35.275
13.3008
86.1936
5.02803
36.9184
300.548
138.174
82.6832
37.0995
58.827
361.866
18.2425
36.0959
21.7974
32.7579
184.957
33.2662
34.6755
17.9213
10.8688
5.14537
23.0521
254.39
26.4212
22.9165
45.1629
30.2277
112.789
37.0255
0.626024
13.7165
156.358
5.12539
2.53882
19.2818
63.8481
4.92712
371.045
147.122
24.9513
34.2157
176.776
9.80923
6.84801
40.9412
135.047
59.5384
301.087
79.3159
10.6305
47.0613
30.0194
19.3727
6.55788
174.653
19.5478
167.523
58.8292
41.124
50.4679
33.0697
88.796
17.4087
11.5372
11.8151
131.022
67.8347
120.988
185.054
22.7051
6.48529
59.4987
75.3057
24.902
38.0963
39.7777
199.313
97.3225
16.3866
47.8113
26.6085
0.565078
14.2775
31.8258
59.2855
4.61753
30.2503
24.5334
76.7873
51.5667
67.853
0.746946
1.56289
126.519
51.0028
79.1695
32.6723
16.217
6.45529
949.879
27.4733
66.055
3.14755
17.0949
37.1159
3.44772
3.77837
57.2191
369.647
2.87044
70.7674
11.1037
56.2082
24.1087
5.14115
35.6176
55.5349
172.008
38.5076
110.656
0.589115
39.3187
63.8354
73.9193
47.9546
27.9086
18.5987
165.154
55.024
28.4288
41.7923
13.6349
19.0331
32.8915
15.3807
4.73554
185.785
135.93
150.922
71.7796
21.6358
67.0737
58.0217
9.85718
7.38718
132.013
53.5689
741.725
41.3869
18.8453
132.846
11.8924
204.02
19.0235
68.8808
449.679
35.5179
7.18915
34.0997
558.021
78.6583
39.893
4.81909
18.9625
971.226
44.4636
30.0147
47.8123
33.3011
20.6584
5.47762
32.5309
32.8399
4.2517
168.248
22.0356
68.5
71.5165
56.4243
42.2179
39.5865
64.0675
111.002
60.525
3.44733
60.8451
40.2354
4.51287
9.02803
57.8786
44.9456
35.7707
54.7165
60.0112
45.7541
7.60742
30.1716
2.64771
39.9991
51.4953
46.6361
60.9707
12.1787
31.2725
48.4302
13.1094
13.4258
40.3092
8.82876
284.426
85.8499
88.6909
92.1474
94.3203
93.4964
90.0352
88.4025
90.284
89.0496
89.7099
14.9632
167.55
13.2355
11.1884
8.00697
6.73082
3.08471
4.59762
39.9095
19.0922
21.4175
1.22656
1.60713
4.06147
1.8097
1.37978
23.3793
319.668
4.35636
6.36144
19.8832
0.992072
303.358
1.24913
7.23891
1.41219
5.30072
293.87
1.48187
282.306
0.729999
0.587719
5.90526
35.8657
178.604
156.345
2.28816
0.53515
3.26341
0.518968
33.8771
2.46996
182.847
0.386027
1.92461
35.2266
7.67308
2.47097
4.41118
0.389413
201.348
0.409343
3.49585
0.585583
40.5967
9.65978
4.00789
208.097
0.389752
30.1843
52.3209
8.18319
13.6341
81.6888
197.656
158.891
13.5657
0.562513
0.784285
15.8303
1.53042
44.5613
6.53544
4.68163
100.377
2.33929
51.0551
2.03584
48.7197
168.491
60.9384
2.22807
29.7141
3.8607
9.72049
4.17497
185.613
23.1088
15.3034
6.43973
20.1633
14.5893
25.709
90.136
82.504
11.0251
7.52729
180.154
8.14754
20.9211
59.4193
76.6293
78.5051
6.90949
47.2725
11.7843
14.7741
156.801
64.6178
84.0203
28.5396
73.1482
60.2053
42.7796
1.38362
80.019
4.39666
50.9056
162.138
397.874
86.6113
165.568
84.4573
17.7522
669.264
12.8362
5.19703
5.48629
56.7453
57.3179
43.1615
84.1733
87.2303
2.16666
10.8764
33.8591
3.58496
170.265
78.1389
83.8673
46.4282
64.9915
62.4341
33.2818
35.7969
29.4002
23.1498
11.2165
17.3124
21.9153
66.4297
190.238
20.9737
17.9065
40.238
75.7944
31.7239
30.3506
61.6285
201.627
171.221
21.4067
50.8334
10.7852
41.5855
39.3004
126.284
45.8732
3.23213
10.6159
3.89794
13.1026
32.9521
77.3969
63.3916
56.7563
221.718
5.18116
43.7497
36.6649
38.9835
22.3171
9.13649
38.4866
19.3362
44.4657
77.6994
12.2672
51.4647
11.4749
31.7359
20.8774
0.851717
84.8903
40.8098
35.1628
341.637
6.83854
62.8231
14.9656
58.2117
99.8647
3.96376
48.5481
144.817
19.0866
36.3255
34.3786
257.084
26.9076
55.4522
75.8376
146.581
39.1861
13.8996
36.4819
49.2808
49.5637
23.0889
187.652
179.664
72.9002
37.8021
26.0954
51.3323
53.2233
21.442
18.1634
24.4024
14.963
45.0803
45.8808
279.045
88.3124
51.4408
32.6286
287.972
25.6113
49.4806
9.80715
14.5313
4.6376
26.6588
283.971
0.755353
6.40762
67.1477
52.1928
14.8139
83.9484
125.132
41.2807
75.0465
63.8076
39.2258
92.8336
270.256
59.802
32.1586
86.9176
181.638
31.8924
50.4134
49.342
115.963
304.4
127.435
224.351
18.4624
47.5235
58.2498
3.19262
42.74
39.6475
13.7442
81.2575
57.8963
60.8768
3.88284
62.4758
81.0126
20.8695
153.752
40.6755
0.596271
56.1056
84.9157
53.751
142.209
202.509
0.641132
91.6048
45.7953
4.25367
148.264
38.8942
71.2229
319.779
293.701
4.50302
31.4148
50.9068
6.0296
58.3255
76.4427
38.3251
35.9115
6.87081
59.8013
1.06815
7.77429
12.5699
19.9953
0.884615
472.013
55.6351
54.9757
7.0057
41.6522
2.28707
469.434
141.205
39.9688
1.76059
3.71188
42.251
0.791586
1.12631
53.1878
8.43778
50.3086
35.7334
54.2818
64.98
58.104
20.1272
22.2443
14.5183
63.3362
16.0366
29.6271
0.405826
37.2379
1.89244
110.87
156.001
40.9716
26.5766
20.5165
23.4265
79.2527
15.2169
31.942
68.8644
28.2691
27.1957
3.95206
37.1882
3.70273
47.6606
24.6349
26.8825
6.98312
78.1823
78.3685
865.054
27.9815
43.1485
12.6943
43.2925
672.139
10.6069
15.4423
178.938
69.6688
343.632
65.0261
13.105
93.8959
56.9338
6.20081
124.667
28.9203
80.4721
142.916
32.2793
58.2595
16.4634
11.9207
0.379627
89.6573
361.372
319.524
21.8745
22.3599
329.791
56.7472
97.1906
54.7646
6.28648
44.5309
0.567979
0.463539
32.5086
36.5602
191.112
0.379876
401.221
17.3521
142.439
42.014
17.4747
19.4803
11.5882
7.42373
1.05303
12.4059
65.6188
5.13592
0.48532
7.1587
26.6966
57.7119
15.4754
72.1646
53.9593
72.3067
0.514046
161.356
51.1218
84.8792
724.729
65.6072
123.432
41.2685
7.59631
1.78277
93.7487
48.997
72.7989
282.262
3.41568
67.4587
157.454
647.155
363.781
448.866
79.0945
43.8883
48.2442
54.8627
51.672
89.8464
41.2191
36.8654
32.6918
35.1702
36.165
61.5626
99.6078
33.1994
42.1218
48.1478
31.2341
40.5546
39.9838
30.6826
39.3242
38.5896
31.0382
36.9989
68.3639
121.326
0.890712
28.0454
38.6974
17.6198
19.6493
251.349
41.8023
19.7653
14.975
17.6119
1.29663
378.175
34.9605
6.41134
136.355
58.1132
76.7966
30.6559
8.32766
383.115
10.2242
35.0982
40.046
24.3342
4.67917
2.31629
149.474
27.6982
34.0668
64.6432
57.1686
16.8089
31.1058
146.268
1.95312
0.504669
13.5927
3.0713
34.9103
57.4682
30.1005
39.7601
26.2535
1.54373
31.9821
5.29746
1.96041
11.5962
168.305
66.3666
29.3909
70.7985
6.52068
37.1081
4.12496
35.2148
12.2521
12.5266
28.7633
33.4635
364.38
4.42974
34.1713
8.13949
61.3527
1.49503
1037.51
55.6547
30.5116
0.396952
349.647
60.2711
153.048
1.01936
0.442894
4.46071
10.1744
5.40279
40.3334
35.762
470.859
230.144
34.7179
58.1497
2.88287
43.5176
25.1625
42.6549
34.123
23.8223
43.3394
86.8569
70.6647
114.256
78.4251
3.90717
1.63384
26.8663
66.6677
53.3763
2.99092
38.7957
22.1756
27.1618
13.54
32.9107
26.1637
183.594
495.803
1.49655
58.2405
32.6691
6.23475
64.6952
392.985
29.8572
43.6474
17.4935
164.133
156.599
3.44115
18.8088
34.6514
35.3589
400.156
174.74
72.6903
27.8983
11.0204
123.922
8.41726
61.3882
15.2688
399.143
91.2872
336.536
158.591
60.8658
28.6229
48.7418
6.52715
1.07669
5.40908
4.31004
4.56296
35.5521
87.2137
42.3204
55.4038
80.1651
168.921
0.571592
5.69911
80.1221
408.18
52.5619
386.727
99.454
74.3603
435.987
34.6285
450.61
452.984
471.334
357.595
363.184
341.267
472.223
307.718
1.30827
6.45841
5.86589
1.9072
3.56407
5.69253
47.0126
57.0093
88.2152
42.4324
60.8959
30.4837
3.3815
63.7133
1.09729
1.80477
30.3408
0.426628
26.2137
33.6558
14.4001
10.7112
9.69385
88.434
78.9491
37.626
46.3182
55.3962
4.39361
27.105
850.003
27.6103
4.51932
30.2555
59.1264
0.436714
11.4623
170.281
0.408009
57.0139
2.98923
14.2261
3.86545
33.1095
30.9969
4.85974
2.44327
35.58
10.9282
3.77007
74.6048
80.765
0.374067
21.2154
19.5249
206.619
1.05698
174.322
271.573
15.2313
194.713
40.4514
8.94033
55.2258
161.718
6.04718
43.1725
50.2119
126.405
76.1947
32.3651
33.4648
10.3436
0.495876
67.7044
15.6461
36.1407
138.207
231.945
218.68
110.328
20.4023
18.4926
46.5488
3.6569
4.62936
4.98511
34.3835
7.38527
264.017
56.0446
0.532539
152.662
29.3146
14.9743
78.2551
1.16359
43.0695
213.192
73.3084
45.7307
0.714766
57.1063
56.105
200.061
84.093
371.34
0.617267
12.1585
36.2221
315.221
171.106
83.9862
69.1782
54.1398
2.39944
383.436
10.0111
50.9812
33.409
32.0086
14.4817
69.328
3.03876
42.6298
37.3484
196.556
10.0264
71.3026
39.7786
23.6757
3.19682
5.62473
17.4553
128.322
31.0656
75.5111
158.16
47.2439
57.954
29.7541
20.1475
2.58709
31.9598
17.7604
46.6236
426.183
30.8798
852.112
32.9871
20.4297
29.5986
151.111
31.3426
1.64708
3.65613
38.1337
87.7112
7.54069
77.5914
95.6957
66.7817
17.932
18.3919
11.8718
3.53194
38.5374
249.726
61.381
299.837
46.0653
13.2399
37.1453
36.8495
34.1832
6.44271
51.7904
12.4789
3.32088
29.3499
390.709
32.8519
32.589
0.95588
6.9627
27.9438
31.1418
17.4667
439.882
67.5604
95.1787
149.244
8.82609
33.101
49.7599
33.893
194.31
45.1297
57.4363
36.1721
49.9726
21.2781
58.0794
21.783
31.6261
386.28
25.9203
6.76266
36.9581
63.3196
113.477
25.9586
41.2223
16.8203
332.921
21.8863
5.32569
0.752948
712.362
40.6421
71.9594
1.83872
7.22584
259.778
25.5948
301.326
3.35639
3.47193
15.7774
522.804
7.37669
423.12
202.69
0.473995
46.0316
212.355
331.488
92.0747
342.783
17.3489
8.27575
43.5187
41.2494
9.61144
150.68
6.73168
71.2132
469.446
463.418
31.378
38.2797
9.61236
181.833
3.63922
45.3777
11.8333
336.913
1.98486
12.797
6.10695
107.54
85.9598
32.7433
9.87582
2.58885
3.3384
217.869
439.155
3.41072
42.508
10.7406
2.43001
21.9615
27.8199
12.5226
50.9588
2.6267
20.3309
19.8188
30.1547
214.167
29.1417
4.5959
40.4773
34.9798
2.72834
3.7634
53.6263
18.429
3.18428
17.2928
19.5196
26.427
4.88469
4.48056
215.302
188.749
80.7815
5.83578
3.10123
4.68138
0.6224
36.7633
1.19875
1.55915
6.57936
7.01869
11.409
2.91303
188.682
42.8202
20.9543
61.1619
79.1388
170.247
34.2916
2.79468
8.88961
115.359
35.7281
186.414
3.66342
12.7793
37.7578
2.62051
1.10359
4.87225
0.851956
1.10933
5.77562
144.92
284.449
58.5886
115.886
11.8457
103.148
32.2536
37.25
116.532
13.4807
13.5195
44.1441
91.6106
8.55126
0.940435
76.8185
68.5974
21.1221
14.324
)
;

boundaryField
{
    frontAndBack
    {
        type            empty;
    }
    wallOuter
    {
        lowReCorrection 0;
        type            epsilonWallFunction;
        value           nonuniform List<scalar> 
96
(
57.8271
30.8158
32.2497
279.045
287.972
283.971
83.9484
63.8076
39.2258
270.256
32.1586
181.638
49.342
304.4
224.351
319.779
293.701
31.4148
22.2443
110.87
27.1957
142.916
32.2793
361.372
319.524
79.0945
43.8883
48.2442
54.8627
51.672
89.8464
41.2191
36.8654
32.6918
35.1702
36.165
61.5626
99.6078
33.1994
42.1218
48.1478
31.2341
40.5546
39.9838
30.6826
39.3242
38.5896
31.0382
36.9989
35.0982
57.4682
30.1005
35.2148
12.5266
364.38
34.7179
114.256
58.2405
32.6691
29.8572
400.156
11.0204
8.41726
399.143
408.18
386.727
435.987
34.6285
450.61
452.984
471.334
357.595
363.184
341.267
472.223
307.718
1.30827
6.45841
5.86589
1.9072
3.56407
5.69253
30.4837
14.4001
33.1095
32.3651
371.34
17.4553
426.183
439.882
57.4363
36.1721
7.37669
342.783
469.446
9.61236
)
;
    }
    inlet
    {
        type            fixedValue;
        value           nonuniform 0();
    }
    outlet
    {
        type            zeroGradient;
    }
    wallInner
    {
        lowReCorrection 0;
        type            epsilonWallFunction;
        value           nonuniform List<scalar> 
126
(
53.6058
13.2834
25.1306
0.985507
1.2079
0.673518
0.590257
1.82076
9.04471
1.56671
9.88983
27.4016
370.375
10.6802
3.67245
6.59572
18.2049
18.426
5.76173
0.583057
0.988362
4.95006
38.2619
6.64992
6.12453
13.0608
15.0099
3.80526
4.45595
0.870192
38.4675
47.0817
304.059
22.4219
287.391
0.813201
3.50783
38.2259
14.6929
0.688834
0.390537
51.2484
9.18517
2.04085
18.3546
12.1414
4.38
278.114
1.77944
83.5213
155.994
4.663
168.868
10.6305
41.124
50.4679
6.48529
199.313
97.3225
47.8113
0.565078
0.746946
1.56289
126.519
3.44772
3.77837
70.7674
110.656
0.589115
135.93
67.0737
58.0217
4.51287
2.64771
81.6888
100.377
6.43973
180.154
76.6293
156.801
73.1482
162.138
10.8764
170.265
17.3124
190.238
171.221
9.13649
0.851717
144.817
146.581
115.963
127.435
2.28707
123.432
93.7487
11.5962
231.945
31.378
38.2797
115.359
35.7281
3.66342
37.7578
2.62051
1.10359
0.851956
5.77562
144.92
284.449
58.5886
115.886
11.8457
32.2536
37.25
116.532
13.4807
13.5195
44.1441
91.6106
8.55126
0.940435
76.8185
68.5974
21.1221
14.324
)
;
    }
    procBoundary3to1
    {
        type            processor;
        value           nonuniform List<scalar> 
48
(
90.4698
87.1547
76.6864
82.2727
49.827
82.9804
87.1547
25.6724
89.708
3.79755
3.79755
4.52929
4.52929
6.40346
6.76401
4.66152
6.22606
5.46508
6.22606
7.0316
4.29368
3.24405
7.0316
30.7738
3.93857
4.0796
4.36814
3.24405
8.03199
16.3916
16.3916
16.2747
16.2747
89.708
4.57161
50.9396
40.4243
3.93857
98.856
43.4687
6.40346
59.1468
75.3573
7.0316
6.9842
58.4158
46.6702
4.92639
)
;
    }
    procBoundary3to2
    {
        type            processor;
        value           nonuniform List<scalar> 
29
(
2.80067
2.80067
2.7627
2.91045
12.0436
3.29079
3.90434
3.03595
2.21448
2.14589
2.13045
7.85009
2.08387
2.15591
2.21201
2.33789
2.03762
1.98492
2.89507
2.02572
2.16025
2.03762
1.03112
1.98492
1.89756
2.17404
1.98492
7.29863
7.29863
)
;
    }
}


// ************************************************************************* //
