/*--------------------------------*- C++ -*----------------------------------*\
| =========                 |                                                 |
| \\      /  F ield         | OpenFOAM: The Open Source CFD Toolbox           |
|  \\    /   O peration     | Version:  v1912                                 |
|   \\  /    A nd           | Website:  www.openfoam.com                      |
|    \\/     M anipulation  |                                                 |
\*---------------------------------------------------------------------------*/
FoamFile
{
    version     2.0;
    format      ascii;
    class       volScalarField;
    location    "0.66";
    object      nut;
}
// * * * * * * * * * * * * * * * * * * * * * * * * * * * * * * * * * * * * * //

dimensions      [0 2 -1 0 0 0 0];


internalField   nonuniform List<scalar> 
1431
(
0.00423336
0.0111199
0.000903636
0.00127679
0.00161808
0.00944736
0.00186919
0.00950033
0.00792314
0.000944048
0.00438568
0.0121996
0.0148387
0.00213674
0.00186398
0.00145218
0.00203415
0.00109643
0.00204644
0.00160993
0.00577749
0.00495001
0.00618117
0.0153133
0.00649421
0.0102266
0.00390231
0.00185011
0.000854301
0.000722567
0.00201276
0.00249567
0.00187045
0.00119415
0.012604
0.00107651
0.0119988
0.000688566
0.000452758
0.00224176
0.00558688
0.00750678
0.0132537
0.000964323
0.00384994
0.00192464
0.00345608
0.00370683
0.0022341
0.00135389
0.00930427
0.000866239
0.01078
0.0131924
0.00998496
0.00488111
0.00097785
0.0136753
0.0018251
0.0010972
0.00168231
0.000546113
0.000487484
0.000469782
0.000292906
0.000415057
0.000955198
0.000572548
0.000984815
0.00126851
0.00390828
0.00114909
0.000691095
0.000834017
0.00149259
0.00109367
0.000754192
0.000388184
0.000590756
0.000862036
0.00176363
0.000803724
0.0119789
0.00399691
0.00630424
0.00332532
0.00259304
0.00350088
0.00992087
0.0125111
0.00172119
0.00156894
0.000865028
0.00133911
0.00932634
0.000673477
0.0120312
0.0184146
0.000897166
0.000961581
0.00761188
0.00070666
0.00261807
0.00110497
0.000522671
0.00231007
0.00286666
0.00346129
0.00471722
0.00226798
0.00114498
0.0157721
0.00476067
0.00474393
0.0114925
0.00139107
0.00137189
0.00080845
0.00070984
0.000391436
0.00135469
0.0017553
0.0023398
0.00126309
0.00268285
0.000434707
0.000759087
0.00305221
0.00121522
0.00494125
0.00136481
0.00101244
0.0057216
0.0015277
0.00179207
0.00163887
0.00108359
0.00109571
0.0126573
0.00035772
0.000356554
0.00191626
0.00153206
0.00076614
0.00600565
0.00174178
0.000600441
0.00928979
0.00117544
0.00122747
0.00132115
0.00125009
0.00237529
0.000766545
0.00321236
0.00121097
0.00957536
0.0141437
0.0127893
0.00515107
0.0165523
0.0161485
0.00157425
0.00397442
0.0028311
0.00411936
0.00402503
0.0106378
0.00121498
0.0162183
0.0165629
0.0108062
0.002138
0.0129432
0.0129039
0.00895469
0.0051253
0.00665946
0.0108613
0.0127782
0.000446376
0.000677471
0.00552641
0.0187112
0.00721409
0.00127656
0.00155601
0.0147955
0.00241302
0.00704018
0.0023277
0.00239729
0.00248502
0.00384543
0.000721402
0.015409
0.0183594
0.0113278
0.00125764
0.0015552
0.00804659
0.00230038
0.0044661
0.00314149
0.014607
0.00243766
0.00225364
0.00078789
0.0144106
0.00221794
0.00199336
0.000790265
0.00284088
0.00232702
0.0118549
0.00161202
0.00265382
0.0115121
0.00578257
0.00433597
0.00304149
0.00550247
0.00270304
0.00329744
0.00333945
0.0164315
0.00468017
0.0173931
0.00270178
0.00324757
0.00597433
0.00200502
0.00243895
0.00241593
0.00260379
0.017901
0.00282626
0.00262825
0.00222358
0.0054061
0.00546017
0.0107191
0.0153673
0.00258129
0.00244849
0.00428677
0.00270415
0.00417671
0.0032022
0.00122402
0.00290088
0.0129147
0.00496286
0.00144852
0.00240618
0.00744245
0.00468285
0.0174022
0.0189746
0.00252696
0.00165236
0.0124932
0.00550002
0.00476186
0.00355903
0.00514716
0.0124254
0.00471324
0.00365939
0.000678198
0.00495793
0.0028061
0.00959479
0.00395966
0.0152751
0.00199121
0.0144223
0.0036392
0.000960805
0.00145185
0.0123526
0.0134016
0.00172734
0.0060509
0.0073764
0.0176016
0.00722339
0.0190823
0.00548309
0.0104556
0.000662811
0.0104687
0.0175639
0.0106471
0.00281942
0.0024997
0.00187925
0.00143546
0.001909
0.00100741
0.0106687
0.000308442
0.00812758
0.0117908
0.00343807
0.0042874
0.0122907
0.00238412
0.00864559
0.0147941
0.0154589
0.000361734
0.000500598
0.00139658
0.0095377
0.017683
0.0115317
0.00859735
0.00189146
0.0143946
0.0117544
0.0166765
0.000781779
0.00776991
0.0105178
0.000736444
0.000622088
0.0080258
0.0143154
0.00168721
0.00113047
0.00223482
0.00849991
0.00571156
0.00537526
0.0124199
0.00764577
0.0181263
0.0100454
0.00133625
0.000322108
0.0129511
0.0130814
0.00526441
0.00854458
0.00246455
0.0091418
0.0142179
0.0144883
0.0111813
0.00683902
0.00185948
0.00819243
0.0129059
0.0018706
0.00302395
0.00656179
0.00186917
0.0112718
0.00643032
0.0051442
0.00127159
0.00105872
0.006762
0.00201567
0.00433031
0.00726213
0.0183681
0.00256033
0.00205773
0.00419647
0.00263877
0.0112102
0.00936328
0.00555441
0.0190556
0.0133397
0.00176159
0.0130087
0.0194187
0.0166203
0.00908807
0.00160581
0.00176982
0.0176985
0.00945443
0.0122642
0.00815058
0.0100433
0.0098973
0.00557156
0.0124831
0.0124475
0.00375712
0.0184808
0.00944092
0.0151557
0.0149529
0.00662964
0.0108899
0.0136552
0.00570007
0.0186184
0.00758153
0.00282791
0.0145443
0.00888407
0.000462997
0.00645224
0.0145518
0.0144
0.0113535
0.0144581
0.0150366
0.00818643
0.00134562
0.0123874
0.000383103
0.0107872
0.0143046
0.00356744
0.0153704
0.00634881
0.0126167
0.0141265
0.00259386
0.00216709
0.00355345
0.00433801
0.0141667
0.016136
0.0157839
0.0154825
0.0155168
0.0154543
0.0157515
0.016191
0.0153695
0.0163191
0.0157249
0.00214647
0.012393
0.00199647
0.00194277
0.00161733
0.00172874
0.00152474
0.00176805
0.00419955
0.00403366
0.00367615
0.00148531
0.00203635
0.00191484
0.00197252
0.00201541
0.00509664
0.0162625
0.00193834
0.00243301
0.00451281
0.00134914
0.0154631
0.00174755
0.00301268
0.00149365
0.00153552
0.014755
0.00155481
0.0139537
0.00125165
0.00109408
0.00128826
0.00587396
0.0126068
0.0124161
0.00167013
0.00127855
0.00141702
0.00114309
0.0060519
0.00136702
0.0125392
0.0010408
0.00109971
0.00573364
0.00141253
0.00114384
0.00141623
0.00118217
0.0121832
0.00106012
0.00141409
0.00153765
0.00467919
0.0017867
0.0017701
0.0114764
0.000999848
0.00243001
0.00957491
0.0051432
0.00145692
0.00126185
0.0110098
0.0125126
0.00226206
0.00122436
0.00133998
0.00217717
0.00210744
0.00485613
0.00172099
0.00289193
0.00116301
0.00256874
0.00989645
0.00251419
0.00522332
0.0120542
0.00398752
0.00226825
0.00326942
0.00310468
0.00594436
0.00473092
0.0100389
0.00219729
0.00198397
0.000512323
0.00952569
0.00669633
0.00998239
0.00618346
0.0150385
0.00725548
0.0021458
0.00176744
0.00539148
0.00207047
0.0151087
0.00159996
0.00510285
0.00423126
0.00388812
0.00272533
0.00757193
0.00160321
0.0152376
0.0139776
0.0120215
0.00133353
0.00583078
0.0134688
0.00136037
0.00415174
0.00508791
0.00967615
0.00166193
0.00672062
0.014082
0.0102153
0.0165514
0.00807211
0.00953061
0.00434959
0.00298595
0.00366761
0.0143038
0.00799851
0.0137437
0.0099897
0.0166655
0.00209885
0.000711861
0.0100023
0.00366581
0.00171627
0.0168453
0.016018
0.0140583
0.0083275
0.00425314
0.0125604
0.0130469
0.00304621
0.00246026
0.00580083
0.000857458
0.00314819
0.0162844
0.00157585
0.00905364
0.00881632
0.00343316
0.0155762
0.00496351
0.0123715
0.0164483
0.0136071
0.00168724
0.00929602
0.0138244
0.00542748
0.0110355
0.00816003
0.0018794
0.0135453
0.00179968
0.00208347
0.00425671
0.00599172
0.0123081
0.0169627
0.00570642
0.00776401
0.0046988
0.005282
0.013936
0.0127425
0.0131447
0.0101886
0.00065702
0.0129779
0.00868343
0.00674209
0.0148489
0.00249374
0.0120886
0.00366717
0.0117085
0.00842606
0.000338073
0.0169144
0.0134705
0.0119602
0.0098441
0.00591091
0.00460497
0.00711263
0.00603794
0.0176312
0.00504559
0.0137933
0.00159551
0.00855532
0.0103285
0.0102916
0.00430222
0.0116966
0.014284
0.0102502
0.00155646
0.0126526
0.00245109
0.00907551
0.0073342
0.00714483
0.0113647
0.0143081
0.0179663
0.0145023
0.0123028
0.0107899
0.0100451
0.00401313
0.00249131
0.00889429
0.00983382
0.00167604
0.0138893
0.0120052
0.00171456
0.0160648
0.0142511
0.00340289
0.0017389
0.0059305
0.00505045
0.00591812
0.00766206
0.00300903
0.011691
0.00171007
0.00078656
0.00114653
0.0163386
0.00520486
0.00239204
0.00105002
0.00583163
0.00278346
0.00501035
0.000956099
0.000760756
0.0147383
0.00150967
0.00428476
0.000664908
0.01299
0.0012995
0.0122191
0.0144219
0.000862081
0.00166292
0.00180342
0.00145993
0.00139961
0.00902501
0.0115029
0.00670083
0.00149302
0.00310165
0.00322983
0.00120571
0.00477154
0.0144662
0.00333751
0.00348715
0.00508347
0.00528331
0.00244149
0.0125289
0.0133448
0.000674099
0.00818081
0.00409582
0.0139284
0.00362939
0.00479997
0.00131101
0.0156142
0.0146926
0.00469632
0.00677392
0.00300855
0.00509619
0.00163739
0.0016919
0.00532134
0.000748055
0.00778709
0.00486278
0.00450068
0.0163333
0.007562
0.00484785
0.00138549
0.00561892
0.00121901
0.00511736
0.00535196
0.00807327
0.00128077
0.0160271
0.00560774
0.00657633
0.00159917
0.00849847
0.000372259
0.0180548
0.00596055
0.00335785
0.00176705
0.00170683
0.0029
0.0014861
0.00184658
0.0137928
0.00351677
0.0119736
0.00237132
0.00507343
0.00541088
0.00614218
0.00936871
0.000632433
0.00450699
0.012361
0.00184926
0.0122243
0.000772381
0.0129103
0.00159126
0.00114713
0.010935
0.00679175
0.0113962
0.00222396
0.0106769
0.00577193
0.00181406
0.00237797
0.0134463
0.00237033
0.000612685
0.00492456
0.00265117
0.00445822
0.0140642
0.00233501
0.00563561
0.00149257
0.0161659
0.0165683
0.0120388
0.00247727
0.00984503
0.00420434
0.00657406
0.0177613
0.00342755
0.00716696
0.0109527
0.010168
0.0171575
0.0161539
0.002487
0.0138479
0.00579375
0.00173013
0.00537074
0.0115943
0.0159351
0.00122415
0.000758349
0.00776774
0.00192033
0.002383
0.000851629
0.014659
0.00175067
0.00162292
0.00226021
0.0104794
0.0138228
0.00300109
0.0145067
0.0147836
0.00385508
0.0138115
0.00134809
0.00128292
0.00237313
0.0128444
0.0173109
0.000925818
0.0177277
0.00497384
0.0174877
0.0028148
0.00197778
0.0088725
0.00387648
0.00108147
0.000617618
0.00588347
0.00541116
0.00114148
0.000973007
0.0033074
0.011715
0.00610912
0.00802334
0.0165476
0.0120441
0.0167074
0.00104616
0.0136796
0.0127268
0.0164496
0.0112085
0.011975
0.00125816
0.00375921
0.0014879
0.0022418
0.00191122
0.0112386
0.00376576
0.0129313
0.00353083
0.0043331
0.0033571
0.0126802
0.0146506
0.00709186
0.000858724
0.00082936
0.000797802
0.000694083
0.00073739
0.000998273
0.000815853
0.000580985
0.000691782
0.000619275
0.000630726
0.000720977
0.00109703
0.000711586
0.000654896
0.000661723
0.000748729
0.000767662
0.00072352
0.000744834
0.000689039
0.000696395
0.000718948
0.00072124
0.0163976
0.0142756
0.00137729
0.0101758
0.00756809
0.0045714
0.0024322
0.0074575
0.00234366
0.00212834
0.00334547
0.00145362
0.00148143
0.0163994
0.00512258
0.00171797
0.0157134
0.00461458
0.0169655
0.00365315
0.0028593
0.0181518
0.00130441
0.000730908
0.0121815
0.0110543
0.000627343
0.00213076
0.0102241
0.00171904
0.00435489
0.015871
0.00608321
0.00776498
0.0116246
0.00943568
0.00166863
0.000721987
0.0022614
0.00323503
0.0126282
0.000949951
0.000723693
0.0107754
0.0111349
0.00218931
0.0042782
0.0017568
0.00217555
0.000609131
0.0101766
0.0157142
0.011904
0.00203578
0.00127788
0.00512083
0.0053076
0.000670539
0.0028878
0.000602901
0.0114006
0.00254043
0.00144349
0.00159254
0.00344832
0.00121288
0.0159674
0.00176147
0.0158064
0.013721
0.00264853
0.000686299
0.0108001
0.0135209
0.0180816
0.00167107
0.000981147
0.0054291
0.0028663
0.00102132
0.0134077
0.0025049
0.00720148
0.0129903
0.000700059
0.0136004
0.00296866
0.00264709
0.00526542
0.00338414
0.00273171
0.00325789
0.00354415
0.00442579
0.0160813
0.00120015
0.00966487
0.00499868
0.00151888
0.00442035
0.00276462
0.00222825
0.000831003
0.0128794
0.0103173
0.0117106
0.00106452
0.0126335
0.0114963
0.00805185
0.00710218
0.00168127
0.000759468
0.000693074
0.00421733
0.013683
0.0149214
0.000721038
0.00827895
0.00197389
0.0158935
0.0114066
0.00425342
0.00301061
0.00268
0.012631
0.00183757
0.00648942
0.0102371
0.0118877
0.000560694
0.00360743
0.000492327
0.00984655
0.00732958
0.00214228
0.0124117
0.0111315
0.0124576
0.0101094
0.00499011
0.0131506
0.00448156
0.00145087
0.00188068
0.00541613
0.0028289
0.01276
0.0123082
0.0103067
0.0154821
0.0122979
0.0155514
0.000854538
0.00112005
0.0169434
0.00200434
0.0124252
0.00226236
0.0140991
0.0161769
0.00196342
0.000710015
0.00183073
0.00172067
0.00167976
0.00224826
0.00199078
0.0018988
0.00182041
0.00191692
0.000270392
0.000393092
0.000327297
0.000265679
0.00022846
0.000326646
0.0139783
0.00319485
0.0141064
0.00240979
0.00943298
0.000709782
0.00227433
0.0157869
0.00141303
0.00238563
0.0117703
0.000974231
0.00282131
0.00651237
0.000645355
0.00173589
0.00199833
0.00971763
0.0160409
0.00302716
0.012304
0.00354226
0.00222372
0.0117808
0.0163841
0.00295346
0.00140834
0.00384174
0.0133412
0.00132539
0.00622714
0.00707868
0.00114786
0.010873
0.000882943
0.0029547
0.00473424
0.000639454
0.00444467
0.00172198
0.000922576
0.0041223
0.0015409
0.00117586
0.0145246
0.0107778
0.000928365
0.00432143
0.00840422
0.00357591
0.00124487
0.00587126
0.0106409
0.00690943
0.00760716
0.00338385
0.0014285
0.00475928
0.00589253
0.00214312
0.0131238
0.0036544
0.00381185
0.0119127
0.000665928
0.00252839
0.00292313
0.00118063
0.0101159
0.00495082
0.0128515
0.00600913
0.00198649
0.00935896
0.0166954
0.00230704
0.0087246
0.00155414
0.00107918
0.00145286
0.00167613
0.00289755
0.00113326
0.0133003
0.0149692
0.00101331
0.0047899
0.0117158
0.00363727
0.0132106
0.00128608
0.00365307
0.0067459
0.00357031
0.0128165
0.00131983
0.00442481
0.00698308
0.0051719
0.0126283
0.00142066
0.000604048
0.00189379
0.00344089
0.00852324
0.0125675
0.0048648
0.0116099
0.0090325
0.00187294
0.0170523
0.00170608
0.00449481
0.00570783
0.00274312
0.00162374
0.0109568
0.00333373
0.00123072
0.00288195
0.0106202
0.00228292
0.0157957
0.0108774
0.00551931
0.00293183
0.00153679
0.000666631
0.0112482
0.0036925
0.0135294
0.00796845
0.013489
0.0152076
0.0121014
0.00182727
0.00266837
0.00209973
0.00157477
0.0118545
0.0018979
0.0123444
0.0195663
0.00219844
0.00474747
0.0121324
0.00900656
0.0120248
0.000965574
0.00238146
0.00684459
0.00205928
0.00336256
0.00492034
0.00428483
0.00612333
0.00200724
0.00881321
0.00319378
0.00413778
0.0120498
0.00846654
0.00913517
0.00653387
0.00903644
0.00676167
0.0119316
0.0127992
0.00413038
0.00163907
0.0033951
0.00339859
0.00378217
0.0120816
0.00750574
0.0123472
0.0125775
0.00124001
0.00224669
0.00248464
0.0120718
0.00178717
0.00189011
0.0118644
0.0148779
0.0107149
0.00205243
0.0125867
0.012979
0.0125117
0.00691337
0.00336554
0.000693034
0.000654207
0.00166413
0.00328753
0.00222555
0.00244548
0.00313534
0.0158301
0.0109404
0.00125228
0.00538774
0.0143192
0.00405153
0.00241949
0.00277197
0.00223692
0.0147493
0.00809772
0.00153778
0.00125497
0.0190835
0.0109806
0.0134727
0.00159431
0.00317971
0.00383474
0.0056066
0.0105563
0.00147406
0.00369619
0.00328998
0.018586
0.000447278
0.00740164
0.0127742
0.0013596
0.00365289
0.00713678
0.0117084
0.013301
0.00193757
0.00398159
0.00136988
0.0073671
0.00160778
0.00192369
0.00866182
0.00239438
0.00900282
0.00110194
0.0142277
0.000942537
0.000996103
0.000528504
0.00672902
0.00481233
0.00313645
0.00141996
0.0147649
0.00253809
0.00351147
0.00401345
0.0104676
0.00254998
0.0022767
0.00255079
0.00242992
0.00373349
0.0102508
0.0183095
0.0037432
0.0115341
0.00251232
0.00176454
0.00175542
0.00237852
0.00238386
0.0110559
0.0029245
0.00181366
0.00198772
0.00241101
0.0119509
0.002374
0.00142354
0.00249461
0.00270579
0.00222978
0.00495457
0.0111596
0.00435691
0.00310112
0.0019222
0.00221666
0.00288913
0.00161337
0.000758105
0.0111456
0.00928565
0.00237089
0.0029997
0.00294671
0.00137562
0.00125969
0.00284115
0.00125086
0.00128092
0.00210661
0.00195419
0.00115176
0.00318595
0.015674
0.00228537
0.00218364
0.0154237
0.00350108
0.0103979
0.0123791
0.00289468
0.0023661
0.00135092
0.000965118
0.00379012
0.000790543
0.00479174
0.0011965
0.00047918
0.000361543
0.00186758
0.000342946
0.000758948
0.000475834
0.00232998
0.00301075
0.0017645
0.00194954
0.000755813
0.0013279
0.000933985
0.00106493
0.0015824
0.000692069
0.000758709
0.00165068
0.00151786
0.000720302
0.000357133
0.00149907
0.0017609
0.00100007
0.000857993
)
;

boundaryField
{
    frontAndBack
    {
        type            empty;
    }
    wallOuter
    {
        type            nutkWallFunction;
        Cmu             0.09;
        kappa           0.41;
        E               9.8;
        value           nonuniform List<scalar> 
96
(
0.000101819
8.73087e-05
8.15149e-05
0.000196228
0.000198809
0.00019576
0.000125528
0.00011537
9.31727e-05
0.000175086
8.19483e-05
0.000152577
0.000104783
0.000205637
0.000163328
0.000188648
0.000193847
8.997e-05
7.82396e-05
0.000136205
7.57748e-05
0.000144501
9.11265e-05
0.000200589
0.000186538
0.000102651
9.91002e-05
9.54584e-05
8.34386e-05
8.84828e-05
0.000118359
9.75755e-05
7.04438e-05
8.34605e-05
7.49675e-05
7.63553e-05
8.68895e-05
0.000129323
8.58613e-05
7.92973e-05
8.00519e-05
9.02097e-05
9.20609e-05
8.69742e-05
8.97914e-05
8.2977e-05
8.38386e-05
8.681e-05
8.67357e-05
8.78801e-05
0.000112627
8.74446e-05
8.08849e-05
7.47238e-05
0.000167341
8.43139e-05
0.000140652
9.09732e-05
8.38519e-05
8.71309e-05
0.000209696
6.96097e-05
6.128e-05
0.000241131
0.000226932
0.000253618
0.000222684
8.54948e-05
0.000208883
0.000197241
0.000192875
0.000252147
0.000225443
0.000215808
0.000207712
0.000217682
3.31107e-05
4.89698e-05
4.05554e-05
3.31076e-05
2.80153e-05
4.08464e-05
8.58058e-05
7.98364e-05
7.75264e-05
8.06539e-05
0.000164947
8.23786e-05
0.000215994
0.000215148
8.32907e-05
7.92667e-05
5.57324e-05
0.000219763
0.000130044
6.56963e-05
)
;
    }
    inlet
    {
        type            calculated;
        value           nonuniform 0();
    }
    outlet
    {
        type            calculated;
        value           nonuniform List<scalar> 9(0.0183681 0.0176985 0.0018794 0.0160271 0.0120388 0.00710218 0.00214228 0.00357591 0.0106409);
    }
    wallInner
    {
        type            nutkWallFunction;
        Cmu             0.09;
        kappa           0.41;
        E               9.8;
        value           nonuniform List<scalar> 
126
(
0.000207554
0.000130806
0.000194523
6.58018e-05
5.9867e-05
5.73071e-05
3.43878e-05
4.97054e-05
0.000115417
6.75841e-05
0.000117196
0.000148371
0.000418937
0.000134584
8.45218e-05
9.90831e-05
0.000172272
0.000129304
9.23682e-05
4.71784e-05
7.00268e-05
0.000103169
0.000200893
9.8417e-05
0.000112061
0.000161847
0.000158984
9.81628e-05
8.64464e-05
4.77005e-05
0.000157858
0.000202181
0.000259667
0.000147642
0.000296956
5.17187e-05
9.32164e-05
0.000158322
0.000118156
4.32457e-05
4.31537e-05
0.000176378
9.36042e-05
7.07721e-05
0.000145441
0.000146677
9.29333e-05
0.000311921
5.31277e-05
0.000148866
0.000179513
8.79397e-05
0.000226375
8.17823e-05
0.000113896
0.000167783
7.96964e-05
0.000213615
0.000166115
0.000119069
3.74365e-05
4.30117e-05
6.05995e-05
0.000162239
8.3273e-05
7.38136e-05
0.000132689
0.000155948
3.91706e-05
0.000212859
0.000148288
0.000124773
5.61354e-05
4.61844e-05
0.000145093
0.000134229
6.22069e-05
0.000201546
0.000181171
0.000184035
0.000152908
0.000190391
8.02872e-05
0.000197
9.62839e-05
0.00018162
0.000192628
7.52634e-05
4.00843e-05
0.000183814
0.000180031
0.000191095
0.000169672
4.4399e-05
0.000147746
0.000217411
7.16912e-05
0.000225404
0.000111532
0.000117819
0.00015717
0.000115332
8.98735e-05
0.00013524
5.5056e-05
4.32327e-05
4.08382e-05
5.79799e-05
0.000258861
0.000329631
0.000200778
0.000220692
9.06286e-05
0.000111342
0.000124607
0.0001831
8.37022e-05
9.06805e-05
0.000189254
0.000175479
8.82355e-05
4.26962e-05
0.000173091
0.000202704
0.000119563
0.0001026
)
;
    }
    procBoundary3to1
    {
        type            processor;
        value           nonuniform List<scalar> 
48
(
0.0113278
0.00456343
0.00560983
0.00921932
0.00352466
0.00343754
0.00456343
0.0119716
0.0155539
0.00168743
0.00168743
0.00164926
0.00164926
0.00245286
0.00311895
0.00151971
0.00137167
0.00136501
0.00137167
0.00160257
0.00166534
0.0017568
0.00160257
0.00190959
0.00137719
0.00152699
0.00372006
0.0017568
0.00640692
0.00138961
0.00138961
0.00973412
0.00973412
0.0155539
0.0016382
0.00297294
0.0140612
0.00137719
0.013597
0.00310592
0.00245286
0.0155109
0.0160473
0.00160257
0.00336948
0.00102001
0.00350768
0.00192859
)
;
    }
    procBoundary3to2
    {
        type            processor;
        value           nonuniform List<scalar> 
29
(
0.001753
0.001753
0.000533164
0.000575813
0.000791431
0.000592687
0.000598201
0.00193105
0.0026705
0.00215345
0.00134372
0.00168043
0.00112101
0.0025521
0.00136391
0.00232829
0.00183623
0.00242347
0.00179603
0.00193789
0.00169823
0.00183623
0.000264725
0.00242347
0.000959688
0.000945172
0.00242347
0.00310486
0.00310486
)
;
    }
}


// ************************************************************************* //
