/*--------------------------------*- C++ -*----------------------------------*\
| =========                 |                                                 |
| \\      /  F ield         | OpenFOAM: The Open Source CFD Toolbox           |
|  \\    /   O peration     | Version:  v1912                                 |
|   \\  /    A nd           | Website:  www.openfoam.com                      |
|    \\/     M anipulation  |                                                 |
\*---------------------------------------------------------------------------*/
FoamFile
{
    version     2.0;
    format      ascii;
    class       volScalarField;
    location    "0.77";
    object      nut;
}
// * * * * * * * * * * * * * * * * * * * * * * * * * * * * * * * * * * * * * //

dimensions      [0 2 -1 0 0 0 0];


internalField   nonuniform List<scalar> 
5794
(
0.000457058
0.000715114
0.00513879
0.0045704
0.0124375
0.000553209
0.000876324
0.00084006
0.00224903
0.000857983
0.00204263
0.00144683
0.00132723
0.00815538
0.00204806
0.00121391
0.00957245
0.00690465
0.0012723
0.000470648
0.00142246
0.000499507
0.00147285
0.00100507
0.000932707
0.00400268
0.0127846
0.014743
0.00407318
0.000825751
0.00148977
0.0022459
0.00241978
0.00168928
0.00170089
0.00222557
0.000786
0.00160151
0.00192185
0.00677241
0.00635963
0.00255663
0.000742868
0.000917013
0.00182123
0.0023374
0.00197329
0.00115865
0.000751423
0.000428253
0.000776123
0.00302674
0.000752436
0.00217475
9.88623e-05
0.00233841
0.0020172
0.00159132
0.000729829
0.00533051
0.00132304
0.000520929
0.00129002
0.00532086
0.00573057
0.000742082
0.00461333
0.000671129
0.00552311
0.000626617
0.006289
0.00427961
0.0151018
0.000960132
0.00581342
0.01132
0.000456063
0.00354984
0.000828835
0.00022437
0.000440903
0.000492519
0.0082566
0.00177107
0.00155962
0.000897669
0.000707374
0.00101666
0.00209236
0.00275411
0.00500307
0.00205332
0.00343227
0.00548578
0.0025888
0.00814453
0.00394689
0.00318295
0.00194483
0.00142051
0.00140832
0.0012477
0.000753823
0.0124643
0.0020269
0.0120354
0.000461949
0.00409502
0.00517129
0.000743975
0.00104142
0.000634127
0.00131234
0.00156713
0.00233755
0.00412678
0.00218622
0.00581309
0.00123301
0.00101114
0.00799117
0.000259072
0.00071014
0.0131109
0.00124555
0.00360636
0.00380833
0.0007089
0.00356692
0.00391221
0.00189348
0.0016421
0.00349192
0.00335674
0.0104706
0.00227773
0.00291583
0.000575334
0.00366072
0.00128615
0.000902877
0.0133902
0.00121504
0.0143771
0.00515729
0.0125617
0.00184072
0.00144811
0.00939866
0.0079807
0.000725991
0.0019806
0.0115438
0.000877823
0.0135502
0.00172614
0.00170744
0.00100374
0.00214853
0.00141385
0.000457734
0.000748088
0.00044438
0.000757921
0.00198418
0.00193195
0.000661809
0.000622105
0.000420611
0.000254569
0.000413081
0.00196494
0.000552493
0.00054646
0.000486115
0.00116843
0.000338733
0.0007808
0.000563954
0.00189536
0.00075201
0.00122761
0.000661652
0.00154605
0.000727024
0.00367008
0.00116367
0.0011171
0.000428371
0.00085302
0.00166368
0.00147874
0.00171806
0.000902478
0.000858511
0.000914643
0.000561826
0.000328072
0.000586668
0.00100941
0.000829632
0.00210731
0.00106192
0.000838371
0.00167583
0.00202132
0.000665953
0.00572752
0.0124844
0.00193381
0.000744854
0.000857689
0.00244013
0.00162317
0.00140768
0.0016919
0.00199735
0.00405009
0.00353348
0.00573314
0.000856358
0.00222626
0.00836602
0.00367886
0.00232805
0.00657533
0.000672555
0.00184663
0.00122883
0.00246172
0.000911296
0.000799697
0.00134489
0.00368967
0.00294822
0.01037
0.0130167
0.00201721
0.00090935
0.000547095
0.000572804
0.00755022
0.00222985
0.00148074
0.00141723
0.00228772
0.00170191
0.0082678
0.00113575
0.00095327
0.000668182
0.000693056
0.0119823
0.000591478
0.000809637
0.0203756
0.000905552
0.000880911
0.00383582
0.00112147
0.00247681
0.00232879
0.00147186
0.000742497
0.00119009
0.00127393
0.0111009
0.00366548
0.000815236
0.002921
0.00262543
0.00112583
0.00243793
0.00523609
0.00086823
0.00197048
0.00218537
0.000942323
0.00161102
0.0012003
0.000452046
0.00322233
0.00410323
0.00159258
0.00473473
0.00527781
0.00238967
0.00301266
0.00534017
0.00828006
0.00178965
0.00121643
0.00192349
0.00220038
0.00077098
0.00316638
0.0021933
0.00111879
0.00252552
0.00098562
0.000403891
0.000981193
0.000362915
0.00298265
0.000816547
0.0030905
0.00137453
0.00420445
0.00252049
0.00222166
0.00108981
0.00278733
0.00222422
0.00164464
0.000782847
0.000903096
0.00503249
0.0153701
0.00464153
0.00425728
0.00554982
0.00138822
0.00484269
0.0116247
0.00154559
0.00192851
0.00102053
0.0011869
0.00111091
0.00187663
0.00179885
0.00082205
0.000840451
0.00150379
0.00137804
0.000520783
0.000511923
0.000359817
0.000361776
0.000914209
0.000553186
0.000680605
0.00231844
0.00106531
0.00045717
0.000609718
0.00171758
0.00128171
0.00226391
0.00155773
0.00202129
0.00248229
0.00148859
0.00123923
0.000725334
0.00254286
0.000430986
0.00190364
0.00085412
0.000565092
0.00569413
0.00253501
0.00291645
0.00125894
0.000977961
0.00335576
0.00178064
0.00156625
0.00129631
0.00108561
0.00237751
0.000487566
0.00367002
0.0026579
0.0064336
0.00304983
0.00169012
0.00153937
0.00175173
0.00100786
0.00541907
0.00223452
0.00074998
0.00178491
0.00141826
0.00149711
0.00668185
0.00216537
0.00214748
0.000718257
0.000680119
0.00166855
0.000478482
0.00103182
0.00051683
0.000503269
0.000487472
0.00101931
0.00122157
0.00147325
0.000964039
0.0010933
0.01365
0.00046366
0.000359002
0.00256121
0.000916716
0.000558527
0.00047098
0.00405806
0.00335712
0.00195001
0.00445815
0.00118624
0.00175923
0.00145546
0.000668329
0.00538807
0.00196826
0.00347492
0.00183792
0.00292369
0.00523753
0.00241693
0.000693715
0.000688118
0.000525468
0.00136815
0.000558374
0.000702127
0.00294043
0.000784098
0.0130822
0.00198784
0.00155666
0.00138998
0.000911474
0.00121321
0.00111361
0.00102547
0.000960576
0.000805364
0.000912656
0.000948322
0.000980091
0.00467224
0.00247446
0.00266967
0.000824551
0.00255245
0.0005623
0.000554121
0.00184959
0.000775778
0.00493391
0.000565193
0.00449919
0.00849361
0.0033625
0.00724832
0.000846879
0.000646223
0.000602711
0.00235368
0.00152569
0.00395448
0.0101267
0.0176359
0.00533436
0.000833516
0.000172346
0.0133568
0.00447391
0.0023499
0.00173195
0.00310671
0.0189762
0.0154853
0.000933443
0.000620455
0.000848344
0.0009825
0.000671982
0.00153114
0.00533906
0.00344826
0.000861247
0.00109538
0.00275078
0.000735259
0.000606934
0.00437177
0.00411134
0.0101054
0.000840339
0.00126719
0.00096336
0.00239625
0.00140131
0.00233326
0.0177558
0.0180518
0.000728554
0.00163978
0.0147114
0.000663207
0.000751918
0.0010967
0.0048942
0.000761795
0.00814493
0.0011685
0.00700595
0.000636053
0.00155885
0.0022213
0.00380206
0.000630467
0.000804852
0.0136478
0.000555557
0.000676911
0.0149729
0.00646302
0.00453212
0.000704253
0.00100806
0.00213952
0.000493455
0.000605567
0.000973362
0.000292022
0.0095171
0.00244379
0.00320235
0.00128803
0.000785275
0.00294959
0.00394863
0.00205291
0.00064773
0.00221244
0.000458634
0.00598637
0.00113909
0.00130321
0.000754795
0.0144617
0.00127799
0.000400536
0.0136076
0.00122176
0.000403444
0.00081906
0.000791275
0.00108135
0.000979888
0.000544701
0.000457329
0.00989418
0.0179274
0.000522055
0.00329111
0.00226238
0.00646777
0.000878387
0.000729509
0.0052182
0.000229251
0.000844439
0.00164097
0.00284195
0.00147933
0.00133259
0.0015041
0.000858999
0.0174045
0.00375947
0.00139144
0.00351579
0.00489227
0.00242008
0.00775667
0.00744623
0.00339421
0.00136319
0.00113045
0.00444613
0.00226136
0.0048338
0.000791867
0.00085029
0.000685369
0.0053736
0.00246461
0.003213
0.000770572
0.000831123
0.000744008
0.00215785
0.000824508
0.00177346
0.00259824
0.0056251
0.000803929
0.00283535
0.00352433
0.000499385
0.000113631
0.00503193
0.0190013
0.0210071
0.012512
0.000699104
0.000837233
0.00076279
0.00214309
0.0010399
0.000864851
0.00161615
0.000288799
0.00329417
0.00409247
0.00547492
0.000416181
0.000726386
0.00323053
0.0109599
0.00611219
0.00102574
0.000676401
0.000738263
0.000249363
0.000560037
0.000689929
0.00074836
0.0039863
0.000808955
0.00195205
0.0154479
0.00101014
0.000836104
0.00395867
0.00238111
0.00279708
0.00539465
0.00236613
0.00101076
0.00214814
0.000606242
0.000356999
0.00101691
0.00247299
0.000588098
0.000681725
0.00300367
0.0147767
0.00238453
0.00202129
0.00532972
0.000891719
0.000543579
0.000944901
0.00100351
0.00057676
0.00298881
0.00563763
0.00549304
0.00240966
0.00275562
0.00200217
0.00111239
0.0121943
0.00144979
0.00149912
0.00278095
0.00590336
0.00122462
0.0128426
0.000750086
0.000538125
0.00507004
0.00232134
0.00193683
0.0107132
0.0027556
0.00404332
0.002412
0.00181422
0.000602559
0.00639141
0.00823629
0.00382906
0.00318496
0.0018722
0.0019314
0.00618196
0.000286378
0.000806024
0.000769526
0.000371601
0.000652314
0.000275466
0.000937732
0.00930414
0.003283
0.00252491
0.00097999
0.00246525
0.00690379
0.00109534
0.00781011
0.00349679
0.00318946
0.00444702
0.000775147
0.000733326
0.016324
0.00307404
0.00608427
0.00757248
0.0042351
0.00305517
0.00245579
0.0191169
0.00113027
0.000799176
0.000818435
0.00802373
0.000954397
0.00281668
0.00292087
0.00645917
0.00221744
0.00201218
0.00254942
0.00618839
0.00451664
0.00205008
0.00341032
0.00459318
0.000250242
0.000259269
0.000247709
0.000491036
0.00488951
0.00239159
0.0045917
0.000666738
0.000802834
0.000730765
0.00083992
0.00204397
0.000600749
0.00252406
0.00522003
0.000755654
0.0059851
0.00270853
0.000708463
0.000985571
0.0194852
0.00494052
0.00297155
0.00590628
0.00590547
0.00266176
0.00343947
0.00109115
0.00405947
0.00217596
0.00456442
0.0073664
0.00240479
0.00329883
0.0007608
0.000694533
0.000806526
0.0146702
0.00049281
0.00635087
0.0155151
0.000714906
0.000615416
0.00062101
0.00511162
0.00254434
0.00658421
0.0052716
0.00247374
0.0045753
0.00570639
0.00699049
0.00404719
0.00103091
0.00267884
0.000571874
0.00262033
0.000770485
0.00374526
0.000862941
0.00550337
0.0052189
0.00108721
0.000680445
0.00223385
0.00631345
0.00558912
0.00304315
0.00883419
0.00336108
0.000910636
0.000996464
0.00106639
0.0102314
0.00139363
0.00247596
0.00303245
0.00804542
0.000472286
0.000514825
0.00102501
0.00134988
0.0143299
0.00121129
0.000768492
0.00222231
0.00193092
0.00134985
0.00234044
0.00478227
0.00474686
0.000771299
0.00233608
0.00759392
0.00156137
0.00404215
0.0170357
0.00024841
0.000146349
0.000357908
0.00045883
0.00460992
0.00550229
0.000874995
0.00131179
0.000877536
0.000712792
0.000839181
0.0213055
0.00265308
0.00583288
0.00170287
0.00231371
0.00352611
0.00294981
0.0133403
0.00443518
0.00150466
0.000663057
0.000753564
0.0102648
0.000835364
0.00280876
0.00763771
0.00372549
0.00449151
0.00396226
0.00166017
0.010895
0.00397763
0.000772988
0.0030366
0.000589704
0.00432135
0.00212266
0.00227911
0.00330438
0.000808584
0.000752606
0.000615677
0.00441133
0.00384311
0.000893541
0.00075429
0.00240483
0.00110231
0.00391212
0.000692135
0.000799225
0.00269506
0.00175105
0.00294371
0.00598697
0.00396378
0.00623676
0.0100945
0.000724745
0.000623965
0.00443847
0.00104003
0.00103584
0.000571251
0.000593541
0.00207478
0.000437899
0.000790039
0.000950947
0.00727058
0.00351455
0.00415384
0.000845839
0.00305893
0.00560667
0.0176499
0.00205662
0.00330346
0.000784671
0.000766934
0.016623
0.00104533
0.00302723
0.000839758
0.00136271
0.0010136
0.00152492
0.000217695
0.00196384
0.00125765
0.000538189
0.0004141
0.000359462
0.000199528
0.000231276
0.000659602
0.0154536
0.012867
0.00321174
0.00183054
0.00279678
0.01091
0.000750179
0.000487198
0.00052296
0.00565947
0.00101983
0.019003
0.00612533
0.00227146
0.000785593
0.00744719
0.00158667
0.000597414
0.000775468
0.0212619
0.00573862
0.000834162
0.00106303
0.000877966
0.00354655
0.00169364
0.0129513
0.000776476
0.000523861
0.000538193
0.000638481
0.000567579
0.00205291
0.00157954
0.000824201
0.000459872
0.000818711
0.000789274
0.00914411
0.000782497
0.00149513
0.00101326
0.00162359
0.000831594
0.000902723
0.00114134
0.00108009
0.000651646
0.000942142
0.000756536
0.00113848
0.000806499
0.00181965
0.0047683
0.000910251
0.000833687
0.00269919
0.00143632
0.00083022
0.00204419
0.000776637
0.0200584
0.00210661
0.00090046
0.000825728
0.000874869
0.015144
0.000965106
0.00255042
0.00259394
0.00536865
0.000764973
0.000872453
0.000863128
0.000722414
0.000827969
0.00120741
0.00181225
0.00168909
0.00149543
0.00016952
0.00220623
0.00144264
0.00105813
0.00108202
0.0015775
0.000472442
0.000767787
0.000601457
0.00107463
0.000746693
0.0142833
0.000796121
0.00621512
0.000789932
0.00078319
0.000736276
0.00091202
0.000778851
0.000701631
0.00794099
0.0147982
0.00429797
0.000553286
0.000826685
0.00282177
0.00102259
0.00129876
0.0012655
0.00239444
0.00508563
0.0011286
0.00682118
0.000492022
0.000841452
0.00606178
0.000799409
0.0154652
0.000723029
0.000551496
0.00305368
0.00774516
0.000677946
0.00325647
0.000623432
0.000542328
0.000727955
0.00058663
0.000824744
0.000743039
0.000830364
0.00085388
0.000734735
0.000973738
0.000864457
0.000972767
0.00424797
0.000970094
0.000723077
0.00549282
0.00247376
0.000774656
0.000684933
0.00742436
0.00266417
0.00671381
0.00903662
0.00092515
0.001149
0.000318084
0.0160962
0.00194674
0.00431156
0.00195687
0.0187207
0.00245908
0.000199524
0.0010936
0.000413613
0.000613402
0.00218329
0.000370209
0.0011297
0.00110329
0.000259958
0.00108158
0.000171863
0.000222536
0.000564575
0.00067637
0.00062286
0.00636974
0.00377705
0.006004
0.000391317
0.00131113
0.00125703
0.000496966
0.000737158
0.000789542
0.00817751
0.000808391
0.0034756
0.00103091
0.000746447
0.000989747
0.0208042
0.0127214
0.000566869
0.00450579
0.00731005
0.00477568
0.0073846
0.000744632
0.0068391
0.00508301
0.00308183
0.00093536
0.00963015
0.000726267
0.000726364
0.00128005
0.00140208
0.00114702
0.000892277
0.0134313
0.00107062
0.000890311
0.00331217
0.00471415
0.00481684
0.000764963
0.000625386
0.00108193
0.000875266
0.00117734
0.000772337
0.015639
0.00126448
0.00598011
0.00257262
0.00580299
0.00145966
0.00149565
0.00260021
0.0025588
0.00102162
0.00102774
0.000582804
0.00117348
0.000795298
0.0200753
0.000879895
0.000834781
0.000754794
0.000903752
0.000832262
0.000776242
0.000868158
0.000748402
0.00302706
0.00101001
0.0130287
0.000730718
0.000744773
0.000645766
0.000709348
0.00170837
0.0103537
0.00169911
0.000918048
0.000660819
0.000768399
0.00278468
0.000781438
0.000704944
0.00087696
0.000752876
0.000843676
0.00100404
0.000614535
0.00723698
0.000565065
0.0125661
0.000841862
0.00131189
0.000672361
0.000427618
0.000697033
0.00332051
0.00115517
0.000738516
0.000749313
0.000729189
0.00103212
0.00160201
0.00117019
0.0017398
0.000814849
0.00160349
0.00131264
0.00443973
0.00602009
0.00352815
0.000828432
0.000177012
0.0074816
0.00131793
0.00602357
0.00668636
0.000476604
0.000854901
0.0011011
0.00307939
0.000243478
0.0146327
0.00602921
0.00111153
0.0107459
0.00533498
0.00127469
0.000501491
0.00735745
0.0197115
0.00956893
0.00128996
0.0014987
0.00166731
0.00286226
0.000835891
0.000618684
0.00053084
0.000783535
0.00277217
0.00181931
0.000378581
0.0069831
0.00118107
0.000512547
0.000564888
0.00402099
0.0143859
0.0011751
0.00258843
0.00577518
0.00892614
0.0154058
0.00235849
0.00219235
0.000794797
0.00536608
0.00206897
0.00737522
0.0055429
0.00231654
0.00398964
0.00556802
0.0108352
0.0045787
0.0160163
0.00328851
0.00155415
0.00120248
0.0175125
0.00190725
0.00397164
0.00486463
0.00352699
0.00294579
0.00734674
0.00761752
0.00687618
0.0152297
0.00171061
0.000383126
0.000806457
0.00740439
0.000833235
0.00405715
0.00174122
0.000830843
0.00426541
0.00350493
0.00707219
0.00061635
0.00988286
0.00190624
0.00278413
0.0031456
0.00115396
0.0011104
0.00089069
0.0130985
0.00112255
0.000997542
0.000982599
0.0166367
0.000857731
0.00145856
0.00788138
0.00811044
0.00236166
0.00184242
0.0122802
0.00140784
0.000785972
0.000140071
0.0070394
0.00374735
0.008232
0.00668662
0.000870216
0.00091923
0.00556181
0.00585173
0.000952526
0.00152012
0.00133094
0.00152199
0.00110339
0.00586927
0.00186141
0.00253157
0.00575367
0.00149944
0.00669447
0.00105451
0.00114774
0.00111385
0.00151885
0.00248105
0.000942278
0.00104747
0.00151024
0.0012512
0.000340898
0.00189998
0.000653952
0.000822381
0.00797777
0.00277368
0.00546106
0.0012887
0.00535835
0.00517579
0.006435
0.000936385
0.00233093
0.00178171
0.00110346
0.000246663
0.000185742
0.00021651
0.0174578
0.000826276
0.00264562
0.00199936
0.00390934
0.00378878
0.00160287
0.000275065
0.000283638
0.000298768
0.000440454
0.000361759
0.000373616
0.000213637
0.00035248
0.000327647
0.000571641
0.000347782
0.000435547
0.000311192
0.000233386
0.000253844
0.000439269
0.000465939
0.000259866
0.000283539
0.000243074
0.000399236
0.000204929
0.000245802
0.000165318
0.000800923
0.000309036
0.000403458
0.000171366
0.000356673
0.000308915
0.000433775
0.00043946
0.00033437
0.000164999
0.000224005
0.000408549
0.000253755
0.000262919
0.00038484
0.000506801
0.000252876
0.000268508
0.000424927
0.000424461
0.00205401
0.00174285
0.0116818
0.000953011
0.00727361
0.00295526
0.00553002
0.0136439
0.00143379
0.000828603
0.000842851
0.00169386
0.00255034
0.00563434
0.0182368
0.0171698
0.00569551
0.00237197
0.00111845
0.000956671
0.00121539
0.00143422
0.000222045
0.00506575
0.00177815
0.00465295
0.00205633
0.00668556
0.00482487
0.00323689
0.00519776
0.0120292
0.00657326
0.0184003
0.00243238
0.00234459
0.00335971
0.000759052
0.0156928
0.000973112
0.00151003
0.00826773
0.00234592
0.00414094
0.00425086
0.00165897
0.00140545
0.000841906
0.000848842
0.0166215
0.00213378
0.00041498
0.00026351
0.0079486
0.0150262
0.000228338
0.0036221
0.00704938
0.000417535
0.000300309
0.000214667
0.000267987
0.000471667
0.000293585
0.000514437
0.000341653
0.000316525
0.000415762
0.000513555
0.000435087
0.000250248
0.000431907
0.000242992
0.000271267
0.00042336
0.000244542
0.000235405
0.000217844
0.000202048
0.000293794
0.000261229
0.00350478
0.00270577
0.000431315
0.000882201
0.00849376
0.000848691
0.0104914
0.000743485
0.0029221
0.0139865
0.00350353
0.00286784
0.0150293
0.0063217
0.000216551
0.0150158
0.00206258
0.00116523
0.0208959
0.00506105
0.0139007
0.000541973
0.0141529
0.00171126
0.00105333
0.0137632
0.000897879
0.00361878
0.00190815
0.0010332
0.00112875
0.00600235
0.000750887
0.00932678
0.0169119
0.00188572
0.00762467
0.000604845
0.010787
0.00184746
0.00173542
0.000716532
0.00574514
0.00119566
0.00167915
0.00472013
0.00100718
0.00747562
0.000834636
0.00293748
0.000640846
0.00746021
0.00739668
0.0214344
0.000164023
0.000771846
0.00102053
0.00763264
0.00287928
0.000316041
0.000633024
0.00636933
0.00430402
0.0136601
0.000832667
0.00151393
0.00211748
0.00101461
0.00357911
0.000846249
0.007582
0.000626414
0.000167174
0.00021771
0.00990146
0.00667498
0.000790017
0.00440628
0.00507089
0.0026704
0.0139505
0.0179548
0.0116885
0.0142556
0.014207
0.00100381
0.00814971
0.000739743
0.00204901
0.00197498
0.00704426
0.000722873
0.000869269
0.00113747
0.0154656
0.000668058
0.00149367
0.00172615
0.00257664
0.00306356
0.00975469
0.0145352
0.00947485
0.00373641
0.000830424
0.0147786
0.000530371
0.00209089
0.00200332
0.00121151
0.0110987
0.0160386
0.0032594
0.0148159
0.00285332
0.00815525
0.00144195
0.00115265
0.00210442
0.00277308
0.00100682
0.00170476
0.00187363
0.0126935
0.00103491
0.00170922
0.00389806
0.00364639
0.00144037
0.00538873
0.00154361
0.0141564
0.00537756
0.00690661
0.00433471
0.00161205
0.00115132
0.00225806
0.00361485
0.00157493
0.00166737
0.00273758
0.0150014
0.0147186
0.0102665
0.0106243
0.0145717
0.0107524
0.0145606
0.000718679
0.0146067
0.0148005
0.0112192
0.0118345
0.0151231
0.0112251
0.0144524
0.0152753
0.0147359
0.0016814
0.00165014
0.00165205
0.0139941
0.00125905
0.00151985
0.00124941
0.00111992
0.000199096
0.00022874
0.00638387
0.0130431
0.00656366
0.00219787
0.00256032
0.00848951
0.0126942
0.00721405
0.00291703
0.00104901
0.00114425
0.00116266
0.00284609
0.00897458
0.0023332
0.00148141
0.00183526
0.00555288
0.00430249
0.00341075
0.00146777
0.00646648
0.00186476
0.000595396
0.00362488
0.000284901
0.00610314
0.00119013
0.00145934
0.00110467
0.00143657
0.00269503
0.00277897
0.00251361
0.00438132
0.00466491
0.00110148
0.00294862
0.0114962
0.00278104
0.00271822
0.00305464
0.00419569
0.00966669
0.00146858
0.00214858
0.00966656
0.00486466
0.00302753
0.00267128
0.0010845
0.00316338
0.0108042
0.00333887
0.00209837
0.00246113
0.00215101
0.00562917
0.00114066
0.0162446
0.00264918
0.0010545
0.00150631
0.00222943
0.00514144
0.0010422
0.00120019
0.00306133
0.00572624
0.00211352
0.0156095
0.00975019
0.00189349
0.010543
0.00189434
0.00183669
0.00276326
0.00121201
0.0029188
0.00116045
0.0150092
0.00312136
0.0020469
0.00145662
0.00794333
0.014325
0.00152783
0.00147678
0.00612359
0.00596015
0.00300482
0.00220265
0.00141048
0.00121762
0.00671003
0.00618162
0.00528865
0.0137607
0.0138299
0.00152053
0.00478688
0.000542025
0.00169977
0.00446527
0.00168535
0.00116793
0.0017133
0.00132625
0.00267305
0.00145625
0.00488455
0.000517744
0.00601851
0.00390441
0.00126268
0.00451035
0.00240316
0.00720557
0.00112876
0.00211958
0.00132789
0.00840195
0.00713778
0.00187905
0.00249608
0.0018785
0.00151835
0.00125608
0.00376147
0.0032051
0.00608355
0.00653999
0.00037405
0.000767406
0.000745581
0.00537688
0.000995437
0.00135081
0.00630519
0.00701593
0.00484201
0.00148297
0.00141351
0.00634056
0.00454667
0.00629491
0.0011804
0.00713804
0.00619815
0.00578589
0.000346866
0.00593745
0.00894294
0.0138412
0.00450548
0.00889247
0.00635842
0.00336162
0.00521202
0.00827274
0.000860896
0.0029382
0.00762807
0.00510709
0.00580706
0.0065433
0.00603807
0.0091634
0.00063115
0.00325665
0.00444457
0.00753962
0.00230675
0.00249312
0.00916627
0.0083215
0.00706593
0.00178476
0.00377176
0.00504366
0.000840161
0.00889551
0.00136876
0.00837605
0.00148192
0.00251611
0.00136192
0.000417079
0.0059358
0.00142117
0.00662368
0.0013842
0.00123977
0.0075467
0.00530987
0.00382569
0.00561542
0.00295509
0.00180015
0.00113674
0.00395929
0.000641996
0.00180142
0.00177994
0.00217995
0.000532448
0.00404397
0.000476995
0.0135888
0.00127801
0.0021175
0.00157366
0.00181279
0.0015573
0.00228895
0.00142499
0.00156631
0.00524279
0.00152598
0.00187322
0.00143853
0.00660422
0.00198548
0.00143879
0.00176093
0.00540442
0.00477282
0.00163405
0.00546263
0.00291409
0.0012503
0.00277727
0.000819745
0.0130265
0.000865982
0.00209962
0.00162951
0.0102508
0.000867072
0.00214873
0.00208807
0.00884225
0.00143662
0.00157446
0.00896558
0.00223569
0.00127471
0.00167289
0.00144484
0.000826995
0.00118123
0.00584719
0.00254758
0.00192451
0.0127432
0.0142328
0.000960459
0.000738695
0.00141572
0.00173803
0.00637642
0.00112761
0.00357656
0.00388451
0.00184474
0.00127496
0.00724675
0.00205465
0.00501286
0.00535644
0.00134596
0.00107646
0.00151438
0.00407514
0.00107787
0.0017941
0.00177955
0.0116892
0.00601558
0.00561765
0.0109709
0.00197402
0.00129739
0.00550065
0.009136
0.0016413
0.00862937
0.00210233
0.00119373
0.00178243
0.00514612
0.00651
0.00127392
0.00623792
0.00254753
0.00250229
0.00373197
0.00184398
0.00469198
0.000392136
0.00209566
0.00222764
0.0138994
0.000986454
0.00108503
0.00824667
0.000799608
0.000824429
0.011766
0.000420236
0.00209722
0.00102152
0.00155397
0.0017422
0.00820265
0.00394443
0.0069222
0.00599096
0.00282911
0.00316501
0.00113639
0.00771052
0.00514297
0.000281163
0.000288014
0.000547209
0.000797647
0.000781185
0.0107252
0.00221948
0.00101359
0.00157251
0.00355207
0.00469877
0.00159433
0.000278403
0.0112733
0.00991666
0.00197007
0.000626308
0.0029951
0.00249885
0.0064937
0.000446271
0.00256993
0.0120294
0.000998766
0.00154358
0.00189176
0.0091475
0.00546127
0.00122451
0.00195925
0.0108543
0.00394497
0.00230522
0.00160139
0.00174194
0.000621231
0.000837183
0.00497462
0.00532798
0.00569585
0.00608293
0.0124066
0.00543933
0.00196975
0.00174333
0.0016826
0.0139991
0.0125349
0.0137378
0.0124975
0.0105165
0.00626563
0.00370896
0.00424737
0.0028273
0.00147843
0.00940175
0.0116682
0.0113471
0.0023991
0.0128692
0.00630041
0.00639274
0.00561141
0.000615927
0.00615109
0.00214873
0.000969522
0.00163547
0.00300188
0.00311276
0.00250586
0.00576952
0.00771254
0.00123904
0.0139523
0.00673273
0.0086008
0.00510162
0.00198913
0.00122333
0.00100847
0.00112948
0.000702432
0.000805617
0.000743614
0.00948811
0.00218768
0.000792301
0.00142078
0.00338203
0.00515009
0.00511181
0.00233683
0.00617049
0.00330221
0.00232528
0.00754993
0.00428151
0.00135414
0.0019708
0.00167763
0.000275577
0.00256169
0.000596483
0.0014352
0.0143656
0.000991959
0.001463
0.00170181
0.00580212
0.0011942
0.00446356
0.00901926
0.00195789
0.00171256
0.00514034
0.00520495
0.0041924
0.0070686
0.00165578
0.0112674
0.0038352
0.00711911
0.0140644
0.0088707
0.00238627
0.0036123
0.00113667
0.00752696
0.00928091
0.00321639
0.00162417
0.000807457
0.000739588
0.00110028
0.00234107
0.0072626
0.000985611
0.000853897
0.00780847
0.00664024
0.00617414
0.00335565
0.0012985
0.00762376
0.0079047
0.00184985
0.00165123
0.00333052
0.00500895
0.0150276
0.00575101
0.0122729
0.00156511
0.00671663
0.00211159
0.00652598
0.0112026
0.0022776
0.00333343
0.00236766
0.00516222
0.00509013
0.00181087
0.000263477
0.000224761
0.00841414
0.00624522
0.00852624
0.0047149
0.0102175
0.0079589
0.00079566
0.00465831
0.00862212
0.00349808
0.00446213
0.00735326
0.00786198
0.00211129
0.000933847
0.001467
0.0120854
0.00156967
0.0109793
0.00212023
0.000700626
0.0108458
0.00161519
0.00171295
0.0094295
0.0146002
0.0130758
0.0148354
0.000389597
0.00107886
0.00477938
0.00817157
0.0136066
0.0136721
0.00256673
0.00857534
0.00247224
0.00127928
0.00355337
0.00258303
0.00989332
0.00584022
0.0145316
0.00362774
0.00139249
0.0079183
0.00398682
0.00475036
0.00186278
0.00350299
0.00817883
0.00127634
0.00227976
0.00613967
0.00757103
0.0116819
0.00185932
0.00251851
0.0122692
0.00103985
0.000757697
0.00181103
0.00899266
0.00933066
0.00530069
0.00337347
0.00111268
0.00113475
0.00652174
0.00161207
0.0077053
0.00850656
0.00384117
0.00616245
0.00248961
0.00364619
0.00914395
0.0131341
0.00650823
0.00169685
0.00252386
0.00182914
0.00117414
0.00405902
0.00116364
0.00247554
0.0144662
0.0132614
0.0145789
0.00915264
0.0125347
0.00196626
0.00551183
0.00149805
0.0106083
0.0198699
0.0134556
0.00889759
0.000740599
0.00195762
0.0090833
0.0111273
0.00751427
0.00594491
0.00245355
0.00535509
0.00202832
0.00281146
0.00120779
0.000312115
0.0133757
0.00129128
0.0077534
0.000870175
0.00786927
0.00572446
0.00239974
0.00650341
0.00814406
0.00115367
0.00764515
0.0130674
0.00280257
0.000495159
0.0111758
0.00642609
0.00571191
0.0023171
0.000750749
0.00081672
0.00365631
0.0156355
0.0116218
0.00313108
0.00695829
0.0111402
0.000923072
0.00460274
0.00542569
0.00429343
0.000715193
0.0029892
0.011629
0.00413151
0.00597294
0.00564188
0.0156018
0.00613262
0.00100285
0.00124853
0.000997275
0.00317789
0.000797649
0.00649159
0.00331597
0.0106033
0.00127102
0.00140945
0.000921524
0.0125291
0.00623611
0.0140795
0.00411047
0.000989674
0.00348025
0.00585261
0.00470637
0.000820659
0.0115586
0.00261212
0.00148074
0.00164812
0.0007898
0.0135761
0.000965281
0.015707
0.00895183
0.000899967
0.00904684
0.000794867
0.0147967
0.00990234
0.00133888
0.00209304
0.00267942
0.0155141
0.000848175
0.000779909
0.00076978
0.00357769
0.000749068
0.00130288
0.00936722
0.00533368
0.00767513
0.00424103
0.00661969
0.00101989
0.014298
0.00836181
0.00211636
0.000739408
0.0042789
0.00814051
0.000232235
0.000187415
0.00025419
0.0149821
0.00213084
0.0158803
0.00489089
0.00493696
0.00981094
0.0132498
0.00202773
0.00318163
0.00666517
0.00498299
0.00243082
0.00457946
0.00111518
0.0103326
0.00145315
0.00213203
0.000847117
0.00144163
0.0026576
0.00233463
0.00489691
0.00306875
0.00222885
0.0152382
0.00643275
0.00710984
0.00777901
0.00167276
0.00114965
0.00347101
0.00194443
0.013063
0.00576586
0.0132216
0.00858032
0.00188443
0.00095827
0.00133857
0.00351209
0.00128072
0.00817842
0.00203043
0.00114792
0.00259638
0.00959919
0.00360928
0.0145227
0.000844307
0.0100753
0.0032975
0.00303849
0.00169108
0.00594337
0.00579517
0.00267515
0.00143614
0.00505166
0.00615964
0.00163279
0.00212199
0.0149051
0.0110501
0.0061208
0.00667522
0.00606931
0.0190408
0.0141554
0.00169339
0.0023457
0.00361919
0.00189815
0.00386317
0.0132152
0.013421
0.00074441
0.00903155
0.00188384
0.00253677
0.00189632
0.0039438
0.00394084
0.00405091
0.000511456
0.00760376
0.00742361
0.00194074
0.00231163
0.00351901
0.00593602
0.00353614
0.00264734
0.000582746
0.00252525
0.0123523
0.00783807
0.00393356
0.00222251
0.00639184
0.000940476
0.00111034
0.00110329
0.00113967
0.00113885
0.00179585
0.00126454
0.00181366
0.0161497
0.00062793
0.00145577
0.00115938
0.00093236
0.00653611
0.00173387
0.000774961
0.00109001
0.00485318
0.0024262
0.00141361
0.00116267
0.000989067
0.00144448
0.000907258
0.00128319
0.00857857
0.00537252
0.000804276
0.0059684
0.00142497
0.00360666
0.0113725
0.00576225
0.00783678
0.000907468
0.00125821
0.000159933
0.000320243
0.00209749
0.0149544
0.00212131
0.0158962
0.00504424
0.00181408
0.00725322
0.00178149
0.000805128
0.00304004
0.00489502
0.00622065
0.008027
0.00197038
0.000884675
0.00125519
0.000732966
0.00124787
0.0128026
0.00185207
0.00275591
0.00721618
0.000490832
0.0066201
0.00297084
0.00108669
0.00235098
0.010455
0.012905
0.0138276
0.0111364
0.00110634
0.000885027
0.00503211
0.012653
0.00702946
0.0084624
0.00386182
0.0074742
0.00118406
0.000806276
0.000805976
0.00851271
0.0066854
0.00186359
0.0018946
0.000821574
0.00180453
0.00717541
0.00173858
0.0029438
0.00750227
0.0139538
0.0139813
0.0011483
0.0145156
0.00121753
0.0138868
0.0050921
0.00587454
0.00186783
0.00460891
0.0014904
0.00711222
0.0136937
0.0122285
0.00123778
0.00109686
0.000900809
0.00114743
0.000681216
0.00118212
0.00216671
0.00363794
0.00762886
0.00641756
0.00237955
0.000803991
0.0139303
0.000766125
0.00112702
0.00646391
0.0149665
0.00650018
0.00243011
0.00842256
0.00581152
0.000820278
0.000841074
0.00471172
0.00247066
0.0122357
0.000920977
0.00826467
0.00662586
0.00128265
0.00650731
0.000976992
0.00126726
0.000711825
0.000547546
0.000290896
0.000959856
0.000923438
0.00102418
0.000827462
0.000204968
0.000168688
0.000248725
0.0158726
0.0156971
0.000848072
0.00884374
0.00331225
0.00699975
0.00820757
0.00631441
0.00481192
0.0136071
0.0106178
0.00423013
0.00430292
0.00408275
0.00963863
0.0026089
0.000999824
0.000949321
0.00151415
0.00122731
0.00100422
0.00082185
0.0102188