/*--------------------------------*- C++ -*----------------------------------*\
| =========                 |                                                 |
| \\      /  F ield         | OpenFOAM: The Open Source CFD Toolbox           |
|  \\    /   O peration     | Version:  v1912                                 |
|   \\  /    A nd           | Website:  www.openfoam.com                      |
|    \\/     M anipulation  |                                                 |
\*---------------------------------------------------------------------------*/
FoamFile
{
    version     2.0;
    format      ascii;
    class       volVectorField;
    location    "0.77";
    object      U;
}
// * * * * * * * * * * * * * * * * * * * * * * * * * * * * * * * * * * * * * //

dimensions      [0 1 -1 0 0 0 0];


internalField   nonuniform List<vector> 
5794
(
(0.0980276 -0.366566 -3.32595e-17)
(-0.1799 0.42741 0)
(-0.152866 -1.21058 -1.31931e-16)
(0.147543 2.84814 1.0876e-16)
(1.96257 1.79341 2.6015e-17)
(0.223551 -1.54726 -1.14274e-16)
(1.46342 -0.223692 -2.13996e-16)
(-0.0527154 -0.178912 0)
(5.90045 0.870364 9.76693e-17)
(0.492476 -0.138666 2.33733e-16)
(4.72422 -0.111603 -3.3941e-19)
(-2.11958 -0.229125 0)
(-2.30655 -0.275663 5.07614e-16)
(0.656333 6.37602 1.85066e-16)
(0.418146 0.109885 5.23288e-16)
(-0.867246 0.00805258 -1.52668e-16)
(1.44076 0.0289568 4.68899e-17)
(-0.0736507 6.70658 1.24532e-16)
(0.265995 0.0847063 4.97052e-16)
(-0.0243847 0.842418 1.61345e-16)
(-2.95064 1.81186 -4.61167e-17)
(-0.00285538 -0.824486 -1.59622e-16)
(2.78052 -0.128988 2.60137e-16)
(0.846746 -0.131552 -6.29781e-16)
(1.79173 0.16953 -4.09213e-16)
(2.89117 10.56 2.11606e-17)
(6.0549 -0.508303 0)
(-0.213573 2.07631 -1.4157e-16)
(0.00368435 9.41098 -3.67316e-17)
(0.260683 -0.122081 3.09432e-16)
(-0.304225 -0.902017 -6.32905e-16)
(-1.7672 0.0306874 -5.13469e-16)
(-2.1375 0.115632 -8.89056e-16)
(-0.47364 -0.342106 4.43778e-16)
(-1.05322 0.16277 -2.05842e-16)
(-0.629061 0.102025 2.18904e-16)
(9.78288 0.592298 -2.15156e-16)
(2.26551 -0.437731 0)
(2.88119 -0.412053 1.34482e-16)
(0.0251315 3.29689 0)
(-0.12125 2.83939 -1.00212e-16)
(-0.591744 1.46827 1.45576e-16)
(7.42308 0.112204 -8.89572e-19)
(0.375858 2.85473 0)
(0.495573 0.112485 -4.58534e-16)
(4.9136 -0.168611 1.31685e-16)
(3.85276 -0.155324 -2.44788e-16)
(-2.04721 -0.391753 0)
(0.239815 -0.00870452 8.7396e-16)
(0.750935 -0.203058 6.76966e-17)
(-0.195515 -0.0383868 -1.72208e-16)
(6.11188 -0.209585 -1.75704e-16)
(-0.474253 0.0715072 0)
(0.457692 0.203804 1.73442e-16)
(-0.0594893 -0.054225 1.06846e-17)
(5.16599 -0.503774 0)
(4.01534 -0.320048 -1.95832e-16)
(-2.16753 0.0787861 1.39907e-16)
(8.42351 0.0651525 0)
(4.34385 9.90856 -7.16516e-19)
(9.15826 0.473821 1.88522e-18)
(0.410342 1.16185 -1.20905e-16)
(-0.0204762 -1.46377 -1.4465e-16)
(-0.873879 -0.0336324 2.10686e-16)
(-1.221 0.141372 0)
(1.10749 0.13013 -2.58509e-18)
(0.221889 0.699459 -2.41151e-16)
(-0.165076 3.72159 0)
(0.127983 4.65551 -1.48015e-16)
(0.0282989 0.522182 -3.06385e-21)
(4.72675 -0.475703 1.36222e-16)
(0.361943 2.19929 -3.02875e-16)
(11.5154 2.03137 -3.43116e-18)
(1.74459 0.230345 0)
(0.00327879 5.97004 1.29298e-16)
(-0.0336146 1.01813 4.39472e-20)
(0.578119 -0.203797 1.32748e-16)
(1.58785 10.367 -2.19199e-17)
(0.544237 2.92174 3.59593e-17)
(-0.47897 0.0891972 7.36192e-17)
(0.0918256 -0.945219 -1.8919e-17)
(-0.0570736 0.312741 -1.81152e-16)
(-0.125944 1.7502 -5.98764e-20)
(1.91255 -1.48108 -9.04123e-17)
(1.41805 -1.32827 -3.70128e-16)
(-0.13597 5.11462 -4.17138e-17)
(0.224064 5.70411 3.20629e-17)
(0.0374433 5.26607 -2.48181e-17)
(0.852117 0.0573164 -1.66285e-16)
(1.93025 0.927489 -4.71384e-17)
(0.910464 5.59954 -7.9197e-17)
(0.0624862 6.42749 -8.75509e-17)
(-0.0940837 7.55223 1.30516e-16)
(0.118924 7.6628 5.69662e-17)
(-0.0429805 6.34784 3.38694e-17)
(-2.15847 0.0511441 5.23223e-18)
(0.0130761 6.2055 -5.5243e-17)
(-0.132911 7.28387 -1.41371e-17)
(-0.011086 6.39187 0)
(8.88297 0.523673 -3.05125e-17)
(1.6897 3.19294 -1.2348e-16)
(-1.11933 0.177124 -4.20234e-16)
(8.31533 0.143674 7.24409e-17)
(0.576699 5.56458 -2.44005e-16)
(0.591434 0.196683 0)
(-0.502068 5.89971 0)
(0.120076 1.12924 0)
(-0.279787 0.0675171 -2.77152e-16)
(-1.3884 0.574742 -1.20368e-16)
(0.732896 2.88066 -9.84466e-17)
(0.184204 -0.119628 8.03734e-20)
(0.145866 -0.0480552 0)
(-1.53168 4.66494 1.15331e-16)
(-0.0424516 0.00240426 1.61223e-16)
(-0.00349276 6.17848 0)
(-0.108038 7.80763 0)
(0.16845 0.0580736 -3.79899e-16)
(-0.474028 8.34822 -9.55384e-20)
(9.40455 0.425095 -2.38039e-20)
(10.8512 0.59221 6.02008e-18)
(-0.622891 7.92448 1.06124e-16)
(1.02069 -0.00563885 0)
(-1.58241 -0.0224163 0)
(-0.121546 1.4711 -1.87222e-16)
(0.462932 0.0335756 2.41137e-16)
(4.78228 2.37815 5.01381e-17)
(0.859267 5.17636 0)
(-0.223155 -1.46039 7.35563e-17)
(6.32771 -0.582409 1.15994e-16)
(-0.449331 -0.047381 1.6692e-16)
(-0.337622 -0.950474 3.34499e-16)
(-0.216844 -0.943697 2.18304e-16)
(0.319985 1.17924 2.28612e-17)
(1.11556 10.0135 -6.65837e-17)
(-0.537162 6.71134 1.3375e-16)
(0.508801 0.105339 0)
(4.3519 -0.200912 9.17762e-17)
(0.529089 1.12267 -1.78497e-16)
(-1.06036 -0.137578 1.59597e-16)
(0.0544133 -0.289927 0)
(1.89585 -0.593708 -4.5678e-16)
(0.610623 2.57729 0)
(0.43715 -0.00400805 0)
(0.460654 2.95938 2.52452e-16)
(-1.05039 -0.0689808 1.62759e-16)
(2.10381 -0.105691 1.5401e-17)
(-0.876893 0.865599 2.32113e-16)
(7.78059 0.283123 2.32268e-16)
(1.49598 1.10067 -1.91532e-18)
(0.153209 1.2098 4.06585e-16)
(7.27 -0.177814 -1.72778e-16)
(0.772224 0.19326 3.07976e-16)
(-0.49564 6.08502 0)
(-1.21583 0.399782 1.89566e-16)
(4.18124 -0.689899 0)
(4.29054 0.121236 0)
(1.84869 -0.636858 -2.58931e-16)
(0.765668 -0.258871 4.1763e-16)
(5.29732 0.182601 -2.61091e-16)
(1.32687 -0.578213 -1.35817e-16)
(0.105293 -0.00597301 4.34937e-16)
(-1.11895 -0.196866 -3.7511e-16)
(-0.332988 -0.0640666 0)
(-1.07878 -0.0680633 -1.49261e-16)
(-2.95559 0.0226966 -2.97201e-16)
(-3.10183 -0.083473 1.6177e-16)
(-0.64775 -0.188672 1.37588e-18)
(-0.00123876 -0.277554 -4.358e-18)
(0.0752121 -0.0674526 0)
(0.0339827 -0.012209 1.05927e-18)
(0.239121 0.0988673 0)
(-1.84162 0.410615 -1.13676e-16)
(-0.880892 0.134406 0)
(-1.08736 0.296 1.02463e-16)
(-0.838269 -0.108128 4.29963e-16)
(2.50622 -0.0635381 0)
(-0.0246492 0.0709416 -2.65488e-16)
(1.72073 -0.00408911 -2.39053e-16)
(0.317463 -0.170966 -9.36387e-17)
(6.29971 0.12178 6.67852e-18)
(0.709284 -0.182272 -5.72511e-18)
(-1.16952 -0.311764 0)
(1.63029 -0.0817394 0)
(-1.89189 -0.327657 1.23853e-16)
(1.0289 -0.26973 0)
(-0.000255554 -0.801258 6.84978e-17)
(-1.30668 0.143623 -1.48789e-16)
(-1.2318 0.29904 -1.00018e-16)
(0.255117 -0.0397587 1.43717e-16)
(-1.0404 0.0873483 3.43081e-16)
(4.62689 -0.0705922 -3.40633e-16)
(-1.85417 -0.108643 3.79629e-16)
(-2.28166 -0.0857981 5.92411e-16)
(0.246977 -0.420575 6.18501e-16)
(-0.695304 -0.442368 -9.99892e-17)
(-0.878034 -0.53319 -5.06139e-16)
(0.600868 -0.319572 -2.31399e-17)
(-0.227195 -0.0652629 -1.93473e-16)
(0.242316 0.0203237 -3.19285e-16)
(6.44383 -0.0461709 1.20827e-16)
(2.00141 -0.17936 -2.03541e-17)
(5.99586 0.0187013 0)
(-1.12462 -0.482502 0)
(-0.111148 -0.268594 1.12447e-17)
(3.82422 -0.000510999 -5.82094e-17)
(4.84737 0.0240606 0)
(-0.315625 -0.215131 1.21056e-17)
(0.351265 -0.00822416 2.10201e-19)
(4.80435 1.06065 -5.85228e-18)
(1.98351 8.66178 1.23148e-16)
(0.592642 0.925768 1.15784e-16)
(9.76452 -0.0105529 0)
(-0.669329 -0.175183 -1.19073e-16)
(-0.749445 -0.685777 1.7876e-16)
(0.311999 -0.485705 0)
(0.864917 0.299345 7.77063e-16)
(0.820297 0.0636851 -1.82956e-16)
(1.21754 1.56147 9.43046e-17)
(4.11679 -0.201599 1.32365e-16)
(1.38933 5.65113 -1.71729e-16)
(9.68253 -0.00596188 0)
(1.92591 0.444425 2.1721e-16)
(-0.353455 1.99196 0)
(-0.12382 5.3783 2.65091e-17)
(5.20686 0.122387 1.30316e-16)
(11.3708 0.710968 2.08966e-18)
(-0.689174 -0.277536 -7.37122e-17)
(0.809902 -0.231527 -1.17912e-16)
(0.0919628 -0.141543 0)
(0.428135 0.0708734 -3.27144e-16)
(-0.826726 0.273891 0)
(-1.10096 0.498395 -6.76879e-17)
(-0.902884 0.0142988 -1.06631e-16)
(-1.05036 0.727093 1.50598e-16)
(1.77935 0.341986 1.67222e-16)
(9.82285 0.16753 5.62533e-18)
(7.70002 0.917263 1.9022e-18)
(7.33319 0.521375 2.84645e-17)
(-2.13269 -0.00996438 -1.55189e-16)
(0.674545 -0.767915 -3.9984e-16)
(-0.387391 0.0730561 0)
(1.19148 0.855452 1.16745e-15)
(1.44638 4.57825 2.16574e-16)
(-0.7489 0.706816 -2.65083e-16)
(-1.50433 1.05468 2.61777e-16)
(0.216031 -0.135159 3.1034e-16)
(0.554579 0.097434 -1.58236e-16)
(1.29162 0.734822 8.97945e-18)
(-0.118749 5.97964 0)
(-0.0405455 5.83775 0)
(-0.0110019 4.90337 0)
(0.914641 0.103649 2.78113e-17)
(2.91755 -0.626768 -7.10668e-17)
(-0.361652 0.00663159 2.90996e-20)
(7.31647 1.18415 -5.70347e-17)
(4.60683 2.30006 -9.35524e-18)
(8.2287 0.2155 -1.48916e-16)
(9.02698 0.520183 1.57318e-16)
(0.0803223 -0.315888 2.92279e-16)
(0.368366 0.0354242 0)
(6.02668 -0.0537921 -1.10992e-16)
(-0.58412 -0.254624 1.02562e-16)
(-0.377545 -0.797268 -1.04041e-16)
(1.04251 -0.0394798 0)
(-1.67734 -0.11301 0)
(-1.55107 -0.214565 -6.06048e-19)
(0.146239 1.82993 1.44588e-16)
(3.81549 0.790475 0)
(0.187009 0.0055457 -7.72487e-16)
(4.42513 0.0172399 -1.22621e-16)
(3.56811 -0.027746 0)
(-0.221812 -0.887096 -2.9001e-16)
(0.547182 1.20611 -5.11672e-16)
(4.96812 -0.329543 -1.64854e-16)
(9.52766 0.0897299 3.60156e-17)
(0.226695 0.0454329 3.38932e-16)
(0.486383 0.149521 -1.84199e-16)
(2.05527 -0.26582 -7.99946e-17)
(0.551841 0.280829 -1.93093e-16)
(-1.51134 0.964011 -2.49864e-16)
(-0.298207 -0.118329 3.95564e-16)
(0.93102 3.3499 2.54337e-16)
(-0.142536 3.5029 9.82591e-17)
(-0.504891 1.06846 -4.32991e-16)
(0.252457 4.60419 4.84394e-17)
(-0.133525 5.34622 1.11481e-16)
(0.0445346 5.85151 1.28373e-17)
(-0.0264885 5.84177 0)
(0.630496 5.90986 4.06161e-17)
(-0.604971 7.95123 0)
(-0.468883 0.245751 -1.83196e-17)
(-0.8185 0.546958 -1.38544e-16)
(-0.533981 -0.254488 2.44694e-18)
(0.756062 0.0968974 0)
(8.09434 1.6997 0)
(1.273 7.42633 7.01196e-18)
(-0.0438352 3.12786 6.24202e-17)
(-0.58581 0.684513 -2.34116e-19)
(0.221516 4.26767 -2.10827e-16)
(0.873672 -0.0624591 -1.72422e-16)
(0.0235136 0.089371 1.36757e-16)
(-0.500463 6.24898 0)
(0.0183237 -0.860845 -7.59527e-16)
(0.693781 1.93647 0)
(0.94408 1.09316 -1.55528e-16)
(3.61165 0.269497 1.62656e-18)
(0.565873 0.233255 -2.71278e-16)
(0.22987 3.06393 2.85401e-16)
(5.0735 0.106955 2.42021e-16)
(4.08256 0.0549179 0)
(0.211709 -0.416417 -6.68481e-16)
(-0.169534 0.490932 -3.0336e-16)
(1.37214 7.50218 -1.3735e-16)
(-0.0206991 -0.0441163 -9.05322e-17)
(10.597 0.118939 0)
(10.03 0.298327 -1.79838e-17)
(-0.0535105 0.0591807 -9.8972e-17)
(-0.286809 2.85827 -2.63843e-16)
(-2.0585 0.379289 -2.15501e-16)
(0.122577 7.14402 -4.07728e-17)
(-0.278523 -0.192939 4.57649e-16)
(0.757905 -0.495423 -2.13993e-16)
(-0.369709 7.2979 -7.92548e-17)
(1.86834 1.34785 -8.41616e-19)
(-0.899424 0.0117697 0)
(1.51862 -0.579975 0)
(1.85765 0.229261 0)
(-1.69469 -0.354072 6.61838e-17)
(-1.60413 -0.289392 -3.37265e-16)
(4.49643 -0.131552 2.9856e-16)
(6.3666 -0.0210444 -6.92569e-18)
(6.61263 -0.125072 3.02155e-16)
(-0.867945 -0.44214 9.17387e-17)
(-1.8376 0.255647 4.90829e-16)
(-1.6791 0.151039 0)
(0.383196 -0.0937236 -2.56434e-16)
(0.850904 -0.0844625 0)
(-0.110607 -0.080575 0)
(0.1986 -0.00487466 -3.50224e-16)
(-0.608585 0.0194752 0)
(0.637668 -0.21846 4.38941e-16)
(1.79512 0.0324319 4.09653e-16)
(6.43951 0.403579 0)
(2.73863 -0.154857 0)
(-0.0325509 -0.0503844 4.50593e-16)
(1.59235 -0.00917531 3.57602e-16)
(-1.08598 -0.527559 3.22494e-16)
(-0.26785 -0.349168 -2.43167e-17)
(-3.04555 -0.1312 -1.20792e-16)
(2.534 0.017115 7.00328e-17)
(3.30301 0.105976 6.17694e-17)
(0.493378 0.104093 2.40978e-16)
(-2.36663 -0.16503 -2.23796e-17)
(-1.74282 -0.20905 1.53719e-16)
(1.11096 -0.282838 0)
(-0.958164 -0.566319 0)
(0.314338 0.0104717 1.89998e-16)
(5.4558 -0.41397 1.67693e-16)
(1.57693 -0.114857 7.40753e-17)
(0.045592 -0.159213 0)
(0.213866 0.0161171 -2.74264e-16)
(1.38053 -0.425601 4.68101e-16)
(4.77152 -0.0832079 3.62596e-17)
(1.43233 -0.532056 -3.70958e-17)
(0.210099 -0.477191 -3.12347e-16)
(0.361005 0.191544 5.18679e-16)
(-3.21223 -0.00225705 -3.73784e-17)
(4.34137 -0.339711 0)
(3.37719 -0.260022 3.33496e-16)
(-2.21913 0.0384183 -8.49103e-17)
(0.418036 0.212056 -1.38235e-16)
(1.0716 0.0299756 0)
(0.538556 0.268642 -1.16838e-16)
(-0.315142 0.467471 3.07437e-16)
(0.534103 0.0613784 8.92454e-17)
(-2.77718 0.1666 1.38073e-16)
(3.88981 -0.0135329 0)
(3.10776 0.155141 8.74454e-17)
(-2.07456 0.566314 0)
(0.295212 0.107564 1.52432e-17)
(0.555896 -0.727884 1.43127e-16)
(0.438814 0.169784 0)
(10.7822 0.0862578 0)
(-0.872862 0.0100024 1.59372e-16)
(-1.29053 -0.113583 -6.00595e-16)
(-0.474532 -0.298986 -3.53534e-16)
(-0.293707 9.16961 -2.85089e-17)
(0.0861914 -0.566039 3.14697e-16)
(0.184265 -0.673836 -1.08759e-15)
(-0.25366 -0.208964 0)
(0.478941 -0.0937186 -8.05419e-16)
(-1.18315 1.01356 -7.26753e-19)
(0.0711723 0.669434 -2.55954e-18)
(-0.143498 -0.199874 1.79046e-16)
(-0.634391 0.192342 9.28182e-17)
(-0.582732 0.285684 -9.89449e-17)
(-0.989442 -0.000987956 1.08646e-16)
(-0.00806127 0.733685 0)
(0.451694 0.0492949 0)
(2.34707 -0.0795041 -2.7875e-16)
(0.769126 -0.310881 1.3952e-16)
(1.63729 0.075023 -4.14766e-16)
(9.19735 -0.234663 3.1501e-17)
(0.263951 -0.0699611 2.0791e-16)
(0.162623 -0.0606379 0)
(6.4725 0.96916 4.58816e-17)
(-0.124806 1.33474 2.79201e-20)
(0.37919 -1.16654 2.10104e-16)
(0.143051 1.13437 -3.63128e-17)
(-0.24935 5.81415 -6.0502e-17)
(-0.122664 7.08364 2.25425e-17)
(0.144045 6.4421 0)
(0.880652 0.478558 1.73635e-16)
(-0.965948 0.316952 2.75225e-16)
(5.13008 -0.0297683 1.99641e-17)
(4.08333 -0.0541422 7.19426e-17)
(-0.123926 -0.346192 0)
(0.264896 3.28211 1.79862e-16)
(-2.41043 0.182004 0)
(-0.154856 6.33328 3.81687e-17)
(-0.0275655 6.41458 -6.79911e-17)
(-0.167013 7.32042 2.96578e-17)
(0.0140996 -0.0352416 -1.60085e-17)
(0.395243 0.24457 -4.19169e-17)
(-1.0482 -0.00779433 0)
(-1.37091 -0.0625402 0)
(-0.603074 -0.124262 -2.00915e-16)
(-0.0643275 0.0576401 -2.10217e-16)
(0.00268863 0.747806 -1.43066e-17)
(0.0302194 -0.846754 5.4943e-17)
(3.78619 0.718838 3.11079e-16)
(10.0088 0.160987 1.27956e-17)
(0.235011 2.29744 -2.85149e-16)
(0.931215 -3.03986 -2.1169e-17)
(0.468436 0.088074 3.38044e-16)
(-0.0588181 0.032382 0)
(0.0975879 -0.373075 1.73726e-16)
(0.427981 -0.458361 -1.01685e-17)
(-1.10703 -0.0343308 -1.02536e-16)
(-1.40945 -0.19629 1.99143e-16)
(-0.443586 -0.180528 2.52214e-16)
(9.95703 0.0969585 -2.49729e-16)
(0.340473 -0.470993 0)
(0.046679 -0.300185 8.21083e-17)
(2.14819 0.0680748 -2.03759e-18)
(-0.0417699 7.81175 -5.57323e-17)
(0.00349847 6.20768 9.18899e-21)
(-0.964837 -0.167187 0)
(0.0170294 0.27431 2.53686e-16)
(1.22097 0.344705 -8.26859e-17)
(1.00048 -0.0889541 -2.20768e-16)
(-0.0131033 0.732538 -7.16827e-17)
(-2.78803 1.39569 4.66492e-17)
(-0.0403891 -0.89583 -5.3308e-16)
(-0.128972 6.62132 -2.63716e-17)
(1.04779 -0.0422144 -5.06569e-16)
(0.358741 5.28825 -2.19617e-18)
(-1.63962 -0.451277 -2.13199e-16)
(-0.110734 6.36036 -3.28335e-17)
(0.993108 6.59969 8.57103e-17)
(-0.0195943 -0.795748 -1.13235e-16)
(-0.100981 0.523628 -2.5024e-16)
(-0.408205 0.475243 1.86791e-16)
(0.151185 -0.199029 -4.05969e-16)
(8.53486 0.567727 9.16963e-17)
(-0.450567 -0.0510997 -2.86562e-16)
(10.2037 0.345783 -2.10305e-18)
(2.83943 3.25672 5.74205e-17)
(0.561554 0.0649969 -4.42329e-16)
(1.08352 2.48439 -4.76282e-17)
(0.927142 -0.0149098 3.70663e-17)
(6.32242 1.09059 -4.7413e-18)
(1.56344 0.714612 -6.85618e-17)
(0.49903 -0.183619 3.01461e-17)
(0.411383 -0.0324318 -2.16982e-16)
(-1.01579 -1.05538 1.12868e-15)
(8.43549 2.16197 -2.64079e-18)
(-0.28198 2.62543 1.54567e-16)
(1.37366 0.141138 1.87269e-16)
(-0.0935868 0.39013 5.97351e-17)
(-0.958464 0.526867 2.79592e-16)
(-0.0765302 -0.817025 0)
(0.907408 -0.147333 -1.99691e-16)
(0.338518 -0.265118 1.35363e-17)
(0.0473983 0.0342871 1.84474e-16)
(3.4019 -0.13172 -5.22816e-20)
(9.82681 0.0301127 0)
(1.75262 0.191713 2.05896e-18)
(0.861544 -0.0177356 -4.9369e-17)
(0.0271638 -1.0548 2.60247e-20)
(-0.0100721 0.455745 2.20011e-16)
(-0.124231 4.22299 -1.42391e-16)
(-0.301809 5.83065 4.31167e-16)
(1.6582 0.910047 8.0038e-18)
(-0.149222 1.20407 -1.1244e-20)
(0.0672532 -0.193426 2.64042e-16)
(0.326402 0.0390717 0)
(0.293524 0.113729 0)
(-0.861712 -0.022768 -3.37129e-17)
(6.92027 0.832862 -1.3925e-19)
(3.38261 2.01209 2.12521e-17)
(8.63851 1.25686 -5.68969e-18)
(10.3868 0.523767 3.24668e-18)
(0.595386 -0.0610468 0)
(0.187524 2.83472 0)
(-0.162972 0.409384 2.51025e-16)
(0.0494137 -0.774447 2.25184e-16)
(8.96889 0.488136 -4.42761e-16)
(1.60455 0.703108 0)
(1.04151 0.0268619 0)
(-2.09155 0.142375 2.03575e-16)
(0.586082 0.167494 1.67188e-18)
(0.478616 -0.508426 -1.47845e-16)
(0.971805 -0.144386 1.89067e-16)
(0.0700384 -0.136113 -1.02076e-16)
(0.0126735 6.21119 -3.10746e-17)
(-0.222601 7.66435 -1.35725e-17)
(0.928059 -0.218087 -2.46837e-16)
(9.92617 0.162339 -6.61563e-17)
(9.22614 0.0622527 3.48271e-18)
(0.378537 -0.949088 1.49408e-16)
(0.0396819 0.871334 -3.93118e-17)
(2.37759 2.17709 -1.01165e-17)
(-0.595809 8.6521 -1.28373e-16)
(-0.18135 0.00366527 1.07525e-15)
(-0.619779 -0.295057 7.09412e-18)
(0.724445 0.27368 0)
(5.51863 3.77049 6.49732e-17)
(-0.0361284 0.930022 1.16703e-16)
(0.00282264 -0.768937 2.61703e-20)
(-0.767209 2.08866 1.8281e-16)
(-0.591159 -0.0606792 0)
(10.3931 0.170945 0)
(0.0816852 0.0439914 -7.23976e-17)
(0.394053 0.146172 0)
(-0.36693 0.325928 8.70698e-17)
(10.0369 0.063323 -1.0432e-16)
(4.88203 -0.0287447 7.49152e-17)
(-0.434986 -0.0108186 1.2615e-16)
(7.05448 0.030153 9.4507e-17)
(-0.0202886 -0.833009 8.54184e-17)
(-0.791148 -2.53095 1.84861e-16)
(0.0186494 0.819897 2.20999e-16)
(0.75513 6.23497 -1.07271e-16)
(1.09915 0.0425625 -7.50305e-17)
(-0.864821 0.0108588 0)
(9.73071 0.812301 0)
(0.534797 2.96382 -2.43467e-16)
(-0.355759 -0.0123998 -2.11396e-16)
(-0.524082 -1.21575 6.31142e-16)
(0.689873 5.10289 -2.58681e-17)
(0.46076 0.154409 0)
(0.0776216 0.07657 -5.05481e-16)
(1.54154 1.71726 -1.40165e-16)
(-0.820336 -0.795099 1.50202e-16)
(0.321229 -0.0665942 0)
(-0.292331 2.27405 0)
(-0.00600983 -0.765314 0)
(-0.0039186 1.00679 -1.80513e-16)
(0.826071 1.95743 6.98908e-18)
(10.0611 2.78285 -2.37317e-18)
(0.10508 0.00099066 0)
(5.38796 1.30398 0)
(0.725625 0.240609 -9.75371e-17)
(0.961092 6.34527 7.57109e-17)
(1.3133 0.153305 0)
(-0.856098 -0.0463734 4.03535e-16)
(0.29488 -0.142795 -1.65388e-20)
(-0.0064389 -0.218318 -1.73818e-16)
(0.987771 0.0194079 0)
(8.09235 0.588215 -6.29313e-17)
(-1.59112 0.675908 -1.51507e-16)
(0.593358 3.04844 7.16195e-17)
(0.0180713 4.23585 0)
(0.934478 3.5562 -1.05074e-17)
(9.95161 0.255305 -1.99352e-17)
(2.93735 2.62039 -3.79146e-18)
(0.188653 5.09943 -1.32186e-16)
(-0.563154 0.883254 -2.7132e-16)
(-0.0994458 3.68907 -4.35947e-16)
(-0.207509 6.91537 6.31501e-19)
(0.0701804 6.38798 4.85892e-17)
(2.57374 2.64522 0)
(10.5737 -0.20111 2.0762e-17)
(-2.72363 -0.207458 1.35136e-16)
(8.93888 0.813239 -1.16725e-16)
(-0.0983185 0.101633 1.91319e-16)
(-0.12628 6.68019 0)
(-0.0415727 6.48461 -5.43839e-17)
(-0.211874 4.93412 1.84892e-16)
(1.00853 0.0204689 -7.43729e-18)
(-0.560756 -0.693686 5.51065e-17)
(0.782857 0.807257 6.30811e-18)
(-0.167212 6.69464 -2.75307e-17)
(0.0048052 6.3178 -3.05112e-17)
(2.03867 8.86434 5.54591e-17)
(0.198633 0.0383895 2.12608e-17)
(10.1338 0.166243 0)
(0.511109 -0.224638 4.96641e-16)
(0.154391 0.224105 -1.14349e-16)
(0.692234 -0.154742 -3.47714e-16)
(7.56956 0.579411 1.65968e-17)
(-0.00907245 6.40875 -4.69446e-17)
(-0.104506 6.87583 1.8539e-16)
(0.99101 -0.0791132 -1.22032e-19)
(-0.395123 0.0752081 -1.20589e-16)
(1.05544 6.49562 0)
(0.616352 -0.0900413 0)
(-0.0520307 -0.132892 -2.14661e-17)
(-0.790957 2.41538 0)
(3.36353 4.03574 -5.38199e-17)
(4.67342 2.95455 0)
(1.10532 5.43939 -1.5662e-16)
(-0.101465 0.775782 6.87656e-17)
(0.992617 -0.0366674 3.70753e-16)
(1.41897 -0.0265396 4.29778e-17)
(7.23899 0.676928 -1.48595e-17)
(3.85264 -0.00615225 -2.33625e-16)
(7.72883 0.141283 -2.87065e-16)
(1.86 0.149777 0)
(0.193155 1.15638 -8.15924e-17)
(5.12895 2.95135 1.60004e-16)
(3.63933 1.66452 -7.3169e-17)
(0.0794473 0.0376425 -3.71856e-16)
(0.259714 1.21374 5.74243e-16)
(-0.678645 -0.446678 3.4717e-17)
(-0.321985 0.418562 -4.4528e-16)
(1.37612 1.88814 -2.02764e-19)
(0.923633 1.18099 -2.43287e-16)
(-0.403273 0.0741548 1.98108e-16)
(0.271619 -0.739676 9.8193e-17)
(-0.174746 0.486974 0)
(0.0555604 0.446679 -7.92615e-17)
(0.484016 -0.91075 -7.70425e-17)
(0.0884009 0.776278 3.1585e-16)
(0.802378 -0.194883 -1.18616e-16)
(1.42597 8.55314 -3.65713e-17)
(10.6569 0.423554 -7.2373e-17)
(0.0785277 -0.01143 1.17484e-16)
(-0.256714 2.60234 -4.7181e-17)
(0.50835 -0.0540403 -1.45016e-16)
(8.6832 0.167393 3.53233e-16)
(3.95576 -0.13794 -2.41416e-17)
(-0.00139172 6.48675 3.58931e-18)
(4.32235 -0.14952 2.45203e-16)
(-0.0701297 4.87468 -1.73147e-16)
(-0.013353 5.73762 8.76473e-17)
(7.27367 0.282174 0)
(0.018094 0.247236 -1.26367e-16)
(0.0422223 0.0559495 3.05226e-17)
(-1.35027 -0.700744 0)
(1.36719 0.874284 -1.65336e-16)
(0.0761296 0.0857729 6.92732e-17)
(1.14041 0.367542 2.68983e-16)
(0.963206 0.0993004 2.86393e-16)
(3.87962 0.186626 -4.11652e-17)
(8.90451 0.495136 -1.08881e-18)
(0.845588 1.26729 -1.71089e-16)
(-1.15056 0.144543 2.91729e-16)
(-0.33125 1.21634 -2.6741e-16)
(0.649773 -0.0532677 1.22774e-16)
(0.896276 -0.108867 0)
(-0.149766 -0.898954 -1.11524e-17)
(-1.91653 0.906229 -2.8706e-16)
(-0.0654684 0.32882 -1.59985e-20)
(-0.0409117 5.9012 2.77052e-17)
(0.217331 5.61683 -2.72251e-18)
(-0.151407 5.25789 -1.09851e-16)
(0.176237 5.82275 3.19038e-17)
(2.01484 4.6288 -1.40634e-16)
(7.17973 0.348639 7.03346e-17)
(0.0414927 0.77339 0)
(10.4049 0.961835 0)
(-1.64087 0.0590008 3.64314e-16)
(-1.24142 0.0199479 5.38257e-16)
(-0.0108639 6.40171 1.43706e-16)
(-0.0434453 6.9978 -1.24747e-16)
(0.669951 -0.00775744 1.32078e-16)
(1.22851 5.60615 -4.05228e-17)
(0.916534 -0.224443 4.95748e-17)
(-0.639068 -0.179896 2.43535e-17)
(0.386202 -0.0526724 1.53344e-19)
(0.372456 0.262474 -6.78471e-17)
(-0.84181 -0.031796 -1.01252e-17)
(0.752359 2.26275 -5.25527e-17)
(3.54618 -0.0717981 -4.01135e-16)
(0.549888 4.08295 6.55434e-18)
(0.163009 0.06697 1.73516e-16)
(0.570318 0.301158 0)
(0.852795 -0.338337 0)
(0.171317 2.97274 0)
(0.808132 6.21477 2.24488e-16)
(1.19635 8.36133 2.4518e-16)
(-0.186832 6.82917 2.26485e-16)
(0.857155 0.0072129 3.78526e-17)
(5.90104 3.29586 -3.83906e-17)
(0.340737 0.11213 0)
(-0.148502 -0.0446259 1.05585e-16)
(-0.355142 -0.730984 3.31749e-17)
(10.5433 0.056119 -7.53205e-18)
(0.179892 -0.00620231 -1.14665e-16)
(-1.50788 0.157996 3.24773e-18)
(-0.630418 -0.035442 -1.66317e-16)
(8.99592 0.375487 -2.02638e-17)
(0.881036 1.68884 0)
(3.50466 1.21257 -3.49406e-16)
(3.30677 0.849951 2.15799e-16)
(0.524971 -0.301694 0)
(0.0447248 0.167148 7.91169e-17)
(1.29062 2.33138 -2.57977e-16)
(8.69026 0.161894 0)
(1.76609 5.94456 -4.53764e-16)
(-0.187394 6.12815 -1.27751e-16)
(0.344562 3.10509 0)
(1.18901 0.560669 0)
(11.3962 0.281791 4.37678e-17)
(10.3719 0.349535 3.37888e-17)
(8.95982 1.18567 1.82398e-18)
(5.38749 2.1794 -6.83902e-21)
(0.455362 2.48905 0)
(1.3599 0.631383 2.05115e-16)
(2.34319 7.08344 -2.97843e-17)
(4.66516 -0.0565365 0)
(0.164513 -0.0141837 -4.88824e-16)
(3.96447 2.12929 2.05727e-17)
(0.187413 0.913368 -1.25957e-16)
(9.37843 0.913946 -5.2027e-17)
(10.8809 0.0433691 7.84503e-17)
(1.65122 1.87545 -1.8369e-16)
(9.94577 0.415583 -1.55888e-17)
(-0.0640023 6.49379 1.59743e-16)
(0.806967 8.69446 4.22248e-17)
(0.609649 6.93781 -1.00612e-16)
(6.7811 3.62725 0)
(0.813142 0.0465891 1.49584e-16)
(-0.225183 -1.06223 -1.76753e-16)
(2.24316 0.0897616 2.73089e-17)
(-0.0290726 0.0765099 1.37265e-16)
(0.0537033 6.43038 4.13559e-21)
(-0.0732167 7.4364 2.34881e-19)
(0.545026 6.00905 7.39696e-17)
(0.241852 0.311103 0)
(0.255935 -0.368603 0)
(0.143672 -0.0335464 1.13092e-16)
(0.548649 0.362378 1.67818e-16)
(-0.092366 5.42577 -1.04355e-16)
(-0.0307612 5.78071 -3.57295e-18)
(-0.237553 2.42782 0)
(-0.170653 0.63697 -4.56749e-17)
(10.1008 0.109236 8.62314e-17)
(-0.874742 -0.549057 0)
(1.82895 1.39245 -3.47138e-16)
(0.23586 0.224114 7.72072e-17)
(1.02172 -0.0811584 2.44107e-16)
(-0.0137795 6.41385 6.48065e-17)
(-0.16087 7.30761 1.36004e-16)
(9.6257 0.917441 0)
(0.266888 7.43643 -3.52691e-17)
(-0.0481278 6.40576 -3.25908e-17)
(9.51288 1.13477 -9.61276e-17)
(1.93924 0.265444 -2.78465e-20)
(7.38917 1.66633 6.32386e-18)
(-0.188796 6.65129 2.1056e-19)
(-0.0379404 6.00005 0)
(0.0120508 5.6211 2.85491e-18)
(-0.172284 5.09835 -9.58535e-17)
(0.287237 5.699 -3.93187e-17)
(3.58596 4.1598 1.42076e-16)
(0.401175 1.8583 3.68311e-17)
(-0.151221 6.99181 2.04605e-16)
(0.0294559 6.53558 0)
(-0.277581 5.45658 -1.40048e-16)
(1.08198 1.29265 2.97163e-17)
(0.0569201 0.147555 -1.58186e-16)
(0.623723 0.220296 8.44591e-17)
(0.117738 0.176512 4.6729e-18)
(-0.558203 -0.153936 1.36562e-16)
(0.476656 -0.0902789 0)
(1.28322 3.45066 1.1491e-17)
(-0.0071038 -1.3737 -2.28757e-17)
(0.577879 0.00750126 -1.24625e-16)
(8.86858 0.799602 -7.27625e-19)
(-0.167442 0.974697 -4.40734e-17)
(0.0375623 -0.808524 -2.47396e-16)
(-0.0597652 0.836862 -2.01549e-16)
(-0.171714 6.46873 -2.05929e-16)
(0.116638 6.31571 0)
(0.585937 0.164744 2.48033e-16)
(-0.182443 6.55726 8.84604e-17)
(0.0934287 6.25987 2.40946e-17)
(-0.628046 -0.0999992 -7.49167e-17)
(3.50607 3.63457 -1.49942e-16)
(-0.872042 -1.37238 4.85947e-16)
(-0.643579 -0.971277 5.9574e-16)
(0.807486 0.74281 -2.61291e-16)
(0.154505 5.96829 2.44338e-16)
(-0.0109528 0.7069 -4.02192e-16)
(-0.982661 -0.31554 -1.88929e-16)
(-0.00214086 -0.957832 -1.22605e-16)
(1.22014 8.9015 0)
(9.88336 0.102077 0)
(0.0459321 0.0774882 -3.00799e-16)
(-0.0921038 -0.969019 1.65798e-16)
(0.183637 0.145321 -8.09888e-17)
(-0.798245 -0.48105 0)
(0.767936 0.188658 1.16245e-16)
(0.544952 -0.028443 -3.39733e-20)
(0.684895 0.394817 -6.20928e-16)
(4.16609 0.0906987 2.21535e-16)
(1.05169 5.06935 1.12693e-16)
(-0.26118 6.58972 -2.82501e-16)
(1.96623 -0.445052 3.6739e-16)
(0.92894 0.772657 -1.60929e-16)
(9.78441 0.901614 -1.34542e-17)
(0.497697 3.24886 2.01822e-16)
(0.148295 -0.212597 1.99988e-16)
(0.731921 0.139243 0)
(-0.931459 0.78065 5.42772e-17)
(2.07397 1.38018 -7.39159e-16)
(0.0689567 1.07134 -2.45361e-17)
(0.102867 -0.895407 2.92458e-16)
(0.0662867 2.40165 2.66266e-17)
(8.63562 0.55557 -1.14382e-16)
(9.94455 0.304047 -2.12601e-19)
(-0.378823 0.0296756 1.93343e-16)
(11.0733 0.0487671 0)
(0.680397 0.291238 -5.01145e-18)
(0.50232 -0.305146 2.92065e-18)
(0.91002 -0.115104 -1.89427e-17)
(-0.00672354 6.46519 4.1706e-17)
(-0.123687 6.61918 3.87117e-17)
(0.0161587 5.08214 1.75672e-17)
(10.5272 0.0370791 1.42849e-17)
(0.0747287 0.0314951 1.85526e-20)
(-0.58095 7.82106 -4.54171e-17)
(0.52239 -0.389763 3.93449e-21)
(0.00964681 1.14802 0)
(9.16255 1.66505 -4.33484e-18)
(0.696538 -0.528479 0)
(-0.321539 0.013025 1.01347e-16)
(0.52419 0.15895 9.70754e-17)
(0.191191 1.06583 4.74486e-18)
(0.635227 0.270032 2.44064e-16)
(-1.09193 -0.00977819 2.83977e-16)
(9.38586 0.606239 -1.77216e-17)
(-0.224301 -0.119018 2.71571e-16)
(1.68387 -0.591727 2.9453e-16)
(9.53797 1.06938 9.84231e-17)
(9.75587 0.297333 4.10262e-17)
(6.11915 2.66676 2.53425e-17)
(0.0229685 6.34659 -4.71588e-17)
(-0.0440691 6.66071 2.37215e-17)
(0.0200406 2.77658 1.22405e-16)
(0.218337 1.88214 0)
(4.21265 0.733125 4.66725e-17)
(5.72108 3.1129 8.51512e-17)
(9.28112 -0.1367 -1.98473e-17)
(0.499773 0.700479 1.13954e-16)
(0.142762 -0.188977 2.64014e-16)
(0.109149 0.110024 0)
(8.90218 1.69182 0)
(0.801547 2.15997 0)
(1.40336 2.14273 2.7859e-16)
(0.333621 0.0371216 1.01144e-16)
(2.401 4.42436 2.05226e-16)
(-0.188155 5.46915 2.78515e-17)
(1.46409 7.21806 -5.79965e-17)
(0.162275 0.199667 0)
(0.114739 0.202333 9.9316e-17)
(-0.211445 6.03833 -1.24758e-16)
(-1.11943 -0.095169 -6.36932e-16)
(11.2609 0.114584 9.57453e-17)
(5.80899 1.19776 0)
(0.348365 -1.35103 1.75639e-16)
(1.04524 5.4662 0)
(0.6409 0.32513 1.62844e-16)
(0.29888 0.0898929 -2.4977e-17)
(0.965545 9.61779 6.25509e-17)
(9.92139 1.07764 -1.34182e-17)
(9.88259 0.678918 1.01891e-16)
(-1.09913 0.170036 0)
(0.744051 2.20531 -5.63205e-17)
(-0.405357 -0.0328977 0)
(8.62658 0.337271 0)
(1.08304 0.236702 -1.32812e-16)
(0.166817 0.0623284 2.48162e-17)
(-2.79062 4.375 -1.319e-16)
(2.92914 0.81198 -1.22534e-16)
(0.835229 2.57009 1.40148e-16)
(10.2856 0.104584 -2.44104e-20)
(5.98147 3.58044 -7.72972e-17)
(0.929996 -1.29728 -3.41512e-19)
(-0.0325735 6.23328 5.73526e-17)
(-0.040972 6.26797 -5.17968e-17)
(0.617625 2.21663 -1.16704e-16)
(1.18966 6.07719 -2.44934e-16)
(1.60772 1.47484 -1.27465e-17)
(0.0739543 -1.03218 -3.45681e-16)
(-0.0432564 0.566106 -2.21286e-16)
(0.979401 0.818794 6.45643e-17)
(0.808267 0.0027053 2.13422e-16)
(0.638409 -0.0660421 -3.06274e-16)
(0.170815 1.0637 -5.29422e-16)
(0.475246 -1.10778 -3.82729e-16)
(6.96989 4.23194 3.37466e-18)
(0.372031 1.1403 5.57578e-16)
(10.0812 0.0417395 -6.30543e-17)
(0.778694 -0.0118274 0)
(-0.277857 2.32466 3.43131e-20)
(3.9754 -0.748009 -1.01031e-16)
(-0.562869 2.57272 0)
(10.0958 0.412543 3.95986e-17)
(-0.47355 0.0425955 3.07482e-16)
(0.392302 0.00155515 -2.76042e-16)
(9.05535 1.76981 0)
(-0.0101911 6.24251 2.67427e-20)
(-0.279414 7.78836 0)
(10.0382 0.0833995 0)
(0.86047 0.0170057 -5.22005e-17)
(9.49423 1.265 -5.29164e-17)
(9.00875 3.99034 -1.80616e-16)
(1.19132 6.53477 2.38887e-17)
(7.37242 2.10644 -1.05452e-16)
(-0.0575721 3.93433 -7.14813e-17)
(0.00144803 4.08925 1.05738e-20)
(-0.0374329 4.53091 -7.17067e-17)
(-0.784595 -0.796076 0)
(-0.097424 2.41395 1.10932e-16)
(-0.0154016 -0.554363 0)
(0.292037 0.395073 0)
(0.093043 0.187953 0)
(-0.0416192 0.093969 -2.13681e-16)
(0.314869 -0.333469 0)
(0.101472 0.567589 1.34533e-16)
(2.84962 2.58829 -2.78638e-16)
(0.147925 3.4191 0)
(-0.546388 5.41736 1.53278e-16)
(-0.197606 6.43803 -2.42132e-17)
(0.00847863 6.29404 8.84669e-17)
(-0.154856 7.25955 -3.78469e-17)
(0.578282 1.80671 2.26685e-16)
(9.38233 1.01612 -2.71493e-17)
(0.106684 1.11144 2.11314e-17)
(0.258893 -1.03333 -7.96967e-17)
(0.948168 0.640203 0)
(0.860554 -0.0127857 -1.0688e-20)
(5.12431 1.74103 0)
(0.574691 -0.0657623 2.25426e-21)
(3.84001 0.130948 -4.522e-16)
(10.0569 0.0508942 3.46661e-17)
(-0.547523 7.9047 1.13138e-16)
(-2.46664 2.49643 -2.95144e-16)
(-0.0221754 0.571019 0)
(-0.030675 -0.994924 9.30468e-16)
(5.31441 2.50363 -3.0537e-17)