/*--------------------------------*- C++ -*----------------------------------*\
| =========                 |                                                 |
| \\      /  F ield         | OpenFOAM: The Open Source CFD Toolbox           |
|  \\    /   O peration     | Version:  v1912                                 |
|   \\  /    A nd           | Website:  www.openfoam.com                      |
|    \\/     M anipulation  |                                                 |
\*---------------------------------------------------------------------------*/
FoamFile
{
    version     2.0;
    format      ascii;
    class       volScalarField;
    location    "0.84";
    object      p;
}
// * * * * * * * * * * * * * * * * * * * * * * * * * * * * * * * * * * * * * //

dimensions      [0 2 -2 0 0 0 0];


internalField   nonuniform List<scalar> 
1431
(
91.9279
92.3211
89.8106
93.024
87.5189
89.022
92.6419
39.1212
90.2444
92.6709
44.9006
45.0073
90.9016
84.0551
88.0825
92.6735
85.625
89.0263
87.4005
88.199
39.9199
83.9065
90.3593
19.6635
89.9471
90.8987
51.005
89.1818
90.3075
83.5989
86.5973
89.7998
86.8421
84.6735
90.8477
92.883
89.4472
91.0686
92.5791
89.3764
89.6614
89.6151
90.8981
92.623
86.5521
89.8183
85.1666
55.1562
92.6211
91.2148
92.5885
92.6338
92.4817
52.621
92.9369
92.7589
88.2766
48.0473
84.3934
90.1959
89.2924
92.6008
91.3697
91.1714
92.5974
92.6183
88.5817
91.3289
89.383
86.031
46.8993
84.4163
92.8938
84.7832
84.3791
90.1525
89.5666
91.2912
92.7119
89.9597
85.1017
89.8305
85.5138
85.6096
39.5814
93.1636
93.1784
87.0609
52.1518
69.1989
88.987
87.707
90.9951
92.6925
93.0817
86.7665
44.6628
85.5344
92.6138
88.5806
92.7242
92.6116
84.4842
90.3141
91.236
86.5227
89.9587
55.3385
88.575
83.9556
90.5319
90.8326
89.4718
89.2361
92.598
88.841
84.1736
92.9674
93.1672
91.2823
87.184
87.5125
54.5517
85.0443
43.472
92.7646
89.7933
86.2482
89.8462
93.1508
86.251
88.6804
93.1648
87.1404
89.3215
91.3179
91.0733
92.6066
49.5322
91.0238
92.5834
85.6405
84.6603
90.3373
92.1441
86.7201
91.3653
92.691
92.7111
89.8209
91.3384
90.0129
89.2721
93.2686
89.2563
90.9723
48.216
90.0887
78.0488
93.19
62.5911
90.7505
92.9951
93.171
53.8985
90.1469
88.778
92.8585
91.1893
89.6583
61.9282
92.504
88.4756
50.0203
91.6061
47.8211
93.15
87.763
92.642
91.2865
92.6523
92.6027
93.1314
22.913
88.5763
89.324
50.8041
90.1977
88.4501
50.7688
86.7347
88.5541
89.3121
57.6554
93.0822
86.9702
84.2742
90.2378
89.1731
89.3742
93.0359
93.0382
65.9248
93.1537
90.987
86.7924
89.6528
89.5081
49.4153
88.5941
37.8921
92.9727
89.8148
86.7415
41.4184
89.3947
89.2179
89.4461
92.7316
69.9347
89.5883
93.2472
89.8749
93.1111
89.3132
44.7882
66.8754
87.893
89.3965
68.0921
36.1519
86.7301
86.829
89.3036
89.7313
70.8677
89.7545
87.4845
86.981
93.2916
93.1962
92.0512
47.7075
87.619
88.6062
86.3044
87.7973
60.6239
89.9869
91.08
85.881
50.7811
93.1685
92.9075
86.7792
90.1474
93.1328
39.9824
77.9064
89.1642
89.4595
50.7022
92.9454
93.1636
89.5672
73.8953
90.7289
58.6445
59.9288
87.8423
89.1481
89.5502
92.8312
93.4202
57.8243
88.4048
53.8004
82.8073
86.8757
89.7829
92.212
90.0295
86.5704
92.5668
93.1824
83.758
89.9155
82.2204
46.1211
92.02
89.2561
90.4699
86.6392
92.0219
71.3413
89.2759
50.0637
89.8681
89.0855
86.3472
92.4979
91.0321
93.0953
90.985
87.9082
93.0905
91.6032
88.9366
89.8712
91.0665
83.3927
92.7929
92.5864
57.2187
90.2694
85.1339
90.7695
93.1119
88.5385
31.4332
91.2956
86.7767
89.6366
92.1962
91.0191
89.7171
89.0524
89.8374
56.4414
92.9431
85.6302
89.1361
90.1475
84.259
93.1937
90.8967
90.4427
75.554
90.3734
55.5662
91.1123
90.7512
78.145
89.3249
89.7251
87.322
92.8122
51.9689
83.8235
91.5828
89.6969
89.0691
92.3469
89.839
89.4107
92.6445
41.8115
36.8014
49.9951
89.7628
83.7445
89.4326
85.4781
93.21
88.8835
40.4516
89.9883
10.8613
89.8555
84.0195
56.2388
87.28
55.8322
92.5492
90.1971
49.2724
89.8457
93.5414
89.413
45.328
90.5534
89.6044
92.8745
89.9001
11.5836
90.496
92.0706
89.6356
90.3286
92.4954
93.2167
91.8855
91.8577
93.0482
72.7499
92.571
90.8703
91.181
89.7604
89.9927
87.732
90.2915
80.751
90.1973
92.7391
91.2533
89.1023
93.0521
93.1859
91.2452
87.4143
91.3046
91.3646
90.3782
90.0195
89.2939
90.4226
92.7494
89.6331
91.5248
89.7267
90.7586
92.6656
90.0508
91.6629
87.3895
87.7282
88.0392
89.5255
29.4033
89.6446
89.6363
89.7152
89.4234
89.4883
89.8653
89.6359
90.2739
90.1772
90.2656
88.8366
47.8399
89.0836
88.724
88.6425
88.3337
88.2908
88.4943
85.3508
84.0776
84.4177
91.2819
92.6122
87.9161
92.599
92.626
83.9215
52.1799
87.0653
88.4168
83.8036
91.2958
52.3164
92.6241
88.0249
91.2897
89.3394
52.0637
91.2787
49.2636
92.6413
92.6509
88.6744
84.1433
48.8993
48.7309
91.1589
91.0827
88.1025
92.6793
84.3976
88.2352
48.31
92.7837
88.3709
84.5943
87.5477
88.3246
89.6397
90.8681
47.0269
92.7304
89.7086
90.8482
85.5776
87.2335
89.6356
45.4303
92.6842
87.9188
89.8608
90.9056
87.2683
90.1181
45.6799
49.5746
89.3752
92.7293
92.652
86.5355
90.8721
87.5171
87.5559
89.5722
89.9302
92.8754
89.6173
90.8324
86.9285
48.0238
85.5117
92.6721
87.0806
93.0067
90.8378
93.0844
44.6313
89.2121
88.9119
93.2175
92.7226
92.7943
91.1018
88.5799
90.475
89.4708
93.1306
91.1845
90.8456
87.4781
91.0637
90.5434
89.6498
92.7922
88.083
93.3322
92.8904
80.8192
90.9649
90.0477
91.8408
90.3217
90.0674
91.6735
91.3116
87.5079
93.1322
90.0997
86.5187
53.5222
90.0834
47.6493
82.3018
91.7129
37.6161
91.8692
92.8589
93.1441
89.9422
90.5957
91.8172
69.9105
90.246
92.7915
92.256
89.1037
92.9971
88.4934
89.8531
89.5105
91.624
76.6003
86.4001
89.2511
88.3713
89.8418
87.4017
92.7686
92.087
86.5814
89.8601
87.7194
92.5474
92.5056
90.0808
90.7587
85.9861
91.9037
88.3582
49.994
70.8203
90.9558
91.384
92.57
84.0214
89.8281
20.677
84.7838
93.4338
88.8859
93.0393
91.566
92.2547
90.1088
89.1352
89.4922
45.1636
93.1956
89.4455
91.3368
92.0003
92.2323
92.3696
91.7875
91.4146
85.9495
90.5854
85.9484
81.1517
93.4533
91.3439
92.8519
92.6111
90.3117
92.0303
88.0271
41.6717
93.2349
88.8832
92.8723
89.4701
80.903
93.2614
91.1349
88.3879
91.3065
86.8054
90.9343
35.5355
91.2249
89.7125
89.355
88.3777
86.3301
89.3175
90.9464
90.2083
81.5555
89.4042
56.198
67.4378
90.6476
90.8668
91.8479
90.346
89.5284
88.5834
89.3999
92.6991
89.6816
91.8987
92.4186
39.2194
90.5075
89.5033
85.8515
34.0024
83.9818
87.4503
93.229
93.1443
92.5977
91.2446
43.0715
91.3303
88.8508
90.0705
88.9211
89.1707
93.7079
89.7911
88.7278
89.8523
93.6322
93.3622
89.8342
89.8008
86.0075
93.2517
77.9854
92.6854
90.0727
91.4663
93.5001
90.2454
27.1788
88.5881
91.5347
92.6001
90.8032
89.1452
92.6637
85.6153
89.9873
89.6896
90.6549
90.1714
88.9402
93.4221
89.3811
89.6381
86.6916
49.816
91.4978
91.109
92.9937
89.0352
90.7532
56.8609
55.0343
91.139
88.9102
89.4871
93.2923
90.356
89.1659
90.4769
87.3907
44.991
93.1759
88.8768
89.2475
93.3075
87.5703
89.8448
91.589
83.8635
90.0094
89.1216
92.619
90.9387
93.2874
93.1758
92.6281
9.68577
88.7768
90.6209
88.642
89.3796
92.433
33.0948
89.8423
90.6924
92.6047
86.5622
90.0506
92.664
92.6457
91.3618
93.4738
90.6221
86.6968
88.3883
90.8133
90.0871
92.6738
93.1459
92.3244
90.6352
87.7211
90.777
91.0397
91.7241
91.2882
93.641
50.7578
88.9685
92.2769
88.4191
92.4524
89.4569
88.087
89.5214
90.419
88.6685
93.1793
93.1952
86.9117
93.0878
90.9474
89.2823
83.8682
86.5623
89.5709
89.9077
17.0595
89.0928
90.3456
92.12
88.6329
52.0215
93.1402
92.993
44.8053
90.2025
52.056
89.7232
88.2771
90.0416
89.3554
88.9251
86.2182
92.3042
90.6047
93.3403
88.6171
90.316
85.4194
88.5407
92.6449
90.0054
84.2828
44.2244
88.9498
92.0553
53.3871
85.9845
89.5153
91.4142
92.8375
91.3007
90.8688
90.9628
88.9905
92.0593
66.3084
90.9555
54.2643
92.6378
75.097
89.7775
85.0394
91.1036
93.299
88.7887
91.3769
93.173
92.9315
89.7298
91.1873
93.1026
91.3578
91.6439
92.7298
90.5336
91.1029
90.3277
92.7528
51.936
91.157
90.2864
51.5951
90.425
88.4395
84.0802
89.9101
92.607
91.802
90.7522
89.1583
47.6299
93.225
89.7404
37.4668
57.2238
49.9051
36.7111
61.978
89.6164
89.2669
88.9315
89.0359
56.0964
90.0082
87.1718
88.8254
88.0275
86.6996
66.9794
49.1249
86.5317
75.2834
71.161
86.8518
90.0581
89.7299
87.245
89.3593
89.1856
87.2222
89.1784
90.1928
75.1575
91.2476
89.3906
91.2885
84.2769
84.8925
40.5004
89.7252
82.0645
83.7252
87.2655
92.8381
53.0838
86.0511
87.2274
75.1741
88.6652
90.3221
84.8227
93.1716
51.29
87.4367
89.3329
90.7931
92.073
93.4599
92.6244
49.3096
89.0069
84.1176
90.5366
90.2451
91.9949
91.3923
57.3534
91.1952
92.6101
89.4936
92.995
91.8827
90.5022
84.6997
89.4412
92.4857
90.8632
84.2924
88.0133
91.1887
92.5763
47.1589
91.0048
92.257
88.8843
89.3511
84.226
93.2419
89.1125
86.5657
93.1645
92.3864
86.4898
42.2496
88.8418
84.743
88.4816
89.5014
92.6122
27.5608
91.2044
89.4126
92.5613
41.4088
91.0467
80.0372
92.6398
92.7771
93.2086
86.2464
89.726
91.8161
86.7747
58.6396
36.2866
89.3727
90.8974
92.9471
87.4317
85.1346
89.6749
86.0691
86.547
89.9227
88.5274
89.5099
39.2915
90.1636
93.2384
91.3128
86.0982
89.8865
86.3157
88.8742
91.537
92.1049
92.2085
89.2059
91.7449
92.0247
27.3676
18.8135
92.6195
89.5761
81.8538
93.1841
90.9444
50.9077
85.1764
89.8082
86.9127
68.6723
49.2866
93.3385
84.7256
89.3809
91.6804
80.5624
50.1393
90.0427
91.6347
93.1665
49.9163
93.1331
89.7884
92.9671
7.97069
90.0592
42.6696
57.6036
90.2002
89.4758
91.2525
93.1785
90.9283
93.1174
93.2286
93.0768
92.0377
90.1467
90.0728
89.5207
90.0478
62.8811
91.2796
89.3562
90.2904
53.7912
91.1478
52.9912
89.9652
90.7565
54.5735
88.7491
68.0419
64.3198
60.6734
51.5754
51.609
50.8548
57.1049
51.713
92.9503
93.0812
93.062
92.9714
92.964
92.9707
91.3273
85.2617
89.927
88.1358
90.1044
85.3666
92.9672
89.5477
91.2728
92.6095
92.3602
92.6774
89.3578
93.3229
93.1533
87.1115
86.3211
91.5661
89.5839
90.0205
90.7444
78.0469
93.5008
91.5048
45.8771
89.746
88.5748
87.3795
91.6962
90.8703
92.6853
34.288
90.9595
90.5141
92.9519
86.2225
93.1427
86.2232
83.8918
88.8272
92.9168
84.8983
87.5919
89.8052
90.5194
89.8697
90.9617
85.5509
92.7291
17.4016
91.2648
43.5117
8.29152
93.1901
48.9547
84.5788
89.2485
88.4408
43.9486
93.1446
91.3478
91.0916
72.9454
90.2073
85.7606
89.3993
85.8473
92.7272
90.2283
92.7267
91.9858
59.3835
40.7051
17.8024
86.716
87.9956
92.7417
89.8578
93.3202
88.356
88.9216
84.7462
89.7127
49.4738
91.1769
92.6053
42.2381
92.0863
83.9172
90.4344
92.5059
90.228
80.9002
64.6461
90.9485
91.1976
87.3998
90.3428
46.8584
89.8941
47.7636
92.6087
87.5407
86.1542
39.2238
82.0914
90.5315
90.1704
90.3678
92.8996
53.8891
86.7283
88.2332
85.0856
85.1376
87.9149
90.4005
92.9475
86.6151
88.8577
53.4818
84.3385
90.9452
90.9079
84.7312
92.9565
88.403
93.1454
88.1892
86.3589
90.4101
46.6794
91.4342
91.121
92.3
87.9933
92.8914
85.733
88.116
90.7153
76.37
91.6148
28.9171
89.0794
93.2527
90.9756
62.233
90.6478
92.5953
92.757
90.8503
90.7828
91.5318
89.8047
91.074
94.4647
85.1665
92.6555
84.4761
93.0378
90.7948
55.3401
90.5157
57.6411
90.116
91.1575
91.2075
92.1446
84.6589
86.9729
89.6107
84.1324
92.9933
91.4532
38.6012
91.2931
91.5996
91.3175
88.3471
85.9217
91.1526
88.6667
72.1186
90.2404
89.622
50.0628
84.895
92.0789
91.1399
91.9086
88.9899
89.0111
89.051
79.0642
86.8847
86.3674
84.8694
86.747
89.7787
51.8062
92.1524
88.2883
84.3114
90.989
57.2572
86.3129
90.4243
87.4595
54.7882
90.9724
88.8748
91.2487
38.1607
90.3173
90.5064
91.2627
87.9216
43.2103
93.3087
53.0872
93.3675
93.2731
93.161
54.1623
93.1055
37.189
73.6472
90.8498
89.7228
86.7541
49.3512
89.5896
17.2566
93.1965
89.0217
93.2487
89.7894
86.4603
64.9625
93.1671
92.4721
43.9572
57.33
89.0669
86.6461
93.155
51.0174
93.3005
85.0936
87.9498
55.2813
92.6011
93.1321
90.9374
90.1768
84.9436
89.295
85.8435
92.9027
93.3516
58.5592
54.5978
93.3165
89.861
86.1659
91.1699
88.6439
89.365
83.9303
90.3266
92.8996
87.5697
87.2185
89.6926
64.9643
89.5294
93.0481
89.5732
74.8932
92.9263
93.2719
90.5554
84.8591
93.0992
86.2318
87.7497
89.6572
93.0872
93.0125
61.2648
51.1158
86.3253
92.7145
93.0398
89.3184
91.1714
90.062
91.3405
91.2895
88.2083
88.284
87.27
92.9346
58.2586
89.5979
79.0738
91.0029
85.4884
48.473
91.7615
92.9243
84.6143
88.2613
88.1155
39.0369
90.913
91.0135
89.6546
91.7376
92.4675
92.601
93.1848
92.8632
93.399
21.3334
56.5923
85.1825
100.346
84.7648
86.0544
86.0359
92.4125
95.6219
88.4381
88.7205
93.3319
96.5249
89.2153
91.3354
85.7313
88.096
89.0151
87.6696
)
;

boundaryField
{
    frontAndBack
    {
        type            empty;
    }
    wallOuter
    {
        type            zeroGradient;
    }
    inlet
    {
        type            zeroGradient;
    }
    outlet
    {
        type            fixedValue;
        value           uniform 0;
    }
    wallInner
    {
        type            zeroGradient;
    }
    procBoundary3to1
    {
        type            processor;
        value           nonuniform List<scalar> 
48
(
89.8557
89.7416
89.7852
89.5279
89.1606
87.6535
89.7416
89.5498
89.5588
87.4933
87.4933
88.8626
88.8626
88.4785
87.9925
89.3798
88.0494
89.0708
88.0494
87.211
89.5472
89.6246
87.211
88.3559
87.0222
87.8202
89.5863
89.6246
89.5211
88.2354
88.2354
89.4883
89.4883
89.5588
87.4903
89.1653
89.5125
87.0222
89.8973
89.3501
88.4785
89.5663
89.5667
87.211
87.8527
89.8513
88.8847
89.1266
)
;
    }
    procBoundary3to2
    {
        type            processor;
        value           nonuniform List<scalar> 
29
(
91.2262
91.2262
92.5737
92.6123
88.7558
91.2969
92.8407
91.0391
92.5971
92.5996
91.1724
88.421
91.2421
92.8402
92.8821
92.8545
92.5914
92.5976
91.0834
92.8601
92.8703
92.5914
92.9258
92.5976
92.8916
92.5757
92.5976
88.0062
88.0062
)
;
    }
}


// ************************************************************************* //
