/*--------------------------------*- C++ -*----------------------------------*\
| =========                 |                                                 |
| \\      /  F ield         | OpenFOAM: The Open Source CFD Toolbox           |
|  \\    /   O peration     | Version:  v1912                                 |
|   \\  /    A nd           | Website:  www.openfoam.com                      |
|    \\/     M anipulation  |                                                 |
\*---------------------------------------------------------------------------*/
FoamFile
{
    version     2.0;
    format      ascii;
    class       volVectorField;
    location    "0.84";
    object      U;
}
// * * * * * * * * * * * * * * * * * * * * * * * * * * * * * * * * * * * * * //

dimensions      [0 1 -1 0 0 0 0];


internalField   nonuniform List<vector> 
1431
(
(0.324893 3.1942 1.04033e-16)
(1.89289 1.7961 2.4493e-17)
(0.289915 -0.133552 0)
(0.119981 -0.0295343 2.49575e-16)
(-1.82118 -0.301761 0)
(0.514601 6.70102 1.79726e-16)
(0.215849 0.0398213 5.34975e-16)
(1.52816 -0.00339592 4.69812e-17)
(-0.10989 7.04292 1.19703e-16)
(0.0799361 0.027289 5.01889e-16)
(2.93534 10.5795 2.13063e-17)
(6.06827 -0.525898 0)
(-0.0840107 2.13807 -1.41464e-16)
(-1.75035 0.0250384 -5.05784e-16)
(2.1609 -0.461067 0)
(0.255637 0.0231961 -4.66215e-16)
(3.59282 -0.180918 -2.48089e-16)
(-1.84313 -0.339359 0)
(3.64941 -0.378728 -2.00142e-16)
(-1.89868 0.101678 1.44887e-16)
(4.41388 9.9521 -7.17519e-19)
(-0.880473 -0.0511356 2.0766e-16)
(0.104284 5.09797 -1.40601e-16)
(11.4365 2.06386 -3.43786e-18)
(-0.0117531 6.44448 1.23079e-16)
(0.0996619 1.12704 3.85019e-20)
(1.60473 10.3784 -2.20993e-17)
(1.16709 -1.27572 -3.77765e-16)
(-0.114597 5.38421 -4.03061e-17)
(0.214858 5.86179 3.09927e-17)
(0.0418526 6.77198 -8.36709e-17)
(-0.045427 6.73646 3.21694e-17)
(-0.0237847 6.71132 0)
(-1.15323 0.17692 -4.10863e-16)
(0.444337 5.78816 -2.37026e-16)
(0.185434 0.0571995 0)
(-0.326818 5.68437 0)
(0.458971 -0.0984377 6.33279e-20)
(0.165322 -0.0951874 0)
(-0.016938 6.58399 0)
(-0.286853 8.36962 -9.79547e-20)
(-0.439944 7.74461 1.06154e-16)
(0.00237997 1.56675 -1.88196e-16)
(0.322907 -0.036095 2.4243e-16)
(0.738973 5.27014 0)
(-0.0617633 -0.793046 3.3701e-16)
(0.201988 1.08186 2.32817e-17)
(1.10717 10.0301 -6.69925e-17)
(0.297986 0.0262 0)
(0.198368 -0.323962 0)
(0.397922 2.63929 0)
(0.323005 -0.112218 0)
(0.331909 3.05539 2.47059e-16)
(2.20966 -0.0980137 1.55835e-17)
(1.47719 1.1164 -1.79446e-18)
(0.138044 1.29257 3.91645e-16)
(-1.31808 0.30187 1.85272e-16)
(4.26011 -0.701071 0)
(4.12368 0.115817 0)
(0.735943 -0.341934 4.11725e-16)
(1.20455 -0.567434 -1.35743e-16)
(0.0237259 -0.0135358 4.32091e-16)
(-0.0946343 -0.0821557 0)
(0.336829 -0.0551252 0)
(0.0452462 -0.0152281 1.04104e-18)
(-0.0929042 0.0454517 -2.60159e-16)
(2.066 -0.00421761 -2.29752e-16)
(0.30701 -0.180925 -9.27672e-17)
(0.82679 -0.170902 -5.57211e-18)
(-1.11332 -0.31382 0)
(0.131731 -0.840334 6.9699e-17)
(-1.32194 0.134248 -1.45912e-16)
(0.0417863 0.0120401 1.46633e-16)
(-1.03883 0.103812 3.36225e-16)
(-1.82227 -0.10799 3.73994e-16)
(-0.50429 -0.401493 -5.23041e-16)
(1.03216 -0.344383 -2.21901e-17)
(-0.188768 -0.112114 -1.89105e-16)
(0.0236144 -0.0245841 -3.21271e-16)
(-1.01511 -0.446241 0)
(3.59515 -0.0103422 -5.8302e-17)
(-0.237345 -0.275166 1.18601e-17)
(4.81672 1.04872 -5.74013e-18)
(1.03514 1.39993 9.57767e-17)
(11.2139 0.719051 2.11811e-18)
(0.320728 -0.15382 -1.27302e-16)
(0.395195 -0.103211 0)
(1.82476 0.277854 1.64456e-16)
(9.71198 0.149648 5.6838e-18)
(7.66749 0.897692 1.88781e-18)
(-0.750059 0.696368 -2.57604e-16)
(-1.3713 0.85776 2.63556e-16)
(0.453038 -0.0634811 2.94632e-16)
(0.309054 -0.0135791 -1.61142e-16)
(1.3068 0.752852 8.46792e-18)
(-0.0106774 5.09313 0)
(3.03707 -0.644446 -7.13697e-17)
(4.55594 2.27497 -9.05302e-18)
(0.253006 -0.00954718 0)
(-1.70663 -0.213915 -5.89114e-19)
(0.124718 1.89258 1.40919e-16)
(0.108839 -0.0124271 -7.69575e-16)
(3.36736 -0.0504839 0)
(-0.179285 -0.817981 -2.92381e-16)
(-0.338307 -0.123794 3.78836e-16)
(0.0229856 6.05017 1.23445e-17)
(0.00146964 5.97853 0)
(1.18785 7.45956 7.1708e-18)
(0.232742 3.36728 2.72424e-16)
(3.8824 0.0380326 0)
(0.201468 -0.415492 -6.6664e-16)
(-0.158108 2.8651 -2.62645e-16)
(0.113174 -0.129481 4.87498e-16)
(-0.183482 7.53022 -7.63788e-17)
(1.84334 1.35967 -7.92179e-19)
(-1.33333 -0.312892 6.77829e-17)
(-1.67462 0.142579 0)
(0.0789643 -0.0503877 -2.6396e-16)
(0.234202 -0.0227319 0)
(0.168694 -0.0925411 0)
(-0.187439 -0.328273 -2.41449e-17)
(2.52458 -0.0138544 6.9569e-17)
(0.643074 0.0910558 2.42077e-16)
(-1.69573 -0.213973 1.51671e-16)
(-0.83529 -0.579436 0)
(0.0528921 -0.0401308 1.91951e-16)
(0.423999 -0.234459 0)
(1.27015 -0.535779 4.73738e-16)
(0.748831 -0.606201 -2.90914e-16)
(0.410373 0.104726 5.31972e-16)
(3.07781 -0.275088 3.36721e-16)
(-1.97964 0.0518956 -8.66548e-17)
(0.554614 0.148339 -1.20422e-16)
(2.72364 0.126268 9.03982e-17)
(-1.7985 0.517596 0)
(-0.281684 -0.296066 -3.66134e-16)
(-0.204799 -0.296075 1.67321e-16)
(0.270259 0.00426368 0)
(9.02773 -0.239591 3.20039e-17)
(0.500639 -0.0522498 1.99758e-16)
(0.243582 -0.115936 0)
(0.133511 6.74686 0)
(3.87653 -0.0629075 7.19416e-17)
(-0.0205875 -0.277249 0)
(0.224502 3.60835 1.71841e-16)
(-0.0360789 6.72854 -6.48015e-17)
(-0.353103 -0.117712 -2.05198e-16)
(0.177385 2.37223 -2.77299e-16)
(0.20689 -0.00402215 3.42809e-16)
(0.0922431 -0.350576 1.72928e-16)
(-0.191685 -0.195223 2.61969e-16)
(0.350081 -0.363431 7.95642e-17)
(-0.00582649 6.61412 1.11757e-20)
(0.361451 -0.0774869 -2.3551e-16)
(-0.0567749 6.56882 -3.15221e-17)
(0.336855 -0.152385 -3.85349e-16)
(10.0276 0.351565 -2.13572e-18)
(2.71701 3.24117 5.60036e-17)
(6.31274 1.07357 -4.67854e-18)
(0.578649 -0.244737 3.1386e-17)
(8.34324 2.11355 -2.6145e-18)
(-0.146385 2.64722 1.54506e-16)
(0.898658 -0.103459 -1.96786e-16)
(0.606745 -0.178323 1.37093e-17)
(1.00039 -0.00104814 -4.96894e-17)
(0.0308687 4.65506 -1.36645e-16)
(-0.14905 6.20173 4.12326e-16)
(1.67097 0.92871 7.55786e-18)
(0.288748 -0.232999 2.55015e-16)
(3.33918 1.99624 2.03895e-17)
(8.55895 1.22438 -5.64838e-18)
(0.135491 2.90547 0)
(-0.0142173 6.59455 -2.94799e-17)
(9.06086 0.0714612 3.54075e-18)
(2.29771 2.16884 -9.67325e-18)
(10.2119 0.17297 0)
(0.453331 -0.000390454 0)
(0.6201 6.54747 -1.04173e-16)
(0.381162 3.05944 -2.34502e-16)
(0.555784 5.31571 -2.53751e-17)
(-0.0328486 0.0445585 -5.02453e-16)
(0.29096 -0.180645 0)
(0.641652 1.93037 6.65433e-18)
(10.0417 2.83837 -2.36541e-18)
(0.81643 6.69174 7.38571e-17)
(0.051662 4.26962 0)
(0.89703 3.74584 -1.04977e-17)
(2.85117 2.60077 -3.66717e-18)
(0.0430215 6.6797 4.63745e-17)
(10.424 -0.209165 2.11247e-17)
(-0.0496259 6.79106 -5.19325e-17)
(-0.0100087 6.58648 -2.92356e-17)
(-0.0193798 6.68518 -4.4959e-17)
(1.03539 6.59816 0)
(0.139872 0.0132033 0)
(3.25001 4.02832 -5.29291e-17)
(4.60095 2.92653 0)
(1.01146 5.65446 -1.53877e-16)
(1.08949 0.0214929 3.60385e-16)
(2.24225 0.218321 0)
(1.24561 1.90291 -8.60502e-20)
(0.860383 -0.12673 -1.15833e-16)
(1.32772 8.69109 -3.61241e-17)
(0.260832 -0.0916737 1.19375e-16)
(-0.152114 2.6371 -4.72537e-17)
(-0.0189883 6.77553 3.43533e-18)
(-0.0116731 5.84003 8.52212e-17)
(0.97178 0.118228 2.8263e-16)
(8.77255 0.523408 -1.099e-18)
(1.11623 1.43023 -1.60523e-16)
(-1.14625 0.10508 2.95367e-16)
(0.872362 -0.0879527 0)
(-0.0341051 6.02639 2.6862e-17)
(0.147616 6.01195 3.07179e-17)
(10.2663 0.983788 0)
(-1.29963 0.0707543 5.2151e-16)
(-0.0155191 6.67636 1.3771e-16)
(1.14732 5.78806 -4.0557e-17)
(0.47542 2.20868 -5.06506e-17)
(1.11757 8.53566 2.4103e-16)
(-0.128048 7.05913 2.18303e-16)
(0.742301 1.74029 0)
(3.2749 0.806781 2.12893e-16)
(0.763409 -0.169158 0)
(-0.0876121 6.28829 -1.23384e-16)
(8.87206 1.23285 1.8268e-18)
(2.12464 7.22159 -2.96574e-17)
(3.91938 2.10961 1.97688e-17)
(-0.0242741 6.82663 1.51989e-16)
(0.749344 8.78236 4.17044e-17)
(2.29168 0.0925358 2.71992e-17)
(0.0358992 6.76283 3.48338e-21)
(-0.0385925 5.99925 -3.43574e-18)
(-0.0302617 6.74783 6.16865e-17)
(-0.0372814 6.7728 -3.10539e-17)
(7.3354 1.63641 6.23706e-18)
(-0.0371314 6.12848 0)
(0.258517 5.88819 -3.7785e-17)
(0.017524 6.85613 0)
(0.946572 1.36107 2.76998e-17)
(0.590272 0.0385486 9.06632e-17)
(1.08991 3.46609 1.11892e-17)
(8.75792 0.838019 -7.34056e-19)
(0.0849264 6.57191 0)
(0.0728033 6.52395 2.31271e-17)
(-0.546856 -0.986956 5.91541e-16)
(0.127979 6.1825 2.34308e-16)
(1.15497 8.96949 0)
(-0.169003 6.72692 -2.75144e-16)
(0.348335 -0.249115 1.89971e-16)
(0.586544 -0.0103182 0)
(9.79648 0.273938 -1.97723e-19)
(0.623573 -0.250069 3.01698e-18)
(0.74044 -0.00953756 -1.92425e-17)
(-0.0181405 6.75905 3.98739e-17)
(-0.401487 7.636 -4.52885e-17)
(0.665182 -0.236098 -6.79689e-21)
(9.10009 1.71901 -4.33775e-18)
(6.0567 2.63511 2.48793e-17)
(0.018638 6.5933 -4.53561e-17)
(0.0397219 2.75424 1.20444e-16)
(9.11105 -0.134064 -2.01727e-17)
(0.55492 2.09256 0)
(0.441996 -0.11056 1.06639e-16)
(-0.0485496 5.54168 2.72437e-17)
(1.35462 7.44112 -5.66703e-17)
(-0.198423 5.98651 -1.23017e-16)
(1.0971 5.59273 0)
(0.929346 9.65473 6.29263e-17)
(-1.13671 0.0756854 0)
(0.754485 2.38427 -5.478e-17)
(-0.0350704 6.42155 5.51869e-17)
(1.5466 1.48881 -1.18663e-17)
(0.781163 0.849624 6.13865e-17)
(8.94332 1.7162 0)
(-0.0421097 6.62956 3.21754e-20)
(9.36218 1.2114 -5.30199e-17)
(1.11705 6.85432 2.31643e-17)
(-0.0047856 4.28569 1.27375e-20)
(-0.0270715 4.51866 -7.04924e-17)
(0.0991204 3.49245 0)
(-0.363928 5.20436 1.54285e-16)
(0.00371086 6.59504 8.41721e-17)
(0.335053 1.87749 2.15141e-16)
(0.924623 0.613783 0)
(5.09692 1.71939 0)
(-0.353121 7.73499 1.11861e-16)
(5.25543 2.47484 -2.97955e-17)
(10.9075 0.480393 0)
(1.82184 2.16328 -2.43762e-17)
(0.698953 0.147496 -2.34381e-16)
(-0.282037 6.74966 1.23893e-16)
(4.06383 2.7475 -2.29447e-17)
(-0.0477391 2.62842 -5.1039e-17)
(0.697104 8.38698 -1.34865e-16)
(-0.0108192 6.87416 -3.59655e-17)
(1.96219 5.07236 0)
(0.141563 4.26618 0)
(-0.567625 1.33333 1.94978e-16)
(0.0250852 4.226 8.08662e-18)
(0.235447 2.92039 -1.6627e-16)
(-0.732798 -0.0541823 -2.15541e-16)
(1.24584 1.18335 -3.57052e-18)
(-0.127964 2.01138 6.84018e-17)
(0.25334 5.43075 -4.50225e-17)
(0.688454 -0.208646 -6.96767e-17)
(2.13916 2.64932 1.67917e-17)
(-0.0428072 6.45523 -2.57471e-16)
(-0.409178 7.10178 -2.17608e-16)
(2.78522 1.85454 -1.50616e-17)
(3.71875 5.00623 1.81483e-16)
(-0.161814 0.0554028 0)
(0.0309411 0.0445167 -1.03755e-16)
(0.248187 1.0127 0)
(-0.1434 7.01729 -2.21801e-16)
(4.34222 3.38241 0)
(0.922872 5.43765 -5.32967e-19)
(1.17235 0.867482 1.6073e-17)
(0.593311 -0.170291 -2.32761e-17)
(6.5684 5.81846 1.10748e-18)
(1.93166 3.08785 1.63442e-17)
(3.77918 3.65548 0)
(-0.712369 -0.279256 0)
(-0.0170566 2.08718 0)
(0.909141 6.00936 2.89623e-16)
(0.0844391 -0.107217 -2.63313e-16)
(-1.13063 -0.110987 0)
(-0.323516 7.35519 2.46315e-16)
(2.73067 0.560816 2.77934e-17)
(0.771563 -0.0516399 8.97964e-17)
(0.270549 4.3199 1.92062e-16)
(0.7078 -0.380249 1.74206e-16)
(-0.266749 7.25824 -2.46351e-16)
(-0.514833 -0.223907 -3.33254e-16)
(0.552978 -0.10764 -2.26424e-17)
(-0.0791646 1.98599 -3.10642e-17)
(-0.367777 7.45179 0)
(6.61898 1.76226 4.47872e-18)
(0.910578 6.28129 -1.39496e-16)
(0.480743 1.89668 0)
(-0.54915 -0.0341952 0)
(-0.0350511 1.93047 2.47477e-17)
(3.27455 6.36932 6.95955e-17)
(-0.259313 7.80002 0)
(-0.0741387 6.91726 1.25275e-16)
(-0.0320165 6.42661 0)
(1.54605 1.81519 1.60733e-17)
(9.60628 0.770843 4.9911e-17)
(3.11291 5.40975 -1.27473e-16)
(-0.133648 2.50399 0)
(0.758552 6.21467 1.54266e-16)
(-0.15535 -1.03502 -3.43622e-16)
(0.0441261 2.16015 1.71404e-16)
(2.01564 4.13635 -5.62991e-19)
(0.00997528 -1.27349 2.68661e-16)
(0.346469 1.76872 -1.51152e-16)
(7.91903 2.43307 1.65517e-18)
(-0.942973 0.690825 -7.12301e-17)
(9.81888 -0.030365 -1.47507e-20)
(-0.327229 8.11391 -1.70932e-19)
(-0.335956 0.00385958 -4.1285e-16)
(-0.0137953 4.30825 -2.96088e-17)
(0.104908 4.31324 -6.29229e-17)
(1.01078 0.860312 3.83431e-18)
(0.79694 -0.0265515 -4.1468e-17)
(7.00693 6.2895 1.36915e-17)
(-0.151949 7.20608 1.20001e-16)
(11.2738 4.007 -4.46099e-19)
(-0.213625 7.13981 3.0088e-17)
(0.438959 6.93919 1.08461e-17)
(1.23955 8.99027 -8.41119e-17)
(-0.945962 -0.816983 -1.87152e-16)
(9.30285 0.370768 8.10956e-17)
(0.920844 2.94626 0)
(-0.263193 7.85106 6.37626e-17)
(6.96435 1.36857 -1.01277e-18)
(2.35497 3.73604 -1.66282e-17)
(0.426349 0.590749 -7.33226e-17)
(0.157001 0.855377 0)
(7.12407 2.05976 -2.02186e-18)
(-0.22041 3.21444 3.01147e-16)
(0.873809 6.53026 7.02025e-17)
(0.270791 1.29709 0)
(0.0757853 -0.882351 1.51958e-16)
(10.016 5.50849 -1.10718e-17)
(0.0189038 6.88239 3.35808e-17)
(0.588564 4.0602 -4.10132e-16)
(-0.0428723 6.6327 1.88666e-18)
(0.940828 6.0407 0)
(0.797605 3.14703 -2.17477e-17)
(0.679802 0.248875 1.64491e-16)
(0.421032 4.18678 -1.19307e-16)
(0.364736 4.16851 1.3016e-16)
(0.69873 -0.169668 2.35821e-16)
(6.89761 2.56867 -3.20222e-18)
(0.0833988 2.42167 -6.00604e-20)
(-0.21854 4.44534 2.08277e-19)
(-0.222219 4.67614 -8.40304e-17)
(-0.232227 7.36887 -2.43729e-16)
(0.281303 6.69753 -3.55944e-17)
(2.2817 4.88859 -6.76242e-17)
(-0.26281 7.82107 1.88735e-17)
(5.23798 3.27271 8.47425e-17)
(-0.400752 7.56182 -1.91663e-17)
(0.162446 0.777535 -7.48356e-17)
(-0.186829 4.59192 -3.2013e-20)
(0.343431 6.69606 6.55465e-17)
(0.108213 0.424337 9.88931e-17)
(0.721313 0.368468 4.15159e-17)
(-0.154154 4.57432 1.11582e-17)
(2.76541 4.52363 0)
(0.858515 5.67115 0)
(-0.123106 4.55799 5.45957e-18)
(-0.13142 1.70691 1.2007e-16)
(0.0408253 6.63945 -1.24511e-17)
(-0.872616 -0.635988 1.94082e-16)
(1.40569 4.59382 -9.09977e-20)
(0.145583 0.707533 0)
(0.699515 6.46725 -1.31426e-16)
(-0.0884015 4.52966 0)
(-0.110368 5.47702 -6.52185e-17)
(-0.093871 2.028 -3.57582e-16)
(0.357268 2.04013 -8.51072e-17)
(1.68802 4.41803 2.84672e-17)
(-0.0322689 4.47827 1.16215e-17)
(-0.136539 -1.33938 3.55423e-16)
(-0.882145 0.56498 2.19581e-19)
(2.12991 -0.458183 9.76129e-17)
(0.295235 -0.280767 -2.7247e-16)
(10.9966 1.68904 2.05452e-18)
(-0.16017 3.16426 1.13535e-16)
(-0.192389 3.37887 1.79241e-16)
(-0.24035 3.86405 -7.8111e-20)
(-0.21229 3.5817 0)
(-0.291137 4.11805 -1.01604e-16)
(-0.289749 3.91025 -7.94883e-17)
(-0.218992 3.41263 -8.14598e-17)
(-0.289097 4.27816 -1.47557e-16)
(-0.265645 3.53376 2.502e-16)
(-0.282933 4.2121 6.47579e-17)
(0.246639 -1.73726 0)
(9.36014 0.107301 5.03006e-19)
(0.0876962 -1.33765 -9.7789e-17)
(0.191338 -1.03804 2.86097e-16)
(-0.39081 -0.757071 -4.08667e-16)
(0.186806 -0.482956 1.5357e-18)
(0.266243 0.434876 0)
(0.616291 0.362638 -9.62014e-17)
(2.12697 0.734379 4.4822e-17)
(0.433168 0.336633 6.30712e-17)
(0.536316 0.511162 5.86704e-17)
(0.0740032 -0.399441 -2.6887e-16)
(0.402367 0.015302 -1.91419e-16)
(-0.177439 -1.32409 0)
(0.412658 0.00232186 -1.01314e-16)
(0.372345 0.0277952 3.2358e-16)
(0.420624 0.0234058 8.90509e-17)
(7.14785 0.162471 -2.19584e-18)
(0.298815 -0.953637 0)
(0.849178 -0.677419 2.87688e-16)
(0.292232 0.185278 -1.20522e-16)
(0.108072 -0.381939 2.50098e-16)
(7.20187 -0.0861573 -2.97255e-17)
(0.392648 0.0209561 -3.00394e-16)
(0.679257 -0.522444 -1.78669e-16)
(0.126967 -0.463243 2.85304e-16)
(-0.174177 -1.56824 3.10111e-16)
(7.17525 -0.286607 1.18587e-19)
(0.0548829 -0.489539 -2.59984e-16)
(7.35217 -0.401147 -2.55856e-17)
(0.374918 -0.00843916 -7.85197e-16)
(0.351895 -0.0503447 0)
(-0.357989 -1.58234 -1.89244e-18)
(0.656992 -0.24327 0)
(9.08073 -0.182108 3.47805e-17)
(9.74648 0.0604729 1.03048e-16)
(-0.0695334 -0.505927 1.44867e-16)
(0.0662575 -0.317255 -1.30562e-16)
(-0.027356 -0.0573233 7.17779e-16)
(0.335692 -0.0639825 0)
(0.156453 -0.315174 0)
(-0.150324 0.281909 0)
(8.85924 -0.152371 2.38892e-17)
(0.188767 -0.0128441 2.47256e-16)
(-0.958353 0.0912835 1.68137e-17)
(0.776352 -0.427578 2.34955e-16)
(-0.230522 -0.803621 0)
(-0.629549 -0.286577 0)
(0.650738 -0.93283 2.19921e-17)
(-0.0857594 -0.069075 1.69765e-16)
(8.26507 -0.153175 -6.87778e-17)
(0.257832 -0.106132 2.43387e-16)
(0.494421 -0.683772 1.75875e-16)
(0.0610972 0.221324 2.90973e-16)
(1.32268 -0.555792 -2.84651e-16)
(-0.39811 -0.115749 -1.87492e-16)
(0.294267 -0.493083 1.60895e-16)
(8.10863 0.0648329 1.53642e-17)
(0.246546 0.00857952 -2.94101e-16)
(-0.625177 1.526 -4.32013e-16)
(-0.0716624 0.863715 1.35316e-16)
(0.20841 0.657661 -3.65353e-16)
(-0.345684 1.34236 8.18396e-16)
(-0.0786746 0.354126 -1.94256e-16)
(8.32129 0.399719 -3.20114e-17)
(9.69689 0.327455 -8.30856e-17)
(0.0410789 -1.23192 -2.98137e-16)
(0.216783 0.298358 2.22312e-16)
(0.203103 0.302073 1.96794e-16)
(-0.410026 1.10345 0)
(0.198977 0.345936 2.17594e-16)
(0.647849 -1.0088 2.86553e-16)
(-0.133278 0.698978 0)
(0.380044 -0.470854 0)
(-0.145209 0.245074 2.14037e-16)
(0.417878 0.0175988 -2.26046e-16)
(-0.0469696 0.782137 -6.91326e-17)
(0.0609864 0.507285 1.22479e-16)
(-0.421821 -1.39483 1.66773e-16)
(9.40505 0.525807 -2.59362e-17)
(0.483486 2.30115 0)
(0.189001 0.668571 -3.44693e-16)
(0.0948427 1.84324 -1.71366e-16)
(0.71596 -0.127255 -9.11859e-17)
(0.0799599 0.905054 -8.86572e-17)
(0.549634 -0.196584 -1.24466e-16)
(8.65884 0.887497 5.35988e-17)
(-0.00303417 6.45009 -3.23297e-19)
(0.5019 -1.63566 0)
(0.110192 0.16935 2.67545e-17)
(1.54051 2.19474 1.05973e-16)
(0.178142 1.61699 -2.09424e-16)
(0.0336979 1.38786 0)
(-0.337376 -0.39473 0)
(-0.334037 4.75236 0)
(0.349292 -0.00606403 3.83023e-16)
(0.29019 1.10669 2.38292e-18)
(0.505355 5.32351 2.55612e-17)
(-0.041034 0.980853 5.47829e-17)
(1.27418 -1.10213 2.13704e-16)
(-0.196363 3.83201 1.17981e-16)
(-0.092819 0.511623 -3.07086e-16)
(-0.236566 7.01841 -4.56939e-17)
(0.201742 1.17763 3.88148e-16)
(-0.136889 3.19694 3.26008e-16)
(0.30053 0.859153 5.507e-17)
(0.774462 2.43606 -6.09767e-18)
(0.845023 6.99633 -4.33594e-17)
(-0.20478 4.11453 0)
(-0.354938 5.17714 0)
(0.818102 4.23499 1.78233e-16)
(-0.0873942 0.42247 3.61354e-16)
(-0.251612 7.76903 0)
(0.144484 4.70707 -2.5476e-16)
(0.0500218 -0.235784 -4.22752e-16)
(-0.312468 0.972141 -5.97135e-16)
(0.559647 -0.244058 2.07851e-17)
(-0.0836051 0.941922 -1.31762e-16)
(0.562763 6.13532 3.12081e-18)
(2.75346 7.44966 0)
(-0.33398 5.0821 2.83519e-17)
(9.32868 1.45644 -4.9007e-18)
(4.38495 4.54849 5.23986e-17)
(-0.113541 1.9757 0)
(5.51512 8.14757 0)
(-0.0822676 1.49914 7.19405e-17)
(0.379921 1.72706 0)
(0.692863 -0.174772 -1.36154e-17)
(-0.117524 1.44283 -8.41236e-17)
(-0.401512 7.38664 1.15889e-16)
(-0.0621169 3.80701 -2.50685e-17)
(4.01547 7.1797 -2.95589e-17)
(-0.266206 3.40315 -4.81231e-17)
(0.230352 0.768576 -1.00246e-16)
(-0.0168128 1.00975 8.95901e-17)
(0.98417 6.20883 3.73871e-17)
(0.554216 -0.097695 1.63739e-16)
(-0.153442 4.35132 0)
(-0.205417 2.73963 1.03007e-17)
(-0.119777 2.90802 -5.49876e-20)
(-0.110794 3.81937 0)
(2.17779 7.58574 2.1304e-18)
(0.930981 4.34155 1.49847e-16)
(1.46869 5.23576 -9.74353e-17)
(1.8345 5.1302 1.33502e-16)
(-0.0275311 6.60884 -6.17425e-21)
(0.0117721 6.75267 -1.06231e-16)
(0.267198 1.65147 -4.92074e-16)
(-0.0830029 0.960184 0)
(0.416762 0.939343 1.13194e-16)
(-0.161825 2.02656 -2.51676e-17)
(-0.469826 5.52005 2.82364e-17)
(0.333937 2.44588 -7.17202e-20)
(0.574588 2.79202 -1.104e-16)
(-0.170068 6.20752 -1.30354e-19)
(-0.259363 4.2095 0)
(-0.547807 -1.17003 -1.77203e-16)
(0.686884 4.33785 3.31711e-16)
(3.50557 2.76827 0)
(8.8762 0.282004 2.12113e-18)
(1.21955 8.41556 2.69204e-17)
(-0.0347618 1.45645 6.47454e-18)
(-0.0091235 5.20912 3.43558e-17)
(0.152685 1.37262 0)
(1.72534 6.61031 9.34057e-17)
(1.11643 6.30071 -1.79265e-16)
(2.6699 12.3358 4.82704e-18)
(2.43413 5.74677 4.86817e-17)
(0.576865 0.0944737 -5.81708e-17)
(0.496951 -0.650523 -2.67142e-16)
(0.544052 -0.1431 8.29265e-17)
(-0.140957 1.50869 -8.39576e-17)
(0.289164 3.94944 2.14797e-16)
(-0.220688 2.68981 -1.33549e-17)
(-0.0923773 6.00185 -5.36656e-17)
(-0.350512 7.39093 1.22384e-16)
(11.0003 0.105733 -1.00784e-17)
(0.550446 -0.201539 -5.1775e-17)
(0.0351845 1.11299 -1.03602e-16)
(0.63659 5.23153 -1.94155e-17)
(2.27262 1.61717 -1.10621e-17)
(1.57343 2.6063 -2.05607e-16)
(0.0204963 1.06055 -8.87168e-17)
(0.287621 4.61153 1.24478e-16)
(-0.148412 1.93295 7.53834e-17)
(0.904522 6.66342 -6.51752e-17)
(-0.305899 4.83466 -1.39838e-16)
(0.0479115 0.539624 0)
(2.43906 6.66694 -4.85287e-17)
(0.577278 1.19267 0)
(-0.156981 2.17985 9.00142e-17)
(0.182198 2.02684 0)
(0.00832715 0.0107944 5.26123e-16)
(-0.265618 3.27754 -1.44563e-16)
(-0.0261518 3.78574 3.01888e-17)
(1.4233 5.88413 7.44788e-17)
(5.04964 -0.0402805 -5.9473e-17)
(0.821828 0.532942 1.41808e-16)
(-0.0734584 5.03739 -1.42641e-16)
(1.09267 1.84683 6.39505e-17)
(-0.302516 7.49623 -1.20768e-16)
(4.93521 3.98275 -1.65862e-16)
(0.644214 0.0871025 7.32137e-17)
(0.0491926 5.06536 0)
(-0.279776 5.52517 -2.6624e-17)
(-0.161203 1.71751 6.1312e-17)
(1.24084 6.42619 -1.82614e-17)
(0.970754 5.89169 1.05308e-16)
(0.334415 -0.407947 1.49043e-16)
(1.7132 3.50919 1.52173e-17)
(-0.0970562 1.36537 1.09301e-16)
(-0.396748 6.54069 -4.48949e-18)
(-0.0302989 4.30149 1.22257e-16)
(1.86072 5.89582 -8.65126e-17)
(0.463233 -0.696158 6.35782e-17)
(1.04575 6.1342 -6.27571e-17)
(-0.03694 6.36455 -1.34903e-16)
(1.3223 7.13014 -4.36197e-17)
(0.268396 0.563008 0)
(9.28273 0.602479 -1.27645e-16)
(7.66559 2.35373 8.49223e-18)
(-0.265082 4.94591 9.07002e-17)
(0.0155074 1.59592 4.60682e-16)
(-0.0952764 2.56305 2.58542e-17)
(-0.0955485 1.04817 0)
(1.74857 0.0607953 -1.61835e-16)
(-0.963456 0.999992 5.95238e-17)
(0.227999 0.217056 -2.72807e-16)
(0.257527 2.54646 3.64265e-20)
(-0.372511 -0.731347 -1.55073e-17)
(0.0372816 4.42465 4.15381e-17)
(2.09936 1.09951 -6.88179e-18)
(9.48503 0.483527 0)
(-0.290013 4.20297 0)
(-0.046399 1.27093 -5.33693e-17)
(0.258451 -0.695516 2.22779e-16)
(10.0808 0.545381 0)
(-0.043984 -0.131715 5.38289e-19)
(0.995339 6.02122 -2.51987e-16)
(1.0125 1.14509 0)
(1.24773 1.53083 0)
(0.337455 1.56533 -1.11326e-16)
(1.47691 3.79791 1.66661e-17)
(8.88371 0.426031 0)
(0.0489639 -0.199636 2.11267e-16)
(1.78442 -0.490252 -1.25636e-16)
(-0.172137 2.08533 0)
(0.0390461 5.1093 0)
(-0.119722 -1.49405 1.66499e-16)
(0.85767 0.244359 -7.66796e-18)
(0.0307764 1.82498 1.28344e-16)
(-0.0969827 2.81423 -2.37419e-16)
(-0.106507 7.04436 4.41318e-17)
(0.532331 0.192742 0)
(0.0972862 0.0892385 0)
(-0.355627 4.51993 -1.07303e-16)
(3.57178 0.4472 -2.50533e-18)
(1.04576 2.88787 -1.93569e-16)
(-0.0173797 0.0440956 2.13508e-17)
(4.0868 6.07807 -3.02635e-18)
(2.28452 0.379304 0)
(1.21238 5.23544 0)
(-0.147254 3.80562 -5.46605e-18)
(0.280405 0.141457 0)
(-0.156457 5.2897 0)
(10.9398 0.621134 -1.32702e-18)
(0.0266924 4.30981 -2.45049e-16)
(2.89563 0.414155 0)
(1.05974 2.74114 -2.98807e-18)
(0.0361592 6.53483 2.1345e-17)
(-0.18582 5.99509 6.22378e-17)
(0.275707 1.41057 -1.77684e-16)
(0.61768 6.66035 -3.26516e-18)
(-0.180136 6.84578 2.64284e-17)
(-0.0414907 -0.208536 -1.72617e-20)
(-0.211515 6.79746 -2.52159e-16)
(-0.128732 1.54637 -2.83632e-19)
(-0.252457 2.73305 1.91275e-16)
(0.673679 0.397274 -2.93084e-16)
(-0.156521 6.72399 1.27346e-16)
(-0.365269 6.81337 0)
(-0.0121732 6.81538 1.69168e-18)
(9.91567 0.185864 -7.32121e-18)
(-0.1493 3.11659 0)
(-0.690183 0.0981543 5.1775e-16)
(1.79156 0.651969 1.51238e-17)
(-0.0114086 3.40665 0)
(-0.0681181 1.55524 3.14625e-16)
(1.70747 7.76147 0)
(1.85312 8.61847 2.66336e-17)
(0.173645 -0.327877 0)
(3.72801 1.48454 1.3902e-17)
(0.133844 1.30804 -2.48362e-16)
(0.723125 0.345057 -1.17904e-16)
(0.52367 0.868256 -2.12056e-17)
(-0.24881 2.31923 2.00685e-16)
(-0.0878663 7.03274 -4.11409e-17)
(4.27659 0.48071 8.83306e-18)
(8.43123 0.366157 0)
(0.565531 -0.270761 -2.41174e-17)
(0.000114433 5.27589 0)
(-0.0908184 6.39097 0)
(0.84127 0.70352 -1.2864e-16)
(1.23368 4.81189 0)
(-0.121342 2.51591 0)
(0.90075 5.93862 -2.9267e-17)
(1.53398 -0.107489 0)
(-0.0913596 -1.29718 1.70422e-16)
(0.0461511 6.01069 4.9718e-17)
(0.318659 0.00734303 2.64846e-16)
(-0.155012 1.02815 1.20794e-16)
(0.843797 1.5405 1.4392e-17)
(1.00301 0.573061 -5.75193e-17)
(0.359722 0.00530313 -4.60467e-16)
(12.4914 2.74778 0)
(0.156695 6.01824 0)
(-0.308612 7.59723 -1.22658e-16)
(0.325075 0.70229 -4.05941e-19)
(0.22762 6.68445 1.00321e-17)
(0.244169 0.946222 2.17261e-17)
(9.51058 2.2833 2.93648e-18)
(1.57095 1.26472 4.88116e-17)
(-0.333855 2.07025 -7.26043e-17)
(0.365785 0.00516866 4.49753e-16)
(-0.418306 -0.264793 -3.07034e-16)
(0.0204094 6.00416 0)
(0.352382 0.00166403 5.04422e-16)
(0.323064 0.0348027 -2.72036e-16)
(-0.0715846 5.26876 -2.23818e-17)
(0.681984 0.995364 -1.53065e-17)
(-0.0768795 1.22338 -3.55424e-16)
(-0.0349614 6.03121 -5.17173e-18)
(0.255225 6.27239 1.46291e-16)
(-0.201728 7.07978 6.6961e-17)
(-0.286285 7.40551 0)
(0.491997 2.82678 7.11848e-17)
(-0.0552547 -0.0188347 8.30859e-17)
(0.0108902 1.58153 0)
(-0.2546 5.97465 -1.1234e-16)
(0.234548 1.79389 -5.41801e-16)
(1.19737 4.68346 0)
(-0.474488 -0.237871 -1.62446e-16)
(-0.112942 3.16358 0)
(-0.116031 -0.42196 1.11156e-20)
(1.25729 0.29478 -3.55333e-18)
(9.14956 2.27315 1.63642e-18)
(1.24793 5.91525 0)
(0.562281 3.44802 1.37375e-16)
(-0.00233502 6.58292 -9.00926e-17)
(0.712019 3.39558 0)
(0.424054 -0.522464 -1.23078e-16)
(-0.418854 1.21694 -1.32587e-16)
(-0.0151731 6.12064 -8.79847e-17)
(-0.24872 5.44222 8.17038e-17)
(-0.00324756 5.94522 1.96855e-16)
(-0.0610377 0.00870944 -4.48096e-17)
(0.481795 -0.238883 0)
(0.101171 6.18877 0)
(0.39983 -0.161844 3.92745e-17)
(-0.169904 2.5896 1.19132e-16)
(-0.0110892 6.58387 -3.14761e-17)
(0.428815 -0.0685887 1.23561e-16)
(0.067523 0.367318 -2.47273e-16)
(-0.114657 2.72069 0)
(-0.163887 2.70286 7.93422e-17)
(10.0007 7.90635 -1.27402e-18)
(0.0095069 5.86882 2.68389e-17)
(0.0854104 6.83276 -1.08422e-17)
(-0.030325 1.53693 -7.67231e-17)
(1.04505 6.33595 1.43056e-16)
(4.78077 2.32666 2.30152e-18)
(0.257901 -0.0397888 -1.80912e-16)
(1.00984 2.05864 0)
(10.0744 0.716555 2.273e-18)
(-0.426655 6.78358 4.33779e-17)
(7.03725 0.457312 1.09971e-18)
(-0.137699 1.96327 -9.62403e-17)
(-0.299052 -1.54187 -1.48522e-16)
(-0.359751 4.93309 -1.99336e-16)
(-0.0810538 6.59309 6.14827e-19)
(0.953699 0.164991 3.97014e-16)
(1.00346 5.5051 -1.16928e-16)
(0.0394073 3.03289 -2.64924e-16)
(-0.278072 3.99925 1.56134e-19)
(1.74109 0.34214 1.33831e-17)
(0.0271031 5.29864 -4.87498e-17)
(-0.389645 7.47547 2.23948e-17)
(0.193496 6.74515 -2.01204e-18)
(-0.956782 -1.0728 0)
(0.282864 -0.137447 0)
(-0.323395 4.57274 -5.49452e-17)
(5.04206 0.506548 1.94807e-18)
(8.02084 0.250388 -1.4404e-17)
(0.00265385 6.48865 1.26929e-16)
(1.2581 3.24735 -2.20643e-17)
(2.70633 -0.0978792 6.36709e-17)
(3.58438 0.268999 8.91806e-18)
(-0.314477 4.57093 4.04977e-17)
(-0.175142 3.76359 -8.66136e-17)
(0.308375 1.36763 3.59e-16)
(-0.166545 3.0145 -8.08316e-17)
(0.297827 0.0644951 0)
(0.140664 -0.222405 -1.20961e-16)
(-0.004577 4.22604 -9.34267e-17)
(0.17399 4.04036 0)
(7.98626 1.46273 -7.6196e-18)
(-0.381942 -0.177809 9.34286e-17)
(4.99211 0.324508 0)
(0.0779577 1.64895 0)
(6.14502 3.6889 -2.23592e-17)
(-0.182719 7.14981 1.36755e-17)
(0.282721 6.79444 -5.63261e-18)
(-0.119257 1.53053 0)
(0.490177 1.42041 6.35728e-17)
(2.03735 -0.160078 6.70514e-16)
(0.130684 -0.145483 -6.8345e-16)
(0.562826 0.236412 -5.24549e-17)
(1.76362 2.0679 6.63995e-17)
(1.05294 -0.688483 2.26274e-16)
(-0.17589 -0.29047 0)
(0.435177 1.60463 -6.11161e-17)
(1.26286 4.00874 -1.36441e-18)
(1.34843 4.2982 6.91261e-17)
(0.666075 2.61559 -2.2753e-17)
(-0.172178 2.52683 0)
(-0.102676 6.2132 6.67678e-17)
(-0.199618 2.43894 6.66768e-17)
(0.1975 -0.0372107 0)
(9.72282 0.484022 1.15806e-16)
(-0.0226824 5.99386 0)
(-0.280311 3.82682 0)
(3.87622 5.45897 -2.54533e-18)
(-0.300387 6.19956 1.36477e-16)
(0.118498 4.5225 1.32622e-16)
(2.57261 -0.0446444 -2.06385e-16)
(0.414853 -1.0747 2.14393e-16)
(0.204857 0.0134539 2.91988e-16)
(-0.219856 5.56162 0)
(-0.0234885 6.615 -2.05749e-20)
(-0.0671807 4.99258 -1.56701e-16)
(6.84928 -0.527491 -6.43987e-17)
(0.414528 -0.169725 6.73895e-17)
(-0.206937 6.83188 2.38736e-16)
(-0.244878 0.356326 -1.16523e-16)
(2.66949 2.85983 1.33744e-17)
(5.66163 -0.543491 3.91002e-17)
(3.03853 0.0279193 -5.84466e-17)
(0.132991 8.75872 8.44827e-17)
(0.0771966 5.23772 3.33849e-19)
(0.0784592 5.15167 8.38366e-17)
(0.0275727 4.95037 7.68726e-19)
(0.0585538 5.04712 0)
(0.12333 9.50784 -7.47291e-17)
(0.0648681 5.23935 -1.59989e-16)
(-0.0121656 4.86598 -7.9546e-19)
(-0.0373932 5.12697 -2.08975e-17)
(-0.0458349 4.90454 0)
(0.0383484 4.97164 4.53103e-17)
(0.150513 8.20889 0)
(0.244863 10.2772 0)
(0.0546263 5.16137 -6.00983e-17)
(0.284575 7.13413 -4.1351e-18)
(0.217707 7.69853 -3.87883e-18)
(0.0537419 5.2599 1.91868e-17)
(0.0370372 5.14297 8.35966e-17)
(0.0137351 5.0777 0)
(0.0289088 5.26132 -2.65921e-17)
(0.0128307 5.04444 0)
(0.0221233 5.08113 0)
(-0.00402329 5.21085 1.98245e-17)
(0.0330819 5.13467 0)
(-0.182185 2.16105 7.31908e-17)
(5.22448 5.46822 -4.66921e-17)
(0.134571 -0.384846 2.80517e-16)
(0.101993 0.458385 0)
(1.18313 5.85161 -9.78508e-17)
(-1.23748 -0.18226 9.73891e-17)
(-0.408633 0.551874 5.2579e-16)
(7.05316 1.28386 -1.59966e-17)
(-0.194016 7.11337 -1.70424e-17)
(0.614113 7.20657 0)
(-0.972879 0.108747 4.86499e-16)
(2.12093 -0.205437 2.54568e-16)
(0.251863 0.570399 0)
(4.92915 -0.240122 3.04548e-17)
(0.30531 -0.765569 -2.55377e-16)
(0.085082 0.313944 -1.84084e-16)
(5.96583 4.55542 7.85886e-17)
(1.36156 3.76679 -4.69912e-17)
(-0.225836 2.66186 6.88801e-17)
(0.831776 0.776258 -5.05089e-17)
(0.315517 -0.111078 -1.22853e-16)
(6.9502 0.848335 -2.72584e-19)
(-1.97316 0.424722 -2.58069e-16)
(0.0330998 5.2066 0)
(0.628387 5.9652 2.54e-16)
(0.953939 3.66739 1.09842e-19)
(0.447075 0.0683834 7.214e-17)
(0.167654 0.516113 0)
(10.0493 -0.0944715 2.75657e-17)
(-0.00689503 2.27731 -1.3082e-16)
(1.59383 0.00033751 3.77016e-18)
(-0.140041 2.02506 1.08126e-16)
(-0.263528 7.6752 0)
(-0.0675798 2.02189 7.17428e-18)
(-0.155783 2.39727 -5.17184e-17)
(8.49199 3.43921 2.00526e-17)
(0.144437 -0.546363 3.0643e-16)
(0.265044 -0.0689562 -3.261e-16)
(-0.528869 -1.01815 1.94884e-16)
(0.24287 -0.0461458 -8.03454e-17)
(-0.0674417 3.20851 2.61709e-17)
(-0.0787068 5.66823 6.18452e-21)
(0.158248 5.61733 -1.81442e-17)
(-0.00262174 0.659605 0)
(0.461966 3.24691 1.54918e-19)
(-0.106254 0.459665 5.42778e-17)
(1.5734 0.196241 1.13084e-16)
(0.861211 -1.27689 0)
(-0.266803 0.481782 -3.35881e-16)
(0.0400971 1.0908 0)
(10.004 0.512015 2.08977e-18)
(-0.201223 3.51959 0)
(0.420747 3.66143 -4.81829e-17)
(-0.0889165 2.36865 1.3112e-16)
(-0.662693 -1.61567 2.52533e-16)
(1.55139 -0.242126 0)