/*--------------------------------*- C++ -*----------------------------------*\
| =========                 |                                                 |
| \\      /  F ield         | OpenFOAM: The Open Source CFD Toolbox           |
|  \\    /   O peration     | Version:  v1912                                 |
|   \\  /    A nd           | Website:  www.openfoam.com                      |
|    \\/     M anipulation  |                                                 |
\*---------------------------------------------------------------------------*/
FoamFile
{
    version     2.0;
    format      ascii;
    class       volScalarField;
    location    "0.94";
    object      epsilon;
}
// * * * * * * * * * * * * * * * * * * * * * * * * * * * * * * * * * * * * * //

dimensions      [0 2 -3 0 0 0 0];


internalField   nonuniform List<scalar> 
1466
(
9.47112
36.544
9.23746
94.1806
5.4505
21.3476
3.41624
40.271
9.35903
47.0647
59.7062
42.9523
5.86531
4.71877
25.6181
80.5052
24.1539
100.102
110.305
65.3066
110.343
65.1614
82.2409
53.6493
7.37997
8.99559
43.6485
85.1205
6.14956
50.9907
69.3966
10.993
9.2064
95.3641
124.246
55.7354
92.1072
30.0193
81.3397
1.81617
3.75252
60.0434
72.9901
5.34565
2.06237
19.7737
79.5736
3.13219
48.2835
4.22517
16.3151
46.4884
27.7534
3.78594
14.0207
6.81129
14.1733
64.353
6.05804
56.0169
19.1055
4.3708
2.04061
29.3549
76.9712
30.817
157.241
56.3608
34.1773
10.6247
56.4175
147.577
83.7576
6.96283
14.9659
80.5916
4.38397
2.16684
22.0799
71.4217
58.1781
74.5565
9.76646
81.6047
97.4719
144.821
86.2094
74.881
65.3167
43.2237
12.1314
46.0374
126.155
6.2765
17.2212
11.0071
34.0631
72.099
8.63271
5.83013
22.3042
10.9816
2.74354
75.7073
82.8549
57.7111
36.1071
3.61917
78.4575
10.9593
15.008
98.5751
9.14374
64.8654
56.0051
21.1212
49.8196
41.2602
3.39598
1.66707
93.04
5.62413
2.10682
6.45734
2.10496
61.8816
44.1563
79.6712
50.4008
32.2431
74.8709
54.3133
81.0613
52.3472
14.2513
3.81127
1.8918
19.0311
3.35909
1.62219
5.40949
93.503
69.4205
75.0747
69.1368
163.721
10.973
17.4153
50.0694
95.2547
14.1128
32.9106
39.2073
9.16388
38.8542
63.3555
74.4063
78.9959
11.5336
46.4942
10.3181
58.2694
128.295
80.9437
103.805
80.2998
60.3136
89.3964
92.4656
39.6237
103.115
8.36153
3.25744
35.5087
29.8955
7.54053
42.789
61.1082
12.9622
73.7829
8.90182
27.8665
129.064
2.96071
77.3211
146.623
100.846
47.7922
36.0715
37.9847
114.663
24.5755
116.012
172.729
42.6699
17.6257
10.4053
159.433
112.02
185.522
73.1574
40.7695
47.2748
27.7238
42.819
92.6851
128.319
28.2473
11.3728
60.543
96.6024
86.3163
129.015
94.2694
115.236
78.324
145.658
99.3479
54.4341
55.6969
85.3084
22.5456
82.1605
21.6347
86.5418
80.9057
58.3633
3.27245
13.1075
21.5786
42.4606
82.4546
187.105
137.628
14.2982
71.4957
65.3577
82.5448
20.6081
111.203
51.9984
70.2605
39.3575
198.756
16.8034
53.4435
10.6451
6.95868
71.1395
34.5458
132.791
83.3725
25.3387
49.303
8.00515
15.7967
73.9967
11.9923
114.061
121.989
91.0705
79.4196
51.937
21.4597
64.5673
3.39029
39.1923
43.5921
100.477
11.7797
156.053
136.555
56.7442
12.0282
13.2711
26.0145
17.1652
58.4338
100.12
55.469
19.2443
53.8357
77.511
64.6711
61.163
2.93123
54.9816
51.1308
6.73438
20.0875
23.3977
9.63193
7.50344
12.5079
46.0463
38.0591
223.517
4.46453
56.7682
18.6658
3.47693
33.3467
5.93292
8.32263
82.7378
11.3
8.28793
10.9526
38.2378
120.168
31.6095
109.403
58.7643
34.5202
49.7885
43.5071
104.115
32.7775
5.28305
28.373
36.8264
168.852
113.967
16.5613
82.7342
16.8885
3.30611
33.8632
13.9196
31.2031
74.8516
18.2244
10.7374
35.9871
92.6218
16.0791
102.819
19.0394
10.4147
5.00241
1.91521
31.367
20.3317
69.8863
41.1569
6.83815
62.6197
42.1391
40.0514
92.7894
31.2924
13.086
62.339
115.374
76.0689
109.062
87.0541
19.7663
8.1338
41.316
85.33
95.9982
69.7402
43.8814
7.06707
188.477
27.8995
26.9414
63.5022
39.5464
35.0519
112.009
107.349
31.2174
13.125
93.0155
52.6737
110.327
5.89465
57.7343
54.9278
43.2394
62.1171
67.7672
49.6168
47.111
16.2735
14.4366
8.90106
4.0207
14.122
29.785
36.8757
28.268
19.9698
7.47968
4.16112
108.352
15.133
16.2874
2.94282
2.27662
69.6315
5.78055
47.5281
100.715
84.8448
29.4839
122.654
110.852
25.4292
98.2574
123.176
108.974
73.7648
6.70027
5.59166
50.4983
32.8647
11.3702
80.4642
82.63
10.214
129.531
6.81906
2.8137
56.22
101.417
5.10784
2.58326
53.6797
9.40894
86.4138
219.713
32.0221
10.7613
6.92078
7.19602
3.76492
47.8658
6.73107
16.1624
52.8937
12.5427
27.7608
9.24322
26.5397
33.5551
7.96465
60.1079
33.868
7.07508
6.66914
11.3102
18.712
13.7647
9.37739
29.5349
10.332
29.8118
8.46953
12.026
11.4781
46.8991
52.2596
6.55725
31.2084
9.37054
5.37682
28.6076
6.85444
21.2401
51.5829
2.05995
29.0675
5.61841
1.95023
52.1
113.329
48.879
36.1894
95.3939
87.6149
103.461
75.6963
23.2296
4.91444
2.84901
123.677
74.6958
85.8225
82.5988
17.5911
33.8017
26.2541
43.017
79.1639
50.9119
42.7995
54.2993
72.5276
93.6184
51.9637
84.5407
14.0225
69.9585
66.8481
34.4797
5.509
60.9501
26.152
64.761
33.7714
171.365
78.9564
49.7861
12.6713
10.1248
20.1903
29.5371
73.349
6.05592
129.743
27.7157
56.14
15.9882
7.9576
63.2862
19.051
95.6138
8.60868
199.728
115.554
40.1027
55.7249
9.88111
34.3668
75.5946
15.8643
98.888
21.7071
92.4993
24.6403
29.877
22.381
30.9248
25.8098
23.9482
118.456
31.631
83.1533
5.65509
6.21421
52.9206
182.793
68.5861
62.5558
43.8006
57.539
17.5945
91.4939
93.54
23.3075
38.9478
15.5247
24.4793
36.8606
128.379
78.9636
103.28
86.7952
127.94
26.2892
51.2936
16.1154
107.682
12.8569
92.1326
58.677
71.5398
37.467
102.125
76.9053
59.1325
56.9475
29.3224
97.1299
8.8169
45.9398
30.6966
84.8976
26.3161
51.3056
74.5589
131.992
75.6311
73.1254
56.887
23.8186
66.6369
42.6218
14.2467
15.3453
30.0516
205.829
60.3916
27.8129
1.69968
38.5685
86.6968
13.5629
119.595
22.7066
36.9335
109.657
32.393
52.6449
27.7722
25.2414
101.387
29.3304
3.60537
23.7909
19.9571
39.7493
73.1326
220.207
58.1247
71.5652
94.3702
61.0384
23.0908
25.9576
16.6861
91.8105
12.0959
93.5724
76.7177
47.9934
88.9325
125.093
82.0474
58.2875
23.3492
107.172
14.4383
57.9577
102.717
59.493
28.7507
92.7669
11.3005
33.7215
6.74408
115.56
102.412
6.24943
171.07
14.341
6.13773
133.853
92.5307
6.50611
14.3938
90.4001
29.8608
105.622
36.3278
55.3771
5.50978
13.0792
17.1125
55.1402
6.1716
54.0416
4.03765
35.5325
6.12146
13.6482
19.273
83.4196
13.2387
10.1113
150.272
18.1788
116.517
25.8625
8.12843
35.3647
11.4569
114.445
18.7526
16.1231
62.5934
19.4521
7.63738
51.8307
74.264
27.9607
53.0722
114.527
22.7441
9.41542
14.2019
79.1145
64.0913
27.6956
6.37632
7.76341
68.834
16.0013
135.22
7.84747
67.4374
127.423
93.868
49.1667
75.1048
70.7054
57.6427
69.5918
100.93
155.318
55.4666
195.026
108.161
87.1191
13.1021
21.0936
7.69641
63.6011
111.19
65.3087
5.65218
132.253
80.8527
117.008
83.9687
4.34063
111.243
93.1895
55.2192
97.5663
4.74845
2.63958
5.53357
32.9315
20.0281
22.0715
48.9501
84.5956
66.4779
10.0167
5.70808
115.187
112.491
159.148
89.1255
14.3506
107.59
92.3041
5.23984
28.6385
44.7039
141.822
46.2613
77.2004
120.818
70.7987
135.436
26.5673
8.34998
2.38131
6.84544
59.2524
113.116
40.4836
16.338
25.3566
116.97
19.105
11.7182
87.9749
32.9113
88.6365
6.03446
38.9661
89.0192
74.8699
38.174
37.797
90.5513
101.153
5.99529
32.3751
16.3807
109.117
60.2113
9.0235
9.12552
7.91888
61.7981
101.431
12.1464
39.3553
2.87812
12.5648
14.1043
62.6583
89.4256
121.086
56.359
77.2509
46.9287
33.9667
11.6646
84.5142
83.0612
13.4375
91.8202
101.389
81.4644
22.3024
61.4243
3.99091
10.0841
92.8406
12.9
18.0949
75.5806
71.8971
88.0833
12.7664
121.92
16.0887
26.74
15.1846
13.9165
8.12711
11.532
18.0748
108.527
92.1201
10.0461
81.1434
81.6837
34.3582
95.3205
36.979
59.2622
88.645
61.194
101.353
35.1749
29.6376
24.7804
68.298
22.6228
65.2477
99.1835
131.278
99.7172
10.2992
15.0921
8.92293
36.1236
110.301
254.539
31.1734
49.6048
36.5171
8.41924
51.6401
11.5076
121.628
9.88958
95.9474
92.0634
102.529
86.4552
123.717
115.72
119.633
121.873
163.614
167.188
186.751
168.46
165.215
165.974
166.369
153.414
211.52
131.878
147.652
237.087
251.88
160.838
226.433
165.005
160.13
151.464
83.3607
96.5097
6.2036
8.33678
54.9674
10.6972
11.9924
5.75504
4.12414
24.9054
119.408
75.1544
109.602
20.6453
31.5574
12.1956
47.475
6.99797
51.9682
25.7909
121.958
35.0135
46.3152
127.639
73.9079
141.705
4.53097
2.18164
8.23718
9.26675
7.75569
40.0006
51.3262
50.6561
91.2315
8.16677
2.89549
6.5518
13.0521
13.1341
24.4627
101.035
4.59624
2.04841
30.8263
98.4315
42.0859
15.7145
52.44
46.4097
68.0033
80.9417
99.0964
60.9989
8.5165
57.4861
100.128
47.2462
128.291
35.2948
138.776
36.0834
74.4748
129.935
2.33057
52.4693
20.4735
60.0512
4.70446
98.8502
70.7089
98.2959
29.1764
29.6704
29.5083
78.7687
22.4977
12.4937
7.53007
78.799
131.622
103.635
20.887
139.558
111.547
27.8027
134.098
65.7385
10.607
2.32631
34.206
56.654
128.08
209.398
62.5875
63.7822
4.9691
13.8029
45.9337
44.0335
74.9937
13.2671
65.2835
4.86756
2.2971
2.09058
36.422
7.89309
44.0804
80.5963
9.73477
9.20427
137.077
11.5226
78.2434
20.3797
55.5185
115.999
104.051
123.229
83.0368
105.724
91.6142
100.368
67.7229
87.1723
56.4508
2.71251
7.11516
122.391
33.7772
9.9432
20.3829
62.5372
34.1247
11.5996
55.8663
7.58313
36.2711
40.5399
5.35669
2.01719
39.1348
10.823
22.6463
13.4089
37.3578
123.523
5.56178
1.9997
10.191
86.8874
39.844
5.94909
27.3091
119.767
14.1101
24.802
10.4687
7.64032
29.8097
41.6136
6.45013
97.8572
91.0434
7.07264
2.20791
2.49167
48.4335
29.9346
11.5191
6.06636
12.373
11.6596
7.03993
12.5673
12.7216
4.79702
2.087
8.26144
133.413
12.6401
12.9379
12.7748
13.0477
41.7037
45.7348
10.7878
11.1392
12.3407
12.7617
65.948
86.5598
55.7037
28.4251
20.0979
102.149
115.413
32.9359
113.932
75.2492
36.4302
6.53281
2.5838
6.77308
115.955
62.7151
129.592
43.5637
8.32529
135.418
43.3484
48.5119
55.0593
120.989
97.4518
123.275
17.9233
90.2706
32.4866
108.268
84.5094
142.696
7.03369
14.7916
14.4888
63.0844
44.5097
63.8288
72.7762
54.4483
8.38543
20.2808
18.0021
38.9462
81.3908
84.9866
118.679
109.332
7.96768
2.56511
29.6598
52.8586
46.7606
22.5595
11.4783
7.99756
41.7083
103.113
49.0572
58.0462
96.5633
7.95711
8.19299
22.4513
64.9051
36.5058
110.115
22.7112
88.1406
130.545
82.6178
89.8682
123.292
37.0583
90.4713
92.5638
2.84952
6.92397
24.7177
31.7704
6.86971
1.97203
75.4147
66.8037
66.3298
102.933
110.938
125.357
38.8452
30.4145
76.6895
71.0998
104.662
105.142
8.12803
8.88793
42.5094
58.6151
10.6024
92.5692
34.5205
10.9836
52.5377
45.1509
20.8312
17.2744
10.0963
55.3314
8.36092
18.8919
41.0385
36.8061
23.1666
235.235
6.76796
9.54117
22.4814
5.08708
7.41984
39.7227
4.79219
2.0542
6.34435
52.5205
66.0345
118.215
105.454
95.5143
8.16917
67.5575
6.87594
66.4196
50.6633
2.8067
47.9093
47.6664
79.2547
67.6708
65.1921
69.5051
97.7445
6.3894
3.75727
103.013
16.5939
3.28775
32.3712
6.46234
89.9032
9.13901
121.4
8.90517
131.779
48.5851
2.47008
118.778
27.6435
7.24944
91.5252
77.189
38.4434
74.4347
41.4183
103.516
46.8989
79.3002
6.31862
32.4205
31.0489
111.246
40.0371
117.416
139.19
60.6064
147.376
170.214
153.224
7.29328
30.4929
54.2135
10.3964
109.815
5.23553
68.6201
96.8107
14.7094
120.979
52.6809
6.32641
38.4887
31.4365
6.5766
39.4121
14.2754
18.4452
14.3297
211.039
114.176
67.7463
86.409
5.4226
7.35651
112.685
69.7734
68.8619
65.5778
71.0228
72.9158
144.893
57.0482
44.6488
110.491
6.59953
58.5352
120.946
94.5392
17.9769
5.10671
4.56651
4.39886
2.26177
11.745
22.2187
82.1388
8.87262
11.8786
44.6088
10.2205
76.3478
103.021
90.5957
4.80939
89.7433
38.111
6.85046
5.40821
6.04617
8.9218
202.914
10.6642
94.8576
18.8107
16.4009
7.33468
4.32278
99.8747
6.76059
10.5868
73.8992
11.0192
93.5121
85.0169
118.012
59.354
42.0753
22.7834
23.9427
54.9549
14.6904
32.4775
90.6036
4.12526
59.3323
76.1402
30.5572
65.7903
51.5973
115.187
22.2893
47.8831
11.2752
51.595
105.345
35.685
8.13824
7.64645
14.7442
12.8779
99.4413
78.4089
40.0543
50.7303
143.455
25.8784
96.8011
56.3163
64.5373
58.4426
9.45692
68.7094
95.5162
7.16954
35.7538
97.4348
17.6161
138.341
35.5715
72.8368
127.385
70.4497
106.09
101.684
95.2753
98.0015
2.45823
4.85446
10.0293
3.49202
26.2412
9.50578
62.1929
32.1925
77.1158
51.7247
111.746
72.8762
117.006
10.4202
112.923
94.3129
10.5586
9.2207
129.183
41.9514
14.9919
17.0046
70.6559
35.0336
169.736
31.252
22.4796
10.0003
10.437
66.8495
76.4574
56.9099
13.0925
187.408
70.9635
47.9883
127.632
7.96121
11.9389
80.7837
66.4131
3.86794
7.89493
41.6259
10.2057
75.7936
129.004
31.8024
14.5035
46.3849
162.653
66.4157
65.0357
36.179
73.1906
10.5208
7.83909
7.05922
4.40556
18.8188
1.99194
83.4299
6.48362
5.19209
120.659
12.5958
67.6651
29.8695
23.3639
)
;

boundaryField
{
    frontAndBack
    {
        type            empty;
    }
    wallOuter
    {
        lowReCorrection 0;
        type            epsilonWallFunction;
        value           nonuniform List<scalar> 
108
(
100.102
147.577
83.7576
5.93292
6.83815
18.1788
25.8625
8.12843
11.4569
19.4521
7.63738
27.9607
22.7441
9.41542
7.76341
7.69641
117.008
32.9315
20.0281
16.338
12.5648
121.086
13.9165
34.3582
92.0634
102.529
86.4552
123.717
115.72
119.633
121.873
163.614
167.188
186.751
168.46
165.215
165.974
166.369
153.414
211.52
131.878
147.652
237.087
251.88
160.838
226.433
165.005
160.13
151.464
83.3607
8.33678
31.5574
141.705
9.26675
98.4315
138.776
36.0834
139.558
65.2835
9.20427
104.051
100.368
67.7229
40.5399
39.1348
13.4089
39.844
29.8097
41.6136
91.0434
2.49167
2.49167
11.5191
12.373
12.5673
12.7216
133.413
12.6401
12.9379
12.7748
13.0477
41.7037
45.7348
10.7878
11.1392
12.3407
12.7617
65.948
113.932
75.2492
8.32529
55.0593
84.5094
142.696
49.0572
58.0462
130.545
82.6178
66.0345
10.3964
112.685
65.5778
11.8786
38.111
10.6642
7.64645
14.7442
143.455
)
;
    }
    inlet
    {
        type            fixedValue;
        value           nonuniform 0();
    }
    outlet
    {
        type            zeroGradient;
    }
    wallInner
    {
        lowReCorrection 0;
        type            epsilonWallFunction;
        value           nonuniform List<scalar> 
126
(
30.0193
81.3397
1.81617
3.75252
60.0434
72.9901
5.34565
2.06237
19.7737
79.5736
3.13219
48.2835
4.22517
16.3151
46.4884
27.7534
3.78594
14.0207
6.81129
14.1733
64.353
6.05804
56.0169
22.0799
11.0071
34.0631
72.099
8.63271
5.83013
22.3042
10.9816
2.74354
75.7073
82.8549
57.7111
36.1071
3.61917
78.4575
10.9593
64.8654
56.0051
6.45734
2.10496
74.8709
54.3133
3.81127
1.8918
19.0311
5.40949
128.295
29.8955
10.4053
114.061
121.989
91.0705
3.39029
39.1923
156.053
136.555
56.7442
9.63193
12.5079
38.0591
223.517
36.8264
168.852
113.967
19.7663
63.5022
107.349
110.327
108.352
16.2874
101.417
86.4138
219.713
10.7613
7.19602
16.1624
6.66914
13.7647
10.332
171.365
199.728
182.793
220.207
171.07
195.026
36.1236
254.539
123.229
85.0169
54.9549
187.408
47.9883
127.632
7.96121
11.9389
80.7837
3.86794
7.89493
41.6259
10.2057
75.7936
129.004
31.8024
14.5035
46.3849
162.653
66.4157
65.0357
36.179
73.1906
10.5208
7.83909
7.05922
4.40556
18.8188
1.99194
83.4299
6.48362
5.19209
120.659
12.5958
67.6651
29.8695
)
;
    }
    procBoundary1to0
    {
        type            processor;
        value           nonuniform List<scalar> 
29
(
1.78803
1.78803
2.90203
3.11855
42.9562
38.8087
127.11
28.4587
77.5132
9.12664
21.1051
38.8087
2.90203
1.52274
65.9392
21.6611
42.9562
53.1284
3.11855
1.62553
10.7607
6.13862
62.5339
10.8522
10.8522
62.5339
7.37505
78.3717
7.37505
)
;
    }
    procBoundary1to2
    {
        type            processor;
        value           uniform 4.97682;
    }
    procBoundary1to3
    {
        type            processor;
        value           nonuniform List<scalar> 
48
(
89.7417
80.9569
84.5034
84.5034
53.9357
88.4984
88.4984
9.39178
73.5266
8.24203
5.03178
8.24203
8.03009
4.47242
4.25661
8.03009
4.66045
4.66045
4.22616
4.22616
2.9447
2.61094
4.00389
22.9275
22.9275
2.21
1.93733
1.93733
3.39411
43.4029
11.4488
3.39411
9.39178
54.7846
1.69698
43.4029
24.6926
5.03178
87.4837
45.5033
3.57191
40.0271
54.7846
1.69698
4.51136
67.3468
48.6385
3.57191
)
;
    }
}


// ************************************************************************* //
