/*--------------------------------*- C++ -*----------------------------------*\
| =========                 |                                                 |
| \\      /  F ield         | OpenFOAM: The Open Source CFD Toolbox           |
|  \\    /   O peration     | Version:  v1912                                 |
|   \\  /    A nd           | Website:  www.openfoam.com                      |
|    \\/     M anipulation  |                                                 |
\*---------------------------------------------------------------------------*/
FoamFile
{
    version     2.0;
    format      ascii;
    class       volScalarField;
    location    "0.68";
    object      nut;
}
// * * * * * * * * * * * * * * * * * * * * * * * * * * * * * * * * * * * * * //

dimensions      [0 2 -1 0 0 0 0];


internalField   nonuniform List<scalar> 
1466
(
0.000791887
0.000780439
0.000487404
0.000543359
0.0015682
0.00113347
0.000851591
0.00189038
0.00459575
0.001292
0.000684466
0.0021893
0.000111299
0.000544858
0.000736104
0.00074136
0.000196481
0.000540493
0.00298923
0.000505838
0.00153816
0.00272177
0.00023961
0.000696013
0.000611168
0.00178737
0.00225459
0.00197985
0.00052164
0.000551605
0.00205718
0.00253411
0.0026917
0.0014198
0.000707173
0.000742384
0.000584268
0.000671794
0.0023283
0.00221678
0.0021406
0.00250721
0.00360881
0.00189574
0.00186915
0.0020363
0.00096957
0.000381246
0.00246504
0.00150746
0.000701054
0.000553216
0.000638464
0.000749313
0.000576247
0.00293493
0.000547609
0.00127871
0.00143019
0.00307317
0.000674101
0.000535648
0.00142413
0.00160817
0.00101994
0.000525865
0.00269437
0.00140396
0.000704645
0.00202623
0.00140434
0.000621497
0.000462748
0.000670621
0.000176866
0.00227023
0.000688025
0.00064161
0.000947923
0.00290002
0.000868712
0.000585104
0.000851832
0.00233256
0.000471194
0.00126662
0.00050537
0.00112521
0.000557471
0.000680843
0.000508024
0.000305132
0.00261077
0.000566099
0.000695209
0.00119743
0.000861013
0.00144159
0.000726962
0.00046312
0.000674236
0.00233675
0.000410809
0.000303305
0.000981019
0.00288764
0.0011214
0.000920444
0.000947294
0.000701843
0.00127732
0.00076034
0.000852083
0.000682918
0.000129408
0.00508476
0.000292295
0.000424825
0.000701042
0.00144422
0.00103923
0.000814579
0.000257737
0.000857431
0.000584267
0.00269647
0.000635413
0.000333148
0.00283081
0.00467336
0.00174858
0.000662676
0.000626671
0.00241879
0.000781858
0.00257345
0.00249913
0.000560434
0.00153696
0.000293635
0.000528052
0.000291675
0.00293343
0.00196658
0.00168755
0.000285781
0.000211251
0.000570464
0.00180902
0.000460761
0.00283256
0.000763929
0.000666606
0.000803772
0.000579022
0.00214779
0.00065451
0.00644661
0.00112813
0.000586535
0.00214488
0.000463333
0.000787394
0.00118606
0.00250451
0.00223735
0.00495883
0.000208031
0.000623955
0.00240818
0.00114095
0.00115617
0.000626017
0.00133517
0.00189827
0.000862177
0.002624
0.00301738
0.000731232
0.00284703
0.000703444
0.00111638
0.00175729
0.000546322
0.000928379
0.000428208
0.00102764
0.00416981
0.000838074
0.000244803
0.000190721
0.00024709
0.000503088
0.00101045
0.00108743
0.000657749
0.00138278
0.000769019
0.000652097
0.000594578
0.00277989
0.00116185
0.00096751
0.000597656
0.000756663
0.00267589
0.00109417
0.000914209
0.00067133
0.000778931
0.000880454
0.00365118
0.00101284
0.000615548
0.000716062
0.000937378
0.000607028
0.000198342
0.000490568
0.000644287
0.00489497
0.000795909
0.000651992
0.000954879
0.00118677
0.000979027
0.000490335
0.000774555
0.000501239
0.00545923
0.000607709
0.00119046
0.000591358
0.00161225
0.000781511
0.000809082
0.00145428
0.00111399
0.00136774
0.000708009
0.00511469
0.00133455
0.000325694
0.00241548
0.00272782
0.000220527
0.000351096
0.000278966
0.000183812
0.000246416
0.000583114
0.002844
0.0024831
0.00107778
0.000593879
0.00289243
0.000559539
0.00421981
0.00448776
0.00207804
0.000631434
0.000649481
0.00311143
0.000593304
0.000851419
0.000733363
0.00408544
0.00188189
0.0012164
0.000637348
0.00280214
0.000747291
0.000639075
0.000499904
0.000652425
0.00197172
0.0007569
0.000638223
0.000527958
0.00274762
0.000799781
0.00018267
0.000265717
0.000502261
0.00160909
0.000628673
0.00151654
0.000385716
0.00482381
0.000440576
0.000927253
0.00381912
0.00163071
0.00211163
0.00229269
0.00140242
0.00359296
0.00724007
0.00113224
0.000337198
0.000514656
0.00512769
0.000517252
0.00163583
0.000832376
0.000772492
0.000950977
0.00178946
0.000148105
0.00587744
0.00595443
0.000636543
0.00134465
0.0013353
0.0021615
0.000983383
0.00150763
0.00155607
0.00156765
0.000657837
0.00113386
0.00217096
0.0016491
0.000259403
0.000209392
0.000258347
0.000186953
0.000330706
0.000427905
0.000238261
0.000246248
0.000254792
0.00022488
0.000205531
0.000217593
0.000251664
0.000188402
0.000421842
0.000174401
0.000248603
0.000325877
0.000333527
0.000176874
0.000189864
0.000344314
0.00031631
0.000263052
0.00027835
0.000854553
0.00559946
0.00268048
0.000648648
0.00288533
0.00199068
0.0018866
0.0009516
0.00191946
0.000260386
0.0041789
0.00157216
0.00405256
0.00259891
0.00182619
0.000216404
0.000244828
0.000380424
0.000180424
0.000307309
0.000346489
0.000332031
0.00027922
0.000266262
0.00024974
0.000247029
0.000161125
0.000230357
0.000214749
0.00859717
0.000558453
0.000254847
0.000589945
0.000864114
0.00203325
0.000624973
0.000843739
0.001569
0.000872256
0.00138735
0.00106834
0.00161915
0.00230149
0.00306453
0.000986006
0.00774797
0.000164529
0.00064145
0.00127606
0.00140729
0.000967159
0.000193983
0.000260488
0.000830504
0.00080325
0.000673798
0.00202051
0.00169769
0.00252305
0.00395727
0.00139928
0.0012918
0.0014883
0.000599749
0.000217667
0.000275193
0.00723636
0.00290463
0.00271319
0.00186335
0.00209232
0.00258328
0.00183185
0.000366885
0.00308068
0.00261155
0.00298179
0.00282085
0.00250863
0.00288121
0.00232108
0.00207545
0.00130222
0.0013179
0.00289809
0.00743205
0.00108709
0.00832661
0.00731848
0.00197923
0.00222949
0.00316146
0.000754987
0.00140941
0.00532487
0.00156181
0.00242908
0.00700017
0.00479937
0.00544846
0.00879684
0.00167707
0.0086891
0.00691958
0.00120679
0.00223651
0.00721064
0.00200655
0.00587675
0.00660559
0.000370917
0.00152834
0.00680181
0.00277842
0.0024068
0.00160073
0.00522831
0.000730332
0.00821466
0.00143156
0.0012415
0.000234897
0.0074221
0.00187208
0.00145601
0.00152233
0.00247398
0.00212458
0.000320231
0.000276095
0.00285861
0.00200844
0.0013899
0.00154644
0.00217849
0.00164185
0.00235263
0.00143217
0.00147793
0.000878718
0.00168196
0.00151438
0.00214752
0.00130397
0.0015344
0.00103165
0.000469954
0.00292003
0.00172508
0.0068647
0.000722161
0.000745369
0.00112518
0.0013584
0.000287711
0.000681639
0.00116468
0.0013044
0.00174504
0.00165985
0.00219929
0.00197157
0.00422538
0.00225935
0.00335151
0.00144302
0.000948116
0.00257027
0.00109538
0.0013617
0.00192595
0.00164424
0.00203981
0.0073852
0.00470827
0.000997822
0.000742971
0.00176544
0.00502785
0.00446202
0.000341655
0.000959577
0.00164146
0.00157677
0.00172813
0.00188221
0.00131086
0.00613966
0.00245243
0.00711496
0.00139661
0.00118095
0.00656547
0.00757957
0.00541027
0.00730449
0.00205825
0.000852223
0.000206375
0.00694849
0.00759909
0.000994538
0.00128809
0.000825252
0.00780488
0.00282542
0.0019759
0.00609917
0.0010835
0.00105562
0.00278977
0.00428795
0.00119594
0.000823581
0.00243174
0.0062629
0.00192836
0.00303239
0.00121041
0.000781162
0.00221927
0.00693354
0.000527408
0.0033649
0.00247913
0.00206187
0.000547175
0.00257758
0.000646759
0.00129367
0.00266545
0.00277776
0.00108576
0.000776954
0.0025184
0.00115801
0.000961429
0.00887213
0.00244767
0.00103554
0.00774486
0.00333431
0.000207929
0.000286935
0.00172326
0.000485509
0.000947946
0.00122875
0.00221392
0.00272065
0.00759869
0.00142729
0.00843583
0.000937128
0.00119204
0.000595349
0.00164671
0.00304221
0.00271338
0.00143034
0.00699195
0.00617753
0.00290184
0.00232401
0.00417964
0.0039502
0.000434768
0.00143928
0.00687724
0.000603908
0.0042952
0.00102568
0.000876754
0.00125152
0.000668657
0.00251479
0.000936388
0.00218372
0.0017192
0.000884642
0.00129126
0.00848042
0.00304703
0.00619663
0.000534076
0.000190402
0.00174443
0.00289201
0.00147994
0.00790511
0.000893019
0.00113213
0.00123196
0.00592392
0.000553016
0.00305043
0.00110831
0.00262818
0.000556642
0.00522728
0.00472144
0.00112031
0.000774979
0.00847775
0.00275574
0.0065301
0.00129839
0.00264812
0.00441708
0.00136796
0.00101304
0.00057671
0.000753578
0.00786029
0.00226512
0.000710687
0.0049207
0.00821106
0.00295463
0.000914953
0.00832676
0.00204424
0.000926914
0.000665472
0.00101911
0.000583247
0.000205997
0.000271223
0.00265405
0.00817943
0.000888467
0.00170594
0.00109906
0.000906213
0.000190351
0.000552673
0.00222654
0.000683252
0.00149484
0.00142464
0.000229663
0.00102117
0.000563297
0.000828739
0.0026183
0.00163321
0.00682807
0.000598878
0.00293803
0.000771534
0.00153076
0.00299055
0.00325008
0.000601006
0.00289227
0.00649613
0.00288036
0.000808869
0.00289395
0.00866469
0.0028617
0.000944168
0.00103731
0.00016247
0.00100992
0.000952796
0.00105514
0.000579461
0.00304607
0.00685262
0.000701432
0.00259105
0.00176446
0.00262156
0.00122643
0.00278679
0.00689274
0.000855606
0.00206383
0.000772907
0.00519032
0.0014903
0.00345412
0.000675402
0.00234078
0.000202937
0.000188753
0.00632952
0.000215607
0.00017984
0.000443074
0.0089768
0.000182997
0.000227082
0.000126861
0.000163485
0.000138148
0.00154245
0.000162486
0.000618955
0.00329411
0.0027744
0.000585779
0.000230696
0.000551278
0.00233941
0.00239189
0.000706989
0.00482286
0.00543551
0.00057333
0.000471196
0.000238204
0.00058836
0.00163711
0.00070661
0.000618747
0.00482186
0.00183687
0.000236683
0.000589306
0.000631101
0.00253351
0.00136179
0.000622398
0.000210015
0.0022581
0.000930223
0.000666686
0.00288771
0.000752408
0.00362998
0.00231917
0.00598782
0.000131959
0.000174752
0.00251412
0.00209127
0.000762988
0.00116888
0.00307653
0.000249333
0.000642051
0.000659146
0.000953141
0.000560542
0.000415266
0.00371946
0.00365552
0.00117739
0.00297543
0.000231671
0.000187251
0.00157935
0.000911419
0.000640287
0.000590804
0.000225344
0.00506325
0.000825906
0.000688192
0.00312806
0.00338215
0.000177659
0.000808586
0.00479947
0.00065649
0.00313296
0.000726591
0.000229108
0.000584513
0.00425612
0.0025794
0.000835718
0.00262063
0.00297051
0.000177764
0.000181911
0.000874688
0.000811086
0.000988191
0.000716191
0.000607659
0.00266983
0.00069387
0.000623511
0.000686698
0.000542089
0.00297373
0.00194233
0.000399424
0.000691051
0.000209982
0.00090475
0.00187008
0.00441483
0.000848578
0.00259285
0.00302986
0.0029098
0.00268374
0.00280776
0.00627691
0.00131699
0.00185829
0.00592967
0.000178256
0.000894052
0.0016383
0.000313149
0.000473222
0.000241245
0.00380352
0.000676241
0.00781307
0.00076138
0.000911414
0.000961005
0.000738849
0.000612482
0.00228535
0.00051604
0.00123538
0.000263841
0.00446631
0.00169178
0.000603556
0.00109821
0.000597408
0.00122237
0.00304868
0.00211585
0.000629333
0.000648088
0.00279346
0.00156687
0.000770295
0.000531379
0.000838492
0.00281197
0.0024963
0.00231866
0.00113789
0.00122009
0.000481134
0.000535744
0.00111477
0.00371284
0.00174663
0.00194388
0.00280761
0.00125516
0.000841451
0.00165198
0.00133869
0.00118637
0.00244603
0.000260659
0.00136357
0.000770264
0.00273962
0.000552289
0.000800387
0.00122425
0.00287447
0.000174997
0.00184676
0.000135634
0.00198589
0.000557695
0.00113538
0.00084314
0.00112468
0.000615218
0.00388124
0.00595124
0.00611678
0.000624599
0.00116318
0.00100449
0.0021982
0.00182916
0.000613549
0.00120829
0.00213882
0.00260239
0.000189772
0.00497342
0.00146386
0.00298618
0.000712298
0.000151342
0.000140561
0.000116696
0.000128014
0.000160362
0.00013439
0.000166966
0.000153873
0.000163669
0.000143868
0.000149912
0.000168736
0.00016704
0.000158146
0.000878996
0.00014831
0.00014099
0.00206854
0.000190099
0.00227662
0.000178767
0.000163269
0.00859095
0.00191087
0.000786416
0.000750937
0.000222532
0.00562827
0.000634645
0.000705387
0.000902569
0.000229748
0.00156192
0.000227172
0.00106167
0.00181428
0.000232188
0.00102777
0.000984969
0.00017858
0.000761389
0.00550689
0.00444024
0.00357322
0.00629332
0.00137199
0.000609693
0.00142612
0.00102594
0.000825392
0.00147408
0.000976037
0.000778015
0.000229467
0.000195307
0.00396937
0.00123613
0.000214438
0.00818147
0.00503426
0.00373189
0.000224492
0.000213529
0.00303834
0.000981374
0.00256079
0.000574021
0.000721612
0.00204769
0.000769165
0.000244586
0.000844251
0.000226695
0.000274408
0.0026135
0.00112014
0.00114191
0.00108835
0.0010436
0.00156274
0.00227255
0.000829954
0.000529605
0.000558556
0.000495737
0.00158932
0.00188436
0.00172523
0.00213351
0.00136943
0.00176349
0.00148877
0.000623444
0.00663753
0.000254347
0.000204846
0.00268983
0.00257893
0.000132576
0.00106831
0.00348508
0.00285486
0.000106892
0.00111869
0.00117996
0.00210521
0.00177253
0.000854322
0.000123961
0.00279297
0.00113738
0.00111988
0.000732664
0.0011392
0.0062502
0.000242472
0.0022928
0.00843402
0.000821525
0.000614645
0.00148966
0.0037415
0.000544538
0.000465841
0.00013136
0.00117604
0.00129904
0.000546632
0.00566636
0.00145718
0.00223676
0.00134303
0.000254126
0.00101553
0.00117152
0.00464908
0.000710545
0.00165626
0.00145637
0.000493411
0.000323056
0.00184521
0.000227299
0.000246991
0.003685
0.000625508
0.00209866
0.00439711
0.00196144
0.00061329
0.000778733
0.00349963
0.00232573
0.0010147
0.00545885
0.000205695
0.00024002
0.00152353
0.00239339
0.00173436
0.00120532
0.000284259
0.000230359
0.00114621
0.00324564
0.00148358
0.000424128
0.000123838
0.000227561
0.0012045
0.00023549
0.00223011
0.00204182
0.000854612
0.000813227
0.00298209
0.000241352
0.000363884
0.000530334
0.000469167
0.00108325
0.000182277
0.000221486
0.00239604
0.000676865
0.000175741
0.000327064
0.000305892
0.000610478
0.000247835
0.00256033
0.000345164
0.000832286
0.000691608
0.00277263
0.000332225
0.0004701
0.00244825
0.000227753
0.00887506
0.00157882
0.000232436
0.00147083
0.000771881
0.000934853
0.000887312
0.00214159
0.000115649
0.000749034
0.00270887
0.000292527
0.000817109
0.000220247
0.000550603
0.000630859
0.000185224
0.00171769
0.000173413
0.000405292
0.00123081
0.000550628
0.000619072
0.0030665
0.0053118
0.000253907
0.00266155
0.000601017
0.000285068
0.000712515
0.000450134
0.00104502
0.000196846
0.00122924
0.00538572
0.000483444
0.000225872
0.00229736
0.00209293
0.000958736
0.000620074
0.00134948
0.000305715
0.00210651
0.000793998
0.000570635
0.000146939
0.0003959
0.00148903
0.000666209
0.00388204
0.000827287
0.00151294
0.000715705
0.000695931
0.000243082
0.000620126
0.00546114
0.00504175
0.00282457
0.000377828
0.00275765
0.000848909
0.00192963
0.00177838
0.00100709
0.000646769
0.00122441
0.000473662
0.00661853
0.0016286
0.00456371
0.00188877
0.00148796
0.000896936
0.000898422
0.00528527
0.00080424
0.0023043
0.00257576
0.00237343
0.000243988
0.000946401
0.000503503
0.000890255
0.000798843
0.00126104
0.000537673
0.000210197
0.0080202
0.00567514
0.000621028
0.000905248
0.00102919
0.000303579
0.000646735
0.000394482
0.00249726
0.000881592
0.00126587
0.000541835
0.000261481
0.00207012
0.000620223
0.00629889
0.00757545
0.00300503
0.00606441
0.000759119
0.00121551
0.000575429
0.000868341
0.004124
0.00334952
0.00169105
0.00765313
0.00211336
0.000782962
0.000799777
0.00372276
0.00247474
0.00158735
0.00179146
0.00116187
0.00121275
0.0021488
0.00274485
0.000740219
0.000745184
0.0028395
9.52574e-05
0.000100619
0.00058734
0.00329599
0.00186351
0.000381819
0.0079212
0.00605487
0.00582989
0.00137478
0.000873275
0.000855534
0.000809893
0.00298449
0.00101371
0.00283592
0.000641938
0.000799944
0.00263445
0.00149789
0.000875611
0.000732584
0.00118429
0.00638773
0.00582926
0.000286162
0.00656567
0.00647781
0.00259013
0.000118375
0.00293296
0.000456766
0.00363475
0.00781287
0.000134971
0.000543336
0.00160884
0.00296829
0.00140677
0.0070172
6.81163e-05
0.0013832
0.00239056
0.000779083
0.000676074
0.000231271
0.000809546
0.00275226
0.00043235
0.00161613
0.000714482
0.00633466
0.000711271
0.00122121
0.00289427
0.000740031
0.00174552
0.00212818
0.000607672
0.00139678
0.00101645
0.0035795
0.000770446
0.00600341
0.000672884
0.000786722
0.00273022
0.000236835
0.0012688
0.000707784
0.000921538
0.00059275
0.00102825
0.00295097
0.000196754
0.000811553
0.000956295
0.000178332
0.00114474
0.000609015
0.000677796
0.000869888
0.00234518
0.00050287
0.00289495
0.000724843
0.000927225
0.00231132
0.00185941
0.0024481
0.00103542
0.00227248
0.000673172
0.000813249
0.000424164
0.000332163
0.000466517
0.000826498
0.000743672
0.00276489
0.00877051
0.000115056
0.000765777
0.000902293
0.00123334
0.00132848
0.000175474
0.000483347
0.000195647
0.00232986
0.000618257
0.000732447
0.000540109
0.000743277
0.00138345
0.00107522
0.00155276
0.000694106
0.000563769
0.00185701
0.00084911
0.00132996
0.000495104
0.000973938
0.00053106
0.00201742
0.000995236
0.000271192
0.000614652
0.000965018
0.00278528
0.000530829
0.00207156
0.00127425
0.00561489
0.000974575
0.00110042
0.0024739
0.00043855
0.000526403
0.000456362
0.0014024
0.000724737
0.000537788
0.000914115
0.00101396
0.000715842
0.0007449
0.00111125
0.00102439
0.00681228
0.00541672
0.00292739
0.000636547
0.00112013
0.000551434
0.000432101
0.00291981
0.0028727
0.000667037
0.000721528
0.00110594
0.000644625
0.000846735
0.000780562
0.000433956
0.000708878
0.000896404
0.000598515
0.0003069
0.00103259
0.000325133
0.000788918
0.000913245
0.000582567
0.00291749
0.0027998
0.000575232
0.000741774
0.00116884
0.000760586
0.000674258
0.00364945
0.000288488
0.00218496
0.00613546
0.00584875
0.000478865
0.00207115
0.0055756
0.000634003
0.000794541
0.000538713
0.000573355
0.000694035
0.000499129
0.00065348
0.000426272
)
;

boundaryField
{
    frontAndBack
    {
        type            empty;
    }
    wallOuter
    {
        type            nutkWallFunction;
        Cmu             0.09;
        kappa           0.41;
        E               9.8;
        value           nonuniform List<scalar> 
102
(
1.00974e-05
1.00974e-05
2.77806e-05
1.91429e-05
1.27732e-05
1.5414e-05
1.7682e-05
2.07804e-05
2.33011e-05
2.14738e-05
2.4879e-05
2.03304e-05
2.62874e-05
1.24896e-05
1.71446e-05
1.38155e-05
1.72894e-05
2.62212e-05
2.73588e-05
2.7081e-05
2.32331e-05
1.31184e-05
1.90409e-05
2.64338e-05
2.11816e-05
1.94809e-05
2.00156e-05
1.94525e-05
2.78382e-05
1.90037e-05
1.33739e-05
1.57672e-05
1.42813e-05
1.06466e-05
1.23533e-05
1.72893e-05
1.34489e-05
1.83211e-05
1.65518e-05
1.74473e-05
1.5248e-05
1.62038e-05
1.81356e-05
1.78436e-05
1.65298e-05
1.51334e-05
1.41064e-05
1.96198e-05
1.81163e-05
2.64091e-05
2.59438e-05
2.68138e-05
2.01696e-05
2.6307e-05
2.22064e-05
2.44651e-05
2.56368e-05
2.43091e-05
2.6228e-05
3.2402e-05
2.94463e-05
1.27e-05
9.08007e-06
1.19985e-05
2.80947e-05
1.2792e-05
2.98464e-05
2.60696e-05
2.83739e-05
2.77409e-05
3.36206e-05
2.64039e-05
1.17247e-05
2.57673e-05
2.7325e-05
2.82432e-05
2.0071e-05
1.92338e-05
2.94367e-05
2.63919e-05
2.69659e-05
1.06256e-05
2.0423e-05
1.87888e-05
3.00133e-05
2.21519e-05
2.61413e-05
1.50907e-05
2.84618e-05
2.39985e-05
7.56723e-06
8.18442e-06
1.1164e-05
1.30201e-05
3.36436e-06
2.68851e-05
2.74602e-05
2.20998e-05
1.95849e-05
1.06301e-05
1.91888e-05
2.18343e-05
)
;
    }
    inlet
    {
        type            calculated;
        value           nonuniform 0();
    }
    outlet
    {
        type            calculated;
        value           nonuniform 0();
    }
    wallInner
    {
        type            nutkWallFunction;
        Cmu             0.09;
        kappa           0.41;
        E               9.8;
        value           nonuniform List<scalar> 
138
(
8.01787e-05
2.19616e-05
6.36351e-05
6.67234e-05
6.85921e-05
7.56233e-05
9.14491e-05
6.97943e-05
6.5088e-05
3.65426e-05
8.2206e-05
3.56225e-05
3.01507e-05
6.53967e-05
3.488e-05
3.40048e-05
2.44243e-05
2.40394e-05
2.87749e-05
2.11835e-05
2.87811e-05
2.23658e-05
3.90545e-05
2.56559e-05
4.15341e-05
3.3244e-05
2.00712e-05
2.9059e-05
0.000103076
2.04389e-05
3.15515e-05
4.64115e-05
3.054e-05
2.40036e-05
2.98505e-05
2.02592e-05
3.92698e-05
4.87995e-05
2.65783e-05
2.87892e-05
2.98403e-05
2.441e-05
2.34954e-05
2.49719e-05
2.94841e-05
2.09553e-05
5.03745e-05
1.89078e-05
2.7959e-05
3.924e-05
3.9989e-05
1.89857e-05
2.14637e-05
4.08795e-05
3.69657e-05
3.10281e-05
3.29138e-05
3.01688e-05
2.52401e-05
2.88195e-05
4.54102e-05
1.98994e-05
3.39151e-05
4.16517e-05
4.00014e-05
3.20212e-05
3.1357e-05
2.9259e-05
2.88436e-05
1.69899e-05
2.66156e-05
2.40727e-05
2.99088e-05
2.16842e-05
3.10031e-05
2.50241e-05
3.37383e-05
4.48869e-05
0.000129796
8.93736e-05
4.34364e-05
8.57207e-05
2.63437e-05
3.7144e-05
3.153e-05
5.76433e-05
8.51681e-05
8.80601e-05
3.47197e-05
0.000120037
9.10845e-05
4.13838e-05
2.37619e-05
7.75571e-05
2.39946e-05
3.41977e-05
7.70592e-05
2.16996e-05
8.21184e-05
2.36558e-05
3.21259e-05
2.64968e-05
1.74191e-05
5.27978e-05
2.07584e-05
7.31031e-05
2.90972e-05
2.58235e-05
1.97253e-05
2.65642e-05
7.27251e-05
8.32953e-05
2.39206e-05
3.71085e-05
3.12734e-05
3.04262e-05
2.09667e-05
2.13444e-05
2.53061e-05
2.8963e-05
6.94916e-05
6.08103e-05
2.30803e-05
3.72726e-05
2.37474e-05
2.56959e-05
3.45533e-05
2.52065e-05
3.4357e-05
3.62145e-05
2.89417e-05
6.41618e-05
9.62739e-05
6.57368e-05
8.15179e-05
6.14493e-05
7.94243e-05
5.32338e-05
)
;
    }
    procBoundary2to0
    {
        type            processor;
        value           nonuniform List<scalar> 
42
(
0.00750964
0.00750964
0.00098573
0.000656995
0.00311774
0.00530594
0.00114968
0.00114968
0.00210418
0.00136103
0.00642208
0.00642208
0.00485697
0.00742859
0.00832935
0.00369052
0.00910683
0.00143133
0.00150226
0.00243431
0.00163452
0.00148129
0.00148129
0.00140476
0.00163452
0.00127917
0.00171109
0.00100845
0.00171109
0.00864453
0.00930458
0.000862605
0.000823417
0.000900217
0.0011042
0.000656995
0.00910683
0.000168743
0.00287278
0.00124594
0.00124594
0.00124625
)
;
    }
    procBoundary2to1
    {
        type            processor;
        value           uniform 0.00312605;
    }
    procBoundary2to3
    {
        type            processor;
        value           nonuniform List<scalar> 
29
(
0.00171462
0.00184447
0.000493264
0.000415876
0.000900571
0.000616154
0.000648921
0.00188232
0.00257812
0.00232616
0.00135108
0.00186314
0.000623706
0.00220368
0.00125305
0.00238353
0.00199351
0.00199351
0.00184447
0.00220368
0.00157156
0.00177582
0.000245811
0.00243137
0.000856016
0.000975377
0.00257812
0.0029961
0.00186314
)
;
    }
}


// ************************************************************************* //
