/*--------------------------------*- C++ -*----------------------------------*\
| =========                 |                                                 |
| \\      /  F ield         | OpenFOAM: The Open Source CFD Toolbox           |
|  \\    /   O peration     | Version:  v1912                                 |
|   \\  /    A nd           | Website:  www.openfoam.com                      |
|    \\/     M anipulation  |                                                 |
\*---------------------------------------------------------------------------*/
FoamFile
{
    version     2.0;
    format      ascii;
    class       volScalarField;
    location    "0.28";
    object      epsilon;
}
// * * * * * * * * * * * * * * * * * * * * * * * * * * * * * * * * * * * * * //

dimensions      [0 2 -3 0 0 0 0];


internalField   nonuniform List<scalar> 
1466
(
1.29209
5.95011
0.436258
0.9028
4.2941
33.392
2.32121
1.28907
3.68696
6.82737
0.725469
5.49001
0.120324
1.595
0.943114
2.42523
0.282384
1.44441
8.51953
1.08696
0.476773
4.05502
8.84716
4.53177
1.5791
0.26839
0.749255
3.41594
2.92635
2.04777
1.81853
38.3032
5.61344
1.44409
1.62313
0.707389
0.408259
0.42283
38.4363
4.92675
5.33962
0.566813
3.63397
1.56412
7.79327
2.88563
0.38253
2.01771
0.411766
0.378431
0.406615
7.63758
3.42622
37.3549
5.47418
3.10122
0.953938
0.650266
0.137304
2.71162
2.13071
1.80933
2.78345
30.9219
7.59945
1.01089
3.40772
0.569436
0.755659
6.31652
0.165391
0.854702
0.443322
0.897303
0.287321
15.5879
0.974456
1.11354
2.88237
2.58692
0.42384
1.0781
0.767948
0.310759
0.250053
0.235771
0.20688
6.84308
0.788398
1.77563
0.855436
0.368761
2.05019
0.83502
0.406507
0.327345
4.22723
0.268325
2.8175
0.943224
2.16577
5.09544
0.496102
4.28844
0.642307
2.49993
0.60967
0.72801
2.32944
1.56505
0.116106
0.316657
2.33611
0.334967
0.167159
4.38363
1.50675
1.44103
2.0543
2.12737
0.522529
0.940137
0.882485
5.43667
0.848382
0.705332
0.922405
3.37158
1.77469
5.66507
0.173766
1.04196
1.88745
4.08363
0.298537
2.32719
0.902517
0.152208
7.5389
1.75194
6.04848
0.439371
1.28039
2.50416
7.71616
1.64901
2.94133
2.69242
3.38194
0.332221
1.33751
1.71035
1.57938
5.21253
0.833558
0.577458
0.882361
4.05103
0.179872
2.37109
5.9203
1.04608
9.1534
0.41929
4.02598
2.15257
6.33589
2.51437
1.01869
2.2668
0.214439
0.198771
1.39403
2.61992
0.466241
5.87162
3.03867
2.33422
1.09505
2.19012
0.933002
0.58636
0.216884
0.871926
6.40068
1.48101
0.627484
6.17983
0.651597
3.97207
8.48787
2.09115
1.00894
8.20201
0.527899
0.924921
7.29656
1.5911
1.20698
1.34242
2.48186
0.201681
0.688627
0.977698
2.16994
1.0207
0.616873
2.243
0.80109
2.45215
2.15557
3.55817
0.166105
0.18972
2.40315
0.631997
0.704174
0.415963
1.28177
0.766799
3.91723
1.08443
1.28708
0.32322
2.32277
0.269289
1.32515
2.44739
0.494295
5.95558
0.142815
4.35907
0.935141
0.1202
0.8336
2.29695
0.122495
1.54182
0.131933
1.803
4.58502
0.145406
0.31554
1.28266
2.23881
0.620208
0.198701
0.543025
0.497642
0.65037
0.948647
5.75512
0.591775
2.79937
0.915581
5.33702
1.08791
6.46461
16.9486
13.5769
0.165858
0.22985
6.74113
2.11759
39.6292
1.38853
2.5613
1.76951
0.278837
0.799969
5.19437
0.896173
0.129026
1.06596
0.267436
0.153418
2.25412
1.05711
3.04066
1.5721
1.96638
0.557883
0.626717
0.577501
0.608802
0.122242
0.251291
0.270118
4.66551
1.55167
0.215939
2.03479
0.526365
14.8456
0.495321
0.158265
5.29849
8.44363
0.160185
1.30399
0.177841
4.25616
1.41883
0.473739
1.75458
0.610839
0.32975
0.14802
0.566544
28.6707
6.84457
0.37614
0.192735
3.64087
0.309813
0.249456
2.06707
0.330241
5.4655
1.22804
0.307572
2.3274
0.224799
1.45187
0.51415
0.704854
0.192382
0.582199
0.193996
0.618718
1.21917
1.28426
0.174673
0.865198
0.399014
1.45156
0.146285
0.445169
6.8021
0.395372
2.1922
0.889853
0.558286
0.331014
0.668976
0.136569
4.30065
0.445445
0.172323
3.18788
1.046
0.143508
1.75854
0.141999
0.137865
0.193997
2.74823
5.72433
32.0276
0.171763
6.38254
2.72199
2.11423
0.933208
7.74406
0.743063
0.234556
0.171811
0.678216
2.92586
0.198162
0.196744
5.10871
1.41586
0.970523
0.500004
0.644662
11.1412
0.182081
0.17828
0.133265
3.05487
0.849426
0.35034
3.07459
0.251912
0.215022
0.289783
0.121624
0.269284
0.387243
7.1801
2.39734
3.83481
1.1145
0.95653
2.08331
0.176009
0.5962
0.118487
6.91173
0.133332
2.56212
0.130332
6.56718
0.712617
2.2908
42.7452
0.601687
1.55537
0.441378
3.73164
0.225881
7.15
5.96978
0.905291
2.64754
8.439
0.294003
0.488813
6.37562
0.280279
3.5815
4.157
4.11176
5.45431
6.01404
4.1671
3.18137
4.64447
1.20793
0.396005
2.00772
3.51654
4.80383
4.51656
4.38395
1.34904
7.64785
7.36645
11.38
0.238421
3.74443
4.02845
9.50633
3.82014
5.02184
5.16331
8.44445
8.62069
11.4427
5.74476
1.79908
4.78803
2.77217
5.10178
5.21335
4.58861
2.14501
7.17465
2.68058
2.21909
3.37885
5.78244
3.57393
8.92779
3.48732
0.527068
0.898657
0.497283
2.94463
6.54695
4.33841
3.61956
43.8647
2.05708
0.911683
0.648402
6.31682
34.0069
0.85178
0.630121
35.9668
0.647307
3.93856
1.15329
0.58233
0.475307
39.0001
5.63737
4.86649
1.28869
0.586369
0.391527
9.2124
6.92993
32.8451
2.35453
9.4332
10.0617
1.48148
0.505932
8.76303
3.50836
0.258072
2.40385
6.35842
7.32399
8.82509
9.53311
5.00553
5.60737
6.96238
4.50436
1.01684
9.14576
1.21049
0.473758
4.02998
3.00041
2.42488
5.48603
3.48573
2.61192
1.87981
0.302799
3.48492
3.56247
0.308479
0.233307
0.846165
2.08233
9.63259
10.3063
2.25037
2.48474
6.50221
2.60321
0.294769
0.230402
2.48875
2.8089
4.58918
2.41551
10.4617
0.565409
0.389001
5.98138
3.97864
1.0346
0.501421
0.818974
2.63915
1.76994
2.1193
4.70281
1.55724
0.353224
3.18813
5.67852
0.275668
0.214682
2.01046
5.86278
6.67318
2.21479
0.378179
2.48966
9.84645
4.96626
1.32542
6.99574
8.20085
7.67259
1.5666
6.84622
15.606
0.171263
8.59142
6.31908
0.242551
2.30994
3.17495
2.19519
0.468728
20.2796
4.44714
0.479671
4.20643
9.42631
1.03435
1.4244
5.58194
0.365929
0.835486
0.47317
2.82173
1.48065
4.57024
2.18844
6.49142
0.595492
0.504895
0.432336
0.172392
6.4896
3.67522
0.290117
6.58009
4.46791
1.90474
1.86583
6.83108
20.5508
0.94997
0.14011
6.44718
1.62082
5.73587
0.305096
0.527873
0.473196
27.24
0.926029
0.469892
8.30853
0.118394
2.33365
0.552479
4.12959
6.96815
5.34629
0.337234
1.65297
2.31934
1.9447
2.0996
2.84862
0.515015
0.479237
0.590175
2.54448
1.07106
8.07991
0.148934
5.43364
0.321994
4.08874
2.95538
0.599009
2.22799
4.76994
1.59317
3.32029
0.221553
11.6307
4.16462
2.80442
0.596507
0.320416
2.55639
3.60998
7.24131
21.9378
4.72428
3.19762
6.28954
0.125017
3.66962
0.457905
0.601176
0.915691
0.12077
0.350699
0.662219
1.42356
16.217
3.12011
0.471193
0.3346
0.290285
0.497972
0.261322
0.369024
0.195247
0.140073
3.74829
0.194591
0.26943
11.3368
0.838183
0.620775
6.83957
0.227486
4.08221
0.831508
2.51797
0.127705
0.247644
1.3678
6.78157
0.45778
1.68371
2.39018
0.915297
1.26667
1.86349
5.26867
7.27631
0.350709
0.477339
0.455685
6.63688
0.384294
0.514257
1.23746
2.42995
4.16102
0.680999
2.76059
2.77117
3.81332
0.516647
1.73492
6.91487
0.178611
2.91058
2.09935
3.53726
6.76311
6.94544
1.4925
0.490558
0.193241
0.182448
6.62157
0.206442
0.167812
0.922727
13.9706
1.26444
0.226876
0.197765
1.15119
12.8195
0.170357
2.57954
0.6393
8.91187
4.24874
0.468637
1.69391
0.389083
0.972287
2.08605
3.28918
35.8018
6.80967
1.58902
0.928706
0.607303
1.14783
0.449915
0.65243
0.869873
5.38203
7.41749
1.00113
0.626288
0.293298
4.34285
41.275
8.07561
0.220212
0.910894
0.134974
1.94075
3.31271
1.953
7.78315
34.2654
2.52754
0.283455
1.95747
1.38895
0.213412
0.507485
0.259672
7.24567
1.74268
1.30333
0.643268
0.342761
1.09079
4.68614
12.3277
22.6931
0.19805
4.75218
0.954973
10.8288
2.42423
0.567599
0.333869
1.4675
0.256609
4.7642
0.670059
0.479497
6.41689
35.6521
0.359889
0.572749
4.96283
1.1381
6.32576
0.798388
0.311936
4.69222
5.40545
30.9252
0.51433
5.80455
1.43065
1.4428
1.78533
3.12402
0.151663
0.15529
0.514559
0.656333
0.579633
0.534058
0.252529
0.741239
1.01738
9.99567
0.768286
1.38214
7.82983
0.159235
0.138249
5.7752
5.87595
0.128713
1.68942
3.10083
3.70442
6.04368
1.50217
2.66326
0.379404
2.2334
3.30508
0.29153
0.346012
0.455239
0.389829
1.23913
0.415786
4.32621
0.140175
8.60927
5.45257
0.59895
0.414359
0.882118
0.55315
3.36872
0.527382
0.789573
0.322159
5.56411
2.12398
0.2732
0.220762
0.991397
4.47774
41.488
7.68768
1.15195
0.345636
5.70423
0.678802
1.12998
0.349852
4.63265
11.0377
7.0363
4.61055
0.160809
0.265384
0.596996
2.21915
0.661953
2.78789
0.157598
0.228525
5.23238
2.29004
1.48025
0.739391
0.278897
1.20935
3.8176
0.228553
0.336011
1.00169
4.52178
0.477116
2.56754
0.152841
10.1074
2.55375
0.536976
0.942322
6.47049
0.809563
8.9557
2.24985
1.30245
0.96082
5.07161
4.49851
3.92499
1.05173
0.596856
0.164178
0.57134
1.01615
0.978895
2.00983
0.186529
6.37969
0.352986
2.78258
0.426187
6.70979
0.526401
0.711487
0.732019
0.954086
0.799267
8.25987
10.6002
6.80409
6.12219
0.743888
5.51361
4.75582
0.809232
0.892829
0.981827
1.72856
1.03117
1.02489
5.11421
0.361531
5.72258
0.437694
4.06197
8.50947
0.467582
2.65569
0.995991
0.409476
4.34081
0.771586
0.430025
0.535742
2.05792
2.51973
1.08393
0.430727
1.03623
1.90399
0.591378
0.643847
3.46688
1.96357
4.05066
7.19195
49.2093
7.76745
0.579084
0.331663
13.5028
1.75457
0.739316
1.09267
3.61762
5.74842
2.21959
3.03439
6.57873
0.274135
1.26651
9.46614
5.45556
2.01779
2.42509
2.6764
4.81174
0.576669
5.98384
1.83446
1.6071
1.85105
2.45447
1.95585
0.584845
1.60055
1.10957
0.912349
0.113721
6.52714
0.594407
1.18394
0.114931
16.084
0.741902
0.86389
2.40827
17.6745
2.85122
6.4435
2.63074
0.417989
6.23052
37.1074
0.516971
0.664572
6.96435
5.26229
1.93828
10.3283
2.01746
0.256831
0.128186
10.1389
46.0084
0.239673
0.489429
1.26282
0.227906
2.80596
3.76493
0.184785
4.38938
0.571182
1.70084
0.550256
0.139895
6.10499
0.314541
0.480285
6.11926
0.20139
0.215117
5.94945
2.3929
0.918586
0.486808
0.77182
0.669144
1.25399
1.19391
4.48646
4.02983
7.11191
0.112484
9.49035
0.673381
1.8139
6.24058
0.176114
6.70536
1.41217
0.386892
2.68793
4.93268
2.38442
4.25872
7.13824
1.10838
7.19837
3.70778
6.2185
0.318706
0.520067
6.71711
4.80186
0.178088
4.47702
3.08632
1.13104
3.74332
0.665058
4.6381
0.421154
1.02778
6.93317
0.182413
5.48281
0.16136
0.151077
0.555813
2.77724
4.53831
1.75264
0.450167
3.13544
0.138214
0.991664
7.0007
1.34585
1.47626
9.63591
0.437333
5.07518
0.338502
0.365698
6.26486
0.475089
0.828833
0.158482
4.53333
0.169589
10.1744
4.54914
0.126754
3.94418
0.120723
5.88483
0.14713
3.65208
0.9339
1.3253
10.8475
0.142919
1.65718
0.17795
0.178677
0.201959
0.503784
2.71494
0.381305
4.02312
4.24361
0.23216
1.51077
1.82723
0.83017
2.25873
3.16742
1.61302
3.82474
0.145215
4.69735
0.635531
0.30797
5.9127
3.11591
9.74167
4.39636
1.94007
1.99998
2.26911
0.506058
0.252684
1.39998
0.840269
3.89986
0.551506
1.53105
2.9427
33.6868
2.70272
1.98296
2.39036
0.275365
2.48584
0.904347
1.9081
2.76408
0.540815
0.516658
5.04296
5.96022
4.54822
0.631245
0.123643
2.24005
1.28836
0.432939
16.1019
6.938
6.06431
0.315428
8.31555
0.116526
0.196506
1.89883
0.150503
1.00683
0.666232
0.55684
4.87362
0.14395
3.20995
0.133603
0.45981
0.153015
2.74434
4.44973
0.902923
3.63004
6.5729
3.74566
3.29148
5.00573
4.67694
4.08773
0.122999
0.134655
0.897328
1.37748
14.8148
6.33621
1.1008
0.497172
1.66838
0.264853
2.01581
1.20818
2.24063
0.521304
1.64642
1.29285
0.768305
4.79826
0.845389
5.76758
5.61453
6.20431
7.02384
0.659065
0.339244
0.349668
0.129437
12.3222
51.4192
0.239612
5.14129
6.47405
2.65039
0.156282
3.69644
5.0369
0.422544
5.08022
0.116597
0.65189
1.20407
5.28359
2.40072
0.457675
3.93004
15.2119
1.37092
0.228153
6.11947
16.0611
0.184118
23.1399
6.87599
5.51802
0.12204
0.567011
1.90412
0.445215
18.2436
13.7023
32.0526
0.809241
0.401546
4.45242
3.23336
2.07273
0.794248
6.13183
29.2064
7.04151
0.597484
6.7598
5.86563
4.33085
0.200866
4.77946
1.95552
5.7788
6.7195
0.275945
1.41349
0.169784
5.75453
0.246157
5.98832
0.285464
0.231399
6.7926
7.01016
1.26339
1.44302
0.117105
5.00756
0.566951
3.14749
0.159791
6.02812
0.176353
2.5665
6.43277
1.14775
4.18156
1.6427
1.27189
1.98223
0.201339
4.05589
1.18599
5.1178
0.434515
2.28291
7.18581
0.258533
0.15322
0.759076
0.56805
0.81055
3.13639
5.14104
1.34923
0.726112
1.7865
1.10274
0.116269
0.236198
0.777182
0.433202
7.09447
1.79752
7.95509
0.745512
1.0606
4.54636
0.840201
7.58783
0.170436
0.241917
0.631733
1.98985
1.12531
0.553135
0.172368
3.55213
0.418458
0.925884
7.78654
0.263358
0.229696
2.17312
0.625084
1.17247
0.601264
0.225368
2.8629
7.5512
0.812908
0.402619
0.66186
1.29951
0.810658
0.163633
9.61773
2.60375
1.01357
4.05624
0.12045
1.53452
1.50697
6.73953
0.754202
2.72856
0.162798
0.19592
0.842053
0.535203
4.8182
0.137637
6.37845
6.88655
4.15581
0.627141
1.50472
7.08443
0.172758
7.16278
1.03889
0.43051
2.56421
0.968721
2.00749
0.185059
5.69976
2.18056
0.168754
5.36591
15.5841
6.58564
45.874
0.876574
0.521053
0.86772
1.81542
6.61957
9.08331
2.5259
0.597128
0.329955
5.48556
1.77796
0.420525
1.64394
8.17705
2.39161
5.99718
1.53777
0.32127
4.86013
5.03638
6.66322
1.85776
5.17249
5.3019
0.481057
2.16894
3.12773
1.79327
0.16979
3.7884
0.204189
1.29988
5.65219
4.49667
1.02697
0.611625
4.35418
0.589555
47.2156
1.6723
1.58138
15.2332
3.76256
6.64386
4.45628
)
;

boundaryField
{
    frontAndBack
    {
        type            empty;
    }
    wallOuter
    {
        lowReCorrection 0;
        type            epsilonWallFunction;
        value           nonuniform List<scalar> 
102
(
0.120324
0.120324
8.84716
0.287321
0.167159
0.566544
1.1145
0.261322
0.193241
0.182448
0.206442
0.167812
0.226876
0.197765
1.15119
12.8195
2.57954
1.69391
0.607303
1.00113
0.220212
0.283455
1.95747
0.954973
10.8288
1.4428
1.78533
0.29153
0.415786
2.55375
0.942322
0.711487
0.732019
0.954086
0.799267
8.25987
10.6002
6.80409
6.12219
0.743888
5.51361
4.75582
0.809232
0.892829
0.981827
1.03117
1.02489
0.437694
4.06197
2.05792
1.08393
1.90399
3.46688
2.21959
3.03439
1.26651
2.42509
2.6764
1.60055
1.10957
5.26229
0.256831
0.239673
0.184785
0.314541
0.77182
9.49035
2.38442
4.25872
1.13104
1.02778
6.93317
0.555813
2.77724
1.75264
1.34585
0.338502
0.828833
10.1744
1.3253
1.65718
0.381305
3.16742
3.82474
9.74167
1.39998
1.53105
2.76408
1.28836
1.37748
15.2119
1.37092
0.200866
0.275945
0.285464
1.44302
0.258533
1.34923
1.10274
0.263358
0.601264
2.8629
)
;
    }
    inlet
    {
        type            fixedValue;
        value           nonuniform 0();
    }
    outlet
    {
        type            zeroGradient;
    }
    wallInner
    {
        lowReCorrection 0;
        type            epsilonWallFunction;
        value           nonuniform List<scalar> 
138
(
0.725469
0.282384
2.92635
2.04777
7.63758
3.42622
37.3549
5.47418
1.80933
0.368761
2.16577
4.28844
0.882485
6.04848
0.439371
1.64901
2.94133
2.51437
3.97207
8.48787
2.09115
0.415963
0.31554
0.620208
0.198701
0.543025
0.497642
0.65037
39.6292
0.557883
0.626717
0.270118
1.45187
0.51415
0.704854
0.192382
0.582199
0.193996
0.618718
1.21917
1.28426
0.174673
0.865198
0.399014
1.45156
0.146285
0.445169
6.8021
0.395372
2.1922
0.889853
0.558286
0.331014
0.668976
0.136569
4.30065
0.445445
5.72433
0.933208
7.74406
0.743063
0.234556
0.171811
0.678216
2.92586
0.198162
0.196744
5.10871
1.41586
0.970523
0.500004
0.644662
0.17828
0.118487
6.91173
0.225881
7.15
0.280279
4.80383
11.38
2.14501
8.92779
0.497283
0.911683
0.648402
9.2124
9.4332
10.0617
8.76303
2.61192
1.87981
0.308479
0.389001
15.606
1.03435
1.4244
27.24
1.65297
21.9378
0.662219
1.42356
0.26943
0.455685
0.922727
1.26444
8.07561
1.74268
0.256609
0.359889
0.311936
0.252529
7.82983
0.159235
0.389829
0.322159
0.228553
0.352986
0.361531
0.409476
1.95585
2.40827
17.6745
1.93828
2.68793
3.08632
0.365698
0.23216
1.82723
1.99998
0.275365
3.29148
7.16278
47.2156
1.6723
15.2332
3.76256
6.64386
4.45628
)
;
    }
    procBoundary2to0
    {
        type            processor;
        value           nonuniform List<scalar> 
42
(
25.8598
25.8598
12.8806
10.715
2.56696
26.1988
8.69034
8.69034
1.4944
0.655716
6.0699
6.0699
3.88411
8.51167
11.5096
28.7014
14.1369
0.747781
0.84191
50.4268
48.6416
0.897713
0.897713
43.3001
48.6416
1.21207
33.9883
1.00439
33.9883
23.6201
18.9512
0.684549
0.450171
0.326801
0.281645
10.715
14.1369
12.8632
31.878
1.47567
1.47567
0.312559
)
;
    }
    procBoundary2to1
    {
        type            processor;
        value           uniform 57.5177;
    }
    procBoundary2to3
    {
        type            processor;
        value           nonuniform List<scalar> 
29
(
1.20878
1.24425
5.9095
5.53236
33.085
1.46492
9.65456
1.49592
7.84398
7.3692
1.831
31.4009
1.7594
11.3978
6.45281
15.3424
6.37072
6.37072
1.24425
11.3978
5.54941
6.0188
10.4539
8.87314
6.76699
6.07628
7.84398
47.6274
31.4009
)
;
    }
}


// ************************************************************************* //
