/*--------------------------------*- C++ -*----------------------------------*\
| =========                 |                                                 |
| \\      /  F ield         | OpenFOAM: The Open Source CFD Toolbox           |
|  \\    /   O peration     | Version:  v1912                                 |
|   \\  /    A nd           | Website:  www.openfoam.com                      |
|    \\/     M anipulation  |                                                 |
\*---------------------------------------------------------------------------*/
FoamFile
{
    version     2.0;
    format      ascii;
    class       volScalarField;
    location    "0.61";
    object      epsilon;
}
// * * * * * * * * * * * * * * * * * * * * * * * * * * * * * * * * * * * * * //

dimensions      [0 2 -3 0 0 0 0];


internalField   nonuniform List<scalar> 
5794
(
0.509777
0.660211
3.21343
84.8372
28.2739
0.837349
5.52752
4.80105
89.4104
4.15334
36.8818
10.2125
8.47602
40.091
0.689549
0.17613
391.299
52.0078
0.620316
0.562279
57.8534
0.52415
9.60797
1.12671
16.5603
135.551
330
40.3948
96.7532
5.09815
6.43921
12.752
19.1735
1.92754
8.41429
7.92116
4.44118
37.7916
29.5087
60.772
21.7663
10.9107
9.47922
7.99523
0.495605
46.0597
30.1224
6.7491
3.0515
4.22351
1.11207
59.5428
1.59885
1.68931
0.173343
41.4583
27.8072
18.9748
6.13371
274.634
61.5863
0.593
7.40952
16.8722
23.3533
0.357559
36.3471
24.0617
53.4377
0.627311
81.8291
48.6056
388.623
0.922233
53.8108
15.3028
12.7394
93.1562
7.47567
0.810479
0.666041
0.824923
28.376
18.251
22.5631
54.7343
34.528
95.1678
1.32195
11.5347
104.18
20.1763
59.9853
106.02
28.6821
65.2447
77.7489
48.1623
18.5884
68.9789
50.5563
6.01594
7.63686
36.8953
0.50909
96.5707
0.601462
8.68969
43.1416
6.86704
0.709727
0.469717
53.1571
0.594903
22.1949
81.2322
1.9792
76.2141
55.1532
22.2416
77.5732
1.01249
7.1588
31.0747
0.416837
52.6713
66.2364
0.83811
70.2956
10.3692
13.4938
7.21311
39.0369
79.2823
92.4897
0.923233
125.821
0.563023
0.338022
0.659801
1.50409
19.9909
0.409537
22.5001
0.426348
360.466
45.5841
56.3036
27.9443
9.72093
12.1665
1.01924
96.0103
10.2673
374.758
49.796
20.3632
19.223
81.2876
30.0864
0.686645
8.5604
1.3563
9.45397
58.822
71.2212
11.249
6.73207
0.833494
0.537335
2.34355
29.8976
10.0881
10.726
2.19378
9.91149
1.12434
13.9194
0.974653
76.8871
8.05941
26.9139
4.77626
43.3276
5.01536
394.965
8.47768
14.7528
4.79759
4.79069
47.4092
16.1596
24.839
6.71441
10.8282
17.9905
8.92362
0.723191
0.59962
6.93888
8.0764
63.3326
7.91624
6.62983
35.8989
55.0046
9.09991
17.9505
164.924
43.3644
2.43207
10.3195
6.39253
8.13013
1.56768
10.3601
7.9712
47.0874
28.4169
77.2348
9.88735
21.6766
148.649
47.4915
156.592
172.358
4.03805
4.55947
12.1688
1.52388
6.36197
7.07739
5.69048
32.3759
33.8669
200.705
226.758
38.1794
10.0605
1.02279
0.627709
52.6624
35.1724
43.6759
14.0363
0.696484
0.390755
34.6742
139.647
69.1228
36.4397
0.434592
365.34
0.366989
5.00078
109.301
7.25438
20.4545
14.0841
0.454828
87.4439
5.9568
7.47234
0.469855
34.624
5.36455
16.7841
71.1241
0.525184
57.6344
35.8982
13.1455
12.5668
75.8547
16.4946
1.27847
1.89277
1.09438
1.16567
8.41754
0.590656
77.1708
20.3954
11.4309
47.6451
91.5347
37.5454
39.688
138.432
78.0862
6.87067
7.21742
3.43966
2.54287
4.84129
145.998
21.5275
13.714
52.9233
0.351219
0.954294
54.2657
0.525167
40.3729
4.04655
74.193
1.3098
47.9065
65.0936
40.2646
15.4877
42.2988
45.8035
0.523182
9.82047
35.3922
11.5754
49.821
45.3636
123.527
2.62455
13.7275
76.4145
35.1474
0.19182
12.388
1.53815
12.675
9.35026
34.035
70.3289
8.75641
7.92497
20.0721
12.3369
4.93737
5.42635
1.0669
5.28926
10.0418
1.56005
18.9813
74.0647
12.6417
1.70086
3.67564
68.3449
38.3511
80.7671
57.1513
41.1106
300.488
32.2971
21.104
6.77653
307.231
0.628451
78.3709
6.06581
5.73355
14.1534
21.8918
101.763
6.33908
6.81161
17.8609
63.4155
54.296
36.0087
7.92726
1.75869
0.441442
12.2684
0.697721
19.6779
48.9134
39.8088
28.3242
28.1143
0.693556
8.34309
2.07777
12.509
7.70219
7.89613
1.67332
84.0405
4.83383
5.67367
14.0904
6.06299
52.3572
0.610649
0.473444
6.82564
7.65825
2.07264
7.13471
0.919218
8.47721
0.961218
12.7713
187.678
0.966845
0.621767
48.1252
4.93541
0.770524
0.824488
75.2401
43.6046
18.5986
30.9771
27.6323
74.0427
47.6705
14.645
65.8565
53.0801
76.6197
18.9985
46.4997
13.2859
1.58878
10.9831
10.9432
1.99525
0.648205
0.535069
0.564633
58.8705
5.76222
18.4941
78.2138
0.430297
2.02193
22.2384
10.0451
8.01334
7.7347
1.47515
8.11301
6.05049
10.6596
1.05097
89.3492
24.3983
0.20749
7.38756
53.0493
4.91672
0.555227
81.7432
0.560386
61.6034
0.614313
70.9172
69.8439
33.3713
157.298
0.510379
0.496302
9.35593
0.586455
77.8107
10.3542
169.27
40.9034
16.6913
5.32004
0.334972
205.213
48.1997
7.32573
3.61586
93.9546
188.125
53.078
1.94492
0.551197
20.1994
0.508167
6.9157
8.96659
13.3372
32.3443
10.1977
1.17683
294.192
0.576105
0.703335
78.8269
80.4524
43.4479
4.13513
0.722474
2.59887
1.90956
0.18811
43.3216
74.7147
204.196
8.81272
6.89569
18.6702
0.503555
0.500337
34.9541
37.4625
0.439599
63.3299
1.43897
11.4176
0.644429
0.426209
19.5201
69.9609
0.550745
5.55744
195.72
1.05336
0.503885
36.4788
73.1656
10.9188
0.764856
2.68416
46.6256
0.53056
0.489387
15.5997
0.979029
166.082
1.89009
11.4408
1.56357
6.60867
167.416
9.73966
72.7
0.543945
94.454
0.574808
46.6007
1.31388
0.213457
5.50694
22.7272
0.641948
1.21491
32.9203
0.689231
0.97717
3.82513
1.24416
0.453583
12.9143
0.465478
0.614508
10.329
640.256
3.73175
61.2319
1.30651
43.8761
1.06054
0.175133
7.35901
0.57109
0.377239
88.7858
26.381
121.407
80.097
159.973
8.95121
48.492
50.2283
13.9467
22.5335
73.5728
23.6387
97.5007
196.208
78.1682
60.8938
0.651631
52.0012
21.3389
84.1099
0.428979
1.14005
0.433215
85.1212
25.0931
40.9192
0.655512
9.33139
0.458569
2.74564
0.463896
102.808
23.923
97.3126
0.490466
7.99435
188.896
6.00782
0.202283
17.4132
52.5125
95.4113
30.6564
2.78933
5.61796
3.97765
39.6192
28.6256
7.80282
51.9301
0.604365
45.1048
61.4121
12.272
0.580701
0.904518
0.741285
16.0775
69.032
0.663861
0.556194
0.719005
0.387658
1.31886
0.5376
7.17464
108.557
26.3839
14.765
36.6859
0.942079
9.62117
26.6053
22.6765
129.51
123.08
33.9188
48.9763
3.06229
0.256866
0.457652
3.14437
2.59953
3.50852
3.82769
77.6303
236.004
23.9013
187.952
0.693965
1.55044
7.83533
0.586527
40.0731
0.622697
36.9305
140.578
95.1934
38.1416
45.6127
40.1323
6.82449
205.092
50.8744
11.117
26.0556
109.384
1.30242
31.3859
1.99802
0.284591
23.0577
1.5287
0.226298
10.1079
141.379
98.4899
1.70597
1.09102
0.358832
28.9781
165.973
97.4806
33.3815
3.35139
42.8063
16.5335
0.848348
0.318708
9.82549
3.49593
10.4855
0.992981
21.1473
11.6284
160.511
83.3355
8.06685
3.2081
104.764
24.0448
178.193
36.1008
59.9125
39.2073
16.2056
8.79565
319.144
49.6794
24.7758
39.9673
136.236
165.421
1.14863
91.8704
5.94497
16.4898
28.2205
86.6616
38.9466
33.9198
56.5963
123.286
30.9321
2.95245
4.03059
385.913
10.8079
19.3484
55.1982
91.332
1.06617
0.730393
8.57134
3.75071
77.6742
40.0174
121.497
1.97074
8.98331
0.441247
3.2302
1.65487
0.647299
22.2976
88.7571
5.1049
110.776
29.9366
9.25231
0.908667
199.787
70.9339
33.7947
139.771
92.526
36.2828
52.0479
5.56903
47.9295
20.4455
80.3495
11.5328
3.32962
7.76193
0.378549
0.658986
2.06452
21.2768
1.09445
20.9408
269.349
5.45336
0.50965
0.498353
74.0913
28.8867
20.223
78.7301
25.1272
0.416625
76.8164
53.9294
48.0471
3.64339
32.3112
0.589933
124.308
0.540811
109.67
9.65098
12.4397
4.73095
1.11173
0.384801
1.42866
20.0135
39.8414
83.766
179.155
35.416
1.30633
3.52673
37.0154
135.24
0.613498
15.8424
13.3309
66.852
0.827095
0.497693
10.4606
55.1516
161.564
0.65374
17.4376
1.24194
7.29769
4.83229
21.9509
57.1502
77.7421
9.32757
1.59411
66.8233
7.21237
1.02107
394.52
1.55649
0.707014
2.56219
0.629012
19.8397
0.506806
25.7259
0.584544
2.90849
6.34468
10.7411
157.211
25.7249
105.466
31.0382
49.833
70.7112
41.7672
185.602
21.4966
0.404032
0.291059
5.09221
9.4777
4.65565
10.5581
189.994
40.6047
131.249
16.2038
1.81362
56.0067
0.427789
14.1288
56.9205
1.1592
284.67
1.27985
2.43856
75.6902
18.4917
6.37428
10.2567
55.312
10.0418
7.3049
0.317333
2.15926
47.8093
69.5691
5.99745
10.0808
37.2323
4.68699
30.4764
127.206
67.366
83.6172
22.9084
0.564087
0.660517
8.34624
0.40352
2.00629
0.620555
1.27955
27.8745
0.512119
7.35932
0.482881
70.0742
51.6961
15.7446
8.09976
7.55829
15.0358
180.2
19.6974
69.3416
6.29533
0.498544
172.21
12.6896
58.753
7.2768
104.152
42.4291
48.8817
0.626587
116.945
85.6035
4.63739
5.2437
5.45714
1.65247
1.22176
73.3604
23.182
91.9285
75.0642
19.016
46.017
11.9287
13.6831
0.885707
0.686641
16.9304
0.364565
143.83
19.931
172.049
6.95075
70.1661
59.9515
0.6061
0.61367
130.784
190.351
10.043
6.07485
23.1989
64.293
3.86592
23.6085
0.391134
4.0236
4.86391
0.368412
0.428337
1.65726
0.423076
0.402178
0.64355
0.423241
7.96148
60.4725
5.35659
1.64382
0.446049
84.5229
9.71859
12.3653
13.6113
22.6407
0.35278
38.1657
4.77856
3.01065
0.623192
7.32266
42.0191
0.479344
9.99356
2.30831
0.420121
9.22993
61.3344
21.495
81.738
136.05
0.553259
11.0555
29.3051
13.9196
29.8455
37.4432
35.8513
96.1902
1.05842
3.98575
0.505471
0.171763
19.698
12.8621
201.686
147.012
93.7126
0.261097
12.3302
124.817
48.4318
53.354
57.2306
0.577329
0.563488
0.474199
28.8947
11.0322
21.1132
4.5704
1.08249
4.41586
4.82309
10.1275
0.898032
0.788703
0.796394
17.9708
17.9695
11.4996
0.604444
8.1997
63.1862
0.387295
7.03196
1.9061
4.93809
12.4625
0.404383
24.3172
0.429606
10.3577
16.1168
0.70777
30.6492
11.2052
0.610931
3.55076
61.4181
0.363079
62.233
1.78006
0.87684
0.444546
2.10923
0.848437
0.415859
10.3641
0.487196
0.91596
2.47598
8.7432
8.57543
58.4469
29.6259
9.40937
93.4286
25.9481
1.13212
0.553463
61.6882
7.3142
22.7297
80.7849
1.41373
18.3728
0.915507
58.1078
1.05165
53.9397
1.3684
65.8401
42.667
0.658226
36.6017
2.00596
0.28804
4.59898
0.694749
31.018
34.252
0.957746
38.5244
0.218815
0.809796
2.88781
0.47218
0.589071
31.8593
2.06949
18.0932
1.22237
126.338
1.7809
1.06587
0.461307
4.50356
51.7914
18.8126
2.19619
28.971
7.48
15.2901
82.2215
30.544
0.383291
0.732429
44.8339
17.7061
21.9185
6.87163
55.719
77.2078
67.1328
25.8027
61.1301
9.09036
8.90888
3.45249
6.05006
3.00899
0.533754
960.442
40.8272
0.556775
2.93332
53.7356
49.9269
8.67494
0.331545
2.45732
23.0323
2.35235
0.426294
26.3707
1.14938
21.4367
13.258
59.7563
0.773994
0.425659
4.67128
2.22154
2.57259
31.9942
0.504961
43.8457
0.584579
67.1777
16.8221
3.54133
4.3975
24.7473
9.24927
17.7742
11.5849
4.59249
1.69742
3.23828
8.97118
11.1618
5.52369
0.678552
0.582158
22.121
35.9887
26.0569
3.53473
5.07743
7.37493
4.76411
8.04917
7.7818
3.48687
25.7225
11.1053
30.684
0.260536
60.2658
0.409368
392.227
0.533486
0.766532
4.45068
0.871763
0.677077
46.2544
5.41382
6.85535
0.491793
3.382
36.7185
207.106
69.3733
1.48521
0.452047
10.7812
4.04206
55.7984
17.3518
4.5255
8.61392
0.431902
58.8347
6.68144
22.7915
30.8345
5.76584
8.95894
35.1893
7.53024
0.901437
21.2102
75.7093
32.6009
19.9034
16.9713
6.57788
0.284413
58.1858
186.361
37.7742
115.389
0.470878
0.514287
40.6092
9.98497
0.889752
0.22201
13.0745
32.5744
0.640867
0.794565
0.690192
0.308228
0.733233
2.61031
4.04178
24.5862
0.426023
13.8195
22.525
109.299
59.3801
3.29773
34.7186
4.43496
72.2929
0.85897
49.1303
103.094
31.8854
49.7456
4.72195
20.1291
34.116
171.009
5.10503
3.14203
2.31028
52.1985
0.42953
2.56048
31.3792
16.6746
5.27062
48.4895
22.5327
7.06042
15.7404
0.435246
0.410347
7.39158
9.44251
0.638638
3.02923
88.6014
9.35813
50.5588
45.835
40.8844
0.295585
102.157
1.12279
35.6168
5.09671
8.04888
15.4782
0.393863
11.8016
0.405252
2.04354
0.219853
30.8374
1.23472
17.4978
4.86121
187.601
3.71055
143.654
156.466
3.95287
8.83981
0.432534
23.726
3.55344
63.7727
72.3675
1.6233
0.253414
19.4896
26.1713
34.6392
154.995
64.2709
108.586
57.8398
13.467
0.462992
1.42552
15.514
2.01317
74.7165
1.78507
0.406289
0.810694
18.3755
0.352902
1.33238
1.3994
6.56091
3.26835
5.59063
3.61638
0.379225
7.60418
10.7513
36.8778
13.0993
0.35818
119.855
29.2077
56.008
18.4313
1.57129
42.9597
2.37625
0.834068
0.553392
3.16271
778.172
11.3808
38.1002
20.2743
70.9449
128.594
19.988
2.56689
0.630541
0.377343
1.73392
0.198216
2.34831
2.16227
0.611804
2.94179
0.161948
0.204192
1.7782
0.9077
0.750286
0.716679
0.126663
2.14863
2.30395
0.286833
1.64963
1.37422
0.618351
0.784931
0.592336
0.426893
3.86536
1.80446
0.577791
0.136282
0.762113
1.38931
1.99158
0.621131
0.158071
0.14921
0.909895
0.35195
2.47089
0.418246
0.171909
0.705403
0.637732
2.09176
3.27114
12.1463
9.49909
216.359
0.725111
0.911808
36.5274
92.0925
17.7071
2.20412
0.427089
16.3923
1.94337
10.1403
67.5268
479.2
34.1992
101.768
21.6351
0.919711
1.02602
0.41749
1.77173
0.827903
19.2749
0.442454
3.66308
4.00593
0.586209
18.3283
8.24448
3.91368
24.4461
25.3289
592.98
1.63504
7.31033
3.77786
14.4266
64.561
2.6083
55.6594
40.0791
34.1119
4.6178
2.46077
13.0225
21.7862
11.493
13.9055
1003.29
1.63928
1.35938
0.305136
45.0913
26.007
1.15938
74.9704
49.4259
0.469588
0.28881
1.72254
2.51353
1.15601
2.58901
0.107832
0.56778
0.66748
0.124474
2.06743
2.09983
0.572377
3.97673
0.634428
0.743665
1.52466
0.74865
0.315936
0.689967
0.28211
2.7388
0.253814
42.4153
61.9543
6.65313
23.8638
12.1465
13.9162
32.5549
0.604964
65.4276
19.1637
8.40317
45.5351
26.7092
5.84842
0.615785
26.398
44.4074
6.78332
179.064
91.9756
14.7078
0.203996
58.036
31.6598
2.02124
62.4407
13.5114
63.3239
2.2431
1.14417
0.260419
59.0732
1.69662
41.2891
37.153
0.540782
114.889
0.635891
73.7204
0.784842
0.477289
0.760716
62.9477
1.7634
2.3433
1.15083
1.56147
108.41
10.7385
76.455
19.9047
14.5932
33.3338
116.925
0.596017
9.11885
8.77609
63.9369
44.2615
2.20415
0.334924
3.90783
1.99768
50.4173
10.2508
1.57861
0.243036
1.20272
2.99105
0.362096
40.9163
4.55937
0.325156
1.14306
82.978
95.4608
12.1345
13.7807
69.6511
0.137749
46.8593
43.0322
33.745
43.4064
39.0686
1.54434
38.3889
0.345176
2.62545
2.7967
47.1687
7.98003
10.8826
13.4927
27.7713
2.80932
0.463522
0.561758
1.56926
8.02449
38.9578
40.0646
178.509
44.8152
41.389
43.473
7.35336
30.4502
29.5568
60.7624
12.5621
28.9452
40.0425
37.0401
36.8737
111.14
116.718
1.43032
59.6068
32.2215
22.4309
11.2061
14.5867
106.083
39.5145
12.9364
50.6146
37.0443
119.623
3.33005
9.76039
299.179
1.87528
43.7627
16.9534
0.5269
0.454817
1.67571
57.6829
0.541306
0.486638
4.29681
85.9012
92.1164
53.1377
56.833
95.0991
63.6884
99.5214
1.83062
95.4761
88.782
73.4867
72.6359
86.974
65.2255
87.6877
83.4431
84.9166
10.3692
8.62013
17.3092
173.906
4.88104
14.9801
12.3882
5.16677
0.718474
2.42239
32.3258
58.2672
7.24457
3.32581
1.85002
29.5995
58.7665
16.9969
11.7973
9.69964
4.58474
7.05152
6.14793
29.4778
3.96688
117.119
5.76664
2.40404
0.95888
4.54727
2.35113
14.6472
2.88202
23.321
1.17709
1.16254
15.0547
2.92598
2.44812
2.40007
3.82253
2.06659
70.8662
2.28263
38.9818
15.8717
5.31129
48.8583
103.173
2.16616
86.3411
29.0365
18.0036
127.57
0.850722
1.11131
114.117
24.0653
98.919
2.36819
5.93438
124.413
111.868
74.186
1.39488
1.77544
0.841591
20.8816
6.3694
339.139
2.01309
6.24254
10.0054
2.66504
17.0785
0.636573
5.60984
50.9223
31.2044
8.98155
321.089
81.5019
0.780177
83.5745
3.21527
11.3029
9.76728
0.796653
131.017
7.33614
311.135
9.1828
10.9117
0.950561
56.2707
299.069
0.445714
110.411
42.6154
4.64573
8.83986
10.3785
0.399936
8.31062
51.3212
33.7151
53.741
187.352
162.078
3.37084
11.8968
2.27186
82.3829
12.0213
1.7082
0.498943
223.619
0.464431
4.00027
0.438477
30.6123
15.5128
3.4566
8.56897
9.36143
10.1406
2.56445
5.53412
43.0755
4.112
3.10076
8.27154
5.27232
2.26577
7.5949
8.04496
0.364382
65.6282
9.04382
7.36541
0.55024
0.548931
4.72138
10.3731
6.80465
19.7156
1.68926
6.83606
32.5604
45.1974
4.09741
7.73268
2.03078
30.0058
0.726298
0.629916
3.3592
3.0721
0.678404
0.851755
6.43299
17.7115
18.5763
191.461
0.756305
22.0717
4.02441
0.604714
15.3257
22.6868
46.56
1.82476
3.81196
0.695344
1.18728
2.25663
24.4326
27.6888
1.00697
7.04313
0.694006
2.31743
2.56605
2.1795
24.8379
18.6083
17.1861
0.386772
0.884595
3.94682
2.71807
23.1177
1.63445
7.49739
0.475431
3.24027
0.409354
0.485207
33.0157
7.11453
50.5429
19.0965
3.01168
5.00073
0.647432
0.712884
26.2083
50.1895
6.154
6.55234
0.661612
18.6373
8.70718
2.11814
7.75925
0.648292
0.485623
0.502349
210.902
29.5295
2.35905
8.77818
6.57504
0.352496
2.53556
0.418899
0.525606
31.6362
5.02361
5.29252
7.94254
0.542698
1.91379
0.440333
0.52794
57.7567
38.3658
8.09215
31.7055
80.3003
5.1996
4.04623
56.9454
217.052
12.3427
3.24554
5.74098
44.1285
51.3702
0.450786
38.4135
21.407
6.6011
23.7404
2.57605
1.87949
0.41939
0.511432
15.4715
54.0235
21.7366
27.8614
76.7963
0.215573
204.143
163.661
1.30271
6.50487
5.20434
14.6344
35.1709
6.83908
0.676087
1.02423
19.3587
8.26935
0.75342
32.638
42.0581
49.4882
7.31047
42.3772
6.54835
3.62767
21.1386
4.08129
4.06871
63.645
36.3082
37.1417
58.0978
5.00444
5.75774
37.4386
19.9381
14.678
0.826268
1.62003
0.506368
0.569898
50.8148
47.823
4.05804
26.9767
59.6274
54.4162
73.9138
6.71655
3.4258
10.4756
6.12285
0.22529
173.407
1.18954
44.622
47.1218
4.83146
11.697
106.667
3.05323
3.77667
7.93247
8.74009
7.59077
31.4755
65.6933
47.2134
2.53944
36.7347
36.933
6.49319
2.70996
12.3581
5.57635
4.72856
14.664
3.46873
5.01023
3.22942
1.60128
0.434892
0.535592
83.0882
83.7267
6.18797
1.79869
96.5035
71.0125
25.5829
1.51112
59.6662
9.7378
3.81443
12.1813
0.221514
188.599
1.12108
1.12657
3.73047
122.349
74.7766
83.033
4.8834
81.094
78.9772
21.7405
17.917
14.1322
6.68129
11.3712
0.767447
0.68878
0.728359
0.594757
68.0804
24.0382
4.71551
7.1152
11.5171
75.6563
19.9226
102.088
78.365
14.3539
0.563561
44.8952
0.739572
0.604096
111.79
45.3269
82.5031
93.4883
41.8127
12.9777
13.2635
5.55447
5.31598
3.56461
0.619366
1.48037
0.476738
0.503984
1.43111
1.03781
1.68038
95.7079
78.8504
17.0923
77.1281
9.60752
30.7381
2.40843
6.83555
48.5084
34.3322
38.8692
32.476
3.46939
6.22735
63.2494
8.50075
11.3107
1.45532
71.2969
3.25033
1.71335
6.97335
32.038
66.0828
11.8394
4.03711
7.2013
98.3041
6.46264
1.97208
0.786631
0.213627
3.60328
3.58265
91.296
3.39394
0.553248
0.52397
25.0891
1.18744
10.1775
60.1494
1.50762
172.584
0.694055
0.669044
2.58862
29.77
172.29
2.6835
0.745495
1.97493
102.878
42.4695
1.58175
8.38407
3.47407
4.10795
43.7153
6.79362
0.463161
12.0643
7.23162
0.977101
4.59496
2.92778
3.43519
11.0338
5.60686
17.3983
0.920098
7.83429
22.5325
16.2595
4.02912
23.0858
25.1227
6.38947
17.7408
46.3667
0.681388
89.0619
32.6785
37.0398
40.0958
6.615
122.969
30.3339
51.1763
0.608051
77.8316
1.61566
11.72
0.933146
0.373898
51.4379
13.9634
38.2506
9.35076
50.5359
41.1623
5.34354
61.575
7.51751
54.8306
10.7052
7.47211
23.7544
1.82118
0.35943
0.552006
13.7598
148.304
53.8873
4.6264
0.391137
88.3978
13.201
202.609
114.229
52.6493
84.1186
25.6061
0.571561
31.8092
11.5198
5.70526
74.2234
87.276
2.30722
42.7109
34.8302
24.6507
80.8752
3.27374
44.4994
59.2396
33.7466
2.6683
1.04874
20.8516
94.7494
2.5017
23.7031
86.7542
86.3439
25.4867
1.44705
1.45856
25.0966
56.518
6.21068
31.6585
58.4486
32.5999
4.46221
24.7432
22.5634
114.225
17.4955
4.93082
0.44823
0.400845
29.2778
155.508
37.4253
88.0617
61.2993
379.877
2.13863
14.163
8.99044
83.3781
0.625506
184.715
37.9099
1.42887
0.569274
12.5154
1.15661
1.67001
95.0669
87.1366
92.2702
34.4591
166.59
57.0178
15.1719
18.7626
83.9956
84.1201
7.69977
650.933
5.07578
3.264
4.78008
90.9718
5.13972
21.8268
41.8819
5.8899
2.58777
42.374
8.53599
2.3757
34.3083
0.351644
41.2929
0.517143
61.3856
0.629359
46.608
16.2181
39.7663
17.2985
20.3932
71.6599
57.936
0.4756
120.864
0.525418
0.622924
2.14939
0.252638
2.59229
84.6225
30.6501
105.14
8.07188
77.8649
119.862
2.41513
25.2477
0.727865
5.08332
4.06214
0.214503
75.6427
52.3251
0.596229
0.650311
78.3213
2.38312
16.9762
3.9
1.07119
16.6492
5.62825
101.414
2.76283
32.8521
1.95834
5.8432
13.2764
104.923
4.1961
89.9228
73.4589
2.22926
5.99364
35.9813
2.08429
0.578229
103.522
1.54955
1.3465
182.26
11.223
100.95
1.03749
68.7
53.1706
0.348315
26.7035
18.5229
87.5544
47.6644
10.839
17.0612
45.6215
33.4821
13.7238
9.9401
8.74912
5.51881
0.429642
0.404925
58.4754
27.6081
17.8109
0.882906
88.6508
9.70703
77.0553
24.0979
5.29062
5.22994
68.9661
75.6088
5.94379
0.502595
0.946945
30.9684
27.3711
33.3441
1.71852
2.37518
50.0487
97.9859
3.15988
28.8274
126.553
68.4037
25.4254
69.5286
0.151512
11.6355
4.98771
1.60012
0.389831
0.506881
26.7211
1.56045
8.51371
58.4261
3.50987
50.2929
11.5332
11.9943
32.0942
209.618
5.92678
24.7977
1.24476
20.1003
66.4221
17.0374
19.0639
2.10026
0.267671
0.521411
45.4318
15.2999
44.4127
78.6678
15.9436
31.214
196.064
38.8607
65.5928
0.160699
58.406
0.270765
2.39315
48.7763
26.5355
22.0302
1.79478
4.12877
32.7124
35.6213
0.520035
0.963638
26.6642
83.6598
6.48756
19.1787
18.5532
66.5664
212.538
155.771
2.89842
13.4661
63.796
114.648
9.92299
41.9645
5.19276
10.7094
24.2027
58.4167
16.3726
28.5955
0.754491
15.8118
0.222091
19.0636
23.8168
1.62968
37.2179
0.227071
11.7216
102.303
35.1798
0.65099
3.51314
39.1733
40.0309
53.9683
30.0869
0.595839
1.07723
0.199409
0.441683
1.53551
3.20435
120.078
0.378184
28.0499
43.0751
2.2984
2.89894
3.68295
9.0375
93.955
1.62836
0.296246
0.398798
0.91746
30.8165
11.2558
4.19713
0.721881
6.04408
0.510396
0.450874
10.2831
14.8205
5.91435
22.6515
20.6316
2.55436
5.08711
16.8676
47.1039
1.05431
0.165321
0.431243
1.49791
1.64079
25.895
3.13487
64.9832
67.3021
44.257
59.1696
1.81028
6.35108
5.66356
228.255
16.9035
7.61885
1.85408
0.277098
0.498564
4.98269
0.505395
93.932
192.875
7.39167
1.33287
0.43524
0.507928
0.23185
23.4201
1.48346
56.2304
30.5725
31.8234
69.2091
0.152844
1.11894
7.58974
106.132
0.817393
58.8803
14.6494
31.1546
0.538074
6.81633
0.565123
15.8876
26.9217
25.4036
28.838
3.02227
3.18361
1.77656
0.717401
3.14353
13.3333
44.9638
21.137
4.53756
30.996
17.2804
8.52931
6.544
46.1012
7.55032
19.2108
1.19741
42.4653
71.2148
102.663
13.2931
0.557448
1.21359
0.166013
0.619072
1.55747
13.7968
5.29635
9.73185
89.2775
1.80311
2.72852
47.8314
7.92625
30.1933
10.8107
18.2582
43.1124
3.71756
7.75365
15.8776
7.2343
11.8061
1.48634
6.22999
18.6715
0.693519
12.6253
24.0314
3.0316
5.66757
0.567706
0.330258
0.572722
0.501291
0.616755
0.161811
1.43332
1.68364
8.69387
4.49416
0.505264
0.888253
73.049
28.7904
13.6825
36.6343
1.00865
23.4869
9.61689
75.6038
46.9526
33.2659
355.299
10.1852
67.6409
93.3806
119.512
26.1211
0.22887
0.375183
1.49787
0.230441
0.442629
7.6507
14.2934
82.9936
0.197466
0.148082
1.27646
8.66068
12.6887
60.5717
1.0515
0.121316
59.8912
12.9328
14.2347
10.5041
10.482
1.28
21.7349
19.9082
100.436
0.524502
15.3241
102.302
5.49829
23.6081
39.511
0.311936
0.795754
4.32413
0.551957
0.524681
1.42945
0.530254
2.59677
3.88647
5.55916
0.533392
1.88356
4.85849
161.817
56.6509
0.382916
1.72748
0.374445
10.5904
7.18996
1.47995
8.45719
34.784
2.54962
72.0821
7.89148
33.434
94.484
268.263
61.1809
30.6631
3.20662
8.06535
25.1991
34.1821
0.579071
0.155347
100.464
2.5137
81.3643
1.82994
3.29865
12.4089
158.107
36.8359
0.854107
1.23328
34.5204
13.8976
4.79667
2.44324
12.1842
13.6367
112.013
0.594247
36.4893
1.74614
0.212062
0.445063
0.209401
2.6065
0.200342
51.2343
3.87877
46.0266
94.8586
18.8801
13.6865
199.361
8.10921
5.37168
143.666
9.7463
13.5298
190.251
6.41579
127.884
1.9384
0.20695
0.467148
66.167
4.23273
1.47289
0.582315
0.749842
2.09872
23.6598
94.5891
28.1292
9.74434
15.6836
85.977
28.7705
27.1088
36.944
18.3623
13.9263
94.9095
14.2977
180.383
25.5948
0.434485
0.434173
1.03363
35.1778
1.49241
52.7901
50.7683
21.678
5.61681
16.6346
21.26
2.08929
0.526602
1.40909
0.437201
2.38164
35.7296
9.44368
21.3161
17.5428
8.73527
33.9234
54.7636
25.1537
281.234
16.4361
0.440331
1.14344
0.524132
80.9755
0.786604
33.3548
2.1541
2.24672
0.855858
73.2669
57.7435
5.83283
5.93216
34.4055
49.6717
1.36793
0.593887
2.27671
23.8935
290.413
7.88509
23.6422
33.1463
53.1459
11.7795
9.61344
5.33281
16.1586
65.7848
4.78576
1.40805
5.89955
0.947356
24.6634
0.722546
26.2738
286.368
32.6335
5.11124
45.6939
0.598058
9.79463
7.82107
1.09269
30.4735
1.48623
0.491763
0.769208
21.2442
89.7891
49.3321
21.0384
3.79652
0.382881
1.18286
1.18454
0.241664
0.367207
0.726653
28.3399
56.3357
27.8921
8.23235
16.2181
105.033
53.4345
9.63965
0.517986
0.893458
4.29346
141.734
130.764
40.9187
2.04099
0.179598
74.0114
2.9457
17.9867
33.0843
85.1615
1.32998
115.749
58.4293
26.1373
7.80153
94.9066
296.805
1.49847
36.081
0.196695
1.66742
65.9209
50.012
0.896112
0.275061
3.37023
1.51467
1.45631
81.0762
8.42156
11.2355
206.318
20.1664
1.64939
60.9104
29.6624
12.9697
111.771
0.228808
20.8422
0.41558
17.7636
64.7306
1.04166
19.4585
37.2091
7.25015
69.8315
0.255362
1.8349
40.1693
130.915
53.4292
78.644
22.2188
307.605
3.02853
28.4335
47.5983
5.32079
103.802
21.6291
137.459
22.8507
9.1471
250.095
46.7571
17.0489
3.39796
0.398922
0.631278
35.4207
1.44934
4.37681
3.9132
28.3313
31.0864
0.967696
0.180793
1.84038
13.3663
73.4551
0.928669
0.211814
13.0552
45.6033
29.1914
18.4409
1.34888
120.795
21.4928
1.66613
16.7306
54.6582
0.131046
47.9339
26.6791
61.7383
32.5325
33.0467
10.24
3.50256
0.896598
0.374515
1.58275
0.505274
7.32095
9.94128
60.982
3.26916
15.0945
128.277
45.2088
37.3237
2.69965
8.23794
22.8281
3.10787
12.122
3.42597
68.8749
120.698
79.594
35.7089
71.301
1.19662
38.1298
42.8275
5.26496
0.303921
0.772319
88.7648
29.4345
1.97792
65.1185
80.1229
3.62786
49.1728
23.3324
66.9167
158.852
68.7782
1.43182
61.5742
0.443915
1.61223
0.321234
55.5434
27.1787
76.575
0.626217
0.797296
103.897
4.39155
0.920958
0.799753
67.6535
37.6692
89.8173
146.507
49.4532
0.414386
0.720751
38.0108
34.7538
166.34
141.238
192.771
8.78138
0.556441
101.037
92.2805
0.437732
0.250571
1.68049
0.688313
1.05847
5.72841
103.123
45.8758
0.655245
27.7403
42.7146
7.48245
66.0952
99.1453
67.3358
6.07368
32.9482
0.77189
32.5583
16.2831
6.16335
124.115
158.775
39.6025
69.4774
346.743
296.534
2.00052
0.603012
143.284
76.0062
2.10825
6.08026
0.359906
0.593896
33.8619
107.616
53.0947
8.45666
1.09481
81.7582
0.576767
1.41735
0.357238
0.920804
0.227643
65.0804
143.651
73.0491
5.29181
108.235
0.205659
2.16708
100.753
38.7278
53.8705
33.203
9.34318
97.3978
62.8657
0.685396
6.77595
11.2121
8.97839
4.34522
2.6498
83.2614
34.0021
33.2023
11.8914
27.3481
19.0547
19.595
0.258116
0.537977
52.6788
0.817847
13.9625
496.958
10.3411
90.4815
58.1802
0.373063
0.287678
0.294677
1.70146
55.6373
58.8855
69.0342
2.73512
15.938
5.8877
12.3702
9.59963
13.4196
6.49799
5.82954
5.30056
1.56026
0.316267
0.254859
0.666698
106.958
42.6223
4.88192
2.28483
498.276
106.726
145.856
41.6138
1.36192
38.3382
5.24927
0.748698
41.9159
152.027
0.449842
0.622686
0.611655
44.6978
9.40217
92.9256
1.05551
6.59175
35.6257
16.1696
0.548681
0.566262
0.342906
1.20051
8.55609
101.489
28.6978
6.12092
85.0151
38.7276
57.6158
63.2004
7.84476
58.0336
4.8363
14.7733
39.2444
19.0946
26.6337
0.25195
0.392752
44.6678
1.84282
37.4096
3.20105
77.6459
31.2132
37.1539
0.917865
40.4875
0.903677
46.6306
35.1177
27.8257
31.8729
9.52884
60.9237
17.8168
0.800659
27.194
35.1505
0.404084
0.530575
0.432126
2.98749
2.11134
17.1722
24.2366
1.35494
5.37314
133.644
0.225593
16.4738
0.435101
2.95846
138.386
154.065
1.50009
0.252052
0.312962
3.32617
0.378833
0.702802
1.64373
0.352286
0.296069
1.77599
0.484433
48.6648
4.75553
3.33507
28.4826
43.1094
6.5818
30.8246
3.04225
7.44356
23.6983
72.8698
20.2118
0.438926
21.4088
121.554
66.4891
80.3679
15.5494
4.41468
0.2627
0.391147
32.6758
129.657
25.6688
4.39125
10.0658
9.18778
2.74671
6.63762
5.57426
64.5563
0.719278
59.1867
0.393356
8.61598
105.975
29.876
44.0093
34.6983
5.23441
90.3848
42.0222
41.1998
5.43511
2.82591
1.81887
1.65032
7.51435
16.1348
1.30268
32.396
51.3653
119.943
40.9437
12.4423
3.02797
1.39641
1.37066
83.9845
23.031
37.5845
4.12231
85.9681
6.4639
24.7028
36.9151
2.26008
1.25789
8.90305
105.124
65.8496
39.2483
78.6948
47.7628
72.1124
4.24311
1.11563
0.494179
6.18181
1.78363
859.6
86.7926
4.19831
93.6576
29.4387
4.36085
0.227359
9.06824
1.51913
2.33358
0.710793
43.4809
6.26647
38.9317
45.4146
31.7434
0.269219
2.61765
1.10291
8.7151
17.884
44.7092
706.186
18.3304
11.0453
0.275715
8.20506
103.407
59.1867
8.14298
16.7025
1.09435
12.4197
5.66295
2.12571
14.0599
186.142
0.430054
2.25937
0.247953
17.3582
13.0473
1.2342
75.3884
2.22344
365.059
51.8727
60.2307
93.5504
0.573
0.52176
14.2644
8.67819
0.640418
5.21544
4.9179
39.5134
97.8333
59.622
5.1737
3.13482
124.798
1.27487
12.0281
15.7783
18.6828
62.5916
92.3368
0.239924
1.79167
0.248518
70.23
12.77
166.571
36.2962
1.74996
34.4559
112.155
62.0102
56.6906
3.67096
73.0012
40.4295
18.3471
0.687071
0.389859
31.6482
1.03173
12.3006
9.39159
0.440522
90.0209
388.054
323.195
7.02006
83.6561
0.671601
5.86312
6.502
5.29217
78.7519
21.3707
0.214257
0.37965
0.473119
0.68715
12.5273
14.4573
88.3575
20.7271
1.31841
345.231
1.34285
54.697
101.994
101.955
41.4963
6.78305
6.78336
74.0961
0.557248
0.550307
1.18062
0.187893
1.38996
27.1785
60.3145
0.56505
30.7692
0.498457
0.611392
10.8686
9.01543
0.612306
0.491007
87.8141
31.5742
27.5893
10.3963
0.464798
0.621917
14.3946
205.369
0.511272
423.592
0.232905
1.46064
51.818
41.8017
1.09152
13.7215
147.297
4.51293
20.3151
38.9015
19.2536
71.5149
70.877
10.9233
8.87978
1.5617
9.6052
87.1764
13.5544
126.598
8.20517
11.5
0.73306
26.3679
13.9486
20.682
71.2826
1.64332
8.58364
7.93453
1.6692
0.362367
18.9864
0.320687
4.42296
13.7263
10.6857
12.9515
16.8044
67.943
99.1346
84.4042
57.2125
0.641062
0.645233
1.39143
0.398716
7.29408
6.70921
0.491715
2.67499
15.5909
85.2246
1.5923
1.12003
1.0298
6.60587
86.3144
0.287502
13.9333
8.54303
0.335285
60.1464
35.6257
0.494227
0.778034
55.792
86.573
25.6985
0.93608
2.22774
0.527519
0.519838
6.78993
1.31999
0.686391
24.5222
1.33754
0.780771
37.6722
61.9391
0.382349
14.7641
0.428513
55.8825
1.57191
93.6439
1.53166
0.164276
5.56206
64.0998
72.6108
103.387
60.9261
25.0847
55.0979
1.15555
50.6897
55.3823
0.388027
0.62547
14.5555
0.170936
167.049
5.94808
23.8193
1.32988
46.2222
74.4412
66.3226
6.08854
721.135
13.357
0.935986
2.36926
0.288853
2.18276
0.519198
0.744993
3.83432
0.477078
1.22175
0.70337
0.463928
4.08076
0.594073
5.54399
21.6005
64.891
133.363
3.98185
1.35792
0.623843
0.994615
64.9327
39.0506
10.3904
6.01356
98.0153
129.524
99.1093
5.07606
11.2175
0.599603
1.02923
0.659178
34.5143
8.55942
41.8414
2.33598
111.468
228.321
106.192
0.557522
47.483
30.7831
43.4733
0.460953
0.784777
1.29268
34.6659