/*--------------------------------*- C++ -*----------------------------------*\
| =========                 |                                                 |
| \\      /  F ield         | OpenFOAM: The Open Source CFD Toolbox           |
|  \\    /   O peration     | Version:  v1912                                 |
|   \\  /    A nd           | Website:  www.openfoam.com                      |
|    \\/     M anipulation  |                                                 |
\*---------------------------------------------------------------------------*/
FoamFile
{
    version     2.0;
    format      ascii;
    class       volScalarField;
    location    "0.61";
    object      p;
}
// * * * * * * * * * * * * * * * * * * * * * * * * * * * * * * * * * * * * * //

dimensions      [0 2 -2 0 0 0 0];


internalField   nonuniform List<scalar> 
5794
(
96.5225
97.7821
94.5473
99.5508
94.8423
97.7858
93.2814
97.3936
93.0352
95.2057
128.003
92.17
92.9101
94.3134
97.3217
97.9132
34.8409
98.7465
97.2656
97.5945
96.1835
97.2927
92.3232
99.5558
93.7045
45.256
40.8204
100.429
95.4621
96.6129
96.2804
87.3438
108.764
99.1782
92.8848
91.8021
101.676
93.6335
92.7744
94.5157
96.1474
99.7602
119.731
96.1243
97.2569
110.063
88.4654
99.1428
96.4804
94.926
98.3699
87.1063
93.3034
96.8043
97.7065
112.196
90.5781
97.9557
119.917
40.7637
107.669
97.5976
96.3481
86.8732
108.363
97.4007
94.4271
94.4432
99.5324
97.7781
86.2155
94.7128
21.2083
95.9687
98.5629
100.556
97.8205
50.9854
96.2155
98.1688
96.9783
97.3853
96.5905
94.1436
94.1247
99.0227
87.8246
113.873
99.5071
93.3899
117.067
90.334
97.3038
96.2772
99.1422
85.9369
112.967
98.1915
90.5555
108.576
84.4791
88.6337
119.853
95.7771
96.9629
97.7647
97.7003
129.094
85.4077
96.1786
100.173
97.2206
78.1659
96.7878
98.1545
95.1695
97.3525
97.7693
106.803
95.7945
97.8078
96.3782
97.0414
100.492
97.2544
126.174
91.4048
97.8541
88.9771
127.821
97.0189
95.2275
89.6226
55.0827
97.5398
97.3219
119.783
97.6056
98.6879
99.8589
95.2142
95.8951
97.2434
96.5405
98.725
50.0055
97.8285
117.816
95.3509
97.2179
124.535
96.7439
97.9266
95.1719
44.708
88.013
94.6066
94.9939
109.564
95.4241
97.2358
94.6321
99.7492
92.0474
85.3666
87.1031
93.2737
97.0206
100.022
97.2275
97.1128
86.7031
92.7396
94.1225
98.6464
91.9514
97.3945
93.5326
99.5253
89.3185
99.2799
89.1618
98.614
110.62
94.4437
43.4387
88.2657
109.546
96.0167
88.7317
127.738
87.3624
108.802
97.8501
95.8175
96.1973
96.0411
99.7261
97.2832
118.114
92.2858
86.2319
98.6913
95.4992
88.0806
109.693
97.4055
129.331
90.841
92.4384
96.2263
100.71
91.8973
94.6286
99.4606
92.7087
91.9085
90.2911
128.354
101.429
100.827
90.7594
115.651
97.9195
114.841
40.6367
94.5671
94.6338
94.5303
97.3516
93.198
94.6042
98.2354
86.0901
94.5582
50.5739
72.5274
122.343
93.4492
96.7221
97.6706
129.417
95.9908
96.0305
94.9408
100.272
97.2527
95.8331
113.952
98.5152
90.723
97.3723
40.9887
97.3094
123.341
90.3627
118.81
118.767
129.381
97.2558
120.165
92.2571
95.7149
97.1617
94.0591
97.4806
97.1562
125.636
97.2854
109.127
87.6205
96.6168
96.0656
85.4111
102.215
97.3991
96.7287
94.7609
96.8951
92.1124
99.8183
108.547
95.8978
99.818
94.3016
98.2458
88.8724
99.3748
92.0761
97.3709
92.1293
93.1593
98.9142
96.5784
116.354
54.0604
95.9084
99.1886
94.4987
97.0647
97.3671
84.7161
97.0249
94.737
95.678
124.13
96.9383
97.0441
108.435
87.1142
96.0164
108.94
95.5304
96.8889
101.647
103.818
129.056
100.178
85.2871
96.1961
97.8904
93.7575
97.4873
95.448
98.0726
90.1361
95.7289
93.4573
94.4903
128.229
87.1685
121.013
95.8432
109.129
87.7923
95.569
94.7757
99.8659
96.4275
109.789
99.5926
93.8028
91.6407
92.1434
97.4908
98.0431
112.626
91.0039
87.8642
94.0958
91.9717
51.3699
109.281
87.8697
98.7447
40.0416
97.2052
88.2944
92.8297
96.9935
129.245
91.735
120.8
92.6965
97.161
94.7953
86.1907
110.807
89.2202
98.8939
97.0068
97.0866
94.5775
98.3629
129.011
85.3311
112.385
90.3199
98.6772
96.9601
95.9747
97.0842
102.067
91.8233
93.3076
99.4546
95.27
92.9231
97.0937
94.115
97.6699
94.6304
97.7563
99.9032
93.2073
94.6813
98.0798
95.0971
97.2573
92.1979
99.4849
93.1653
47.4824
100.32
97.1723
123.607
93.8474
97.7408
97.7229
113.531
97.8529
89.8614
127.223
86.8784
109.379
87.8512
97.6662
102.593
85.606
113.165
90.552
98.219
128.705
96.9416
92.1122
93.6491
99.4918
96.7585
97.4548
97.0029
86.7893
102.049
97.1942
79.1263
97.2474
97.2521
96.7901
95.4578
91.9092
93.847
99.586
101.668
95.2849
98.954
94.7416
94.6943
98.4543
98.5404
94.3331
94.78
94.4904
97.5023
86.9045
97.2113
98.1368
97.2745
111.528
89.3466
98.7409
96.7886
97.3587
97.4568
93.8712
100.165
109.497
127.69
48.109
92.9848
127.513
96.1517
97.2722
82.8872
127.196
94.4201
96.1995
110.679
64.4373
100.293
96.4664
97.4337
94.4163
97.3118
95.3387
94.5543
129.025
127.536
100.403
95.4183
52.1057
97.0518
97.3793
98.254
97.144
96.0473
93.5548
99.9496
97.1196
97.1151
98.424
123.026
93.9102
63.5146
103.945
89.4993
97.2213
97.4547
97.4384
117.772
127.241
97.1391
85.1492
96.9833
95.988
97.2799
97.1858
95.5677
95.8826
97.2645
100.555
49.2564
97.6838
97.7692
94.5371
97.7338
127.451
97.9027
96.2791
99.9682
97.6266
97.3973
94.7792
97.2023
46.9203
97.177
94.4696
94.0212
101.77
117.952
127.527
119.684
97.1372
81.2225
97.4784
93.0268
95.6612
98.1246
102.226
96.4938
97.0062
97.7964
95.6268
96.857
97.3214
95.7883
98.0982
97.2024
94.31
97.4664
97.6864
94.2125
24.8707
97.2594
124.883
96.7563
93.9105
96.1551
97.8138
94.4748
97.7288
96.9302
110.364
87.1526
86.892
98.9227
48.5146
98.9108
93.6583
93.6245
99.4651
95.4701
96.999
94.5188
126.864
48.9676
88.5477
113.134
96.7899
98.1669
90.437
112.572
97.0166
98.0419
97.6049
94.842
96.4244
104.945
97.07
101.388
97.6938
93.8935
97.2696
111.153
98.2405
94.95
97.2112
127.183
56.8344
95.038
97.6974
98.5542
90.2053
88.799
93.2648
93.8951
99.0178
94.0382
122.639
127.889
117.027
97.3663
97.4101
127.204
126.53
129.186
97.5556
97.9784
98.3415
94.4282
130.098
96.7806
96.7373
97.6405
97.0313
97.7301
97.8743
95.1501
67.3371
101.537
94.5327
99.933
95.5426
120.308
128.543
90.2348
119.006
94.6836
99.0751
108.343
97.619
97.6363
98.0085
96.1065
97.3572
94.2931
99.1306
123.339
50.1586
97.1215
34.6142
99.2184
97.1101
95.5151
97.2868
95.7489
97.4339
99.2773
94.1946
98.4267
89.04
108.713
122.441
95.7596
42.9547
94.4678
97.4861
98.5544
94.372
95.127
92.0876
96.665
97.8249
129.579
96.8825
98.3842
94.5369
118.562
97.2829
97.0967
96.8497
97.2408
95.0747
103.685
72.2007
98.8731
96.3438
98.9393
129.163
97.3814
97.2743
100.786
96.7941
92.8107
97.0405
118.895
94.3154
121.241
96.2793
94.7797
97.571
128.543
120.101
97.6662
98.7425
92.624
127.165
99.6645
103.365
46.7106
125.455
93.9316
129.264
68.4364
118.42
96.6213
92.5102
96.2395
117.512
102.361
128.538
104.949
98.7378
69.8413
101.622
123.888
96.4777
94.1974
33.2047
127.291
90.3361
97.7622
114.466
98.5721
97.6272
92.6413
94.6947
98.1781
90.2013
110.69
93.3636
101.678
98.0685
95.851
96.8917
97.2742
97.8488
95.1451
103.035
97.5588
99.077
112.475
95.8395
74.7375
98.124
99.2554
94.9474
98.0627
91.5069
115.395
96.1476
98.2135
91.0067
113.489
94.3348
97.4964
94.3287
97.6432
97.8338
96.4173
93.7171
97.7863
129.055
49.084
93.9188
97.4763
97.6163
97.6939
92.2397
129.205
95.7683
95.6487
98.6359
123.276
112.121
89.949
97.2783
93.3543
97.4399
77.5317
97.1012
60.7782
99.7492
129.131
97.3371
97.9859
97.9917
96.7116
128.666
129.849
122.352
108.301
99.1355
95.0197
96.1692
111.071
100.318
100.056
91.7367
109.802
128.768
97.7088
97.6072
93.5597
116.715
48.8031
96.8637
102.566
96.7844
94.509
95.8726
90.3356
98.1747
111.949
101.294
97.0177
98.4784
94.6184
99.5163
42.2591
96.8907
97.9146
93.8882
97.7385
127.242
98.7332
103.292
97.3206
95.4071
109.075
101.753
82.5337
98.3452
94.3568
99.0018
94.069
125.333
125.765
49.501
94.7049
97.2773
97.6437
109.419
94.2496
96.0411
94.4355
105.617
98.8986
76.9165
127.191
96.9038
98.6772
98.7323
101.077
124.714
97.7761
58.2277
96.8222
97.2184
60.2973
112.116
100.665
94.3613
98.199
128.106
118.385
97.4946
97.2217
91.874
126.113
96.163
101.652
125.699
94.3258
99.0764
94.917
94.7375
101.642
94.9181
96.9896
97.4379
94.2499
96.8442
97.1799
97.7349
97.7586
123.285
97.4241
101.463
96.9284
94.2623
94.1649
98.5229
98.4949
127.272
127.477
57.675
94.7314
96.6946
101.779
97.2376
52.4909
108.252
87.001
122.007
98.4603
90.0491
99.3949
97.8335
94.4074
109.51
96.4532
96.6473
95.2674
97.3938
97.8041
121.452
97.122
99.0448
113.78
90.6497
98.26
96.3991
115.997
97.7437
97.6713
94.8897
96.905
88.921
128.734
113.595
101.692
98.2378
81.4029
97.4694
97.1557
87.0567
46.4518
102.144
94.5684
105.636
98.9467
96.2261
94.2937
97.6282
94.1115
99.1253
97.5541
97.549
97.3176
97.9104
96.9444
97.7589
97.6403
101.463
98.9529
102.328
96.9429
96.8525
113.773
102.041
95.7279
98.3211
94.1131
97.4498
128.096
104.031
94.1701
97.7523
93.8456
127.13
97.7043
101.738
97.3214
97.9966
101.728
74.7479
100.962
91.0325
106.655
97.2498
102.417
96.6055
97.2541
114.852
73.8077
98.5528
105.04
98.0531
96.0643
97.0692
97.7877
106.847
110.368
47.3249
84.1209
99.3884
97.2443
97.5477
98.4615
89.0295
108.092
118.082
97.6662
97.3191
97.5531
95.292
101.948
96.8754
99.9488
98.8169
101.318
102.024
103.126
99.8856
97.7529
96.5248
94.7863
99.6344
127.269
97.7759
101.627
92.6096
97.1535
94.7488
96.899
94.3556
128.971
97.2108
129.27
97.472
103.531
129.079
97.7442
94.0531
114.323
97.1516
99.7482
94.5006
97.224
94.5367
93.1937
97.5765
97.7082
93.378
97.1105
97.2792
100.986
97.6512
97.1128
99.0063
93.5813
92.2636
101.258
109.985
107.809
94.7132
97.4824
97.1487
97.6277
94.5538
99.8126
96.4464
98.1115
97.2059
122.606
97.3769
94.8633
96.8163
127.011
96.8517
86.5274
95.5175
97.1482
102.55
95.3097
98.6735
94.2789
97.0226
101.337
101.883
96.9417
102.403
97.2811
97.0139
93.7761
97.5935
97.5003
94.6933
98.4717
128.211
97.1694
56.156
96.9994
97.6435
97.8806
101.582
98.4167
105.931
98.1581
96.478
100.508
108.369
89.3195
94.0174
97.4823
99.3839
94.3955
97.9484
95.1348
101.749
98.3679
98.9552
123.899
117.813
96.9409
106.764
105.746
96.1867
98.0841
93.2225
97.2633
33.2283
102.002
97.2818
98.2837
127.185
127.44
98.5064
97.9115
96.3059
94.9306
94.7731
97.4071
93.4678
94.2928
95.8904
99.5275
94.3274
97.2677
97.7297
94.197
94.0402
96.0015
98.5534
97.5354
93.6895
97.2974
90.5284
95.2402
97.4614
107.734
108.818
102.83
99.5822
101.577
107.577
97.0904
94.8078
97.0629
109.313
104.408
97.4997
96.9145
119.912
95.2109
121.951
97.6107
93.6548
107.441
94.461
120.414
110.697
97.4692
94.6652
101.891
116.479
97.1983
98.1552
97.4017
55.9482
97.2516
96.9476
93.5316
97.6759
98.1732
103.001
95.5994
120.71
98.0927
95.3987
105.366
99.2689
86.0134
96.8937
97.6545
98.8748
94.0799
126.987
128.408
94.5128
101.797
97.2455
98.5417
97.3891
86.9224
108.57
129.622
119.506
102.246
94.3302
96.9293
100.055
97.8895
101.584
97.8285
93.3525
94.6029
97.6416
98.4661
80.1756
94.9494
54.1664
97.0849
97.3284
118.596
102.644
99.8994
97.1765
101.143
94.5624
98.1488
97.5169
98.8116
97.3415
97.3323
93.8213
94.5597
100.202
97.2314
99.343
95.6603
94.0318
80.7495
94.0583
122.952
100.896
97.3673
98.2271
97.9678
113.569
91.5963
98.1201
96.9499
94.6444
128.604
50.5775
94.649
96.4589
97.1205
86.5369
98.0941
97.2051
94.7409
98.7998
94.3872
94.4218
97.5677
96.6859
97.8224
98.074
97.1863
101.561
96.289
97.4592
97.181
115.28
102.342
128.38
127.855
92.7425
97.7165
96.993
98.1627
129.142
94.6537
93.8227
97.4771
97.5797
97.1053
97.5555
93.1914
97.4995
92.0003
97.069
96.2294
94.853
38.2786
93.9474
34.6823
47.8456
94.4996
101.401
97.6759
96.7976
99.6782
94.384
97.8947
95.4972
98.1918
86.8967
108.26
107.551
98.8438
99.0226
92.0018
86.6415
94.6019
97.9441
97.2724
128.421
96.8287
96.3803
97.0564
97.7756
97.3482
117.25
98.7433
95.193
93.2537
98.6266
93.6505
96.0384
96.1595
97.6571
101.662
96.4757
133.96
128.047
97.0952
40.307
128.648
98.3697
94.5582
97.002
107.335
97.2409
97.6754
97.5801
93.9462
12.0263
102.381
98.7377
88.4378
114.176
55.9351
118.61
94.4805
97.495
97.4621
97.3015
98.4574
94.1588
94.9327
97.3859
94.7432
98.5389
98.3524
95.7147
94.1716
97.548
97.5405
98.4812
94.1484
94.7037
98.0125
94.1035
96.0189
97.6044
97.612
97.7975
98.7723
93.7007
95.478
97.3932
98.4371
97.4161
94.1513
95.5727
97.4844
97.489
97.4379
97.4523
98.36
94.4006
97.4162
98.5778
97.2672
97.5885
95.2678
94.0983
91.1264
92.4059
55.4821
97.474
98.8652
106.37
97.4366
94.0494
97.0446
97.238
99.0569
96.9748
94.5443
98.1232
51.1793
92.3102
95.4832
94.7035
97.0254
97.048
97.909
97.373
97.7131
96.866
98.1765
94.4946
94.0252
98.7598
127.367
94.4805
96.9484
98.0623
93.592
47.8165
97.0291
93.7401
97.6634
110.716
100.085
94.6023
93.5123
94.3345
123.605
93.7044
94.6112
95.5176
96.773
101.157
100.423
12.8961
96.9259
96.2165
97.9239
97.824
95.315
96.8093
143.158
97.8214
97.3764
98.4255
95.2461
94.2889
97.3745
94.6374
98.5073
97.503
97.2986
98.5021
94.1275
95.387
97.6691
94.0649
97.3044
94.1594
95.837
97.5813
98.1729
97.6005
97.4986
94.474
97.4642
104.361
93.5573
129.478
113.571
96.6843
101.157
93.8918
97.2485
123.465
94.2574
94.3661
133.164
95.9254
96.5802
97.5049
96.1298
121.898
94.9047
77.1483
96.8398
97.4037
97.2127
99.4954
102.792
96.8265
99.9488
102.5
98.5364
98.0528
95.4761
98.3257
97.8628
96.8717
95.738
90.0656
98.2316
96.3947
97.4942
96.5252
97.2575
97.7065
97.17
98.1131
97.7047
97.7472
99.1372
96.8369
97.5186
102.093
97.6333
91.6056
98.2268
94.7736
85.058
97.693
101.733
111.237
98.5556
126.18
93.5035
97.5002
97.2401
94.6159
98.9133
102.006
96.8053
98.6516
94.9765
94.637
96.9657
95.0404
93.5524
97.8111
97.4607
95.8923
98.8377
98.2562
94.6821
100.726
98.5256
98.448
90.0944
95.0057
98.0086
99.8855
96.7003
93.6809
97.2115
93.982
96.4737
97.7045
120.475
97.5656
94.7386
92.4447
93.4303
97.0682
97.2593
96.975
94.6221
94.4791
97.645
116.836
98.584
98.8893
100.346
93.7423
122.869
122.27
96.0947
95.946
92.0568
104.005
97.359
111.963
99.2803
145.691
94.4084
91.149
108.873
119.519
92.4414
91.2208
96.8593
135.688
97.212
112.64
91.3259
135.951
97.805
93.615
31.2372
94.5554
94.3667
97.4387
97.3738
97.2669
94.1001
100.158
97.1628
97.4865
94.2307
98.5245
98.24
93.9698
94.3853
98.4953
94.2653
97.6232
96.6515
98.3643
99.0209
94.6354
95.2015
98.6842
94.7509
99.5395
99.4847
99.6032
94.7034
94.1478
93.6714
44.7287
94.1893
96.3766
97.6596
93.5372
97.4106
96.6331
96.5831
97.1552
98.9613
97.7613
97.1057
93.2931
96.8293
93.0737
92.9977
97.5234
92.9248
97.6102
95.1166
95.5478
94.0148
124.816
95.401
94.5382
98.4459
94.2271
97.8824
93.0866
97.8516
92.6292
98.319
97.6387
94.1064
92.8813
97.6991
93.167
98.1133
97.2697
111.952
97.2278
89.8456
87.897
93.2939
109.53
85.5305
97.2069
111.652
109.924
88.5374
86.5643
99.7022
97.2944
85.2065
108.339
114.213
97.1525
92.6898
111.838
85.2019
110.861
97.2395
97.2719
97.3
87.1881
93.2364
51.8854
97.2999
93.1006
93.8692
97.1923
87.2736
99.7017
93.7124
109.747
108.457
91.6626
51.312
84.7873
97.2834
84.9476
97.1063
92.9256
91.4793
99.6116
111.465
93.6356
50.4519
91.5509
92.9846
99.5711
84.957
46.7186
97.266
149.792
85.6513
94.3675
91.6065
92.611
97.248
96.3746
108.459
86.8668
85.9083
46.2297
45.9806
93.7612
93.0949
93.7203
95.6612
94.2032
99.3516
99.9375
89.1469
97.1622
94.081
97.5221
127.94
92.7856
94.4191
94.8716
93.0585
94.2724
97.5117
97.7176
99.419
94.0846
97.4746
97.6288
98.9092
99.2223
91.7853
92.5341
97.238
94.4749
94.1893
94.1516
98.5459
98.6809
93.4118
93.0756
98.3896
94.4812
97.8535
97.5208
86.9581
108.635
97.8244
92.8921
97.4121
94.3345
98.4507
98.5636
93.6618
98.9917
98.9866
99.1815
92.3461
94.3312
97.1635
45.2754
98.4293
96.9231
99.1699
98.4555
94.2483
95.5424
95.9866
98.1083
98.8309
98.5047
99.2183
99.1274
94.3799
95.8044
98.229
95.1095
98.4025
98.8927
97.7059
97.9753
95.9332
95.69
95.5044
97.1265
98.3441
98.2688
98.9755
95.7988
97.297
97.9644
97.3616
94.0032
97.0799
98.3924
87.0897
97.7103
108.713
93.4334
97.3498
98.1235
98.4933
98.3587
128.185
88.7454
92.4355
96.7121
98.4492
94.8616
92.8493
99.2765
91.994
98.3717
100.049
98.422
43.4305
120.46
99.4262
94.6176
92.992
97.1717
93.9546
97.0506
97.2669
128.4
92.921
97.2654
93.7111
100.254
93.9424
97.0885
97.237
109.664
88.1675
97.6773
128.598
89.7629
93.3569
97.5615
95.1145
41.1838
120.33
99.1936
92.5363
96.5095
95.785
97.1766
95.3634
99.0569
89.7774
92.0635
100.552
94.0077
97.1348
97.2712
95.8262
95.5576
99.3043
128.454
90.432
98.2689
41.433
46.9466
95.5127
120.39
94.5922
96.9265
96.0062
94.0676
97.1306
97.2131
93.4879
90.4296
100.412
97.2147
90.7231
111.83
96.791
119.191
93.3246
97.5536
98.934
95.881
95.9817
95.3122
95.5864
94.7642
94.8838
99.1249
93.0093
95.1898
98.6964
90.6445
100.331
94.0441
97.2396
97.301
90.2982
111.684
96.8866
128.619
93.5162
93.1479
94.6044
93.3791
97.6251
95.5167
95.3217
98.3843
44.5851
95.1582
105.074
95.0905
99.7812
120.334
99.233
96.5307
99.4512
94.618
94.8114
93.1785
95.0349
89.9958
98.3272
97.1923
94.6268
104.436
95.0986
98.8051
95.2686
92.6887
93.1994
94.9965
98.9618
98.7727
100.469
94.1647
97.378
97.4446
96.6339
97.8565
94.7399
96.675
98.2485
98.8346
123.127
96.8031
98.0276
93.4429
97.7269
95.3673
98.4548
40.1703
94.7906
96.5272
96.042
99.9647
101.195
93.4775
94.05
99.6356
95.4505
97.7211
93.2767
93.2253
93.5832
102.176
98.4415
98.6323
98.4953
98.9816
95.7595
94.2756
93.9579
99.4307
93.3125
97.0099
94.5337
97.4449
95.5778
97.2201
98.7778
129.393
98.3991
98.4436
88.8206
93.2269
95.2007
94.8518
91.7362
100.625
94.128
94.2715
94.3147
93.3682
98.6339
94.1025
97.3729
97.4153
98.2243
98.2953
98.1555
92.5125
113.687
96.9531
99.7654
98.7924
95.2641
98.8196
95.38
94.8898
99.0794
95.5319
98.7629
93.5302
102.872
93.8976
94.2978
101.736
97.6058
122.444
98.5976
98.9071
95.7737
128.732
95.4462
93.5175
97.8508
93.7225
89.5869
95.292
93.9694
97.5607
98.4417
93.3913
93.8943
97.2503
93.924
97.1271
97.2498
127.653
94.7207
94.937
97.5768
96.7987
93.538
98.463
98.5278
94.3887
93.7332
98.4712
100.157
98.421
98.8349
97.5107
93.4973
96.7723
95.2928
93.7973
98.4468
95.5405
94.1016
97.0367
120.346
121.252
97.5156
93.9944
98.7099
93.7784
120.64
98.6825
95.2478
99.0477
95.1533
121.529
94.1011
98.6754
91.8811
91.8307
94.0588
94.4421
98.9477
98.5386
95.4499
99.8633
94.4631
100.414
94.1754
97.8522
128.52
94.3251
98.4169
97.0998
94.5809
95.1322
95.4323
98.2417
96.1746
98.6761
95.0835
94.1461
95.024
94.7286
101.542
95.3438
97.2333
95.7283
94.0336
98.7106
95.253
94.1774
97.4646
97.5344
94.2053
82.253
95.4502
93.9606
97.0187
97.0196
93.1808
86.4517
98.1141
99.2992
99.2423
94.3282
95.1576
100.832
95.0748
98.4573
96.6732
96.5604
97.3573
95.1326
106.315
99.6099
131.654
93.9394
95.9858
97.8919
96.7182
94.5736
99.76
94.1147
97.2181
94.5812
123.232
91.3257
113.116
97.5127
96.8887
99.1536
93.3198
95.8974
94.5964
110.13
96.3782
99.7895
105.494
110.854
99.3854
97.4429
94.3275
94.2278
97.2183
97.5999
128.832
87.7182
94.1612
90.8209
95.7859
54.1953
97.4683
93.4043
97.8356
96.0884
98.8213
94.1814
86.1732
97.4148
97.6956
94.601
97.4993
97.0985
97.6214
99.2499
97.2605
93.4639
44.04
95.6213
98.7994
114.984
95.8658
85.9364
97.4812
39.0915
106.889
96.2645
96.6124
97.8222
94.245
128.327
94.9358
94.2096
97.1769
136.052
94.6545
94.0703
99.2638
96.9585
94.6825
97.6488
98.887
98.618
96.1418
98.4031
94.8738
121.601
93.1295
96.2353
93.6406
97.2276
96.5824
98.7308
98.7271
96.6591
98.0321
95.5172
140.154
97.4255
96.4547
94.8085
95.4514
95.5179
94.789
127.25
98.779
94.2551
99.1116
98.509
72.6049
127.795
98.7049
98.8698
99.6503
97.0114
103.909
96.1942
94.513
94.3477
101.612
93.6845
94.4017
92.0154
97.46
95.0898
104.661
96.4469
94.4048
96.9313
90.339
94.3313
94.0698
96.7587
94.4996
97.707
96.8294
96.8168
96.6515
96.8573
99.8662
96.8912
94.6546
99.1511
94.1433
97.0362
96.5859
105.041
97.9006
93.6044
99.5735
95.5276
94.1549
97.6512
99.4465
100.515
101.663
94.1129
97.4864
97.5009
78.7474
95.2273
97.9589
99.3502
94.2799
116.8
97.274
93.143
94.1504
105.811
91.106
97.1139
92.9024
97.5773
98.2061
91.4481
115.166
90.5375
94.5634
94.491
94.3944
96.4742
96.3148
99.2379
95.5504
97.8093
91.0922
113.831
97.7749
96.9427
95.4437
94.1073
97.4628
97.5161
93.7503
96.9588
94.1012
98.5129
97.4482
99.1891
94.1056
98.547
94.8541
95.0988
95.7941
95.8615
96.6065
96.4057
98.765
94.588
97.4551
94.0758
97.4908
97.5713
136.013
111.973
94.9706
95.0363
104.884
112.792
112.179
99.1431
99.9306
97.7215
95.5175
98.6403
97.254
99.6223
128.018
94.466
97.1799
97.3049
88.831
110.319
97.6944
97.3184
94.866
94.5258
99.1787
94.1677
98.2475
92.3362
49.9772
72.4216
97.3503
93.5754
97.151
93.625
100.224
97.1836
104.8
97.1144
119.945
94.9759
98.781
95.52
99.4741
98.121
97.684
94.1321
95.0127
94.0384
103.141
98.5558
98.9303
97.3533
127.313
97.6948
94.3663
86.1957
94.6034
127.394
128.37
98.7622
95.915
97.4809
97.4708
92.7688
94.1055
20.9564
96.8445
123.02
87.184
99.5504
97.2052
94.3075
127.534
92.7771
93.7741
97.5006
97.5282
98.5987
118.698
98.2026
93.7754
97.0449
94.9002
97.7031
96.7698
97.9513
94.6795
101.478
127.651
107.458
98.6448
97.9035
98.5302
94.8853
95.7697
97.7476
97.9481
96.7883
96.9427
96.5944
97.3215
99.5256
97.16
121.488
97.62
96.8995
101.476
94.5049
44.0279
95.0219
98.501
93.9937
97.4872
97.5522
109.233
96.7681
96.0167
94.1156
94.3593
98.8289
97.0859
98.6622
98.548
98.1755
96.8079
95.6975
98.308
95.3604
97.1623
97.6947
95.582
94.1154
97.1417
98.8597
99.2613
99.0374
95.3589
96.8415
101.527
97.7543
97.7587
94.5454
121.338
123.119
93.8908
97.2709
98.985
98.1163
98.8845
94.0955
95.3122
93.9912
96.4064
96.4114
105.022
98.2512
94.1822
94.4523
99.819
96.3014
96.5073
88.1364
99.7583
96.1231
114.701
96.9938
95.6611
97.754
97.7789
94.4738
92.2908
94.6229
98.4513
94.9132
96.7224
99.3245
83.4857
104.173
98.4852
94.4348
99.0638
94.4996
99.7666
98.164
94.8424
101.805
101.557
98.9419
94.2465
97.3805
97.2472
98.0815
94.7218
97.3008
94.2635
97.1931
97.4445
97.2977
97.1426
97.2806
97.7251
95.5648
96.0781
102.099
93.5399
97.5649
97.8591
99.7882
97.3434
98.0555
95.3002
99.4168
94.8301
98.2801
96.2026
127.803
90.3422
36.6143
94.4358
96.4375
95.5177
95.8453
94.5856
97.4869
97.4795
97.5413
97.4763
97.4138
101.722
94.1588
119.043
97.2535
97.698
95.7879
94.3278
120.217
97.3168
96.9674
98.4851
97.6528
119.615
93.6049
95.2456
99.1125
92.5349
129.13
100.719
94.814
97.9271
110.506
84.8819
94.2311
94.4182
96.6767
98.0442
95.4348
93.6908
97.5331
97.6867
94.5275
97.3531
94.4056
94.1233
95.1325
98.5976
97.935
97.4927
95.7809
96.0209
97.4505
96.9173
97.2272
94.1132
94.6065
97.3622
98.8197
89.1398
97.3506
118.472
94.2092
94.6075
94.3218
34.6368
95.9257
124.789
97.6079
94.1401
93.1402
98.938
98.8288
97.7268
95.9525
97.1136
97.978
98.8476
97.6791
120.972
95.9801
88.5669
97.8292
96.381
129.6
98.3939
94.4147
97.3887
97.6116
94.6518
99.8543
98.8069
95.255
93.5788
97.4794
97.5068
97.4759
94.3201
97.4064
99.0183
96.2589
83.6317
94.4694
93.4398
97.8844
56.0134
101.832
110.822
96.359
94.1078
127.804
70.8785
114.607
98.9503
93.6135
97.4827
97.5392
99.6132
105.914
92.8601
97.1015
97.4037
97.0289
100.471
122.037
133.822
92.9687
114.243
100.001
127.102
97.7229
94.5939
98.1875
96.4074
93.6537
97.4054
113.522
99.7286
97.4265
98.7167
96.3996
127.669
94.9992
114.869
93.4893
97.6165
97.9262
93.5868
96.995
97.7758
97.4062
94.1079
97.4016
97.3582
95.4423
99.098
94.1843
97.6028
95.3437
97.2174
96.0628
102.48
39.931
127.279
97.2589
96.5297
97.6388
99.906
98.8126
98.5822
94.5328
96.4556
99.254
94.3835
96.1071
112.944
97.7431
89.3603
111.818
96.5714
97.7694
97.6321
102.317
34.8636
95.8307
86.7941
108.342
92.5853
94.3888
103.257
101.347
94.5376
94.0054
95.3878
93.1061
129.35
97.1394
93.0489
97.1629
102.908
43.5523
96.1484
99.5806
94.2281
99.6695
94.4304
91.7773
97.0962
111.869
95.639
97.1724
98.8296
119.659
98.0461
99.4938
96.8047
97.0374
97.9253
96.5266
97.0377
97.1791
97.6928
97.6126
111.323
97.1134
110.725
94.5608
94.3878
97.4801
94.8053
128.973
98.2255
97.789
104.888
115.296
94.2673
97.4832
95.3363
97.7905
97.2468
93.886
126.557
94.5891
97.0047
98.6814
95.9181
95.9591
125.905
127.081
98.8565
95.2224
96.8399
97.7687
97.9245
95.3662
90.8213
95.5148
96.7277
97.2686
97.5027
97.0178
98.0679
80.7906
94.1718
126.922
97.5906
97.2855
99.6519
94.3791
92.473
121.762
98.855
97.9461
119.936
97.3113
116.774
110.523
96.8096
126.4
98.059
127.138
96.4732
97.8794
96.7565
104.319
97.3415
107.986
92.6746
102.982
28.0657
97.4249
125.572
94.4773
106.737
94.901
107.785
95.4755
126.191
127.011
96.7449
112.097
94.0088
93.0896
97.5852
98.0444
93.8863
99.6428
108.338
96.7906
110.082
108.563
96.7692
97.8333
95.9723
128.257
94.1696
95.366
97.9343
101.633
97.2861
101.897
102.226
96.6692
111.877
96.2058
99.5048
93.3473
93.6423
97.2351
110.088
127.442
97.5163
116.075
107.48
92.9917
97.3566
97.3591
97.6672
96.8724
97.6981
127.185
101.255
93.9086
94.0188
93.5071
114.992
90.3043
98.8983
97.8543
93.992
93.7786
99.6131
95.8572
94.506
100.003
95.2333
98.5923
99.5859
96.1557
98.842
114.606
103.854
94.1722
97.6837
97.733
97.3616
109.356
94.42
96.9881
97.2992
97.4061
96.2856
89.9358
94.1161
47.6134
97.9174
97.0263
102.67
97.5182
94.1818
97.4915
126.89
97.9766
120.09
97.1782
98.6506
86.0427
93.6136
97.7043
99.7532
96.9376
105.754
93.4199
114.746
97.753
97.4379
97.3292
94.5404
100.309
95.5329
56.0072
55.1178
94.2824
99.9304
95.9502
96.475
97.621
97.5204
92.6057
97.9794
97.6234
94.1137
93.7671
94.6733
95.5198
93.4986
97.9817
129.319
95.1933
97.3504
91.9653
94.4522
107.749
99.4671
94.2118
98.2994
94.2074
116.256
94.9023
98.0152
97.8077
92.8953
45.0781
97.5159
97.9077
110.939
127.747
97.1779
94.4705
97.7092
97.5763
95.7969
96.8467
97.6618
94.2561
96.4911
95.5829
97.4692
94.1936
97.4231
95.5563
98.0348
92.7578
112.57
98.8353
94.8918
99.1325
97.8752
96.3158
97.7074
96.0345
108.282
86.9128
94.8159
95.3662
96.4442
97.2766
95.6229
92.3239
91.6287
103.902
99.7138
114.88
124.409
145.206
94.3404
95.5308
129.544
93.3937
98.0591
97.2677
124.305
98.9149
100.965
10.5803
101.977
97.2808
95.3111
97.0374
97.5129
97.4948
94.0266
98.4634
97.083
90.9372
97.7311
96.6571
100.97
94.5445
129.051
94.1735
115.177
93.3904
98.1916
93.3321
97.452
97.3815
96.8142
92.7395
95.7723
94.5041
92.7387
35.4651
116.635
94.2573
99.4777
97.2348
98.5081
93.6886
98.8366
99.4039
91.2023
97.2582
97.2867
97.7427
97.5694
94.3918
94.8795
95.735
99.6674
93.8488
121.069
97.5252
96.9184
98.044
97.7484
102.345
109.269
100.106
101.106
98.1504
89.7715
94.0891
98.0578
93.0497
97.4691
99.7451
95.8782
94.2116
95.2805
129.163
97.4748
97.3899
128.744
98.0773
94.84
97.6738
84.2054
103.119
102.9
97.2291
100.35
97.2743
100.403
100.53
103.788
101.935
96.7266
99.1058
96.4306
97.9956
92.9657
106.9
97.2673
99.8982
97.4118
94.3394
94.4891
102.568
97.5779
99.5105
94.3357
97.8085
98.165
94.1239
97.4006
97.7529
100.111
47.9374
93.116
97.4699
97.3703
94.8924
98.5255
97.394
94.2212
97.3554
97.4115
93.6553
97.3294
125.887
97.7079
97.4687
95.4987
93.9084
94.3676
101.217
93.2799
94.5851
95.1981
95.1289
96.1516
97.3676
94.6095
117.513
114.465
93.5469
96.9741
97.1147
97.8424
97.3487
99.0707
94.4829
127.828
103.041
93.1565
118.941
96.4799
96.5198
92.4373
99.1418
99.295
84.756
97.1596
103.565
94.0115
97.6983
95.1424
100.267
94.4529
89.9513
131.263
91.4469
94.7679
97.8916
96.9611
96.9078
117.24
126.692
98.7623
99.5096
94.5413
112.152
97.0111
93.1106
97.7767
98.8962
94.0833
94.7407
98.3026
93.4149
94.5568
98.7937
94.7174
86.8812
108.297
97.5031
96.732
94.517
97.8902
93.7624
104.365
98.3092
94.0692
99.0974
94.5387
98.9311
97.2817
101.55
94.5442
18.4055
100.078
94.4475
95.092
97.4793
94.357
98.3752
93.0351
98.106
97.3461
97.4876
97.0691
96.5758
126.819
93.7031
127.638
98.0829
95.159
96.8542
99.6956
95.8439
94.1321
54.2213
120.313
101.789
97.1645
96.825
94.9202
86.9448
90.6164
94.6233
97.7688
101.808
101.452
95.9281
94.2332
45.9204
97.5779
93.8654
97.5073
97.6271
93.2473
95.1065
98.9093
93.9999
52.5318
98.9361
95.215
96.8915
97.6014
96.8271
92.2806
93.7814
96.9533
100.061
112.688
98.4548
98.9202
97.4069
98.676
93.7049
90.6589
96.5271
129.525
120.871
97.3234
84.7885
95.7007
97.4606
93.6021
97.3681
99.9856
120.067
97.8896
103.579
96.5411
96.0662
95.6632
98.6585
101.757
94.4788
114.613
98.0776
89.7577
97.2753
97.2829
129.178
97.5819
92.6059
94.1393
97.1955
99.1558
89.6944
43.705
111.461
95.0283
98.7932
92.7224
94.0624
98.6572
95.0881
96.9939
97.947
97.2128
97.5985
97.5342
128.739
97.05
96.3937
93.6533
98.4176
51.5545
94.5908
90.6917
112.714
98.0831
98.6489
96.8554
101.732
94.0074
97.401
97.4763
92.7786
97.9463
95.6658
93.7194
126.88
98.6712
98.5405
97.3275
97.1396
94.0917
91.658
100.305
100.06
94.1771
97.9127
96.8214
102.065
96.6296
97.7279
118.983
69.1424
99.9276
54.1166
98.0252
94.9742
88.1283
86.744
97.7717
97.0771
79.0208
98.4523
121.001
98.5626
89.4798
114.868
125.983
119.096
99.8659
98.5269
94.1562
95.8248
93.161
85.7392
91.8193
94.0542
99.6044
109.5
109.111
103.5
92.3984
99.4539
92.6352
101.969
97.3593
97.1129
94.9615
97.2311
96.1828
126.813
93.0576
93.0586
93.1554
100.405
93.7868
95.0447
91.9134
97.7614
97.3635
94.1299
97.3407
96.5768
92.3397
99.8209
95.0713
98.6767
90.1989
93.0351
94.5872
94.4155
94.0377
110.247
98.6337
95.6547
95.6427
98.6777
115.93
123.989
98.7213
96.7324
118.081
97.2282
103.73
97.8924
96.2697
97.1617
97.2273
97.7867
97.5046
98.3969
93.1973
96.673
98.0468
128.301
97.8986
96.9587
94.3161
97.1873
95.4088
96.8665
89.6214
96.1865
97.7512
101.359
123.019
94.654
94.0782
97.6271
93.1829
100.118
94.9919
98.4292
99.8744
97.1998
97.6649
95.9192
98.5551
50.4588
94.5816
127.365
99.2367
97.4625
99.7646
125.477
94.6418
53.1851
102.11
97.4915
97.5196
97.7612
96.7524
97.7121
97.603
93.5167
97.6716
92.7896
97.604
97.7265
94.6414
99.0188
102.184
127.918
99.1181
94.6495
97.2251
99.033
97.7807
95.0696
108.825
87.561
93.9058
101.538
95.9794
100.262
97.1764
101.549
120.555
96.79
97.3472
98.0331
93.9168
129.239
92.3172
97.562
92.5423
93.5077
98.3689
98.7799
97.7539
127.905
103.365
97.6236
97.5652
92.8809
101.994
96.9999
97.4938
93.175
98.7626
97.2452
96.1621
44.1091
99.2499
95.6441
112.662
129.082
95.2328
94.4379
96.8302
127.369
96.8343
99.8707
94.1537
35.0494
58.3854
98.8336
46.9646
97.1426
34.0228
94.3602
113.059
96.3069
94.5779
97.7387
97.721
97.694
97.7043
97.7584
97.6979
97.8026
97.8293
97.757
97.8454
62.8488
98.9173
98.6205
98.2556
98.3921
56.3491
99.2502
97.8131
92.32
95.2623
93.8985
91.0586
68.5817
49.0767
90.3964
78.1769
73.4463
90.6099
99.3186
95.6942
96.2216
96.0556
95.2538
96.9689
97.8558
96.2152
98.5496
97.7716
96.772
96.5131
97.2951
96.388
96.1647
98.2233
114.406
115.625
99.0633
99.7702
97.2424
91.1299
96.3152
101.869
114.113
118.281
107.439
104.694