/*--------------------------------*- C++ -*----------------------------------*\
| =========                 |                                                 |
| \\      /  F ield         | OpenFOAM: The Open Source CFD Toolbox           |
|  \\    /   O peration     | Version:  v1912                                 |
|   \\  /    A nd           | Website:  www.openfoam.com                      |
|    \\/     M anipulation  |                                                 |
\*---------------------------------------------------------------------------*/
FoamFile
{
    version     2.0;
    format      ascii;
    class       surfaceScalarField;
    location    "0.61";
    object      phi;
}
// * * * * * * * * * * * * * * * * * * * * * * * * * * * * * * * * * * * * * //

dimensions      [0 3 -1 0 0 0 0];
oriented        oriented;


internalField   nonuniform List<scalar> 
11117
(
-8.63166e-06
-8.92168e-06
4.27196e-06
1.32814e-05
-4.51449e-06
0.000143483
1.56657e-06
-0.000140535
-3.891e-05
6.09101e-05
-8.45699e-05
6.25697e-05
-0.000427691
-8.31726e-06
0.000191821
0.000244188
0.000198607
0.000162881
-0.000112762
-0.000248726
-2.65686e-05
7.21126e-06
-6.47189e-05
8.40762e-05
-0.000211089
1.0472e-05
0.000117636
8.29807e-05
-0.00014206
1.07413e-05
5.75896e-05
7.37287e-05
0.00127951
0.000247192
-0.000944085
-0.000582622
-0.000187113
0.000193704
-4.18286e-05
3.52377e-05
-0.000850352
0.000918662
0.000295203
-0.000363513
-0.000571668
-0.000175636
0.000401937
0.000345367
-0.000352033
-0.000240453
0.000228294
0.000364192
0.000825961
-0.00098928
0.000443114
-0.000279795
0.000124126
-0.000113489
6.84567e-05
-7.90941e-05
3.36058e-06
4.0673e-05
-3.15604e-05
-1.24731e-05
-8.76274e-05
6.44024e-05
-2.6499e-05
4.9724e-05
-0.00058475
0.000590918
0.000707161
-0.000713328
5.7786e-05
0.00019107
-0.000124729
-1.54746e-05
7.94727e-06
0.000147685
-0.000140157
-0.000324503
0.000183209
6.95689e-05
7.17251e-05
-1.5327e-05
9.00313e-06
3.96873e-05
-3.33634e-05
0.000236955
0.000160117
-0.000128856
-0.000268217
0.000122051
0.0001174
-9.21718e-05
-0.000147279
0.000383535
0.000242884
-0.00042836
-0.00019806
0.000975242
-0.00100907
0.000278613
-0.000244783
0.000239062
-0.000343075
0.000675147
-0.000571135
-0.000162781
0.000240552
-0.000200906
0.000123136
7.5714e-05
6.28041e-06
0.000986019
-0.00106801
0.000136904
-8.87162e-05
0.000102607
-0.000150795
-0.000256228
-0.000330046
0.000453008
0.000133267
-0.000115697
-0.000430088
0.000375431
0.000170354
-0.000116577
-0.000436655
0.000369368
0.000183865
0.000126593
-2.84813e-05
3.02672e-05
-0.000128378
-0.000227899
0.0001273
-8.19488e-05
0.000182547
-0.0002094
0.000114171
-6.78273e-05
0.000163057
0.000607647
-0.000824438
0.001005
-0.000788208
0.000592229
-0.000698014
-0.000226525
0.00033231
0.000328599
-6.0721e-05
-0.00052171
0.000253832
0.000154109
0.000485459
-0.000560348
-7.92202e-05
0.000169202
0.000444039
-0.000479109
-0.000134133
5.53377e-05
8.83694e-05
-0.000134436
-9.2716e-06
0.00100713
0.000887075
-0.000891229
-0.00100297
0.000200996
9.47551e-05
-5.15328e-05
-0.000244218
0.00016355
4.0725e-05
-0.000146489
-0.000933072
0.000739048
-0.000224283
0.000418306
-0.00085559
0.000674119
-0.000207547
0.000389019
-6.46349e-05
-7.95387e-05
0.000112272
3.19012e-05
6.86968e-05
-2.73161e-05
1.4748e-05
-5.61287e-05
-9.99634e-05
0.000117888
-1.79244e-05
-6.40418e-05
7.70281e-06
5.6339e-05
-0.000349518
-0.00117495
0.000532133
0.000992333
0.000128015
-9.71001e-05
0.0001158
-0.000146715
-7.74394e-05
8.46492e-05
-2.6747e-05
1.95372e-05
1.22882e-05
-1.22882e-05
0.000419091
0.000173942
-0.000548291
-4.47419e-05
0.000379988
0.000162484
-0.000500136
-4.2335e-05
-0.000152258
3.30512e-05
0.000163433
-4.42269e-05
0.000890993
0.000115366
-0.00137463
0.000368272
-0.000382964
0.000829128
0.000529077
0.000839092
-0.000856242
4.68681e-05
-2.97173e-05
0.000132552
-5.07421e-05
-6.93739e-05
-1.24356e-05
-0.000162111
-1.0621e-05
-8.34962e-05
9.68931e-05
-3.02881e-05
-0.000182302
0.000112793
-3.84492e-05
-0.000190921
-3.79216e-05
-9.72785e-05
8.16956e-05
5.35045e-05
0.000141842
-0.000130137
5.89843e-05
-7.06896e-05
6.29774e-06
-0.000337885
0.000331587
-0.000727224
-0.000357326
0.000601768
0.000482781
-1.99175e-07
4.78182e-05
4.20341e-07
-4.80393e-05
0.000489372
-0.000145183
-0.000693706
-0.000211809
0.00020054
0.000153111
-0.000271545
-0.00126618
0.00130349
0.000234234
-6.15824e-05
0.000140893
-9.32327e-05
1.39222e-05
-0.000761998
-0.000549975
-4.88311e-05
-1.96821e-05
0.000151963
-8.34496e-05
-1.65103e-05
-3.18792e-05
4.83894e-05
-0.000985661
-0.000155419
0.000132008
0.000148218
9.17699e-05
-3.89924e-05
2.13274e-05
-1.15495e-05
-9.77789e-06
-5.18959e-06
2.30434e-05
-7.32889e-06
-1.05249e-05
8.83015e-05
4.23399e-05
-3.9183e-06
-0.000126723
0.00014831
-0.000107486
0.00029
-0.000330823
-0.000225763
8.96691e-05
0.000262098
-0.000126004
-0.000314246
0.000307584
0.000314285
-0.000307623
5.05403e-05
-0.000433272
0.000382732
-1.6059e-05
-0.000594378
0.000610437
3.02641e-05
-0.000476448
0.000446184
3.97821e-05
1.48134e-05
8.62426e-05
-0.000140838
-8.92583e-05
4.22819e-05
0.000107407
-6.04309e-05
0.00051609
-0.000152769
7.73444e-05
-0.000440665
0.000699658
5.99865e-05
-6.44961e-05
-0.000695148
0.000669992
-3.48873e-05
4.66596e-05
-0.000681764
-0.0006908
3.86545e-05
-2.76602e-05
0.000679806
-0.000556816
4.23482e-05
-1.85309e-05
0.000532999
-3.26797e-07
0.000221356
-0.000320619
9.95897e-05
0.000576984
2.22159e-05
-2.21961e-05
-0.000577004
0.000628351
4.5193e-05
-2.74382e-05
-0.000646106
0.000676657
5.11159e-05
-3.21771e-05
-0.000695596
0.00080651
6.44441e-05
-3.18622e-05
0.000369635
7.9694e-05
-0.00040239
-4.6939e-05
-0.000226417
0.000166018
6.65803e-05
-6.18122e-06
0.000308754
-0.000384034
-0.00117505
0.00125033
0.000711068
0.000289293
-0.000743883
-0.000256478
-0.000100587
0.000202349
-0.0001373
3.5537e-05
-0.000877127
0.000219381
0.00077866
-0.000120914
3.72633e-05
-3.53099e-05
0.000116462
-0.000118416
1.47422e-05
3.34973e-06
2.19691e-05
-4.0061e-05
-0.000240358
6.63639e-06
9.87818e-05
0.00013494
9.48271e-05
-2.24483e-05
7.58394e-05
-0.000121396
8.47143e-05
8.37615e-05
-4.70799e-05
-7.58864e-05
6.99159e-05
6.26128e-05
-5.66424e-05
-0.000415555
0.000349938
-0.000146858
0.000212474
-1.33211e-05
1.66628e-05
1.83664e-05
-2.17081e-05
7.61068e-05
0.000509525
-0.000572573
-1.30591e-05
0.000128967
0.000632586
-0.000718115
-4.34373e-05
-1.669e-05
-7.31376e-05
6.68675e-05
2.29601e-05
-0.000506212
0.000446709
0.000862614
-0.000803112
3.94859e-05
-2.21829e-05
-0.000873545
-0.0010383
8.21775e-05
0.000958548
-2.42127e-06
0.000990933
-0.000689947
-0.000807198
4.2382e-05
-4.46621e-05
2.28005e-06
0.000128997
-7.86951e-05
0.000136984
-0.000187286
-0.00010842
-0.000103192
-9.50526e-05
-3.09832e-05
6.64195e-05
5.96162e-05
-0.000341125
0.000394436
0.000603707
-0.000657018
-0.000527285
0.000761544
-0.000612956
0.000378697
1.00128e-05
8.82865e-05
-7.79572e-05
-2.03421e-05
0.000576812
-0.000853355
-0.000114198
0.00039074
4.09107e-05
-5.35226e-06
4.71254e-06
-4.0271e-05
0.000306438
-0.00019104
-0.000228443
0.000113045
6.50327e-05
8.70935e-05
-0.0001336
-1.85264e-05
0.000179325
-0.000121624
-7.26284e-05
1.49279e-05
-0.000936972
0.000106162
-0.000154851
-0.000357677
0.000324035
-0.000689002
0.000722644
5.66341e-05
-6.56571e-05
-0.000104466
-0.000389707
3.34511e-05
9.59252e-06
0.000346664
6.60891e-05
9.57604e-05
-2.92979e-05
-1.79759e-05
2.21008e-05
3.94781e-05
-4.36029e-05
6.48687e-05
0.000129722
-8.35203e-05
-0.000111071
-0.000194568
4.5705e-06
0.000122445
6.75525e-05
-1.40336e-05
-0.000329389
0.000385086
-4.16637e-05
7.4904e-05
-7.59336e-05
-9.03415e-05
9.13711e-05
0.000421517
-0.000249474
-0.000202739
3.06963e-05
-3.51163e-06
6.92669e-05
-5.03611e-05
-1.53942e-05
4.73219e-06
0.000207131
-0.000142344
-6.95191e-05
0.000237885
-0.000108903
1.50146e-08
-0.000423359
0.000943835
-0.000539758
1.92823e-05
0.000120669
9.21768e-05
-0.000163549
-4.92969e-05
-4.15343e-05
0.000119396
-3.03763e-05
-4.74859e-05
0.000926924
0.000449055
-0.000613103
-0.000762875
2.26851e-05
-1.30025e-05
-4.36817e-05
3.39992e-05
-0.000470688
-3.3181e-05
-0.000373258
0.000117705
-0.000190211
-6.85475e-05
0.000141054
-0.00029228
-0.000354341
0.000411949
0.000234671
0.000863048
-0.000204512
-0.000658535
0.000102836
0.000442959
-5.35286e-05
-0.000389431
0.000954607
-0.000229693
-0.000724914
0.000277983
0.000141325
-3.23391e-05
-0.000108986
-0.000100117
0.000395021
-0.000294904
7.89348e-05
-0.000102699
2.37644e-05
-7.40539e-05
0.000398084
-0.00032403
-0.000480459
0.000544686
-6.42274e-05
-0.000485876
0.000480785
5.09082e-06
-0.000217201
-5.49736e-05
0.000272175
-0.000133986
-7.68701e-05
0.000210856
-8.43592e-05
-3.70367e-05
-4.65634e-05
-2.9323e-05
-0.000119055
0.000106716
1.23387e-05
0.000209129
0.000193798
-0.000402928
0.000174551
-0.000227471
5.292e-05
0.000183738
-0.000247967
6.42289e-05
5.09953e-05
-1.02333e-05
-4.0762e-05
-0.000264203
0.000323181
-5.89785e-05
-9.27916e-05
6.27097e-05
3.00819e-05
-0.000422851
0.000501631
-7.87797e-05
-0.000121509
0.000138588
-1.70796e-05
0.000957555
-0.0010476
9.00452e-05
3.35872e-05
8.31788e-05
-0.000116766
-0.000200878
0.000273307
-7.24292e-05
9.35341e-05
1.1456e-05
-0.00010499
-0.000264373
0.0003069
-4.25267e-05
-0.000144908
0.000188132
-4.32239e-05
-0.000106232
0.000290165
-0.000183934
-0.000253884
2.74671e-05
-0.000226238
0.000148194
7.80444e-05
0.000141532
-9.91552e-05
-4.2377e-05
2.01025e-05
0.000145915
-0.000206015
-0.000644337
-0.000337243
-9.28452e-05
-0.000351658
-8.49971e-05
-0.000146549
-0.000183498
0.000160506
-9.54737e-05
0.000402409
-9.59701e-05
0.000191498
7.77776e-05
-0.000269276
0.000126972
-2.58336e-05
-0.000101138
0.000165699
2.53709e-05
-0.00108743
0.00139618
0.000225149
1.46294e-05
-0.000239778
-0.000973658
-0.00020129
-0.000164065
9.94305e-05
1.77123e-05
-0.000111463
9.37512e-05
-0.000722503
-0.000133087
-0.000790373
-0.000142698
-7.79439e-05
-5.0069e-06
8.29508e-05
2.53252e-05
-1.81011e-05
1.93599e-05
-2.6584e-05
-0.000177656
8.88867e-05
0.000474739
-0.00038597
-0.000903162
0.00090145
0.000678761
-0.000677049
4.02875e-05
-6.12973e-06
-4.17282e-05
7.5705e-06
-0.00118919
0.00114584
-5.15615e-05
9.49123e-05
-0.000221263
0.000194867
-4.76576e-05
-0.000179613
0.000173496
-9.39997e-05
2.14099e-05
-8.09612e-05
-0.00016002
0.000219571
0.000138942
-0.000146645
-0.000166807
0.00017451
5.47912e-05
-4.95683e-05
-5.71437e-05
5.19208e-05
-0.000237892
0.000190355
0.000226862
-0.000200093
4.92765e-05
0.000579699
-0.000428882
0.000780911
-0.000676267
-0.000179959
7.53153e-05
-0.00140404
-3.46219e-05
0.000249465
0.000177692
-0.000214652
4.20198e-05
-5.0603e-06
0.000251458
1.31676e-06
-4.28846e-05
-0.000209891
0.00066249
-0.000180794
-5.61359e-05
-0.00042556
-0.000330437
-0.000241141
3.79855e-05
0.000533593
-7.41226e-05
5.37551e-05
0.00125183
-0.00123146
-7.70991e-05
-2.60666e-05
0.000103166
5.83926e-06
0.000114117
-4.77049e-06
-0.000115186
-0.000139949
5.29891e-06
-7.67899e-06
0.000142329
7.35005e-05
-7.98135e-05
-8.85929e-05
9.4906e-05
-7.12876e-05
0.000101165
-0.000222862
0.000192985
-8.33628e-05
0.000128106
-0.000230016
0.000185273
-3.43427e-06
1.26616e-05
0.000111279
-0.000120506
0.000136455
-4.44205e-05
-0.000219597
0.000127563
0.00024613
-0.000280934
1.83175e-05
1.64868e-05
2.35271e-05
2.92135e-05
-0.00106228
0.00100954
-0.000142733
5.62894e-05
-0.000750677
0.00083712
0.000845527
-0.000847029
6.87534e-05
-6.72515e-05
0.000188997
-0.000286164
-0.000153482
0.00025065
-4.26724e-05
-9.71282e-06
2.46276e-05
2.77576e-05
-0.000124261
-5.2498e-05
9.56074e-05
8.11517e-05
0.000160469
-0.000143216
-7.81413e-06
-9.4395e-06
5.18768e-05
0.000707237
-0.000392847
-0.000366267
1.54975e-05
0.000222067
-0.000119859
0.000237503
-0.000255684
3.36788e-05
-6.61759e-06
-2.02512e-05
0.000111583
-1.35651e-05
6.0243e-05
-0.000159161
0.000112483
5.52179e-05
-1.1622e-05
7.70728e-05
5.23251e-05
-0.000534928
0.000482603
4.59803e-05
-0.000474398
0.000428418
4.37635e-05
-0.000541121
0.000497358
6.67743e-05
-6.42619e-05
-4.0434e-05
-0.000159449
-2.86902e-06
1.87509e-07
-7.11328e-06
9.79479e-06
-1.788e-05
2.68373e-05
-0.000950055
0.000941097
-0.000307372
-0.000359773
0.000429898
0.000237246
0.00105993
-0.000453146
-0.000809614
0.000202826
-0.000653157
0.00115901
-0.000873131
0.000367282
9.31963e-06
-2.67976e-05
4.28032e-05
-9.9826e-05
-5.92905e-05
6.40639e-05
-0.000598864
-6.60992e-05
0.000287752
0.000377211
-5.69499e-05
-0.000216169
5.18552e-05
-0.000117119
-0.000146542
8.40479e-05
2.6588e-06
0.000116418
-4.14072e-05
-7.76696e-05
-0.000316381
0.000195851
0.000120529
-6.69844e-05
6.5201e-05
1.78345e-06
0.000278442
-0.000175176
-0.000144801
0.000101082
-0.000374212
0.00032925
-5.61199e-05
9.91901e-05
-5.76912e-05
-0.000591388
3.19454e-05
-5.45567e-05
0.000613999
-0.000536643
3.20163e-05
-6.10602e-05
0.000565687
-0.000244256
-7.09078e-05
8.6957e-05
0.000228207
4.66066e-06
0.00021848
-0.000255847
3.27066e-05
-0.000299506
0.000486053
0.000345586
2.98954e-05
-0.0010855
0.00111189
-5.62863e-05
2.25517e-05
9.40401e-05
-4.30914e-05
2.06758e-05
-7.26905e-05
-2.54247e-05
0.000177546
-6.49038e-05
-0.000177756
6.51139e-05
-3.903e-05
5.01836e-05
1.72935e-05
-2.8447e-05
4.91742e-05
0.000250657
-2.54249e-05
-0.000274406
0.000106346
7.38446e-05
-5.32193e-05
-0.00033549
-6.25894e-05
0.000293422
0.000104657
-0.000494664
0.00035107
0.000312797
-0.000124625
6.29232e-05
0.000117039
-0.000676031
0.000436971
0.000393169
-0.000526566
1.99118e-05
0.000523779
-1.71246e-05
-0.000595419
-1.13108e-05
0.000604841
1.88959e-06
1.7787e-06
0.000567611
-0.000551869
-1.75212e-05
-3.65687e-05
0.000587724
-0.000575618
2.44633e-05
-0.000632355
0.00104418
-0.000769501
-0.000116038
0.000110754
-9.64681e-05
0.000101752
-0.000101947
0.000102118
-0.00012715
0.00012698
0.000175829
-0.000131907
3.13759e-05
-7.52988e-05
-4.03382e-05
2.53521e-05
-2.00554e-05
3.50415e-05
-0.000964182
0.000119103
0.000946594
-0.000101516
-0.000118105
0.000707402
-0.000758059
0.000168762
-1.13822e-05
-9.60423e-05
0.000321724
-0.000214299
-0.000108538
9.01277e-05
0.00019732
-0.00017891
-2.89276e-05
-0.000108084
0.000472295
-0.000335283
-1.09593e-05
0.000108805
5.4704e-05
-0.00015255
4.68816e-05
-7.66402e-05
0.00011806
-0.000562432
0.000516511
8.6822e-06
1.49682e-05
-2.884e-05
0.000338483
-0.000281154
-5.45225e-06
0.000223001
0.000158745
-0.000225599
-0.000156147
3.71751e-05
-1.50388e-05
0.00031228
-0.000334417
-3.39921e-05
6.68999e-06
-1.17279e-05
0.000590005
-0.00032122
-0.00062611
0.000758428
-0.000395209
0.000690487
-0.000364083
0.000234973
-3.627e-05
2.63682e-05
2.62615e-05
7.65485e-05
-0.000129178
0.000463226
-0.000771229
-0.000595158
3.4807e-05
-5.35381e-06
-4.27743e-05
-0.00042711
0.000472455
0.0010129
-0.00105825
0.000845902
-0.000171595
-4.63426e-05
-0.000627965
8.87671e-07
1.10807e-05
2.77379e-06
-0.00030637
0.000193526
0.000353395
-0.000237139
6.36723e-05
-6.68911e-05
0.000168422
-0.000724065
0.000631358
2.93303e-05
4.06517e-05
-5.36651e-05
-1.6317e-05
0.000157376
5.93725e-05
-7.70796e-05
-0.000139669
-0.000614315
0.000562824
0.000498201
0.000142451
0.000148333
5.76947e-05
-6.66596e-05
6.53938e-05
-5.64289e-05
-1.96164e-05
-0.000201941
0.000160836
-2.34053e-05
3.12332e-05
-7.45027e-05
6.66749e-05
-0.00016926
-0.000191527
0.000783808
0.000134854
-1.61032e-05
-8.03011e-05
0.000341608
0.000111399
0.00014313
0.000121547
-4.55811e-05
0.000198396
-0.000192557
-5.42442e-06
-3.04584e-05
2.19704e-05
0.000126223
5.422e-07
-3.93163e-05
0.000231914
-2.72473e-05
-7.02398e-05
-4.2524e-05
0.000136058
-3.88303e-05
-0.000225543
-5.8272e-05
-0.000142606
-0.000515491
2.96147e-05
-0.000135996
-0.000562018
-4.95048e-05
-0.000472205
-2.2967e-05
2.76992e-05
-4.47585e-05
-6.39354e-05
-0.000135093
-3.68185e-05
0.000326984
0.00016964
-3.94105e-06
0.000381066
0.000611267
1.406e-05
4.94385e-05
-1.14493e-05
-1.86784e-05
1.20265e-05
-0.000161657
-0.000258148
0.00019328
0.000490689
-0.000514441
2.373e-05
2.16474e-08
7.99729e-05
-0.00014117
7.16693e-05
0.000119337
-0.000231751
0.000123156
1.8772e-06
-7.35451e-05
-1.91112e-06
7.35791e-05
0.000272481
0.000466567
0.000253005
0.000421113
3.40294e-05
-0.000113568
5.84273e-05
-6.93831e-05
4.26967e-05
-3.17409e-05
-0.000108693
1.02555e-05
0.000106051
-7.61391e-06
9.00541e-05
-3.60473e-05
-5.21296e-05
-6.17248e-06
4.44318e-05
-4.04288e-06
-3.42165e-05
-8.92261e-06
-8.49192e-05
3.09888e-05
6.28531e-05
0.000423913
-0.000116366
0.000133646
-0.000421825
0.00070727
9.44848e-05
-0.000378778
0.000664281
-8.3495e-05
0.000157795
-0.000226557
-1.09981e-05
5.59445e-05
-5.12748e-05
6.32842e-06
-4.26472e-05
0.000156225
-9.44365e-05
-1.91412e-05
4.08789e-05
4.50574e-05
-2.7509e-05
-0.000625173
0.00103082
-0.000735012
0.000329365
6.28424e-05
-0.000185557
-8.66854e-05
7.73378e-05
-0.000191405
-0.000113832
-2.27947e-06
8.18142e-05
4.70579e-05
-0.00107221
0.000964637
0.000113849
7.72777e-05
8.62393e-05
-0.00016093
-2.58754e-06
-4.37083e-05
7.70852e-05
-7.27968e-05
3.94199e-05
-3.3316e-05
-0.000183885
-4.14304e-05
-9.25556e-05
0.000363722
-0.000125551
-8.68577e-06
3.98347e-06
4.60173e-05
-4.1315e-05
-6.41827e-05
6.73531e-05
-0.000113774
0.000110603
0.000103263
0.000100375
4.75611e-05
0.000134878
4.18442e-05
-0.000108592
-6.81301e-05
0.000136818
-3.54691e-05
-0.000133688
0.000187661
0.000139352
0.00034251
0.0012162
0.000137482
-0.00117692
-0.000176763
7.71439e-05
2.05099e-05
4.9406e-05
-0.000658527
0.000169846
0.000585176
-9.64954e-05
-0.00017736
2.8832e-05
-2.83229e-05
0.000176851
9.38125e-06
-6.2798e-05
3.80969e-05
1.53199e-05
5.53029e-05
-0.000105884
5.17355e-05
-1.15434e-06
-0.000209257
0.000701682
4.4984e-05
-0.00053741
-0.000285585
0.000809407
5.45221e-05
-0.000578345
0.000667482
2.97785e-05
8.5818e-05
-0.000783078
-6.10406e-05
5.67537e-06
8.28982e-05
-2.75329e-05
6.37319e-05
0.000145398
-0.000161183
0.000361475
0.000401477
0.000487585
0.000109174
0.000520136
0.000118582
0.000601839
0.000121729
0.000552603
-7.26667e-06
-5.62602e-07
4.19829e-06
3.63098e-06
-8.2248e-05
4.89262e-05
-3.60613e-05
-0.000316867
0.00037971
-0.000336266
0.000413604
6.08988e-05
-6.31783e-05
1.75009e-05
2.82045e-07
-1.12017e-06
-1.73868e-05
-0.000166818
0.000192803
-8.59786e-06
-2.57535e-05
-1.8736e-05
3.54568e-05
9.03264e-06
2.56984e-05
0.000671595
-0.000450101
0.000968956
6.11012e-05
-0.00101682
-1.32369e-05
-0.000223902
0.00027767
0.000224674
0.000137051
-0.000263707
-6.71045e-05
0.00019376
0.000175356
-5.75069e-05
2.40526e-05
1.67643e-05
0.000200039
0.000120548
-0.000104341
-0.00013265
4.00138e-05
-0.000954589
0.000927125
-0.000399647
-5.78147e-05
-0.000157453
-1.73249e-05
0.000175799
1.39074e-05
-0.000172381
-7.7669e-05
0.000712818
1.68633e-05
-0.000652012
-8.19402e-05
0.000560345
2.38849e-05
-0.000502289
1.15204e-05
-2.53175e-06
4.96933e-05
-5.8682e-05
0.000125526
-7.68922e-05
-1.29027e-05
-3.57308e-05
4.3853e-05
-0.000143502
0.00018974
-9.00906e-05
-1.57421e-05
0.000214138
-0.000137615
0.000179039
-7.2615e-05
3.11909e-05
-0.000282694
-6.05905e-05
0.000201054
0.00014223
-3.06044e-05
2.51047e-05
-7.66833e-06
1.3168e-05
0.000623819
2.41123e-05
-1.82214e-05
-0.00062971
-1.38615e-05
8.24077e-05
-6.58874e-05
0.000505294
-2.54863e-05
3.09849e-05
-0.000510793
0.000219448
-0.000137078
-0.000138046
5.5675e-05
-0.000498309
-1.10361e-05
-5.70677e-05
0.000566413
-0.000555279
-9.23995e-05
1.67843e-05
0.000630894
-1.84333e-05
-6.85849e-06
2.86912e-05
-3.39945e-06
-0.00016139
8.13635e-05
0.000153264
-7.32372e-05
-0.000121896
-7.31659e-05
0.000142146
5.2916e-05
-0.000195808
0.000154193
2.13642e-05
0.000762943
8.35842e-05
-4.00177e-05
4.58081e-05
4.22814e-06
-9.12556e-06
-0.00123986
-0.000112072
0.00119046
0.000161465
0.000514954
0.000280866
-0.000245137
-0.000550683
8.75687e-05
-4.5595e-05
-3.53687e-05
-6.60501e-06
-5.58442e-05
0.000116619
-0.000160553
9.97789e-05
2.20411e-05
-3.59027e-05
-0.000176664
9.1673e-05
-0.000581635
0.000666627
0.000132537
-0.00011082
2.91314e-05
-5.08483e-05
6.62095e-05
-6.17518e-05
-4.69797e-06
2.40305e-07
7.57427e-05
4.28447e-05
-6.75195e-05
-5.1068e-05
0.000177305
-0.000140763
-1.01737e-05
0.00109172
-0.000932031
0.000249784
-0.000409477
-0.000254868
-0.000189469
0.000243431
3.52499e-05
0.000136462
-0.000137429
-3.42824e-05
-0.000159965
-4.14388e-05
4.00136e-05
-0.000218295
0.000188985
-9.2586e-05
-5.53951e-06
8.61053e-06
-2.15043e-05
-0.000108917
8.6967e-05
9.63998e-05
-7.44498e-05
5.37412e-06
0.000107304
-0.000105632
-7.04682e-06
-1.85535e-06
-6.17959e-06
0.000224547
-0.000412541
0.000483197
0.00113324
-1.65589e-05
2.91572e-05
2.90633e-05
-5.09951e-05
-0.000160411
0.000182343
-6.52332e-05
4.22661e-05
2.83253e-05
-1.76495e-05
-1.99359e-06
9.45298e-05
-0.000175553
0.000127905
-0.000685443
0.000324628
-6.68762e-05
-0.000810598
-0.00048916
0.00010639
9.12784e-05
1.45255e-05
-0.000179354
-1.25312e-05
0.000148418
-0.000120586
-0.000174665
-8.93023e-05
0.000144913
5.6381e-05
6.74075e-05
-8.29096e-05
-1.71151e-05
3.2454e-05
3.40502e-05
-4.93891e-05
-0.00078945
-8.67372e-05
0.00021766
0.000342736
-0.000307155
-0.000209402
0.000173821
-0.00016719
-0.000955976
7.84822e-05
0.00104468
-7.08861e-05
-0.00100425
0.00103268
4.24553e-05
5.26499e-05
-6.39187e-05
-8.34761e-06
-0.000244319
-0.000348741
0.000369158
0.000110475
0.000122592
-0.000128597
-0.00010447
1.32773e-05
-2.30072e-06
-4.78664e-06
-6.18992e-06
-0.000797319
-0.000279197
-0.000172709
-4.3729e-05
-1.88635e-05
0.000235302
9.02761e-05
-3.40842e-05
-8.34347e-05
2.72428e-05
0.000231615
-7.44867e-05
-6.89444e-06
-2.42807e-05
-2.81697e-06
5.8309e-05
-5.58204e-05
-4.51358e-05
6.25019e-05
-7.66303e-05
1.45905e-05
-4.62093e-07
6.29856e-05
2.21988e-05
-9.3164e-06
-7.5868e-05
1.09171e-05
0.000631127
-1.24919e-05
-0.000629553
0.000105237
0.000652419
-6.08347e-05
-0.000696821
3.68184e-05
2.23292e-05
3.35429e-06
3.19454e-05
-0.00108974
0.00108996
-3.21733e-05
0.00025477
-0.00152532
5.66971e-05
0.00121385
2.42363e-05
2.43567e-05
-1.75091e-05
-3.1084e-05
0.000182895
-2.38616e-06
-1.89689e-05
-0.00016154
0.000271779
-0.000350224
0.000241326
0.000698081
-0.000587736
-0.0007427
4.07488e-06
1.3404e-05
5.9572e-06
-2.34361e-05
-8.11147e-05
9.31053e-05
-3.51119e-05
2.31213e-05
-0.000116908
7.99512e-05
8.98946e-05
-5.29379e-05
-0.000735114
0.000234886
0.000478341
2.1886e-05
0.000134977
-4.77089e-05
7.94591e-05
-0.000166727
5.29322e-05
-8.72769e-06
9.8086e-06
-5.40131e-05
0.000230395
2.32065e-05
4.16056e-06
-0.000257762
-2.19942e-05
8.2325e-05
-6.03308e-05
0.000316983
-0.00130207
6.77483e-05
-8.48195e-05
-7.93044e-05
9.63756e-05
-1.96195e-05
9.02848e-05
1.93888e-05
1.86349e-05
1.25577e-05
2.68038e-05
-5.79964e-05
0.00104137
-0.00146598
0.000183316
0.0002413
0.000441124
7.17069e-06
1.34316e-05
-0.000461726
-5.67496e-06
-2.77675e-06
5.42599e-05
8.60017e-05
8.4192e-05
-0.000915433
0.00074524
-1.76377e-05
-2.32684e-05
3.66279e-05
4.27826e-06
-1.42572e-05
0.000168296
-0.000208669
5.46293e-05
-3.46135e-05
-0.000116773
0.000168184
-1.67976e-05
0.000997532
-0.000698856
-1.15023e-05
-4.30304e-05
3.11274e-05
4.35176e-05
9.30065e-05
-7.88294e-05
0.000845282
-0.000578189
5.37719e-05
-0.000320865
3.09693e-05
0.00040042
-9.87278e-06
5.30026e-05
-4.01898e-05
-9.95053e-06
-6.02118e-05
2.2071e-05
4.80913e-05
0.000556397
-8.48737e-05
-0.000422689
-4.88344e-05
5.11183e-07
-2.47896e-07
-5.98296e-05
5.95664e-05
-6.20198e-05
-0.000162594
0.000184725
0.000200869
1.66333e-05
5.5525e-05
-2.97701e-05
-4.23882e-05
6.91131e-05
6.84037e-05
-1.04523e-05
1.4258e-06
0.000239421
4.08349e-06
-4.18277e-06
5.30314e-05
4.55111e-05
-2.7837e-05
0.000117303
0.000250626
-0.000283113
0.000119651
-8.7163e-05
0.00113945
-0.00111191
-0.000299085
-3.77608e-05
-0.000602216
0.00018331
0.000519988
1.49777e-05
-2.07483e-05
2.84557e-05
0.000547243
-9.5895e-05
0.000546184
-0.000102061
-4.59744e-05
8.64534e-05
5.91735e-06
-6.39673e-06
-2.36324e-05
2.41118e-05
4.35438e-05
-2.5395e-05
-4.74892e-05
2.93404e-05
-2.13913e-05
1.14408e-05
2.69014e-05
-9.45345e-05
8.50539e-05
-1.74208e-05
0.000705201
0.000104091
-4.63491e-05
0.00016452
0.000165733
-0.000269904
0.000233335
-0.000423723
0.000425501
-0.00034642
0.000228316
-0.00114244
0.00114512
9.78482e-05
-0.000100527
0.000258473
0.00052826
-0.000253442
-0.000451516
-0.000123121
-0.000110042
-0.000216117
-0.00028993
0.000492579
-0.000715617
-0.000163888
0.000386926
-0.000773143
0.000306833
-8.20556e-05
0.000548366
-3.97322e-05
0.000116359
-0.000341785
0.000265158
-2.24957e-05
-6.08523e-05
-0.00114141
0.00122476
8.59161e-05
-0.000381959
0.000750656
0.000182992
-0.000805728
-0.00012792
-1.84699e-05
2.14245e-05
1.45463e-05
0.000679445
-0.000636306
7.85905e-05
0.000653659
-0.000703218
0.00016814
0.000541186
-0.000504139
7.21267e-05
-1.803e-05
9.47025e-05
1.36036e-05
-8.95237e-05
1.19357e-05
9.42213e-05
6.5844e-05
-8.28041e-05
6.7258e-05
-5.02979e-05
0.000629592
-0.000531339
-7.90332e-05
-1.92202e-05
0.000625776
-0.000534357
8.86611e-06
-0.000100286
9.75459e-05
0.00153102
-0.00120345
-0.000425117
-1.43998e-05
8.64553e-06
-4.03137e-05
4.6068e-05
-0.000994196
-0.000637549
0.00105572
0.000576028
1.34826e-05
-6.34141e-05
-9.58186e-05
0.00014575
1.31894e-05
2.71601e-05
4.73666e-05
-8.7716e-05
-8.95656e-06
-3.25683e-06
-3.07138e-05
4.29272e-05
0.000120745
-4.46063e-05
0.000629062
0.000540609
-0.000747814
0.000283313
0.000587963
-0.000818042
0.000359046
-1.17301e-05
0.000117189
-6.32342e-06
1.24398e-05
3.3904e-05
-4.00204e-05
0.000635794
-6.42973e-05
0.000135905
1.14772e-06
2.17007e-05
-9.41251e-06
-0.000131691
-0.000193304
6.39003e-05
0.000261095
0.00013383
0.000830879
-0.000683843
-0.000278363
-0.000365568
0.00033656
0.000694586
-0.000650992
-0.00016393
0.000120337
-0.000122764
7.00375e-05
8.1558e-05
9.36238e-05
-4.6714e-05
3.6269e-05
0.000141837
-1.58028e-05
6.20983e-05
-3.4152e-05
9.02291e-05
0.000517916
-0.000624184
0.000106269
-0.000404609
0.000290036
-0.00127459
0.00138916
-0.000193275
0.000110097
0.000274807
-0.000191629
0.000124018
5.9364e-05
-7.72995e-05
-0.000106083
-0.000430152
-3.03384e-05
0.000588111
-0.00012762
0.000215725
-0.000180221
-0.000376629
-7.64477e-06
-2.20973e-06
-1.59481e-06
0.000150374
-0.000103348
7.69931e-05
-3.16146e-05
-6.95123e-05
2.00122e-05
3.55069e-05
4.3045e-05
-6.25457e-05
-1.60062e-05
0.000189743
-0.000231622
0.000185485
-0.000143605
4.8546e-05
2.17972e-05
9.01262e-05
-5.9333e-05
7.86229e-07
5.88288e-05
9.99443e-06
-4.11294e-06
5.61518e-06
-1.14967e-05
5.2288e-06
-9.24631e-05
0.00012164
-3.44054e-05
7.38365e-05
-1.44726e-05
4.96484e-05
-4.33671e-05
1.7955e-05
6.61617e-05
-2.39811e-05
0.000140715
5.8679e-05
-0.000110254
-5.73416e-05
-0.000671947
-0.000406246
0.000816673
0.000261519
0.000822895
-0.00104164
0.000356902
-0.000138152
-3.72439e-06
-0.000132896
0.000136405
2.15195e-07
-7.16737e-05
0.000240493
-0.000273978
0.000105159
-2.74744e-05
2.81115e-05
-3.12507e-05
3.06137e-05
-0.00134117
0.00117481
-0.000246703
0.000413061
0.000371052
-0.00031695
-0.00012749
7.33874e-05
8.60252e-06
0.000693265
-0.000689554
-1.23134e-05
-0.000322664
1.89581e-05
0.000128514
-0.000557675
0.000540656
-0.000111496
0.000169671
-0.00056959
0.000561692
-0.000161772
-0.000101405
-0.000759417
0.000860821
4.19796e-05
-1.25877e-05
3.68064e-05
-6.61983e-05
2.20279e-06
-4.05497e-06
-1.38481e-07
1.99066e-06
2.65288e-05
-2.04949e-06
1.69381e-05
-4.14174e-05
-0.000164372
-0.000116942
0.000164406
4.36298e-05
-8.12934e-05
0.000105412
-0.000155903
3.19584e-06
0.000100901
5.18061e-05
-0.000119218
-8.02813e-06
9.32032e-05
3.40427e-05
-2.69174e-05
1.32205e-06
0.000341496
-0.0003159
0.00108263
-0.00111601
-3.75708e-05
7.0951e-05
-0.000186975
-1.46169e-05
0.000249399
-8.00984e-06
-0.000241389
-5.79273e-06
-1.83815e-05
1.75357e-05
6.63858e-06
-4.16097e-05
-3.18215e-05
4.41482e-05
2.9283e-05
2.63326e-06
-5.21822e-05
0.000136516
-3.32331e-05
1.94524e-05
8.24114e-06
-5.14411e-05
6.0198e-05
-0.000227052
1.1035e-05
-2.88854e-06
-0.000168111
0.000583301
4.10633e-05
-5.67523e-05
0.000600465
3.22589e-05
-4.49999e-05
-0.000518418
3.5897e-05
-4.40449e-05
-0.000522967
-6.72861e-05
-5.16603e-06
-0.000358883
-0.000187297
0.00021069
-0.000950687
-0.00016981
0.000273467
0.00016071
7.19278e-05
-9.776e-05
-8.56711e-05
-0.00118044
0.00119198
-8.97704e-05
4.48694e-05
-0.00027148
-7.68957e-05
-5.15795e-05
6.14907e-05
0.000600753
-0.000185153
-0.00049754
0.000685662
-0.0001773
-0.000586031
7.30698e-05
-5.96072e-05
1.73549e-06
-1.51981e-05
-1.01734e-05
0.000703152
1.60671e-06
-2.21382e-06
2.39788e-05
-9.23656e-05
7.06006e-05
4.72678e-05
-3.59746e-05
-8.37352e-05
7.2442e-05
3.39313e-05
-2.51819e-05
1.06105e-05
6.31695e-05
-3.86452e-05
-0.000106772
-4.71533e-05
-5.09254e-05
3.50135e-05
6.30653e-05
0.000308453
-0.000100154
0.000107911
-0.000316211
-0.00030719
-7.13106e-05
5.58373e-05
-0.000360197
0.000223523
0.000305095
6.7923e-05
8.25028e-05
-9.40448e-05
3.98374e-05
2.40756e-05
-1.37294e-05
3.38844e-05
-4.13123e-05
2.54343e-05
-1.80063e-05
-0.000550638
7.23971e-06
0.000503068
4.03306e-05
0.000300019
0.000360759
-0.000583444
-7.73337e-05
0.00023547
-0.000609463
-0.000297954
0.00041501
0.00029507
-0.000579031
-0.000131049
6.45413e-05
-6.92162e-05
4.88349e-05
-4.41599e-05
0.000114967
0.000162659
-0.00101274
3.81073e-05
-1.77125e-05
-2.80396e-05
0.000120895
-1.58035e-05
-9.40568e-05
-1.71795e-05
-5.23901e-05
3.63365e-05
0.000899956
-2.31185e-05
-0.000766894
-0.000109943
-1.50273e-06
-2.58134e-05
-0.000102747
-0.000183418
-1.2036e-05
9.4361e-05
-0.000102761
0.00110463
0.000157133
-7.84282e-05
0.000221656
0.000107398
-0.000406644
0.000326244
0.000521847
-0.000441447
0.000301389
-0.000301397
0.000486696
-0.000486688
1.97097e-05
-0.00011032
-1.97216e-05
0.000110332
-0.000104864
0.0001047
3.83632e-05
-3.8199e-05
-0.000248965
4.37496e-05
4.76167e-05
0.000157599
-0.00109843
0.00109043
9.21943e-05
-0.000721722
0.000466462
-0.000586003
0.000502704
-0.000353625
-0.00012593
0.000119358
0.000108196
-3.66997e-05
0.000860516
-0.00102849
-0.000263117
0.000431093
-0.000224126
-0.00098984
0.00119142
2.2543e-05
-0.00105968
0.00107766
-0.000103643
-0.000481629
0.000425459
0.000349287
-0.000293117
-0.0002834
0.000293236
1.7039e-05
-2.68751e-05
-0.000129298
-3.81151e-05
2.41972e-05
-0.000630364
0.00075653
-0.000532412
0.000144005
-1.00711e-05
1.44216e-05
0.000100556
-2.98602e-05
-8.51174e-05
-0.000208227
0.000191191
-0.000113532
8.4471e-05
0.000189771
-0.000918762
0.000879456
-0.000278177
0.000317484
0.00127159