/*--------------------------------*- C++ -*----------------------------------*\
| =========                 |                                                 |
| \\      /  F ield         | OpenFOAM: The Open Source CFD Toolbox           |
|  \\    /   O peration     | Version:  v1912                                 |
|   \\  /    A nd           | Website:  www.openfoam.com                      |
|    \\/     M anipulation  |                                                 |
\*---------------------------------------------------------------------------*/
FoamFile
{
    version     2.0;
    format      ascii;
    class       volScalarField;
    location    "0.71";
    object      p;
}
// * * * * * * * * * * * * * * * * * * * * * * * * * * * * * * * * * * * * * //

dimensions      [0 2 -2 0 0 0 0];


internalField   nonuniform List<scalar> 
5794
(
93.0345
95.0667
91.5346
94.1388
93.3757
94.0916
90.1626
92.5782
90.0604
94.8499
125.29
89.9784
88.7613
93.2467
96.338
95.0822
36.8493
94.8266
96.4037
95.1466
93.2518
93.3377
89.5136
95.2515
91.4229
44.9367
42.7966
96.1437
91.6173
95.5128
93.1278
87.5252
105.651
95.1778
90.4028
89.1883
98.7337
91.2704
88.872
92.0823
92.492
95.0443
116.59
91.5804
96.4305
106.946
88.9302
92.9759
95.1451
91.2063
95.2446
83.5545
90.9137
95.2325
95.6273
109.165
90.7477
91.0706
116.765
40.2201
104.412
95.3871
92.8253
87.3116
105.218
95.3405
91.3612
91.3517
94.7026
95.4435
82.7717
91.6704
20.1353
92.0718
94.3159
96.144
93.6017
50.8412
92.0555
95.2851
92.9269
94.9078
92.2725
90.0196
92.1165
93.9014
87.5848
110.931
95.0577
90.379
114.107
90.2524
91.9082
92.5416
94.7785
82.4843
109.907
92.7758
90.5109
105.315
81.4467
88.3466
116.746
94.937
96.6201
92.2041
95.3802
126.499
81.9429
92.5938
96.0278
96.594
75.1965
94.9784
94.1593
91.0339
95.9559
92.6649
103.56
92.8049
92.4883
95.0647
92.7076
96.0635
96.4775
123.318
90.7395
94.5681
85.3913
125.101
94.1287
91.1531
89.0705
55.0726
92.2488
96.2659
116.716
95.4484
95.317
95.9039
92.1903
95.6861
96.601
96.1798
95.3643
50.7613
93.343
114.751
93.8298
96.9703
121.417
95.2154
92.4375
92.4115
46.0837
88.0625
90.5861
92.4397
106.506
92.703
96.2578
91.7922
95.7924
89.4322
81.8969
83.5141
89.9747
92.867
96.0152
96.5184
95.9873
83.1827
89.544
91.5689
95.0443
89.3486
96.2495
91.0305
95.4901
86.0277
94.7179
89.4276
92.3478
107.525
90.3802
44.8364
88.0558
106.489
95.1287
88.4505
125.019
87.7602
105.666
93.8087
91.6481
93.7885
92.3454
95.9153
96.5223
114.967
89.6859
82.7597
93.7577
91.3762
88.5319
106.592
93.995
126.758
87.3272
89.2014
93.2469
97.8147
89.3564
91.5776
95.0473
90.5621
89.2884
89.8343
125.665
98.3191
97.9099
86.8124
112.766
92.2458
111.675
39.5178
91.7329
94.4697
94.1487
96.1051
89.7847
92.0395
94.4359
82.572
91.1868
51.2962
70.4069
119.263
88.8092
92.7962
94.8271
126.821
92.8292
93.0235
91.9104
96.085
96.5374
93.9802
110.928
93.1684
90.566
95.2768
42.6188
95.0595
119.897
87.257
115.662
115.725
126.802
96.4205
117.145
89.5537
92.2728
95.1925
89.8072
93.5887
96.9369
122.74
96.3761
106.036
88.0168
93.4391
92.8035
81.841
99.2473
96.1669
95.1793
92.0833
95.4017
87.9579
96.034
105.322
92.7967
94.838
91.5697
92.6339
89.6891
95.3531
88.1031
92.3062
89.3302
90.909
94.5996
95.0991
112.87
53.8122
92.9658
94.7196
90.5249
95.1219
94.952
81.7239
92.9441
91.768
91.4229
121.162
95.4245
92.9786
105.327
87.4313
93.2738
105.892
92.3251
94.9988
98.6701
100.696
126.45
96.081
81.8297
92.589
92.1365
90.1404
92.5292
93.6052
95.0944
86.3968
91.2474
91.42
90.2176
125.531
83.7636
117.892
92.9396
106.049
87.7328
95.0298
94.6059
95.9283
95.1748
106.735
95.3226
91.3427
88.5665
89.31
96.2062
91.7032
109.616
90.803
84.2089
91.1665
88.0649
52.3865
106.14
88.3577
93.3494
41.4731
96.551
84.7238
89.9443
92.6004
126.669
89.4719
117.708
89.8998
92.6017
94.0221
82.685
107.717
89.5111
92.2482
95.4885
95.1958
94.0014
95.9126
126.397
81.8691
109.373
90.161
92.5215
95.4537
92.1409
95.5366
99.0703
89.2257
90.6434
95.4852
91.2636
89.8274
92.3977
90.2893
92.7439
89.9632
95.3953
96.0501
89.7489
91.9669
94.7787
90.9814
96.2475
89.6146
95.2323
90.8782
48.1051
96.0537
96.6695
120.582
90.8419
93.9103
95.3446
110.538
92.3901
89.7347
124.43
83.3477
106.29
88.2133
93.7201
96.39
82.1265
110.116
90.4818
92.7979
126.055
95.4343
89.3242
91.0859
95.4631
95.0005
94.9597
93.0396
83.4097
99.068
96.8621
76.1096
96.5148
95.8863
93.6779
91.378
89.2941
91.0979
95.6206
98.696
91.3361
95.1741
91.881
90.7122
94.2335
95.2291
90.9962
91.892
94.4215
95.0934
84.0652
93.2231
92.6812
95.2817
108.414
85.6325
94.431
93.1166
93.4795
95.1469
91.0785
96.0978
106.244
124.959
47.5197
91.3401
124.756
92.452
95.3339
79.7716
124.396
94.1331
95.0646
107.624
63.2575
95.8845
92.383
95.1471
91.4941
93.4016
94.8956
94.2162
126.409
124.807
97.5404
91.8954
52.2701
93.0526
94.9708
93.2639
92.3571
93.8574
90.793
95.9609
95.9401
95.5731
95.1879
119.979
91.1388
62.523
100.853
85.8687
96.7552
95.1435
93.5956
114.713
124.453
95.2661
81.7082
95.4392
92.0915
95.3811
95.1428
92.8682
91.1752
95.4058
97.6958
49.0427
93.835
95.2661
92.781
92.9946
124.697
94.9916
93.0876
96.3066
95.1527
93.5073
91.739
95.145
46.7736
95.6598
94.0036
90.9825
98.7967
114.95
124.785
116.597
93.1528
78.3261
95.0307
92.0838
91.25
95.0888
99.257
96.139
95.0318
94.4062
95.0508
95.4077
96.3698
92.1186
94.998
96.6689
91.361
93.5904
95.2164
94.6819
23.6107
95.9224
121.944
95.2094
92.8444
92.1999
95.0551
91.4512
94.1942
95.1316
107.132
83.6092
82.7405
95.286
48.5956
96.1596
91.5338
90.835
94.833
92.3407
92.1335
92.5316
124.166
49.6263
84.845
109.94
95.075
92.6942
90.4557
109.502
95.2194
95.1793
95.4893
90.3251
93.2273
102.01
95.4409
98.4125
95.3642
90.8877
93.0083
107.948
94.1627
90.8404
95.2186
124.394
56.2539
94.8041
95.6215
93.9863
88.3151
85.9412
92.9246
90.809
94.4272
89.8865
119.568
125.218
113.822
92.448
95.2038
124.378
123.694
126.606
95.322
95.0402
95.9249
94.1023
127.48
94.9916
92.9446
94.947
94.9068
93.8921
95.3284
94.773
67.3866
98.5596
94.0477
96.3125
91.3391
117.212
125.87
90.322
115.882
90.7863
94.6709
105.381
95.6883
95.597
94.5604
93.0267
95.6706
90.369
94.5841
120.329
49.0826
92.1664
36.614
95.8895
95.4697
94.9585
93.2778
92.6853
95.1286
94.9825
90.3124
92.7991
89.8263
105.519
119.357
90.9888
41.5599
90.2935
94.0812
94.2353
90.413
91.3351
91.7658
92.7221
94.8192
127.004
95.3736
95.1455
94.8674
115.452
93.9362
95.6063
95.3745
95.3679
92.5836
100.368
72.3178
94.35
95.0352
95.2722
126.579
95.1448
93.2912
97.8075
95.1936
88.3702
95.0754
115.815
94.7538
118.488
95.4638
94.4655
95.7286
125.854
117.01
94.0317
94.5058
88.6069
124.366
96.6866
100.324
45.0965
122.534
90.4068
126.683
68.2386
115.377
95.7382
89.5154
91.1353
114.3
99.3789
125.885
101.81
94.2531
70.0584
98.2074
120.917
95.0761
90.9179
35.1502
124.518
90.3301
92.3427
111.44
95.7004
93.6422
90.7114
91.0916
92.7584
90.2879
107.538
90.6554
98.705
94.91
92.5501
95.443
95.3284
94.0454
90.8867
100.034
93.9213
94.6989
109.211
91.8287
72.2753
92.8838
94.8042
91.0944
92.7759
90.989
112.399
91.4027
92.7441
90.8686
110.459
94.4158
95.6709
94.0193
95.6052
94.9294
93.0153
93.7059
94.278
126.426
47.7014
91.1037
93.603
95.1861
92.7129
91.3532
126.628
91.0371
93.01
95.2293
120.486
109.051
90.0273
91.258
91.7554
95.019
74.5656
93.1279
60.7217
96.9342
126.541
92.8573
95.7623
94.9138
95.1696
126.023
127.267
119.29
105.193
94.4602
92.1545
93.2159
107.838
97.4517
96.0247
89.229
106.771
126.146
95.2842
93.7479
90.7922
113.632
49.774
94.981
99.5707
95.2534
94.2098
94.9793
90.3833
92.7356
108.852
98.3123
95.6386
93.273
94.3101
95.7854
40.5471
92.2075
94.8475
90.9609
95.4017
124.459
95.445
100.309
95.2198
92.2842
105.866
98.7723
79.5555
94.1559
90.3229
94.5128
90.1096
122.417
122.874
49.5773
91.7338
95.2319
95.6093
106.072
94.7111
92.7009
94.0353
102.386
94.4146
76.7611
124.398
95.5106
95.6444
95.3738
98.1001
121.746
94.05
57.4175
95.3043
95.6029
60.397
108.879
97.7332
91.7062
93.4117
125.408
115.212
95.3792
95.6275
88.9726
123.244
92.9798
98.6773
122.814
91.7999
94.5854
91.0833
91.6997
98.7341
93.769
93.0086
94.955
94.4018
95.0835
95.5233
95.3364
93.9281
120.304
95.1823
98.4908
95.1915
91.8287
90.6429
93.9052
95.8527
124.497
124.726
57.8319
92.568
91.8557
98.8037
95.2755
53.3247
104.858
86.5304
118.409
93.0311
90.195
94.8793
93.8194
90.5226
106.317
91.3884
91.2464
91.0904
94.0943
95.6951
118.46
96.5315
93.7863
110.756
90.4765
92.8577
96.0843
112.751
95.3228
93.8225
93.9686
95.0759
85.5815
126.083
110.392
98.7194
92.9727
78.502
95.0607
93.1685
83.9584
45.6758
99.166
90.9706
102.663
95.2232
95.008
93.1649
95.516
90.0643
94.5324
95.3709
95.3344
93.0094
95.6599
95.1682
95.4029
95.6097
98.4903
95.228
99.3467
95.4338
95.1266
110.612
99.0643
92.8906
94.5406
90.2906
95.2712
125.408
100.957
91.3855
95.6306
91.4353
124.333
95.6031
98.7608
92.9394
95.7503
98.7524
71.7178
97.9761
88.2518
103.925
95.2875
99.4397
93.6048
96.5964
111.665
73.9334
93.8974
101.779
95.047
92.9049
95.2491
94.8792
103.632
107.054
47.0969
79.8287
95.9473
95.0212
93.9658
92.9342
89.5708
104.858
115.051
95.4081
93.384
95.1553
92.2967
98.9554
96.5015
97.1168
94.8668
98.4104
99.0659
100.094
96.2965
94.9744
93.0029
93.9529
96.2866
124.489
95.457
98.6542
92.2553
95.1682
94.4365
95.5566
90.841
126.341
95.187
126.697
95.1505
100.555
126.479
95.5501
92.7594
111.058
95.1714
95.5013
92.2055
95.3733
91.5409
90.6858
93.7163
95.1554
90.8633
95.4138
95.3021
98.0091
95.6127
95.4194
95.046
91.1151
89.3523
97.6973
106.738
104.599
90.3991
93.7293
95.4641
95.5418
92.247
95.2425
92.5103
92.6945
95.5088
118.764
95.2569
92.3899
95.335
124.201
95.3515
84.6877
92.3416
95.1466
99.5893
92.1733
95.3095
90.796
96.5461
98.4193
98.9359
95.0557
99.4365
95.0803
95.1261
91.1255
95.1751
93.6386
92.3084
96.0928
125.519
96.1041
55.4055
95.4609
93.7713
95.2032
98.6442
95.0395
102.738
96.0569
93.802
97.5867
104.758
86.6537
93.6504
95.1703
95.9618
92.1066
93.4544
93.9314
98.7813
95.1519
95.2137
120.911
114.691
93.2568
103.583
102.594
95.0981
93.5974
88.8418
95.3359
32.0842
99.0332
95.2601
96.0466
124.388
124.659
95.7447
94.8823
92.89
92.1499
91.4705
95.3668
92.5486
91.7213
92.369
94.95
91.8011
92.9771
95.4973
90.8429
91.6566
92.7452
95.771
95.1419
90.8233
93.3188
88.1599
91.0812
93.9121
104.512
105.571
99.8557
96.6053
98.6349
104.382
95.8419
92.1073
96.7191
106.086
101.245
94.9298
92.9601
116.814
94.6293
118.85
92.4939
90.2563
104.042
90.9669
117.272
107.457
93.7506
90.4739
98.9099
113.305
95.4166
94.1245
94.9903
55.3398
95.2566
95.4316
90.6917
93.7811
95.3568
99.4697
94.956
117.54
94.8426
91.6695
102.08
93.388
88.2159
95.3965
95.5796
94.3792
89.8552
124.177
125.744
91.1831
98.823
95.1219
94.6366
92.4863
87.6301
105.413
127.013
116.375
99.2917
94.0427
95.0815
96.2534
92.8224
98.6485
91.878
89.682
90.4507
95.5926
94.3958
77.2219
94.2586
53.7478
92.9879
95.1413
115.623
99.6662
96.1016
95.4038
98.1664
91.7254
95.9295
95.3649
95.1104
93.4978
95.1526
91.0881
91.3588
96.0708
95.2243
94.8108
92.3806
90.105
79.5303
91.063
119.91
98.0121
92.1882
95.944
94.572
110.548
91.4296
92.608
92.5339
93.8257
125.892
51.264
91.1977
95.1122
95.5243
85.1656
95.8489
92.8933
92.8811
94.0438
90.9964
92.0698
92.963
92.3092
96.3398
95.8494
94.9534
98.5912
92.0897
95.6825
92.7912
112.162
99.3659
125.64
125.077
92.5185
95.6288
93.1338
95.9236
126.414
91.7601
89.5544
93.6781
95.4812
96.8037
95.0755
90.9976
93.5831
91.2086
95.4325
93.4246
95.1054
40.493
90.7241
36.1544
48.639
91.9531
98.4263
95.6138
92.5759
95.519
92.2634
92.6302
92.3214
95.0907
87.1882
105.132
104.302
93.0439
94.8323
88.0117
88.2817
94.0072
95.6856
93.0286
125.749
95.4114
91.9694
95.4732
95.5227
92.9674
114.109
95.3332
92.2111
91.0104
94.035
89.3525
91.0415
95.0034
95.6069
98.6911
92.1507
131.336
125.352
95.1164
40.5014
126.008
94.3964
91.585
95.5775
103.577
95.5718
95.1092
93.5733
91.0581
11.2536
99.4031
93.5574
88.0789
111.271
55.594
115.488
91.0752
93.3962
95.1118
93.1635
95.1633
91.077
91.5627
95.1129
91.6226
95.2636
95.1641
92.0831
91.0837
93.3077
95.0605
95.1994
91.1675
91.6362
95.1148
91.0611
92.4266
93.5258
95.0853
95.4754
95.346
90.8519
92.2581
93.0006
95.1984
93.1586
91.0999
92.0713
95.0715
93.4991
95.1143
93.2903
95.1193
91.0317
95.0799
95.2695
93.0267
95.2479
92.1221
91.0975
89.3429
88.3855
55.5619
95.6637
94.9848
103.043
93.6123
94.2038
95.4978
95.4052
95.5674
95.4591
91.7679
93.0006
49.5271
91.1326
91.6637
91.7952
95.4389
95.4229
95.6546
92.978
94.2227
92.9568
95.9214
91.3764
90.6928
95.2155
124.593
94.9987
92.6144
92.0826
89.7433
45.9504
95.5349
90.0841
92.3142
107.479
95.5345
91.7965
91.3977
93.6435
120.632
94.4074
91.6735
91.3869
93.795
98.1761
97.4413
12.0371
95.6123
92.5705
95.0617
95.2295
95.0748
95.5035
140.706
94.5393
95.0687
95.1405
91.4811
91.0295
93.2007
91.6694
95.2422
95.1503
93.0586
95.2295
91.1206
92.0911
95.3314
91.0363
93.009
91.0672
92.1983
95.065
95.1495
93.4344
93.4597
91.1355
95.1177
101.546
90.2858
126.876
110.35
92.2798
98.1759
93.4921
95.3313
120.459
94.3974
94.0194
130.458
95.4915
92.2911
95.6641
95.6409
118.814
94.5868
74.3147
93.0291
96.9426
95.3923
96.0395
99.2177
95.4824
96.3322
99.0552
94.823
95.9003
91.3088
95.1158
93.9791
95.526
94.3829
89.1426
95.9718
92.5158
95.42
92.6885
93.0408
95.4684
95.4636
93.0334
95.6539
95.693
96.0973
95.602
93.6808
99.1139
93.0264
87.9045
93.729
91.9464
82.3118
95.6273
98.7471
107.936
93.56
123.335
90.7459
95.2949
96.9119
91.7461
96.2914
99.028
95.6183
95.2991
92.1146
91.8152
95.1204
93.5032
94.2734
95.5331
93.0726
92.0222
95.116
95.4973
93.9813
97.2387
95.2388
96.1972
88.74
94.5692
96.1847
95.1302
95.6316
90.1005
95.457
91.0616
95.0859
94.8506
117.3
93.7944
90.5449
92.1243
94.1388
92.9763
95.0504
95.8059
91.6757
93.715
96.2242
114.036
92.9703
95.8956
95.8311
91.5015
119.841
119.198
92.482
95.7886
91.5564
100.678
96.2507
108.927
95.6714
143.242
91.6927
87.7688
105.721
116.418
88.3738
89.5719
91.643
131.766
90.3244
109.615
91.5348
133.235
92.16
90.06
29.8658
91.5994
92.0227
93.2027
94.9981
93.0875
91.0192
96.4777
93.0123
95.2877
91.0272
92.9197
92.5223
89.8444
90.02
92.8851
89.9889
91.9221
95.6016
92.8649
93.7235
90.1963
90.5008
93.2244
90.2228
94.4728
94.338
94.6714
90.5222
89.974
91.7867
46.2604
90.0171
93.4008
93.5858
89.1917
95.6699
95.4575
91.4063
91.7344
94.6037
95.7795
95.8525
89.6349
91.5785
89.5095
89.2716
93.487
88.5811
93.3584
92.3268
91.8051
90.8896
121.913
92.4395
91.56
96.0161
91.0618
95.7329
89.516
95.7641
88.7109
95.9834
95.5976
91.8382
88.6397
93.3975
88.8746
93.6127
95.9101
109.064
95.9177
89.5525
87.7216
90.2361
106.787
82.0723
95.8714
108.694
106.904
88.1726
83.0809
95.7576
96.2286
81.7929
105.243
111.286
95.8306
90.236
108.848
81.7729
107.853
96.1271
96.0386
96.3002
87.4245
91.036
51.3347
95.9782
90.0582
90.9495
95.8666
87.3324
95.7994
90.983
106.722
105.349
89.2396
51.2029
81.3652
96.3206
81.5153
95.7749
90.3498
89.0793
95.6467
108.46
91.5565
50.7395
89.1356
90.2784
95.5993
81.5069
47.5575
96.4734
147.508
82.1803
91.3552
89.1215
90.0899
96.5378
92.1858
105.312
87.5435
82.4271
47.2802
47.2638
90.7493
89.4573
91.6736
92.0045
91.9947
95.1902
96.026
86.2666
92.9686
90.9048
95.324
125.229
88.9272
91.396
92.1436
88.8332
91.9071
95.8763
93.2399
94.1853
90.9442
93.29
93.1456
94.647
94.9547
89.1816
90.2813
96.5732
93.4118
91.8239
91.6696
95.8475
95.7546
90.4782
89.2697
94.0036
92.1702
95.6748
91.9272
87.7565
105.474
93.4052
88.7492
93.3336
92.1429
95.9756
95.8879
90.5852
94.8058
95.6767
95.6476
89.5976
92.2128
92.6688
46.5976
95.9736
92.4516
95.0085
96.0262
92.1143
91.8908
90.8355
95.9856
94.5539
95.8832
95.5604
95.144
92.2357
91.8563
96.2722
92.1878
95.9455
94.7153
95.916
95.9581
91.8494
91.8509
91.9397
96.6742
95.951
93.8551
95.016
91.8697
93.428
93.4771
95.1756
90.9856
92.9645
95.8632
87.9427
91.2688
105.552
89.2726
93.3572
93.6785
95.9673
95.9311
125.491
85.3396
89.686
92.4169
96.0556
91.0839
90.7172
94.8417
89.3137
96.1091
96.2168
95.967
45.1527
117.377
94.7743
92.1566
89.9247
96.6622
91.0157
92.9414
95.057
125.717
89.883
92.3654
91.4965
96.299
91.0008
92.9779
94.9934
106.519
88.9287
90.2425
125.934
86.2969
90.0226
92.2654
90.5277
43.3316
117.235
94.4824
89.6317
91.3602
90.7943
96.7552
92.2616
94.2324
86.0743
87.8725
96.2474
90.9974
92.9973
94.9807
91.2285
90.699
94.8059
125.782
86.9588
95.1353
43.6259
48.3104
91.3492
117.243
90.4182
93.8202
90.9759
91.8189
96.7443
96.8356
90.5517
86.6313
96.2705
92.3804
91.0189
108.759
90.1027
115.034
89.9441
92.177
94.233
95.0063
94.9748
90.539
90.6961
90.3141
90.2764
94.3317
89.8582
90.4865
93.541
86.7265
96.3275
90.9806
93.0664
94.946
90.56
108.599
90.5273
125.96
90.2696
90.0358
91.5936
89.9353
92.1105
92.2175
92.2645
95.1646
46.4928
91.4113
101.171
92.0229
96.9857
117.205
96.8148
95.5063
94.6288
92.1918
92.3432
89.9627
91.812
89.4647
95.9571
96.8155
91.4306
101.227
94.748
94.518
91.9424
90.029
90.2873
91.6462
94.7445
94.4009
96.2726
91.0122
93.1955
94.99
91.7644
92.9604
94.4416
95.5247
95.8373
96.4918
120.163
95.5715
94.7698
89.8995
92.0073
92.0552
95.1915
42.6963
91.5551
95.6209
94.9925
96.609
97.8893
90.2337
91.2596
97.1536
91.203
93.9074
91.5581
89.1001
94.1926
99.1964
95.9577
96.0351
95.9534
95.8522
90.8303
90.8738
91.0434
94.405
89.9452
91.6296
93.8084
91.9777
90.7205
96.8321
95.8464
126.676
95.9322
95.9517
85.7744
89.4929
90.5741
90.3499
87.5931
96.54
91.7111
91.2736
91.2992
90.2763
95.921
90.9811
93.1961
94.9737
95.9656
95.9435
95.9561
92.4563
110.69
90.9317
95.2416
94.4023
91.792
94.5048
91.965
92.9975
94.4153
93.0316
94.633
90.3825
99.8201
90.3824
91.6392
98.7604
95.6523
119.528
94.195
94.7475
91.9358
126.081
92.3283
89.9432
91.9688
94.4292
86.5966
92.1208
91.0476
95.6345
95.1802
90.3234
90.7871
91.7491
90.9092
93.02
95.0173
124.915
91.4637
92.0516
95.1746
95.643
93.7083
95.9698
96.0066
91.6716
90.1781
94.6693
96.3516
95.9377
94.5727
91.9284
89.8493
95.2071
92.0054
90.7073
94.0048
90.6751
91.4743
95.0568
117.204
118.069
95.6478
90.9635
94.3429
90.7003
117.477
94.3223
91.8948
95.5575
92.0732
118.431
91.5849
94.303
87.9452
90.0836
91.2785
92.2262
96.1653
95.9689
90.6722
95.4804
90.1468
96.9297
91.2136
95.2643
125.725
91.3472
95.92
92.029
91.6681
92.5659
91.37
95.0987
93.471
94.2354
91.804
91.6371
90.3595
90.2366
98.5893
91.647
96.8271
92.4988
94.6504
94.3367
91.8451
91.017
93.3409
95.0196
94.515
82.7384
90.6197
90.9694
95.1987
94.4345
89.3596
83.2296
94.347
96.132
94.5182
94.2062
91.3556
97.9597
91.9813
94.0372
91.4532
91.3829
95.7761
90.4377
102.888
95.2039
128.888
90.8277
90.9754
92.9767
95.9604
91.7815
95.8177
91.4612
92.4412
91.6074
120.286
91.4884
110.085
91.7356
95.673
95.4162
89.7091
90.9172
94.324
106.875
91.2571
96.9522
102.336
107.565
94.7253
94.6407
92.1955
91.1013
92.9645
95.3634
126.196
88.3723
91.5237
87.1049
92.6679
53.4631
95.9141
89.7939
91.903
91.0661
95.6533
90.6669
82.6725
93.2821
95.3793
92.217
95.6722
95.7029
91.8936
94.358
91.6417
89.7403
46.3174
92.0221
94.3378
111.799
92.991
83.6544
96.3692
38.1787
103.703
95.0385
96.329
94.0387
94.7676
125.646
92.0074
91.2115
95.5764
133.427
94.3279
91.1982
94.3164
95.0554
91.88
95.6116
94.4083
95.9989
93.056
93.9034
91.838
118.453
89.5443
91.1573
90.645
95.3047
93.7778
95.311
96.0202
95.1327
94.8774
92.1762
137.583
96.427
91.4754
92.2571
91.1322
92.4699
91.9835
124.463
96.0695
91.1684
96.0458
95.213
71.4092
125.026
95.9637
96.0456
94.6657
96.6738
100.509
96.3601
91.7145
90.9814
98.6552
89.9193
91.7137
91.7426
95.6431
94.7282
101.236
91.3786
91.4133
91.5938
86.6587
91.2469
91.1674
94.2061
91.6981
95.583
91.7271
95.8402
95.6461
94.2199
96.9367
91.6011
91.9923
93.9598
90.7153
95.1212
92.1969
101.878
92.118
89.7012
94.5361
92.8051
90.5091
96.334
96.4633
97.4711
98.5181
91.1145
93.3863
95.0303
78.4086
92.2174
93.4362
96.0624
90.249
113.568
91.717
89.516
91.5477
102.67
90.5099
91.9807
90.8086
93.6805
95.3492
91.0491
112.031
89.94
91.7246
91.6646
90.6009
91.3464
95.0334
94.9232
91.7791
92.3263
90.8969
110.79
95.0572
96.5654
96.1527
90.992
93.3534
95.018
90.7132
95.4897
91.4283
95.8019
95.6411
94.0732
91.5236
94.1267
91.8572
89.8832
91.1567
93.0343
95.663
96.0655
95.9562
94.7532
92.8908
91.0259
93.4666
95.051
133.478
108.676
91.8833
92.1723
101.389
109.678
109.22
94.1484
95.8841
94.9323
91.69
95.2874
95.8459
96.3737
125.296
92.0547
95.9004
90.5314
89.4125
107.187
95.4218
93.1574
94.6685
90.1808
94.8839
91.9963
93.6801
89.8287
49.3132
72.5836
95.6389
89.8757
94.1108
89.6223
96.431
95.9511
101.703
96.7587
116.928
91.9215
94.6779
92.5786
95.927
93.6207
95.6268
91.7875
91.8523
91.0065
99.5908
95.2351
94.5401
92.825
124.484
95.4571
91.1589
85.8352
93.9076
124.594
125.56
95.0756
91.974
93.5978
95.0781
90.9355
91.2635
20.88
95.0287
119.935
86.2649
96.2519
95.5697
94.5193
124.011
88.7367
91.0271
93.5106
95.0856
96.0688
115.691
93.882
89.4326
95.4279
94.5803
95.6223
95.0281
93.4777
92.0104
98.5192
124.908
104.047
96.0972
96.3677
94.01
91.9996
91.5823
95.0396
94.8957
92.311
95.5437
96.1529
95.6226
94.5184
94.3702
118.385
93.6292
95.5839
98.5132
91.0148
44.0256
91.907
94.1071
91.0049
93.4873
95.0646
105.999
95.077
91.0492
90.1536
94.0784
94.7099
95.2254
95.6541
95.2589
95.1185
95.2536
91.8857
92.5285
94.8969
93.385
95.0002
91.5457
91.2992
91.7817
95.1977
96.7867
94.5312
92.0706
95.1567
98.5605
95.6591
93.2639
91.9798
118.274
120.039
90.8723
95.6077
94.9659
95.908
96.0646
91.4121
93.1559
93.4394
96.654
95.8155
101.521
96.2949
91.2437
92.0613
95.1043
92.7267
95.605
88.2054
95.5549
91.1962
111.467
95.232
91.406
95.0396
95.4715
91.6707
89.5635
91.2841
94.0227
91.0987
95.1671
96.12
82.7412
100.905
95.7436
94.9973
96.4381
92.1574
95.3906
93.6707
91.955
98.8367
98.5762
96.1299
91.7753
96.9649
95.5396
93.6232
91.9861
95.6043
91.2386
95.2566
93.6235
95.1411
95.4091
96.4445
94.9594
91.9532
92.2495
99.125
90.9942
93.6033
95.1626
94.9264
96.5461
95.0709
91.7861
96.0782
91.8997
93.7921
93.1125
125.041
89.966
39.2046
94.0133
93.0354
91.4857
92.8203
91.657
93.579
95.1139
95.6476
93.6136
95.0974
98.7508
94.111
116.405
95.3871
94.9755
91.9194
91.3144
117.085
93.525
95.4294
95.1935
94.2855
116.45
90.0626
92.6006
94.3129
90.855
126.538
97.5024
90.4262
95.6058
107.175
82.3403
94.0848
91.407
95.6155
95.0099
91.312
90.9809
93.6702
95.214
91.642
95.2205
91.6087
90.8618
92.3696
95.7373
95.7429
93.0468
91.0023
92.2258
95.1219
95.4111
95.4901
91.2842
91.6385
93.2024
96.3521
88.9262
95.6031
115.4
91.2145
94.149
90.8789
35.3245
92.9112
121.903
95.7832
91.2715
92.5754
93.7573
95.9424
94.9298
91.1422
95.5384
92.6959
94.6894
95.7263
117.809
93.8158
87.9985
95.0442
93.0883
126.948
94.4305
90.2375
95.8299
93.1054
92.1413
96.508
95.9698
94.6315
91.0005
93.5696
95.0916
93.5458
91.1968
95.1161
94.7818
95.0226
83.6142
90.2069
89.7339
91.9042
56.0233
98.8598
107.549
92.3279
91.3705
125.084
68.6596
111.391
96.45
91.0141
93.5506
95.0726
95.7235
102.755
90.9426
93.054
95.0191
95.4964
96.1953
118.997
130.11
89.1231
111.001
97.2831
124.299
94.7651
91.9394
93.6541
93.4241
89.0577
96.4841
110.386
95.1277
95.1576
95.3278
95.6864
124.906
92.0678
111.95
93.1226
91.4038
91.9855
89.9341
96.5967
95.9621
93.2289
90.9815
94.9755
95.7211
91.751
94.727
91.9655
94.0059
91.2163
96.3554
93.558
99.5011
39.0003
124.508
95.2959
95.7601
95.592
95.1516
94.9208
93.0841
91.5812
95.0907
96.0687
92.0425
92.638
109.632
92.1871
89.384
108.724
92.928
94.8781
95.6659
99.338
33.8971
92.29
87.3808
105.195
91.7786
94.1478
100.285
98.4169
94.1092
91.0011
95.4474
91.0171
126.756
95.4391
92.7262
95.4184
99.9292
42.7265
92.0311
95.312
92.213
95.7822
91.5287
89.3485
95.4637
108.706
92.354
95.4044
95.4227
116.544
93.9104
94.5346
92.2904
92.7893
94.9819
92.3047
95.4828
95.399
95.2903
93.7629
108.155
93.2698
107.54
90.3734
92.353
94.6918
91.742
126.349
95.8729
95.6762
101.78
112.389
93.91
91.6096
92.0113
94.8925
92.4311
90.6819
123.719
92.1401
94.5666
95.0255
92.1072
94.2844
123.029
124.282
93.4693
91.5033
95.306
95.2849
94.9196
92.0005
90.3305
94.1855
95.2639
94.9671
95.6399
95.7512
94.8625
79.1952
91.2353
124.109
94.0697
93.0131
95.7827
92.075
92.1608
118.588
95.2481
94.8692
116.77
94.9185
113.595
107.586
95.3794
123.552
96.3018
124.345
94.4149
94.8482
92.3587
101.09
93.04
105.111
88.9409
100.002
27.1598
95.6354
122.679
91.1733
103.483
90.5963
104.551
93.4047
123.331
124.205
93.0901
108.88
94.0896
90.7359
93.7069
95.233
91.7917
95.6632
105.076
95.5655
106.876
105.319
95.3206
94.902
92.3444
125.571
89.9752
91.3746
95.0431
98.6517
95.4571
98.8755
99.2552
95.7425
108.696
92.7613
95.2027
90.477
89.816
95.4239
107.106
124.67
94.2916
111.977
103.563
89.2403
95.6269
95.6388
95.6229
95.3582
95.6312
124.399
98.3234
89.8613
94.6446
89.8625
112.137
89.7697
93.6447
92.3589
90.349
90.9584
94.9914
92.8057
91.4477
96.0932
92.0049
93.5255
94.7695
93.0175
94.7893
110.446
100.651
94.2977
95.6147
95.6496
92.7485
106.127
91.3357
93.3906
92.1472
95.6323
92.6652
90.1602
90.3855
48.6204
94.2501
95.4418
99.1232
93.43
91.0248
95.0703
124.07
96.3116
117.046
95.1183
95.1147
82.5725
91.7646
95.5606
96.4245
94.1008
102.515
93.2319
111.807
92.0182
93.6278
95.1608
91.6101
95.7277
91.5189
55.7896
54.5959
92.002
95.977
91.2255
92.3803
95.0942
93.6291
90.7822
95.5256
93.878
90.8734
90.5424
90.1778
91.3331
89.6287
92.0356
126.722
91.4651
93.0685
88.1948
92.0438
104.5
95.8389
92.442
93.7016
94.0987
113.404
94.2664
92.1114
93.344
89.1972
44.4446
93.402
95.5211
107.605
125.104
95.8459
94.2294
95.3129
93.694
93.1402
92.1991
94.1943
94.131
95.6802
92.2633
93.2948
90.9881
95.013
91.2971
95.0687
92.0789
109.401
93.2081
90.6774
96.4848
94.8454
92.6873
92.2125
95.3016
105.162
87.3354
92.5389
90.7263
94.0676
96.3384
91.7168
90.001
89.1227
100.85
96.3449
111.723
121.457
141.774
94.6573
94.0183
126.961
89.7909
94.9094
96.4033
121.306
95.5283
97.9845
9.94098
98.9987
93.1571
93.3473
95.1539
93.5204
95.1116
91.0626
94.1279
93.7954
87.2461
95.9403
92.9393
98.082
92.2499
126.437
91.2547
111.85
89.2477
93.7026
91.0245
93.5743
95.1267
95.0563
88.4181
93.9327
91.1738
93.7502
33.8194
113.821
93.476
93.9836
96.1618
95.0083
90.1174
95.4114
95.5716
87.2122
96.4602
96.3637
95.4065
96.0474
94.7839
90.977
91.7255
94.6901
90.6429
117.907
94.9562
92.9995
95.0607
94.2274
99.3728
106.068
95.494
98.1947
92.6885
90.0912
92.6004
93.9243
89.2651
93.8277
95.0614
92.8603
91.4711
95.2835
126.58
93.6115
95.1217
126.026
96.0404
94.0744
95.8362
81.1982
100.077
99.8441
95.3031
97.2649
95.3134
97.403
97.5381
100.802
98.9514
96.7682
95.6207
91.6368
95.1729
92.7241
103.654
95.3982
96.1169
95.5395
91.6336
91.3341
99.5899
96.4147
95.5104
90.8886
94.7212
95.1246
91.3125
94.9893
95.7234
97.4521
49.8674
91.0021
93.5996
95.1335
91.4834
95.2605
93.2097
90.9758
94.9838
93.599
91.1559
95.1482
122.985
95.8689
95.6399
92.9226
93.3336
92.0462
98.3209
90.7161
92.2238
95.0775
90.577
93.0271
95.0344
94.6656
114.645
111.511
93.2229
90.7886
92.8309
95.6025
95.5795
94.5638
90.6141
125.088
100.033
89.4499
115.672
95.0756
92.3268
89.6495
95.4165
95.9981
81.3212
95.4017
100.506
89.8341
93.6389
94.1163
97.2856
94.2799
86.4102
128.628
91.2501
94.4991
95.9119
95.4444
95.3875
113.927
123.864
96.1059
96.2128
90.0945
109.147
91.7528
89.5276
95.8786
94.8499
90.9647
90.6976
94.1828
89.6164
91.3348
95.1286
92.0656
87.3023
105.167
95.6525
95.7056
90.4678
92.3116
89.9808
101.275
92.6275
89.8609
93.7233
91.3916
95.0913
95.2828
98.5995
91.6588
17.6954
97.0715
91.3086
90.7415
93.8284
90.9379
95.1529
89.3026
95.8947
93.2141
95.2151
95.0145
96.5276
122.698
93.0134
124.91
94.8537
91.5192
95.4307
94.8141
92.8551
91.0765
52.4208
117.156
98.8093
95.3982
92.4055
91.3748
83.5487
86.8524
94.0397
94.1616
98.8567
98.5008
92.5073
94.3686
44.7022
95.0648
91.046
93.5364
91.8758
89.6271
91.2947
94.1218
91.1086
51.5579
93.6047
91.4476
91.9537
94.9677
92.982
90.6338
89.6004
95.1394
97.2329
109.257
94.8307
93.4456
93.5862
94.0804
89.4848
89.9024
95.7599
126.931
117.756
96.728
81.3537
91.886
93.5821
91.13
95.1313
95.6021
116.962
94.5591
99.7473
92.2784
93.1072
91.0789
93.9447
99.1081
91.4455
111.675
92.6632
89.5448
93.0966
94.9465
126.6
95.5418
90.851
89.9607
96.7287
93.959
86.1196
43.3684
107.933
91.3008
95.3002
89.6207
91.7355
94.2958
90.6664
93.6083
94.9979
95.1947
95.1516
93.6733
126.096
93.1776
92.8868
93.5391
96.0402
51.7935
91.667
90.518
109.731
92.4865
96.404
96.528
98.7664
90.4096
95.1264
93.6484
90.8076
95.0628
91.3255
89.6705
124.059
95.1703
96.272
95.1135
93.0422
91.0463
89.2355
96.1753
96.1134
89.9681
93.9314
96.2381
99.0658
92.9981
95.0222
115.814
67.3491
96.1967
53.4033
94.923
91.417
84.5564
83.242
94.352
96.9985
76.4587
96.0278
117.865
93.2648
89.1644
111.969
123.107
115.897
96.4952
96.0894
94.7506
92.0799
89.4946
82.2849
89.4004
91.296
95.6914
106.466
106.05
100.528
89.553
94.9549
89.71
98.998
95.606
95.1129
94.0158
94.9302
93.1357
123.993
89.3725
89.4234
89.5575
98.8902
89.8425
91.9096
88.8016
95.6483
93.1666
90.9661
94.9688
92.5799
89.7245
95.9831
92.1794
94.2911
86.486
90.571
91.9806
91.9326
94.6564
107.224
95.2778
91.9208
92.0872
95.2982
112.857
121.015
95.3931
95.2228
115.053
92.2093
100.678
95.1185
93.1855
93.0213
94.9484
93.7084
95.6527
95.9134
93.0175
95.8016
95.566
125.582
96.785
95.0328
94.6065
95.2845
91.7445
95.3296
85.9531
92.1886
94.9613
98.4197
119.985
92.0687
90.0791
91.8241
89.484
95.469
92.0226
95.9003
95.0531
96.573
95.6063
91.9122
95.2541
51.1456
91.6067
124.6
96.0982
95.8111
95.0643
122.577
91.8036
51.967
99.1525
95.4371
95.6419
95.5589
95.1879
95.2242
93.7455
90.843
95.6218
90.5471
93.7296
95.124
92.1448
95.9524
99.2027
125.254
95.2578
92.8553
92.7664
95.2392
95.4268
91.5411
105.749
87.6802
91.8284
98.5819
91.9984
97.1509
91.9576
98.6017
117.426
95.1151
96.2187
95.8039
89.8203
126.656
88.3221
95.6509
88.2729
89.7127
94.5368
95.4478
95.506
125.172
100.399
95.1381
93.6986
90.6765
98.9811
95.4332
91.7833
89.4694
96.1076
95.0165
93.0055
45.6432
94.7436
92.1201
109.515
126.477
91.4805
94.3378
94.9918
124.605
93.4309
97.3043
91.8562
36.6561
57.0784
96.1165
48.0628
95.2062
35.7271
90.0391
109.689
91.4353
91.2602
95.3653
95.347
95.3137
95.3307
93.9986
93.9202
94.0895
94.1973
95.389
94.32
63.1457
94.468
94.0826
93.3917
93.6953
56.5868
94.8337
92.4241
91.2171
92.9561
92.1388
90.5733
68.8669
49.2078
90.2591
78.2766
73.6702
90.4952
94.8967
91.4315
92.1937
91.7569
91.2574
91.5463
94.4625
92.6267
93.2266
95.415
91.8106
91.1657
92.5402
91.2104
92.9457
94.5891
111.378
112.622
94.6504
96.2503
93.5199
90.8918
92.5232
98.4687
111.085
115.335
104.294
101.428
119.238
123.215
127.226
126.014
91.5623