/*--------------------------------*- C++ -*----------------------------------*\
| =========                 |                                                 |
| \\      /  F ield         | OpenFOAM: The Open Source CFD Toolbox           |
|  \\    /   O peration     | Version:  v1912                                 |
|   \\  /    A nd           | Website:  www.openfoam.com                      |
|    \\/     M anipulation  |                                                 |
\*---------------------------------------------------------------------------*/
FoamFile
{
    version     2.0;
    format      ascii;
    class       volScalarField;
    location    "0.88";
    object      p;
}
// * * * * * * * * * * * * * * * * * * * * * * * * * * * * * * * * * * * * * //

dimensions      [0 2 -2 0 0 0 0];


internalField   nonuniform List<scalar> 
1431
(
91.6803
89.7629
88.4689
91.2122
91.1743
87.0181
88.558
97.3255
91.008
90.8908
89.5537
89.8376
89.4676
103.045
89.4861
90.0166
89.8857
90.1563
90.977
89.7822
91.3215
90.8994
89.3516
103.963
79.5593
90.1746
72.6757
102.181
90.8475
90.7339
113.59
120.387
82.7503
87.3186
89.0692
88.0982
91.556
96.3813
87.0264
96.4764
110.473
89.8221
87.5398
89.3307
82.1031
91.3507
91.3526
118.681
114.595
97.8028
90.5875
90.8418
90.5127
87.1354
88.8204
111.58
90.0343
88.3371
79.4664
91.2885
90.0983
89.4721
90.9367
97.2275
99.2847
89.8978
87.2018
86.7827
90.927
97.6419
87.5035
89.2554
89.3351
87.3589
89.6032
82.9359
91.4528
82.7244
97.6473
74.0827
97.2527
90.4348
89.3839
90.2797
81.2131
91.3057
91.0711
89.4142
104.908
90.1418
90.7137
89.9261
91.2209
96.108
90.3373
91.3736
89.6416
99.4574
90.8183
113.555
90.9521
96.2667
91.7448
91.075
89.9651
89.3816
97.3674
113.813
115.521
91.3351
75.5785
89.7406
97.8477
89.8387
89.7215
91.0035
90.1548
89.6437
105.815
83.1723
94.7288
89.4942
90.601
108.685
96.9466
89.0558
106.652
89.5499
91.5765
97.0762
89.5084
114.809
104.167
91.3467
91.4032
90.7112
89.353
89.9507
91.3911
114.36
91.7347
91.5153
96.3687
114.706
115.945
95.2255
98.9138
114.271
89.4146
113.095
97.9283
100.399
89.2095
89.4635
89.3574
89.5791
97.2576
90.3389
98.6305
107.929
90.125
89.5143
91.7988
89.5059
90.8891
72.0682
91.367
95.5022
90.6662
91.5697
106.539
89.5613
112.437
98.1387
96.8783
89.4605
89.017
98.8129
90.8268
104.535
97.2448
89.9349
104.72
90.383
96.6425
107.6
96.3226
86.5666
90.6761
97.2258
90.6213
89.8904
91.4157
97.0565
90.5558
94.417
97.3771
117.09
89.4267
89.3934
89.2122
116.913
111.521
109.175
97.2883
75.7353
91.3623
97.6693
89.4827
101.275
97.0524
97.9332
109.381
97.5793
89.9731
87.9783
99.5636
90.1255
89.8866
97.2799
97.2821
69.5957
96.5364
101.165
97.9547
91.9981
110.432
90.7317
102.262
113.922
91.1673
90.6601
97.5268
95.7014
96.9964
97.6541
98.6795
91.7603
97.2038
88.9998
99.1024
109.802
91.2742
89.8147
89.5937
89.5829
96.537
88.8566
87.1378
105.418
103.253
91.2702
90.9299
117.364
90.8695
98.1584
90.5763
89.0309
96.9883
97.5089
97.9953
89.603
90.7149
91.5898
97.2266
101.357
92.3687
96.1714
103.377
91.3155
97.3628
113.513
102.22
101.219
97.627
94.3356
91.4826
90.0729
90.2167
90.8283
90.5939
88.9693
90.1398
90.9978
94.3415
88.7113
91.2669
103.158
104.232
98.4106
95.1307
97.2
103.033
90.8385
104.76
99.8515
91.4598
102.662
89.1039
106.149
97.3854
112.09
89.5183
116.489
89.5225
89.2921
97.366
97.8677
97.2173
90.5793
98.1883
96.6987
90.1396
91.1925
89.3165
89.4773
91.1643
89.034
96.592
90.8133
89.2198
90.7479
92.0966
89.0217
91.1855
90.8449
97.1502
90.8813
110.953
97.8965
90.0963
89.4636
88.9685
90.7674
96.9855
91.3315
90.7719
90.6738
90.6532
89.4624
89.3253
97.2451
90.8614
89.5184
102.215
89.4967
97.9048
89.4643
90.9067
90.7586
89.4276
90.1632
90.2081
90.275
89.5491
89.3459
90.1775
89.5211
90.2588
89.0562
90.6697
89.4799
90.3493
90.8823
90.8973
89.4764
90.4945
89.2595
90.2223
90.1277
89.557
88.9931
90.8132
106.176
90.4821
89.9217
89.9666
96.6081
95.8346
90.3197
89.9563
89.4686
90.8405
90.2203
89.3784
90.4211
89.1455
89.5493
90.2276
90.9013
89.4541
89.0593
109.094
96.5961
90.8521
89.793
90.6036
97.6027
91.1309
97.317
89.061
90.1072
97.5346
90.5633
90.2283
94.0825
89.094
116.254
90.6203
89.9576
94.4634
90.0346
90.2038
86.98
115.334
130.24
89.8741
91.3351
89.3957
90.5706
89.002
91.0151
91.0745
89.1841
90.9777
89.8011
89.2809
90.9083
81.6698
89.5776
81.9207
89.1173
90.264
91.1304
88.9718
89.5785
91.0186
90.8868
89.2012
86.9851
88.5575
92.8806
90.8286
90.5379
88.9137
91.1674
91.1953
88.9679
88.4434
91.3415
91.2593
91.0706
91.2893
91.0324
90.9872
90.9422
90.9887
91.0461
90.9718
89.0232
84.5861
90.8473
87.1166
87.672
89.1047
89.2115
90.6642
85.634
87.3704
89.2747
86.3222
90.1082
116.199
113.627
87.5435
89.3603
89.0523
88.6676
89.8278
90.9176
90.9451
90.1867
99.9878
95.561
116.151
89.4229
87.6696
91.1317
91.0253
88.7587
88.7829
90.9167
89.4503
93.2909
90.9266
90.2751
88.5039
89.8534
97.6668
89.5029
87.6439
84.0936
90.6132
89.4793
89.5443
88.7872
89.432
91.1133
90.9594
91.7712
91.5215
88.7766
98.408
90.0828
97.3015
90.9334
90.7363
84.7894
90.9534
89.1864
88.9316
89.0683
89.4229
90.668
90.1881
91.0183
90.0935
90.9979
89.0276
90.2052
116.137
116.995
89.2926
89.0983
91.059
90.9956
90.3092
89.8505
91.2649
95.5875
89.4523
89.6413
89.9865
89.9383
89.8169
91.1626
90.4767
97.1611
91.0907
89.4688
89.3308
89.4392
96.5281
91.0316
88.9806
90.2043
89.9938
89.8633
95.5233
100.959
91.3069
89.331
90.0599
90.9686
82.2199
90.6229
91.1521
102.344
90.3963
89.4815
89.4662
91.1418
91.5827
91.1626
89.0473
90.0313
91.0778
90.6468
89.3952
99.0901
90.3492
97.224
90.1521
89.6136
89.1672
89.6021
90.0968
95.5019
90.5096
100.487
89.9878
88.4815
94.816
96.0356
97.096
89.4541
90.7726
90.3068
101.298
89.4773
90.1115
90.0396
89.4542
90.0893
90.2339
91.1304
89.4228
89.4596
91.208
90.6745
94.9114
91.1023
90.6041
91.0892
92.5954
100.319
90.3615
90.9987
90.7012
91.0982
89.4401
89.0748
90.1121
89.454
89.9395
122.703
89.4302
90.733
91.0447
97.0878
91.2296
89.9153
90.1375
97.0779
89.0845
91.0641
89.4438
104.663
93.6571
89.74
89.7911
91.2257
97.1214
91.0975
89.5309
89.9407
89.5883
91.1541
91.0381
89.7035
90.2037
89.3279
99.5
94.2863
91.294
91.0529
97.3974
97.024
90.6937
91.0873
89.3827
90.7791
90.0015
90.4534
97.6694
89.4854
93.3532
91.1343
91.0915
89.9659
90.6709
97.3008
90.0485
89.4781
115.998
115.293
87.7325
89.8607
89.4533
96.048
89.5444
89.3914
89.5897
90.1603
90.3142
89.1498
90.969
89.6394
89.8988
90.6673
114.303
89.3799
89.6297
91.818
91.0866
89.4352
90.8804
89.4488
97.407
106.234
89.8935
89.4496
101.386
89.44
91.4287
128.641
93.3043
91.1312
91.5795
109.152
90.6693
90.794
89.4534
91.0586
91.0066
97.9886
89.8653
90.9204
108.345
91.7161
97.8161
98.869
96.9879
89.3897
89.4424
98.4248
90.9982
91.3194
107.441
90.7693
90.8232
90.1316
106.873
106.239
90.1903
100.398
89.9453
89.3917
91.155
89.9679
89.4671
91.2159
117.548
90.5595
99.6971
98.471
102.108
103.195
107.602
89.4926
91.2693
103.725
105.557
103.967
90.5533
89.3782
97.0849
97.4485
97.8295
107.42
90.1502
105.636
110.595
102.223
96.8913
90.1954
89.4893
109.06
99.2506
104.791
89.9879
97.7038
90.8129
89.4485
90.3903
101.128
90.6988
89.9874
91.0755
89.4824
89.5326
89.6542
103.134
92.1198
90.6807
105.334
90.8371
89.4695
89.6453
108.146
91.1604
99.4567
110.525
140.262
96.4216
97.4911
90.7796
89.4351
92.2357
96.652
91.2239
89.5092
110.592
89.4317
91.1004
89.1342
93.7461
90.17
89.0527
91.5132
97.9333
96.7666
90.6531
90.5957
79.2396
98.6499
98.421
95.8532
95.9705
96.0984
99.3493
97.4981
102.276
90.0305
89.2311
98.1008
89.4226
89.6684
89.4348
90.7258
90.102
90.8705
89.4769
91.0383
89.4235
91.4758
91.0344
96.8886
89.0931
91.1452
98.6307
114.481
99.1023
95.8327
85.9831
112.701
89.4279
89.4339
89.5453
97.1699
90.0007
89.4865
89.1512
90.6911
121.23
89.4371
90.4507
89.852
97.2776
97.4238
97.0687
90.7232
89.4646
90.0671
89.136
91.5693
95.8062
107.935
90.874
89.439
115.849
98.4409
90.4772
89.6498
90.833
106.58
87.3945
89.2265
90.2545
97.3278
90.5699
89.4842
89.6327
90.6083
97.6402
91.6604
89.3482
84.1339
82.7203
114.885
99.1461
87.8942
87.4793
97.5522
91.1104
87.4658
90.8338
89.4593
90.7852
89.5601
90.5504
90.4813
90.9917
90.9785
111.673
113.924
99.2557
91.7659
90.7287
90.8085
90.3279
96.9906
90.7464
90.4826
90.9334
89.8059
90.1943
97.7193
89.6396
89.5554
90.9683
97.7851
89.3756
97.1467
97.1758
99.1136
89.5299
97.5494
91.1696
108.267
90.7644
108.39
89.5053
89.6534
90.0059
89.7567
89.6781
90.3473
90.7137
90.1617
91.5745
89.6086
97.5019
91.0423
91.6225
89.4609
72.9748
91.4203
90.288
91.6442
91.1927
90.9624
90.4948
91.224
108.316
89.48
91.3312
90.0549
91.2377
89.8137
91.6765
91.4105
89.3374
90.3617
89.8068
91.6054
91.5485
95.7881
91.155
90.2486
91.1545
90.924
89.679
86.2776
91.1855
90.8059
97.2632
91.5834
91.5944
89.9628
89.7639
100.19
91.128
90.4739
90.8541
87.2371
91.6689
96.7918
91.647
94.6288
91.1129
97.6115
91.1095
89.6259
98.0365
89.4901
90.4567
103.428
79.942
91.2995
91.4397
89.6175
98.0472
87.6461
89.4964
97.7849
87.7615
89.6748
95.5034
90.8574
91.3826
91.0518
97.0733
100.271
112.619
88.873
91.927
91.478
90.271
91.2584
89.648
92.8738
89.0419
83.5972
100.233
89.4636
89.2184
90.3049
89.8073
111.619
91.3329
90.9224
89.3993
90.5631
89.0681
91.4499
90.9777
97.1535
90.9423
90.128
92.1476
91.1019
90.8065
89.4393
91.0248
89.2404
82.6582
91.1836
105.753
89.4056
89.401
96.2759
91.4467
89.8994
87.2954
89.0096
90.2105
100.064
90.8691
116.636
91.0069
90.3607
93.5079
81.9465
118.957
90.9785
89.5576
97.4943
96.7514
91.4128
89.5336
96.5733
91.1383
95.9731
97.3546
90.2904
91.2538
95.6091
98.1992
98.1586
91.0574
90.9229
90.4553
90.6211
117.567
91.1209
92.2552
113.37
97.3634
89.7034
90.7504
101.399
90.6187
118.078
94.8944
91.674
89.184
98.2537
91.6997
93.5928
90.9412
91.5466
89.5474
78.3902
89.5042
97.901
89.5598
90.7376
89.4362
101.253
89.0744
89.8552
90.9874
113.93
90.0868
114.923
89.552
89.0406
108.955
111.306
89.0382
90.4148
98.1236
91.4349
80.9917
91.6624
90.2528
90.8741
87.2328
89.055
98.1985
90.7094
91.6876
90.8419
89.2275
89.7301
89.4412
92.5983
89.085
90.879
89.4834
89.5104
91.0146
91.032
91.5309
96.7308
81.2747
91.425
90.8857
97.4897
83.2437
90.8282
89.4436
89.4369
89.3044
90.4087
91.1035
101.178
108.451
98.0046
82.5025
91.2892
90.7683
89.3949
91.2205
112.145
114.514
90.8581
89.4607
91.624
97.5915
87.3276
90.1873
92.9901
95.7253
95.8844
115.404
90.6722
89.2487
90.9937
109.373
83.2701
111.244
91.4937
90.909
93.0762
96.3232
90.3739
98.6123
90.7775
89.3253
95.3343
99.8555
91.4934
90.4672
91.2328
81.168
90.9306
89.4919
97.8071
89.339
90.2409
88.8474
90.405
89.989
98.8706
92.9109
89.5026
91.2005
97.6105
97.3322
98.4637
91.3258
89.7253
90.3577
90.583
85.7819
89.2627
89.0852
90.3383
90.1794
91.262
95.8594
91.0432
89.93
114.015
89.4246
116.725
96.3131
96.5516
99.0145
87.3536
91.2196
77.9553
91.363
91.2673
81.4287
91.4794
89.0886
90.8157
90.223
90.0332
92.8254
87.6965
89.4496
90.8694
90.944
89.4178
90.1632
115.614
90.9783
89.4519
97.1463
90.2292
90.5976
91.1721
90.792
92.4249
91.2211
90.0054
89.473
89.0647
96.2713
92.678
97.2272
95.294
89.808
83.2567
89.246
90.4767
89.7509
90.1528
90.6765
97.6895
89.47
96.8534
94.1348
90.7307
97.6648
100.124
89.7518
89.5646
120.877
126.528
89.2088
90.5597
91.2356
91.3107
90.9659
89.9679
95.8124
92.9212
94.2504
89.4705
91.6603
96.2399
90.2398
89.6967
89.4637
90.5403
91.2612
97.5999
89.5664
91.2315
91.0584
91.3524
90.9457
97.3181
89.2658
91.1681
95.9896
99.6614
90.7533
90.8629
89.6427
91.3305
89.7556
91.0435
90.1961
90.2465
91.3093
91.5913
88.9959
91.142
89.0244
92.1133
86.494
91.597
90.9022
91.1739
89.0872
89.3498
91.4588
89.1417
98.3841
89.5072
72.9265
97.0023
90.0883
91.1363
117.222
89.8262
90.5175
87.1514
91.2147
89.4939
91.0003
96.9062
90.0325
89.4833
89.5227
95.6061
90.961
89.9094
90.2552
89.2333
90.2534
97.1853
91.5148
89.5022
89.8476
89.0075
116.88
89.1357
91.8615
90.8591
91.11
99.4262
89.4758
99.9337
98.6405
91.5926
89.5522
90.8452
89.8303
90.2359
89.4258
89.5152
121.522
91.1808
89.4868
101.375
89.1775
113.078
96.6852
100.679
91.1442
96.3941
89.9234
90.8699
89.604
91.5063
82.3586
90.7836
91.2379
89.5146
95.0022
89.4774
91.663
89.5381
91.6863
98.3148
97.6816
97.3728
90.8924
85.6641
95.6626
96.9665
97.7978
97.1622
89.1436
90.8721
91.258
91.041
98.1457
113.85
91.0889
91.1071
91.1774
90.9944
89.6764
97.1942
98.8087
79.9801
123.546
87.665
88.1688
116.549
89.3548
89.8774
97.6483
)
;

boundaryField
{
    frontAndBack
    {
        type            empty;
    }
    wallOuter
    {
        type            zeroGradient;
    }
    inlet
    {
        type            zeroGradient;
    }
    outlet
    {
        type            fixedValue;
        value           nonuniform 0();
    }
    wallInner
    {
        type            zeroGradient;
    }
    procBoundary0to1
    {
        type            processor;
        value           nonuniform List<scalar> 
29
(
88.6323
88.4139
86.947
86.947
81.454
81.454
115.665
86.8901
85.1148
86.9302
87.1983
81.6676
87.0236
88.8012
115.996
116.331
80.9982
81.6859
86.8735
88.4244
116.202
116.09
82.9054
116.413
116.554
81.6859
117.153
115.571
116.413
)
;
    }
    procBoundary0to2
    {
        type            processor;
        value           nonuniform List<scalar> 
42
(
90.8748
90.8123
90.7385
90.7133
90.6979
90.8748
90.7385
90.5401
90.6302
90.588
90.783
90.7977
90.783
90.8293
90.8214
90.9858
90.8214
90.6267
90.5871
88.806
88.806
90.6267
90.6978
89.3027
89.3027
90.7512
89.9458
90.7728
90.8117
90.8412
90.8412
90.7514
90.7051
90.6318
90.5368
90.7385
90.7537
90.7832
90.8117
90.5401
90.4308
90.4572
)
;
    }
}


// ************************************************************************* //
