/*--------------------------------*- C++ -*----------------------------------*\
| =========                 |                                                 |
| \\      /  F ield         | OpenFOAM: The Open Source CFD Toolbox           |
|  \\    /   O peration     | Version:  v1912                                 |
|   \\  /    A nd           | Website:  www.openfoam.com                      |
|    \\/     M anipulation  |                                                 |
\*---------------------------------------------------------------------------*/
FoamFile
{
    version     2.0;
    format      ascii;
    class       volScalarField;
    location    "0.36";
    object      k;
}
// * * * * * * * * * * * * * * * * * * * * * * * * * * * * * * * * * * * * * //

dimensions      [0 2 -2 0 0 0 0];


internalField   nonuniform List<scalar> 
1466
(
0.138469
0.164915
0.0785967
0.119241
0.567743
0.472801
0.104593
0.669831
0.305649
0.317393
0.0250796
0.243864
0.0187975
0.0849365
0.0941604
0.126929
0.0307902
0.195149
0.297479
0.0677225
0.105799
0.230957
0.229637
0.158917
0.0906471
0.0452664
0.0812741
0.376663
0.111722
0.273599
0.642115
0.74103
0.298472
0.492905
0.208473
0.0877587
0.0552141
0.0932918
0.478564
0.271175
0.253736
0.15877
0.277607
0.575547
0.37338
0.262969
0.0814969
0.162989
0.111764
0.104412
0.0516722
0.278939
0.509799
0.364461
0.182913
0.435054
0.0977293
0.044906
0.0218715
0.391221
0.110717
0.25879
0.709455
0.581977
0.201994
0.0762683
0.435928
0.10458
0.148652
0.267685
0.0350024
0.123567
0.100787
0.0968554
0.0262964
0.569488
0.104878
0.144738
0.147227
0.405761
0.0472687
0.086747
0.0917752
0.0817817
0.0845386
0.0874175
0.0754851
0.134746
0.0684718
0.222869
0.093665
0.0507533
0.34093
0.141284
0.0490127
0.0952866
0.170278
0.0664642
0.216826
0.0894479
0.0733714
0.420448
0.0931055
0.0916677
0.0862527
0.257424
0.101013
0.0903267
0.213261
0.104401
0.0165237
0.057166
0.225616
0.0876683
0.0220407
0.37342
0.0613989
0.0705954
0.226345
0.0504748
0.0905427
0.158852
0.0460724
0.109801
0.0694015
0.119045
0.0951258
0.0874405
0.282571
0.353043
0.0413123
0.113769
0.141396
0.363224
0.0521424
0.398076
0.212867
0.0578066
0.382741
0.101915
0.243664
0.052381
0.201633
0.281243
0.383614
0.068439
0.0455741
0.106851
0.313661
0.0967638
0.206977
0.139107
0.216219
0.166847
0.08554
0.037527
0.136387
0.306569
0.0635546
0.119372
0.429795
0.0812507
0.207583
0.0948223
0.398794
0.375692
0.452079
0.152694
0.0740215
0.12714
0.0792733
0.0777915
0.113932
0.298233
0.080055
0.161168
0.370929
0.347916
0.0973661
0.355132
0.150893
0.0880732
0.0523521
0.0694275
0.139936
0.0739601
0.0947149
0.486386
0.0920282
0.0890018
0.0909403
0.0723276
0.0772062
0.198368
0.0844112
0.126901
0.376666
0.115852
0.0919457
0.0871661
0.336894
0.0440049
0.0883453
0.0734863
0.150778
0.198511
0.0918061
0.300401
0.0851437
0.179346
0.157992
0.310041
0.0570189
0.0701374
0.223185
0.0949092
0.0511123
0.0299131
0.0711626
0.104831
0.192671
0.175408
0.0804872
0.0813787
0.29433
0.0812272
0.0799886
0.129676
0.0694982
0.414918
0.0548185
0.0988962
0.0757849
0.0236826
0.0929167
0.15105
0.0294381
0.482884
0.0345551
0.108901
0.355339
0.0390345
0.0465929
0.268949
0.329443
0.0438518
0.0217321
0.0517384
0.0358537
0.046768
0.0815907
0.261503
0.130265
0.0801618
0.0729437
0.255498
0.0856097
0.440442
0.534445
0.484466
0.0652307
0.0770823
0.307535
0.129665
0.357081
0.128407
0.272917
0.329286
0.0445919
0.111938
0.302389
0.152288
0.0462939
0.0848161
0.0820024
0.0336293
0.0651187
0.0782083
0.0959157
0.268331
0.132819
0.0403061
0.0496711
0.0767253
0.0647165
0.0367829
0.0660205
0.0429023
0.193239
0.0967605
0.0784233
0.225608
0.059163
0.38948
0.107177
0.0535679
0.398258
0.410619
0.0657964
0.0684146
0.0353989
0.312431
0.102232
0.0709075
0.141022
0.0764561
0.0820656
0.0339348
0.0500928
0.698262
0.460042
0.0488602
0.0429783
0.241089
0.0717404
0.0405265
0.303605
0.037366
0.357839
0.118121
0.0854465
0.406302
0.0546124
0.063091
0.0386938
0.0542245
0.0255413
0.0636715
0.0186595
0.0525066
0.0862738
0.0600887
0.0207355
0.0832398
0.0559585
0.0625204
0.011045
0.0444401
0.147113
0.0378368
0.0982446
0.059028
0.0413999
0.0315235
0.0595991
0.0151403
0.119762
0.0481212
0.0299729
0.306874
0.193776
0.055917
0.28247
0.0280749
0.0290082
0.0408394
0.3084
0.0914875
0.6797
0.0547582
0.143147
0.427934
0.380629
0.0945094
0.217
0.0644431
0.0298566
0.0183523
0.0556706
0.109693
0.0231785
0.0343251
0.136964
0.0614901
0.0695109
0.0727554
0.0483072
0.454196
0.0706483
0.023538
0.0466655
0.244861
0.0942497
0.0530297
0.256912
0.05777
0.0528131
0.0476816
0.0340034
0.0354617
0.0652512
0.348005
0.298811
0.520652
0.0696203
0.0861257
0.336173
0.0246495
0.0854745
0.0118404
0.154486
0.0308841
0.306781
0.0474523
0.394569
0.0656243
0.229081
0.635213
0.0747118
0.0888725
0.0582687
0.298062
0.033036
0.184729
0.539286
0.145975
0.188881
0.173021
0.0677472
0.113285
0.106676
0.0230663
0.233098
0.223397
0.234754
0.272371
0.2601
0.251109
0.193946
0.205936
0.302903
0.0571999
0.156618
0.427328
0.284366
0.627139
0.623495
0.592872
0.29296
0.241287
0.111184
0.0386801
0.236403
0.126817
0.323563
0.595159
0.286094
0.376564
0.501044
0.15416
0.460118
0.57672
0.0780188
0.108592
0.634199
0.204225
0.429616
0.533593
0.0777337
0.12026
0.572065
0.134743
0.103225
0.0848533
0.215388
0.096708
0.702026
0.0657709
0.24821
0.0344676
0.493482
0.224042
0.0665054
0.140111
0.919732
0.598861
0.0465032
0.0265514
0.383177
0.565136
0.178954
0.0643658
0.677544
0.0666415
0.532076
0.10157
0.0694697
0.0532923
0.853861
0.403672
0.472271
0.0724784
0.0779644
0.0493275
0.312692
0.329138
0.632162
0.564153
0.109576
0.106576
0.0823082
0.0783472
0.263102
0.274777
0.0450902
0.30974
0.491071
0.181006
0.29232
0.295107
0.278278
0.359897
0.246648
0.0907766
0.0449604
0.321813
0.0681548
0.0780402
0.0816339
0.0639169
0.0755573
0.543468
0.256638
0.197372
0.146072
0.0329826
0.254057
0.235245
0.0221679
0.0457378
0.0722935
0.352702
0.225346
0.262986
0.0631871
0.400496
0.401621
0.52408
0.0973274
0.0291529
0.460834
0.674128
0.336036
0.626125
0.326591
0.0384482
0.0310264
0.402484
0.635371
0.0814881
0.0820611
0.0949174
0.694074
0.227447
0.343604
0.44553
0.271723
0.0562177
0.15494
0.235526
0.0757535
0.0384316
0.310103
0.297581
0.488498
0.315424
0.0863175
0.156332
0.33274
0.377866
0.105799
0.129313
0.312154
0.380923
0.0506229
0.293031
0.273284
0.0373028
0.310599
0.293003
0.0451317
0.175502
0.230075
0.325994
0.084333
0.528986
0.272629
0.0768257
0.467757
0.434335
0.0316668
0.0649186
0.352224
0.0770126
0.069988
0.0812394
0.404159
0.202297
0.547436
0.323719
0.493308
0.0813835
0.0828237
0.0543688
0.0263886
0.321489
0.193346
0.0579765
0.522691
0.313527
0.284815
0.259958
0.424533
0.512707
0.0782427
0.0303844
0.437961
0.0875295
0.126241
0.0786897
0.075807
0.0884845
0.249942
0.15959
0.0719771
0.246756
0.0211174
0.166706
0.0948068
0.711603
0.306263
0.301139
0.0664292
0.124706
0.37201
0.26521
0.350933
0.708303
0.0742076
0.0785925
0.0988902
0.355994
0.0974512
0.225496
0.0301848
0.417823
0.0528723
0.267081
0.265059
0.10178
0.16865
0.582487
0.222484
0.519095
0.069682
0.378425
0.314213
0.312793
0.100797
0.0525724
0.132147
0.649876
0.389404
0.282791
0.349326
0.721524
0.296576
0.0375186
0.65119
0.104673
0.0959239
0.076968
0.0177313
0.0473527
0.029687
0.0635148
0.413262
0.698985
0.067614
0.0359509
0.0763307
0.0710309
0.0292343
0.0623689
0.0502136
0.0382069
0.336915
0.0491924
0.0243391
0.197013
0.0802713
0.0889257
0.270793
0.0640338
0.34445
0.0829605
0.35608
0.0432403
0.0590319
0.184047
0.257165
0.0644443
0.260076
0.500083
0.15215
0.189261
0.18935
0.656896
0.281876
0.0770098
0.0750038
0.0333472
0.378972
0.0806085
0.081191
0.137103
0.349463
0.367244
0.0836463
0.0777351
0.283081
0.133517
0.0785813
0.261122
0.462489
0.0721276
0.258884
0.13149
0.22487
0.429428
0.389393
0.204641
0.0619736
0.0104691
0.010762
0.467249
0.0106127
0.0115526
0.0732862
0.468494
0.108137
0.0112816
0.0122599
0.0440978
0.142532
0.0504437
0.0983209
0.0821102
0.0762942
0.426712
0.0394176
0.105695
0.049192
0.118033
0.270959
0.209119
0.64549
0.477503
0.0589824
0.0772295
0.0422916
0.121072
0.0745456
0.0531103
0.0717919
0.392829
0.211638
0.0696242
0.044742
0.0390602
0.304475
0.398032
0.248362
0.0339058
0.142842
0.0382687
0.135276
0.408148
0.157361
0.238674
0.534056
0.381109
0.0340567
0.0897836
0.178547
0.0507841
0.0682301
0.0892563
0.052922
0.0644511
0.092086
0.067374
0.0727405
0.0791544
0.0836064
0.352219
0.47315
0.0621448
0.277243
0.049099
0.148025
0.301289
0.073691
0.0439609
0.0683617
0.0217462
0.2792
0.0920556
0.0628632
0.311577
0.634793
0.0261711
0.0844057
0.241796
0.0763161
0.271132
0.150911
0.0268365
0.118666
0.264918
0.62458
0.066021
0.212587
0.157435
0.0885835
0.0951099
0.160944
0.0609733
0.0491888
0.0630277
0.0762575
0.116948
0.0601084
0.0217197
0.0707605
0.081071
0.356283
0.0972074
0.0747225
0.158102
0.0229762
0.0443969
0.333921
0.386818
0.0198159
0.115616
0.413234
0.443341
0.269169
0.129462
0.457836
0.0500596
0.309077
0.390654
0.0302538
0.0498155
0.082144
0.0580068
0.0425175
0.0254528
0.263796
0.0218197
0.384393
0.161633
0.0822239
0.085863
0.149638
0.0775696
0.268752
0.0515184
0.0763039
0.0405852
0.194786
0.531893
0.0354547
0.0823393
0.0804821
0.0987016
0.536395
0.18506
0.0872369
0.0455418
0.0421896
0.0726477
0.140518
0.0337294
0.150295
0.367882
0.240823
0.508168
0.0411131
0.0885402
0.0585469
0.149963
0.07776
0.362362
0.0261678
0.0347219
0.12863
0.295192
0.202309
0.0683453
0.0363275
0.0444006
0.262447
0.0326405
0.0940697
0.106998
0.419364
0.0811112
0.150345
0.0294084
0.392242
0.106714
0.0566347
0.0393453
0.250539
0.0735126
0.162269
0.162316
0.0670056
0.0764948
0.278797
0.30878
0.437432
0.0735902
0.10416
0.0677681
0.0610399
0.119522
0.0781353
0.0759321
0.0447006
0.27439
0.0267995
0.233279
0.0979769
0.301408
0.0878868
0.0301409
0.0288385
0.0305934
0.0289008
0.138907
0.137948
0.137581
0.135636
0.0350325
0.134407
0.135173
0.0371673
0.0374915
0.0388153
0.210679
0.0395194
0.0398898
0.291641
0.0288014
0.276073
0.0544223
0.136168
0.509978
0.0938274
0.144153
0.145482
0.0247194
0.352747
0.145353
0.0587952
0.0954838
0.126861
0.304087
0.0536051
0.0489429
0.0649302
0.121325
0.0835757
0.0910869
0.136772
0.108467
0.324789
0.260704
0.590736
0.50418
0.104192
0.0507439
0.248263
0.138189
0.0652123
0.0475521
0.179812
0.194682
0.130922
0.136746
0.204848
0.0440923
0.0652517
0.446851
0.351784
0.274173
0.133691
0.135553
0.289979
0.101775
0.360841
0.0943532
0.0934483
0.206562
0.136044
0.118297
0.0954373
0.0958628
0.0723062
0.126647
0.0240874
0.393511
0.0807041
0.0999453
0.0205033
0.412773
0.0918004
0.136436
0.188283
0.238216
0.427304
0.433704
0.155272
0.12425
0.457784
0.522792
0.102214
0.0609146
0.524331
0.200837
0.0588906
0.371447
0.261509
0.0199097
0.0363848
0.21348
0.411357
0.014795
0.0686833
0.216328
0.0602093
0.297932
0.192024
0.0210139
0.269147
0.0778693
0.10589
0.0532862
0.0323734
0.489594
0.0164372
0.106081
0.577573
0.048172
0.0283756
0.158626
0.350923
0.112526
0.0504639
0.0373446
0.0625256
0.134977
0.100654
0.384063
0.392801
0.304631
0.0214387
0.234541
0.0712692
0.120236
0.517103
0.0416071
0.434344
0.620584
0.0754793
0.106837
0.239602
0.115248
0.174761
0.169002
0.0957768
0.308431
0.434771
0.30396
0.0407257
0.0786541
0.0881288
0.375744
0.0529278
0.259084
0.152981
0.0590435
0.13281
0.0428459
0.21836
0.0896773
0.0653128
0.210002
0.0677979
0.278203
0.0495764
0.0330652
0.0333236
0.138935
0.389602
0.114322
0.0520596
0.284169
0.051075
0.165235
0.176759
0.0710159
0.0712593
0.167945
0.0612821
0.384568
0.0415278
0.0290098
0.168577
0.0591055
0.0747669
0.0274678
0.202885
0.04826
0.222092
0.190275
0.0226182
0.254894
0.0392762
0.265491
0.0238204
0.247117
0.109777
0.0624631
0.527341
0.029168
0.105755
0.0342966
0.0406438
0.0584664
0.0860477
0.561074
0.0278064
0.160035
0.236709
0.0371641
0.140512
0.0610489
0.100502
0.127232
0.115107
0.0607219
0.120163
0.0304727
0.25304
0.0635081
0.0428068
0.298688
0.303345
0.228818
0.168703
0.136717
0.140474
0.118881
0.0532407
0.0402179
0.0581236
0.0840698
0.318482
0.0574171
0.0859563
0.614005
0.599888
0.204834
0.101718
0.0544904
0.0452301
0.333309
0.155636
0.0949669
0.10247
0.0591742
0.0516017
0.158952
0.372676
0.169191
0.0791545
0.0415
0.118812
0.0660944
0.0641665
0.520765
0.46552
0.290977
0.0476421
0.309968
0.0336385
0.0303979
0.230956
0.0541523
0.0794033
0.068954
0.0993272
0.34615
0.0269114
0.350951
0.0241835
0.0682161
0.038163
0.158819
0.315452
0.100466
0.289093
0.233107
0.328978
0.182565
0.238901
0.101762
0.171006
0.0396894
0.0295738
0.128206
0.0596044
0.490213
0.434033
0.125525
0.0695646
0.20551
0.0447878
0.152636
0.0640315
0.107133
0.0545363
0.386064
0.0921977
0.0658989
0.230953
0.0896585
0.327438
0.410663
0.308295
0.388452
0.0669512
0.0703326
0.0634862
0.0396857
0.261085
0.517983
0.0709641
0.420152
0.133864
0.152255
0.0586863
0.287575
0.139672
0.0328434
0.203935
0.0168908
0.0930392
0.238335
0.320584
0.149969
0.0784362
0.261552
0.137022
0.0348415
0.040609
0.334091
0.311666
0.0418087
0.563139
0.476204
0.405078
0.0177532
0.0902692
0.145803
0.0514609
0.219309
0.231198
0.43067
0.0780243
0.0843895
0.335682
0.328513
0.148854
0.0702554
0.404307
0.622174
0.481314
0.0736096
0.465128
0.51745
0.283282
0.0203802
0.258534
0.232454
0.31367
0.412931
0.0232412
0.20091
0.030276
0.325709
0.0516755
0.350982
0.0110292
0.0724166
0.319603
0.169025
0.192995
0.0772607
0.0292318
0.214457
0.0991699
0.281831
0.0392323
0.407638
0.0325845
0.279186
0.343229
0.115106
0.210495
0.078421
0.0784692
0.127233
0.0368055
0.230776
0.179787
0.347147
0.0625809
0.202435
0.308534
0.0128629
0.0394017
0.0783892
0.0915703
0.102066
0.192424
0.0785006
0.0612899
0.0719685
0.110272
0.0821054
0.0291521
0.0535366
0.0805229
0.0900015
0.203994
0.0874737
0.343108
0.0742967
0.0987947
0.223038
0.0778158
0.272304
0.0379888
0.066953
0.0658736
0.16903
0.0667408
0.0803332
0.0581401
0.161317
0.0519014
0.130034
0.617739
0.0227464
0.0450167
0.26026
0.0658104
0.16478
0.0656635
0.0430851
0.115691
0.239516
0.0725176
0.0672433
0.103181
0.104211
0.16915
0.0583614
0.200556
0.133055
0.0759214
0.399197
0.0366892
0.244435
0.112408
0.181418
0.107124
0.182096
0.0639556
0.0465117
0.0714436
0.0619172
0.359655
0.0277292
0.315507
0.373761
0.258102
0.0658874
0.161241
0.365156
0.0215611
0.180943
0.087194
0.111076
0.131455
0.0681904
0.215672
0.0726512
0.161322
0.116286
0.0546737
0.352971
0.497699
0.443028
0.895843
0.073676
0.06747
0.0685976
0.120228
0.330417
0.321891
0.132593
0.0659428
0.0720849
0.159493
0.144146
0.0703404
0.0791256
0.170427
0.154195
0.127847
0.0688645
0.0447049
0.0969865
0.165014
0.364224
0.117249
0.351574
0.344552
0.0698094
0.170142
0.327472
0.15066
0.0481661
0.263912
0.0238101
0.0872593
0.401424
0.355202
0.0697993
0.175212
0.344955
0.0615821
0.266279
0.226006
0.232884
0.130444
0.0989683
0.247453
0.177344
)
;

boundaryField
{
    frontAndBack
    {
        type            empty;
    }
    wallOuter
    {
        type            kqRWallFunction;
        value           nonuniform List<scalar> 
102
(
0.0187975
0.0187975
0.229637
0.0262964
0.0220407
0.0500928
0.0696203
0.0292343
0.0104691
0.010762
0.0106127
0.0115526
0.0112816
0.0122599
0.0440978
0.142532
0.0983209
0.105695
0.0422916
0.0696242
0.0339058
0.0340567
0.0897836
0.049099
0.148025
0.0885835
0.0951099
0.0302538
0.0254528
0.106714
0.0393453
0.0301409
0.0288385
0.0305934
0.0289008
0.138907
0.137948
0.137581
0.135636
0.0350325
0.134407
0.135173
0.0371673
0.0374915
0.0388153
0.0395194
0.0398898
0.0544223
0.136168
0.126861
0.0536051
0.121325
0.136772
0.130922
0.136746
0.0652517
0.133691
0.135553
0.0958628
0.0723062
0.200837
0.0199097
0.014795
0.0210139
0.0164372
0.0373446
0.234541
0.115248
0.174761
0.0590435
0.0653128
0.210002
0.0333236
0.138935
0.114322
0.0710159
0.0415278
0.0747669
0.222092
0.0624631
0.105755
0.0278064
0.115107
0.120163
0.228818
0.0581236
0.0859563
0.10247
0.0660944
0.0596044
0.137022
0.0348415
0.0203802
0.0232412
0.0110292
0.0772607
0.0128629
0.0612899
0.0821054
0.0227464
0.0656635
0.115691
)
;
    }
    inlet
    {
        type            fixedValue;
        value           nonuniform 0();
    }
    outlet
    {
        type            zeroGradient;
    }
    wallInner
    {
        type            kqRWallFunction;
        value           nonuniform List<scalar> 
138
(
0.0250796
0.0307902
0.111722
0.273599
0.278939
0.509799
0.364461
0.182913
0.25879
0.0507533
0.0733714
0.0916677
0.0460724
0.243664
0.052381
0.068439
0.0455741
0.152694
0.0890018
0.0909403
0.0723276
0.0299131
0.0465929
0.0438518
0.0217321
0.0517384
0.0358537
0.046768
0.357081
0.0403061
0.0496711
0.0429023
0.063091
0.0386938
0.0542245
0.0255413
0.0636715
0.0186595
0.0525066
0.0862738
0.0600887
0.0207355
0.0832398
0.0559585
0.0625204
0.011045
0.0444401
0.147113
0.0378368
0.0982446
0.059028
0.0413999
0.0315235
0.0595991
0.0151403
0.119762
0.0481212
0.0914875
0.0945094
0.217
0.0644431
0.0298566
0.0183523
0.0556706
0.109693
0.0231785
0.0343251
0.136964
0.0614901
0.0695109
0.0727554
0.0483072
0.023538
0.0118404
0.154486
0.033036
0.184729
0.0230663
0.284366
0.111184
0.0777337
0.096708
0.0344676
0.0465032
0.0265514
0.312692
0.109576
0.106576
0.263102
0.197372
0.146072
0.0221679
0.0310264
0.273284
0.0316668
0.0649186
0.249942
0.124706
0.282791
0.029687
0.0635148
0.0243391
0.0333472
0.0732862
0.108137
0.248362
0.0644511
0.0217462
0.0261711
0.0268365
0.0217197
0.158102
0.0229762
0.0580068
0.0405852
0.0326405
0.0267995
0.0288014
0.0247194
0.118297
0.188283
0.238216
0.0588906
0.106837
0.152981
0.0290098
0.0371641
0.0610489
0.140474
0.0452301
0.182565
0.180943
0.266279
0.226006
0.130444
0.0989683
0.247453
0.177344
)
;
    }
    procBoundary2to0
    {
        type            processor;
        value           nonuniform List<scalar> 
42
(
0.671358
0.671358
0.218713
0.22083
0.338729
0.736553
0.1491
0.1491
0.344903
0.271711
0.328136
0.328136
0.320423
0.354593
0.4065
0.72308
0.441248
0.19939
0.325693
1.20893
1.13797
0.12547
0.12547
1.13401
1.13797
0.0718551
0.830173
0.0633491
0.830173
0.638655
0.499649
0.0661585
0.0713898
0.0742633
0.0727888
0.22083
0.441248
0.144474
0.767964
0.071019
0.071019
0.0655099
)
;
    }
    procBoundary2to1
    {
        type            processor;
        value           uniform 1.14473;
    }
    procBoundary2to3
    {
        type            processor;
        value           nonuniform List<scalar> 
29
(
0.644752
0.662029
0.214353
0.159668
0.434728
0.667414
0.343867
0.657826
0.308924
0.318952
0.692863
0.60999
0.382131
0.611601
0.372316
0.560728
0.258059
0.258059
0.662029
0.611601
0.417928
0.26437
0.213611
0.301305
0.348446
0.262995
0.308924
1.03819
0.60999
)
;
    }
}


// ************************************************************************* //
