/*--------------------------------*- C++ -*----------------------------------*\
| =========                 |                                                 |
| \\      /  F ield         | OpenFOAM: The Open Source CFD Toolbox           |
|  \\    /   O peration     | Version:  v1912                                 |
|   \\  /    A nd           | Website:  www.openfoam.com                      |
|    \\/     M anipulation  |                                                 |
\*---------------------------------------------------------------------------*/
FoamFile
{
    version     2.0;
    format      ascii;
    class       volVectorField;
    location    "0.36";
    object      U;
}
// * * * * * * * * * * * * * * * * * * * * * * * * * * * * * * * * * * * * * //

dimensions      [0 1 -1 0 0 0 0];


internalField   nonuniform List<vector> 
1466
(
(0.325105 2.27705 0)
(-0.149325 1.90978 -1.02882e-16)
(0.541988 -0.228775 -1.58891e-16)
(-0.0582361 1.37171 1.38758e-16)
(-1.39303 -0.527942 -4.95821e-16)
(-0.878477 -0.251573 -4.1347e-16)
(-0.166541 -0.151287 3.34284e-16)
(-0.0400573 -1.19986 3.52593e-16)
(-1.39164 -1.58114 1.2425e-16)
(-1.25453 0.231386 7.30815e-16)
(0.361063 -0.0357487 -1.8245e-16)
(0.262693 1.29346 1.5363e-16)
(-0.0965089 -0.0834156 1.10972e-17)
(0.564572 1.46297 -1.10485e-16)
(1.52626 0.398955 -2.32875e-18)
(0.00350282 0.724432 -1.47599e-20)
(0.877003 -0.0509959 6.96243e-17)
(0.142071 1.5643 -1.30598e-16)
(-0.836887 -0.555976 -1.65691e-16)
(0.0450553 1.48814 0)
(-0.197389 -0.385914 1.54352e-16)
(0.0816419 0.226747 -3.99692e-16)
(1.33698 0.125902 0)
(-0.0683105 2.14826 6.07104e-17)
(0.702147 1.42684 -1.66367e-16)
(-0.0554793 -0.278041 2.05803e-16)
(-0.0516923 -0.295535 2.25449e-16)
(0.490044 0.459332 2.93578e-16)
(0.0496658 -0.00268335 0)
(1.1774 0.131185 4.07488e-16)
(-3.00574 -1.7043 0)
(-1.38611 -0.804095 6.18785e-16)
(0.0548561 0.578167 -3.36485e-16)
(-0.660892 -1.45224 -9.23414e-17)
(0.480098 1.32988 0)
(1.03444 0.375906 2.58231e-17)
(-0.668731 0.279589 -1.86782e-19)
(1.25236 -0.481323 0)
(-0.365034 -0.467997 -5.56417e-16)
(0.507745 0.335369 3.23419e-16)
(0.272873 1.06933 -1.68263e-16)
(-0.102825 0.0316468 -2.16514e-16)
(-1.39042 -1.38301 -3.62641e-16)
(-0.889241 -1.81532 1.77451e-18)
(1.2814 0.838802 0)
(-1.68985 -1.26159 2.44714e-19)
(1.42975 -0.660123 -1.57812e-16)
(0.0722616 1.35742 9.56189e-17)
(-0.126181 -0.0942343 -3.04825e-16)
(-0.000413444 -0.508035 -8.72627e-17)
(-0.213135 -0.305436 0)
(-1.3207 0.113826 -3.13307e-16)
(-0.98527 -0.104584 3.70528e-16)
(-0.792372 -0.0370962 4.0552e-16)
(0.607579 0.178654 4.23285e-16)
(-0.196266 0.443518 -1.3014e-16)
(1.72125 -0.335316 0)
(0.679573 -0.795659 3.00335e-16)
(-0.0571835 -0.0145382 1.82394e-17)
(-0.246923 0.0750201 0)
(0.00722167 0.800672 -2.5156e-18)
(-0.0837923 -0.497052 1.07907e-16)
(-2.98731 -1.25673 9.23182e-17)
(-1.80239 -0.628427 -3.40177e-16)
(-0.23279 1.38383 1.85578e-16)
(0.22255 1.4587 -3.24979e-17)
(-0.0985053 0.830623 -3.90873e-17)
(-0.336648 -0.23913 -2.01868e-16)
(0.0543451 1.60919 -1.22727e-17)
(0.164319 0.25069 0)
(0.174191 -0.292526 0)
(-0.0557717 1.61881 -5.60523e-17)
(0.732809 -0.276503 -5.40705e-16)
(-0.0188753 1.70986 -1.90615e-16)
(-0.055847 0.0687062 4.5823e-17)
(-0.597797 0.398142 -2.10533e-16)
(-0.0421361 1.68236 4.71762e-17)
(0.0525546 1.72503 1.6408e-16)
(-0.161475 0.138596 0)
(-0.273924 0.114826 0)
(0.488041 -0.369162 -3.54057e-17)
(0.0772127 1.52273 1.92519e-16)
(1.54867 0.0834086 0)
(-0.115726 -0.182027 1.86629e-18)
(0.622909 -0.15368 2.07645e-16)
(0.369889 -0.560838 -9.87811e-17)
(0.536613 -0.0746167 -2.73148e-16)
(-0.377899 0.928181 1.45136e-16)
(0.300743 1.59532 -3.5924e-17)
(0.0713596 1.46829 5.95273e-18)
(0.00406526 1.57118 1.00082e-16)
(-0.438361 -0.20579 0)
(-0.262134 -0.269527 -6.64145e-17)
(-0.0227258 1.37348 1.86642e-16)
(-0.561222 -0.230895 0)
(-0.345922 -0.335554 -2.07678e-16)
(-0.102412 1.21166 6.18335e-16)
(-0.0504403 0.0394347 0)
(-0.0988565 1.14017 1.49625e-16)
(0.0611423 1.51256 -1.57838e-16)
(-0.0635101 0.0609723 0)
(0.548882 0.681477 -9.03529e-17)
(0.682795 -0.070165 4.00068e-16)
(-0.143201 0.400008 -1.72815e-16)
(1.64066 -0.448682 0)
(-1.70436 -1.40001 -2.21602e-16)
(-0.419522 -0.091967 1.86896e-16)
(1.57152 -0.0885154 -6.64408e-18)
(-0.0597977 1.81194 4.7005e-17)
(1.00341 1.13687 5.74929e-18)
(-0.00281888 -0.0278503 2.44691e-17)
(0.245911 -0.337017 5.36804e-16)
(0.266829 0.521358 -3.51915e-16)
(1.21241 -0.456742 -1.55796e-19)
(-0.0971862 -0.21828 -2.18605e-17)
(-0.815892 -1.46866 0)
(0.230771 1.43903 -7.79439e-17)
(0.347771 1.529 5.36431e-16)
(-0.0181907 1.367 3.07975e-17)
(0.650614 -0.746953 -4.52218e-16)
(-0.735984 -0.143521 1.89118e-16)
(0.413875 2.06905 0)
(0.10043 0.567853 -8.11876e-17)
(-0.458482 0.922895 -7.50213e-17)
(0.347917 1.41657 2.88086e-16)
(-0.221997 -1.21333 -1.0522e-16)
(0.0206201 0.041668 3.10496e-17)
(-0.159116 0.292462 0)
(-0.246512 -0.651748 6.17624e-17)
(0.562538 0.0210116 -3.04277e-16)
(-0.00878379 -0.333766 1.37741e-16)
(-0.0664409 1.67593 -1.06387e-20)
(0.315966 0.8963 2.23993e-17)
(0.0468647 1.2349 -6.15588e-17)
(-0.303967 -0.456079 -1.07903e-17)
(-0.283419 0.147557 1.57717e-16)
(-0.0440154 0.135175 0)
(0.621784 -0.114216 0)
(1.71855 0.508489 3.27534e-17)
(-0.0271919 1.03981 9.14707e-17)
(-0.927008 0.159049 -1.06777e-16)
(-0.688326 -0.192915 -1.66834e-16)
(-0.195101 -0.955919 6.98173e-17)
(-0.0349606 0.30366 -4.75289e-16)
(1.51143 0.652922 1.32788e-16)
(0.602461 0.589195 0)
(-0.581995 0.301669 0)
(-0.232244 0.575845 0)
(-0.0475531 1.37775 6.75223e-17)
(0.654178 -0.222136 2.68795e-16)
(-0.222139 -0.966357 -1.42753e-16)
(0.143657 0.25326 4.56607e-18)
(0.197213 1.51795 1.10538e-16)
(-0.12057 1.52293 -2.02115e-17)
(0.0622852 1.73599 -1.53853e-16)
(0.27618 -0.234912 -9.1248e-17)
(-0.0145605 1.67244 -3.2048e-16)
(0.295732 -0.918269 1.85344e-16)
(-0.216433 -0.981832 -6.96019e-17)
(-0.17512 0.74645 0)
(0.789006 0.72192 1.02397e-16)
(0.164911 1.47145 -2.29202e-17)
(-0.0707554 1.29334 2.6257e-16)
(-0.567145 -0.250907 1.8634e-16)
(0.301976 0.568793 -4.94148e-18)
(-0.270715 0.175439 -6.94327e-19)
(-0.059672 -0.710643 0)
(0.933862 0.458776 9.01595e-17)
(0.133265 1.28342 4.43933e-18)
(-0.184651 -0.184096 3.94931e-16)
(0.129779 -0.404876 2.8117e-16)
(0.50339 -0.553069 2.55352e-16)
(0.143036 0.129994 0)
(-0.129056 1.41308 8.19493e-17)
(-0.187926 -0.269754 -8.54006e-16)
(-0.233476 1.50726 1.63301e-16)
(0.112528 0.44492 1.6491e-16)
(-0.277351 -0.263771 -2.35409e-17)
(1.45083 0.530714 -1.22151e-16)
(-0.283377 -0.269964 2.29591e-17)
(0.124277 1.80138 -1.74292e-16)
(1.30275 -0.479719 1.8784e-16)
(-0.059277 -0.444603 -3.36913e-16)
(0.282607 1.53907 -4.80335e-16)
(-0.349924 1.21503 -3.51569e-16)
(0.501697 1.42518 5.32184e-16)
(1.13149 -0.0945947 0)
(0.112172 0.0415574 0)
(1.04889 0.229568 -4.86319e-17)
(-0.0908196 0.330067 0)
(-0.287084 0.888211 0)
(0.158122 0.955964 1.24936e-16)
(0.22727 1.5302 2.00687e-17)
(-0.205283 1.28754 -7.18498e-17)
(1.45114 -0.654936 3.11441e-19)
(-0.0428375 1.74408 0)
(1.88883 0.379058 -4.11981e-17)
(1.15348 0.890089 -1.18142e-17)
(1.09141 0.987497 -1.14692e-17)
(0.916039 1.21044 -5.47232e-18)
(-0.151915 0.212904 -9.89339e-17)
(0.0251839 -0.351185 3.35231e-16)
(1.60016 -0.270761 -5.25964e-17)
(0.192504 1.38149 2.38515e-16)
(0.308605 0.416878 0)
(-0.148625 -0.0599308 3.86641e-16)
(1.20615 -0.282422 1.48173e-16)
(-1.77503 -1.31634 1.08062e-16)
(1.02857 0.541326 4.57201e-17)
(0.736395 0.358108 1.00834e-17)
(0.96379 0.640336 4.82951e-17)
(0.141612 -0.186052 8.53999e-19)
(-0.085825 -0.44848 -1.13585e-16)
(0.944791 -0.323632 -2.62657e-19)
(-0.0759666 1.24094 -7.33526e-17)
(1.07695 0.0765973 2.5669e-17)
(-0.186846 0.347599 -8.58681e-17)
(-0.293581 0.0936554 0)
(0.171534 1.62038 0)
(-0.0528954 1.71251 -2.75763e-20)
(0.0950815 0.246826 1.74298e-16)
(0.384073 2.09071 0)
(0.072835 1.25885 5.69671e-17)
(1.29796 -0.588328 3.35782e-17)
(-0.180584 1.4759 -4.29292e-17)
(1.09608 -0.577248 0)
(0.676455 1.10617 7.64342e-17)
(0.253856 0.880726 1.20504e-16)
(-0.857955 0.174636 2.70667e-18)
(-0.697114 -1.15224 -3.4511e-16)
(0.701203 -0.220637 2.82105e-16)
(-0.402388 0.62689 0)
(0.239854 1.50593 -1.11436e-16)
(0.122557 -0.1216 1.83276e-19)
(1.53726 0.244568 0)
(0.592837 0.745003 0)
(0.111348 -0.21465 0)
(1.49128 -0.55612 -4.90641e-16)
(0.103919 -0.323856 -1.2875e-16)
(0.778481 1.25376 0)
(-1.10043 -1.43718 1.30509e-16)
(0.0631791 -0.436675 3.56222e-16)
(-0.164312 -0.194372 -4.27747e-17)
(0.0747295 0.262214 -7.9673e-16)
(-0.027826 0.287432 0)
(-1.00292 0.0137209 -1.69548e-16)
(-0.126077 -0.062226 -5.96483e-19)
(-0.889795 -0.161871 3.33082e-16)
(-0.604534 0.104789 0)
(-1.06653 -0.0547157 -5.40992e-18)
(0.138462 1.70237 -6.22916e-16)
(0.81544 0.312815 -8.97367e-17)
(-0.146265 -0.213294 -1.45369e-16)
(-0.514809 0.56156 4.85317e-16)
(0.359701 1.25886 0)
(0.683201 0.423598 1.54427e-16)
(0.791743 0.889988 -1.15498e-17)
(0.399352 -0.411679 -6.50879e-17)
(0.38323 -0.154394 1.4104e-16)
(-1.34533 0.307007 -1.12293e-16)
(0.827352 -0.327983 -2.81607e-19)
(1.04008 -0.363785 2.5672e-16)
(0.652523 0.561533 4.24372e-19)
(-0.0730091 0.871503 -2.42542e-17)
(-0.230724 -0.167415 -2.15351e-16)
(1.68904 0.242249 -2.26609e-16)
(-1.7147 -1.66225 8.54088e-17)
(-0.160722 0.669413 1.53685e-19)
(0.118266 -0.432703 -7.06933e-17)
(-0.0654531 1.68518 -5.02089e-17)
(0.254367 1.03125 -8.74178e-17)
(0.260295 1.8624 5.32713e-17)
(0.562288 -0.188728 3.20444e-17)
(0.377404 0.653403 3.05322e-18)
(1.10663 -0.368642 -3.97782e-16)
(-0.0473578 0.00486158 7.72581e-17)
(-0.558041 0.469327 1.41648e-16)
(0.483383 0.923209 0)
(-0.230865 0.400118 -6.2267e-18)
(-0.108524 0.112905 2.22732e-16)
(0.908514 0.91846 2.4485e-17)
(-0.829809 0.0750194 0)
(-1.01925 -0.114363 -3.99366e-19)
(-0.164018 -0.0431847 5.25925e-18)
(0.138367 -0.891161 -8.76703e-17)
(0.380137 -0.0719241 -1.07458e-16)
(0.321499 -0.787388 0)
(0.122038 -0.163593 0)
(0.303549 0.633025 3.13853e-16)
(-0.00212578 0.976388 1.27154e-16)
(0.974043 -0.531892 -2.05931e-16)
(-2.05314 -1.89316 -3.90099e-17)
(0.516648 -0.808082 -4.12174e-17)
(-0.81433 0.439197 0)
(-0.130492 -0.399262 -1.97018e-16)
(0.22797 -0.501781 0)
(0.200873 0.413188 8.60421e-17)
(-0.296972 -2.27826 -4.10797e-19)
(0.0427699 -0.65008 0)
(0.174056 0.414189 -2.23068e-16)
(0.335565 -1.00025 -5.90124e-17)
(-0.200972 -0.64161 3.99825e-16)
(0.109002 0.0355878 -4.39345e-17)
(0.398167 -0.859922 7.40311e-17)
(1.43752 0.453842 2.20075e-16)
(0.650648 0.271315 -3.98866e-16)
(-1.03433 -0.313656 -1.54351e-16)
(0.0136195 -0.238091 -1.53927e-16)
(-0.386695 -0.00242037 5.29568e-18)
(0.0812088 -0.476408 2.76692e-16)
(-0.607332 -1.00082 2.87929e-16)
(-0.72442 -0.133775 3.95402e-17)
(0.200792 -0.391914 -1.38896e-16)
(-0.0182472 1.46053 -2.2226e-16)
(-0.100284 -0.313737 7.35287e-17)
(0.0275693 -0.286943 -2.64109e-17)
(0.306097 0.538516 -4.2098e-19)
(-0.175235 -0.193282 2.0276e-16)
(1.62274 0.461275 0)
(-0.0721518 0.113382 -4.06752e-17)
(1.06772 -0.684316 -2.77851e-17)
(-0.253627 0.598446 -1.59862e-16)
(-0.0180732 -0.572682 5.76073e-16)
(1.54054 -0.00269602 -1.55705e-16)
(-0.308978 -0.0165769 1.82234e-16)
(-1.03878 0.0892909 -1.18641e-16)
(-0.190688 -0.0843364 2.17455e-17)
(-0.689653 -0.106376 0)
(0.195057 -0.0538148 0)
(0.483486 -0.186645 -1.49727e-16)
(-0.909071 -0.0269482 0)
(1.51915 -0.069735 3.30439e-16)
(-0.0227514 -0.0730396 2.10365e-17)
(1.2086 -0.151155 0)
(-0.519642 -0.0810077 -1.19504e-17)
(1.59743 -0.0310935 0)
(0.0164099 0.00506423 -5.31159e-17)
(-0.247247 -0.0863097 -1.28958e-16)
(0.275205 0.151755 -1.49935e-17)
(0.207242 -0.132175 1.62115e-16)
(-0.910885 0.0728314 0)
(1.31378 -0.141524 -2.56279e-16)
(-0.611506 0.138567 0)
(-0.583126 -0.0683364 0)
(-1.12196 0.0270638 -1.25927e-16)
(-0.0897244 -0.0207307 0)
(-0.350711 0.159389 -8.34598e-17)
(0.487907 -0.158994 8.50212e-17)
(0.127573 -1.05897 1.00003e-16)
(0.124684 0.495335 -3.47481e-16)
(-0.182437 -0.234238 5.57554e-17)
(0.671259 -0.334816 5.41841e-16)
(-0.175275 -0.0148458 -5.50215e-17)
(0.0289657 -0.104159 -4.92275e-16)
(0.0236543 -0.152029 2.84683e-16)
(-0.0661423 -0.232568 -4.91962e-18)
(0.341087 0.127708 -3.89734e-16)
(-0.201687 0.618604 3.8184e-16)
(0.0315516 -0.0419983 -2.76593e-18)
(0.377725 -0.592836 -1.964e-16)
(0.333563 0.499441 0)
(-0.232592 0.530657 1.7022e-16)
(-0.262601 0.648428 1.7375e-16)
(1.38467 -0.0697175 -2.40303e-16)
(-0.136697 0.715159 3.48157e-17)
(-0.945022 -0.0708392 0)
(-0.38963 -0.088278 -2.17444e-17)
(0.103127 -0.0559713 -1.53254e-17)
(1.00324 -0.174885 1.21811e-16)
(-0.669052 0.142976 0)
(-0.00695268 -0.0480595 2.03899e-17)
(0.136406 -0.10625 -9.38826e-17)
(-0.00072859 0.162489 -2.6758e-16)
(1.59536 -0.0571449 0)
(0.746273 -0.0812701 -3.94521e-16)
(-0.772874 -0.0919502 0)
(-0.863416 0.129758 8.37112e-17)
(-0.514576 -2.09828 -7.36319e-18)
(0.850269 -0.228195 3.64787e-16)
(0.0974548 -0.508515 -2.14302e-16)
(0.475084 -0.0794727 2.8223e-17)
(-0.0763052 1.45538 -2.2434e-17)
(0.305615 -0.90461 -6.67656e-18)
(-0.587532 -0.228025 -8.13784e-17)
(-0.152948 1.5451 -1.88992e-17)
(0.468962 -0.745131 3.61394e-16)
(0.318668 -0.281547 1.06848e-16)
(0.204029 -0.536283 0)
(0.223113 -0.311889 0)
(-0.195586 -1.16634 0)
(-0.235067 -1.24513 3.1043e-16)
(0.860563 -0.0212639 0)
(-0.226407 1.48606 1.00107e-17)
(-1.06533 -2.23725 5.24858e-17)
(-0.341288 0.087708 -4.26895e-17)
(1.05728 0.750724 -6.93149e-17)
(-0.247435 1.13067 1.45513e-18)
(-0.0293076 -0.131741 -1.44095e-16)
(1.67717 -0.574401 -7.20888e-17)
(0.0873584 -0.0390017 5.63639e-17)
(0.586805 0.125493 3.51097e-17)
(0.109148 -0.154682 -4.2301e-18)
(-0.265819 1.44321 -1.34539e-16)
(0.552151 -0.310455 -2.63171e-17)
(0.0880526 0.538039 0)
(0.116659 -0.794219 2.58123e-16)
(0.0374096 -0.18097 -1.40463e-16)
(0.444253 0.357905 -2.87652e-16)
(0.774232 -0.291183 -9.12034e-17)
(-0.615872 0.477293 -9.35052e-17)
(0.163852 -0.763601 2.06826e-17)
(-0.370259 1.66524 -2.82873e-16)
(0.484521 -0.738778 5.28859e-17)
(-0.0206279 0.623519 4.10109e-17)
(-1.00443 -1.23284 -3.50434e-17)
(-0.11661 -1.06865 1.36312e-16)
(0.23089 -0.189458 -3.36297e-17)
(0.72646 -0.369498 -2.70129e-19)
(-0.239475 -1.18937 0)
(-0.179326 -1.18279 0)
(0.708818 -0.516268 6.75183e-16)
(-0.1739 -0.723617 8.55959e-17)
(-0.186257 0.273023 -1.68395e-16)
(-0.380265 0.274036 6.04026e-16)
(-0.259163 0.219131 -3.70035e-16)
(-0.164948 0.205439 7.94846e-16)
(-0.298334 0.703918 -1.65304e-16)
(-0.247333 0.408511 -4.59846e-16)
(-0.235651 -0.00598979 -3.36321e-16)
(-0.103294 0.00562939 -3.64718e-16)
(-0.210457 0.94487 -1.8111e-17)
(0.206524 -0.674071 -4.20833e-17)
(0.235385 -0.546023 3.8405e-17)
(0.149218 -0.772562 -1.66528e-22)
(0.254432 0.291861 -1.20616e-16)
(-0.110292 -1.29463 -1.53129e-16)
(-0.752428 -0.820656 2.47309e-16)
(-1.08343 -1.78086 1.86015e-16)
(-0.00827688 -0.160484 4.8268e-16)
(0.483224 0.448593 -1.92839e-16)
(0.154553 -0.480854 -5.41755e-17)
(-0.278661 -1.12544 0)
(0.489835 -0.378712 4.19543e-16)
(0.0370554 -0.680712 4.54486e-17)
(0.340732 0.0731019 -2.56397e-16)
(-0.50875 -0.405876 -2.55342e-16)
(0.476306 0.391878 0)
(0.254541 0.0921732 3.28699e-16)
(-0.445667 -2.38023 0)
(0.621435 -0.493042 7.03098e-17)
(-0.32717 -2.38207 1.83324e-16)
(-0.632514 -0.678622 0)
(-0.0971615 -0.599663 -5.12027e-17)
(0.673537 -0.457984 -3.54364e-16)
(-0.529084 -0.468346 -8.25875e-17)
(-0.257216 -0.406519 -3.27385e-16)
(0.0852376 0.00215484 -6.05132e-19)
(-0.29583 -0.172966 0)
(-0.141572 -0.580409 0)
(0.484033 -0.633084 -1.16612e-16)
(-0.328797 -0.150674 1.88394e-16)
(0.398887 -0.53691 3.11901e-18)
(0.594287 -0.543636 3.1313e-16)
(0.656591 -0.623032 3.6835e-16)
(0.214268 -0.254613 -7.83078e-17)
(0.0191943 -0.220192 0)
(-0.281822 -1.06228 1.7209e-16)
(0.329472 -0.875549 -1.07234e-17)
(-0.28395 0.991115 0)
(0.485243 -0.632202 1.10618e-16)
(-0.0837727 -0.499477 3.71195e-17)
(-0.0376382 -0.47548 -3.52188e-17)
(0.594286 -0.701528 -2.62849e-16)
(-0.20893 -0.533402 6.76334e-17)
(-0.675127 -0.947047 -8.27237e-16)
(-2.64048 -2.08182 -4.53867e-16)
(-0.168561 -0.27547 0)
(-0.00904457 -0.12515 -5.00253e-17)
(-1.34338 -0.87761 -1.07422e-16)
(-0.833174 -0.752035 2.41942e-16)
(-0.361208 0.884955 -4.72722e-17)
(0.435143 -0.890219 -5.01656e-17)
(-0.90355 -0.92939 4.3213e-16)
(0.208766 -0.592414 -1.62606e-16)
(-2.07603 -1.76078 0)
(-0.482887 0.66342 1.26819e-16)
(0.520703 -0.48188 -5.33823e-16)
(0.279063 -0.547309 6.32258e-17)
(-0.303847 -0.930942 -2.04734e-16)
(1.6108 0.316725 -4.43461e-17)
(-1.90498 -1.51096 -1.22957e-16)
(-0.489372 0.510715 -8.91266e-17)
(0.333668 -0.307249 9.50518e-17)
(0.273556 -0.596879 -4.28323e-17)
(-0.547797 1.3105 0)
(-1.22349 -0.747427 1.43439e-16)
(-0.683466 -0.745203 -1.70618e-18)
(-0.347083 -0.199437 1.50654e-16)
(-0.112734 -0.311869 -1.44723e-17)
(-0.0957836 -0.572532 1.28852e-17)
(-0.736328 0.279549 1.80467e-16)
(0.679995 -0.0900907 1.19213e-17)
(-0.310669 1.00921 4.79747e-17)
(-0.261712 1.63862 -4.41244e-17)
(0.219929 -0.536719 4.52535e-17)
(-0.277359 1.27372 -9.97578e-17)
(1.02729 0.347023 3.46492e-16)
(0.212971 -0.593682 -2.02244e-17)
(0.846086 -0.0907276 -3.72991e-16)
(0.211687 -0.329738 -1.07365e-17)
(0.649851 0.319884 -4.21915e-16)
(-1.52753 -1.0183 0)
(0.719837 0.410774 2.73575e-16)
(0.365515 -0.753464 7.36675e-17)
(0.186122 -0.72903 -6.20547e-18)
(0.624861 0.151655 -8.6728e-17)
(-0.523635 0.295192 2.71915e-18)
(0.286761 -0.0353386 -9.83659e-17)
(0.681124 -0.60027 -5.20056e-16)
(0.661826 -0.69313 -1.87699e-16)
(0.62471 -0.671927 8.71441e-16)
(-1.12021 -1.55461 3.9942e-17)
(-0.172462 0.0526016 1.52157e-18)
(0.145744 0.326648 3.16152e-16)
(0.0772867 0.469101 0)
(-0.102719 -1.19309 2.28943e-16)
(-0.0881003 -0.0923557 0)
(-0.132873 0.148775 1.00507e-16)
(-0.105604 -0.574028 8.62737e-17)
(0.00807168 -0.535577 -5.0557e-17)
(-0.280244 -0.631026 3.46638e-16)
(-0.250921 0.684611 -4.45784e-17)
(0.418473 -0.462472 -6.44581e-17)
(0.640748 -0.309389 1.29632e-16)
(0.279199 -0.837698 0)
(-0.19483 0.0430073 0)
(0.604252 0.989986 1.69119e-16)
(-0.275525 -0.312164 -3.58489e-17)
(0.187053 -0.559097 -4.47603e-17)
(-0.0157223 -1.06995 -4.03284e-16)
(-0.28514 -0.100936 4.53826e-17)
(-0.648138 -0.758523 3.99684e-17)
(0.286076 0.31408 2.63696e-16)
(-0.441006 -0.432697 -1.28238e-16)
(0.48023 -0.192884 1.09657e-16)
(0.556703 -0.884025 -4.56737e-17)
(-0.724089 -0.0313613 0)
(-1.49131 -2.34488 0)
(-0.876792 -1.12471 0)
(-0.837487 0.0320493 9.71808e-17)
(0.656436 0.0890747 2.77459e-16)
(1.83819 -0.278277 -7.09377e-18)
(-0.47159 -0.720978 7.2117e-17)
(-0.08635 -0.609351 8.14147e-17)
(-0.228376 0.201906 -1.35422e-16)
(-0.00277279 0.0670304 0)
(0.192615 0.805061 -1.38024e-16)
(0.184171 -0.48622 -5.8333e-17)
(0.417862 -0.283147 -1.41319e-16)
(0.521599 0.562841 -6.74854e-17)
(0.132098 -0.395331 5.13458e-16)
(0.174523 -1.00178 1.21017e-17)
(-0.205183 -0.257042 8.95246e-17)
(-1.74794 -2.53511 0)
(0.451693 0.453894 -5.65121e-16)
(-0.253523 -0.256571 -9.57436e-17)
(1.09419 -0.717345 0)
(0.427171 0.613927 4.52673e-17)
(0.723868 -0.0502449 -1.19692e-17)
(-1.3291 -2.57776 1.50574e-17)
(1.97078 -0.00427008 0)
(0.244086 0.255955 0)
(0.925202 0.100406 9.67901e-17)
(1.09144 0.968938 1.8336e-16)
(-0.414584 0.331208 -7.40755e-17)
(0.998387 0.0840675 1.16833e-16)
(0.362126 -0.175152 1.42108e-16)
(0.152279 -0.414158 0)
(0.815771 0.179161 -1.34831e-16)
(1.03029 0.17173 9.48119e-17)
(0.0930562 -0.788055 -1.04459e-16)
(1.03296 0.353433 7.93087e-17)
(0.199011 0.195683 0)
(-0.246327 1.1472 2.23312e-16)
(1.53215 -0.648807 0)
(-0.294294 -1.97446 -4.92508e-19)
(-1.50184 -1.10037 -1.64581e-16)
(-0.240967 0.221779 9.05871e-17)
(-0.89506 -2.52706 0)
(0.482654 -0.421612 1.08892e-16)
(-0.291537 0.1185 -2.20446e-17)
(1.10481 0.222929 1.62427e-16)
(1.33211 0.601583 4.47912e-16)
(0.312816 -0.015377 0)
(-0.568179 0.0287884 0)
(0.243108 0.163426 -8.78599e-17)
(-0.158171 0.960391 -7.83706e-17)
(-0.227551 -0.887081 -1.08577e-17)
(-1.14209 -1.90436 0)
(-0.207362 0.730298 -1.64778e-16)
(-0.551531 -2.4747 1.09192e-16)
(-0.938562 -0.238895 -1.69696e-16)
(0.564205 0.244137 -3.5732e-16)
(-0.125586 0.25794 4.0555e-16)
(0.0400912 -0.226692 2.33215e-16)
(0.320927 0.94232 2.58111e-16)
(0.392955 0.134448 0)
(0.215005 -0.526983 -1.62001e-16)
(-0.97625 -1.15411 -1.037e-19)
(-1.04697 -2.52195 3.19171e-16)
(-0.262656 -0.62376 -1.10278e-17)
(-0.936195 -0.583045 7.06093e-17)
(0.0749212 -0.767268 2.68645e-16)
(0.462324 0.451435 -3.6595e-16)
(0.0953166 -0.0615347 0)
(0.111837 -0.322948 -2.10589e-16)
(-1.42301 -1.97025 -7.07717e-18)
(0.256385 1.40035 -4.82838e-16)
(0.367979 0.345262 9.42636e-20)
(-0.898328 -0.396989 -1.72056e-16)
(0.306943 0.392381 -1.91145e-16)
(1.05163 -0.65197 -1.31456e-16)
(0.170577 -1.05915 -3.69432e-19)
(-0.185454 -0.47856 0)
(-0.266668 0.390229 0)
(0.845859 -0.140773 -1.443e-16)
(0.0129946 -0.0409378 -1.30359e-16)
(0.656015 0.603417 -5.13185e-17)
(0.843797 -0.478334 -8.6698e-17)
(-0.489034 -1.4732 -9.408e-17)
(0.805381 0.394175 0)
(-1.46311 -2.56925 -1.26789e-17)
(0.0442473 0.0443557 -2.44518e-17)
(1.31918 0.145459 2.03805e-17)
(-0.199051 1.04438 7.13417e-17)
(-0.251133 -0.578686 2.35546e-17)
(-0.233172 1.10298 0)
(-0.692495 -1.04161 6.40761e-18)
(-0.622738 -0.248774 -8.29424e-17)
(0.176568 0.340857 8.56833e-17)
(0.721466 -0.268365 0)
(-0.0579755 0.194324 1.53659e-19)
(1.87858 -0.241301 -5.34473e-17)
(0.252756 0.407451 -2.4208e-16)
(0.210331 -0.135217 4.0267e-17)
(0.352338 0.869527 0)
(-0.119494 0.155227 -3.91805e-16)
(0.243826 0.651508 -3.37164e-16)
(-1.81642 -2.05006 1.2703e-16)
(0.628994 -0.0684228 0)
(0.350542 0.358097 -4.30328e-17)
(-0.669027 -2.22134 0)
(-0.222999 -0.526974 0)
(-0.214766 0.0265517 0)
(0.165759 -0.843597 -7.20971e-17)
(0.631519 0.225819 2.42959e-16)
(-1.13488 -1.3529 8.36529e-17)
(-0.354743 1.49251 7.54366e-16)
(0.572557 0.105149 -5.19064e-17)
(-0.287031 0.090886 -3.0431e-18)
(0.0236843 0.655326 -5.26414e-21)
(-0.907969 -1.44388 -4.93004e-18)
(0.849037 1.01365 -1.80015e-16)
(0.293835 -0.607993 1.40729e-16)
(-0.8007 -1.20946 1.02618e-16)
(-0.517198 -1.09733 -8.39757e-17)
(1.03207 0.1779 1.50219e-16)
(0.258042 -0.507184 -4.47076e-16)
(-0.786258 -1.83714 0)
(-0.102613 -0.599002 -8.49927e-18)
(0.544241 0.242012 3.79369e-17)
(-0.254925 0.240486 1.00535e-16)
(0.0898355 -0.0406903 1.17929e-16)
(-0.319029 0.266233 1.62389e-16)
(-0.241934 0.0354125 -2.15091e-16)
(1.41282 0.05523 -6.63848e-19)
(0.28765 -0.652036 -1.10041e-19)
(-0.777323 -1.39628 0)
(-0.266765 0.484266 0)
(-0.0503927 -1.20978 3.89192e-17)
(-0.642098 -0.423589 2.9417e-21)
(0.0200874 0.469524 1.90265e-16)
(-0.0575448 0.121028 0)
(0.0405605 0.153122 1.45737e-16)
(-0.0656061 -0.108503 0)
(-0.0178028 -0.20174 0)
(-1.74483 -1.24799 5.74929e-17)
(0.348672 -0.390029 -1.58546e-16)
(-0.610922 0.0781289 -4.57998e-17)
(-0.179768 0.859452 -3.97834e-17)
(0.134308 1.71059 7.38852e-17)
(0.520116 0.354228 -1.24595e-17)
(-0.01424 -0.0321508 3.31417e-16)
(-0.261923 -1.09947 1.03021e-16)
(0.385956 -0.917175 -1.83813e-16)
(0.592532 0.613416 3.66389e-17)
(-0.124125 0.222607 1.00997e-16)
(0.467084 -0.441269 -1.92494e-16)
(-0.0255652 -0.663014 9.60215e-17)
(-0.0947789 -0.891491 -2.09816e-16)
(0.860554 0.307733 2.47576e-16)
(0.0736523 0.205572 -1.84453e-16)
(-0.219616 -0.248119 9.98065e-17)
(-0.19736 0.00871902 8.5947e-20)
(-0.191608 -1.12545 1.15794e-16)
(0.256608 2.07962 -2.25747e-17)
(0.0659687 -0.569546 0)
(-0.428348 -1.82567 0)
(0.935977 0.2314 -2.583e-16)
(-0.666566 -0.435014 8.3254e-17)
(0.102006 0.450654 -1.83334e-16)
(-0.335852 0.102269 1.12336e-17)
(1.87091 0.242514 2.13381e-17)
(-0.983365 -0.417604 0)
(0.442276 0.348015 1.83706e-16)
(-0.0103424 1.69191 0)
(-0.210145 0.031717 0)
(-1.05695 -2.68978 -8.89473e-17)
(0.507755 0.46143 0)
(0.113223 -0.218226 -4.76206e-16)
(-0.0714438 0.838361 4.6e-16)
(0.556206 -0.328679 9.82222e-17)
(-0.199611 0.0233663 -9.1897e-17)
(-0.192944 -0.646107 -8.14243e-17)
(-1.25692 -1.63805 -1.46825e-16)
(0.817161 -0.486992 -2.47896e-16)
(0.051449 0.455491 1.89634e-16)
(0.740088 1.01879 -1.26203e-17)
(0.156338 0.449732 -3.28282e-16)
(1.42919 0.488383 -1.04681e-16)
(0.701773 -0.202521 6.76111e-17)
(0.338951 1.55527 0)
(-0.169704 -1.24349 -2.17821e-16)
(-0.130574 0.0130086 1.12193e-17)
(-0.111273 0.0276986 -4.1828e-17)
(-0.834678 -1.10344 -1.9021e-19)
(-0.143423 0.0147221 -1.15887e-17)
(-0.0852128 0.0516461 0)
(-0.460089 -0.119778 -2.72978e-16)
(-0.395956 -2.31481 0)
(1.4724 0.00589963 3.38184e-16)
(-0.150317 0.021223 -9.41039e-17)
(-0.098011 -0.00322948 0)
(0.0984139 0.53036 7.63446e-16)
(-0.0340972 1.38502 1.45296e-16)
(0.574231 -0.491908 -3.02209e-16)
(0.127143 0.177718 -4.43144e-16)
(0.396614 0.25371 2.63729e-17)
(0.341362 -0.0334951 0)
(0.136816 0.682557 2.4852e-16)
(-0.502808 0.29281 8.04688e-17)
(0.219768 0.131754 1.71726e-16)
(-0.411901 0.237942 1.42633e-16)
(-0.153708 -1.04066 4.65065e-17)
(-0.10472 -0.230146 4.30393e-17)
(-0.0954772 1.1074 -1.40138e-20)
(0.463261 -0.230236 1.56396e-18)
(-0.231567 -0.798524 0)
(-0.320291 0.431813 4.70535e-17)
(-0.0049033 0.391297 0)
(-0.0330464 0.0890907 1.79499e-19)
(0.804602 0.309553 -4.28217e-20)
(-0.048758 -0.776949 5.15631e-17)
(-0.582615 0.177081 -1.32378e-16)
(0.741212 0.478022 0)
(-0.355088 -0.982311 -6.67511e-17)
(-0.0135524 0.271149 -3.89392e-16)
(0.0707578 0.105542 -3.59046e-16)
(-0.355007 0.344186 0)
(-0.780331 0.0872998 3.41978e-21)
(0.0411967 1.18998 -1.56788e-16)
(-0.0678498 -0.279995 5.42257e-16)
(-0.622104 -0.246633 5.32902e-16)
(-0.0070361 0.155419 -5.13341e-16)
(-0.152429 -0.698096 -2.06762e-17)
(0.246938 -0.618291 1.85315e-16)
(0.215467 0.254261 -3.22726e-17)
(-0.0232155 0.460755 -1.82509e-16)
(0.0920206 0.270154 1.52931e-20)
(-0.845854 -0.59983 1.10882e-16)
(-0.519568 -0.488754 7.79856e-16)
(-0.025379 0.255191 1.05871e-19)
(-0.282465 -0.0713409 0)
(-0.186711 0.161535 9.06494e-17)
(-0.196694 -0.80189 7.69356e-20)
(-0.0759247 -0.244271 -1.22878e-16)
(-0.71209 0.247152 -8.45564e-17)
(-0.107149 -0.379646 4.33607e-17)
(0.435189 -0.0324374 -3.30644e-16)
(0.0320476 1.16608 1.09911e-16)
(-0.039527 0.639772 -8.57749e-17)
(0.561769 0.35573 1.54688e-16)
(-0.814188 -0.139317 2.01622e-16)
(0.283347 1.19779 2.8604e-16)
(-0.664162 0.764612 -1.99968e-16)
(-0.0105139 -0.918974 -4.54563e-16)
(0.461449 0.514711 -2.13365e-20)
(0.373717 -0.299565 -2.01558e-19)
(-0.0858317 0.468075 2.91534e-16)
(0.13024 0.833294 -2.54355e-16)
(-0.0290976 1.52116 0)
(-0.132632 0.769866 2.65624e-16)
(-0.692077 0.0658205 -9.34074e-17)
(-0.781939 -0.0209899 3.8152e-17)
(-0.185097 0.499898 2.57272e-17)
(-0.432642 0.0854387 4.23482e-17)
(0.36494 0.515403 1.39394e-16)
(1.75178 -0.49799 -8.55452e-17)
(-0.680091 0.383108 8.43716e-17)
(0.477911 0.768227 2.56539e-16)
(-0.0940289 -0.0284397 -4.76186e-16)
(-0.172384 0.0332732 -2.26292e-17)
(-0.833805 -0.0301824 -3.39734e-16)
(0.34073 0.680375 0)
(0.0588708 1.28638 -6.41955e-17)
(-1.20986 -0.826419 -3.77893e-19)
(0.149685 1.66661 -5.79948e-17)
(-0.742267 0.0536497 -4.0058e-17)
(-0.136248 1.13156 -2.57564e-16)
(-0.973471 -1.06158 5.86963e-17)
(-0.530338 -0.418131 -2.10991e-16)
(-0.241166 0.468175 -2.82406e-18)
(0.689372 0.133245 -7.82427e-17)
(0.0493049 -0.834218 8.33159e-17)
(1.51084 -0.0142418 0)
(1.51053 0.00251821 0)
(-0.0300987 2.20283 -3.28859e-18)
(0.672012 -0.464899 -4.21674e-16)
(0.494734 -0.565633 2.32454e-16)
(0.674835 -0.452266 0)
(0.138127 0.468562 0)
(-0.229044 -1.21976 -1.62221e-17)
(-0.436229 0.382673 -8.67383e-17)
(0.29564 -0.0324429 1.415e-16)
(-1.00641 -0.0781382 1.4187e-16)
(-0.174455 0.15832 1.05616e-16)
(0.392766 0.690816 -8.72458e-16)
(-0.0928436 -0.914974 0)
(0.394449 0.859436 -1.00037e-16)
(0.66351 -0.00262669 -6.79855e-17)
(-0.175445 -0.332629 0)
(0.416111 -0.627999 -1.72769e-16)
(1.0736 0.775331 -2.31512e-16)
(0.548868 -0.149849 7.31383e-16)
(0.15414 -0.0442413 -1.26808e-16)
(0.372952 -0.739083 -2.20758e-16)
(-0.154508 0.337648 0)
(-0.0458666 0.652201 0)
(0.99494 0.126249 1.48433e-16)
(0.22252 -0.789423 -7.26304e-17)
(-0.101594 0.187272 2.00676e-16)
(0.0457477 -0.957486 0)
(-0.148373 0.237818 8.92748e-17)
(0.0466352 0.385378 4.336e-20)
(0.0673585 -0.0213971 0)
(-0.0501065 -0.574471 0)
(0.248352 -0.92692 4.64193e-17)
(-0.344883 -0.147785 0)
(-0.448971 0.194172 2.82787e-17)
(-0.101975 0.0680591 1.85544e-16)
(-1.27685 -1.16985 1.38644e-16)
(0.212285 -0.0103164 4.14387e-16)
(-0.322899 -1.74402 -9.64857e-17)
(-0.166017 1.49812 -1.75164e-16)
(0.776114 0.203322 1.82029e-16)
(-1.19818 -0.370218 0)
(0.237466 1.79292 -6.22508e-17)
(-0.8656 0.0793203 1.80668e-16)
(0.0848198 0.689992 0)
(-0.434946 0.212375 -1.48998e-16)
(-0.729277 -0.272968 0)
(0.494563 -0.149994 -2.47802e-16)
(0.3295 0.712681 0)
(-1.53322 -1.81959 -1.37553e-16)
(-0.717721 0.16451 4.59352e-18)
(0.751625 -0.594106 1.23846e-16)
(0.15487 1.48696 6.15393e-16)
(-0.352319 0.523527 0)
(-0.0914972 -0.0519458 -7.44725e-19)
(0.778018 -0.235558 1.90228e-16)
(0.0764501 1.05531 -1.61836e-16)
(-0.615583 -0.0601493 3.89004e-17)
(0.379841 -0.168967 -1.50955e-16)
(-0.150394 -0.756696 1.68675e-16)
(0.327255 2.13012 3.18199e-17)
(-0.59261 0.20001 5.01123e-18)
(-0.0990569 1.37569 -4.93986e-16)
(0.511401 0.477555 -1.54102e-16)
(0.856994 0.0538877 2.74165e-16)
(-1.52835 -0.938621 2.67676e-16)
(0.103777 -0.641176 -1.0222e-16)
(0.739435 -0.645328 -8.27104e-17)
(-0.309199 0.161316 -7.65111e-17)
(0.332638 0.253044 3.92537e-16)
(-0.651349 -0.121888 1.80424e-16)
(-0.213238 0.0263561 1.15544e-16)
(0.109455 -0.269799 0)
(0.0912759 -0.313045 0)
(0.0562181 0.0133468 -2.0037e-16)
(0.451912 0.270936 2.70528e-16)
(0.145433 2.02208 -2.40926e-17)
(-0.260109 -0.449621 -3.02125e-16)
(0.0619901 -1.13374 6.9879e-18)
(0.557542 -0.871205 -7.91391e-17)
(0.174771 0.814625 5.26316e-16)
(0.528025 -0.164977 1.06154e-16)
(0.624337 -0.668212 4.22376e-17)
(1.80498 0.0309456 0)
(0.122704 0.963935 1.48983e-16)
(0.389572 0.111166 0)
(0.498426 0.81016 0)
(0.0591647 -0.134397 -4.18856e-18)
(0.695394 -0.156211 0)
(1.30613 0.0790943 0)
(-0.0393555 -1.09924 0)
(0.0252924 -0.0349554 0)
(-0.378906 0.509993 -6.51385e-16)
(0.215532 1.67575 -1.82475e-16)
(-0.250576 0.878903 -1.41442e-16)
(0.370622 0.482395 -3.97063e-18)
(-0.571492 0.277771 -4.89094e-16)
(0.343544 0.98749 -3.56674e-16)
(0.807665 0.205516 3.02089e-16)
(0.166923 -0.879695 -5.51132e-16)
(-0.0072707 0.212599 3.61286e-16)
(0.0697932 1.32443 6.3798e-17)
(0.0984029 -0.0662573 0)
(-0.113263 -0.859844 0)
(-0.110161 -1.19668 2.17067e-16)
(-0.440941 -0.200192 8.93501e-16)
(0.203891 1.21414 2.82021e-16)