/*--------------------------------*- C++ -*----------------------------------*\
| =========                 |                                                 |
| \\      /  F ield         | OpenFOAM: The Open Source CFD Toolbox           |
|  \\    /   O peration     | Version:  v1912                                 |
|   \\  /    A nd           | Website:  www.openfoam.com                      |
|    \\/     M anipulation  |                                                 |
\*---------------------------------------------------------------------------*/
FoamFile
{
    version     2.0;
    format      ascii;
    class       volVectorField;
    location    "0.93";
    object      U;
}
// * * * * * * * * * * * * * * * * * * * * * * * * * * * * * * * * * * * * * //

dimensions      [0 1 -1 0 0 0 0];


internalField   nonuniform List<vector> 
5794
(
(-0.0156161 -0.254397 -3.49036e-17)
(-0.169076 -0.176024 0)
(-0.211884 -1.40979 -1.34464e-16)
(0.38223 3.29893 1.05275e-16)
(1.73057 1.7864 2.38989e-17)
(0.014677 -2.07533 -1.05903e-16)
(2.71014 -0.19522 -1.7845e-16)
(0.92935 -0.341301 0)
(5.78201 0.818423 1.00228e-16)
(-0.0512845 0.0086258 2.56298e-16)
(4.72686 -0.108343 -3.19188e-19)
(-1.9714 -0.224408 0)
(-2.80223 -0.183106 4.86809e-16)
(0.527963 6.88982 1.78725e-16)
(0.24842 -0.00524489 5.42558e-16)
(-0.834667 -0.173946 -1.50637e-16)
(1.40718 -0.0296982 4.71621e-17)
(0.00612502 7.14178 1.20642e-16)
(0.136142 -0.0073958 5.05149e-16)
(-0.0080675 -0.0596087 1.94621e-16)
(-2.99269 1.7809 -4.59067e-17)
(0.245761 -1.06025 -1.48067e-16)
(3.12139 -0.0488248 2.47078e-16)
(0.833673 0.0153367 -6.3604e-16)
(2.57538 0.228819 -3.6901e-16)
(2.9167 10.7288 2.13761e-17)
(5.92643 -0.580726 0)
(0.00571324 2.09492 -1.47591e-16)
(0.0455959 9.32345 -3.78668e-17)
(0.167848 -0.00504986 3.1762e-16)
(-0.452836 -0.867671 -6.44726e-16)
(-1.79776 0.0294431 -5.07327e-16)
(-2.12865 0.113518 -9.02097e-16)
(-0.183109 -0.216273 4.77276e-16)
(-0.885719 0.301213 -2.15534e-16)
(-0.886994 0.313121 2.15028e-16)
(9.76288 0.604694 -2.18288e-16)
(2.52645 -0.449352 0)
(3.23458 -0.363091 1.3139e-16)
(0.0379214 3.48827 0)
(0.133808 2.4939 -1.04927e-16)
(-0.712417 2.24429 1.3562e-16)
(7.37119 0.110804 -8.82659e-19)
(0.257656 2.60482 0)
(0.266947 -0.0319497 -4.71356e-16)
(4.82608 -0.171042 1.3465e-16)
(3.69332 -0.195098 -2.47836e-16)
(-1.4847 -0.373367 0)
(0.0187142 0.0491869 9.20635e-16)
(1.25643 -0.215013 6.43353e-17)
(0.405913 -0.0755734 -1.7484e-16)
(5.90472 -0.229574 -1.82926e-16)
(-0.0908015 -0.317662 0)
(0.330192 0.120285 1.80792e-16)
(-0.0670545 -0.0607491 1.06644e-17)
(5.05665 -0.511379 0)
(3.73831 -0.414273 -2.00177e-16)
(-1.74511 0.023345 1.53777e-16)
(8.38528 0.064607 0)
(4.40843 10.1104 -7.21483e-19)
(9.11316 0.483557 1.91478e-18)
(0.31787 0.63699 -1.36454e-16)
(-0.130377 -1.38484 -1.50258e-16)
(-0.92701 -0.043385 2.09315e-16)
(-1.21405 0.137057 0)
(0.650879 0.25861 -2.68706e-18)
(0.228838 0.922367 -2.30845e-16)
(-0.135948 3.62946 0)
(0.206683 5.40305 -1.39366e-16)
(0.160289 0.549422 -1.62061e-21)
(4.57047 -0.496649 1.41486e-16)
(0.349362 2.48851 -2.87876e-16)
(11.3747 2.09488 -3.49959e-18)
(1.94586 0.0772571 0)
(0.103941 6.69259 1.22849e-16)
(0.195171 1.10669 6.43858e-20)
(-0.022784 -0.105593 1.46938e-16)
(1.58626 10.5402 -2.21387e-17)
(0.378724 2.69114 3.7386e-17)
(-0.31104 0.067838 7.51255e-17)
(0.108516 -1.38123 -1.77289e-17)
(0.0277636 -0.380564 -1.80846e-16)
(0.129455 1.29827 -6.09813e-20)
(2.40512 -1.52328 -8.68388e-17)
(1.57171 -1.36072 -3.65888e-16)
(-0.10107 5.36649 -4.1321e-17)
(0.211389 6.16577 3.04297e-17)
(0.0306549 5.26434 -2.51132e-17)
(0.874193 0.0758914 -1.71076e-16)
(2.09888 1.16888 -4.62231e-17)
(0.917359 5.58664 -8.01519e-17)
(0.054966 7.0666 -8.23587e-17)
(-0.0767543 7.47338 1.33974e-16)
(0.104364 7.55034 5.88356e-17)
(-0.0310203 6.75856 3.27727e-17)
(-2.14547 0.0439038 5.36906e-18)
(0.0160093 6.18778 -5.59795e-17)
(-0.11386 7.22154 -1.45136e-17)
(-0.0309509 7.02026 0)
(8.8308 0.533727 -3.10021e-17)
(1.73341 3.24804 -1.23857e-16)
(-1.2016 0.17609 -4.10937e-16)
(8.2645 0.142095 7.36278e-17)
(0.472237 5.74503 -2.40524e-16)
(0.16637 0.0881796 0)
(-0.287501 5.5934 0)
(0.108875 0.544834 0)
(-0.324664 0.0679392 -2.77023e-16)
(-1.40524 0.579009 -1.22935e-16)
(0.535862 2.75686 -1.01572e-16)
(0.560677 -0.0958248 -4.63886e-20)
(0.34195 -0.06108 0)
(-1.43897 4.71408 1.14332e-16)
(-0.253206 -0.0590566 1.54983e-16)
(0.00771785 6.66871 0)
(-0.105242 7.66643 0)
(0.24566 -0.0467221 -3.91163e-16)
(-0.22606 8.32165 -9.47089e-20)
(9.36543 0.434169 -2.392e-20)
(10.8423 0.607638 6.06327e-18)
(-0.389724 7.67371 1.08883e-16)
(0.404641 0.0407677 0)
(-1.71287 -0.0295518 0)
(0.0763927 1.53745 -1.97234e-16)
(0.391699 -0.0585087 2.4012e-16)
(4.749 2.36104 5.08945e-17)
(0.769246 5.67747 0)
(-0.188433 -1.83953 6.69594e-17)
(6.03726 -0.635662 1.21514e-16)
(-0.470792 -0.0413573 1.68118e-16)
(-0.246136 -0.891026 3.40684e-16)
(-0.70337 -0.96468 2.13906e-16)
(0.171994 1.11033 2.35763e-17)
(1.0877 10.2079 -6.68516e-17)
(-0.374269 6.45004 1.38184e-16)
(0.316814 -0.0174718 0)
(4.25133 -0.204811 9.36946e-17)
(0.344883 0.636886 -1.95994e-16)
(-1.05922 -0.136746 1.58904e-16)
(0.327868 -0.358719 0)
(1.38431 -0.338166 -5.05365e-16)
(0.404959 2.63717 0)
(0.420394 -0.108694 0)
(0.384406 3.03328 2.5455e-16)
(-1.05307 -0.183396 1.6596e-16)
(2.12326 -0.123471 1.56991e-17)
(-0.926112 1.02267 2.27714e-16)
(7.68713 0.283646 2.36676e-16)
(1.32397 1.1055 -1.71749e-18)
(0.23949 1.25994 4.0805e-16)
(7.21061 -0.17323 -1.7572e-16)
(0.264197 0.12675 3.52108e-16)
(-0.300631 5.79419 0)
(-1.31587 0.29769 1.87527e-16)
(4.11446 -0.747792 0)
(4.27586 0.123407 0)
(2.24331 -0.663816 -2.53971e-16)
(1.30256 -0.344233 4.02999e-16)
(5.2151 0.17904 -2.66238e-16)
(1.53342 -0.599495 -1.337e-16)
(0.178334 -0.00232069 4.29434e-16)
(-1.53219 -0.08742 -3.65783e-16)
(-0.0236232 -0.0717311 0)
(-1.79907 -0.0253791 -1.40103e-16)
(-2.97974 0.0204727 -3.03434e-16)
(-3.10628 -0.0969926 1.65662e-16)
(-1.80646 -0.135971 1.24325e-18)
(-0.766361 -0.295393 -4.16554e-18)
(0.441286 -0.0721016 0)
(0.217209 -0.0128811 1.02416e-18)
(0.169674 0.0127867 0)
(-1.85221 0.414427 -1.1609e-16)
(-1.06261 0.227411 0)
(-0.99688 0.258948 1.04525e-16)
(-0.435493 -0.0307817 4.56817e-16)
(3.06719 -2.11846e-05 0)
(0.058095 0.0114186 -2.6341e-16)
(2.53013 0.059736 -2.21427e-16)
(0.547491 -0.129335 -9.25321e-17)
(6.14769 0.103226 6.87218e-18)
(0.772183 -0.184523 -5.7099e-18)
(-1.18084 -0.307586 0)
(1.50431 -0.0994088 0)
(-1.87568 -0.327551 1.25668e-16)
(0.605664 -0.236722 0)
(0.0352292 -0.847839 7.01648e-17)
(-1.36466 0.13312 -1.46458e-16)
(-1.2306 0.298545 -1.01402e-16)
(-0.095031 0.0130144 1.4805e-16)
(-1.09289 0.106783 3.37101e-16)
(4.6295 -0.0692351 -3.4413e-16)
(-1.87017 -0.10135 3.75524e-16)
(-2.27107 -0.0867425 6.01098e-16)
(0.133513 -0.438993 6.34415e-16)
(-1.26265 -0.551685 -9.6559e-17)
(-0.711324 -0.448568 -5.2007e-16)
(1.86053 -0.327015 -2.10056e-17)
(0.00949535 -0.108892 -1.94922e-16)
(0.0685725 -0.0340358 -3.23449e-16)
(6.39595 -0.0465494 1.22866e-16)
(3.06694 -0.0676699 -1.85609e-17)
(5.80718 0.00713843 0)
(-0.682021 -0.437253 0)
(-0.197541 -0.0927271 1.1593e-17)
(3.69786 -0.0131442 -5.82613e-17)
(4.76496 0.0224052 0)
(-0.1352 -0.256062 1.22362e-17)
(0.338696 -0.037002 2.12992e-19)
(4.69915 1.06917 -5.79873e-18)
(1.91384 8.71115 1.24564e-16)
(0.75064 1.41866 1.0664e-16)
(9.73163 -0.00926527 0)
(-1.17384 0.128026 -1.13187e-16)
(-1.00368 -0.290529 1.80418e-16)
(0.52306 -0.191547 0)
(1.1722 0.284705 7.55522e-16)
(0.880418 0.236952 -1.79986e-16)
(1.03472 1.44339 9.63978e-17)
(4.1156 -0.194857 1.33538e-16)
(1.41247 5.61359 -1.75869e-16)
(9.64876 -0.00562953 0)
(1.99716 0.556627 2.19371e-16)
(-0.347178 1.97325 0)
(-0.0336822 5.26865 2.72758e-17)
(5.09292 0.123947 1.33252e-16)
(11.1631 0.720681 2.1561e-18)
(-0.904246 -0.23262 -7.31075e-17)
(0.0848884 -0.0854037 -1.34243e-16)
(0.361042 -0.0847686 0)
(0.304009 -0.039149 -3.47598e-16)
(-1.00313 0.383278 0)
(-0.982389 0.396111 -7.02294e-17)
(-0.420006 0.0829699 -1.15222e-16)
(-1.06758 0.742157 1.53635e-16)
(2.01547 0.332686 1.62436e-16)
(9.74965 0.148897 5.70024e-18)
(7.63456 0.929359 1.90216e-18)
(7.2628 0.511166 2.89489e-17)
(-2.09606 0.12072 -1.58728e-16)
(0.763375 -1.06216 -3.83374e-16)
(-0.0911835 -0.314919 0)
(1.20079 0.817228 1.17726e-15)
(1.47488 4.68756 2.16165e-16)
(-0.711139 0.706879 -2.59082e-16)
(-1.37578 0.86574 2.67439e-16)
(0.573053 -0.0292973 3.03724e-16)
(0.327605 -0.0863184 -1.61694e-16)
(1.16024 0.751078 8.1273e-18)
(-0.116875 5.98517 0)
(-0.0326796 5.88515 0)
(-0.0212276 5.43153 0)
(0.381017 0.260886 2.87426e-17)
(2.87723 -0.692766 -7.24767e-17)
(-0.260219 0.152594 -3.99838e-20)
(7.26021 1.19676 -5.8065e-17)
(4.41304 2.31204 -9.04771e-18)
(8.17467 0.212541 -1.51541e-16)
(8.99433 0.527641 1.59582e-16)
(0.063281 -0.357193 2.92553e-16)
(0.35538 -0.032892 0)
(5.92224 -0.0600515 -1.13248e-16)
(-1.23577 0.0692558 9.76619e-17)
(-0.828271 -0.51075 -1.02885e-16)
(0.957904 -0.158563 0)
(-1.35343 -0.162123 0)
(-1.44397 -0.18815 -6.15594e-19)
(0.209498 1.87438 1.45334e-16)
(3.76571 0.782081 0)
(0.264749 -0.0198551 -7.59487e-16)
(4.3516 0.0131859 -1.25144e-16)
(3.46548 -0.0565756 0)
(0.187076 -0.805271 -3.00545e-16)
(1.12466 1.82255 -4.75194e-16)
(4.80101 -0.370448 -1.7238e-16)
(9.48923 0.088459 3.65709e-17)
(0.2125 -0.0451779 3.50093e-16)
(0.329506 0.143557 -1.95196e-16)
(1.48357 -0.25049 -8.63156e-17)
(0.394197 -0.0719352 -2.05536e-16)
(-1.75845 1.24233 -2.45183e-16)
(-0.111646 -0.109857 4.0331e-16)
(0.918385 3.28993 2.59036e-16)
(0.258046 3.26318 9.95618e-17)
(-0.536398 2.02157 -3.85343e-16)
(0.258838 4.82422 4.71786e-17)
(-0.124853 5.2806 1.14555e-16)
(0.0413944 6.07087 1.2412e-17)
(0.0217304 5.91978 0)
(0.582063 5.79679 4.21373e-17)
(-0.438341 7.73523 0)
(-0.6525 0.423314 -1.80501e-17)
(-0.618338 0.491989 -1.46618e-16)
(-0.153237 -0.0664901 2.71811e-18)
(0.385928 0.155365 0)
(8.04334 1.71784 0)
(1.1437 7.53972 7.20389e-18)
(0.291274 3.47627 5.89648e-17)
(-0.285023 1.21902 -1.34743e-20)
(0.231491 4.54639 -2.05819e-16)
(0.664786 -0.173892 -1.76716e-16)
(0.0601714 -0.411319 1.26396e-16)
(-0.460713 6.34787 0)
(0.10786 -1.35631 -6.91079e-16)
(0.740514 2.07809 0)
(0.543099 0.692078 -1.72555e-16)
(3.55447 0.264452 1.6559e-18)
(0.468314 -0.148494 -2.83936e-16)
(0.33378 3.64619 2.68401e-16)
(4.99226 0.102759 2.47331e-16)
(4.0086 0.0368842 0)
(0.554868 -0.502594 -6.43159e-16)
(-0.173875 0.487792 -3.07449e-16)
(1.3425 7.6008 -1.3822e-16)
(-0.212597 -0.097852 -8.70732e-17)
(10.5885 0.119929 0)
(10.0077 0.301747 -1.82582e-17)
(-0.0907229 0.0625941 -9.87312e-17)
(-0.055588 2.79343 -2.72879e-16)
(-2.07551 0.37891 -2.20008e-16)
(0.159575 7.10325 -4.18896e-17)
(0.446735 -0.228557 5.04452e-16)
(1.74697 -0.817608 -1.95152e-16)
(-0.12328 7.53055 -7.77758e-17)
(1.68386 1.3544 -7.67513e-19)
(-0.676644 -0.160104 0)
(1.7174 -0.452671 0)
(1.9869 -0.11026 0)
(-1.51262 -0.291679 6.76374e-17)
(-2.12088 -0.353663 -3.24432e-16)
(4.5085 -0.128701 3.01447e-16)
(6.1923 -0.0350006 -7.13728e-18)
(6.56484 -0.125456 3.07046e-16)
(-0.943379 -0.412432 9.23041e-17)
(-1.8328 0.254055 4.97807e-16)
(-1.71639 0.144522 0)
(-0.0753631 -0.0280976 -2.67667e-16)
(-0.0588937 -0.0148055 0)
(0.263013 -0.0831032 0)
(-0.0245926 0.0389359 -3.60381e-16)
(-0.607791 0.0202481 0)
(0.721186 -0.082062 4.3874e-16)
(2.56263 0.0782728 3.8214e-16)
(6.31086 0.373111 0)
(3.16285 -0.0943652 0)
(0.0876004 -0.00980843 4.50548e-16)
(1.50738 -0.0289322 3.70553e-16)
(-1.07003 -0.525663 3.27328e-16)
(-0.252192 -0.348559 -2.42153e-17)
(-3.02186 -0.151431 -1.24002e-16)
(2.876 0.0224857 6.82218e-17)
(3.58479 0.17065 6.1126e-17)
(0.550987 0.0898425 2.45873e-16)
(-2.35173 -0.165911 -2.27079e-17)
(-1.75963 -0.203461 1.52276e-16)
(0.975866 -0.30631 0)
(-0.977967 -0.63092 0)
(-0.0123915 -0.0558074 1.91981e-16)
(5.21862 -0.424359 1.74277e-16)
(2.74879 0.00067331 6.6048e-17)
(1.18831 -0.300267 0)
(0.19287 -0.00349811 -2.76473e-16)
(1.43322 -0.488826 4.65397e-16)
(4.67681 -0.0869679 3.69864e-17)
(2.10943 -0.404785 -3.30883e-17)
(1.45774 -0.828264 -2.65529e-16)
(0.303316 0.0251604 5.25231e-16)
(-3.234 -0.00917987 -3.81946e-17)
(4.25222 -0.339657 0)
(3.14051 -0.290835 3.37366e-16)
(-1.69888 0.00186691 -9.19265e-17)
(0.303781 -0.0559499 -1.44583e-16)
(1.14698 -0.0535209 0)
(0.414825 0.0580232 -1.19821e-16)
(-0.247917 0.664662 2.85586e-16)
(0.510089 0.0658751 8.98128e-17)
(-2.7987 0.165027 1.4088e-16)
(3.78721 -0.0226989 0)
(2.74841 0.112286 9.10464e-17)
(-1.65311 0.442683 0)
(0.0796139 -0.021437 1.68732e-17)
(0.16072 -0.368777 1.75073e-16)
(0.25974 -0.0774706 0)
(10.7715 0.0878478 0)
(-1.26275 0.18386 1.52723e-16)
(-1.24989 0.108793 -6.25286e-16)
(-0.175356 -0.261138 -3.83427e-16)
(-0.256975 9.08876 -2.94589e-17)
(-0.355292 -0.346017 3.11917e-16)
(0.2065 -1.01454 -1.10487e-15)
(-1.60487 -0.241719 0)
(-0.136831 -0.220382 -8.19839e-16)
(-1.19336 1.06225 -5.93757e-19)
(0.0886297 0.606356 -2.60797e-18)
(-0.00229424 -0.287628 1.74581e-16)
(-0.664707 0.244967 9.31114e-17)
(-0.563805 0.245115 -1.00293e-16)
(-0.450296 0.0445451 1.14859e-16)
(-0.0698372 0.680674 0)
(0.329758 -0.0184581 0)
(2.65561 0.0507512 -2.67077e-16)
(0.818912 -0.136436 1.44394e-16)
(2.33394 0.101491 -3.83602e-16)
(8.96633 -0.2789 3.2283e-17)
(0.577884 -0.00897887 2.02833e-16)
(0.371465 -0.0653819 0)
(6.40678 0.956936 4.66965e-17)
(-0.0662187 1.03274 1.09566e-20)
(0.114692 -1.92059 1.73334e-16)
(-0.103756 0.437017 -4.18082e-17)
(-0.246996 5.79759 -6.12564e-17)
(-0.0771563 7.06951 2.29162e-17)
(0.125726 7.05992 0)
(0.854832 0.473698 1.76574e-16)
(-0.961313 0.313833 2.81395e-16)
(5.04784 -0.0315454 2.03626e-17)
(3.99988 -0.0644649 7.18e-17)
(0.127957 -0.318843 0)
(0.3086 3.88911 1.70492e-16)
(-2.4304 0.182114 0)
(-0.152147 6.31726 3.86672e-17)
(-0.0491004 7.05556 -6.35648e-17)
(-0.145182 7.27265 3.04063e-17)
(-0.0227446 -0.0310741 -1.60181e-17)
(0.326976 -0.0147772 -4.39227e-17)
(-1.44396 0.0624345 0)
(-1.40735 0.0481178 0)
(-0.27069 -0.111058 -2.11145e-16)
(-0.276277 -0.0120297 -2.03729e-16)
(0.042012 0.0105575 -1.64465e-17)
(0.00888114 -0.710175 5.69563e-17)
(3.61534 0.672835 3.22747e-16)
(9.99638 0.165804 1.29801e-17)
(0.260398 2.36069 -2.85387e-16)
(0.979945 -3.03887 -2.12228e-17)
(0.220429 -0.0736824 3.45885e-16)
(0.223528 -0.0266983 0)
(0.26808 -0.400023 1.73199e-16)
(0.675762 -0.540643 -1.0105e-17)
(-1.66354 0.060839 -9.46988e-17)
(-1.57554 -0.00104914 1.9726e-16)
(-0.127051 -0.204391 2.71076e-16)
(9.94551 0.0983755 -2.53261e-16)
(-0.170283 -0.32147 0)
(0.20621 -0.36327 8.1821e-17)
(1.69256 -0.198409 -2.12128e-18)
(-0.0471397 7.6778 -5.78615e-17)
(0.0113201 6.67426 9.21615e-22)
(-0.933668 -0.137202 0)
(-0.389029 0.28196 2.48832e-16)
(1.31491 0.398854 -8.13354e-17)
(0.0536683 -0.0602365 -2.4647e-16)
(0.0686256 -0.120119 -8.25782e-17)
(-2.75819 1.32142 4.65982e-17)
(0.246476 -1.19908 -5.0379e-16)
(-0.110713 6.53481 -2.71329e-17)
(0.936121 -0.115411 -5.25565e-16)
(0.359675 5.24355 -2.23042e-18)
(-1.56942 -0.497827 -2.23193e-16)
(-0.0243093 6.52206 -3.224e-17)
(0.942365 6.49089 8.87221e-17)
(0.53558 -1.60704 -1.01911e-16)
(-0.233108 -0.0403531 -2.63617e-16)
(-0.270472 0.389891 1.90423e-16)
(0.472708 -0.121279 -3.96416e-16)
(8.47419 0.577508 9.32181e-17)
(-0.471876 -0.0482246 -2.88681e-16)
(9.98124 0.333574 -2.1715e-18)
(2.56175 3.25908 5.65267e-17)
(0.541673 0.0703036 -4.49097e-16)
(0.770929 2.21831 -5.02934e-17)
(0.624014 -0.0200053 3.92692e-17)
(6.2315 1.10257 -4.72799e-18)
(1.53333 0.706141 -6.97055e-17)
(0.475871 -0.194579 3.27393e-17)
(0.203546 0.0642244 -2.28043e-16)
(-1.01238 -1.04694 1.14432e-15)
(8.34973 2.20572 -2.62891e-18)
(-0.0624819 2.59016 1.60918e-16)
(1.73382 0.11912 1.76667e-16)
(-0.174589 -0.144589 6.11608e-17)
(-1.02626 0.573449 2.7768e-16)
(0.580574 -1.5018 0)
(0.636898 -0.0351647 -2.06802e-16)
(0.533776 -0.160925 1.41279e-17)
(0.0117498 0.0389339 1.84251e-16)
(3.39429 -0.124819 -5.28415e-20)
(9.79461 0.0321125 0)
(1.37494 -0.068742 2.2219e-18)
(0.934378 -0.013584 -5.05786e-17)
(0.104272 -1.3335 -1.00025e-19)
(0.0847384 -0.272561 2.30883e-16)
(0.0839573 4.74819 -1.38741e-16)
(-0.105993 6.24105 4.18866e-16)
(1.51707 0.931209 7.33125e-18)
(-0.081677 0.875443 -6.76597e-21)
(0.407516 -0.241886 2.55744e-16)
(0.225997 -0.0258247 0)
(0.180179 -0.048117 0)
(-0.991647 -0.0875583 -3.23711e-17)
(6.85275 0.821045 -1.37764e-19)
(3.17819 2.01289 2.01858e-17)
(8.56459 1.27289 -5.67277e-18)
(10.3747 0.535235 3.29027e-18)
(0.8132 0.133187 0)
(0.219992 2.87489 0)
(-0.363827 0.156708 2.50965e-16)
(0.402534 -1.39085 2.00088e-16)
(8.90653 0.492704 -4.49923e-16)
(1.57869 0.698077 0)
(0.684714 0.146904 0)
(-2.08922 0.134711 2.08443e-16)
(0.495958 -0.204657 1.74225e-18)
(0.171578 -0.26633 -1.81637e-16)
(0.820531 -0.11668 1.94532e-16)
(-0.103361 -0.13073 -1.00026e-16)
(0.0286043 6.75438 -2.96281e-17)
(-0.197747 7.5365 -1.40639e-17)
(0.779057 -0.12238 -2.55568e-16)
(9.89988 0.166993 -6.71177e-17)
(8.98738 0.0397551 3.5891e-18)
(0.161805 -1.41605 1.38818e-16)
(-0.187679 0.377381 -4.13023e-17)
(2.13369 2.16723 -9.57221e-18)
(-0.448536 8.52753 -1.30823e-16)
(-0.200938 0.0085649 1.08619e-15)
(-0.529524 -0.532437 6.71129e-18)
(0.999675 0.525053 0)
(5.46524 3.7257 6.68798e-17)
(-0.106421 0.0179742 1.34664e-16)
(0.364415 -1.6743 -1.73023e-19)
(-0.806484 2.10131 1.82628e-16)
(-0.547708 -0.0604601 0)
(10.1825 0.154297 0)
(0.0877592 0.0179397 -7.32023e-17)
(0.341168 -0.075045 0)
(-0.717593 0.431593 8.44557e-17)
(10.0249 0.0655265 -1.05787e-16)
(4.76731 -0.0328191 7.64477e-17)
(-0.456692 -0.00606624 1.27148e-16)
(6.94873 0.0231847 9.62559e-17)
(0.0466032 -0.672257 8.8128e-17)
(-0.722894 -2.58317 1.84631e-16)
(0.0918301 0.0198462 2.68997e-16)
(0.633114 6.9112 -1.02627e-16)
(1.28669 -0.119874 -7.4016e-17)
(-0.564445 -0.13207 0)
(9.70672 0.827863 0)
(0.417427 3.04348 -2.41227e-16)
(-0.414331 -0.0688612 -2.07744e-16)
(-0.506431 -1.57459 5.88885e-16)
(0.574518 5.27257 -2.58096e-17)
(0.0696888 0.0134503 0)
(0.0585483 0.0122462 -5.06381e-16)
(1.12996 1.36741 -1.51925e-16)
(-0.760928 -0.980436 1.39258e-16)
(0.427479 -0.124355 0)
(-0.282936 2.25432 0)
(0.320675 -1.80782 0)
(-0.114392 0.104667 -2.07561e-16)
(0.545104 1.92407 6.73053e-18)
(9.9747 2.89288 -2.40679e-18)
(0.128132 -0.0226774 0)
(5.33226 1.29042 0)
(0.336077 0.146484 -1.08975e-16)
(0.817276 7.00738 7.30218e-17)
(1.5717 0.108473 0)
(-0.735574 -0.174892 4.05595e-16)
(0.312841 -0.0596148 -1.45301e-20)
(-0.248612 -0.605557 -1.65769e-16)
(0.784254 -0.0479735 0)
(8.02176 0.596903 -6.40254e-17)
(-1.60626 0.694756 -1.54686e-16)
(0.569194 3.04241 7.38006e-17)
(0.0653252 4.20373 0)
(0.89626 3.84651 -1.05028e-17)
(9.92326 0.259725 -2.02283e-17)
(2.6904 2.61037 -3.659e-18)
(0.198865 5.35231 -1.29386e-16)
(-0.461925 2.01834 -2.49001e-16)
(0.246828 3.6581 -4.35728e-16)
(-0.171634 6.81285 5.20927e-19)
(0.11618 6.75452 4.67257e-17)
(2.59305 2.61908 0)
(10.4495 -0.224724 2.12891e-17)
(-2.67346 -0.228609 1.39526e-16)
(8.86366 0.823246 -1.18683e-16)
(-0.283277 0.0477021 1.8463e-16)
(-0.0924754 6.59285 0)
(-0.0534214 6.96327 -5.14766e-17)
(-0.206732 4.8913 1.87607e-16)
(0.713201 0.0831993 -7.5789e-18)
(-0.511198 -1.01424 4.98289e-17)
(0.414372 0.570576 6.93704e-18)
(-0.142589 6.57975 -2.85415e-17)
(0.0554397 6.59636 -2.96835e-17)
(2.03023 8.82145 5.63785e-17)
(0.138075 -0.0303475 2.22386e-17)
(10.1257 0.169072 0)
(-0.205435 -0.106355 5.37988e-16)
(0.448438 0.028063 -1.12907e-16)
(0.672387 0.0325237 -3.50987e-16)
(7.48817 0.586286 1.68992e-17)
(0.0180184 6.67614 -4.58966e-17)
(-0.104674 6.74846 1.92591e-16)
(0.863878 -0.166047 -8.05283e-20)
(-0.408298 0.0777043 -1.21896e-16)
(1.0062 6.70712 0)
(-0.0650732 0.0312734 0)
(-0.0700409 -0.161553 -2.12969e-17)
(-0.102544 1.90858 0)
(3.10574 4.07396 -5.37922e-17)
(4.46127 2.97504 0)
(0.949727 5.74397 -1.55264e-16)
(-0.124611 0.317501 7.68086e-17)
(1.06766 0.00134724 3.69428e-16)
(0.965057 -0.106176 4.81656e-17)
(7.17036 0.66583 -1.51211e-17)
(3.87738 -0.00655451 -2.35465e-16)
(7.67211 0.138906 -2.9233e-16)
(2.39392 0.332776 0)
(0.197588 0.550392 -8.98587e-17)
(5.10295 2.93158 1.62303e-16)
(3.60388 1.65063 -7.43086e-17)
(0.0522012 0.025487 -3.74385e-16)
(0.268075 0.64052 6.41283e-16)
(-0.599493 -0.655933 3.23846e-17)
(-0.218205 0.622159 -4.06591e-16)
(1.09673 1.89266 4.96121e-22)
(0.933217 1.13882 -2.45672e-16)
(-0.483055 0.00151089 1.95483e-16)
(0.21405 -0.666508 1.01553e-16)
(-0.117055 -0.140796 0)
(0.0810475 0.251028 -8.19611e-17)
(0.0896082 -0.989232 -7.57853e-17)
(-0.145312 0.38363 3.3387e-16)
(0.608874 -0.0536533 -1.21172e-16)
(1.29195 8.85191 -3.59875e-17)
(10.6474 0.424453 -7.33495e-17)
(0.230202 -0.0663767 1.23926e-16)
(-0.0215215 2.59004 -4.91568e-17)
(0.469507 -0.037289 -1.46923e-16)
(8.64732 0.16283 3.5869e-16)
(3.95587 -0.13315 -2.43353e-17)
(-0.0126752 6.91447 3.41801e-18)
(4.21664 -0.153396 2.50224e-16)
(-0.0777035 4.81317 -1.78979e-16)
(0.0202023 5.73569 8.74786e-17)
(7.22804 0.309985 0)
(0.0365188 0.168495 -1.29151e-16)
(-0.0264632 -0.00300691 3.09561e-17)
(-1.40558 -0.862641 0)
(1.55492 1.10991 -1.59652e-16)
(0.0707713 0.0635741 7.02408e-17)
(0.934472 0.240898 2.85244e-16)
(0.965056 0.141128 2.89262e-16)
(3.81476 0.180966 -4.19161e-17)
(8.6789 0.500773 -1.11587e-18)
(1.21832 1.59336 -1.59617e-16)
(-1.31725 0.12737 2.90327e-16)
(-1.09731 1.32494 -2.8272e-16)
(0.440236 -0.231511 1.28805e-16)
(0.635789 -0.03405 0)
(0.495255 -1.40694 -1.0096e-17)
(-2.01954 1.1456 -2.8517e-16)
(-0.0156608 -0.254094 -2.14434e-20)
(-0.0192614 5.95855 2.75676e-17)
(0.188734 5.51772 -2.86248e-18)
(-0.131547 5.20145 -1.12927e-16)
(0.203134 6.03593 3.08446e-17)
(2.00359 4.58019 -1.43152e-16)
(7.10547 0.338838 7.15819e-17)
(-0.00685812 0.712198 0)
(10.1946 0.98129 0)
(-1.44986 -0.0669642 3.87024e-16)
(-1.06447 0.0602674 5.50289e-16)
(0.010128 6.65743 1.40437e-16)
(-0.0515352 6.87158 -1.29472e-16)
(1.18488 -0.234178 1.24126e-16)
(1.0749 5.89674 -4.10893e-17)
(1.08813 -0.303779 4.80524e-17)
(-0.399961 -0.295586 2.4517e-17)
(0.380659 -0.0943745 1.66226e-19)
(0.32315 0.0341408 -7.11743e-17)
(-0.4952 -0.100887 -9.86398e-18)
(0.41641 2.19787 -5.16172e-17)
(3.44207 -0.0737643 -4.10702e-16)
(0.583075 4.11628 6.69222e-18)
(0.124155 -0.0307332 1.76565e-16)
(0.324827 -0.00187669 0)
(0.684772 -0.139767 0)
(0.104005 3.0977 0)
(0.7717 6.15034 2.3038e-16)
(1.08719 8.7308 2.39144e-16)
(-0.0947455 7.008 2.23733e-16)
(0.436198 0.110846 4.0878e-17)
(5.8449 3.26038 -3.95949e-17)
(0.318364 0.105254 0)
(-0.191721 -0.197977 1.02454e-16)
(0.571358 -0.910954 3.16628e-17)
(10.5339 0.0573222 -7.63745e-18)
(0.0163498 0.0306523 -1.18375e-16)
(-1.52669 0.250983 3.27569e-18)
(-0.610212 -0.0510496 -1.66435e-16)
(8.95189 0.378496 -2.05613e-17)
(0.633675 1.75289 0)
(3.45345 1.19102 -3.55445e-16)
(3.39441 0.848435 2.10847e-16)
(0.578753 -0.118926 0)
(0.0693727 0.131608 7.94135e-17)
(1.30342 2.2973 -2.60501e-16)
(8.63171 0.157742 0)
(1.68858 5.84943 -4.67679e-16)
(-0.0403968 6.23279 -1.26563e-16)
(0.359904 3.19043 0)
(1.16135 0.554079 0)
(11.3879 0.283167 4.44077e-17)
(10.3603 0.357187 3.42785e-17)
(8.77385 1.22905 1.85587e-18)
(5.34459 2.16173 -4.96861e-21)
(0.323594 2.26428 0)
(1.36228 0.606151 2.05883e-16)
(2.0758 7.30991 -2.97184e-17)
(4.55021 -0.0610672 0)
(0.179017 0.00565734 -4.80489e-16)
(3.76549 2.13716 1.9634e-17)
(0.0856829 0.783103 -1.32571e-16)
(9.35513 0.929972 -5.2725e-17)
(10.8686 0.0437016 7.95425e-17)
(1.66573 1.84263 -1.85729e-16)
(9.92131 0.41994 -1.58244e-17)
(-0.000223141 6.81756 1.55082e-16)
(0.727229 9.01819 4.12724e-17)
(0.582178 6.86727 -1.03492e-16)
(6.74494 3.59995 0)
(0.407437 0.132852 1.64457e-16)
(-0.106288 -0.765681 -1.94273e-16)
(2.08983 0.0870609 2.76756e-17)
(-0.0470981 0.0807945 1.38614e-16)
(0.0416778 7.05744 5.31639e-21)
(-0.0578051 7.36333 2.24387e-19)
(0.549304 5.99437 7.49203e-17)
(-0.0209223 0.181327 0)
(-0.108297 -0.145568 0)
(-0.521525 0.0163349 1.08179e-16)
(0.225983 0.1235 1.81678e-16)
(-0.0782637 5.33959 -1.07532e-16)
(-0.0384326 5.99712 -3.45457e-18)
(-0.240582 2.37511 0)
(-0.148478 0.1238 -4.92871e-17)
(10.0907 0.110643 8.74397e-17)
(-0.820471 -0.648306 0)
(1.61501 1.28632 -3.61295e-16)
(0.228294 0.00960149 7.96408e-17)
(0.885416 -0.116291 2.52679e-16)
(0.0122257 6.78961 6.26524e-17)
(-0.150117 7.171 1.41408e-16)
(9.60124 0.934683 0)
(0.248558 7.33404 -3.64426e-17)
(-0.0192677 6.78163 -3.16792e-17)
(9.49958 1.15757 -9.7346e-17)
(2.02391 0.0182283 -4.52121e-20)
(7.28135 1.6941 6.27439e-18)
(-0.156058 6.56324 2.41562e-19)
(-0.0205046 6.05279 0)
(-0.00106633 5.52702 2.95398e-18)
(-0.134979 5.03938 -9.88357e-17)
(0.355565 5.88215 -3.793e-17)
(3.59799 4.13079 1.43955e-16)
(0.228733 1.59651 3.89152e-17)
(-0.11402 6.92385 2.10068e-16)
(0.00953317 7.0871 0)
(-0.273783 5.42454 -1.42057e-16)
(0.797873 1.38142 2.70876e-17)
(0.0502312 0.109832 -1.60536e-16)
(0.402455 -0.0583594 9.3222e-17)
(0.0227452 0.130207 4.80802e-18)
(-0.43982 -0.426168 1.31272e-16)
(0.510269 -0.0171306 0)
(0.991893 3.45971 1.14201e-17)
(-0.183681 -1.82801 -1.96921e-17)
(0.550766 0.011175 -1.2561e-16)
(8.65995 0.823301 -7.45645e-19)
(-0.0816055 0.839687 -4.52081e-17)
(0.383226 -1.83954 -1.95464e-16)
(-0.21088 0.1107 -2.26508e-16)
(-0.134175 6.37804 -2.12076e-16)
(0.162749 6.63336 0)
(0.571531 0.151854 2.49259e-16)
(-0.14781 6.45167 9.11058e-17)
(0.153938 6.54426 2.33299e-17)
(-0.321847 -0.205612 -7.62615e-17)
(3.52976 3.60696 -1.51677e-16)
(-0.850501 -1.36907 4.93394e-16)
(-0.552802 -1.03719 5.94833e-16)
(0.773568 0.651958 -2.72351e-16)
(0.22172 6.18561 2.36382e-16)
(0.0709965 -0.0794368 -4.51124e-16)
(-0.885418 -0.407553 -1.9234e-16)
(0.0833595 -1.13767 -1.21137e-16)
(1.11898 9.10344 0)
(9.85248 0.104933 0)
(0.0137297 0.0741414 -3.02311e-16)
(0.424544 -0.445755 2.13616e-16)
(-0.128067 0.254065 -7.18762e-17)
(-0.716336 -0.576139 0)
(0.341056 0.15498 1.30051e-16)
(0.519386 -0.0238096 -3.37082e-20)
(0.69198 0.354912 -6.26976e-16)
(4.09297 0.0847828 2.26073e-16)
(1.0069 5.02552 1.14826e-16)
(-0.126185 6.65493 -2.82918e-16)
(1.37243 -0.280759 4.00344e-16)
(1.1902 1.17448 -1.50969e-16)
(9.73557 0.917412 -1.36576e-17)
(0.559324 3.28731 2.07142e-16)
(0.464351 -0.24804 1.91405e-16)
(0.651079 0.0712331 0)
(-0.92853 0.778544 5.50072e-17)
(2.08478 1.35473 -7.41584e-16)
(-0.12904 0.299815 -2.69432e-17)
(0.235491 -2.06458 2.40137e-16)
(0.0992953 2.30838 2.70501e-17)
(8.55609 0.560057 -1.16454e-16)
(9.82891 0.268098 -1.97929e-19)
(-0.459393 -0.0381474 1.89688e-16)
(11.0619 0.0499174 0)
(0.340486 0.11832 -5.57954e-18)
(0.488324 -0.181498 3.14129e-18)
(0.496524 0.0449647 -2.0151e-17)
(-0.0153514 6.90612 3.96375e-17)
(-0.0998319 6.532 3.98323e-17)
(0.0186515 5.03661 1.78337e-17)
(10.5176 0.0383644 1.44861e-17)
(0.100528 -0.0214274 -1.61763e-20)
(-0.329814 7.53414 -4.64082e-17)
(0.485154 -0.152075 -5.24492e-21)
(-0.579788 1.25739 0)
(9.00515 1.72982 -4.407e-18)
(0.848465 -0.843095 0)
(0.0505849 -0.112321 1.05086e-16)
(0.726416 0.0458615 9.53382e-17)
(-0.00315111 0.526668 5.43467e-18)
(0.613053 0.269793 2.48032e-16)
(-1.18674 -0.164999 2.90839e-16)
(9.34743 0.635196 -1.79671e-17)
(-0.294808 -0.107185 2.68883e-16)
(1.05145 -0.306622 3.2241e-16)
(9.52414 1.0913 9.97314e-17)
(9.74308 0.309207 4.15834e-17)
(5.95217 2.70361 2.50887e-17)
(0.0525608 6.56313 -4.62117e-17)
(-0.0523727 6.54144 2.4615e-17)
(0.0671444 2.64827 1.24438e-16)
(0.187874 1.80802 0)
(4.15846 0.724488 4.7477e-17)
(5.69006 3.09078 8.64431e-17)
(9.04717 -0.16829 -2.04064e-17)
(0.520369 0.858633 1.10934e-16)
(-0.049472 -0.135037 2.61974e-16)
(0.0500914 0.0283974 0)
(8.85868 1.71527 0)
(0.472591 2.07929 0)
(1.13601 1.99774 2.89285e-16)
(0.370604 -0.123779 1.10767e-16)
(2.3066 4.35645 2.11501e-16)
(0.00793112 5.47561 2.79997e-17)
(1.32093 7.56544 -5.64835e-17)
(0.142836 0.199337 0)
(0.133927 -0.0245426 1.0079e-16)
(-0.0739294 5.79861 -1.26665e-16)
(-1.17684 -0.145936 -6.38426e-16)
(11.2528 0.115969 9.70665e-17)
(5.74949 1.18432 0)
(0.0294066 -1.90713 1.61321e-16)
(1.09503 5.72685 0)
(0.36282 0.0709419 1.78649e-16)
(0.137409 -0.0300315 -2.59497e-17)
(0.907871 9.85098 6.26813e-17)
(9.89466 1.09806 -1.36004e-17)
(9.85779 0.693547 1.03434e-16)
(-1.13175 0.0888273 0)
(0.882866 2.62695 -5.45083e-17)
(-0.432771 -0.0272367 0)
(8.57277 0.333225 0)
(0.611067 0.300234 -1.39742e-16)
(0.0981045 -0.00120326 2.54672e-17)
(-2.76572 4.57798 -1.32548e-16)
(2.88734 0.8042 -1.24541e-16)
(0.677318 2.67762 1.40513e-16)
(10.2771 0.10604 -2.04553e-20)
(5.95381 3.55482 -7.84988e-17)
(1.30751 -1.07167 -2.73739e-19)
(-0.0149601 6.36342 5.65925e-17)
(-0.0499313 6.15905 -5.37144e-17)
(0.619367 2.441 -1.13543e-16)
(1.21044 6.05946 -2.49793e-16)
(1.38745 1.47529 -1.14068e-17)
(0.101037 -1.20354 -3.41934e-16)
(0.0271338 -0.191126 -2.3781e-16)
(0.605493 0.8764 5.93953e-17)
(0.525865 -0.0561687 2.18933e-16)
(0.309488 -0.175159 -3.27541e-16)
(-0.107868 0.421457 -5.82405e-16)
(0.114403 -1.59386 -3.45511e-16)
(6.93585 4.19901 3.33191e-18)
(0.295084 0.624055 6.14379e-16)
(10.0694 0.0430417 -6.39507e-17)
(0.447528 0.091218 0)
(-0.282403 2.51434 4.28772e-20)
(3.65973 -0.889381 -1.09872e-16)
(-0.0668839 2.37898 0)
(10.0679 0.420922 4.01581e-17)
(-0.489017 0.0460094 3.10616e-16)
(0.374276 0.00799917 -2.79866e-16)
(8.97843 1.78968 0)
(-0.00396974 6.83439 2.63953e-20)
(-0.252682 7.67004 0)
(10.0261 0.0862853 0)
(0.403674 0.217283 -5.32076e-17)
(9.40121 1.25418 -5.31261e-17)
(8.94094 3.95444 -1.84679e-16)
(1.08845 7.00588 2.30375e-17)
(7.30972 2.12262 -1.07025e-16)
(-0.0335285 3.86015 -7.36785e-17)
(0.00417431 4.12905 2.09181e-20)
(-0.0142394 4.4119 -7.27345e-17)
(-0.901689 -1.03554 0)
(-0.0913298 2.43483 1.1362e-16)
(-0.0021241 -0.568598 0)
(0.153777 0.289825 0)
(0.0337851 0.155194 0)
(-0.152962 0.353323 -2.14097e-16)
(0.309091 -0.19649 0)
(-0.0649625 0.27127 1.43695e-16)
(2.85924 2.65229 -2.80285e-16)
(0.18671 3.43135 0)
(-0.298599 5.09543 1.5897e-16)
(-0.195695 6.42738 -2.45248e-17)
(-0.00967683 6.94336 8.2304e-17)
(-0.132434 7.2363 -3.87571e-17)
(0.351635 1.8964 2.20579e-16)
(9.36429 1.03549 -2.75018e-17)
(-0.131404 0.379607 2.27975e-17)
(0.187248 -2.04025 -6.78453e-17)
(0.776069 0.577241 0)
(0.618515 -0.128139 6.23153e-20)
(4.96999 1.75307 0)
(0.54907 -0.063406 1.8403e-21)
(3.73294 0.131805 -4.6381e-16)
(10.0447 0.052546 3.51549e-17)
(-0.285372 7.6424 1.14322e-16)
(-2.38093 2.45689 -2.98561e-16)
(0.0953118 -0.200084 0)
(0.18508 -1.33158 8.95033e-16)
(5.127 2.52565 -2.99498e-17)