/*--------------------------------*- C++ -*----------------------------------*\
| =========                 |                                                 |
| \\      /  F ield         | OpenFOAM: The Open Source CFD Toolbox           |
|  \\    /   O peration     | Version:  v1912                                 |
|   \\  /    A nd           | Website:  www.openfoam.com                      |
|    \\/     M anipulation  |                                                 |
\*---------------------------------------------------------------------------*/
FoamFile
{
    version     2.0;
    format      ascii;
    class       volScalarField;
    location    "0.88";
    object      epsilon;
}
// * * * * * * * * * * * * * * * * * * * * * * * * * * * * * * * * * * * * * //

dimensions      [0 2 -3 0 0 0 0];


internalField   nonuniform List<scalar> 
1431
(
0.348338
4.13558
93.762
60.919
0.736755
28.0608
1.62437
4.42708
94.6064
24.2488
12.7644
1.64238
0.659243
59.301
51.8131
27.333
59.6069
2.01896
3.70238
11.2513
0.541391
12.794
32.8344
65.9001
50.5888
10.0476
54.6061
53.4843
22.1052
1.0516
50.0113
12.2526
31.0618
2.43026
1.70601
45.8951
9.316
10.2609
9.87039
9.82274
147.577
7.90607
1.55521
1.28491
33.1884
0.739822
36.6952
4.95255
18.409
16.3528
1.10995
24.8457
70.1475
2.04812
1.28731
4.8299
27.7934
53.8999
54.0171
0.751042
41.833
4.04632
48.7058
9.82768
35.1115
1.96044
77.5017
29.54
2.04037
12.5098
1.60413
1.24375
1.86933
22.0284
9.8997
28.5792
0.364932
60.1413
5.76453
79.5785
8.1181
1.2239
0.49002
53.9971
87.3661
0.575738
0.673831
15.3007
73.7041
7.66687
3.47807
37.8684
0.657751
10.157
1.51406
0.404817
9.38602
8.69216
0.723245
31.1309
2.53037
5.54727
6.54738
0.915507
21.7477
0.942724
6.61179
160.235
65.0022
0.503491
95.8783
2.98519
5.5008
4.66984
19.1786
0.960828
1.84786
19.4678
83.36
26.9923
8.93556
63.4646
27.5985
54.7349
9.33481
0.658641
95.734
2.03853
0.408832
26.4134
3.72435
126.805
48.337
5.93756
0.626431
62.518
2.347
2.89899
1.66132
138.685
40.1829
0.881017
9.82939
18.8983
21.3414
16.2202
8.75523
159.443
3.42631
14.7986
28.2449
38.4941
1.67592
0.321637
3.4094
1.48287
8.98982
4.39313
5.09701
8.53633
1.83823
8.23866
3.86124
11.431
0.819097
132.271
0.435246
9.62184
1.07752
7.10253
33.8035
18.1807
49.1724
17.4407
9.33118
0.605359
3.36695
25.4769
1.21528
6.03404
10.7435
31.7874
5.11299
6.01706
14.1405
16.7871
6.3689
49.4463
9.52496
10.0886
1.09473
74.5529
0.353204
7.36393
100.873
8.09861
6.29896
7.35832
2.81152
1.36433
0.685558
72.7231
12.3747
163.783
6.95328
63.9893
0.489873
10.0443
8.8754
22.9947
7.96668
5.35685
76.3314
9.71925
26.4673
32.5649
4.76606
0.950209
11.2024
9.99673
9.23154
63.4977
21.5093
145.165
11.0606
29.006
26.6574
5.49966
18.8248
50.4905
0.736618
39.356
11.0306
4.55901
4.40867
4.82089
10.0822
0.746857
8.20324
0.790368
10.364
10.2188
76.6139
65.6932
1.73037
2.33772
10.3682
1.51625
2.32182
27.3246
8.9095
89.1235
20.2503
19.5842
45.1944
36.1307
0.720125
0.910883
30.6655
33.8318
38.02
5.0907
0.811435
45.558
4.501
18.188
28.6971
7.54277
16.2726
52.0085
6.92953
23.1107
8.74638
8.66398
40.2853
8.65777
6.22946
1.39266
2.03697
28.085
91.7267
0.696042
4.44864
5.06188
31.6594
46.1236
0.642467
4.35323
23.0725
9.25138
17.7897
11.4909
4.50083
1.0395
10.4185
5.55515
0.33524
7.50868
1.3066
7.27591
11.1117
27.1244
0.285635
6.42196
3.83242
1.77873
8.61753
34.7462
32.2155
0.301659
9.98755
13.0841
40.3276
0.768135
2.77503
2.07243
31.3803
0.880338
4.428
1.48318
1.42954
0.807454
41.9474
0.917048
20.9418
2.14889
7.39506
2.46622
79.1915
9.35922
10.9677
0.31007
0.575997
1.08631
8.84595
60.2477
1.25949
0.369574
1.26774
0.350989
0.751261
7.6055
2.93184
18.3787
46.0719
0.59514
11.3843
0.234712
0.19244
0.740413
1.315
2.43528
1.64711
0.851655
1.04962
1.86093
1.90405
0.769868
1.10933
1.29918
0.711503
0.996731
0.785468
0.431367
0.251321
0.316266
0.730187
1.23992
18.004
25.3738
3.26378
0.644177
1.25176
13.2628
0.979988
58.3982
8.28792
11.4953
13.9057
1.25622
2.84465
0.786464
0.477393
1.74674
1.13649
0.748699
1.20026
0.93592
0.963145
0.278792
0.27078
63.783
21.4439
13.9162
1.788
3.65636
0.275207
10.7395
6.34719
9.12044
0.874855
6.73738
10.2527
1.29017
8.22134
12.2614
0.879023
7.82738
0.319527
14.492
41.3792
11.5097
2.28996
62.5468
20.0083
42.6775
6.87905
63.6347
0.645016
0.271616
0.882005
1.48018
6.1049
1.59294
1.27334
8.38582
2.23728
14.13
43.3662
9.93515
53.5513
1.75984
7.66259
4.22097
0.700723
10.6352
1.64739
5.07804
1.13698
2.76987
1.47512
131.592
2.99239
2.24874
1.06418
3.56837
8.20727
1.39082
1.56432
10.2553
5.61263
4.20284
7.48206
6.28111
1.68783
5.74951
3.71834
3.09318
4.73031
0.730308
50.2885
4.00889
4.6081
12.9059
0.748619
0.754049
0.283192
80.2899
4.2953
0.688682
79.2491
1.45913
6.08455
45.6698
6.75432
0.669582
62.4516
57.0953
79.4622
1.53317
1.49187
1.30873
48.08
4.82055
10.63
10.678
16.2945
6.0797
2.35257
0.644443
0.538422
2.2382
0.551088
62.8708
1.43031
1.18334
94.1933
1.13916
11.3717
1.07437
23.6233
127.705
15.7467
13.9851
7.69364
1.04734
0.551841
6.10465
1.98481
98.4786
80.3407
1.18939
6.27578
13.9391
11.3192
2.18052
69.82
111.277
1.68162
0.918991
1.06563
1.03679
0.923235
0.383147
1.51082
1.94987
3.61164
2.02656
0.893883
2.22074
10.9716
6.78829
1.15393
0.872379
3.00588
1.86639
33.6234
2.30183
3.51164
41.7103
15.6408
53.5932
6.14716
18.2355
2.34777
9.56611
5.88283
5.34176
4.17088
0.45232
1.07471
0.605531
31.4542
2.18816
0.603216
6.22972
50.7588
9.08357
32.2347
4.4405
4.96848
2.13098
72.5246
67.9796
39.1798
0.680258
1.94949
4.95759
41.9486
7.20228
0.488613
10.3195
47.3017
9.89032
60.9309
3.59858
1.56932
0.958921
3.93267
18.0263
1.07979
5.62746
5.03374
12.6395
2.58998
2.40718
3.94686
11.3885
1.15479
18.0772
23.3919
48.6362
13.7242
10.1149
8.91473
2.41064
0.204918
1.24062
5.10945
0.342216
4.96846
3.37858
0.429154
6.55919
16.9063
6.07097
8.18872
0.372138
16.1732
81.2093
51.9725
3.56425
0.414548
16.9207
67.0039
5.10563
65.8781
37.0275
32.1956
4.0072
0.325946
1.24653
2.21972
0.272412
0.972329
9.11491
0.266894
0.244331
2.23281
5.91466
17.8405
2.1217
0.522003
6.35235
1.05636
2.82324
0.337608
4.83302
24.5068
2.42727
6.92099
29.1618
6.8185
4.87078
1.03636
32.226
6.80317
76.2317
21.6035
2.33009
1.98373
1.52968
8.07725
30.7231
72.1232
2.54039
7.23534
11.8066
1.41777
3.76708
17.2868
0.552439
2.99258
3.68255
8.69476
0.455083
13.6836
9.29241
3.79282
29.0492
0.292126
7.65068
2.60962
23.9231
11.533
11.7309
25.0064
20.2386
0.236148
21.0333
36.3334
0.919289
10.2049
2.62062
0.988561
1.68845
1.48171
28.8258
14.6963
0.536218
65.0752
23.3724
16.6316
2.39189
2.00265
0.284409
0.61883
0.32021
8.10963
5.14298
17.1042
0.31488
4.17507
0.253284
0.499518
29.5113
27.9864
8.61759
13.9286
167.637
0.926964
0.208423
0.447529
9.30399
27.9368
25.1494
5.37852
107.213
5.51553
1.35169
23.8914
9.61753
5.32774
72.5451
0.249271
26.2661
12.1511
47.3374
29.9211
0.695181
1.28637
0.540461
28.384
28.2135
60.6936
4.24339
3.19164
1.1973
7.60068
3.10856
25.1216
61.2592
13.0313
1.02995
40.1788
22.218
5.34839
20.4098
42.3144
0.259394
52.4584
4.33908
28.7441
31.4516
4.32623
3.34318
13.0553
29.1365
18.2831
111.79
54.412
47.3903
34.0916
34.4394
9.87008
38.3329
6.73652
39.3374
42.7485
29.8472
1.10631
65.0958
0.222511
0.317629
7.83806
37.7743
0.664728
38.9366
1.95954
0.272185
0.711014
2.09481
33.2365
43.0475
0.839794
148.986
0.222707
0.480524
3.77218
132.64
5.92929
4.30829
81.5925
35.9974
13.9624
10.3416
0.278798
0.253718
65.1388
5.87676
1.99241
37.1105
6.06847
0.245881
0.836717
1.27626
40.3308
1.67665
43.8519
0.340379
8.55741
6.10672
54.216
0.343832
79.0533
31.1974
37.1451
40.4933
46.615
35.1068
27.8209
31.8702
35.3499
3.15084
3.89474
17.1865
1.89227
43.2286
0.234998
0.430005
1.64681
0.289551
0.75394
0.763096
0.468173
28.2356
1.29475
30.4785
0.689363
1.42385
4.36645
8.39148
8.54675
34.6959
92.6945
6.93671
0.609946
2.26894
2.35243
6.17816
4.79056
3.49582
1.50131
1.00526
40.3029
3.06131
21.0959
59.3741
11.0457
12.3168
5.66185
4.55686
0.363297
1.6535
1.08162
0.34651
5.20563
4.923
0.596909
0.344805
11.6159
37.7779
1.78097
6.48089
0.374699
7.13494
1.67934
1.40751
1.22962
6.78325
0.660069
0.261799
2.91507
0.405026
10.3807
0.353629
2.8595
50.1867
41.1743
10.8534
20.5055
79.6065
19.847
7.93512
7.13491
58.5073
0.286447
0.711015
1.056
0.375309
0.884395
0.932541
2.81287
2.11699
59.6787
53.0988
25.5831
6.35272
0.324989
2.48327
2.63869
5.55767
93.1164
1.34479
3.19373
16.1138
13.0176
13.2456
9.49454
0.413938
1.14738
5.54524
2.752
6.01191
5.07416
42.8933
0.461053
34.6535
26.3468
36.2115
55.9242
4.35424
4.79487
20.0149
16.4745
18.1212
21.8404
15.0394
13.8104
3.73257
1.15291
0.977958
6.90193
12.4412
0.354857
0.836809
95.9755
0.419578
1.41672
0.990124
14.9656
1.08557
29.6442
2.9256
101.277
0.433553
10.1841
1.64247
2.67346
2.14762
47.1724
37.1367
0.732766
1.31193
2.79993
1.18676
6.6759
62.9936
0.473694
25.4937
11.5755
3.15574
2.42494
31.6635
33.1366
4.62504
6.35027
1.53247
3.30035
3.58162
6.37093
18.8495
1.76745
59.7147
37.4123
48.6704
1.47986
62.5454
0.190305
35.4445
0.519751
6.97763
1.49814
4.17387
11.6684
0.517125
79.7617
43.7146
119.365
0.582455
75.1038
86.3607
23.1284
3.39573
4.27169
4.562
37.9189
69.2237
13.0649
5.25163
24.4803
8.98295
5.77214
8.65374
54.9287
73.6653
39.6077
38.9289
1.60994
27.1489
13.0817
42.037
0.64467
32.8601
44.2497
0.59629
1.32818
1.24042
25.134
155.751
17.5453
9.76341
2.71428
83.4168
1.29183
36.2423
60.944
10.7634
1.16339
2.65639
36.1722
0.782876
0.456356
0.253043
1.30111
0.664422
62.5003
31.1375
4.31262
42.3037
0.680273
30.6614
43.9659
23.2473
1.89301
1.32909
2.13143
18.2301
0.703379
5.04924
1.41371
73.0766
12.9897
39.4783
5.28561
2.42972
18.0393
11.0878
11.4812
37.4505
2.64419
4.60851
30.5747
34.8999
6.53543
1.04095
0.929429
69.535
14.1817
14.138
0.882411
0.852319
0.937408
0.622803
7.31256
0.616344
28.6282
55.2074
22.8202
61.5824
0.887385
17.9327
0.862474
5.04064
43.4348
0.318418
1.95823
12.0805
0.526124
56.6394
83.3341
0.2489
18.3062
77.213
1.63749
14.6128
16.4396
0.349325
0.239448
45.0844
0.87659
64.3968
1.31147
59.06
3.0461
78.3766
6.19311
0.695412
17.9692
7.02502
0.599778
0.995734
15.3076
0.339125
101.691
0.166345
1.48745
1.62543
2.27664
1.60644
14.466
1.71665
0.519043
82.5969
4.83697
5.70455
2.16677
28.2287
0.63626
0.224842
0.456407
2.7686
104.8
23.2548
4.6365
4.82448
58.8301
1.04007
59.6814
7.37469
54.0506
0.336722
0.245212
51.6758
1.15482
1.42178
88.8765
48.4105
45.7647
8.90388
113.67
0.412486
0.471037
1.00144
22.0043
61.47
111.337
0.247349
0.286771
0.220272
12.1216
9.35596
92.4894
94.25
39.0767
14.3825
4.8072
1.29967
3.10378
2.46963
106.28
45.9807
4.46788
0.361987
2.11699
43.7836
72.6521
55.4809
28.4287
0.261071
0.748368
59.688
30.6538
0.273521
87.8462
45.8382
61.8715
3.9907
2.22679
11.0174
35.5216
33.4681
55.613
1.02236
79.2671
46.7762
12.6638
0.245641
21.1177
13.2127
14.2275
44.494
32.8108
8.12236
1.12304
0.392635
86.8676
2.19409
1.16224
71.518
2.32712
24.3517
35.2614
0.71553
64.2858
4.66895
8.2521
8.68572
19.8109
12.6213
37.0686
91.523
0.689051
89.5301
0.379461
18.3622
54.2049
0.591878
0.669427
0.771976
1.53721
74.9431
41.7225
3.87327
4.62992
5.99673
0.667765
1.20059
29.3487
9.02688
0.730334
12.269
4.63925
1.70573
105.007
13.7242
59.9491
30.9225
31.8311
1.86337
0.234372
0.994887
60.957
47.6818
18.3305
12.3867
12.0186
50.3979
1.47744
94.3411
7.9039
1.68067
0.557451
7.63309
14.3397
5.65359
15.6772
7.6642
34.4972
41.0999
23.5162
2.17286
5.82325
14.3794
2.19326
79.8178
25.9956
77.0484
16.1039
1.79756
84.5996
45.8424
52.5133
0.36191
3.33661
13.0987
1.79803
55.895
0.232587
0.445926
44.647
6.01707
48.6662
38.6632
10.9646
11.6026
7.45468
12.5368
1.96324
13.9764
11.8616
20.2876
0.588719
1.62232
2.94229
0.456478
10.5397
50.2728
1.17173
1.7559
0.469327
0.237912
0.556001
13.2963
0.611949
69.505
52.2931
13.3342
4.76149
4.91104
1.69689
2.4069
0.545304
0.731293
5.38742
0.532062
69.6463
5.89495
28.5474
0.830198
7.13468
2.80248
0.905245
121.107
0.40746
0.69848
1.24434
5.07165
2.56515
0.438192
0.631737
35.8922
1.32733
3.66766
1.37163
0.746994
1.83952
30.2351
9.6702
4.73729
3.0068
0.600477
7.36205
0.680148
60.7042
2.0388
9.83009
5.014
0.304016
20.1609
37.2892
8.20724
9.83222
1.20378
3.71285
1.73251
24.9883
0.256619
6.71427
19.9531
15.8648
46.153
0.677786
158.7
6.11021
44.3253
82.4571
12.0943
3.30976
0.929753
18.2331
8.33191
53.4901
1.25857
31.2874
0.2506
45.1137
0.250968
0.520079
17.1832
6.74131
12.6071
8.24627
56.4604
1.77472
50.2103
41.4673
34.1203
41.5065
4.83811
1.21205
3.7758
65.8046
14.9545
11.8892
11.8907
78.0834
17.7304
93.4508
19.7501
25.7414
23.8185
5.05515
44.4495
18.1788
2.44088
49.4772
135.838
2.71077
41.4256
79.7325
)
;

boundaryField
{
    frontAndBack
    {
        type            empty;
    }
    wallOuter
    {
        lowReCorrection 0;
        type            epsilonWallFunction;
        value           nonuniform List<scalar> 
90
(
27.333
25.1494
23.8914
26.2661
29.9211
28.384
28.2135
40.1788
22.218
28.7441
31.4516
42.7485
29.8472
37.7743
33.2365
81.5925
31.1974
37.1451
40.4933
46.615
35.1068
27.8209
31.8702
35.3499
34.6959
59.6787
53.0988
34.6535
36.2115
20.0149
16.4745
18.1212
21.8404
15.0394
13.8104
12.4412
0.990124
1.08557
29.6442
10.1841
1.18676
6.6759
62.9936
0.473694
1.53247
3.30035
0.190305
35.4445
0.519751
43.7146
54.9287
25.134
30.6614
39.4783
30.5747
0.882411
0.616344
28.6282
55.2074
17.9327
43.4348
0.318418
0.2489
77.213
45.0844
59.06
78.3766
0.339125
101.691
0.166345
45.7647
0.412486
111.337
0.220272
94.25
106.28
28.4287
30.6538
0.273521
61.8715
35.2614
89.5301
0.379461
30.9225
23.5162
0.237912
121.107
0.40746
35.8922
20.1609
)
;
    }
    inlet
    {
        type            fixedValue;
        value           uniform 14.855;
    }
    outlet
    {
        type            zeroGradient;
    }
    wallInner
    {
        lowReCorrection 0;
        type            epsilonWallFunction;
        value           nonuniform List<scalar> 
138
(
1.64238
3.70238
31.0618
2.43026
1.70601
7.90607
77.5017
29.54
1.60413
1.24375
28.5792
48.337
0.321637
3.4094
0.605359
3.36695
2.81152
1.36433
0.685558
72.7231
145.165
36.1307
0.720125
30.6655
33.8318
38.02
28.6971
40.2853
31.6594
34.7462
32.2155
0.751261
0.59514
0.234712
0.19244
0.740413
1.315
2.43528
1.64711
0.851655
1.04962
1.86093
1.90405
0.769868
1.10933
1.29918
0.711503
0.996731
0.785468
0.431367
0.251321
0.316266
0.730187
1.23992
1.25622
2.84465
0.786464
0.477393
1.74674
1.13649
0.748699
1.20026
0.93592
0.963145
0.278792
0.27078
0.874855
11.5097
42.6775
7.66259
131.592
1.06418
1.56432
4.00889
45.6698
1.53317
48.08
0.644443
0.538422
2.2382
1.43031
94.1933
127.705
98.4786
80.3407
111.277
2.34777
0.605531
31.4542
32.2347
0.488613
0.342216
0.522003
0.455083
0.919289
0.61883
0.32021
0.695181
0.540461
13.0313
54.412
6.73652
7.83806
2.09481
35.9974
0.836717
1.64681
30.4785
0.689363
1.00526
2.48327
42.8933
1.15291
0.977958
0.836809
31.6635
48.6704
1.47986
75.1038
86.3607
0.703379
0.929429
69.535
1.63749
1.71665
4.83697
58.8301
1.04007
1.29967
3.10378
0.71553
11.8907
44.4495
18.1788
2.44088
135.838
2.71077
79.7325
)
;
    }
    procBoundary0to1
    {
        type            processor;
        value           nonuniform List<scalar> 
29
(
1.52108
2.11997
2.76918
2.76918
44.0613
44.0613
124.068
20.4654
79.5857
10.0513
17.8066
54.9122
2.98333
1.88842
68.6405
26.1498
56.7574
69.1471
5.26685
2.24456
11.1729
6.16583
60.2117
10.4325
10.5184
69.1471
8.25203
65.9135
10.4325
)
;
    }
    procBoundary0to2
    {
        type            processor;
        value           nonuniform List<scalar> 
42
(
16.3745
9.96171
0.900402
0.900793
0.295907
16.3745
0.900402
0.824956
0.215338
0.242149
1.01216
1.93066
1.01216
2.65122
3.55782
18.388
3.55782
0.270561
0.215547
2.36158
2.36158
0.270561
0.235046
5.22406
5.22406
0.240271
13.3758
0.197604
18.1554
7.70325
7.70325
0.189787
0.211935
0.241182
0.277278
0.900402
5.71882
1.16029
18.1554
0.824956
0.58444
0.381373
)
;
    }
}


// ************************************************************************* //
