/*--------------------------------*- C++ -*----------------------------------*\
| =========                 |                                                 |
| \\      /  F ield         | OpenFOAM: The Open Source CFD Toolbox           |
|  \\    /   O peration     | Version:  v1912                                 |
|   \\  /    A nd           | Website:  www.openfoam.com                      |
|    \\/     M anipulation  |                                                 |
\*---------------------------------------------------------------------------*/
FoamFile
{
    version     2.0;
    format      ascii;
    class       volScalarField;
    location    "0.74";
    object      nut;
}
// * * * * * * * * * * * * * * * * * * * * * * * * * * * * * * * * * * * * * //

dimensions      [0 2 -1 0 0 0 0];


internalField   nonuniform List<scalar> 
5794
(
0.000456052
0.000696281
0.00522246
0.00436885
0.0115136
0.000588391
0.000818303
0.000882688
0.00223516
0.000971078
0.00204625
0.00151103
0.0013128
0.00856951
0.00209371
0.000977349
0.0094519
0.00706619
0.00121656
0.000491278
0.00141096
0.000618914
0.00134159
0.00117702
0.000969014
0.00417052
0.0125391
0.0151268
0.00398383
0.000836059
0.00143914
0.00224894
0.00240885
0.0018879
0.00182827
0.0023441
0.000785977
0.00165117
0.00187858
0.00648523
0.00584732
0.00300476
0.00074321
0.000846355
0.00179473
0.0023363
0.00202077
0.001182
0.000875878
0.000419461
0.000766595
0.00303151
0.000756282
0.00225583
0.00010177
0.00233665
0.0020786
0.00162322
0.000730499
0.00554473
0.00132393
0.000531371
0.00131289
0.00532232
0.00570153
0.000737326
0.00429767
0.000666842
0.0056374
0.000703816
0.00627753
0.00403836
0.0150819
0.00103974
0.00592671
0.0116571
0.000487162
0.00370096
0.000768917
0.0001949
0.00043596
0.000498047
0.00809841
0.00172967
0.001619
0.000886314
0.000703739
0.00101438
0.0024155
0.00246325
0.00499441
0.00203205
0.00339737
0.005486
0.00256479
0.00814747
0.00393959
0.00315308
0.00191608
0.0014217
0.00140793
0.00124844
0.000755018
0.0128361
0.00154725
0.011806
0.000484579
0.00408697
0.00517084
0.000703148
0.000945299
0.000580113
0.00130784
0.00153979
0.00231683
0.00411039
0.00237854
0.00563217
0.00123365
0.00101138
0.00768015
0.000254685
0.000725954
0.0135563
0.00120682
0.00365998
0.00387843
0.000730184
0.00359773
0.00390228
0.00192385
0.00163791
0.0035747
0.0035054
0.0101438
0.0023403
0.00292979
0.000588392
0.00290578
0.00140578
0.000819349
0.0124801
0.00115826
0.0139
0.00422588
0.0127186
0.00179204
0.00145555
0.00893091
0.00754553
0.000725827
0.00204553
0.0112735
0.000908169
0.0134969
0.00176171
0.0016506
0.00100526
0.00215367
0.00146467
0.000492737
0.00080263
0.000464178
0.000795301
0.00198709
0.00193903
0.000702877
0.000661693
0.000426655
0.000274921
0.000454313
0.00196297
0.000580052
0.000588548
0.000523201
0.00105891
0.000365704
0.000787403
0.000611859
0.00189
0.000819033
0.00124507
0.000682543
0.00154044
0.000739017
0.00368834
0.0011686
0.00111196
0.000495935
0.000856873
0.00166974
0.00149331
0.0017111
0.000893157
0.000832774
0.00097619
0.00058448
0.000318034
0.000620536
0.00101004
0.000746588
0.00210665
0.00106243
0.000854619
0.00171416
0.00202392
0.00063996
0.00571888
0.012206
0.00189936
0.000753503
0.000857644
0.00258813
0.00175393
0.0016837
0.00196392
0.00224845
0.00413101
0.00352118
0.00572411
0.000856298
0.00212925
0.0083511
0.00363861
0.00233568
0.00648227
0.00066977
0.00218356
0.00168483
0.00258334
0.000955706
0.000853945
0.00139463
0.00368232
0.00307392
0.0102397
0.0128208
0.00204888
0.000892444
0.000470835
0.000637385
0.00752862
0.00215669
0.00153619
0.00147229
0.00182716
0.00167436
0.00802708
0.00113258
0.000944461
0.00066294
0.000685689
0.0118996
0.00060412
0.000809359
0.0196143
0.000907383
0.000883427
0.00384211
0.00108324
0.002499
0.00247133
0.00160543
0.000739694
0.00123183
0.00122128
0.0106624
0.00370143
0.000791096
0.00291555
0.00267256
0.00108501
0.00224068
0.0052609
0.000868174
0.00210929
0.00224021
0.000827808
0.001949
0.00117724
0.00043025
0.0032167
0.00368805
0.00205269
0.0044364
0.00526297
0.00235136
0.00296682
0.00532984
0.00792701
0.00188598
0.00131619
0.00208378
0.00215862
0.000770779
0.0032715
0.00210757
0.00126152
0.00241493
0.000981879
0.000366923
0.000980894
0.000353373
0.00283974
0.000792356
0.00311331
0.00173531
0.00428437
0.00252204
0.00226335
0.00111574
0.00277689
0.00217485
0.0016012
0.000782839
0.000903186
0.00502019
0.0157095
0.00464082
0.00421487
0.0057247
0.00205632
0.0047311
0.0109922
0.00110293
0.00185567
0.000994455
0.00125387
0.00107882
0.00188032
0.00179563
0.000822393
0.000852847
0.00149723
0.00138731
0.000601012
0.000571021
0.000371424
0.000413963
0.000909981
0.000604512
0.000671673
0.00230959
0.000974894
0.000505857
0.000627376
0.00171186
0.00130676
0.00227495
0.00158213
0.00197411
0.00246229
0.00148284
0.00125348
0.000742666
0.00255918
0.000457696
0.00190906
0.000770436
0.000599294
0.00568453
0.00267111
0.00293752
0.00137609
0.00102761
0.00366694
0.00178511
0.00156736
0.00132986
0.00109131
0.00261061
0.000506555
0.00410977
0.00185444
0.00640581
0.00305185
0.00168902
0.00156694
0.0017573
0.00117741
0.00602104
0.00249289
0.000749967
0.00187817
0.00152295
0.00163355
0.00651474
0.00236267
0.00237518
0.000774144
0.000718792
0.00163519
0.000571918
0.000901627
0.000543533
0.000539328
0.000518428
0.00108528
0.00117757
0.00137038
0.00113315
0.0012498
0.013332
0.000424433
0.000349325
0.00260276
0.000857838
0.000649816
0.000454561
0.00404932
0.00332527
0.00192492
0.00447903
0.00118575
0.00176223
0.00148676
0.000658768
0.00548275
0.00196866
0.00346815
0.00180466
0.00289997
0.00521417
0.0025907
0.000725825
0.000739107
0.000561647
0.00132884
0.000588908
0.000676336
0.00290744
0.000784077
0.0126129
0.0019867
0.00152426
0.0015463
0.000983816
0.00114625
0.00116986
0.00109341
0.00102198
0.000805354
0.000930213
0.00103063
0.000880915
0.00466585
0.00245158
0.002146
0.00090745
0.00242612
0.000621232
0.00056105
0.00183967
0.000875456
0.00488615
0.000557004
0.00449101
0.00855684
0.00330723
0.00723995
0.00101857
0.00064581
0.000581886
0.00168999
0.00152728
0.00394558
0.00995707
0.0165462
0.00533691
0.000790254
0.000175289
0.0131138
0.00450173
0.00324868
0.00180401
0.00309715
0.0183201
0.0158546
0.00103604
0.000628217
0.000792485
0.0011118
0.00071735
0.00228567
0.00532233
0.00344305
0.000861201
0.00103178
0.00276214
0.000722535
0.000585351
0.00421909
0.00402739
0.00972119
0.000785024
0.00130276
0.000949885
0.00258321
0.0012369
0.00237189
0.0169691
0.0176126
0.000728521
0.00158891
0.0143468
0.000634609
0.000964012
0.0011011
0.00492207
0.000772023
0.00814668
0.00150975
0.00765562
0.000596199
0.0014764
0.00219579
0.00377519
0.000593023
0.00080481
0.0134031
0.000581765
0.000633328
0.0139789
0.00617678
0.00453107
0.000675039
0.000963655
0.00214509
0.00049189
0.000698009
0.000936963
0.00029438
0.00935246
0.00251678
0.00371325
0.00168952
0.00078526
0.00296197
0.00394373
0.00206987
0.000690801
0.00220864
0.00048856
0.00626618
0.00103245
0.000916294
0.000754764
0.0139222
0.00124302
0.000480968
0.0138451
0.0013509
0.000434536
0.000802699
0.000670426
0.000950045
0.000938142
0.00062704
0.000449353
0.00839983
0.0180677
0.000576055
0.0033394
0.00238212
0.00681291
0.00107718
0.000532152
0.00494736
0.000251891
0.00087842
0.00164308
0.00284292
0.00147763
0.00131764
0.0015189
0.000858928
0.016394
0.00353856
0.00173986
0.00320447
0.0048482
0.00239753
0.00773525
0.00734088
0.0034147
0.00136689
0.00106083
0.00439556
0.00225363
0.00482252
0.000814708
0.000749659
0.000696394
0.00534599
0.00242855
0.00323269
0.000924998
0.00083112
0.000756411
0.0023187
0.000853389
0.00177622
0.00255547
0.00561025
0.000788158
0.00284093
0.0036521
0.000566876
0.000117205
0.0048164
0.0180538
0.0201412
0.0126391
0.00069958
0.000947627
0.000764682
0.0021783
0.00103785
0.000866345
0.00154467
0.000295589
0.00335091
0.00414079
0.00546351
0.000428015
0.000677538
0.00221581
0.00971973
0.00609613
0.0009891
0.000621381
0.000721017
0.000254349
0.000523685
0.000652542
0.000916579
0.00418308
0.000808911
0.00234994
0.0156977
0.000888867
0.000840239
0.00393918
0.00237207
0.00281022
0.00539054
0.00231874
0.0010112
0.00231901
0.000599888
0.00029749
0.00102904
0.00257156
0.000593777
0.000729874
0.00302655
0.0146076
0.00223017
0.00198128
0.00589874
0.001052
0.000569125
0.000990582
0.000946193
0.000579151
0.00293927
0.0056295
0.00548113
0.00237341
0.00275242
0.00203177
0.00115511
0.0120517
0.0014818
0.00152564
0.00273516
0.00589477
0.00115337
0.0129268
0.000726261
0.000579134
0.00506408
0.00243287
0.00127779
0.00910741
0.00276595
0.00397022
0.00251894
0.00210307
0.000567602
0.0060809
0.0082389
0.0040354
0.00313474
0.00175573
0.00193748
0.00616407
0.000273784
0.000786507
0.000769516
0.000413096
0.000641529
0.000277649
0.000941521
0.00789341
0.00329254
0.00260392
0.0014766
0.00263183
0.00688405
0.00110301
0.00780117
0.00343849
0.00312543
0.00447195
0.000775133
0.000733302
0.0162676
0.00312334
0.00577802
0.00755217
0.00441137
0.00306801
0.00238175
0.0183393
0.00114156
0.000800521
0.000818397
0.00799976
0.000954551
0.00278159
0.00304778
0.00646246
0.00226049
0.00192836
0.00264017
0.00613353
0.00451636
0.00202731
0.003375
0.0045855
0.000264849
0.000246747
0.000302779
0.000500979
0.00485647
0.00237434
0.00458049
0.000662028
0.000802825
0.000647757
0.000852202
0.00202263
0.000580226
0.00248613
0.00520044
0.00075562
0.00598654
0.00267861
0.000708548
0.00100198
0.0189834
0.0048937
0.00291952
0.00589927
0.00589266
0.00263796
0.00343835
0.00102414
0.00401405
0.00216517
0.00455397
0.00624643
0.00252221
0.0038894
0.000741252
0.00067898
0.000801458
0.0136178
0.000681161
0.00632026
0.0153965
0.000662531
0.000779015
0.000601157
0.00506298
0.00253284
0.00656639
0.00523199
0.00244593
0.00400664
0.00569659
0.00696869
0.0041724
0.00107561
0.0026663
0.000577192
0.00260956
0.000789948
0.00391566
0.000862882
0.00548775
0.00608299
0.000994205
0.000622324
0.00229493
0.0062794
0.00557707
0.00306665
0.00883386
0.0033056
0.000808752
0.00100194
0.00106826
0.0102118
0.0012966
0.00261926
0.00301642
0.00802359
0.000443805
0.000636934
0.000970253
0.00135504
0.0139493
0.00118838
0.000768477
0.00240162
0.00284
0.00123822
0.00233261
0.00473102
0.00473665
0.000771289
0.00236282
0.00731403
0.00238181
0.00487617
0.017049
0.000234235
0.000158628
0.000337977
0.000504517
0.0046248
0.00458877
0.000875023
0.00125925
0.000812501
0.000712631
0.000839164
0.0205975
0.0026061
0.00582317
0.00169587
0.00231367
0.00356299
0.00300139
0.0130643
0.00415756
0.00141062
0.000633811
0.000753482
0.0086726
0.000822065
0.00342247
0.00762098
0.00366299
0.00475295
0.00397321
0.00154681
0.0111707
0.00322653
0.000772979
0.0030834
0.00070996
0.00449538
0.00236796
0.00245943
0.00345442
0.000809553
0.000752573
0.000639224
0.00448935
0.00383224
0.00089602
0.000754815
0.00253382
0.00109371
0.00394539
0.000673146
0.000799217
0.00274634
0.00220836
0.00289368
0.0059788
0.00377795
0.00623218
0.00931136
0.000696202
0.000624231
0.00377781
0.00105045
0.00111937
0.000537191
0.000614848
0.00211562
0.000440387
0.000790027
0.000957154
0.00696656
0.00363069
0.00397361
0.000845757
0.00305907
0.00560202
0.017016
0.00203601
0.0032764
0.000784654
0.000767445
0.016036
0.00105542
0.00320194
0.000838885
0.00136081
0.000997528
0.00150406
0.000208212
0.00196437
0.00125403
0.000559577
0.000448953
0.000375699
0.000208987
0.000241399
0.000659724
0.0152733
0.0127769
0.00320543
0.00179538
0.00277599
0.00955137
0.000750929
0.000458415
0.000636887
0.00567022
0.00103342
0.0184356
0.00609114
0.00227676
0.00078558
0.00716898
0.00157731
0.000590911
0.000813285
0.0205274
0.00565916
0.000834153
0.00102129
0.00087793
0.00354484
0.0015698
0.0118059
0.000784191
0.000530603
0.00058243
0.000644836
0.000574346
0.00253821
0.00142512
0.000854251
0.000485223
0.00078116
0.000789263
0.00927781
0.000782474
0.00186777
0.00102311
0.00162882
0.00083159
0.00091281
0.00115294
0.0010974
0.00064189
0.000941859
0.000756492
0.0014081
0.000794885
0.00174498
0.00479661
0.000907018
0.000833685
0.00327453
0.00125066
0.000830214
0.00204009
0.000776611
0.0191459
0.00209505
0.000803642
0.000825744
0.000874956
0.0148182
0.000967524
0.002641
0.00256777
0.00537075
0.000688934
0.000893904
0.000867906
0.000550238
0.000828421
0.00122287
0.00183475
0.0016867
0.00147946
0.00018093
0.00222264
0.00144073
0.00104257
0.00107866
0.00158754
0.000492415
0.000891686
0.000604266
0.00103596
0.00074668
0.0138802
0.0007961
0.00610324
0.00078992
0.000783173
0.000736258
0.000668082
0.00073314
0.000650692
0.00734083
0.0148263
0.00429985
0.000608944
0.000826674
0.00295823
0.00100479
0.0019273
0.00120181
0.0025095
0.00507024
0.00108988
0.00680459
0.000485556
0.000841403
0.00604087
0.000818911
0.0143147
0.000723375
0.000509666
0.00391591
0.00767379
0.000614722
0.00314831
0.000617157
0.000660059
0.000688929
0.000586845
0.00102384
0.000741353
0.000830374
0.000832808
0.000877618
0.00106237
0.000928299
0.00102216
0.00423667
0.00097142
0.000723127
0.00547478
0.00243354
0.000863725
0.000696898
0.00721702
0.00332627
0.00624197
0.00870381
0.000947931
0.00113896
0.000320344
0.0153146
0.00217591
0.00434468
0.00227681
0.0180381
0.00238714
0.00019973
0.00109399
0.000405639
0.000479297
0.00220756
0.00038495
0.00113
0.00110363
0.00026233
0.001082
0.000180736
0.000224722
0.000563857
0.000644585
0.000812035
0.00602046
0.00338372
0.00598065
0.000431547
0.00133933
0.00158908
0.000552224
0.000692914
0.00078953
0.00840057
0.000808704
0.00321943
0.0010311
0.000746391
0.00098361
0.0198961
0.0128475
0.000551243
0.00510526
0.00731169
0.00444166
0.00713237
0.000744586
0.0069809
0.00506573
0.00311867
0.000938
0.00967756
0.000726274
0.000726347
0.00145753
0.00156524
0.00116378
0.000789776
0.0137821
0.00107107
0.000836886
0.00319101
0.00475408
0.00485718
0.000764913
0.000602278
0.00106768
0.000820418
0.00122235
0.000760552
0.0144305
0.00122415
0.00544048
0.00286815
0.00549554
0.0017164
0.00139552
0.00277626
0.00246834
0.001027
0.00102795
0.000586298
0.0011626
0.000909675
0.0191311
0.000916047
0.000777381
0.000754701
0.000904692
0.00083224
0.000776229
0.000868097
0.000748282
0.00297866
0.00113077
0.0125717
0.000730916
0.000744755
0.000656176
0.000665601
0.0017389
0.0107518
0.00172749
0.00099882
0.000606941
0.000767684
0.00284298
0.000783792
0.000704873
0.000825088
0.000792151
0.000843638
0.00100707
0.00059833
0.00724895
0.000525608
0.0129858
0.000807911
0.00156189
0.00073171
0.000425715
0.000676885
0.00331834
0.00108793
0.000738747
0.000636095
0.000713915
0.00103078
0.00160171
0.00115616
0.00210493
0.000813932
0.00180623
0.00131066
0.0044797
0.00598784
0.00360739
0.000828423
0.000173668
0.00757072
0.00134288
0.00605849
0.00665239
0.000475105
0.000859826
0.00110147
0.00378632
0.000246079
0.0147884
0.00579667
0.00111185
0.0115219
0.00630448
0.00122087
0.000499149
0.0071819
0.0191831
0.00999823
0.00129995
0.00146837
0.00167483
0.00290268
0.00083587
0.000374894
0.000573638
0.000783532
0.00258246
0.00173018
0.000381603
0.00673724
0.00127569
0.000461011
0.00059582
0.00410148
0.0146508
0.00111138
0.00276491
0.00523768
0.00870333
0.0151257
0.00254676
0.00223214
0.000794784
0.00522534
0.00171366
0.00758906
0.0055292
0.00231965
0.0039447
0.0063197
0.00979306
0.00462038
0.0155329
0.00340281
0.00166993
0.00140689
0.0169742
0.00182971
0.00464599
0.00455666
0.00341719
0.00315496
0.00801944
0.00742971
0.00750899
0.0150101
0.00151141
0.000375514
0.000806446
0.00794597
0.000702719
0.00479588
0.00174792
0.000830833
0.00432284
0.00356622
0.00723224
0.000586202
0.00985735
0.00173401
0.00284205
0.00291273
0.00117549
0.00132655
0.000887277
0.012586
0.00102496
0.00079664
0.00102107
0.0157129
0.00107379
0.00163142
0.00610401
0.00773887
0.00246738
0.00184574
0.011995
0.00176553
0.000785963
0.000140029
0.00662787
0.00463993
0.00843578
0.00644602
0.000739342
0.000675213
0.00555572
0.00582212
0.00094953
0.00151868
0.00131486
0.00152087
0.00108879
0.00555494
0.00170828
0.00300653
0.00572427
0.00144507
0.00639819
0.00130662
0.0010939
0.00129489
0.00154361
0.00204926
0.000777122
0.00104334
0.00167952
0.00125474
0.000378024
0.00176572
0.000648895
0.00082237
0.00845701
0.00283181
0.00544276
0.00124547
0.00515377
0.00514553
0.00654551
0.000936494
0.00237294
0.00174508
0.00111641
0.000248786
0.00019108
0.000215431
0.017659
0.000826288
0.00262157
0.0020005
0.00390613
0.00394859
0.00163057
0.000303387
0.000301155
0.000288667
0.000452711
0.000301532
0.00036914
0.000232138
0.000348141
0.000328475
0.000553478
0.000309682
0.000469799
0.000313075
0.000236268
0.00025225
0.000385542
0.000425901
0.000277114
0.000250765
0.000235632
0.000459975
0.00020947
0.000245388
0.000175442
0.000641534
0.000325319
0.000385263
0.000172648
0.000309723
0.000311917
0.000446314
0.000459486
0.00033323
0.000170485
0.000207166
0.000422975
0.000205568
0.000292657
0.000376014
0.000399237
0.000254696
0.000271806
0.000424008
0.000442947
0.00226348
0.00169917
0.0115393
0.000900568
0.00717601
0.00296134
0.0055125
0.0123909
0.00174071
0.000730267
0.000845366
0.00205332
0.00238905
0.00548049
0.0183745
0.0161145
0.00569112
0.00218052
0.00138834
0.00121185
0.00110777
0.00172583
0.000253485
0.00455686
0.00178593
0.00475902
0.00209866
0.0062775
0.00483544
0.00238884
0.00586923
0.0126765
0.00743104
0.0186135
0.00257329
0.0028309
0.00384713
0.000759565
0.0160081
0.00106807
0.00146062
0.00869009
0.00239011
0.00315752
0.00404881
0.00160121
0.0015423
0.000841893
0.000848842
0.0169383
0.00208906
0.000486696
0.000231861
0.00826949
0.0147412
0.000229936
0.00368619
0.00728905
0.000410056
0.000239318
0.00022208
0.000297727
0.000484311
0.000303484
0.000472512
0.000342593
0.000319392
0.000341951
0.000530683
0.000441995
0.000256437
0.00045324
0.000244346
0.000267135
0.000472124
0.000243101
0.000211292
0.000221496
0.000229477
0.000319471
0.000247507
0.00352519
0.00265463
0.000429979
0.000883815
0.00886647
0.000848691
0.0107742
0.000670371
0.00295741
0.0128836
0.0039446
0.00292072
0.0148818
0.00693475
0.000229488
0.0148868
0.00209156
0.00154134
0.0201989
0.00505497
0.0134438
0.00056117
0.0144206
0.00171835
0.000962498
0.0140027
0.000902693
0.00361783
0.00186371
0.000974367
0.000770077
0.00606255
0.000754492
0.00978283
0.0162583
0.00165881
0.0075958
0.000667705
0.0107293
0.00209885
0.00161824
0.000754932
0.00558591
0.00130592
0.00184333
0.00474247
0.000947656
0.00744693
0.000834636
0.00288151
0.000642547
0.00756463
0.00816516
0.020626
0.000161381
0.000771834
0.00102881
0.00735838
0.00292628
0.00032865
0.000629694
0.00534628
0.00413176
0.0139785
0.000832667
0.00138826
0.00179127
0.000835769
0.00340378
0.000880285
0.00795139
0.000532677
0.000179368
0.000231677
0.00986487
0.00664763
0.000789299
0.00468073
0.00505197
0.00212884
0.0142611
0.0171292
0.0120027
0.0145291
0.0146716
0.000864899
0.0077892
0.000679735
0.00228849
0.00197207
0.00730595
0.000723182
0.000871814
0.00116718
0.0148759
0.000521662
0.00146023
0.00175004
0.00264165
0.00283675
0.010215
0.0147662
0.00946168
0.00368718
0.000830396
0.0152092
0.000520643
0.0021288
0.0020396
0.00121605
0.00970724
0.0152834
0.00326199
0.0150017
0.00288638
0.00811906
0.00145432
0.00116186
0.00206867
0.0027914
0.00101229
0.00165833
0.00206533
0.0125854
0.00103003
0.00179812
0.00389316
0.00374704
0.00145254
0.005633
0.00207602
0.0140879
0.00526615
0.00669919
0.00399886
0.00153854
0.00121183
0.0024569
0.00360954
0.00164211
0.00162149
0.00290782
0.0152578
0.0149081
0.010263
0.0109163
0.0146877
0.0107183
0.0146962
0.000638285
0.0146995
0.0149543
0.0111865
0.0121469
0.015355
0.0115132
0.0145478
0.0155144
0.0148607
0.00160318
0.00156643
0.00176514
0.0135343
0.00121005
0.00170338
0.00148075
0.00113865
0.000203247
0.000225893
0.00688297
0.0136563
0.00691874
0.0024068
0.0026773
0.00823828
0.0133352
0.00748629
0.00300489
0.00110353
0.00116813
0.00131185
0.00323876
0.00950308
0.00271729
0.00149368
0.00204783
0.0054492
0.00328564
0.00386013
0.00160258
0.00665071
0.00204121
0.000651706
0.00267705
0.000308318
0.0066771
0.00120636
0.00157718
0.00111231
0.00160712
0.00284359
0.00280011
0.00258044
0.00444232
0.00461221
0.00123504
0.00297318
0.0115167
0.0028785
0.0027373
0.0030397
0.00416788
0.00971502
0.00163998
0.0021417
0.00964861
0.00483859
0.00304454
0.00275628
0.00117989
0.0031706
0.0108023
0.0033455
0.00207405
0.00251025
0.00216053
0.005608
0.00118742
0.016162
0.00276158
0.00118229
0.00171164
0.00229243
0.00509205
0.00123688
0.00124986
0.00305775
0.00569368
0.00239383
0.0154869
0.00972053
0.0018782
0.0105437
0.00198416
0.00209222
0.00304167
0.00142659
0.00292669
0.00116164
0.0148572
0.00339366
0.00228576
0.00166896
0.00792151
0.0141389
0.0014975
0.00148947
0.00610264
0.00612445
0.00321228
0.00240063
0.00137385
0.00122329
0.00667209
0.00623149
0.00521861
0.0134004
0.0134277
0.00168967
0.00491448
0.000535749
0.00170757
0.00517628
0.00192458
0.00111681
0.00171889
0.00137908
0.00285421
0.00142737
0.00486399
0.000555159
0.00601687
0.00451356
0.00130202
0.00520331
0.0025654
0.00769429
0.0010717
0.00268195
0.00141636
0.00873318
0.00745827
0.00208905
0.00267189
0.00203708
0.00147605
0.00121398
0.0044491
0.00385103
0.00502829
0.00608638
0.000390417
0.000794496
0.000780751
0.00625533
0.00108056
0.00137158
0.00636609
0.00697964
0.00531332
0.00150759
0.00148154
0.0071811
0.00340822
0.00544813
0.00139895
0.00742911
0.00648641
0.0063409
0.000346801
0.00660522
0.00902488
0.0134445
0.00333181
0.00890768
0.00676547
0.0026425
0.00594525
0.00895718
0.000920204
0.00235018
0.00785447
0.00430884
0.00639306
0.006907
0.00685992
0.00957194
0.000539941
0.00371117
0.00320117
0.00769795
0.00236967
0.00217549
0.00950819
0.0089225
0.00789277
0.00146144
0.00265975
0.00540176
0.000829817
0.00936185
0.0013369
0.00868026
0.00149172
0.0027216
0.00134318
0.000342997
0.0060204
0.00145828
0.00659167
0.00143486
0.00121109
0.00791168
0.00419857
0.0026459
0.00558741
0.00291329
0.00197083
0.00121489
0.00326887
0.000691859
0.00198212
0.00203331
0.00250782
0.000454361
0.00256275
0.00040036
0.0131631
0.0012892
0.00234483
0.00160863
0.00174589
0.00142432
0.0025452
0.00141862
0.00158431
0.00521308
0.00166608
0.00207833
0.00167
0.00535066
0.00232275
0.00146233
0.00176207
0.00538381
0.00488303
0.00171735
0.00542846
0.00287822
0.00142133
0.00309977
0.00092064
0.0125706
0.000870108
0.00220085
0.00184208
0.010935
0.000940022
0.00158462
0.00215772
0.00920458
0.00139811
0.00153664
0.00890872
0.00251639
0.00133795
0.00161814
0.00136183
0.000913885
0.00124704
0.00581135
0.00250512
0.00144993
0.0122516
0.0137563
0.000915165
0.000739112
0.00138072
0.00192027
0.00687621
0.00130366
0.00236491
0.00279084
0.00195688
0.00123478
0.00647123
0.00193043
0.00514559
0.00534628
0.00142928
0.00107059
0.00188288
0.00440832
0.00114684
0.00179017
0.00162523
0.012283
0.00657771
0.00642884
0.0115728
0.0019625
0.00139483
0.0062377
0.00949078
0.0015627
0.0078189
0.00241195
0.00126411
0.00171444
0.00531888
0.00649119
0.00136545
0.0061992
0.0024962
0.00245348
0.00360393
0.00240713
0.0051544
0.000438357
0.0022902
0.00167768
0.0133878
0.00091644
0.00107869
0.00800617
0.00079958
0.000827149
0.0116973
0.000432327
0.00225503
0.00113364
0.00148564
0.00169476
0.00891203
0.00402767
0.00685345
0.00475654
0.00290605
0.0031746
0.00127597
0.007845
0.00604973
0.000299291
0.000299625
0.000601833
0.000800885
0.000800075
0.0105134
0.00232619
0.00106312
0.00149395
0.00346038
0.00459712
0.00225964
0.000274072
0.0111695
0.00981425
0.0020089
0.000613512
0.00292938
0.00334368
0.00718182
0.000505203
0.00196059
0.0114966
0.000916382
0.00135762
0.00179629
0.00911748
0.00544602
0.00120628
0.00248231
0.0107916
0.00392455
0.00228117
0.00168036
0.00169653
0.000555843
0.000837184
0.00374979
0.00449861
0.00460237
0.00630458
0.012989
0.0052019
0.0025519
0.00172672
0.00168718
0.0144828
0.0113122
0.0138104
0.0128458
0.00974122
0.00609309
0.00377303
0.00300603
0.00210393
0.00145981
0.00906261
0.0116514
0.0111161
0.00234657
0.0129597
0.00682069
0.00651869
0.00591571
0.000699285
0.00556583
0.00236465
0.00103037
0.00153559
0.0022438
0.00219365
0.00200143
0.00600532
0.00769508
0.00127548
0.0140582
0.00702798
0.00924405
0.0052431
0.00229956
0.00118246
0.000952165
0.00109075
0.000665826
0.00096022
0.000743584
0.00919487
0.00206567
0.000792296
0.0015123
0.00343341
0.00540066
0.00514561
0.0026635
0.00613129
0.00322138
0.00325439
0.00814432
0.00346936
0.00133591
0.00225905
0.00198015
0.000296305
0.00182269
0.000650688
0.00191746
0.0146493
0.00125993
0.00145393
0.00171764
0.00580701
0.00108072
0.00517722
0.00887119
0.00182995
0.00173309
0.00398695
0.00417918
0.00409819
0.00671509
0.00166072
0.0108677
0.00272456
0.00718835
0.014156
0.00850523
0.00252359
0.00429907
0.00155539
0.00779977
0.0100667
0.00388179
0.00155866
0.000809501
0.000739662
0.00110998
0.00298022
0.00743419
0.00130999
0.000858043
0.00806057
0.00755526
0.00656234
0.00396062
0.00131377
0.00784553
0.00810783
0.00180911
0.00174835
0.00401835
0.00585792
0.0152864
0.00483386
0.0123293
0.00162443
0.0075785
0.0020482
0.00670587
0.0111395
0.00232363
0.00319207
0.00167532
0.00505022
0.00495686
0.00168817
0.000252355
0.00019481
0.00821864
0.00637133
0.00908268
0.00538562
0.0110255
0.00890824
0.000795646
0.00467357
0.00740452
0.00355568
0.00373256
0.00765026
0.00865961
0.00210716
0.00096301
0.00140161
0.0106537
0.00158731
0.0117345
0.00275821
0.000727158
0.0107051
0.00162231
0.00171836
0.00940322
0.0148816
0.0130498
0.0144223
0.000388357
0.00107911
0.00563019
0.00842695
0.0141323
0.0140245
0.0027013
0.00947793
0.00247902
0.00133554
0.00361098
0.00273404
0.0106
0.00568676
0.014694
0.00350297
0.00147768
0.00784078
0.0039384
0.0045439
0.00189727
0.00367532
0.00815814
0.00129267
0.00222903
0.00661041
0.00730052
0.0123887
0.00268183
0.00253092
0.0129412
0.00104008
0.000757633
0.00182587
0.00935707
0.00930267
0.0060867
0.00395586
0.00114348
0.00112658
0.00648283
0.00163163
0.00744211
0.00866001
0.00369168
0.00641442
0.00252943
0.00472951
0.00991321
0.0134974
0.00648333
0.00170211
0.00252252
0.00200474
0.00121909
0.0049152
0.00101983
0.0025087
0.0146536
0.0132298
0.0148391
0.00892813
0.0119341
0.00197444
0.00557325
0.00151892
0.0104344
0.019102
0.0130785
0.00919126
0.000740482
0.00190397
0.00857766
0.0110718
0.00585988
0.00591309
0.00233015
0.00576469
0.00225439
0.00286803
0.00186363
0.000334
0.0138653
0.00126593
0.00844236
0.000838101
0.00761885
0.00498197
0.00231233
0.0065041
0.00876923
0.0011665
0.00764155
0.0136279
0.00273459
0.000505178
0.0110903
0.00582103
0.00516707
0.00233064
0.000647201
0.000818432
0.00371855
0.0156592
0.0113629
0.00383608
0.00667328
0.0110327
0.000942342
0.00462093
0.0048696
0.00476843
0.000743916
0.00230659
0.0114671
0.00418879
0.00553562
0.0053395
0.0158871
0.00454969
0.000996828
0.00119547
0.000916853
0.00310238
0.000797635
0.00638211
0.00321303
0.0108455
0.00113178
0.00157141
0.00092664
0.0124269
0.0062401
0.0144004
0.00417067
0.00107263
0.00416705
0.00573961
0.00461572
0.000808285
0.0112892
0.00265078
0.0012851
0.00164917
0.000788975
0.0136859
0.000854905
0.0161161
0.00866031
0.000920867
0.00910806
0.000795081
0.0150607
0.00971031
0.00148043
0.00201109
0.00255684
0.0156031
0.000848174
0.000779102
0.000769034
0.00422433
0.000798339
0.00120055
0.00935433
0.00516525
0.00767198
0.0044908
0.00647118
0.00103106
0.0147367
0.00837407
0.00262592
0.000739293
0.00434578
0.00779372
0.000288351
0.000184308
0.000265887
0.0146822
0.00215054
0.0154135
0.00477294
0.00488876
0.00981075
0.013374
0.00191471
0.0031309
0.00665639
0.00493864
0.00241846
0.0045743
0.000866495
0.00913169
0.00140933
0.00220376
0.000889617
0.00135081
0.00278781
0.00239538
0.00553754
0.00309319
0.00230503
0.0157331
0.0068894
0.00731376
0.00852394
0.00163107
0.00109552
0.00345203
0.00172694
0.012221
0.00577761
0.0120149
0.00860343
0.00178266
0.000948906
0.00129437
0.00357636
0.00129771
0.00865523
0.00199332
0.00115741
0.00261862
0.00959327
0.00354979
0.0147524
0.000602156
0.0100276
0.00259109
0.00307254
0.0016618
0.00593717
0.00666078
0.00266154
0.00152409
0.00517292
0.00613605
0.0015918
0.00233581
0.0146601
0.0108058
0.00651996
0.00725147
0.00588109
0.0180732
0.0139455
0.00170645
0.00245613
0.00345361
0.00186385
0.00382685
0.0131569
0.0137537
0.000744316
0.0083732
0.00191124
0.00244333
0.00196297
0.00364209
0.00447042
0.00383038
0.000484024
0.00790832
0.00826991
0.00193671
0.00231716
0.00273677
0.00618342
0.00350753
0.00270086
0.000611388
0.00260407
0.0124025
0.0081982
0.00398944
0.00226309
0.00608044
0.000988674
0.00113562
0.00104903
0.000908711
0.00141293
0.00183959
0.00124763
0.00184506
0.0157944
0.000687675
0.00161848
0.00121081
0.000931337
0.0064086
0.001615
0.000790061
0.00101787
0.00394634
0.00245418
0.00163354
0.00117694
0.00121124
0.00186977
0.000895719
0.00126068
0.00881062
0.00617886
0.000804263
0.00596852
0.00143705
0.00329349
0.0109604
0.00568957
0.00839723
0.000894174
0.000970372
0.000153313
0.000358754
0.00204739
0.0148254
0.00224248
0.0163156
0.0052333
0.00183575
0.0071629
0.00168441
0.000805116
0.00322842
0.00483553
0.00714146
0.00827686
0.00190865
0.000882629
0.00119436
0.000732779
0.00121036
0.0129117
0.00184515
0.00357574
0.0071908
0.000509478
0.00594409
0.00257764
0.00108045
0.00254987
0.0104113
0.0134964
0.0140058
0.0110843
0.000853616
0.000862267
0.00562178
0.0125172
0.00694786
0.00843239
0.00397099
0.00738687
0.00113638
0.000806264
0.000791163
0.00861175
0.00751289
0.00189753
0.00192872
0.000890388
0.00194139
0.00736973
0.00161146
0.00266631
0.0076409
0.013218
0.0127053
0.00109131
0.0146089
0.00122701
0.0135684
0.00560864
0.00553414
0.00253017
0.00409708
0.00135739
0.00723526
0.0138381
0.0121088
0.00125387
0.00105607
0.000885353
0.000883838
0.00074095
0.00119939
0.00229935
0.0037556
0.00788454
0.00635701
0.00245401
0.000839709
0.0138183
0.000765406
0.00112154
0.00523676
0.0148971
0.00618006
0.00326604
0.00867857
0.00666969
0.000820267
0.000841071
0.00431097
0.00305877
0.0116351
0.000865875
0.00844156
0.00745511
0.00133247
0.00647616
0.000944732
0.00131499
0.000692051
0.000677538
0.000315404
0.000745427
0.000901878
0.00106423
0.000827452
0.000233875
0.000174424
0.000255121
0.0161959
0.0156663
0.000848068
0.00931968
0.00346266
0.0078421
0.00842743
0.00631499
0.00485355
0.0135913
0.0103655
0.00434615
0.00436308
0.003956
0.00959277
0.00242796
0.000921665
0.000905392
0.00154539
0.00121881
0.000973342
0.00082184
0.00891556
0.00335464