/*--------------------------------*- C++ -*----------------------------------*\
| =========                 |                                                 |
| \\      /  F ield         | OpenFOAM: The Open Source CFD Toolbox           |
|  \\    /   O peration     | Version:  v1912                                 |
|   \\  /    A nd           | Website:  www.openfoam.com                      |
|    \\/     M anipulation  |                                                 |
\*---------------------------------------------------------------------------*/
FoamFile
{
    version     2.0;
    format      ascii;
    class       volVectorField;
    location    "0.16";
    object      U;
}
// * * * * * * * * * * * * * * * * * * * * * * * * * * * * * * * * * * * * * //

dimensions      [0 1 -1 0 0 0 0];


internalField   nonuniform List<vector> 
1431
(
(0.193939 1.03342 1.62764e-16)
(3.51403 0.839057 3.19515e-17)
(-1.14024 -0.000451081 0)
(0.489603 -0.181685 2.17898e-16)
(-1.07782 0.0258065 0)
(1.13642 4.04198 2.61293e-16)
(4.12523 -0.466398 3.30048e-16)
(1.74977 0.166008 5.43099e-17)
(0.468877 3.45741 2.04175e-16)
(3.39993 -0.328478 3.40693e-16)
(2.74275 10.2988 2.0266e-17)
(7.21673 -0.091952 0)
(0.105528 2.14033 -1.9897e-16)
(-1.8779 0.170383 -5.33411e-16)
(2.17268 -0.180038 0)
(3.45009 -0.641402 -3.1195e-16)
(5.2481 -0.00455858 -2.17549e-16)
(-0.112517 -0.0203366 0)
(6.15382 -0.0529021 -1.67696e-16)
(-0.267186 -0.11445 2.17924e-16)
(4.03018 9.49305 -7.12879e-19)
(-0.938243 0.371261 2.27726e-16)
(0.507451 2.81419 -2.18751e-16)
(12.3422 2.0553 -3.59929e-18)
(0.503972 3.3094 2.02353e-16)
(-0.140784 0.958424 -1.42237e-19)
(1.60356 10.1075 -2.07909e-17)
(1.84753 -0.782846 -3.9081e-16)
(0.0325748 2.52454 -6.39512e-17)
(0.247467 4.15042 3.95281e-17)
(0.109409 4.68241 -1.08566e-16)
(0.0167479 3.8196 4.96108e-17)
(-0.119872 4.64673 0)
(-0.594154 0.0777515 -4.74389e-16)
(1.23841 3.40403 -3.83743e-16)
(2.6571 0.152257 0)
(0.432559 3.44927 0)
(-0.166669 -0.0713918 -1.60173e-19)
(-0.419275 -0.292671 0)
(0.0126674 3.87039 0)
(0.424018 2.82609 -2.32285e-19)
(0.513494 3.11009 1.99885e-16)
(0.0185446 1.72138 -2.62811e-16)
(0.713266 -0.670392 2.15158e-16)
(1.44711 4.48662 0)
(-0.479397 -0.340729 3.65879e-16)
(1.27807 1.76346 2.25233e-17)
(1.28923 9.61783 -6.49155e-17)
(3.39403 -0.289687 0)
(-0.00994048 -0.598315 0)
(1.87995 1.76563 0)
(0.853776 -0.604121 0)
(1.03572 1.27385 4.49865e-16)
(2.01365 0.0582756 1.74028e-17)
(3.88773 0.568038 -1.99141e-18)
(0.496836 0.253607 5.56108e-16)
(-0.531584 0.113117 2.27827e-16)
(4.91629 -0.331558 0)
(4.54443 0.105185 0)
(0.173465 -0.121204 4.84238e-16)
(1.67289 -0.352281 -1.42137e-16)
(-1.91546 -0.110035 3.56336e-16)
(-0.916961 -0.0695576 0)
(-0.265623 -0.13521 0)
(-1.06331 -0.254253 9.30341e-19)
(3.07216 -0.0338048 -1.79656e-16)
(-0.657642 -0.207366 -2.86204e-16)
(1.43763 -0.317928 -8.62671e-17)
(0.0292555 -0.0722946 -6.58333e-18)
(-2.02068 -0.294673 0)
(-0.134138 -0.575768 7.06125e-17)
(-0.877949 0.235163 -1.6049e-16)
(-0.235167 0.0469928 1.36574e-16)
(-0.893419 -0.0219715 3.71032e-16)
(-2.16919 -0.0661011 3.86875e-16)
(-0.673198 -0.172854 -5.73466e-16)
(-0.991897 0.0779437 -2.44796e-17)
(0.276165 -0.073052 -1.97767e-16)
(2.46698 -0.350156 -2.51097e-16)
(-0.06324 -0.00219218 0)
(4.83727 0.0631292 -5.51299e-17)
(0.245796 -0.0491624 1.29088e-17)
(6.26191 0.619722 -6.61033e-18)
(2.42384 2.36589 9.4283e-17)
(11.9973 0.737977 2.00671e-18)
(1.62069 -0.213095 -1.03743e-16)
(3.74296 0.00388562 0)
(1.60465 0.437449 2.00567e-16)
(9.52339 0.14166 6.76033e-18)
(7.99855 0.561487 2.32962e-18)
(-0.158152 0.418399 -3.14012e-16)
(-0.497687 0.464913 3.23525e-16)
(-0.070739 -0.0217248 3.53811e-16)
(2.91217 -0.727774 -1.0845e-16)
(4.21258 0.443046 8.57819e-18)
(-0.0944317 3.76898 0)
(3.41105 -0.25635 -7.5202e-17)
(5.47182 1.30435 -1.39418e-17)
(-0.17894 -0.578732 0)
(0.558256 0.0664232 -7.00847e-19)
(0.143449 0.453713 2.16662e-16)
(-1.41342 -0.18904 -6.33107e-16)
(4.65562 0.199281 0)
(0.0418098 -0.062779 -3.69252e-16)
(0.170926 -0.00323719 4.20082e-16)
(0.131331 3.93507 1.61327e-17)
(0.0996187 3.27052 0)
(1.92746 6.56619 6.43973e-18)
(0.587853 2.10264 3.84212e-16)
(4.8687 0.234112 0)
(0.0469589 -0.0688554 -7.85021e-16)
(0.219036 2.62659 -3.82026e-16)
(-0.895169 0.83748 5.28345e-16)
(0.284382 2.38548 -1.62405e-16)
(4.01774 0.704666 -9.53721e-19)
(-0.920592 -0.0856421 7.68188e-17)
(-1.49067 0.278626 0)
(0.0648734 -0.255938 -2.43868e-16)
(0.478663 0.00743791 0)
(-0.570915 -0.144317 0)
(-1.31009 -0.502158 -2.26734e-17)
(2.1543 0.0945928 7.91591e-17)
(0.385417 0.150848 2.41122e-16)
(-2.37908 -0.127939 1.51995e-16)
(-0.749618 -0.0761136 0)
(1.71115 -0.206062 1.59739e-16)
(-0.95698 0.120246 0)
(1.31395 -0.0366578 5.42353e-16)
(-1.15656 -0.0723182 -3.1581e-16)
(3.98427 0.0972212 3.37695e-16)
(4.81364 -0.200792 3.01182e-16)
(-0.0869836 -0.0051431 -1.19744e-16)
(3.84817 0.108433 -7.96512e-17)
(5.08428 0.286325 7.17491e-17)
(-0.369408 -0.0661264 0)
(-1.29146 -0.354705 -3.20637e-16)
(0.362029 -0.105546 1.8661e-16)
(-0.790725 -0.234068 0)
(10.2873 0.0776581 3.36496e-17)
(-0.0952499 0.0412959 2.25073e-16)
(-0.403556 0.0549002 0)
(0.0207247 4.40108 0)
(4.89333 0.0490304 6.92219e-17)
(-0.000768715 -0.0377849 0)
(0.460946 2.15204 2.50811e-16)
(-0.172177 4.645 -8.54882e-17)
(-1.31813 -0.155488 -1.8879e-16)
(0.432639 0.763337 -4.71422e-16)
(3.44703 -0.640846 2.36048e-16)
(0.753133 -0.299239 1.77904e-16)
(-1.24393 -0.249936 2.2742e-16)
(-0.23507 -0.0583901 8.93627e-17)
(-0.00619803 3.86293 -3.2856e-20)
(0.608968 -0.114106 -2.18065e-16)
(0.153124 3.59968 -4.99383e-17)
(0.0688841 -0.0558268 -4.53807e-16)
(10.827 0.502527 -2.10182e-18)
(3.14434 1.67977 7.85531e-17)
(7.13682 0.654796 -5.58592e-18)
(3.66327 -0.0787114 2.11924e-17)
(8.1362 1.4347 -3.58699e-18)
(0.224726 2.71736 2.23873e-16)
(4.3251 -0.0986341 -1.16888e-16)
(4.02552 -0.087849 8.76298e-18)
(0.605334 0.0120369 -4.81334e-17)
(0.139017 1.40331 -2.24073e-16)
(0.131219 1.73136 7.76638e-16)
(4.3537 0.538748 8.28144e-18)
(-0.219459 -0.303955 2.65614e-16)
(4.7535 1.13003 2.99025e-17)
(8.38299 0.82077 -7.61907e-18)
(0.497791 1.38384 0)
(0.178386 4.02981 -4.28103e-17)
(10.3085 0.3129 3.53191e-18)
(3.62219 1.04543 -1.31195e-17)
(10.8449 0.29819 0)
(3.89242 0.0265936 0)
(1.27369 4.33078 -1.40172e-16)
(1.26128 1.45106 -3.76914e-16)
(1.29369 3.03566 -4.41257e-17)
(2.64692 -0.0842571 -3.55657e-16)
(0.427749 -0.416921 0)
(0.514138 0.819011 1.0768e-17)
(10.7333 2.58945 -2.66263e-18)
(1.48246 4.13029 1.02312e-16)
(0.0872421 2.16281 0)
(0.43159 0.549871 -1.1147e-17)
(3.80531 1.38367 -5.076e-18)
(0.368115 4.00234 6.82751e-17)
(10.48 -0.134131 2.2248e-17)
(-0.241676 4.33755 -6.96187e-17)
(0.190132 3.7199 -4.31415e-17)
(0.00989936 3.72144 -6.79797e-17)
(1.14199 5.1127 0)
(0.236373 0.0637329 0)
(3.63631 2.49622 -7.34062e-17)
(5.18338 1.72216 0)
(1.33455 3.48191 -2.50009e-16)
(0.130686 -0.0562304 4.81141e-16)
(0.892925 0.0750202 0)
(1.89959 0.57797 -1.09372e-18)
(4.26565 -0.0785811 -6.69619e-17)
(2.26206 7.51397 -4.05336e-17)
(3.73467 0.0202494 7.34853e-17)
(0.201512 2.11403 -7.68398e-17)
(-0.0766739 4.43359 4.5012e-18)
(0.00225743 2.99844 1.23997e-16)
(0.315722 -0.104341 3.3509e-16)
(10.1579 0.684716 -1.12599e-18)
(0.51135 0.587514 -2.17476e-16)
(-0.0902243 0.0848355 3.4875e-16)
(4.11083 -0.148219 0)
(0.0245912 3.23564 4.06055e-17)
(0.47113 3.90178 4.07678e-17)
(11.2456 1.0697 0)
(0.500476 0.358729 6.06239e-16)
(-0.00535457 3.72081 2.11351e-16)
(1.4156 3.74249 -5.90041e-17)
(1.82215 1.93279 -6.31576e-17)
(1.73194 6.79682 2.84609e-16)
(0.123834 3.77057 3.60185e-16)
(0.237342 0.163618 0)
(2.86864 0.842802 2.51361e-16)
(4.11925 -0.0958392 0)
(0.239041 3.43342 -2.03182e-16)
(10.1587 1.26496 1.98295e-18)
(4.00047 6.25144 -3.10994e-17)
(5.11667 1.19886 3.11765e-17)
(0.13133 3.69553 2.50683e-16)
(1.16504 7.32093 4.77675e-17)
(3.16886 0.230752 3.02125e-17)
(0.0352033 4.68403 1.71584e-20)
(-0.148031 3.75628 -4.44503e-18)
(0.0638507 3.86069 9.58977e-17)
(0.0543902 3.7846 -4.81368e-17)
(7.51669 1.03642 8.73585e-18)
(0.00742641 3.25634 0)
(0.805342 3.55139 -5.10729e-17)
(-0.150542 4.37072 0)
(1.73459 0.263955 3.52781e-17)
(3.58115 0.0548627 6.06867e-17)
(1.90427 2.60384 1.7162e-17)
(10.123 0.93764 -7.51115e-19)
(0.499777 4.08171 0)
(0.380321 3.73564 3.23786e-17)
(-1.36713 -1.11489 6.02552e-16)
(0.543323 3.6574 3.43003e-16)
(1.97732 8.51311 0)
(0.154643 3.54455 -4.5693e-16)
(-0.0199197 -0.189526 2.11086e-16)
(0.65157 0.298948 0)
(9.68654 0.344829 -3.02929e-19)
(3.69236 -0.104016 2.03925e-18)
(3.89943 0.0458462 -1.26751e-17)
(-0.169921 4.37639 5.2647e-17)
(0.317465 3.2709 -8.19727e-17)
(3.72737 -0.124212 -5.02017e-21)
(10.2519 1.67582 -4.75268e-18)
(6.35752 1.64571 3.58337e-17)
(0.0173565 3.62737 -6.65849e-17)
(0.0228666 1.21939 1.67325e-16)
(10.2857 0.127505 -2.0445e-17)
(1.21292 1.5024 0)
(3.91647 -0.0196073 6.68726e-17)
(0.317712 2.96764 4.20618e-17)
(2.28416 5.7568 -6.85582e-17)
(0.496433 3.35496 -2.0867e-16)
(0.656202 3.88141 0)
(1.29384 8.92754 6.17088e-17)
(-0.460699 0.0548839 0)
(0.883405 1.70161 -6.96551e-17)
(0.000120124 3.48006 8.968e-17)
(3.4247 0.671098 -1.47398e-17)
(2.1117 0.130658 6.31001e-17)
(8.68872 1.22091 0)
(0.185571 4.1641 -6.05111e-20)
(9.24742 0.960905 -6.61683e-17)
(1.42726 3.90787 2.81439e-17)
(-0.0636373 1.96726 -1.18588e-20)
(-0.0203693 2.14972 -9.94509e-17)
(0.712371 1.9841 0)
(0.319734 3.29238 2.90786e-16)
(-0.134769 4.56038 1.14083e-16)
(2.18229 1.32632 2.66783e-16)
(3.76896 0.302492 0)
(6.12445 1.01877 0)
(0.366355 3.21128 1.93926e-16)
(5.84864 1.46563 -4.43819e-17)
(11.5469 0.499492 0)
(2.84784 0.892086 -3.4087e-17)
(0.0289201 -0.0352901 -2.76139e-16)
(0.437888 3.41084 2.21042e-16)
(4.80887 1.51332 -3.86377e-17)
(0.510738 1.81963 -9.08646e-17)
(1.02643 6.57492 -1.68542e-16)
(0.135621 3.62936 -6.09303e-17)
(2.78045 4.60562 0)
(0.259121 2.27117 0)
(0.386708 0.594721 2.40578e-16)
(0.0473695 1.97771 1.07317e-17)
(0.682436 1.14664 -3.05991e-16)
(0.264161 0.0206787 -2.4617e-16)
(3.3398 0.497958 -3.91092e-18)
(0.241633 1.40007 1.13106e-16)
(0.0501378 2.43189 -6.62981e-17)
(3.77023 -0.13621 -4.65035e-17)
(2.80182 1.191 2.34655e-17)
(0.0760758 3.51925 -4.05747e-16)
(0.463046 3.28459 -3.70152e-16)
(4.42574 1.01805 -2.02257e-17)
(4.13848 3.43096 2.5679e-16)
(1.4688 0.0899187 0)
(-1.89384 0.014942 -8.36475e-17)
(-0.304702 -0.546081 0)
(0.476472 3.47424 -3.74481e-16)
(4.75117 2.03525 0)
(1.34592 3.18665 -1.7161e-18)
(3.80209 0.42821 1.59181e-17)
(0.3316 -0.115874 -2.62349e-17)
(5.91474 4.89687 1.22494e-18)
(2.18454 1.53905 2.48584e-17)
(4.16407 2.22011 0)
(0.231701 0.0821364 0)
(0.408759 1.48126 0)
(1.46775 3.52987 4.66297e-16)
(-0.986588 0.036945 -2.6289e-16)
(0.210392 0.0838704 0)
(0.380593 3.48866 4.46675e-16)
(2.54294 0.151772 2.90654e-17)
(3.97534 -0.0406948 5.94019e-17)
(0.729647 2.73558 2.44796e-16)
(0.131321 -0.219506 2.12676e-16)
(0.435668 3.47848 -4.42227e-16)
(-0.454223 0.246654 -3.92453e-16)
(3.61595 0.0010357 -1.46684e-17)
(0.133121 1.46081 -5.03341e-17)
(0.279793 3.43865 0)
(7.03311 1.10095 6.23578e-18)
(1.51795 3.70635 -2.07649e-16)
(-0.435865 -1.11947 0)
(0.187636 -0.0749163 0)
(0.0720801 1.54475 3.90827e-17)
(3.61395 4.8145 9.8864e-17)
(0.286071 2.69674 0)
(0.44964 3.51155 2.13314e-16)
(-0.404365 3.66804 0)
(2.84829 0.652259 2.31596e-17)
(9.43099 0.660399 5.97649e-17)
(3.55295 3.80196 -1.86036e-16)
(0.455188 1.78136 0)
(0.771092 4.49116 1.99358e-16)
(0.778442 -0.630856 -3.81039e-16)
(0.269971 1.1991 2.7603e-16)
(2.57539 2.83296 -8.48102e-19)
(0.967359 -0.968263 2.90054e-16)
(1.89199 1.59629 -1.83537e-16)
(9.20086 2.857 1.79779e-18)
(-0.475261 0.467172 -7.83257e-17)
(10.1041 0.180903 -1.5175e-19)
(0.41254 3.08538 -3.35415e-19)
(-0.193793 0.433885 -4.65939e-16)
(0.00225495 2.03473 -4.19971e-17)
(0.265661 2.39078 -8.1998e-17)
(3.34377 0.338894 3.63259e-18)
(0.227075 -0.113329 -4.91265e-17)
(7.66977 5.66297 1.5763e-17)
(0.472544 3.48805 2.08201e-16)
(11.5686 3.67114 -3.97743e-19)
(0.0354219 3.46178 5.16091e-17)
(0.523791 4.47144 1.44227e-17)
(1.4132 8.7179 -7.63337e-17)
(-0.738329 -0.121416 -2.16729e-16)
(9.18784 0.249945 9.72382e-17)
(1.65805 2.23137 0)
(0.279339 2.89648 1.14574e-16)
(7.90164 1.1616 -1.10719e-18)
(2.73627 2.29532 -2.45505e-17)
(0.718827 -0.0508923 -8.81372e-17)
(-0.318531 2.49517 0)
(7.77077 1.66007 -2.24741e-18)
(0.316762 3.09621 4.49207e-16)
(1.52125 3.91371 1.06148e-16)
(0.383687 0.20257 0)
(1.33003 -0.762375 1.52063e-16)
(9.69536 4.92853 -1.18404e-17)
(0.539593 3.62797 5.44193e-17)
(1.3163 2.08493 -7.59346e-16)
(0.394099 3.60136 3.31447e-18)
(1.19606 3.84716 0)
(1.84977 2.4946 -3.13086e-17)
(3.51201 0.130325 1.18071e-16)
(1.08342 2.04424 -2.34351e-16)
(1.00237 2.09545 2.33447e-16)
(3.82619 -0.132195 1.50843e-16)
(6.9653 1.66385 -4.55966e-18)
(0.297086 1.1623 1.00576e-19)
(0.398612 3.15766 2.26049e-19)
(0.384225 3.25478 -1.51455e-16)
(0.415051 3.52715 -4.27854e-16)
(0.913718 3.8444 -5.4615e-17)
(2.79702 3.36396 -1.0063e-16)
(0.252708 3.0533 3.33242e-17)
(5.53937 2.05825 1.25644e-16)
(0.285442 3.31242 -3.52845e-17)
(1.24612 0.232228 -9.26104e-17)
(0.505571 3.10139 -2.60631e-20)
(0.879528 4.0772 9.17302e-17)
(-0.203545 -0.0632495 1.05291e-16)
(3.78579 0.203106 3.127e-17)
(0.556139 3.06213 1.82893e-17)
(3.23356 3.05372 0)
(1.40344 3.30043 0)
(0.610649 3.02091 8.85755e-18)
(0.25261 2.35825 1.86687e-16)
(0.45387 3.69293 -1.97162e-17)
(0.620007 -0.145961 2.37637e-16)
(1.98028 3.05015 2.28829e-20)
(-0.172902 -0.633709 0)
(1.41245 3.84392 -1.94514e-16)
(0.662708 2.96147 0)
(-0.0164744 2.96371 -1.00752e-16)
(0.161104 2.34556 -5.12629e-16)
(2.29881 1.70679 -1.08022e-16)
(2.30324 3.0503 4.34266e-17)
(0.713192 2.86683 1.9422e-17)
(-0.0171078 -0.376529 4.65456e-16)
(-0.232031 -0.0812235 1.16668e-19)
(3.91354 0.121426 8.72008e-17)
(-1.24605 0.699809 -2.84543e-16)
(11.9685 1.73185 2.16194e-18)
(0.256425 3.23644 1.99488e-16)
(0.219873 3.33937 2.91467e-16)
(0.268597 3.30387 -1.88148e-19)
(0.239773 3.49848 0)
(0.295654 3.28296 -1.86105e-16)
(0.327848 3.25521 -1.34552e-16)
(0.311261 3.22528 -1.36901e-16)
(0.347303 3.28565 -2.85987e-16)
(0.359026 3.239 4.03875e-16)
(0.361329 3.2979 1.11629e-16)
(0.406793 -0.954776 0)
(10.2072 0.402381 1.32557e-18)
(0.3697 -0.913838 -1.11072e-16)
(0.451715 -0.558925 3.15692e-16)
(0.66225 -0.227314 -4.63021e-16)
(0.49696 -0.156566 1.53992e-19)
(0.34177 0.0969513 0)
(0.308702 -0.0064766 -1.1165e-16)
(3.35058 1.41168 4.46275e-17)
(0.983086 0.601027 6.49108e-17)
(1.4112 0.774191 5.90238e-17)
(-0.282527 -0.800306 -2.65319e-16)
(1.9026 -0.21107 -1.4619e-16)
(-0.149068 -0.507904 0)
(1.12737 0.103884 -8.73294e-17)
(2.5159 -0.459701 2.2581e-16)
(0.942634 0.430315 9.44857e-17)
(8.57293 0.336013 -2.24591e-18)
(0.0867782 -0.444695 0)
(-0.912365 -0.21802 3.47188e-16)
(0.730559 0.592537 -1.25528e-16)
(0.642451 -0.873634 2.27615e-16)
(8.65724 0.155312 -3.02537e-17)
(1.29613 -0.521857 -2.46413e-16)
(-0.795207 -0.465447 -1.92589e-16)
(0.570424 -1.07393 2.62874e-16)
(-0.0459552 -0.375907 4.12975e-16)
(8.63729 0.0133034 1.30683e-19)
(-0.0247726 -0.860728 -2.54123e-16)
(8.74814 -0.0576318 -2.60278e-17)
(1.57321 -0.714384 -6.04381e-16)
(1.35891 -0.722849 0)
(-0.0291823 -0.178755 1.98416e-19)
(1.35412 0.192196 0)
(10.2969 0.173847 3.72126e-17)
(10.2668 0.292921 1.16481e-16)
(-0.416434 -0.579319 1.40865e-16)
(0.238062 -0.262464 -1.42531e-16)
(0.453888 0.0539581 7.33203e-16)
(2.37267 -0.648894 0)
(0.495156 0.160822 0)
(0.404582 0.175201 0)
(10.0918 0.230993 2.55063e-17)
(2.8313 0.0440147 2.01824e-16)
(0.489459 0.176603 1.93469e-17)
(1.6734 0.0627087 2.24895e-16)
(-0.0820081 -0.124636 0)
(0.512841 0.0637951 0)
(-1.08504 -0.156489 2.44342e-17)
(0.191298 0.104327 2.18174e-16)
(9.65819 0.316712 -7.36603e-17)
(2.55653 -0.385961 1.90557e-16)
(-1.19618 -0.0981753 1.85691e-16)
(0.102225 0.205333 4.1365e-16)
(2.49595 0.01154 -2.62467e-16)
(-0.105087 -0.148637 -2.30229e-16)
(-1.24293 0.216703 1.63163e-16)
(9.46423 0.538828 1.71704e-17)
(2.01511 -0.179819 -2.54131e-16)
(-0.0213675 0.958239 -5.56919e-16)
(0.102169 1.82954 1.73829e-16)
(-0.100794 0.371646 -4.96125e-16)
(-0.20365 0.496891 1.07121e-15)
(0.141298 1.24865 -2.02574e-16)
(9.53129 0.759048 -3.59049e-17)
(10.0081 0.489137 -9.75723e-17)
(-0.118699 -0.697541 -3.48871e-16)
(2.46379 0.160607 1.98945e-16)
(1.52141 -0.0337602 1.96674e-16)
(0.0035116 0.740049 0)
(0.00795555 0.198063 3.05213e-16)
(1.48603 -0.324078 2.80961e-16)
(-0.103675 -0.126623 0)
(-1.38935 0.211662 0)
(0.0930801 1.30283 2.21187e-16)
(3.73358 0.0495512 -1.40274e-16)
(0.0317157 1.87802 -8.75802e-17)
(0.070908 0.302072 1.84682e-16)
(-0.666007 -0.917913 1.8511e-16)
(10.0823 0.724804 -3.13318e-17)
(1.71588 3.00538 0)
(1.82828 0.28319 -3.97177e-16)
(0.441957 1.30332 -2.1632e-16)
(3.8937 -0.110881 -5.65633e-17)
(-0.0720133 0.494378 -1.28721e-16)
(3.61615 -0.167994 -8.46845e-17)
(9.74045 1.15154 5.90872e-17)
(0.036952 3.83755 -4.97618e-19)
(1.01006 -0.928852 0)
(-0.0580226 -0.125542 2.80707e-17)
(2.20902 0.858697 1.81001e-16)
(1.35458 0.702517 -3.21042e-16)
(-0.0256548 1.07077 0)
(-0.00797894 -0.60242 0)
(0.369197 3.36099 0)
(-1.19749 1.45433 3.95314e-16)
(-0.179085 -0.132057 3.28268e-18)
(0.236648 4.49079 2.88506e-17)
(0.0714153 0.588911 8.33146e-17)
(1.46374 -0.45803 2.31271e-16)
(0.452439 2.79164 1.91121e-16)
(0.119178 0.980083 -3.37948e-16)
(0.143974 2.66696 -8.00497e-17)
(1.94777 0.614899 4.74857e-16)
(0.330693 1.97849 4.57126e-16)
(-0.159517 -0.303296 7.20997e-17)
(1.20386 1.6422 -9.26487e-18)
(0.781189 6.22307 -4.8104e-17)
(0.421589 3.00034 0)
(0.351688 3.34654 0)
(1.55784 2.48809 3.19399e-16)
(0.142265 1.10789 3.82361e-16)
(0.233646 3.16503 0)
(0.916884 2.7904 -4.22119e-16)
(-0.722253 -0.487646 -3.95084e-16)
(-0.990514 -0.272232 -6.40153e-16)
(3.55508 -0.15963 1.43305e-17)
(0.132871 1.7659 -1.72312e-16)
(0.376896 5.37998 3.664e-18)
(2.19948 6.45864 0)
(0.33767 3.31776 5.34479e-17)
(10.0456 1.50434 -5.61596e-18)
(4.67935 3.067 7.2389e-17)
(0.525751 1.60459 0)
(4.9188 7.45577 0)
(0.572716 1.40132 1.04491e-16)
(1.20143 1.21473 0)
(4.07347 -0.0958485 -8.69237e-18)
(0.26639 2.35362 -1.20685e-16)
(0.273847 3.38802 2.44164e-16)
(0.616748 2.46862 -4.45612e-17)
(4.51769 5.76732 -3.72966e-17)
(0.377934 3.22975 -7.75777e-17)
(2.53141 0.615386 -1.08793e-16)
(0.0118796 0.0383918 1.12829e-16)
(1.17833 4.23117 5.07322e-17)
(3.82172 -0.136931 1.03184e-16)
(-0.00662284 2.93198 0)
(0.352748 3.12411 1.49958e-17)
(0.144237 3.39302 3.53069e-19)
(0.576423 2.54999 0)
(2.34652 6.29739 2.7363e-18)
(1.94266 4.07859 1.64445e-16)
(1.86648 3.39672 -1.48408e-16)
(2.29173 3.45465 2.00269e-16)
(0.0506465 3.63218 3.38752e-20)
(0.282017 4.3802 -1.47621e-16)
(2.01116 1.02269 -7.12115e-16)
(0.392111 0.842492 0)
(0.578353 0.812727 1.34327e-16)
(0.322909 2.83224 -3.70132e-17)
(-0.0968892 2.09075 4.58956e-17)
(1.68166 1.39382 -3.82907e-19)
(1.96418 2.31665 -1.38882e-16)
(0.136305 3.273 -4.02241e-19)
(0.346483 3.23851 0)
(-0.732939 -0.708685 -1.95279e-16)
(1.35158 2.31907 6.11515e-16)
(4.2899 1.50423 0)
(10.2209 0.492381 2.12771e-18)
(1.10062 7.75736 3.01962e-17)
(0.0566263 1.00686 1.02909e-17)
(0.781354 3.23285 5.6473e-17)
(0.987659 0.355591 0)
(1.94906 4.90873 1.28332e-16)
(1.64753 3.84384 -2.60574e-16)
(2.46597 12.1502 4.53876e-18)
(2.80286 4.05093 7.05976e-17)
(1.53436 -0.0458991 -5.03539e-17)
(0.279521 -0.366354 -3.06755e-16)
(3.70861 -0.160342 5.42891e-17)
(0.659972 1.25223 -1.39102e-16)
(0.906684 2.0295 3.94334e-16)
(0.370511 3.08128 -2.12046e-17)
(0.25275 3.61998 -8.10422e-17)
(0.31642 3.45691 2.22822e-16)
(11.3577 0.110365 -9.44619e-18)
(3.63858 -0.0461986 -3.45173e-17)
(-0.0566308 2.51304 -1.30183e-16)
(1.32783 2.92649 -3.02828e-17)
(4.19404 0.855804 -1.41258e-17)
(1.74796 0.983055 -3.44333e-16)
(-0.171161 0.0792073 -1.13628e-16)
(1.03681 2.5809 2.07226e-16)
(0.492139 1.48265 1.45059e-16)
(1.00534 5.14149 -8.30025e-17)
(0.36846 3.34955 -2.34313e-16)
(0.252805 0.551698 0)
(2.71058 5.05226 -6.80598e-17)
(0.351258 -0.144344 0)
(0.306662 1.53695 1.5856e-16)
(0.868284 0.62672 0)
(-1.35305 -0.0774154 4.39717e-16)
(0.379889 3.20893 -2.32742e-16)
(0.643016 2.36705 6.02912e-17)
(1.69005 3.96448 1.08276e-16)
(6.09423 0.435676 -6.52332e-17)
(3.42985 0.229458 1.15775e-16)
(0.390607 2.78108 -2.19914e-16)
(1.33531 0.410679 1.07366e-16)
(0.321347 3.51543 -2.11084e-16)
(5.1315 2.64261 -2.39402e-16)
(3.2803 0.0261765 5.04112e-17)
(0.857077 3.11283 0)
(-0.0458777 2.24778 -4.16605e-17)
(0.380975 1.31065 1.11162e-16)
(1.44097 4.62196 -2.50772e-17)
(1.38709 3.54813 1.57437e-16)
(1.67837 0.280407 1.51043e-16)
(2.14463 2.2599 2.37543e-17)
(0.224966 2.42516 1.53888e-16)
(0.332474 3.31469 -8.27453e-18)
(0.0980226 3.14321 1.5075e-16)
(2.16659 4.08772 -1.26374e-16)
(-0.0290801 -0.388403 7.43899e-17)
(1.41714 3.70421 -8.87655e-17)
(0.429121 3.30847 -2.24693e-16)
(1.48375 5.69688 -5.49768e-17)
(-0.66052 2.38729 0)
(9.04695 0.451581 -1.6529e-16)
(7.56236 1.54503 1.22068e-17)
(0.377773 3.33088 1.65681e-16)
(-0.0219033 1.41649 6.82662e-16)
(0.495284 1.83088 4.486e-17)
(0.13479 1.73878 0)
(4.06177 0.431507 -1.3573e-16)
(-0.357699 0.249233 7.93827e-17)
(-0.80255 1.67429 -2.92893e-16)
(1.00107 0.960164 8.07493e-19)
(0.822539 -0.448492 -1.67623e-17)
(0.781619 2.74499 7.08552e-17)
(4.54274 0.632557 -8.05285e-18)
(9.32729 0.45336 0)
(0.373325 3.31944 0)
(0.12171 2.48748 -7.16224e-17)
(-0.906783 -0.597914 2.22816e-16)
(9.93484 0.523434 0)
(0.315913 0.343947 -5.00729e-19)
(1.74293 4.36252 -3.19882e-16)
(2.6136 0.335099 0)
(2.62204 0.495499 0)
(2.43305 1.44089 -1.33791e-16)
(2.14397 2.70354 2.57335e-17)
(8.73111 0.391028 0)
(0.939922 -0.573224 1.93198e-16)
(-0.899218 -0.0638693 -1.51791e-16)
(0.33419 2.79312 0)
(0.500555 2.86907 0)
(-0.292593 -0.681238 2.03896e-16)
(3.59393 0.168457 -5.40565e-18)
(0.26162 0.232361 1.65923e-16)
(-0.177538 1.43143 -3.53824e-16)
(0.173926 2.82236 7.52958e-17)
(3.3482 0.146634 0)
(2.94728 0.0850927 0)
(0.31479 3.27936 -2.08167e-16)
(5.39314 0.254036 -2.09582e-18)
(2.22252 3.40701 -2.02971e-16)
(2.79364 0.0434732 1.35459e-17)
(4.41955 4.65067 -3.89139e-18)
(4.56142 0.223467 0)
(1.59438 3.25407 0)
(0.536378 2.61994 -9.13233e-18)
(3.131 0.119988 0)
(0.00972635 2.32974 0)
(10.8057 0.60661 -1.18398e-18)
(0.212043 3.35889 -2.89389e-16)
(4.95409 0.239224 0)
(1.32579 1.65909 -4.89572e-18)
(0.674822 3.57705 3.44429e-17)
(0.201073 3.47837 1.05524e-16)
(1.34304 1.16019 -2.15553e-16)
(0.676299 3.62125 -4.37084e-18)
(0.0754693 3.52617 4.44954e-17)
(-1.08701 0.149737 5.93592e-20)
(0.187033 2.23763 -4.87272e-16)
(0.269434 2.32137 4.79202e-19)
(0.194936 1.6414 2.64585e-16)
(2.41177 0.0304783 -2.49816e-16)
(0.373014 3.35388 2.11731e-16)
(0.121367 2.46379 0)
(0.00921811 4.49218 2.24023e-18)
(9.82526 0.303022 -9.15726e-18)
(0.461914 2.15722 0)
(0.323464 0.164728 6.25537e-16)
(4.56989 0.412852 1.49578e-17)
(-0.425703 0.952988 0)
(0.124727 2.0195 4.4232e-16)
(3.10765 7.60312 0)
(1.61989 8.01392 2.49021e-17)
(0.156414 -0.380643 0)
(5.39974 0.883297 1.90784e-17)
(-0.190126 3.02284 -2.89432e-16)
(3.11396 0.100169 -8.97956e-17)
(1.90447 0.37675 -2.14165e-17)
(-0.119537 1.01189 2.86777e-16)
(0.192553 2.9703 -6.92432e-17)
(5.8274 0.271791 7.60717e-18)
(8.27454 0.327379 0)
(3.51257 -0.142296 -1.66224e-17)
(0.0859899 3.39351 0)
(0.341069 3.48604 0)
(2.93177 0.203566 -1.14551e-16)
(2.02922 4.00817 0)
(0.240171 3.14875 0)
(0.917889 3.93994 -3.78879e-17)
(2.63401 0.327866 0)
(0.0608315 -0.239309 2.13072e-16)
(0.36994 3.79827 6.97329e-17)
(-0.0804441 -0.524774 2.47572e-16)
(0.338245 0.627135 1.87397e-16)
(0.84465 0.132923 2.23182e-17)
(4.11446 0.348102 -5.20826e-17)
(0.826214 -0.729205 -3.95559e-16)
(13.2436 2.64019 0)
(0.508351 4.00703 0)
(0.241828 3.35345 -2.26715e-16)
(0.149672 0.0876465 4.50947e-20)
(0.671522 3.95449 1.45673e-17)
(1.01932 0.507405 2.20481e-17)
(10.444 2.17969 3.24415e-18)
(3.92008 1.42614 4.48493e-17)
(0.0262982 0.917361 -9.97775e-17)
(0.0139204 0.0984059 4.42865e-16)
(-0.279939 -0.169847 -3.51029e-16)
(0.212149 3.33158 0)
(2.60822 -0.783788 3.70904e-16)
(3.30947 -0.64781 -1.79494e-16)
(0.709828 3.26002 -3.60942e-17)
(1.20714 0.0337696 -1.91589e-17)
(0.121956 1.80773 -4.80681e-16)
(-0.0374286 3.83218 -6.73214e-18)
(0.707555 4.26607 1.88676e-16)
(0.185068 3.13886 1.09573e-16)
(0.240488 3.36817 0)
(1.9639 2.14347 9.31976e-17)
(2.73329 -0.0275129 5.16478e-17)
(0.126792 0.782115 0)
(0.436016 3.36327 -1.92591e-16)
(0.113274 0.697554 -7.41541e-16)
(1.74025 2.95268 0)
(0.278389 0.082207 -1.88676e-16)
(0.505048 2.13382 0)
(-0.769019 -0.608872 -1.01583e-18)
(3.8798 0.190476 -2.51377e-18)
(9.4657 1.9812 1.99442e-18)
(1.86033 3.91814 0)
(1.61617 2.07108 2.10344e-16)
(0.130618 3.96366 -1.28919e-16)
(1.83932 2.46765 0)
(1.88177 -0.11768 -1.12761e-16)
(-0.284487 0.273772 -1.68335e-16)
(-0.00467442 3.21537 -1.30728e-16)
(0.411517 3.34425 1.49883e-16)
(0.0773461 3.07625 2.94925e-16)
(2.70571 0.00199382 -2.83252e-17)
(2.91725 -0.202628 0)
(-0.150802 3.22199 0)
(2.97096 -0.219908 2.80744e-17)
(0.240396 1.94768 2.18303e-16)
(-0.00468556 3.85377 -4.62752e-17)
(0.987543 0.350811 1.28664e-16)
(0.00785746 0.116505 -2.93646e-16)
(0.183542 3.24123 0)
(0.304661 3.13578 1.20211e-16)
(9.63027 7.52561 -1.33906e-18)
(0.210362 3.06188 3.9433e-17)
(0.616496 3.7109 -1.70437e-17)
(0.369369 1.11146 -1.119e-16)
(1.70517 4.05013 2.09452e-16)
(4.61373 1.44182 2.60167e-18)
(3.81316 0.0479478 -1.15627e-16)
(0.751575 0.46302 0)
(11.0235 0.83257 2.30278e-18)
(0.298375 3.34634 8.79169e-17)
(8.37131 0.539087 1.14369e-18)
(0.2769 2.8845 -1.38984e-16)
(-0.333434 -0.686596 -1.85789e-16)
(0.325771 3.29992 -3.94711e-16)
(0.466122 3.35949 4.74857e-19)
(0.219016 -0.0296423 5.16753e-16)
(1.77293 2.94532 -1.36073e-16)
(0.580151 1.79091 -4.89551e-16)
(0.349301 3.26733 -1.11402e-19)
(4.21479 0.208246 1.02243e-17)
(0.0647065 3.25983 -6.61649e-17)
(0.27567 3.35284 4.32424e-17)
(0.135095 4.342 -2.79361e-18)
(-0.84761 -0.353987 0)
(1.33371 -0.353864 0)
(0.327381 3.28307 -1.08247e-16)
(6.31721 0.287276 1.72965e-18)
(7.86804 0.21387 -1.33639e-17)
(0.0833167 3.86068 1.93726e-16)
(1.8086 2.2584 -3.49693e-17)
(2.54359 0.00929652 6.88903e-17)
(3.93404 0.656041 9.67545e-18)
(0.322015 3.35501 7.3721e-17)
(0.492796 2.68309 -1.41601e-16)
(2.37993 1.11648 4.61109e-16)
(0.40524 2.1522 -1.39188e-16)
(0.0440594 0.0571508 0)
(0.155993 -0.0701168 -1.40929e-16)
(0.145376 1.94913 -1.34402e-16)
(0.87305 2.27816 0)
(7.96604 0.936406 -1.04454e-17)
(0.246166 0.0894015 1.15108e-16)
(5.55171 0.230099 0)
(-0.0703864 0.470548 0)
(6.27073 2.49078 -2.99436e-17)
(0.0109674 3.48362 2.3092e-17)
(0.290529 4.33845 -7.7493e-18)
(0.196836 1.04102 0)
(-0.160457 -0.0274865 1.01773e-16)
(-0.934424 -0.162686 8.57873e-16)
(1.14885 -0.468966 -6.05726e-16)
(4.01992 0.171961 -3.74818e-17)
(2.1248 2.13336 7.67041e-17)
(-1.10413 -0.0993442 2.58755e-16)
(0.497984 -0.21311 0)
(0.432223 0.612296 -9.08253e-17)
(2.00048 2.83642 -2.13642e-18)
(1.63249 3.32262 8.41088e-17)
(1.68831 2.14536 -3.10602e-17)
(0.27683 2.8252 0)
(0.55957 3.40663 1.12965e-16)
(0.318381 2.88315 1.15073e-16)
(3.13918 -0.467003 0)
(9.46208 0.449175 1.44876e-16)
(0.705359 3.45233 0)
(0.367036 3.28716 0)
(3.13348 4.32855 -2.71616e-18)
(0.410993 3.3931 2.46673e-16)
(0.346642 3.97482 1.5474e-16)
(3.93121 0.443022 -2.01563e-16)
(0.244697 -0.372375 2.68012e-16)
(3.90926 -0.158733 1.75459e-16)
(0.0413001 2.61002 0)
(0.594733 3.52131 5.23178e-20)
(0.309475 2.65886 -2.39438e-16)
(8.15819 -0.116996 -6.62164e-17)
(1.79283 -0.211244 5.42073e-17)
(0.245547 3.2984 3.83739e-16)
(0.585685 0.479605 -1.31931e-16)
(2.09205 1.55106 1.43295e-17)
(6.71321 -0.19678 4.11178e-17)
(3.99153 -0.0329907 -6.71134e-17)
(0.186345 8.22631 8.77166e-17)
(0.0494697 3.07589 -9.64394e-20)
(0.0637278 2.9641 1.20399e-16)
(0.0746297 2.68797 1.13925e-18)
(0.0695198 2.83263 0)
(0.125921 9.19404 -7.6441e-17)
(0.0268313 3.13542 -2.24626e-16)
(0.0645652 3.6723 -9.76767e-19)
(0.0875283 3.48892 -2.74713e-17)
(0.0736837 3.55334 0)
(0.0651183 3.8212 5.52417e-17)
(0.21006 7.43366 0)
(0.177925 10.1082 0)
(0.0471572 3.99715 -7.26426e-17)
(0.347298 5.91731 -4.8963e-18)
(0.280348 6.68295 -4.46867e-18)
(0.0212732 4.09093 2.30929e-17)
(-0.00578006 3.10392 1.16908e-16)
(-0.0327315 3.06253 0)
(-0.02078 4.0636 -3.18903e-17)
(-0.0401718 3.02377 0)
(-0.0345313 3.02682 0)
(-0.0700428 3.95864 2.39396e-17)
(-0.0244274 3.04146 0)
(0.317627 2.76283 1.3251e-16)
(5.54668 3.94881 -5.91506e-17)
(0.310636 -0.844451 2.71923e-16)
(-0.413697 1.77952 0)
(1.48617 3.71194 -1.28869e-16)
(-1.58354 0.20783 1.04073e-16)
(0.134671 0.515339 5.62008e-16)
(8.53606 1.80849 -1.70775e-17)
(0.0655736 3.48549 -2.96509e-17)
(0.828235 4.78374 0)
(-0.885364 0.46993 5.55615e-16)
(0.883672 -0.0534435 3.39392e-16)
(2.69151 0.574929 0)
(5.59388 -0.0818409 3.23064e-17)
(1.03138 -0.160954 -2.52716e-16)
(-0.0644934 -0.141409 -2.16661e-16)
(6.15822 3.14161 1.04255e-16)
(2.17913 3.46354 -5.65611e-17)
(0.35794 3.03485 1.2365e-16)
(2.06981 1.42216 -4.82235e-17)
(3.7378 0.0134386 -7.60598e-17)
(8.12088 0.800401 -2.90661e-19)
(-0.896195 0.308734 -3.32622e-16)
(-0.0159173 3.06765 0)
(1.3877 3.50967 4.1815e-16)
(1.86326 2.6693 -1.72566e-19)
(0.822399 0.0321512 7.11577e-17)
(0.705578 -0.000960241 0)
(10.4785 0.113197 2.91212e-17)
(0.0158406 0.897707 -1.77296e-16)
(2.72382 0.408161 3.71923e-18)
(0.246856 2.5429 1.65603e-16)
(0.229216 3.25808 0)
(0.499723 1.61756 1.16168e-17)
(0.390346 1.69341 -9.6602e-17)
(8.86128 2.66078 2.45329e-17)
(0.288695 -0.660698 3.06593e-16)
(0.136509 -0.546522 -3.00816e-16)
(-0.671364 -0.379777 2.20698e-16)
(1.96083 -0.24342 -6.00641e-17)
(0.544916 2.10906 4.87369e-17)
(0.0326691 2.56289 -3.30214e-21)
(0.157019 3.86689 -2.35048e-17)
(-0.124805 1.86165 0)
(1.45973 1.7512 3.33836e-19)
(0.192271 0.328084 7.35568e-17)
(2.79086 0.653342 1.11811e-16)
(0.352065 -0.56036 0)
(0.384359 0.425313 -4.47994e-16)
(-0.137743 0.147549 0)
(10.8922 0.65269 2.08507e-18)
(0.317229 2.83771 0)
(1.10656 1.67991 -9.00129e-17)
(0.196394 1.3483 1.80351e-16)
(0.00211626 -0.140282 3.36709e-16)
(2.7447 0.186135 0)
(3.40258 -0.019088 -2.72232e-17)
(0.01934 3.04178 4.91384e-19)
(0.240717 -0.239618 0)
(2.84943 -0.0335624 0)
(0.827789 1.50493 -3.31531e-16)
(-0.571618 3.43026 -1.26895e-17)
(7.3481 0.026023 0)
(0.238406 0.0266799 -1.43606e-16)
(4.1424 0.0330274 -1.76596e-16)
(-0.073597 -0.0736807 0)
(0.182658 2.94277 3.44119e-16)
(0.625858 -0.235237 -1.50851e-16)