/*--------------------------------*- C++ -*----------------------------------*\
| =========                 |                                                 |
| \\      /  F ield         | OpenFOAM: The Open Source CFD Toolbox           |
|  \\    /   O peration     | Version:  v1912                                 |
|   \\  /    A nd           | Website:  www.openfoam.com                      |
|    \\/     M anipulation  |                                                 |
\*---------------------------------------------------------------------------*/
FoamFile
{
    version     2.0;
    format      ascii;
    class       surfaceScalarField;
    location    "0.16";
    object      phi;
}
// * * * * * * * * * * * * * * * * * * * * * * * * * * * * * * * * * * * * * //

dimensions      [0 3 -1 0 0 0 0];
oriented        oriented;


internalField   nonuniform List<scalar> 
2708
(
-6.84301e-05
0.000123353
3.2943e-05
-8.7866e-05
-0.000248792
0.000391691
-6.24535e-05
-8.04455e-05
0.00116265
0.000356486
-0.000919207
-0.00059993
-0.000316087
0.000167689
2.94725e-05
0.000118926
-2.10195e-05
1.43302e-05
0.000160225
-0.000153535
-0.00038924
-0.000435223
0.000297834
0.000526628
0.00027873
7.45328e-05
0.00060492
-0.000824523
0.0010067
-0.000787097
-0.000228478
0.000239221
-0.000283902
0.000273159
-0.000234939
4.71158e-07
-1.08859e-06
0.000235557
-0.000303145
2.75133e-05
-2.0873e-05
0.000296505
-6.87372e-05
0.000225084
-0.000156347
-0.000102005
0.000114018
-2.21014e-05
1.00882e-05
0.000845339
-0.000861281
4.39238e-05
-2.79818e-05
0.000367063
-8.13374e-05
0.000136111
-0.000421836
6.847e-05
-8.12386e-05
1.27686e-05
-0.000115889
0.000293862
0.00018909
0.000138935
-0.000387613
0.000335909
-8.72308e-05
-0.000149624
0.000101066
4.85586e-05
-0.000285152
-2.72183e-05
9.22524e-06
7.68937e-05
3.4162e-05
1.55186e-06
-0.000112608
-6.19136e-05
-7.28017e-05
-0.000208245
-7.69438e-06
-0.000286899
0.000502838
0.000814586
6.03398e-05
-2.95876e-05
0.000390065
5.4592e-05
-0.000406953
-3.77037e-05
-0.00023646
3.58973e-05
-8.45894e-05
-0.000397308
0.000320386
-0.000181004
0.000257926
3.74209e-05
-2.08884e-05
-0.000877813
-0.00103632
8.41741e-05
0.000954875
-2.72497e-06
0.000507342
-0.000223345
-0.000248549
-3.54481e-05
-0.00044044
0.000979489
-0.000561738
2.26885e-05
0.000953481
0.000471713
-0.00063954
-0.000785654
0.000170612
8.42402e-05
-0.000254853
0.000233737
-0.000225575
-8.16182e-06
0.00036822
-0.000335084
-3.31362e-05
-0.000794087
0.000894554
0.000420902
-0.000521369
-0.000134557
4.27444e-05
0.000174574
-8.2761e-05
-0.00118284
0.00113942
-5.14516e-05
9.48767e-05
-0.000181609
0.000274654
0.000481226
-0.00139731
-3.45625e-05
0.000249023
-0.000360452
-0.000266193
4.90418e-05
0.000577603
-3.49233e-05
9.04017e-06
2.58831e-05
1.60384e-05
-4.95918e-05
-0.000255536
0.000289089
5.06251e-05
-6.38468e-05
-0.000342283
0.000355504
3.03509e-05
3.04681e-05
-7.00806e-05
9.2615e-06
-7.15456e-06
-0.000176712
3.69882e-05
0.000146878
1.56187e-05
0.000510416
-0.000269014
-0.00025702
-5.59297e-05
5.41924e-05
-0.000972021
0.000973758
-0.000663328
0.00118658
-0.000893745
0.00037049
2.96415e-05
-0.00108262
0.00110848
-5.5498e-05
-0.000465735
5.01091e-05
0.000454338
-3.8712e-05
-5.77824e-05
-1.22095e-05
-0.000164947
-0.000256185
0.000154756
-0.000127049
-0.000362677
0.000219721
5.10716e-05
9.18845e-05
-0.000340324
0.000204459
9.65159e-05
3.9349e-05
-0.000963902
8.22434e-05
0.000956912
-7.52536e-05
0.000295065
-0.000297972
-0.000131713
0.00013462
0.000241638
-0.000291247
4.07299e-05
8.87883e-06
-0.000567477
0.000560234
3.43635e-05
-5.50592e-05
9.75895e-05
0.000259608
-0.000169976
-7.40134e-05
-0.000167917
-0.000398736
0.000262329
0.000304324
0.000238646
-0.000600593
-0.00043214
-0.000428407
0.000473859
0.00101448
-0.00105994
0.000848802
-0.000172043
-4.6722e-05
-0.000630037
0.000129348
-0.000155443
0.000198775
-0.00017268
0.000373582
3.35998e-05
0.000130387
-0.000682258
0.000484348
6.75226e-05
-0.000626634
0.00103338
-0.000737166
0.000330423
0.000249775
0.000418845
-0.000293989
0.000121432
0.000276913
-0.000104356
0.000139551
0.000182611
-0.000125973
-0.000196189
5.16493e-05
0.000118963
-1.03121e-05
-0.000197222
0.000223792
-1.62578e-05
0.000178477
0.00074448
-0.000566471
0.000971754
6.20722e-05
-0.00101962
-1.42037e-05
0.000140567
-0.00027578
-7.8654e-05
0.000213867
-0.000955736
0.000928184
-0.000400856
2.8726e-05
-0.000449212
-3.33049e-05
0.000453791
0.000268991
-0.00024264
0.000191257
-0.000217608
1.75381e-05
-0.000129047
0.000102397
9.11154e-06
-0.00024871
-7.18964e-05
0.000201333
0.000119273
-0.00014237
0.00019351
-8.41845e-05
3.30443e-05
-0.000155595
4.51476e-05
0.000162503
-5.2056e-05
-0.000156114
-1.59626e-05
0.000132503
3.95741e-05
0.000773716
7.80886e-05
-3.72181e-05
0.000115655
-0.000205182
0.000267924
-0.000178397
-0.000136875
-0.000181448
0.000152227
0.000166096
-0.000304388
0.000212885
-6.4611e-05
-0.000151698
-3.05089e-05
2.66114e-05
0.00112652
-1.66465e-05
2.95424e-05
-9.49225e-05
0.000128102
0.000573651
-0.000606831
8.88266e-05
-0.000183471
0.000129008
0.000234184
3.58059e-05
-0.000130438
-6.92422e-05
-0.00100889
0.00103758
4.05576e-05
0.000130124
5.69417e-05
-0.000127078
-5.99874e-05
-0.000819388
-0.000284381
-0.000499052
0.000253918
0.000375521
3.10749e-05
-0.00108597
0.00108607
-3.11823e-05
5.77813e-05
-3.89868e-05
-0.00019045
0.000171656
0.000178174
-2.92279e-05
4.9902e-05
-0.000198848
0.000199749
6.24928e-08
4.88514e-05
-0.000248663
-7.82841e-05
5.94727e-05
2.82724e-06
1.59842e-05
0.00104389
-0.0014693
0.000184509
0.000240904
0.000480368
9.16745e-06
1.32865e-05
-0.000502822
8.06736e-05
0.000102376
-0.00094645
-3.11347e-05
-0.000135147
0.00019029
-2.40079e-05
2.87116e-05
0.000183403
-0.000252755
4.06408e-05
9.65804e-05
0.000126633
-9.38659e-05
0.000843495
-0.000577417
5.22339e-05
-0.000318312
0.000263192
-0.00012067
-0.000310439
9.12175e-05
-6.2613e-05
0.000171145
1.11411e-05
-6.94602e-06
0.000173979
0.000262886
0.000117556
-0.000241506
0.000249294
-0.000173656
-0.00028836
0.000212722
0.00071953
9.73672e-05
-4.31818e-05
1.66315e-05
9.79597e-05
-0.00113533
0.00113801
9.62171e-05
-9.88972e-05
0.000211477
-0.000226024
0.000455957
-0.000218674
0.000773184
0.000171157
-0.000823644
-0.000120697
-0.000995774
-0.000637767
0.00105642
0.000577118
7.40277e-05
-0.000206716
-0.000244167
0.000376855
0.000113192
-4.12669e-05
0.000647605
0.000297992
5.6957e-05
-0.000172339
3.49708e-05
-8.5474e-05
0.000117944
-6.74409e-05
0.000823437
-0.00104269
0.000357503
-0.000138251
0.000158781
-0.000108274
-0.000118285
6.77776e-05
-0.000361727
2.1181e-05
-0.000100003
-0.000759851
0.000859854
7.10165e-05
0.000211045
-0.00022428
2.00583e-05
-3.79733e-06
-0.000167959
-3.03732e-05
2.07991e-05
-0.000294814
-0.000305257
5.23293e-05
-4.10607e-05
-9.63793e-05
7.43979e-05
-3.43143e-05
5.62957e-05
0.000171336
-0.000180942
6.43237e-05
-5.47174e-05
-0.000337834
-8.81866e-05
6.42937e-05
-9.75664e-05
-4.13291e-05
-2.23839e-06
0.000141134
9.3714e-05
1.63901e-05
-9.00458e-05
0.000901944
-2.35661e-05
-0.000768667
-0.000109711
-0.000109575
0.00113152
0.000164635
-0.00112367
0.000115578
0.000861452
-0.00102969
-0.000263732
0.000431973
-0.000226382
-0.000993677
0.00119641
2.36485e-05
0.00015811
-1.55765e-05
4.06529e-05
-3.21923e-05
-0.000313718
-0.000934454
0.000899007
-0.00027008
0.000305527
0.00127374
7.68853e-05
-0.000316841
-0.00103378
-5.07792e-05
0.000907026
-7.44493e-06
4.5006e-05
-7.84876e-05
0.00030612
-0.000272638
0.000123146
0.000145845
-7.40566e-05
-0.000324679
0.000100692
0.000431484
-0.000932046
-0.00037964
0.00035595
0.000260646
7.69443e-05
-0.000266574
0.000906427
0.00011978
-0.000182712
-0.00018274
0.000912599
-0.000895247
0.000165388
-0.000436254
0.00017041
-0.00012177
0.000336905
-0.00032347
0.000149239
-1.33157e-05
-0.00017491
6.05295e-05
0.000109249
-7.85613e-05
4.7983e-05
-0.000152418
-5.25683e-05
1.66011e-05
6.46789e-05
0.000173777
-0.000116085
2.22688e-05
9.02143e-05
-4.86078e-05
7.46214e-05
-4.91337e-05
0.000185557
-0.000948876
0.000179513
0.000882555
0.000163008
1.53697e-05
-0.000109908
0.000366557
-0.000590423
-0.000551266
0.000775132
1.42884e-05
0.000238732
-0.000879654
-3.41772e-05
0.000921629
1.44924e-05
-0.000178599
2.30861e-05
0.000155513
-6.08928e-06
-2.42839e-05
0.00108604
-0.00126199
-0.000149012
0.000324966
-0.000528216
-7.12395e-05
0.000376111
-0.000825942
-0.000350774
0.000861398
0.000315317
-8.69545e-05
0.00104852
-0.000950742
-1.08252e-05
0.000137807
0.000248025
-0.000217602
-0.00016823
0.000112544
-0.000966663
0.000935503
-8.13842e-05
-0.000160793
0.000193453
0.000230532
-0.000334828
0.000248518
0.000947762
-0.000932779
0.000921817
-0.000171778
0.000628352
-0.000600849
-1.9108e-05
0.000563253
-0.000523346
4.73771e-05
-0.000168182
-0.000334361
-0.000910812
0.000313127
0.000326655
0.000342923
-0.000564222
-0.000105357
-0.0001254
0.000439942
-0.000298032
-1.6509e-05
-0.000159621
0.00102068
-0.000895459
-0.000159395
0.000554915
-0.000421954
0.00038575
-0.00051871
-0.000156648
0.000165752
0.00112891
8.47204e-06
2.27274e-05
0.00101269
7.35764e-05
0.000943831
-0.000994533
-2.28749e-05
0.000101071
0.000161258
6.88788e-05
-0.000121208
-0.000203593
0.000277769
-7.41753e-05
-0.000192277
-0.000932101
0.000189924
-0.000331841
-7.64318e-05
4.78212e-05
-0.000198751
-0.000249871
-4.43119e-05
7.57186e-05
3.89172e-05
0.00102531
-8.54235e-05
-0.000978806
0.000160262
-0.000291486
0.000241511
-0.000110288
-7.23942e-05
0.00105843
-0.000652509
-0.000266516
0.000679051
-1.14801e-05
-0.000893952
0.000124563
0.000833375
-0.000184755
0.000979341
0.000147809
-0.000158517
-0.000968632
-9.94446e-05
-0.000337346
0.000138819
-1.58603e-05
-0.000303271
2.78843e-05
0.000208597
0.000895074
-0.000197244
-7.95597e-05
0.000118464
0.00028775
-2.77954e-05
0.000106265
4.75985e-05
-0.000126068
0.000368748
-9.14451e-05
0.000584986
-0.000862289
0.000352315
-0.000109811
0.000516414
0.00123118
-0.000551165
-0.000368043
0.000811277
-0.000884873
-1.78489e-05
-0.00101684
-0.000832465
0.000587308
0.000844586
-0.0009123
0.000214598
-0.00101428
5.24225e-05
0.00100578
0.000879081
-0.000168693
1.40223e-05
0.000124162
-0.000175269
0.000197065
0.000191089
0.00101662
0.000201262
-0.000535013
0.000965269
-0.00125478
-0.000419795
-0.000924656
0.000809438
-0.000618138
0.000877393
-8.09582e-05
-0.00099681
8.40916e-05
-4.56848e-05
-0.000150866
0.00012812
-0.000939347
0.00066542
-6.0434e-05
0.000179392
-0.000246472
-4.51568e-05
0.000112236
-0.00111165
-3.34479e-05
0.0010727
-0.000180673
0.000161171
-0.000232058
0.000301117
-0.000317181
0.000248122
-0.000458744
0.000571989
6.02004e-07
-0.000259494
0.000359584
-6.13177e-05
-0.000190751
0.000252671
0.000758497
0.000278903
0.000212626
-0.00100501
0.000153502
-0.000980596
-8.79753e-05
0.0011821
-0.000113533
-0.000274393
0.000281556
-0.000127759
0.000115074
0.000787523
0.000408133
-0.00112208
6.13287e-05
-0.000151506
-0.000964066
0.000987455
-2.33892e-05
-0.000628646
0.000633103
-4.45774e-06
0.000312938
-0.00020363
7.00839e-05
-0.0010483
-2.44819e-05
0.00107278
-0.00100497
0.00101633
-1.13571e-05
-0.000934424
-0.000102793
-8.57319e-05
-0.000365052
0.000353217
0.000246537
-0.000876155
-0.00102795
5.10853e-05
-0.000992387
0.0010886
0.000906211
-0.000225625
-0.000908148
-8.98354e-05
0.000915092
8.28918e-05
-0.000177723
-0.000316743
0.000107016
0.00038745
0.000993641
3.23501e-05
0.000446176
-0.00098673
5.73602e-05
-5.12257e-05
9.11604e-05
-0.00102547
-3.38749e-05
-0.00090055
0.00103071
-0.000666288
3.99713e-05
-0.000179729
-5.0692e-05
-6.6798e-05
6.06331e-06
-8.00252e-06
2.19004e-05
-1.40894e-05
1.5984e-05
-2.3795e-05
9.12267e-05
0.000363641
0.000318602
-0.000391026
7.13208e-05
-6.06725e-05
-0.00025712
8.26314e-05
-0.000115585
5.15796e-06
3.74708e-05
-0.00022178
-0.000970118
-0.000410858
-0.000842264
0.000533223
0.000719899
-0.0010149
-0.00105399
-9.10064e-05
5.34665e-05
0.00109153
0.000552241
3.19717e-05
0.00115615
-1.31809e-05
-0.00117494
-0.000689067
-0.000547733
2.5688e-05
0.000319234
-0.00070113
0.000356208
0.000984831
-0.00102829
-0.000381755
0.000206488
0.00120356
2.74676e-05
-0.000147981
-3.91076e-05
0.000176434
-0.00104416
0.000980267
0.000218636
-2.62448e-05
0.000120548
-0.000231566
0.000197717
-0.00134761
-1.59165e-05
0.000421014
-0.000462906
0.000165038
0.000326514
0.00107117
-7.82893e-05
-0.0013194
-0.000307551
0.0003748
-0.000289778
0.000133614
0.000380013
-0.000262937
-1.75129e-05
-3.24025e-05
4.64167e-05
7.21856e-05
0.000865627
-2.74474e-05
4.93098e-05
1.08544e-05
-3.27168e-05
-4.40702e-06
0.000124732
-5.92261e-05
-1.14742e-05
0.000120197
3.19646e-05
0.000222638
0.000409224
0.000176624
-0.000494621
-0.000124953
0.000154899
-7.46943e-05
4.47487e-05
0.000306677
-0.000984796
-0.00027047
-0.000733881
-0.000311811
-4.21135e-06
6.39077e-05
-0.000260022
-0.00032926
3.15852e-06
-0.000127173
8.26857e-05
-0.000188701
0.000225481
3.45415e-05
0.0002626
0.000302925
-0.000269822
-0.000295703
-0.000188989
-0.000763679
0.000406692
0.000925543
-0.000404051
0.000605001
0.000236449
-0.000155382
-0.000686068
0.00108212
-3.2896e-05
-5.05541e-05
3.64776e-05
4.69725e-05
4.64576e-05
-0.000479772
0.000446898
-1.35837e-05
0.000276004
-0.000325265
-1.14117e-05
0.000439497
-0.000631362
0.000534788
0.000316922
-0.000281607
0.000265802
0.0005859
0.000108677
-0.000604363
-2.19478e-05
-3.48906e-05
4.10807e-05
0.000594929
4.67435e-07
4.74809e-05
-6.52968e-05
1.73485e-05
0.00118019
-0.000894411
-0.000193513
-6.11602e-05
0.000135947
0.000141037
-0.000242278
-0.000518004
0.000619245
5.3741e-05
-3.82965e-05
-1.54445e-05
0.000104574
-0.000917037
-7.24103e-05
4.54678e-05
-5.05267e-05
5.05891e-06
-1.04711e-05
1.90558e-05
-8.58472e-06
-2.7408e-05
5.18395e-05
-2.44316e-05
4.51707e-05
-3.25602e-05
-1.26105e-05
5.11052e-05
-1.84574e-05
-3.26479e-05
-9.26751e-05
-1.96791e-05
0.000112354
-0.000411346
0.000324893
8.64525e-05
0.000225622
-0.000155818
-6.98048e-05
6.06102e-05
-1.54395e-05
7.36732e-05
-2.2568e-05
9.8253e-05
-4.45119e-05
0.000221673
-0.000257048
3.53755e-05
0.000162803
-0.000173916
1.11134e-05
-0.000587565
0.000386661
-0.000161038
-0.000506268
-2.65288e-05
3.15424e-05
-5.0136e-06
4.31672e-06
-1.47878e-05
3.74038e-05
8.06399e-06
0.000585897
4.72058e-05
-0.000308315
0.000252325
5.59909e-05
0.000126223
-2.40267e-05
-0.000100477
-1.71965e-06
-1.53515e-05
-6.44682e-09
-0.000362876
0.000221937
-0.000107854
2.72169e-05
-0.000295112
-0.00069879
0.000233731
-0.00043856
0.000230517
-8.9262e-05
2.86191e-05
0.000166907
2.24658e-05
-5.80076e-05
-1.50123e-05
1.83452e-05
-0.000331934
-0.000637154
-0.000338698
0.000387545
0.00106226
0.000255059
-3.33865e-05
1.18652e-05
-2.36801e-05
1.18149e-05
4.8436e-06
-2.30913e-05
-1.90019e-05
7.83452e-05
7.96295e-05
0.00027374
-2.14153e-05
-5.75646e-05
6.78448e-05
-7.47294e-06
-4.75514e-05
-2.97534e-06
-0.000275059
-0.000710003
0.000311667
0.000673395
0.00103934
-0.00026693
-0.000822342
4.25242e-05
6.41906e-05
-2.25229e-05
-8.41919e-05
-4.6975e-05
8.34693e-05
0.000916233
-0.000925377
9.16762e-05
-8.25323e-05
-0.000254603
0.000226213
0.000271111
-0.000242721
0.000160137
2.66603e-06
-6.42452e-05
3.10499e-05
6.96729e-05
-1.24101e-05
0.000602881
0.000139874
-5.89623e-05
-0.000114914
3.40019e-05
0.00109106
-0.000285981
-7.57222e-05
-7.38324e-05
2.46014e-05
0.000445143
-0.00112785
0.00100922
-2.85291e-05
5.41953e-05
5.37727e-06
1.73703e-06
0.00015753
-0.000371591
0.000730475
-4.16635e-05
5.03408e-05
-4.74423e-05
0.000825162
0.000477761
-0.00040837
9.85943e-05
-9.07409e-05
0.000599779
-0.000309591
-0.000290187
5.26801e-05
1.8616e-05
0.000154328
-0.000225624
-0.000291363
0.000319484
-0.000205844
0.000280258
-3.49753e-06
-0.000307573
3.08123e-05
9.16956e-05
-7.7862e-05
4.40597e-05
0.000368346
-0.000523917
0.000339822
-0.000184251
0.000140966
0.00037204
-0.00025631
-0.000256695
0.000410394
-0.000336507
-3.40887e-05
-3.97979e-05
0.000335417
0.000178369
-0.00014544
-0.000286468
0.000226079
0.000113069
-1.70202e-05
0.000228841
0.000198573
0.000563651
-0.000239555
1.73485e-05
-0.000341444
-0.00010478
0.00012753
-0.000146913
0.000391006
-0.000371624
-0.000338583
-0.000238665
-0.000120065
2.22232e-05
4.09678e-05
2.81303e-05
-0.000608551
-4.07038e-05
0.000621124
-0.000250756
-8.42259e-05
0.000162981
-0.000383145
0.000328179
-0.000108016
0.000375926
-0.000470705
-0.000429138
0.000439881
0.000282331
-0.000158561
-0.000261184
-6.08822e-05
0.000287977
0.000213783
9.39882e-05
-9.08297e-05
-1.31496e-05
0.000481161
-5.68101e-05
0.000325992
9.80359e-05
-0.000210738
0.000112702
-0.000544699
-0.000130637
0.000465072
0.000210263
-6.48722e-05
-0.000103561
-0.000376266
-0.000287173
0.000146544
0.000293203
3.25174e-05
-0.00032572
0.000466102
-0.000758104
-0.000316549
0.000613986
-0.000188588
0.000490103
3.58922e-05
-0.00038503
0.00046537
4.12574e-05
-0.000571499
0.000221364
0.000177084
-2.64082e-05
0.000249816
-0.000322506
0.000412512
-0.000155985
0.000132309
0.00024504
0.000258404
-0.000140344
0.000372043
-0.000397157
0.000333903
9.91459e-05
0.000279503
-0.000228755
-9.6695e-05
0.000315295
-0.000315624
0.000374558
-0.000374228
-0.000610666
2.23276e-05
0.000588338
0.000332229
0.000156209
-0.000208407
0.00040721
-0.000407048
-0.00025636
-4.81178e-05
-0.000147492
0.000105638
-0.000214506
5.8571e-05
-0.00064343
-4.99193e-05
0.00041829
0.000426218
-0.00023974
-0.000394885
-0.000205193
0.000337959
0.000418634
-0.000236901
-0.000296317
0.000305087
-0.000153303
0.000144533
-6.16063e-05
2.81997e-05
0.000803101
-0.000203322
0.000157179
0.000276966
-7.92636e-06
-0.00024353
3.48398e-05
-0.000826762
0.000535392
0.000418944
-0.000767945
0.000581378
-0.000224947
8.35107e-05
-0.000127911
0.000471807
-0.000343896
0.000457321
-0.000285312
0.000111987
-0.000122992
-0.000143523
0.000946624
-0.00110475
-0.00118258
8.75096e-05
0.000103282
-3.45956e-05
0.000114568
0.000449821
0.000231764
-0.000286296
-0.000226272
0.000280804
0.000174403
-0.000181324
-0.000418634
0.000425556
0.000265588
2.76145e-05
5.485e-05
-0.000559478
-5.11881e-05
-1.46578e-05
-0.000316217
2.33013e-05
-0.000759924
0.000724565
0.000570751
-8.76708e-05
7.15639e-05
-0.000278493
-7.83823e-05
-0.000160875
0.000139589
2.12857e-05
9.74418e-05
0.000111844
-0.000172792
-3.64935e-05
9.40721e-05
-8.86893e-05
-0.000930759
1.5841e-05
-5.13934e-05
0.000132994
2.8658e-05
0.000362876
0.000344298
0.000207344
-0.000551642
0.000281465
-0.000201319
-0.000319701
-0.000270814
6.43263e-05
0.000334018
-9.63888e-05
-0.000321338
0.000305247
-0.000288854
1.12218e-05
-0.000243301
-1.48866e-05
0.000228605
-0.000253152
0.000607491
-0.00053493
-0.00012375
0.000129689
-3.57008e-05
7.98173e-05
4.98717e-05
7.29236e-05
0.000173945
-2.94565e-05
2.96123e-05
-5.91924e-05
0.000689011
0.000240398
0.000183423
-0.000165279
6.67592e-05
-3.49533e-05
-3.31994e-05
-0.000223137
-0.000228892
0.000114252
0.000201802
-0.000123158
4.78321e-05
-3.17637e-05
3.8127e-05
0.000134301
6.35361e-05
-0.000126274
0.000390806
-0.000337386
4.80021e-06
-5.51317e-05
8.99544e-06
4.13361e-05
-0.000471589
0.000522243
-0.000228865
7.28962e-05
-4.30408e-06
-0.000225298
-0.00116227
-1.02884e-05
-0.000963811
-0.000345299
-0.000139533
0.000192903
-0.000185178
-0.000393304
-0.000224356
0.000178759
0.000312546
-0.000254715
-0.000236589
3.48321e-05
-9.05295e-05
0.000326267
8.46657e-06
-0.000182937
0.000272203
0.000325707
-0.000414973
-0.000288365
6.27738e-05
0.000289918
-0.000103637
0.000100637
5.43894e-05
-9.7114e-05
9.10169e-05
-0.000280199
-0.000102394
-0.000964411
-2.32342e-05
0.000996117
-0.000341602
-1.53698e-05
-0.000335076
3.42294e-05
6.63574e-05
-0.000306392
1.19586e-05
0.000294433
0.000986765
-0.00103822
-0.000252185
-0.000402457
-7.03367e-06
0.000140241
-2.43933e-05
-0.00014634
8.37317e-05
-0.000288399
0.000351007
8.69871e-05
5.2329e-05
-0.000328945
0.000106686
0.000533958
-0.000599386
0.000279699
-8.74204e-06
0.00044392
-0.000365494
-0.000224766
0.000584269
-0.00045976
-7.03974e-05
0.000135241
-0.000104406
3.95618e-05
0.000298041
-0.000308483
0.000475514
-0.000863923
6.13237e-05
8.1884e-05
4.83422e-05
-0.000130233
-0.00032879
-5.59637e-05
2.89476e-05
-3.24167e-05
3.46908e-06
9.81563e-05
-0.000409925
5.71653e-05
0.000177274
-0.000278327
0.000311762
-0.00031072
-0.000266248
3.71441e-05
-0.000481765
-0.000425749
0.000436809
0.000293268
0.000259696
0.00017975
0.000247098
-0.000978812
-0.000283266
3.34985e-05
-0.000743366
1.98592e-05
0.000211633
0.000342354
1.48921e-05
5.62063e-05
-6.69413e-05
-4.1571e-06
5.64316e-05
4.47578e-05
-4.29994e-05
-3.65256e-05
0.00109445
2.89688e-05
-7.28409e-06
-0.00105782
-3.93683e-05
-0.0001894
0.000158324
-0.000324968
-3.86711e-05
0.000404369
0.000249789
0.00124887
0.0010889
0.00017949
0.000210666
0.00108472
0.000240593
2.9778e-05
-1.8492e-05
3.02193e-05
0.000292846
-3.34768e-06
-0.000925555
0.000118993
6.74863e-05
7.8359e-05
-7.09118e-05
-3.23494e-05
-5.79216e-05
5.37454e-05
-0.000245404
-1.32672e-05
-0.000133866
-5.90576e-05
-0.000156427
0.000311704
0.000323357
6.37261e-06
-0.000365151
2.37023e-05
-2.16569e-05
-8.39933e-06
-0.000280664
0.000829397
-0.000189073
-0.000650138
9.81281e-06
-0.000729033
0.000665972
0.000310158
-2.60507e-05
0.000587651
-0.000351337
0.000107024
-9.39518e-05
-0.000382844
-0.000357911
-0.000248927
0.000349292
0.000156009
-0.000990404
0.000347852
0.00023026
-0.000438523
0.000201318
-0.000115196
-6.30471e-06
0.00035506
-0.000362216
0.000268501
-0.000329299
-0.000145186
-1.0749e-05
0.000154431
1.50341e-06
0.000157421
-9.84692e-05
-9.14378e-05
0.000275454
0.000151892
0.0004075
0.000148376
-0.000509419
9.01286e-05
2.8006e-05
0.000859895
-4.96636e-05
2.7386e-05
-0.000122908
4.78101e-05
3.0482e-05
0.000385806
-0.000411017
-0.000403927
-0.00101028
0.00104342
-0.000283009
-0.000305172
-0.00012641
0.000192585
7.02936e-05
-0.000354317
-0.000262435
8.3836e-05
-0.000969269
-0.000200405
2.59055e-05
-0.000376987
-0.00024978
0.000792602
5.5938e-05
0.00103085
-0.00100926
-0.000106419
9.85637e-05
0.000200441
-2.07767e-05
6.47696e-06
-0.000143988
-0.000269174
0.000280422
0.00013274
-0.000310242
0.000486069
-0.000217853
-0.000294267
-1.45445e-05
-0.000205646
3.46625e-05
0.000163852
0.000140625
-0.000260262
-0.000105385
-0.000190472
0.000154347
4.22634e-05
-1.16017e-05
0.000204261
-0.000206484
-1.98792e-06
0.000196887
-0.000156321
0.00100153
-0.00126397
0.000291408
-0.000467919
-0.000328568
0.000723706
5.5629e-05
0.000946746
0.000276622
-9.86584e-05
-0.00112471
-8.64085e-05
0.000346163
0.000280872
0.000264779
7.8725e-05
-6.33404e-05
-6.43633e-05
4.89787e-05
0.000114238
-0.000243218
0.000243643
-0.000114663
0.000212797
-0.000235433
0.00133756
9.6875e-05
2.91898e-05
3.45709e-05
0.00132633
8.82335e-05
-0.000250368
-4.97037e-06
5.86898e-05
6.67827e-05
1.41866e-05
-0.00103427
7.94242e-05
0.0001308
1.98449e-05
0.000310255
-4.92279e-05
-0.00100793
-0.00119547
0.000747905
-0.00031217
-0.000185562
0.00019417
0.000123014
-0.000232047
-8.51373e-05
0.000199286
-0.000131727
-0.000174664
6.06796e-05
-0.000142182
-3.58686e-05
-3.41416e-05
0.000288688
0.000249275
-0.000244067
-0.000533672
-0.00010627
0.000455692
-0.000111339
-0.000148336
5.40284e-05
8.37538e-05
2.65784e-05
4.55547e-05
3.50943e-05
0.00024953
0.000115288
6.00368e-06
9.75505e-05
-5.39436e-05
-0.0002455
2.89192e-05
2.62323e-06
-1.86037e-05
4.03489e-05
0.000866999
0.00012332
-1.15945e-05
-0.000815354
9.70458e-05
-1.59214e-05
0.000100618
0.000471153
0.000344376
0.000171763
-0.000403408
0.00108452
-0.000494269
-2.23275e-05
-0.000246774
0.000208264
-0.000210039
2.95141e-05
-1.04567e-05
-1.74551e-05
0.000158619
-1.52939e-05
-0.000153167
-0.000369228
-0.000728052
0.000678877
4.9175e-05
-5.01085e-06
6.0318e-05
-0.000280932
0.00045203
0.000510545
-0.00040766
0.000901381
0.000131006
-0.000789838
6.17856e-05
4.97334e-05
0.00107643
-8.94264e-05
-0.00095188
0.00101807
-0.000326075
0.000523437
3.98252e-05
-0.000237187
2.06525e-05
7.55288e-05
-9.57138e-05
5.78146e-05
0.000621063
3.2738e-05
0.000147631
-8.25843e-05
-9.77846e-05
0.00036443
0.000441914
-0.000336441
-0.000469903
-0.000201237
3.91593e-05
0.000162078
-0.000478888
0.000132258
-0.000532134
-0.000298914
-0.000213357
-4.90778e-05
-0.000242304
4.10672e-05
-0.000283571
0.000336093
-0.000456032
-0.000206136
-0.000893605
-0.000254765
1.98023e-05
-3.1285e-05
-0.00011518
-0.000407289
-0.000238315
7.84384e-05
-8.95606e-05
0.000176676
0.000255232
0.000312374
0.000403014
0.000550467
-0.000238876
0.000114369
0.000208343
-0.000476256
0.000456652
1.96037e-05
8.24689e-05
-0.000872307
8.0576e-05
-0.000112866
0.000392118
0.000107255
-0.000608319
0.000856413
-0.000326753
0.000363971
-0.000393558
0.00021236
7.88756e-05
0.000188816
-0.000161762
0.000878541
-0.000194409
0.000355213
-0.000963427
0.000658992
0.000634858
-0.00106747
-4.90306e-05
0.000575806
-0.000373066
0.000365371
-0.000638479
0.00048339
0.000499493
-0.00057475
0.000301066
0.000454527
-0.000265634
0.000100509
0.000459738
-0.000110426
-4.30016e-05
8.07835e-06
-0.000553682
0.000651426
-0.000499465
2.32093e-05
0.00010671
-9.52851e-05
0.000396271
0.000423579
-2.1325e-05
3.39531e-05
1.75912e-05
8.74725e-05
-8.20345e-05
-3.93463e-06
-4.1881e-05
8.28488e-05
0.000442428
1.42235e-05
0.000146549
-4.28019e-05
-2.50219e-05
6.59883e-05
0.000639493
-0.000104777
-5.94367e-05
-0.00048972
6.93845e-05
-0.000214692
-5.24973e-05
0.000106887
-0.00042154
-0.000265553
-0.000226673
3.69514e-05
0.000124868
-0.000519928
0.00014928
-0.000180517
-9.81544e-06
1.80045e-05
8.50834e-05
-1.50659e-05
-1.03823e-05
-0.000134638
-3.47092e-05
-0.000920308
0.000160181
-0.000111139
0.000161561
-0.000169381
0.00101356
-0.00096238
4.92083e-05
1.52267e-05
-7.10776e-05
1.64291e-05
0.000132755
0.000356228
-0.00108668
3.02508e-05
0.000365376
-0.000347592
0.000226696
6.31055e-05
-0.000113126
0.000942569
0.000119983
-5.75545e-05
3.16924e-05
1.71677e-05
1.17515e-05
0.000178055
1.39075e-05
-0.00082809
0.000588895
8.76888e-05
0.000159973
-0.000457501
-0.000138726
0.000424714
-0.000178513
8.75869e-06
0.00111993
6.84713e-05
-0.00108123
-1.70575e-05
-2.61479e-05
-2.2573e-05
7.29776e-05
7.85737e-05
-0.000105587
0.00016758
0.000505496
-0.000730847
0.00022535
0.000437758
6.77384e-05
0.000448811
-1.10533e-05
-0.000311226
0.000468756
-0.000682817
-0.000605932
-0.000506921
-9.9011e-05
-4.61302e-06
-1.87409e-05
-6.43929e-05
7.75976e-05
-0.000939385
-0.000121154
0.000219567
-7.67426e-06
8.6112e-05
-2.46326e-05
-6.12807e-05
-4.39929e-05
-1.26046e-05
-1.57884e-05
1.36051e-05
1.31503e-05
-4.62512e-05
3.79444e-05
-4.06288e-05
-2.81416e-05
-3.25601e-05
2.08148e-05
0.000435479
0.000818876
-9.72257e-05
0.000155345
4.79195e-06
0.000614645
-0.000713501
0.000464232
-0.000231921
-0.00101923
0.000129287
-3.13214e-05
0.000218841
-0.000478781
-2.81397e-05
0.000475655
-0.000148143
-0.000735882
0.000113259
-1.99496e-05
0.000163682
-0.000234284
-8.39509e-06
0.00027629
-0.00012229
5.02608e-05
9.88876e-05
-0.00115297
0.0010409
-0.000179559
0.000252129
-0.000212872
0.000382343
-0.0004216
-0.000301633
0.000343693
-3.29418e-05
8.47813e-05
-0.000300654
3.02463e-05
7.84384e-05
-0.0011887
2.39709e-06
0.000684122
-0.000384072
0.00040288
3.24233e-05
0.000149909
7.59919e-05
1.53687e-05
-0.000154276
-3.93192e-05
1.50819e-05
-0.000117572
8.78084e-05
-0.000116207
-4.80938e-05
1.0552e-05
-3.50068e-06
-0.000633935
-0.000320187
-0.000157059
-0.000263265
-0.000411613
-0.000223255
0.000251723
-6.20318e-06
-3.53832e-05
2.89818e-05
0.00097824
0.000354502
-0.000184373
0.000288335
-0.000147722
-0.000168843
8.47663e-05
9.01395e-05
-0.000805322
0.00112498
-7.50153e-05
0.000123737
-0.000134014
0.000142362
6.93506e-05
5.06671e-05
-4.83845e-06
0.00104419
0.000138784
2.4575e-05
-4.00058e-05
-0.00031998
0.000259713
-0.000293001
-0.000362378
3.3057e-05
-0.000885357
4.06953e-05
0.000552536
0.000178245
0.000133336
-0.00024255
0.00109065
6.96374e-05
-8.07528e-05
0.000158856
-0.000443492
-3.1807e-05
-0.000481722
0.000125238
0.000471284
0.000306141
-0.000291157
-6.35917e-05
0.000294114
-2.66843e-05
-0.000305494
-0.000219208
0.000173585
-1.34035e-05
-0.000199951
0.000184374
-0.000968243
0.00103397
-0.000250551
0.000184828
0.000128526
-8.57599e-06
-0.000161295
1.16702e-05
-0.000261693
-0.000247899
0.000466403
-0.000540506
0.000616782
0.000436965
0.000188996
-0.000119919
-0.000271339
-7.26886e-05
-4.92157e-05
-0.001157
6.11301e-05
0.000423692
0.000448303
-3.15706e-06
-0.000220724
-0.00107343
0.000971916
1.73746e-05
-1.77125e-05
0.000996455
0.0002917
0.000561063
-0.000484436
-7.66273e-05
-6.7872e-05
0.000333108
0.00013975
-0.000418987
-0.000421876
0.000478648
-0.000898348
0.000913148
-0.000292595
0.000140135
-0.000187839
0.000128147
5.96916e-05
0.000236682
-0.000257555
4.88436e-05
6.80676e-05
6.00795e-05
-0.00024833
-0.000212433
0.000319334
-0.00106903
-0.000165056
1.94787e-05
-2.76985e-05
-2.74392e-05
-0.00046499
0.000470099
-9.93545e-06
-2.71608e-05
3.70962e-05
-0.000276667
-1.19316e-05
-0.000140877
-1.05458e-05
-0.000162183
8.09448e-05
0.000615895
-0.000519331
0.000395675
0.000375759
5.0824e-05
-0.000132265
-3.27903e-05
0.000309617
0.000194832
-0.000125711
-0.000174729
0.000452206
0.000229147
0.000233626
-0.000547272
0.000391992
-8.95808e-05
-9.86076e-05
-0.000122074
0.00016276
2.44765e-05
-3.4412e-05
-0.000106529
-2.57367e-05
1.61961e-05
0.000151493
0.000129546
-0.000115215
-1.71654e-05
-0.00024825
-0.000163021
0.000444604
0.000209647
0.000464098
0.000108768
-0.00025475
-0.000485284
-0.000258698
6.37843e-05
-3.93078e-05
2.81948e-05
0.000165541
0.00105737
-1.51055e-05
-0.00101861
-9.3058e-05
0.000332283
-8.96493e-06
-0.000266758
-0.000343059
-0.000242352
-5.24624e-05
-8.16681e-05
-8.3777e-06
0.000363087
-0.000129412
0.000153987
-0.000208538
0.000224734
-4.75052e-05
0.000177051
0.00140927
-0.00113915
0.000513998
-0.000925467
-7.41021e-05
0.000384911
2.5077e-05
0.000522212
0.000307457
0.000550244
-0.000722287
-0.00014301
9.15881e-05
-1.29584e-05
0.000119063
-0.000216886
-7.17723e-05
-8.26918e-05
-0.00089039
3.4405e-05
6.81767e-05
-0.000371734
0.000394075
-0.000457587
0.000589665
0.000924184
-0.000264982
9.64652e-05
-0.000602673
0.000728038
-0.000210338
0.000216668
0.000683473
5.43488e-06
6.31923e-05
0.000186664
-1.30794e-05
0.000297437
0.000122681
4.06802e-05
0.000140704
0.000519399
-3.44803e-05
-0.00023435
-3.63423e-05
0.000190797
-0.000150978
0.000421191
-2.87787e-05
-0.00017888
-0.000320272
5.42465e-05
9.53625e-05
3.17755e-05
0.000902958
-0.00091513
0.00027947