/*--------------------------------*- C++ -*----------------------------------*\
| =========                 |                                                 |
| \\      /  F ield         | OpenFOAM: The Open Source CFD Toolbox           |
|  \\    /   O peration     | Version:  v1912                                 |
|   \\  /    A nd           | Website:  www.openfoam.com                      |
|    \\/     M anipulation  |                                                 |
\*---------------------------------------------------------------------------*/
FoamFile
{
    version     2.0;
    format      ascii;
    class       volScalarField;
    location    "0.15";
    object      epsilon;
}
// * * * * * * * * * * * * * * * * * * * * * * * * * * * * * * * * * * * * * //

dimensions      [0 2 -3 0 0 0 0];


internalField   nonuniform List<scalar> 
1431
(
2.72055
2.35238
0.444768
4.53513
1.01412
1.10642
3.02071
135.181
0.97748
3.29185
126.811
97.1044
2.7869
5.51899
2.19739
2.86552
6.95254
0.34248
8.90462
0.776949
277.635
10.9558
1.45927
83.1005
1.27165
2.8115
85.1438
1.75107
2.89074
8.31335
2.92479
1.99811
2.84768
3.22899
1.9617
1.58129
0.965821
0.503034
2.90815
2.02362
1.59892
1.38345
3.10431
4.65035
2.42798
0.857946
6.30022
75.9787
2.94837
1.49199
1.74768
3.89379
2.27823
142.503
1.31459
1.7221
1.41251
130.697
6.17026
0.861638
1.99011
4.60056
1.3192
0.653024
3.03786
4.65845
1.30373
2.12742
0.472633
8.19702
79.503
4.00205
1.728
3.209
5.64248
1.14806
0.490025
1.0795
2.44353
0.378845
6.88629
0.990646
1.93746
4.4946
19.3609
5.3477
1.92159
1.58078
5.96596
3.88075
2.9809
1.57415
0.456529
2.73052
1.08459
5.59002
141.164
3.54896
5.75592
0.594347
1.96203
4.58121
7.13461
0.423631
0.781461
8.16637
4.06278
84.0267
1.68625
6.07723
0.570931
2.1684
2.14698
1.80602
1.47533
1.05819
5.28849
2.70156
2.64746
0.967305
12.0036
2.86409
87.5599
6.53202
52.2331
2.34047
0.456817
1.41471
0.390268
1.31079
8.88414
0.395016
1.04995
8.94091
1.45974
1.64771
0.81727
5.59919
24.9573
0.520175
1.34374
3.39167
7.76869
0.463011
2.21371
2.9582
2.08767
2.48842
2.3913
1.71102
1.50005
0.5557
2.09913
2.6002
3.20124
0.532822
15.6672
5.18082
2.92742
1.19569
15.497
2.17404
1.92472
1.29658
71.0764
2.22245
2.15101
1.10502
1.00514
2.31257
8.73023
3.09895
2.00758
22.991
3.02138
14.3305
1.03007
1.32009
2.05498
2.74655
4.05519
3.37662
4.61002
212.84
1.3143
7.58593
32.5991
3.85411
3.89712
10.9519
4.33022
3.47804
2.56789
194.43
3.38772
5.75096
5.49962
2.7284
0.384838
2.33557
4.35548
1.73866
93.5861
1.68339
2.68406
4.70312
4.15679
0.610215
34.1338
1.43012
39.0622
2.33248
3.91088
8.51537
23.7112
1.48016
2.65664
2.86174
1.74543
101.004
2.43195
4.34967
7.12074
1.49064
3.51335
59.7527
78.416
2.62969
2.12561
68.8876
76.7735
2.88041
8.77358
2.35344
1.99515
6.73426
3.67278
8.45289
4.15362
3.73555
1.21008
1.84577
43.9305
6.71419
4.11726
19.1058
7.82107
78.6858
2.66708
0.722899
1.2154
15.9696
1.2602
1.50504
4.46482
0.868796
1.33188
89.254
8.32994
2.75491
5.58096
22.4972
2.66853
1.07331
4.43657
119.085
0.893999
347.486
78.4784
1.42962
2.09924
3.25148
1.91125
3.23922
17.6955
2.04352
18.1156
59.7729
7.78411
4.75111
2.49149
0.623514
2.99519
1.86637
1.1799
2.99889
0.973258
5.27552
19.2515
3.78084
0.452787
0.744046
4.30951
1.6282
46.3792
1.92526
41.3631
8.63143
2.77075
8.69174
2.8864
0.65043
1.77933
2.41007
35.5624
1.41074
4.49601
3.28965
1.0384
2.11568
7.27574
2.0283
4.34627
170.519
0.830688
6.3904
2.72281
1.23925
0.491723
761.703
5.30589
6.16625
0.700705
1.80613
1.89686
0.63761
0.667382
0.818063
171.658
1.48346
13.4808
0.541269
0.843309
17.0145
1.14018
2.78669
0.730607
5.60325
1.67987
64.1146
0.741766
2.92836
8.19392
1.52004
0.934195
7.81896
2.95942
15.0915
5.73836
1.73008
2.16864
1.24715
2.55066
3.25627
1.60234
1.58784
27.9591
30.7802
15.5948
1.23125
16.5677
6.17153
10.8744
1.69882
0.429103
20.5104
1.06002
352.761
1.79772
10.1693
104.031
1.38498
5.87227
2.37212
1.31902
165.451
4.96748
2.50283
3.89096
233.982
1.54215
1.25801
3.64477
1.71161
646.002
0.878104
2.31728
1.10034
1.99073
1.55078
1.34563
3.32481
3.41916
1.48259
10.5717
2.84851
1.3508
1.18688
1.10711
1.03265
3.23629
1.17454
7.78465
0.79631
2.25685
1.5364
1.02551
2.62295
1.11288
1.66505
4.68705
2.30328
1.78618
3.52806
1.0453
1.01671
1.71839
1.92082
1.22941
1.91539
3.71518
2.84893
1.5918
2.08425
2.05893
1.79941
0.799498
18.2435
1.85835
51.2564
0.944111
0.867272
0.765283
1.02294
0.717702
0.772018
0.858896
0.777396
0.944786
0.814423
2.01991
24.8392
1.49021
1.0278
0.886092
0.681999
0.530806
0.473169
4.50963
9.63127
6.82871
1.85588
4.63041
0.997763
5.92316
3.64417
14.8188
95.0265
1.05566
0.942825
11.6805
2.02308
88.4571
4.62705
1.46964
1.88367
0.77241
84.0868
1.9181
81.4317
4.00365
3.9764
0.392726
23.2729
26.3427
20.5756
2.0091
0.88868
0.546533
3.14405
28.1521
0.552142
28.0599
1.86464
0.530369
23.0187
0.354571
0.595976
0.406945
0.54173
34.8098
2.4414
0.516656
0.505845
21.7639
0.414708
0.919079
39.8773
2.61759
2.36613
3.82628
1.23228
0.981089
2.9045
38.8276
21.8009
1.22629
2.08991
2.56149
1.50568
0.547775
26.4705
0.625375
1.32461
4.76192
3.13734
3.90292
0.54891
21.5759
25.5882
5.32613
2.31572
1.8333
1.51893
1.05421
1.91953
37.7322
2.03347
1.76303
2.64597
4.51796
2.03698
2.48839
39.1541
0.807727
3.42611
3.00397
6.80363
0.940298
1.85782
1.98723
2.46323
1.80242
2.16417
2.24369
3.30558
3.28403
7.98642
1.62837
0.614366
1.84887
2.23731
1.07101
2.25512
1.61001
30.6
1.79911
3.81862
6.98908
411.506
0.629268
28.8376
8.30614
1.17533
626.116
1.0621
2.5836
1.38937
3.85788
0.707553
2.23259
15.9045
1.04853
1.88779
1.01173
2.28883
2.08251
3.8806
1.39154
0.976987
2.23448
9.74469
3.36355
2.38056
2.54613
2.71444
5.504
2.07786
1.16359
1.46448
2.57973
4.76067
1.89046
1.46228
3.19714
1.21064
16.13
2.3978
4.10028
27.5531
11.7514
2.01521
1.63825
1.87071
4.0651
1.59435
110.627
4.38162
3.17859
0.726533
2.03183
1.1349
3.26939
1.52252
1.62382
0.775381
19.8981
1.14868
3.73206
2.98494
1.75629
5.00659
1.59433
2.61528
1.36199
2.89676
0.896567
1.1314
6.05615
3.09545
2.24002
1.92765
3.59503
1.17779
2.27979
3.11969
111.675
1.51685
2.17594
4.23541
1.11025
8.74334
1.81095
1.86401
3.92054
1.51631
2.94516
1.99154
53.4808
4.00793
3.86508
0.664018
3.91197
3.54722
0.767446
1.67578
1.14659
4.40958
4.38558
7.82281
12.368
0.966689
2.7943
1.56289
3.83136
18.769
1.69399
3.77464
2.06793
1.34202
2.24626
1.17616
29.4287
0.875853
3.80631
10.4768
31.4912
18.233
1.85191
2.77308
2.85203
1.29871
2.35245
28.0312
1.75777
0.625889
2.62457
1.71711
1.82301
2.66129
67.7105
4.9242
1.67384
2.61876
2.72498
0.665922
3.39436
4.1236
2.88015
12.9654
3.04295
2.42089
2.21311
2.63198
3.24327
33.9386
3.87695
3.20399
3.9767
0.936207
1.60201
2.21043
34.1967
2.15438
1.03512
1.97087
3.76885
3.09048
3.07019
1.61911
1.93405
4.91413
15.493
2.36854
0.559373
1.30446
46.4118
3.42189
59.4938
192.867
1.0087
1.68053
2.31662
2.0541
54.7911
4.74906
1.51878
3.63458
26.8537
1.68604
3.40129
1.25425
2.31422
2.8191
1.29225
1.7889
13.0213
0.697897
1.52946
5.79616
0.928199
4.1113
1.09762
4.93146
149.474
1.43296
0.861272
1.34487
0.993895
1.91056
139.74
34.2304
5.4658
5.53748
0.814912
4.19607
3.27551
3.17291
1.45825
3.34087
3.7229
8.53404
1.40461
1.28587
1.02208
1.53354
2.80967
2.47608
0.775851
1.01208
1.71623
0.597822
2.14934
1.93365
2.73222
25.534
1.54411
1.70319
2.05234
1.4419
32.8518
1.67343
3.62202
0.830105
3.9742
2.96718
3.10497
16.474
3.40178
2.73712
2.03369
18.2055
0.849881
1.07607
1.28756
728.764
5.03704
0.888768
1.71073
1.52869
393.399
1.62137
4.60293
19.7739
0.580232
108.388
2.46395
1.75311
0.672417
1.47264
0.413838
94.9284
2.22937
1.13271
2.86976
3.35446
0.744293
3.73504
1.38381
3.17239
0.688398
3.94252
26.5565
2.13284
3.05553
145.665
5.92899
0.772806
2.13508
1.76579
2.57193
0.482249
0.648554
6.36531
2.60633
7.99749
0.535141
195.845
2.50328
13.7446
1.81688
5.71941
1.71946
4.67041
0.903888
2.03917
1.19879
5.20401
0.405703
1.08913
3.84877
1.62186
3.03024
1.87662
2.19531
0.946014
2.14176
2.06816
14.3596
1.12235
1.05212
653.604
0.716676
4.46211
7.11614
1.03893
3.0158
2.51359
0.879205
2.55189
77.7426
4.81236
1.67053
70.9048
481.93
125.763
118.491
75.1553
3.18166
3.28361
3.42643
3.35706
85.3876
3.18596
4.64898
3.70392
4.19599
4.88638
53.3495
91.917
4.78953
24.1547
33.9744
4.74277
3.3238
3.4519
4.88311
3.54349
3.5024
5.16097
3.38979
2.65405
18.2758
1.88616
3.8783
1.62612
8.69793
7.68178
50.6637
1.83852
17.3815
6.21618
1.53934
1.42072
167.632
22.4718
0.415212
17.3564
3.3308
1.61708
4.76047
1.81017
129.725
1.11446
3.2887
2.02161
1.45248
2.71282
2.10461
14.1205
5.40975
9.99578
2.95421
0.968896
1.31087
2.03191
29.2859
1.82572
4.32569
1.38067
6.09411
2.0406
2.69175
6.83149
3.92135
1.89865
0.563464
7.20216
1.07724
0.640884
1.36284
17.1475
1.84643
2.57289
3.82598
0.464445
14.3809
1.54657
3.49555
1.49605
2.70346
3.06335
8.51924
27.0966
0.470647
10.1585
0.355203
2.29816
5.51773
792.023
1.3118
6.69323
2.4033
145.495
1.11508
4.35845
3.91018
1.82289
1.59138
1.25024
0.573533
2.32197
8.51904
476.084
32.923
3.36229
1.18444
5.82803
18.7443
15.3922
2.3156
18.41
1.49635
3.5512
65.8425
1.20851
101.114
0.842551
2.89025
1.77039
9.84256
3.40452
20.9027
0.681072
2.54363
4.73823
1.70992
2.42313
3.20896
1.51066
24.2289
443.711
3.52425
3.14217
10.9751
1.21392
1.02653
151.068
6.14672
1.00715
2.81542
17.2234
16.3088
3.05535
6.65856
2.04181
2.98185
4.36615
11.1908
0.612194
1.60772
2.83825
14.2221
3.09656
0.644405
4.68764
45.7719
0.833148
112.085
24.6106
0.701646
3.03075
1.4217
1.13819
0.483469
2.29054
1.51999
1.60518
3.28956
0.653458
0.934583
2.14355
0.558027
18.5624
1.41313
0.457323
1.52404
9.29469
1.02086
9.48577
1.00433
1.60924
8.83853
3.48874
5.99215
6.80482
7.70731
9.91067
11.6082
12.5739
8.53151
13.0976
3.07447
3.6428
4.21316
3.34153
4.29002
4.0494
2.59027
8.8079
0.645523
8.47919
0.61385
5.96391
1.50441
1.33136
1.63521
3.24332
3.24671
3.26375
2.55149
1.3618
2.59573
1.0761
1.04778
1.37275
1.11309
2.02078
1.18579
63.5502
3.00354
1.48952
595.5
2.53015
0.80776
1.64316
1.3106
0.53171
1.44291
20.7324
0.654226
0.778104
1.72525
1.4486
3.29999
5.96803
9.31954
1.03349
1.58453
14.6711
0.365494
0.431286
1.45528
0.740222
0.479608
8.26934
1.98572
184.911
1.24881
19.2072
54.2456
1.13522
10.7955
5.57969
1.22011
4.85093
24.802
2.15154
1.95383
5.41897
31.3491
0.540305
6.0703
7.52596
1.17663
2.36798
0.563518
1.5731
2.21847
22.876
41.6181
33.6758
2.14406
3.60339
4.6781
4.81745
2.82928
1.01344
0.501579
7.7016
0.367916
67.2379
2.42335
2.69735
22.0331
2.87186
8.64152
0.580526
1.69714
5.00416
135.828
79.6236
1.47649
1.3601
1.62511
1.6927
19.4378
0.585251
17.9417
4.94112
0.510923
15.8899
95.2849
2.42854
2.26739
0.578765
0.842106
1.89585
180.486
0.952485
3.83165
24.8423
9.98748
0.397512
0.551679
3.10756
8.44788
9.92907
5.88731
4.84763
1.56897
3.08321
15.542
2.08162
1.191
2.59949
1.63859
11.2443
0.68918
12.4398
1.73819
2.46923
2.38127
2.16987
6.26368
9.5616
0.502445
1.03104
4.83039
2.52267
442.689
4.60018
1.49886
1.83396
29.7156
2.51402
4.90925
1.41561
2.60858
3.04698
0.985436
2.51857
2.7399
3.92326
9.3241
4.92538
9.0739
3.37438
2.19594
94.9969
0.617215
206.041
0.89423
1.3727
2.35367
3.08781
5.21489
1.08836
3.2097
8.93582
3.22992
1.93353
200.482
3.02544
3.19479
2.04028
1.19263
10.6763
2.5432
3.57827
5.35085
0.651739
0.895669
14.7327
6.21039
3.22977
1.26166
2.06835
86.787
5.396
3.36033
15.0381
15.1286
1.52418
14.8439
5.15701
2.94152
161.157
1.88388
0.375356
18.2802
1.27619
76.2892
7.85801
9.71385
1.94138
153.615
2.51151
0.541463
1.56623
355.908
1.21279
0.76457
1.62955
1.65984
20.7355
1.4208
117.813
3.26281
4.35354
1.67541
271.113
3.31604
151.266
3.43611
0.506066
5.725
72.8757
126.026
0.732076
38.2234
1.58399
1.56906
1.31949
5.39898
0.972971
26.752
2.03941
1.32223
29.6766
252.234
0.674667
10.3312
2.94738
11.1187
2.66582
5.35886
1.35668
154.04
3.03344
1.68916
1.07554
1.46909
10.732
5.43094
0.994113
2.58015
3.8174
4.24242
218.461
4.02198
1.22954
1.09936
1.52241
4.6422
2.07692
5.05971
0.850186
3.86564
2.24152
2.77171
2.02072
4.06618
2.05268
2.67943
1.90977
40.7379
2.04359
2.73478
0.849063
8.00489
5.83951
3.41243
3.32012
2.40899
2.44774
3.19762
4.1987
6.11759
3.85141
1.49704
5.82126
0.423992
1.24239
1.91358
1.89301
1.9112
1.51214
1.76215
1.18432
4.01173
8.41647
1.87984
20.1823
2.13066
5.9326
10.2619
2.96065
2.95753
5.80394
9.64488
2.65942
78.1973
0.575673
1.73989
1.68503
0.941505
0.94346
0.908974
1.84384
1.66696
3.49675
17.5704
106.474
11.5923
5.50631
3.00883
5.69824
5.4402
4.91608
3.17942
1.52385
1.83922
4.15356
3.09818
0.645918
1.92937
7.68321
3.62935
1.63884
1.57639
)
;

boundaryField
{
    frontAndBack
    {
        type            empty;
    }
    wallOuter
    {
        lowReCorrection 0;
        type            epsilonWallFunction;
        value           nonuniform List<scalar> 
96
(
2.89074
8.31335
5.59002
29.4287
31.4912
28.0312
2.66129
2.61876
2.72498
3.39436
2.88015
3.04295
2.63198
33.9386
3.20399
3.63458
26.8537
3.40129
2.80967
2.73222
2.96718
2.86976
3.35446
3.94252
26.5565
75.1553
3.18166
3.28361
3.42643
3.35706
85.3876
3.18596
4.64898
3.70392
4.19599
4.88638
53.3495
91.917
4.78953
24.1547
33.9744
4.74277
3.3238
3.4519
4.88311
3.54349
3.5024
5.16097
3.38979
3.2887
2.69175
6.83149
3.49555
2.70346
27.0966
3.36229
101.114
3.14217
10.9751
6.14672
4.36615
2.83825
3.09656
45.7719
9.29469
9.48577
8.83853
3.48874
5.99215
6.80482
7.70731
9.91067
11.6082
12.5739
8.53151
13.0976
3.07447
3.6428
4.21316
3.34153
4.29002
4.0494
5.96391
2.59573
5.96803
6.0703
17.9417
2.59949
4.83039
5.35085
3.36033
15.0381
3.31604
38.2234
29.6766
2.94738
)
;
    }
    inlet
    {
        type            fixedValue;
        value           nonuniform 0();
    }
    outlet
    {
        type            zeroGradient;
    }
    wallInner
    {
        lowReCorrection 0;
        type            epsilonWallFunction;
        value           nonuniform List<scalar> 
126
(
6.17026
0.861638
1.99011
4.60056
1.3192
0.653024
3.03786
4.65845
1.30373
2.12742
0.472633
8.19702
79.503
4.00205
1.728
3.209
5.64248
1.14806
0.490025
1.0795
2.44353
0.378845
6.88629
0.990646
0.594347
1.05819
5.28849
2.70156
2.64746
0.967305
12.0036
2.86409
87.5599
6.53202
52.2331
2.34047
0.456817
8.88414
0.395016
0.520175
1.34374
7.76869
0.463011
2.08767
1.71102
0.5557
2.6002
71.0764
4.05519
7.58593
32.5991
3.38772
39.0622
1.42962
7.78411
4.75111
0.452787
41.3631
8.63143
8.69174
0.65043
2.0283
4.34627
170.519
0.63761
0.667382
13.4808
64.1146
0.741766
30.7802
6.17153
10.8744
2.62295
1.92082
2.9045
4.76192
2.64597
6.80363
2.46323
7.98642
2.23731
6.98908
1.01173
3.8806
1.16359
4.76067
11.7514
1.59433
3.59503
3.92054
3.91197
3.24327
3.87695
1.91056
4.46211
2.51359
1.36284
41.6181
0.674667
10.3312
9.64488
2.65942
0.575673
1.68503
0.941505
0.94346
1.84384
3.49675
17.5704
106.474
11.5923
5.50631
3.00883
5.4402
4.91608
3.17942
1.52385
1.83922
4.15356
3.09818
0.645918
1.92937
7.68321
3.62935
1.63884
1.57639
)
;
    }
    procBoundary3to1
    {
        type            processor;
        value           nonuniform List<scalar> 
48
(
1.23697
2.11727
1.91332
1.46557
3.72235
2.39546
2.11727
4.11016
1.21068
0.837854
0.837854
0.798689
0.798689
0.755428
1.54138
0.575951
0.35857
0.397208
0.35857
0.367245
0.401008
0.714416
0.367245
1.42045
0.711897
0.596715
2.6932
0.714416
3.73783
2.64252
2.64252
4.5611
4.5611
1.21068
0.39191
5.42325
2.30212
0.711897
1.23279
1.88004
0.755428
1.45338
1.27873
0.367245
1.75519
2.59445
2.52302
0.450873
)
;
    }
    procBoundary3to2
    {
        type            processor;
        value           nonuniform List<scalar> 
29
(
1.67652
1.67652
3.9441
4.37225
2.08847
2.7208
2.43323
1.48584
3.08277
3.39102
2.09523
1.91863
1.72235
4.52803
1.57693
5.2994
4.9308
3.72922
1.42255
2.12558
1.9972
4.9308
2.99227
3.72922
1.54812
5.27178
3.72922
1.69425
1.69425
)
;
    }
}


// ************************************************************************* //
