/*--------------------------------*- C++ -*----------------------------------*\
| =========                 |                                                 |
| \\      /  F ield         | OpenFOAM: The Open Source CFD Toolbox           |
|  \\    /   O peration     | Version:  v1912                                 |
|   \\  /    A nd           | Website:  www.openfoam.com                      |
|    \\/     M anipulation  |                                                 |
\*---------------------------------------------------------------------------*/
FoamFile
{
    version     2.0;
    format      ascii;
    class       surfaceScalarField;
    location    "0.15";
    object      phi;
}
// * * * * * * * * * * * * * * * * * * * * * * * * * * * * * * * * * * * * * //

dimensions      [0 3 -1 0 0 0 0];
oriented        oriented;


internalField   nonuniform List<scalar> 
2708
(
-0.000179376
1.27449e-05
6.62844e-05
0.000100347
8.1837e-05
0.00044162
-0.000404828
-0.000118628
0.000129822
2.86076e-05
-0.000122352
-3.60773e-05
-7.24996e-05
8.60631e-05
-7.58315e-05
6.2268e-05
-0.00020853
-0.00010075
0.000163114
0.000146166
0.000636976
-0.000589189
0.00020054
-0.000248326
0.000378754
-0.000322865
0.000372238
-0.000428126
-9.68639e-05
0.000267176
-4.17982e-05
-0.000128514
-0.000284643
0.000292156
0.000388894
-0.000396407
0.000329609
0.000530529
-0.000481384
0.000913626
-0.000948028
0.000272214
-0.000237813
0.000252187
-0.000342303
0.000914954
-0.000824837
-0.000196349
0.000260171
-0.000244402
0.00018058
-7.65656e-05
-0.000427208
0.000330559
0.000173214
0.000342624
-0.000410318
-0.000131166
0.00019886
0.000437536
0.000273389
-0.000381317
-0.00101706
0.000860374
-0.000318578
0.000475267
1.21323e-06
-4.81586e-06
5.8491e-06
-2.24647e-06
0.000553766
0.00015857
-0.000684221
-2.81149e-05
-1.86988e-05
6.98436e-06
1.66935e-05
-4.979e-06
-0.000352705
0.000753546
0.000512784
8.75597e-05
2.31772e-05
-0.000187302
-0.000396446
-0.000173033
0.000328377
0.000241102
-0.00026728
-0.0013576
0.00138675
0.000238123
-0.00041074
-0.000270349
-0.000110775
4.50999e-05
0.00013775
-7.20756e-05
-0.000910407
-0.000170939
0.000133318
-0.000175998
0.0001744
0.00016817
-0.000166573
1.6867e-05
-0.000234394
0.000217527
-2.92949e-05
-0.000384724
0.000414019
0.000437171
4.09156e-05
-4.74694e-05
-0.000430617
-0.000349955
2.81371e-05
-1.63229e-05
0.000338141
0.000417537
4.00798e-05
-2.46398e-05
-0.000432977
-0.000151459
0.000122739
3.02422e-05
-1.52185e-06
0.000493071
0.000104665
-0.000551639
-4.60983e-05
-0.000130683
0.000365446
-0.000268709
3.3946e-05
0.000204845
0.000445418
-0.000159118
3.22429e-05
-5.14155e-06
-9.67353e-06
-1.74278e-05
0.000100793
-1.25009e-05
-2.2294e-05
-6.59976e-05
5.51879e-05
0.000311
-0.00035486
-1.13276e-05
-0.000250938
0.000204369
0.000315101
0.000385305
-0.000165775
-0.000141349
-5.19577e-06
-0.000119343
1.6733e-05
0.000107806
-0.000453957
0.000476629
-0.000436123
0.000413451
8.66212e-05
-4.50927e-05
-7.62217e-05
3.46932e-05
0.000243918
-0.000275949
-8.37444e-05
0.000115775
-0.0008369
0.000114117
-0.000187624
0.000264732
-0.000331361
-0.000256236
5.02376e-05
-2.75151e-05
-8.08236e-05
5.81011e-05
-0.000171691
-0.000287747
0.000344096
0.000115342
0.000137773
-0.000170777
-6.19543e-07
3.36232e-05
0.000201854
-0.000207734
-6.17961e-05
6.76761e-05
-1.12884e-05
0.000284289
-0.000130931
-0.00014207
5.58883e-05
0.000461688
-6.26792e-05
-0.000454897
3.7621e-05
8.87537e-05
-8.39049e-05
-4.24698e-05
6.06326e-05
-9.46285e-05
-3.74734e-05
7.14692e-05
-0.00052889
-0.000387502
0.000606298
0.000310094
0.000898038
-0.000267536
-0.000630502
4.0916e-05
2.80725e-05
-6.89885e-05
0.000166626
-0.000289724
4.58542e-06
0.000285139
-9.23012e-05
0.00016093
-6.86291e-05
5.59015e-05
-2.36586e-05
0.000100971
-1.78847e-07
0.000275677
0.000229156
-5.26799e-05
7.69183e-05
0.000252817
1.49213e-05
9.82358e-06
9.94452e-06
-1.97681e-05
-0.000312276
0.000340539
-2.82629e-05
-0.000115371
8.85054e-05
2.68658e-05
-0.000194751
4.32925e-05
1.01494e-05
-7.6961e-06
1.16984e-05
0.00011104
-0.000364641
-6.25669e-05
0.000124894
-3.82731e-05
-0.000108519
1.43741e-05
9.41446e-05
6.77425e-05
1.14607e-05
-7.92032e-05
0.000322354
0.000208175
-4.33248e-06
5.54571e-06
-0.000822929
-0.000194134
-6.9347e-05
4.0545e-05
2.8802e-05
-0.000104644
5.70794e-05
0.000631454
-0.00058389
-0.000380292
0.000423311
0.000200899
-8.55173e-05
5.48729e-05
0.00128998
-0.00125934
2.24412e-05
0.000269338
-2.81008e-05
-0.000263679
0.000390903
-1.20602e-05
6.64445e-06
-0.000385487
0.00014925
-0.000174659
7.33908e-06
1.80703e-05
2.13448e-05
2.5404e-05
-0.000967328
0.000920579
-6.79741e-05
1.97857e-05
-0.000780789
0.000828977
1.89354e-05
0.000118239
-7.65417e-05
0.000108314
-0.000102912
1.35333e-05
-2.41503e-06
-4.80618e-06
2.07967e-06
-0.000205425
0.000265729
-0.000328113
0.000267809
0.000460208
-0.000443123
3.88031e-05
3.28653e-05
-0.000344431
0.000311565
-0.000392075
-0.000184605
-0.000500943
0.000550186
0.000135361
8.18282e-05
-0.000119393
3.23694e-05
8.43322e-05
-6.03661e-05
-2.39661e-05
0.000118154
-4.35458e-05
-3.69873e-05
-0.000174351
-3.35454e-05
-0.0006254
4.94859e-05
-0.000128483
0.000704397
-1.62554e-05
-6.15709e-06
1.06695e-05
1.1743e-05
4.39859e-05
3.44057e-05
-1.06491e-05
-0.000375436
-1.35183e-05
0.000381465
7.48938e-06
-2.64896e-06
0.000329507
-0.000320891
-5.96713e-06
-0.000148014
0.000562501
-0.000635907
0.000221419
0.000342007
-0.000163065
-0.000351975
0.000773443
-0.000500805
1.04896e-05
1.4171e-05
-0.000308311
0.000197194
0.000371288
6.55939e-07
-0.000118838
0.000102599
1.55829e-05
-0.00021262
0.000207975
0.000209013
5.65095e-05
0.000487015
-8.36354e-05
0.000135807
-6.23502e-05
0.000108276
-8.58347e-05
-3.63997e-05
-3.03556e-05
-0.00028192
-8.5552e-05
-0.000324766
7.35094e-05
-8.47978e-05
-2.41017e-05
-5.19787e-06
9.37033e-05
0.000228633
9.37213e-05
2.1303e-05
-8.91058e-05
-0.000152934
0.000110873
1.0194e-05
9.75941e-05
-7.91805e-05
-0.000211094
0.000374328
6.43148e-05
-0.000227549
0.000287509
0.000572865
9.16019e-07
-5.73188e-06
-0.000523205
-0.000120162
0.000432274
0.000127712
-0.00054475
0.000970804
-2.15971e-05
1.07109e-05
-7.81256e-06
7.39474e-05
-8.48402e-05
-0.000123366
2.77623e-06
1.91512e-05
-6.84801e-05
4.65527e-05
-5.77691e-05
-5.44152e-05
0.00011677
0.00133354
8.72811e-05
-0.00129102
-0.000129802
-1.20886e-05
-4.03402e-06
-8.46687e-06
0.00039581
1.93393e-05
5.30913e-05
-0.000468241
-7.7255e-05
0.000191906
0.000213725
8.31206e-05
0.000367281
-0.000189513
-5.64874e-05
0.000145341
2.93009e-05
0.000440286
9.72794e-05
-0.000113422
-3.52691e-05
-4.14746e-05
0.000351875
8.75467e-06
-0.000319155
-4.97733e-05
0.000158049
-0.000299064
-1.66066e-05
-2.35571e-05
0.000339228
-1.44235e-05
2.32792e-05
-1.36619e-05
-0.00124998
-0.000157491
0.00122712
0.000180351
0.000258578
0.000468409
-0.000407994
-0.000318993
-9.42125e-05
5.42226e-05
-0.000698298
0.000738287
-0.000424616
0.000416125
4.80788e-06
3.68355e-06
0.00098618
-0.000866935
0.000131429
-0.000250675
-0.000274902
-0.000246769
0.000277269
0.000430316
-0.000400424
-0.000205795
0.000175902
-4.07785e-06
-0.000434543
0.000434781
3.84026e-06
-3.9817e-05
0.000113326
-0.00028038
0.000112533
-1.15289e-05
0.00047246
4.4257e-05
-2.39212e-05
5.05002e-05
0.000521459
-0.00054364
-3.54762e-05
5.76579e-05
-7.34644e-05
-0.000893285
1.79501e-05
0.000948799
-9.02373e-05
-0.000166577
0.000200327
-2.30822e-06
0.000379101
-3.09917e-08
-0.000376761
0.000312672
-0.00165803
-1.45664e-07
0.00134551
0.000516113
-0.000173335
9.88422e-05
0.000328156
-0.00126547
-7.64416e-05
-0.000452563
5.79974e-06
0.0005645
-0.000381481
-0.000134923
0.000254127
8.26501e-05
0.000338899
3.82395e-05
-0.000287547
-8.95925e-05
-0.000205707
2.33738e-05
9.2105e-05
5.3948e-05
-0.000141729
0.000106006
-1.82254e-05
0.00120329
-0.00121342
-0.000257148
0.00028673
-0.000177143
0.000454913
-0.000220002
0.000217353
-0.000123685
-2.43287e-05
8.8076e-05
0.000686615
-0.000463266
0.000165085
-3.75057e-05
0.000335687
-4.44106e-05
-4.86656e-05
-0.00105661
0.00114968
0.000382369
-0.000423734
0.000124485
0.000368606
-0.000314771
6.50256e-06
-6.03381e-05
0.000322075
-0.000446601
0.000179714
0.000456266
-3.76546e-05
0.00014389
2.2849e-07
0.000293927
0.000647962
-0.00047348
-0.000347154
-0.0002818
0.000444349
0.000455453
-0.000433764
-1.05067e-05
-1.1182e-05
1.19914e-05
-8.66239e-06
6.61549e-06
-7.98327e-05
6.69586e-05
0.000107088
-9.42137e-05
0.000234599
-0.000128343
-0.000109498
3.243e-06
-0.000109625
0.000431065
0.000108876
-0.000496696
-0.000484802
0.000687979
0.000293519
-2.16287e-05
0.000414374
-0.000397407
4.66169e-06
-3.54673e-05
0.00020916
-0.00026383
9.01378e-05
1.37454e-05
0.000428858
-0.000431274
-1.13295e-05
8.32949e-05
-0.000333486
0.000326701
-7.65103e-05
-1.8622e-05
-1.47682e-05
2.4656e-05
8.73413e-06
0.00123529
-0.00125909
-8.38666e-05
0.000107664
-7.74549e-05
1.03671e-05
-2.94764e-05
2.90187e-05
4.5772e-07
-8.11974e-05
0.000127482
-0.000446708
0.000338552
2.52171e-05
-3.42622e-05
-0.000327842
-6.10258e-05
1.34319e-05
-0.000107229
-0.00125116
0.00127287
-2.10601e-05
-4.50122e-05
0.000150404
0.000366622
-0.000100004
-0.000308093
8.05552e-05
0.000465235
-9.03371e-05
0.000227585
-0.000158575
0.000221917
-0.000290928
0.000225935
-0.000555687
-0.000166944
0.000227019
0.000185263
-0.000346327
-6.59555e-05
-3.94128e-05
3.20003e-05
6.13605e-05
0.000279496
-0.000313741
0.000406737
-0.000372492
-1.90818e-05
0.000441814
1.52068e-05
-0.000437939
-0.000358797
0.000286752
-0.0012148
0.00122895
-0.000121384
-0.000418558
0.000626857
-0.000693101
-6.41787e-05
8.46946e-05
-0.000233342
2.60086e-05
0.000392597
-0.000400214
7.59796e-05
0.00055017
-2.61741e-06
-0.000316013
0.000439248
-0.000120618
-1.1542e-05
1.01675e-05
0.000438545
1.39588e-05
-0.000379017
0.000378804
0.000207005
-7.28814e-05
0.000187951
-7.14606e-06
-0.000356901
1.40916e-05
-0.000780292
-0.000136662
0.000829829
8.71248e-05
0.000343691
7.17865e-05
-7.69257e-05
2.60284e-05
-0.000201491
-0.00015238
-9.1322e-05
0.000264666
0.000209025
-0.000261878
0.000162707
0.00017253
-7.33582e-05
-0.000417765
0.000431197
-8.98729e-05
-0.000222853
0.00023749
0.000232119
-0.000246756
0.000120706
-0.000100209
-0.000222339
0.000332275
-8.39071e-05
-9.69681e-05
-5.02459e-05
-0.000217872
4.26179e-05
0.0002255
-0.000258745
0.000249746
-0.000367213
0.000805446
0.000138174
-0.000296049
-0.000188452
-5.57725e-05
-7.31623e-05
1.18747e-05
-2.78182e-05
-0.000364861
0.00117213
-0.000785925
-0.000439358
1.06638e-05
0.000437808
-3.46271e-06
-3.10659e-05
4.52037e-05
-0.000477675
5.75229e-05
0.000393284
2.68677e-05
-0.000449681
4.95954e-06
5.36398e-06
-0.000170954
0.00123198
0.000167932
-0.000665291
0.000783222
-0.000306156
0.000188225
3.31645e-06
0.000119949
7.10081e-05
-2.61527e-05
-0.000164804
5.40703e-05
-0.000378566
-9.66375e-05
0.000182494
-4.24045e-05
-0.000431788
-2.01103e-05
-0.000200512
-0.000342902
-0.000631343
0.000180792
-0.000331844
-0.00025914
0.000410193
5.4064e-07
0.000127298
0.000328428
0.000125642
-0.000712796
-3.10153e-05
-6.36133e-05
0.000163798
0.000100954
0.000334944
0.000103555
-9.48083e-05
-0.000421033
-4.64744e-05
-0.000310528
0.000125044
-7.63948e-05
0.00115781
-0.000245091
-1.20351e-05
0.00035363
0.00142301
-0.000158467
-0.000106738
-0.000398099
-0.00020239
5.00115e-05
0.000550478
-0.000198736
0.000212694
-0.000242571
0.000314357
-0.000224059
0.000271645
-0.000137824
-0.000217455
0.000164848
-0.000286534
0.000339141
-6.14908e-06
0.000282108
0.000315492
-0.000192224
0.000130254
-0.000253522
0.00044973
-8.38123e-05
-0.000438682
7.27648e-05
-0.000176871
0.000652608
-0.000580381
-0.000373319
0.000100754
-0.00020511
-0.000291976
6.82454e-05
-9.98863e-05
0.00122419
-0.00119254
0.000371801
-0.000250611
-0.000239818
-6.63055e-06
-0.000256703
0.000242855
-0.00037397
0.000387819
9.43181e-05
-0.000505651
-3.88767e-05
-0.000193762
3.83533e-05
0.000194285
4.10398e-05
-0.000608198
2.52214e-05
-0.000324519
0.000376263
-0.000499948
5.07454e-05
-0.000270748
-4.50337e-05
-5.77262e-05
8.16998e-05
-0.000196974
-1.7615e-06
4.7227e-05
0.000169406
-7.12924e-05
-5.30447e-05
5.49333e-05
-1.8886e-06
6.42133e-05
-0.000452144
-3.31024e-05
-0.000162262
0.000197068
1.83799e-05
-5.3186e-05
-8.78387e-05
-0.000264996
8.28095e-05
0.000270026
-0.000454124
-1.46392e-05
-0.000209528
-0.000343223
0.000235457
0.000209562
0.000380588
-0.000525009
6.94449e-05
-0.000561313
0.000636612
0.000218628
2.23659e-05
0.000206267
2.27774e-05
6.19833e-05
-6.14427e-05
0.000407892
-0.000387607
0.000271872
-0.000509721
0.000322239
-0.000136052
-0.000375244
7.75311e-05
5.90465e-05
1.39512e-05
-3.56808e-05
5.19415e-05
-3.02119e-05
-0.00057129
0.000548967
0.000672577
-0.000650254
0.000318843
-0.000319958
-0.000208413
0.000283729
-0.000145488
3.36545e-05
-4.98583e-06
1.18764e-05
0.000150067
-2.76102e-05
-0.000161334
-0.000314797
0.000129173
0.000368659
-0.000183036
-9.81029e-05
-2.42491e-05
-2.67116e-05
0.000388656
-0.000282891
-0.000369439
0.000263674
0.000309852
-0.000335839
4.92476e-05
-2.32602e-05
0.000552021
-4.14524e-05
-7.27604e-05
0.000210492
-0.000271518
1.94366e-05
-2.79561e-05
-1.12486e-05
0.000394749
-0.000276688
-0.000374764
2.04529e-05
2.19946e-05
8.32965e-06
-5.07772e-05
-0.000411928
-4.82419e-05
-0.000174671
-2.30576e-05
-0.000309586
0.000274653
0.000267113
-0.00023218
-0.000150747
-0.000723757
-0.000361774
0.000362502
-0.000315524
-9.05885e-06
-1.3739e-05
-0.000182158
2.12263e-05
-0.000257438
0.000333285
-0.000576647
0.0005008
-0.000151343
0.000387223
-2.79042e-05
-0.000281012
0.000272289
0.000416615
-0.00041429
0.00029259
0.000386366
3.55807e-05
-0.000332667
0.000749789
-0.000517759
0.00119098
-0.000296124
-0.000522627
-5.08607e-05
0.000192413
4.32325e-05
-0.000184785
7.02615e-05
-8.26317e-05
0.000569495
-0.000557124
-8.52386e-05
8.78243e-05
7.3953e-05
-7.65387e-05
0.000161395
-1.12345e-05
-9.33699e-08
0.000330121
0.000298399
-0.000339744
-0.000288776
-0.000144711
0.000134899
-7.54268e-05
0.000184357
-0.000207724
-0.000140703
0.000164071
0.000335112
-1.98557e-05
0.00116535
-0.0014806
-8.15685e-05
7.89511e-05
6.8891e-05
-0.00132468
0.00121138
1.9935e-05
6.23585e-05
5.2662e-06
-0.000448108
-8.78482e-05
2.47254e-05
-0.00078765
0.00118689
2.3695e-05
-0.000422931
-0.000292863
0.000276872
-0.000527349
0.000425753
4.30969e-05
-0.000321275
0.000295045
-5.98146e-05
-0.000421226
0.000451746
0.000812192
-0.000839242
-6.83665e-05
-8.97936e-05
5.74101e-05
-0.000542581
8.49607e-05
0.00107111
-0.000613486
-0.000238913
-0.000180516
0.000196576
0.000356803
0.000131174
0.000991933
-0.0010134
-9.99215e-05
0.000329972
2.09635e-05
7.43448e-05
-0.000114523
1.92151e-05
0.000240614
-0.000189295
-0.000171353
0.000120034
-0.000154998
0.000975977
0.000309731
-0.000267695
-0.000316937
-0.00048819
0.000413145
-1.8968e-05
1.48831e-06
8.84306e-05
-7.09509e-05
0.000126969
-0.000878795
-0.000714532
8.86494e-05
0.000385947
-0.000104793
-0.000369803
0.000300751
-9.7163e-06
-1.30065e-05
-0.000278028
0.000353833
2.05393e-05
-0.000225542
-0.00014883
0.000550305
-0.000641119
8.03075e-05
-0.00024971
-0.000246276
0.000257073
0.000431924
-0.00012089
-0.00021338
-4.28567e-05
7.49463e-05
0.00018129
-0.000304571
-2.80258e-05
0.000119217
-0.000456584
-5.0547e-05
5.30071e-05
0.000833826
-0.00020135
-4.8728e-05
-0.00042743
0.000310664
-0.00016035
0.000277116
-0.000241461
-9.12102e-06
-0.000176847
-0.000291826
0.000403793
0.000229276
-0.000428272
-0.000236595
0.000435591
0.000439632
-0.000430633
0.0002894
5.23765e-05
0.000361949
-0.000462559
0.000614932
3.67406e-05
0.000358821
-2.2771e-06
-0.000109791
1.47149e-06
0.000162011
-5.36918e-05
0.000319376
-0.000122888
2.06988e-05
-0.000217187
-0.000491879
0.000131965
3.57215e-05
-1.45409e-05
-2.11806e-05
-0.000112677
0.000106268
0.00033436
-8.6227e-05
7.12433e-05
0.000486362
-0.000274606
-8.25822e-05
0.000315525
-7.9553e-05
9.83871e-05
-0.000217777
6.25707e-05
-5.52185e-05
0.000210425
3.86017e-05
0.00040388
3.26569e-05
-7.92321e-05
4.15894e-05
0.000337212
0.000197353
-0.000316897
-0.000217668
1.67535e-05
1.14079e-05
-0.000676741
0.000295859
-8.62035e-05
0.00010587
-4.39054e-05
0.000314675
9.33524e-05
-0.000205513
-0.000207031
-0.000174503
0.000318304
0.000259723
-0.000262255
-9.59943e-05
0.000115569
0.000276285
2.10333e-05
-2.98028e-05
-5.9597e-05
1.16532e-05
-1.96036e-05
1.49348e-05
0.00015836
0.000565756
-0.000565546
9.93477e-05
4.88202e-05
-0.000147512
-0.000223042
-0.00129661
0.000162059
-0.000107581
0.000321555
1.26497e-05
-0.000226624
0.00031152
-0.000319882
0.00014828
-0.000139919
0.000368799
-0.00016486
0.000127017
1.51371e-06
0.000242809
0.000105431
0.000216257
4.71108e-05
-0.000360298
0.000312455
-0.000169485
0.000217328
6.66889e-05
-0.000141999
0.000302555
-0.000183195
2.26389e-05
0.000322106
-0.00015165
3.5585e-05
-0.000102108
0.000369078
1.98356e-05
-0.000162834
7.81076e-05
6.48913e-05
0.00113474
0.000553428
-0.000376505
-0.00131167
3.94221e-05
0.000115312
4.86745e-05
7.85718e-05
4.39656e-05
6.26443e-05
5.69593e-05
-1.25412e-05
-3.16778e-05
1.13946e-05
3.28244e-05
2.75871e-05
1.18132e-05
0.000299271
-0.00034376
-0.000364353
0.000408841
-0.000174319
0.00013813
0.00014198
-0.000105791
-0.000250101
-0.000124132
0.000199915
-6.45848e-05
-7.98003e-05
0.000109594
3.47913e-05
-0.00016388
0.000215482
0.000113758
-0.00016536
-4.03662e-05
-5.53333e-05
2.59152e-05
0.000199971
0.000280243
-0.000149172
0.000115902
5.32054e-05
-0.00116062
7.10761e-05
0.00107828
1.12632e-05
2.9811e-05
-2.5963e-05
-4.42142e-05
6.19744e-05
7.73583e-06
-8.20906e-05
9.1868e-05
-0.000102911
-5.94503e-05
0.000152505
-0.000147329
5.42737e-05
-0.0012479
8.71368e-05
0.000127897
-0.00010731
0.000179384
-5.55486e-05
1.90849e-05
0.00012026
-5.58962e-05
-0.000123814
-4.32512e-05
-5.71598e-05
-0.00136921
0.00017538
0.000116678
-6.10028e-05
-0.000431821
-0.000850105
0.00019367
-0.000113367
-0.000199646
3.96261e-05
-2.49134e-05
-1.03967e-05
8.57106e-05
-0.000128993
-8.33081e-05
0.000126591
-0.00148505
0.00026292
0.000851809
-0.000620229
0.000903162
-2.7847e-05
-0.000110335
1.43185e-05
5.05628e-05
-6.21051e-05
3.93442e-05
-1.40627e-05
0.000263661
4.16943e-05
0.000115754
-9.59029e-06
8.58198e-06
4.21569e-05
-0.00108243
0.000449195
-0.000232303
0.000295072
-0.000193452
-7.53357e-05
5.99515e-05
0.000150164
0.000197587
-0.000231997
-1.21906e-05
-7.67784e-06
-2.67541e-05
-0.000129977
0.000105523
-4.72782e-06
-6.28855e-06
-3.05573e-05
4.15736e-05
-0.000871308
0.000256138
-8.4726e-05
-0.000403715
-9.89541e-05
2.22749e-05
-1.01293e-05
2.16903e-05
-3.27047e-05
2.11437e-05
0.000175579
-0.000321467
0.000206896
-6.10078e-05
9.56458e-06
-1.38449e-06
-1.90496e-05
-4.31679e-05
4.35615e-05
-0.00138258
0.000134769
0.000178142
0.000164664
-8.66676e-05
9.1648e-05
0.000161513
-0.000144846
-2.61265e-06
-0.000161856
0.000163119
1.34896e-06
1.0836e-05
6.67301e-05
-3.24662e-05
0.00013632
2.83987e-05
-9.46154e-05
9.20027e-05
-0.000344856
-0.000974489
-6.3236e-05
-0.00122741
-0.000449117
2.61139e-05
1.29767e-05
0.000138589
0.000334625
0.000115387
-6.0514e-05
0.000110796
7.15033e-05
-9.06512e-05
3.26695e-05
-3.19629e-05
0.000119487
0.000250362
-0.00021149
-7.24677e-06
6.75317e-06
-1.24932e-05
-8.21221e-05
0.000419455
0.000426639
-2.36655e-05
-0.000150683
8.11334e-06
4.62465e-05
-5.71853e-05
0.000126427
-0.000822476
-0.000395374
0.000378143
-0.000258718
0.000255447
-0.000224708
0.000172439
-9.82234e-05
-0.000467985
3.44848e-06
7.13949e-05
0.000473223
-0.000480754
-7.10869e-06
-0.00153261
-0.000264359
0.000233977
4.14146e-06
-7.00909e-05
-1.44404e-05
-1.00486e-07
3.03608e-05
-9.5808e-05
-0.000121739
1.21823e-05
0.000205364
0.000125881
-0.000136172
4.26653e-05
2.56729e-05
-0.000125523
0.000318332
-0.000382281
-0.000305285
0.000369234
6.53516e-05
-3.2354e-05
1.26617e-05
0.000550724
-0.000480462
1.34946e-05
8.55239e-05
-2.76236e-05
-8.98442e-05
0.000122132
-0.000277165
0.000343233
-0.000188956
-9.1005e-05
-1.66012e-05
0.000107606
2.05758e-05
0.00030893
-0.000277129
-8.58114e-05
0.000245451
-0.000293939
0.000230744
-2.58309e-05
-0.000217066
0.000142556
-0.000627776
0.000767551
-0.000139775
0.000187726
-0.000154228
-0.000374826
-5.01173e-05
-8.00379e-05
0.000504981
-0.000302722
0.000145136
-9.57854e-05
0.000253371
9.977e-07
4.75402e-05
0.00035115
0.000174871
-0.000341664
0.000380287
-0.000213494
3.83637e-05
-6.46503e-05
-4.23426e-05
-5.36881e-05
-0.000121519
0.000458458
1.97248e-05
-1.2118e-06
0.000165329
-7.70529e-05
-0.000701677
0.000524536
-0.000175563
-3.28818e-05
-0.000306359
-0.00134861
-0.000342459
0.000614743
0.000305598
-6.70137e-05
-0.000148743
0.000164896
-0.000455461
0.000637717
-6.19771e-05
-0.000118227
0.000113191
0.000114212
1.26345e-05
1.25577e-05
-0.000244801
0.000231031
0.00012448
-0.000302592
-1.54577e-05
0.00019357
-0.00025359
0.000218616
-6.10209e-05
-0.000700147
0.000223934
0.000809498
-9.91758e-05
0.000319174
0.000295799
-4.69851e-05
-2.33262e-05
2.88256e-07
2.30379e-05
0.000548228
0.000490239
-0.000504252
-8.42101e-05
1.4465e-05
0.000342593
-0.000357058
-4.24384e-05
0.000327329
-0.000436541
0.000143787
-0.000336652
-0.000276544
-6.32489e-05
0.000269986
-0.000290493
-0.00067964
-0.000560531
0.000584606
-0.000419449
0.000413901
0.000170885
-0.000387433
0.000242992
0.000341227
-0.000347352
0.00048211
-0.000136403
-2.3822e-05
7.70488e-05
-8.53033e-05
-4.84431e-05
0.000111167
0.000109715
0.000294913
-0.000324794
0.00024068
-0.000220104
-0.000292416
-0.000409911
0.00035098
0.000280849
-0.000305695
-9.67563e-05
0.000106402
-0.000292334
0.000243134
-0.000271933
0.000321133
-7.84459e-05
8.1188e-05
0.000123685
6.50341e-05
0.000289713
-5.39967e-05
0.00103754
0.000116318
0.000311897
-0.000328693
0.000132365
0.000129026
0.00058768
-0.00056598
-0.000218016
0.000196316
0.0003743
0.000234286
-0.000246084
-0.00113614
0.00105959
0.00027946
-0.000512687
-6.98582e-07
0.000253291
-0.000174827
-7.77653e-05
2.04038e-05
-4.10621e-05
5.63412e-05
-5.80227e-05
-0.000116546
-0.000106144
4.28633e-05
-0.00024129
-4.19646e-05
0.000270118
-0.000359409
0.000412475
0.000378728
-0.000301142
0.000268401
-0.000345988
0.000142128
0.00112431
-0.000938281
1.56785e-05
-1.14816e-05
0.000259179
7.06721e-05
-8.92377e-05
0.000398092
-0.000188387
0.000129195
6.0848e-05
-0.000109642
-0.000179956
-6.52302e-06
6.81128e-06
-0.000334261
0.000403638
-0.00017552
-0.000111026
1.86237e-05
-0.000130657
0.000623099
-0.000325088
-0.000284261
0.000317015
-5.01022e-05
2.11122e-05
1.38198e-05
2.96579e-05
0.000174572
-7.16193e-06
0.000170509
-7.33795e-05
0.000149031
-0.000125335
0.000295477
0.000136258
0.00012517
-4.28117e-05
0.000148409
0.000487711
0.000820165
-0.000980265
-0.000128861
-0.000210177
-0.000364413
0.00028065
-6.83749e-05
0.000102739
0.000391793
-0.000295956
0.000474424
0.000387093
-0.000371816
-0.00010515
-0.000131787
9.95046e-05
0.00034418
-2.68889e-05
0.000267569
-0.00013939
-0.000290809
-1.3711e-05
-0.000383871
-0.000255417
-0.000241772
-0.00025577
1.23182e-05
0.000435041
-9.29888e-05
-0.000315185
0.000369741
-2.71474e-05
0.00045215
0.000348984
0.000149177
-0.000147013
-0.000913326
-0.000169771
0.000242608
-0.000240936
5.11872e-05
-5.2536e-05
-2.43226e-05
0.00017305
0.0005678
0.000125668
-5.24114e-06
-3.59596e-05
9.5691e-05
1.00028e-05
0.000280756
3.52986e-05
0.00049801
0.000970058
-0.000915185
0.000467992
-2.02562e-05
0.000213953
-0.000119679
-5.16565e-05
0.00105893
-8.88767e-05
-8.38215e-05
0.000371011
0.000475267
-0.000390586
4.62693e-05
-0.000428497
-0.000237691
-0.000279981
-0.000845887
-6.92986e-05
-0.000128205
0.000152587
9.18961e-06
-3.35717e-05
4.14958e-05
-8.6575e-05
5.85395e-05
-1.34603e-05
1.10687e-05
0.00024188
-0.000391581
4.16882e-06
8.69155e-05
-0.00032754
0.000352541
-2.50011e-05
-3.53231e-05
-4.58958e-05
0.000106892
9.16054e-05
0.000131269
0.000329581
-0.000306235
-2.13049e-05
-0.000254191
0.000280499
-2.63088e-05
-0.000170684
-0.000472978
0.000517574
-4.4596e-05
-0.000227516
0.000225367
-0.000233528
-2.06621e-05
0.000943362
0.000432576
-0.00039992
-3.26559e-05
-0.000125968
-0.000351802
-5.42115e-05
-0.000301886
-2.57356e-05
-4.29344e-05
0.000310503
-0.000100812
0.00115975
-3.72771e-05
0.000407018
-4.04018e-05
0.000188384
-0.000123885
0.000132078
0.000121394
-0.00012531
-0.000369822
0.000373738
-0.000247725
-9.11443e-05
-0.000165385
-0.000364563
-9.33506e-05
-0.000342889
6.8816e-05
0.00031717
7.36705e-05
-6.91742e-05
0.000293642
-0.000236784
0.000128199
-0.000356333
-8.23939e-05
-0.000264445
-0.000172969
2.70145e-05
-6.85979e-07
-0.00044213
-1.98513e-05
0.000571753
0.000229698
-0.000240677
3.09068e-05
-6.42669e-05
8.82934e-05
2.62825e-05
-0.000448836
0.000457853
-0.00017685
-0.000179395
-0.000131395
0.000105277
-6.8969e-05
-0.00052144
0.000533031
7.31027e-05
0.000348942
-0.00011484
0.000394402
3.50249e-05
-0.000250507
0.000169586
0.000106068
-3.99956e-06
-1.04631e-05
0.000363416
-7.67697e-05
0.000574653
-0.000777641
3.02606e-05
0.000438861
-0.000297425
0.000297394
-0.000200978
-0.000177454
0.000534544
-0.000277209
0.000346862
-5.70032e-05
-0.000635904
0.000159087
-9.44387e-05
-0.000482471
0.000448427
-5.47587e-05
2.2177e-05
0.000450087
-6.47597e-05
3.65823e-05
2.51678e-05
-5.16596e-05
0.000112016
-0.000134829
9.34712e-05
-0.000432239
4.81629e-05
-0.000196178
0.000314079
-9.28408e-05
0.000505651
0.000154826
-0.000339932
1.78642e-05
1.32135e-05
-3.49057e-06
-0.000441557
-0.000143163
-0.000148631
-0.000204484
0.000507039
9.57862e-05
-7.68419e-06
0.000108511
4.79668e-05
3.88168e-07
4.02592e-06
-0.00025437
0.000271163
0.000117129
-0.000339953
-0.000190112
5.62261e-05
-8.62636e-06
0.000646243
0.000439648
7.85939e-05
0.00041316
0.000125632
-0.000191447
0.000237757
-0.000268571
3.08145e-05
-8.72554e-05
5.31222e-05
-0.000440118
0.000304509
0.000378464
4.73359e-05
-0.000174284
-0.00026858
4.4498e-05
0.000217636
-3.45351e-05
0.000378823
-0.00125859
-0.000538072
0.000594905
-0.000312359
0.000428275
2.22802e-05
-0.000392539
-0.000190587
0.000291857
-9.85449e-05
-0.000206631
-0.000205754
4.22454e-05
4.22836e-06
5.14928e-05
0.000388161
-0.000409393
-0.000169784
8.11545e-05
-0.000176367
0.000417769
-0.000422887
-1.99072e-06
0.000161328
6.62115e-05
3.31478e-07
3.24283e-06
2.91818e-05
-0.000355553
-2.29905e-05
9.55997e-05
-0.000671383
-0.000131622
0.000306741
0.000102436
0.000404904
4.89733e-05
-0.000152451
0.000590795
-0.000593342
-2.35214e-05
0.000443696
-8.00312e-05
0.000105128
-0.0012349
0.000104449
9.32339e-06
-0.000356786
4.23863e-05
0.000305076
-4.60482e-05
0.00104046
-0.000335466
9.00934e-05
0.000182704
-0.000306277
2.47104e-05
-0.000280478
0.000271148
-0.00019306
-7.43405e-05
-0.000198446
0.000302975
-2.10968e-05
-0.000275145
6.55519e-05
0.000395232
1.28272e-05
-1.22489e-05
-8.33356e-05
-0.000212558
0.000149265
0.000198982
0.000624886
-5.02321e-05
-0.000665526
-0.000112116
2.9389e-05
0.000188183
-9.06547e-05
0.000335127
0.000517094
6.16733e-05
-3.98674e-05
-0.000362244
0.000237251
-4.48797e-05
1.84549e-05
-8.41076e-06
-0.000277146
-1.32089e-05
4.52525e-06
3.4468e-05
2.43294e-06
0.000186995
-0.000276273
-4.23438e-05
0.000112256
-1.84283e-05
5.81985e-05
-0.000682438
-2.37497e-05
0.000660139
7.93224e-06
3.39555e-05
-0.000709641
0.00101842
-1.8817e-05
4.33165e-05
2.42476e-05
-5.02423e-05
8.83001e-05
-3.02364e-05
6.95002e-05
-8.06843e-05
1.18372e-05
0.000112775
0.000411487
6.9108e-05
-0.00030403
0.000227199
-0.000166383
0.000243214
9.05786e-05
2.83185e-05
-9.6283e-05
1.71539e-05
-0.00026553
-0.000411151
-0.000343532
0.000450653
-0.000227589
-0.000247137
-0.000142155
0.000356706
7.73929e-05
-0.000291944
-0.000167814
-0.000163631
0.000148559
0.000182887
0.000439795
9.42116e-05
-4.40598e-05
-0.00035692
0.000348739
-0.000231226
-0.00030119
0.000370265
-0.000247389
-0.000333212
0.000398391
0.000177388
-0.000155666
-0.000522528
4.34463e-05
-8.4034e-05
0.000404677
-0.000236388
0.000389097
-0.00010912
-0.000365495
-0.00034288
-0.000158349
0.000976646
0.000271058
-0.000225675
-6.62815e-05
0.000115756
-0.000210256
-0.000243384
0.000563939
-0.000389461
0.000353111
0.000763066
-0.000632173
-0.000130893
-0.000271245
0.000283384
-1.21391e-05
-0.000245237
0.000220015
-0.00020269
-1.73252e-05
0.000888708
0.000276238
-0.000267623
0.000278753
-1.113e-05
0.000285359
1.7736e-05
0.000323748
-4.49952e-05
-0.000556193
0.00100282
0.000364664
0.000515154
-0.000470745
-4.44085e-05
0.000374831
0.000259915
0.000245178
1.47378e-05
0.00036907
5.76081e-06
0.00023725
7.9275e-06
0.000243856
-6.60559e-06
0.00025261
1.88471e-05
0.000751742
0.000497217
-8.1186e-06
0.000127763
8.79614e-05
-0.00024154
0.000104258
-0.000132586
-5.54158e-05
0.000991169
-0.00016828
-1.64803e-05
5.59227e-05
0.000255603
2.56299e-05
0.000476128
8.70457e-05
9.14347e-05
-6.09458e-05
0.000131698
-3.79391e-06
0.00024193
7.65308e-05
0.000714961
-0.000718479
-0.000114357
0.000516526
0.000416379
-0.00017055
3.79032e-06
-1.02951e-05
-7.31468e-05
-2.5798e-05
-0.000114588
0.000252942
0.000542719
-0.000212031
0.000222348
-0.000115323
-0.000110257
-2.73396e-05
-0.000112226
0.000908014
-0.00117435
4.20726e-05
9.57403e-05
-0.000251877
0.000808917
-5.21077e-05
0.000352691
-0.0011095
-4.47147e-05
-0.000126623
4.1189e-05
-0.000314429
1.52325e-05
0.000223365
0.000194969
-0.000360476
4.7752e-05
5.71098e-05
7.33832e-05
-5.47602e-05
0.000315675
0.000208609
-0.000382304
6.90468e-05
-5.02583e-05
-4.47515e-05
5.26305e-05
1.47435e-05
-0.00034148
-0.000128684
0.000309815
-0.000190123
0.000229917
-0.000179948
-5.4943e-05
-1.05708e-05
7.83429e-06
0.000104698
0.000260421
-0.000386977
-3.30812e-05
-0.000241614
0.000245756
2.44752e-05
-6.18343e-05
7.55625e-06
-0.000283641
0.000287431
0.000150473
-0.000371185
8.13801e-05
-0.000523398
2.17554e-05
0.000451398
-0.000614961
-0.000155015
2.32684e-06
-6.71797e-06
1.02402e-05
-0.000412726
-0.000110618
-0.000350899
0.000109334
-0.000110334
0.000320108
2.15064e-05
6.65645e-05
-0.000130096
0.000421811
-0.00022032
0.000117075
3.17998e-05
0.000411869
1.053e-05
7.13553e-05
9.29829e-05
-0.000198732
5.28231e-05
-5.73921e-05
0.000144191
-0.000232252
-0.000144527
-5.40438e-05
3.15243e-05
-2.22219e-05
7.18855e-05
-0.000331996
-8.92358e-05
7.7796e-05
-0.000103803
0.000153021
-0.000364788
-0.000165371
0.000340849
6.03261e-05
0.000359635
0.000250862
-0.000157533
-3.74618e-05
-0.000105435
0.000306695
-0.000178497
2.93449e-06
0.000220757
-0.000163231
7.88789e-06
5.07808e-05
-3.40127e-05
2.24378e-05
0.000291785
-0.000327229
0.000224962
-0.00134529