/*--------------------------------*- C++ -*----------------------------------*\
| =========                 |                                                 |
| \\      /  F ield         | OpenFOAM: The Open Source CFD Toolbox           |
|  \\    /   O peration     | Version:  v1912                                 |
|   \\  /    A nd           | Website:  www.openfoam.com                      |
|    \\/     M anipulation  |                                                 |
\*---------------------------------------------------------------------------*/
FoamFile
{
    version     2.0;
    format      ascii;
    class       volScalarField;
    location    "0.06";
    object      nut;
}
// * * * * * * * * * * * * * * * * * * * * * * * * * * * * * * * * * * * * * //

dimensions      [0 2 -1 0 0 0 0];


internalField   nonuniform List<scalar> 
1466
(
0.0007153
0.000695581
0.000796981
0.000890172
0.000825016
0.000788217
0.00103753
0.000798159
0.000785504
0.000740018
0.000761813
0.000806479
0.000875748
0.000871265
0.000860174
0.000911554
0.000846454
0.000292458
0.00078882
0.000829302
0.000823418
0.000972235
0.000673123
0.000791304
0.000751585
0.000637053
0.00132609
0.000632111
0.000664663
0.000963513
0.00075109
0.000688179
0.00075222
0.000884995
0.000852434
0.000767962
0.000884048
0.00064937
0.000563652
0.000640778
0.000636324
0.000644281
0.000546032
0.000533655
0.000539014
0.000628961
0.000907922
0.000481817
0.000489043
0.000508731
0.000516966
0.000540151
0.000658172
0.000635974
0.000464736
0.000873605
0.000517054
0.000689018
0.000542407
0.000605267
0.000858488
0.000883363
0.000873899
0.000847562
0.000933581
0.00105625
0.000859458
0.00090924
0.000783937
0.000687847
0.000836592
0.000294845
0.000350569
0.000784018
0.000786951
0.000784663
0.000868005
0.000862377
0.000481986
0.00072306
0.000807889
0.000830931
0.000857796
0.000687852
0.000867084
0.000789216
0.000877858
0.00063101
0.000729985
0.000853946
0.00072632
0.0012475
0.0011242
0.00105184
0.000917113
0.0006351
0.000666888
0.000679758
0.00076828
0.000553359
0.000618063
0.000491189
0.000464533
0.000461379
0.000605107
0.000618482
0.00052842
0.000511265
0.000557698
0.000609035
0.000848535
0.000723032
0.000863535
0.000539824
0.000493025
0.000852855
0.00102214
0.000663116
0.000996276
0.00096192
0.000878445
0.00088348
0.000880293
0.000547973
0.000549946
0.000754037
0.000792592
0.00068313
0.000759761
0.000849869
0.000493447
0.000818459
0.000617022
0.000719597
0.000790874
0.00061969
0.000594319
0.000565612
0.00090129
0.000873515
0.000610278
0.000696392
0.00095254
0.000806721
0.000858884
0.000993317
0.000701134
0.000860632
0.000829945
0.000815456
0.000781003
0.000831043
0.000794447
0.000964823
0.000915447
0.00104528
0.000689649
0.000857255
0.000772885
0.000881493
0.000717214
0.000814167
0.000441909
0.000897791
0.000954351
0.000777618
0.000902058
0.000769369
0.000850671
0.000901723
0.000809341
0.000640933
0.000672632
0.000793945
0.000413074
0.000672449
0.00100497
0.000915265
0.00080712
0.000680932
0.000812551
0.000860789
0.000864913
0.000697522
0.000619955
0.000829188
0.000914372
0.000685242
0.000767852
0.0008054
0.000851215
0.000793591
0.00132587
0.00100436
0.000806302
0.000833138
0.000411384
0.00107728
0.000776144
0.00102453
0.00110053
0.000834408
0.000927664
0.000934192
0.000903057
0.000839969
0.00089059
0.00103416
0.000792009
0.000839451
0.000765528
0.000929736
0.000745412
0.000768843
0.00088006
0.000994565
0.000862505
0.00106177
0.000772741
0.000848399
0.000736619
0.000853173
0.000982106
0.00086656
0.000904089
0.000944348
0.000857388
0.000935703
0.000770573
0.000851789
0.00070295
0.000613835
0.000997509
0.000913973
0.000898267
0.00092722
0.000941227
0.000795581
0.000873549
0.000838571
0.000801159
0.000713944
0.00100738
0.00100543
0.000774837
0.00080605
0.000687554
0.000773199
0.000761813
0.00102851
0.000859305
0.000915767
0.0010581
0.00107989
0.000634286
0.000844746
0.000678126
0.000945331
0.000419161
0.00054872
0.00036689
0.000588181
0.000678318
0.00085833
0.000975588
0.000386892
0.000346995
0.000889258
0.000797007
0.00103595
0.000487764
0.000448082
0.000369624
0.000793574
0.00076414
0.000884236
0.000821357
0.0010277
0.000836669
0.000833859
0.00085575
0.00103732
0.00105591
0.000694324
0.00105696
0.000883951
0.000922418
0.000941
0.000648062
0.00105651
0.000836825
0.000560422
0.000837247
0.000348275
0.00106001
0.000428576
0.000509701
0.000819544
0.00089771
0.000853964
0.000876197
0.00086922
0.000289105
0.000768858
0.000823517
0.00117212
0.00115173
0.00087134
0.000970018
0.000877348
0.000885404
0.000771543
0.000858489
0.000977616
0.000987622
0.00101111
0.000908926
0.00103095
0.000874836
0.00087222
0.000385862
0.000483702
0.000449775
0.000849461
0.000859956
0.00110654
0.00084229
0.00103992
0.000826127
0.000867251
0.000703996
0.00108665
0.000871765
0.00100597
0.000980577
0.000571515
0.000787068
0.000876175
0.00112663
0.000877185
0.000860729
0.00100677
0.000846221
0.00103283
0.000908088
0.000254446
0.000688234
0.00101867
0.000752042
0.000851887
0.00100238
0.000713365
0.000874706
0.000875933
0.00087795
0.000995976
0.000776595
0.000389826
0.000925727
0.000995515
0.00082073
0.001032
0.000993576
0.000922392
0.000848181
0.000903395
0.000980668
0.000942396
0.00045458
0.000982206
0.00094873
0.000998841
0.000496626
0.000960421
0.00087599
0.000889188
0.000901136
0.000477624
0.000975718
0.00107258
0.000924885
0.000944713
0.000910645
0.000902425
0.00093206
0.000933878
0.000871017
0.000872402
0.000872009
0.000875747
0.00106421
0.000976905
0.000956024
0.000981074
0.000936307
0.00115899
0.000887729
0.000480292
0.000914896
0.000424367
0.000933469
0.000917322
0.000922693
0.000983759
0.000936099
0.000962948
0.000845796
0.000894637
0.000913822
0.0010447
0.000882667
0.000943873
0.000826969
0.00101516
0.00100475
0.000904544
0.000934935
0.000965233
0.00087554
0.000890795
0.00118943
0.00110056
0.000919169
0.000703362
0.00093042
0.000912588
0.00130745
0.000538512
0.000980007
0.000949637
0.000873199
0.00102607
0.000571439
0.000554636
0.000860959
0.000382328
0.000889235
0.000548231
0.000875027
0.000874101
0.000936199
0.000434087
0.000874996
0.000852956
0.000865949
0.000882747
0.00080957
0.000867668
0.000893048
0.000878673
0.0008697
0.000920546
0.000495093
0.000856755
0.000961822
0.000399863
0.00103856
0.000875797
0.000402078
0.000868378
0.000859311
0.000912859
0.000957985
0.000874891
0.000900207
0.00092823
0.000997769
0.000797964
0.000965835
0.000998994
0.000778326
0.00104989
0.000896461
0.00095449
0.000866581
0.000946455
0.000946438
0.000906178
0.000887449
0.000917082
0.000954284
0.000796026
0.000790499
0.000886386
0.000895399
0.00106973
0.00101848
0.00102849
0.000964087
0.000960202
0.000900714
0.000623673
0.000872958
0.000992733
0.000933153
0.00096915
0.000896195
0.00093482
0.00101425
0.000918526
0.00089822
0.000887077
0.000946941
0.000900196
0.00097104
0.000900763
0.000934601
0.000870303
0.00107692
0.000924615
0.000872567
0.000896886
0.000930598
0.000489025
0.000895875
0.000919315
0.000953567
0.00083475
0.00077055
0.000863534
0.000900399
0.00121361
0.000891216
0.00105058
0.000901957
0.0010935
0.00113701
0.000706172
0.00105607
0.000890023
0.000788379
0.000534459
0.000999215
0.000976473
0.000934214
0.0010244
0.00108767
0.000964501
0.000937685
0.000756047
0.00107757
0.000791299
0.000865928
0.000961614
0.00101951
0.00103646
0.000993892
0.00110647
0.000913404
0.000866812
0.00102319
0.00113735
0.00116748
0.000936071
0.000511827
0.000907107
0.000920747
0.00094943
0.000683969
0.00111342
0.000894049
0.000944298
0.00086432
0.0010348
0.00078838
0.00094788
0.000984805
0.000895899
0.000999391
0.000889522
0.000861504
0.000897931
0.000868071
0.000982463
0.000959987
0.000832122
0.00077942
0.00089125
0.000929614
0.000802315
0.00092085
0.000888718
0.000899736
0.000904834
0.0009251
0.0009274
0.000859461
0.000912507
0.000960553
0.00095411
0.00087949
0.0010629
0.00112997
0.000902641
0.000940553
0.000983196
0.000826881
0.000916632
0.000952204
0.000946037
0.00105786
0.00109138
0.000997246
0.000983294
0.000981285
0.000946807
0.000870594
0.000898539
0.000869243
0.00088947
0.000967898
0.000933797
0.00107766
0.00108959
0.00074282
0.00103272
0.000974472
0.0010473
0.000851043
0.000843969
0.0010096
0.000870817
0.000861788
0.0011121
0.000742304
0.000903085
0.000562834
0.000995618
0.000936347
0.000886986
0.000918231
0.00102398
0.000875178
0.00103442
0.00089221
0.000971261
0.000885353
0.000938833
0.00095402
0.000818819
0.000915277
0.0011801
0.000878287
0.000857954
0.00088395
0.00111884
0.0010444
0.000894322
0.000881764
0.00103283
0.000891425
0.00079852
0.00102013
0.000842148
0.000957464
0.000884173
0.00115545
0.000499121
0.000820273
0.000780921
0.000887654
0.000661777
0.00081536
0.00105387
0.000913247
0.000742457
0.000773532
0.000932417
0.000935583
0.00113377
0.00084668
0.000870581
0.00110735
0.000837212
0.00076083
0.000873452
0.000872601
0.000595526
0.000753122
0.000986155
0.000842439
0.000866778
0.000516171
0.000927775
0.000352338
0.000798821
0.000378112
0.000297621
0.000946071
0.000297896
0.000983225
0.000943325
0.00103776
0.000812629
0.000377772
0.000299417
0.000883273
0.00107518
0.000375776
0.000906884
0.000885264
0.000386477
0.000295359
0.000834088
0.000895812
0.000908226
0.000909781
0.000991745
0.000301168
0.000907313
0.000971206
0.000852152
0.000813084
0.000861329
0.000914051
0.00076018
0.000695572
0.000900944
0.000971936
0.000748914
0.000826517
0.000906726
0.000867429
0.000971598
0.000518206
0.00089165
0.00081641
0.00111611
0.00104011
0.000257427
0.00111915
0.000704001
0.00107937
0.000875121
0.000975342
0.000981028
0.000324587
0.000932873
0.000985049
0.000908159
0.000885392
0.000868845
0.000887308
0.000863871
0.000965404
0.000996483
0.000390872
0.000225017
0.000967263
0.000796107
0.000834426
0.000927697
0.00058991
0.000961751
0.000823453
0.00103281
0.000813195
0.000856635
0.000828715
0.000722234
0.000887559
0.000834478
0.000878317
0.000981433
0.000899034
0.000966126
0.000683133
0.00109531
0.000930041
0.000851383
0.000884207
0.000955832
0.000878378
0.000880472
0.00125441
0.000866527
0.00101834
0.000328163
0.00100948
0.000638153
0.00100287
0.00107366
0.000667141
0.000813153
0.000965974
0.000874152
0.000872815
0.000888444
0.000900501
0.000928676
0.000965301
0.000931707
0.000927485
0.000886474
0.000863162
0.000863494
0.000915808
0.00111726
0.000912166
0.00115252
0.00115847
0.000790618
0.000892716
0.000872903
0.000736479
0.000798893
0.000201385
0.000799388
0.00113482
0.00094042
0.000330565
0.000957771
0.000699202
0.000733893
0.000895303
0.000856024
0.00081318
0.000678153
0.000738024
0.000925949
0.000935081
0.000897173
0.0010367
0.000843906
0.00088229
0.000889359
0.00101495
0.00085779
0.000835677
0.000695863
0.00073893
0.000764355
0.000947321
0.000944683
0.000679532
0.000928772
0.000886786
0.000309665
0.000891768
0.0009052
0.000944191
0.000887292
0.000895724
0.00084236
0.000985951
0.000560079
0.00039491
0.000891334
0.00082274
0.000688945
0.000973757
0.000680036
0.000820883
0.000976005
0.000974938
0.000890761
0.000631924
0.000760985
0.000856791
0.000750162
0.000935198
0.000887988
0.000801831
0.00107992
0.000740938
0.000518553
0.000759819
0.000599596
0.000881632
0.000949405
0.000957875
0.000474317
0.00101968
0.000783125
0.000895512
0.0011394
0.000895349
0.00036766
0.000339365
0.000374715
0.000271286
0.000292642
0.000299455
0.000261781
0.000352349
0.000325784
0.00032512
0.000347802
0.000340331
0.000327968
0.000322608
0.000317477
0.000316031
0.00026463
0.000289179
0.000298056
0.000273871
0.000321464
0.000263634
0.000317579
0.000320591
0.000330434
0.000371116
0.00069312
0.000912305
0.000283617
0.00114075
0.000989023
0.000857658
0.00118331
0.00086255
0.000836678
0.000877649
0.000710183
0.000889622
0.000867129
0.000383226
0.000929211
0.00088109
0.00117294
0.00109251
0.000867643
0.000712245
0.000860252
0.000835039
0.000898169
0.000895254
0.000334697
0.000856379
0.000851657
0.000664428
0.000283736
0.000776452
0.000910009
0.000870843
0.00114284
0.000887982
0.000892053
0.000941271
0.000966951
0.000830104
0.000788635
0.000559572
0.000887155
0.000919291
0.000903466
0.000925873
0.000316658
0.000740111
0.000891045
0.000925319
0.000894073
0.000807815
0.00123324
0.00119621
0.00102222
0.000746138
0.000869546
0.00106532
0.00108366
0.000898894
0.000566314
0.000304227
0.000395141
0.00091817
0.00076977
0.000871602
0.000860301
0.00103666
0.000969851
0.000938188
0.00112372
0.000910618
0.00102581
0.000864803
0.00071178
0.000870326
0.000838719
0.000950638
0.000753933
0.000885264
0.000938433
0.000764126
0.000889685
0.000770686
0.000320299
0.000884225
0.000855728
0.000795855
0.000921419
0.000540688
0.000876955
0.000867402
0.000914283
0.000825816
0.000957342
0.000857348
0.000921341
0.000770411
0.000843747
0.000945535
0.00098158
0.000972743
0.000813628
0.000339283
0.000949054
0.000926929
0.000849634
0.000810377
0.000764222
0.000747101
0.000637129
0.000790834
0.000218716
0.000647269
0.000654147
0.000904602
0.000855446
0.000738605
0.000891849
0.000268398
0.000519664
0.00101119
0.000974666
0.000871716
0.000332584
0.000404812
0.000726219
0.000836262
0.000879292
0.000882983
0.000897648
0.000873367
0.000632024
0.000990793
0.000727517
0.000945179
0.000805784
0.000978775
0.00075356
0.000880071
0.000422359
0.000763354
0.000724162
0.00038388
0.000894916
0.000673638
0.000298027
0.00113875
0.000900894
0.00090511
0.000898844
0.000646116
0.000773437
0.00046961
0.00119177
0.000894606
0.000896164
0.00082815
0.000545041
0.000955227
0.00072419
0.000380492
0.000385255
0.000592901
0.000898956
0.000301673
0.000896217
0.000893581
0.000192716
0.00094153
0.000998444
0.000293999
0.000961404
0.000300345
0.000808678
0.000855433
0.00029163
0.000301002
0.000935742
0.000932718
0.000894875
0.000314492
0.00024201
0.000264513
0.000248657
0.000243119
0.000496913
0.00050728
0.000295308
0.000317349
0.000316542
0.00030724
0.000516541
0.00095381
0.00110062
0.000916054
0.000852291
0.000930695
0.000891216
0.000867564
0.000316086
0.000385941
0.000968127
0.000908836
0.000897206
0.000959118
0.000863096
0.000823
0.000912194
0.000950105
0.000294783
0.000871391
0.000800098
0.00073928
0.000224648
0.000808857
0.000765156
0.000910056
0.000921109
0.000871942
0.000866249
0.00108046
0.000329164
0.000272098
0.0008148
0.000900237
0.000824081
0.000649184
0.000880196
0.000664383
0.000628091
0.000872599
0.000866341
0.00105782
0.0010684
0.000735673
0.000879991
0.000885446
0.000973219
0.000887183
0.000929042
0.000834264
0.000807195
0.000900594
0.000916273
0.000900497
0.00115613
0.00123216
0.000920901
0.000888826
0.000525808
0.000528799
0.000888418
0.000640128
0.000926012
0.000713517
0.000850412
0.00106331
0.000891944
0.000782706
0.000756325
0.000280201
0.000342223
0.00114315
0.000931041
0.000936759
0.00094746
0.000905185
0.000885084
0.000891887
0.000960007
0.00097661
0.000792537
0.000780512
0.000934344
0.000699038
0.000975951
0.00090698
0.000912449
0.000910272
0.000778498
0.000844052
0.0008861
0.000762723
0.000622277
0.000887814
0.00118222
0.00114161
0.00103797
0.00108493
0.00103159
0.00093033
0.000883376
0.00088065
0.000839638
0.00100507
0.000767495
0.000610323
0.000741495
0.000921741
0.000624524
0.000879481
0.000887788
0.000969098
0.000861756
0.00109658
0.000819296
0.000998482
0.000757962
0.00078048
0.000612769
0.00099607
0.000877539
0.000869128
0.000744916
0.000874863
0.000489415
0.000714402
0.000892832
0.000888009
0.000912935
0.00101585
0.000840422
0.000928505
0.00100701
0.00087873
0.000875583
0.000835446
0.000914844
0.00094521
0.000768726
0.000434152
0.000553789
0.000838548
0.000815801
0.000885394
0.00078953
0.000874169
0.00086815
0.00102049
0.000909982
0.000986709
0.000645751
0.00063028
0.000788006
0.000737573
0.000772181
0.000879635
0.000992469
0.000790469
0.000883171
0.000866528
0.000805725
0.000666723
0.000737006
0.000907101
0.000788871
0.000862353
0.000948518
0.000987559
0.000868251
0.000879278
0.000900671
0.000925888
0.000889906
0.000820358
0.000640077
0.000527482
0.000938677
0.000748682
0.000826207
0.00093069
0.000277977
0.00089392
0.00124192
0.000703989
0.000893374
0.000876959
0.000804514
0.000830375
0.000825907
0.00115088
0.000897571
0.000617607
0.000756804
0.00101124
0.0010287
0.00107774
0.000990539
0.000882977
0.000941149
0.000557869
0.000758397
0.000748815
0.000254616
0.000604637
0.000484117
0.000507248
0.000811822
0.000963488
0.00096666
0.000872191
0.00129554
0.00101128
0.000736276
0.000874219
0.000802606
0.00128914
0.000882468
0.00109691
0.00110965
0.000861204
0.000856407
0.000874624
0.000862647
0.000895396
0.000874577
0.000213033
0.00109196
0.00094519
0.000628164
0.000889317
0.00112737
0.000379728
0.000640676
0.000184592
0.000740619
0.000862888
0.000998524
0.000740796
0.00105431
0.000228722
0.000892478
0.00104393
0.00107485
0.00094957
0.000970562
0.000899166
0.000844274
0.000681859
0.000710462
0.000685782
0.000933848
0.000391436
0.00104396
0.000660996
0.000631224
0.0010197
0.00060676
0.000377508
0.00082325
0.000615367
0.000897687
0.000940681
0.00087559
0.000861381
0.000811803
0.0006357
0.000649764
0.000883003
0.000800589
0.00104107
0.000684585
0.000886761
0.00089972
0.00103915
0.000587242
0.000136862
0.000196721
0.000621361
0.000925742
0.000607611
0.000894109
0.000932006
0.000298172
0.000755154
0.000921838
0.000944308
0.000935398
0.00098925
0.00098124
0.00121603
0.000923099
0.000958641
0.00103117
0.000706016
0.000844956
0.000813835
0.000447704
0.000672054
0.000809776
0.000784889
0.00076399
0.0007191
0.000673348
0.00078724
0.000895499
0.000888086
0.000631664
0.000841763
0.000819907
0.000696916
0.00103655
0.00093661
0.000632045
0.000726565
0.000924149
0.000885125
0.000882831
0.000636249
0.000888349
0.000910015
0.000877828
0.000851918
0.000875543
0.00107205
0.000876796
0.000878678
0.000631121
0.000839618
0.00129426
0.000873988
0.000815453
0.000649251
0.000863415
0.000832739
0.000710849
0.00101097
0.000786006
0.000392459
0.00055331
0.000334489
0.000407108
0.000644801
0.000412171
0.000480723
0.00071487
0.000444221
0.000529051
0.000487303
0.00043665
0.000537923
0.000656193
0.000464057
0.000397261
0.000627293
0.000708802
0.000498827
0.000390836
0.000399782
0.00053402
0.000764324
0.000661199
0.000713613
0.000556892
0.000453267
0.000562855
0.000650451
0.000405992
0.000425759
0.000432153
0.000424824
0.000410494
0.000449507
0.000777198
)
;

boundaryField
{
    frontAndBack
    {
        type            empty;
    }
    wallOuter
    {
        type            nutkWallFunction;
        Cmu             0.09;
        kappa           0.41;
        E               9.8;
        value           nonuniform List<scalar> 
108
(
3.59621e-05
3.57292e-05
4.32443e-05
3.62992e-05
3.14593e-05
4.28825e-05
4.58277e-05
3.6421e-05
3.62169e-05
4.59913e-05
3.67711e-05
4.54628e-05
4.69754e-05
3.60032e-05
3.71087e-05
3.18175e-05
3.98717e-05
4.72396e-05
2.69669e-05
3.99059e-05
2.38085e-05
4.05288e-05
3.76339e-05
4.77164e-05
4.57144e-05
4.21004e-05
4.65437e-05
3.29759e-05
3.59507e-05
3.66626e-05
3.17609e-05
4.34148e-05
3.95837e-05
3.94241e-05
4.29077e-05
4.17781e-05
4.00869e-05
3.97237e-05
3.86011e-05
3.82333e-05
3.21701e-05
3.54068e-05
3.59384e-05
3.28699e-05
3.94404e-05
3.16749e-05
3.86455e-05
3.89544e-05
4.01756e-05
4.59976e-05
3.53312e-05
4.6307e-05
4.07165e-05
3.49142e-05
3.91477e-05
3.68599e-05
4.76943e-05
3.88864e-05
4.19378e-05
2.61915e-05
3.27283e-05
4.11788e-05
4.97117e-05
5.05261e-05
4.61874e-05
3.70679e-05
5.58804e-05
4.60015e-05
4.61976e-05
3.70091e-05
2.29589e-05
2.29589e-05
3.64574e-05
3.73222e-05
3.61453e-05
3.74164e-05
3.83026e-05
2.93523e-05
3.245e-05
3.03147e-05
2.94974e-05
5.85886e-05
5.90942e-05
3.65209e-05
3.95343e-05
3.94897e-05
3.82626e-05
5.73451e-05
3.88861e-05
4.73817e-05
3.63406e-05
2.66806e-05
4.03484e-05
3.27964e-05
6.04919e-05
5.99804e-05
3.39943e-05
4.191e-05
5.46388e-05
3.41749e-05
3.08507e-05
5.69261e-05
2.53813e-05
2.12604e-05
2.75614e-05
1.46457e-05
2.30573e-05
3.63741e-05
)
;
    }
    inlet
    {
        type            calculated;
        value           nonuniform 0();
    }
    outlet
    {
        type            calculated;
        value           nonuniform 0();
    }
    wallInner
    {
        type            nutkWallFunction;
        Cmu             0.09;
        kappa           0.41;
        E               9.8;
        value           nonuniform List<scalar> 
126
(
8.16919e-05
7.12744e-05
8.05096e-05
8.01908e-05
7.96532e-05
6.91324e-05
6.7899e-05
6.83424e-05
7.75451e-05
0.000100887
6.11172e-05
6.21129e-05
6.46117e-05
6.55624e-05
6.79042e-05
8.28147e-05
8.02311e-05
5.91445e-05
9.82163e-05
6.56582e-05
8.52579e-05
6.87798e-05
7.63948e-05
6.10035e-05
8.01243e-05
8.3798e-05
8.11234e-05
8.49535e-05
6.98364e-05
7.79972e-05
6.2361e-05
5.87917e-05
5.8626e-05
7.6439e-05
7.74139e-05
6.69685e-05
6.48881e-05
7.04932e-05
7.70074e-05
6.78244e-05
6.22741e-05
6.95065e-05
6.96007e-05
6.24082e-05
9.6606e-05
7.61293e-05
7.36821e-05
7.15972e-05
7.71339e-05
5.44597e-05
5.19922e-05
5.12171e-05
5.16407e-05
6.77418e-05
4.56246e-05
4.88656e-05
4.3105e-05
5.99841e-05
5.45625e-05
4.5988e-05
7.09411e-05
4.40545e-05
5.29612e-05
6.13355e-05
4.78413e-05
5.85332e-05
5.5667e-05
4.77833e-05
5.5351e-05
5.91254e-05
5.7196e-05
5.78943e-05
5.24659e-05
6.37304e-05
6.9976e-05
6.59528e-05
4.74576e-05
6.77901e-05
5.36767e-05
6.07604e-05
4.96637e-05
4.9759e-05
5.94391e-05
6.39851e-05
6.17858e-05
6.80708e-05
6.09501e-05
6.29063e-05
6.38181e-05
7.23794e-05
6.08035e-05
4.99359e-05
4.73964e-05
4.77234e-05
4.14822e-05
5.12185e-05
7.83817e-05
5.15882e-05
6.07778e-05
5.56798e-05
6.58748e-05
6.10631e-05
5.48577e-05
6.60328e-05
7.83689e-05
5.81701e-05
4.98866e-05
7.74491e-05
8.35448e-05
6.17349e-05
4.92499e-05
4.98561e-05
6.57849e-05
8.32316e-05
7.73131e-05
8.54274e-05
7.07665e-05
5.73156e-05
7.12836e-05
7.93801e-05
5.0518e-05
5.31855e-05
5.43858e-05
5.31079e-05
5.09937e-05
5.65638e-05
)
;
    }
    procBoundary1to0
    {
        type            processor;
        value           nonuniform List<scalar> 
29
(
0.000995473
0.000995473
0.000905565
0.00101627
0.00125833
0.00111882
0.000925153
0.000585671
0.00134958
0.00101058
0.000894811
0.00111882
0.000905565
0.000898665
0.000895164
0.000849089
0.00125833
0.00124982
0.00101627
0.000976686
0.000895415
0.000984123
0.00126256
0.000838332
0.000838332
0.00126256
0.000992817
0.000524596
0.000992817
)
;
    }
    procBoundary1to2
    {
        type            processor;
        value           uniform 0.000961928;
    }
    procBoundary1to3
    {
        type            processor;
        value           nonuniform List<scalar> 
48
(
0.000882442
0.000826972
0.000860173
0.000860173
0.000925571
0.000821576
0.000821576
0.00117699
0.000902962
0.000947974
0.00102199
0.000947974
0.000881365
0.000879115
0.00090633
0.000881365
0.000872776
0.000872776
0.000875181
0.000875181
0.000879501
0.000889226
0.000884376
0.000945142
0.000945142
0.000964668
0.000927581
0.000927581
0.00111147
0.00102208
0.00106393
0.00111147
0.00117699
0.000934827
0.000898787
0.00102208
0.00104911
0.00102199
0.000886652
0.000686628
0.000877109
0.000967581
0.000934827
0.000898787
0.000928758
0.000381828
0.000809786
0.000877109
)
;
    }
}


// ************************************************************************* //
