/*--------------------------------*- C++ -*----------------------------------*\
| =========                 |                                                 |
| \\      /  F ield         | OpenFOAM: The Open Source CFD Toolbox           |
|  \\    /   O peration     | Version:  v1912                                 |
|   \\  /    A nd           | Website:  www.openfoam.com                      |
|    \\/     M anipulation  |                                                 |
\*---------------------------------------------------------------------------*/
FoamFile
{
    version     2.0;
    format      ascii;
    class       volScalarField;
    location    "0.92";
    object      k;
}
// * * * * * * * * * * * * * * * * * * * * * * * * * * * * * * * * * * * * * //

dimensions      [0 2 -2 0 0 0 0];


internalField   nonuniform List<scalar> 
1431
(
2.4904
2.8399
0.154356
0.040032
0.27491
1.84073
0.0792842
6.52455
2.02147
0.0660758
2.14367
6.50861
2.35663
0.520281
0.708251
0.0770197
0.705483
0.342887
0.637379
0.502469
3.55478
0.884159
1.86912
7.50562
1.91985
1.49675
1.64007
0.500277
0.832113
0.528563
0.759085
1.02429
0.701565
0.312945
2.42538
0.557068
3.52604
0.0646464
0.046739
0.869148
2.39099
2.86604
1.98803
0.0621989
1.55821
0.294209
0.969878
1.44803
0.0831541
0.0591523
2.14961
0.0739703
2.32394
6.65399
2.16966
1.33811
0.230913
6.98022
0.902445
0.500984
0.544852
0.0343051
0.0433196
0.0454198
0.0280507
0.0307238
0.324995
0.0673893
0.14066
0.506791
3.64947
0.347733
0.0238424
0.245199
0.471329
0.255459
0.209469
0.0701871
0.0411941
0.255177
0.730541
0.171917
5.01328
1.19202
3.58681
0.0547677
0.0312089
0.942192
4.89647
5.87447
0.804429
0.310017
0.126026
0.0780322
1.92231
0.536763
6.66904
5.69345
0.0577581
0.437876
1.82413
0.0473308
0.907159
0.311307
0.150597
1.0633
1.30409
2.00957
1.55262
0.901997
0.422896
2.6732
0.30014
2.17378
2.70167
0.265466
0.432986
0.0296897
0.0322058
0.0412671
0.599606
0.872761
3.31444
0.469375
2.77276
0.0550783
0.166498
0.652696
0.191942
0.352799
0.619906
0.406653
0.375678
0.574539
0.71072
0.0720985
0.195721
0.067055
5.2663
0.0663872
0.0548204
0.681559
0.799871
0.183764
2.01509
0.683296
0.0547975
2.08752
0.070077
0.312804
0.0690128
0.177878
0.934142
0.0372477
1.27258
0.159648
4.38799
3.9715
5.72946
0.0437756
6.69736
2.68301
0.0458173
0.0370766
2.82349
2.23797
2.06085
2.43743
0.0642155
4.55923
6.55768
2.39098
0.794804
5.31517
3.43183
4.2381
0.139225
1.68087
2.32907
2.51727
0.0378052
0.101002
1.93802
9.99373
1.67274
1.19167
1.52592
4.10974
0.872779
4.11705
0.757175
0.929022
0.949377
2.39072
0.0296181
4.40911
5.66559
2.19326
0.128194
1.25588
2.35037
0.0461345
1.80297
0.0429322
2.49592
0.811201
1.08689
0.122501
5.94218
1.09976
2.09581
0.0424089
1.26243
1.08324
5.17611
0.629903
1.02898
2.24163
1.95397
1.64863
1.23567
1.90247
1.4073
0.0414033
1.34649
7.04731
2.14074
5.12605
1.15589
1.14499
4.76522
0.741978
1.05063
0.903085
1.06907
6.83043
1.21257
1.11568
0.728917
1.76909
0.20592
2.65714
6.41564
0.963283
0.91392
1.22487
1.05657
1.79295
1.30781
0.0916852
0.505475
5.27175
0.0452032
0.0592444
0.785347
2.58864
0.0484984
7.86449
6.70055
0.995946
0.871125
5.17102
1.95453
0.0565597
1.46725
2.05027
2.58135
3.21605
1.39388
0.192209
1.67307
1.1473
2.34912
1.29093
6.31926
0.764131
5.96744
1.16774
0.801768
1.01781
2.61698
3.37387
0.6824
1.78271
1.22247
5.9459
2.62449
6.25134
3.50732
2.8646
0.104124
2.46318
5.21359
2.35274
0.908082
1.12777
1.85628
1.35643
0.708899
0.876852
2.32239
0.31975
1.90241
2.05991
1.28606
0.052517
3.39356
0.958645
3.05851
3.94917
4.52686
0.161351
0.0294742
1.18208
2.16586
5.42411
2.25315
1.68534
0.127606
10.3404
3.24327
4.97894
0.272719
2.03165
2.02857
0.105498
0.323805
2.26764
6.4212
0.0582001
1.09876
0.179066
2.24471
1.02747
0.0761809
2.0398
2.32873
6.71492
1.9592
1.21476
0.193044
2.03239
3.55753
2.23529
2.01543
0.894267
2.46861
5.76852
3.8539
2.299
1.70281
0.186501
2.06739
3.29823
0.307585
1.64946
4.12584
1.73044
4.73733
2.52593
0.990798
1.07681
0.974354
1.44219
0.151365
2.92025
2.04647
10.8239
1.15828
0.684725
2.01212
0.366148
5.39642
2.48557
2.22169
8.7182
3.62183
1.02517
1.2257
9.59913
2.93695
1.83655
1.28128
0.37445
11.8246
1.97907
2.54162
1.97349
1.92089
2.4631
0.513592
2.59923
2.59999
0.0560812
6.93542
2.20151
2.89073
2.93081
2.06049
2.04257
3.37554
2.1767
6.13994
2.54069
0.95778
2.77818
1.80182
0.510975
0.777016
2.77155
3.85732
2.1788
2.76903
2.13094
1.9144
0.236969
2.78477
0.612146
2.02025
2.7717
1.5124
2.37288
1.84883
3.01269
2.78065
0.437715
0.346018
0.946251
0.231186
6.49977
3.06849
3.20491
3.34047
3.36425
3.3827
3.25641
3.15751
3.28371
3.15487
3.25935
0.396384
5.30876
0.255214
0.15816
0.183733
0.136998
0.11629
0.118186
1.19508
0.873385
0.834875
0.0623769
0.0844615
0.365723
0.0856807
0.0829309
1.05996
7.16298
0.401067
0.253221
0.951642
0.0593448
6.89472
0.0785827
0.274052
0.0668601
0.343059
6.69039
0.0675582
6.45289
0.0706393
0.0702709
0.237071
1.29031
5.31088
5.11967
0.0781473
0.149345
0.126819
0.082836
1.22182
0.135912
5.40948
0.386768
0.232745
1.20293
0.232646
0.191572
0.175453
0.360212
5.59734
0.201453
0.158533
0.4705
1.11004
0.238469
0.1486
5.5782
0.387064
0.912339
1.30431
0.853279
0.672478
0.556819
5.44181
5.28771
0.260902
0.712736
0.611931
0.503338
0.502096
1.18122
0.166873
0.15911
0.536168
0.0613985
1.20772
0.678624
1.36718
5.36553
1.41397
0.936217
1.08009
0.0579221
1.06577
0.058425
5.19968
0.857128
0.43245
0.449703
2.68675
1.64924
1.6326
2.17919
3.16433
0.383455
1.21333
1.77328
1.16172
0.580518
2.78542
0.762466
2.29309
1.37522
1.51915
1.14233
2.2425
1.58122
2.84303
3.25401
2.52363
0.613437
2.12893
2.71725
0.0702434
1.77221
0.0550785
1.40209
1.62782
4.45993
3.30167
5.10037
5.22423
2.00799
7.02199
1.63265
1.64119
0.0387315
1.84787
2.50065
2.72629
3.33212
3.08809
1.11866
0.818071
1.92344
0.0624824
1.78337
2.77415
3.02691
2.72762
2.49198
1.63335
2.68168
2.97504
1.15696
0.886995
1.6498
1.03184
0.79304
2.28204
2.20845
2.06632
2.25002
1.41331
3.00029
1.04663
2.54344
4.75478
5.58466
1.74788
1.62255
2.70684
1.44048
2.36001
1.76023
1.37328
3.24878
0.383475
0.15075
0.0610839
1.70626
2.58592
2.75291
1.93499
2.29449
3.55276
0.0474131
1.47477
2.51908
3.30649
2.86858
0.70862
2.64734
1.98688
1.73781
3.05534
0.399011
2.91152
1.50676
2.14572
1.94433
0.0307835
3.02108
2.72708
2.41751
6.32252
0.959509
1.87535
2.18293
2.05117
5.78121
0.291256
2.72361
1.9544
1.84805
2.05115
1.98642
3.34862
3.0882
1.74824
3.1177
1.55889
2.74825
0.230248
1.82959
1.95354
1.91933
0.876404
5.92819
6.97558
2.94574
1.87619
2.32541
1.53954
1.32942
0.632768
0.574677
2.1629
0.212054
2.7824
3.00727
2.36929
3.22208
1.63274
0.968547
2.42623
1.1119
1.58729
1.66381
2.11498
1.55711
2.91599
2.38459
0.0504904
0.252165
2.34085
1.79869
0.377299
0.980461
2.26569
1.15478
2.19775
0.756668
0.359877
3.41138
2.32876
1.52041
0.213921
4.20902
1.73917
2.50141
2.73405
0.553392
1.77666
2.5383
1.38359
2.03041
2.51336
2.24634
2.01962
1.37401
1.02391
1.32879
0.143912
2.25465
1.96702
1.60291
0.771656
1.95713
2.38927
0.833734
5.12015
2.5559
0.580001
2.46366
1.64929
2.04498
1.99428
2.68159
0.0944664
4.77094
1.71613
0.662393
2.8984
1.14765
2.13091
2.64263
2.40992
0.0519359
0.595759
2.02286
1.14652
1.66205
2.7185
1.71973
1.23358
0.360944
1.86321
0.0686278
1.27725
1.84394
1.45055
0.0696677
8.47862
1.79167
2.16599
0.214656
1.81813
0.792474
8.81123
2.89286
1.26295
0.0812578
0.281233
1.3394
0.0764965
0.0811497
2.69191
1.40342
1.75498
1.05915
1.66541
2.07898
2.0992
2.23099
0.0619514
1.5409
2.65908
0.832854
2.63006
0.22811
2.56521
0.0710552
1.22151
5.27631
1.6569
2.43978
0.830873
2.46305
1.97093
0.420483
1.09618
2.83467
1.03059
0.118244
0.0558176
0.997611
0.0593549
2.4496
0.902236
1.15262
0.444866
2.82931
2.77692
9.14418
1.02935
1.96959
1.58346
1.65101
9.67477
0.0784642
2.2132
4.81608
2.96188
7.5225
2.22532
0.387232
3.4969
1.94856
0.136427
1.98859
2.50698
3.07328
1.46928
0.609146
2.50695
0.673088
0.37217
0.206348
3.32153
2.89755
2.4607
0.86255
2.74231
6.60336
1.19739
3.54951
2.75213
1.48625
2.54589
0.286227
0.2084
1.0777
2.67257
6.76254
0.341262
8.01638
1.49741
6.45787
1.22395
0.678958
1.66136
1.57971
0.2866
0.0589352
0.647328
1.78198
0.199014
0.122394
1.61966
2.76132
1.89386
2.2449
2.67018
2.43473
2.60328
0.0918315
5.53791
2.47686
3.12105
7.80546
2.70599
1.24423
1.16358
0.491132
0.0782672
1.67308
2.25423
1.88489
6.35628
0.05555
1.91837
3.03841
7.7422
7.23498
5.77901
0.75803
0.748391
0.762834
0.752229
0.75576
0.848778
0.725595
0.555528
0.581823
0.566923
0.570103
0.647511
0.927105
0.576704
0.55586
0.579909
0.569322
0.703224
0.681531
0.558517
0.661641
0.654381
0.547869
0.648587
2.41816
5.2493
0.0560126
0.829317
1.72008
0.802515
0.561262
4.88809
1.11155
0.688438
0.699046
0.813739
1.02076
7.70724
1.07202
0.154194
5.94002
1.62395
2.74066
0.923933
0.0343021
8.0225
0.23715
0.633995
2.31127
2.58834
0.435684
0.74916
4.4421
0.774182
1.15029
2.3703
2.12044
2.0159
2.2496
4.93887
0.0778197
0.0558878
0.385487
0.0552464
2.57438
0.867144
0.527991
1.06351
2.37986
0.765402
1.10789
0.462074
0.885346
0.622386
4.55503
2.82664
2.51105
1.47782
0.261453
1.26218
0.108104
0.606028
0.472388
0.0170341
2.44164
0.989389
2.4756
0.130791
0.94839
0.28845
2.14313
0.0797416
11.4697
2.68322
1.09582
0.19467
6.56266
2.68149
6.42042
0.0776484
0.239786
0.0507618
0.365192
0.141741
2.73596
1.03871
4.90707
5.73973
0.618238
2.68045
0.0535469
1.08589
0.960784
1.40178
0.93904
0.7987
1.4772
1.59083
2.58182
1.03508
3.17398
0.0566492
0.0698223
0.963152
1.41918
1.17553
0.246353
2.5654
2.82472
2.49084
0.37788
2.56591
2.54409
4.17946
5.29471
0.0718158
0.795291
0.527553
0.037313
2.7612
7.45762
0.528138
1.86001
0.723437
6.52231
4.8715
0.354498
0.65471
1.1142
2.49097
3.10847
3.77423
3.04113
2.56955
0.0157524
2.36254
0.0183618
2.56146
2.23386
3.12097
3.52125
6.52031
5.74696
2.50619
0.489487
2.54831
0.0404372
0.254361
0.0311726
0.0582186
0.0443793
2.60211
3.37497
1.98436
2.01538
3.21224
6.50699
0.0615015
0.220305
2.88841
3.14224
2.45428
3.24963
3.62079
2.90709
3.22757
0.614438
3.22504
3.11757
3.12541
3.10344
2.92861
2.76005
3.24799
2.62531
0.0323021
0.0250419
0.0290701
0.0306128
0.0282068
0.0305798
2.50426
1.10333
3.32565
1.23814
2.60077
0.531875
0.0583262
2.34764
0.0634591
0.0862026
2.52788
0.115354
1.06018
1.55672
0.0202753
0.691312
0.281766
3.46022
2.84711
1.25505
2.34091
1.11809
0.868697
2.64517
10.3666
1.10486
0.323332
1.06197
3.60113
0.317154
1.92815
3.81184
0.271076
2.41346
0.0462805
0.549783
0.0574345
0.526908
1.12073
0.427859
0.0502176
1.01562
0.282947
0.168259
4.18662
3.24395
0.434915
0.840149
1.93331
2.41836
0.0658791
3.52469
5.5932
1.023
4.35727
1.0895
0.56243
1.49604
3.76019
0.0300454
2.57353
1.54118
2.10354
3.11965
0.53189
1.12988
0.395381
0.104986
2.90384
1.3942
2.65749
3.55715
2.15111
4.82741
5.37156
0.826685
2.53207
1.02057
0.0542225
0.224221
0.213572
0.894402
0.273784
6.22503
2.69171
0.39497
3.21411
2.49455
0.759828
3.12803
0.442491
1.49519
3.02823
1.31933
2.46261
0.073194
1.62846
2.06461
3.54055
3.29254
2.47135
0.0478594
0.30856
0.86983
5.79095
5.4475
2.42524
2.86877
2.21409
0.0626503
7.84658
0.265912
1.42209
1.12733
0.781801
0.350935
2.92325
0.0627945
0.858383
1.21975
5.14897
0.506943
2.90579
1.61294
0.974475
0.0629748
0.205294
0.0300512
4.50705
0.931267
3.02007
4.00659
2.64725
2.57494
2.52916
0.744581
0.0487052
0.674206
0.432884
2.27028
3.23959
2.50612
11.6659
1.06345
0.798949
2.53882
4.89352
2.41531
0.0652237
1.38817
1.18035
1.67986
1.37806
2.03383
2.55028
2.02276
0.490222
2.53165
0.628071
0.061099
2.29266
4.04324
2.67232
3.55907
1.9952
1.51535
2.28017
2.59732
1.11225
0.481665
0.624814
0.69146
0.0624217
2.509
6.60039
2.44381
2.53642
0.0652903
0.279256
0.867888
2.42468
0.658598
3.26121
2.78181
3.46844
4.56832
0.421417
2.58669
2.50802
2.59293
3.02808
1.40781
0.761963
0.532438
1.01357
0.753591
1.36744
0.85708
1.21423
7.65027
2.40853
0.253198
1.24797
2.77949
1.80559
0.852447
1.25765
0.49881
6.69657
1.12658
0.221149
0.0610856
10.5588
2.04392
2.91379
0.0745563
0.280819
3.47052
1.15693
5.86613
0.129356
0.0603364
0.280287
8.91149
0.0214483
5.99762
5.87256
0.51314
1.52686
3.48953
6.16203
3.49355
2.77813
0.5011
0.250586
1.99373
0.971484
0.279102
4.69965
0.0298546
2.9657
2.44941
7.00159
0.526401
0.512908
0.0162646
3.931
0.140677
1.10362
0.654955
6.45341
0.0854084
0.165792
0.579307
3.97816
1.30217
1.06659
0.316416
0.063699
0.208237
5.31126
8.30929
0.0904744
2.15018
0.340873
0.0834052
0.696208
0.951762
0.556601
2.28347
0.0599658
0.752339
0.771812
0.988314
5.745
0.96524
0.0350567
1.13816
0.868124
0.0627523
0.0714591
2.3463
0.78771
0.0534125
0.696392
0.793395
1.06818
0.0329933
0.0336409
5.52664
4.70429
1.40608
0.939338
0.0540589
0.190174
0.101999
1.19144
0.0752304
0.0828194
0.285566
0.310466
0.235389
0.061165
6.27186
1.10849
0.700341
2.75328
1.61063
4.80257
2.42577
0.0630212
0.486309
1.14961
0.924378
3.21947
0.165864
0.626194
0.215545
0.562531
0.141213
0.598252
0.442818
1.04523
0.0810572
2.061
2.71272
1.04554
1.47303
0.288221
1.14452
0.557075
0.807674
1.44524
0.285464
0.382576
0.914891
1.66099
0.249359
0.0350362
0.98354
1.11021
0.691796
0.234599
)
;

boundaryField
{
    frontAndBack
    {
        type            empty;
    }
    wallOuter
    {
        type            kqRWallFunction;
        value           nonuniform List<scalar> 
96
(
0.832113
0.528563
0.536763
2.36929
2.42623
2.38459
0.980461
0.756668
0.359877
2.32876
0.213921
1.73917
0.553392
2.5383
2.03041
2.64263
2.40992
0.595759
0.0619514
1.22151
0.118244
1.46928
0.609146
2.89755
2.4607
0.75803
0.748391
0.762834
0.752229
0.75576
0.848778
0.725595
0.555528
0.581823
0.566923
0.570103
0.647511
0.927105
0.576704
0.55586
0.579909
0.569322
0.703224
0.681531
0.558517
0.661641
0.654381
0.547869
0.648587
0.633995
0.867144
0.527991
0.606028
0.0170341
2.4756
0.618238
1.03508
0.795291
0.527553
0.528138
3.10847
0.0157524
0.0183618
3.12097
3.14224
3.24963
3.22757
0.614438
3.22504
3.11757
3.12541
3.10344
2.92861
2.76005
3.24799
2.62531
0.0323021
0.0250419
0.0290701
0.0306128
0.0282068
0.0305798
0.531875
0.0202753
0.526908
0.53189
2.47135
0.0300512
3.23959
3.26121
0.761963
0.532438
0.0214483
2.77813
2.44941
0.0162646
)
;
    }
    inlet
    {
        type            fixedValue;
        value           nonuniform 0();
    }
    outlet
    {
        type            zeroGradient;
    }
    wallInner
    {
        type            kqRWallFunction;
        value           nonuniform List<scalar> 
126
(
0.902445
0.500984
0.544852
0.0343051
0.0433196
0.0454198
0.0280507
0.0307238
0.324995
0.0673893
0.14066
0.506791
3.64947
0.347733
0.0238424
0.245199
0.471329
0.255459
0.209469
0.0701871
0.0411941
0.255177
0.730541
0.171917
0.437876
0.265466
0.432986
0.0296897
0.0322058
0.0412671
0.599606
0.872761
3.31444
0.469375
2.77276
0.0550783
0.166498
0.619906
0.406653
0.0663872
0.0548204
0.799871
0.183764
0.0547975
0.312804
0.177878
0.0372477
2.82349
0.0378052
1.19167
1.52592
0.0296181
2.09581
0.192209
0.801768
1.01781
0.104124
1.85628
1.35643
0.876852
0.31975
0.161351
0.0294742
1.18208
0.105498
0.323805
1.09876
1.21476
0.193044
1.73044
1.07681
0.974354
0.510975
0.612146
0.556819
0.536168
0.449703
1.77328
0.762466
1.58122
0.613437
1.62782
0.818071
1.78337
1.03184
2.20845
1.74788
0.70862
0.0307835
1.9544
1.55889
1.77666
1.38359
0.792474
1.24423
1.67308
0.622386
2.15111
0.526401
0.512908
1.14961
0.924378
0.165864
0.215545
0.562531
0.141213
0.442818
0.0810572
2.061
2.71272
1.04554
1.47303
0.288221
0.557075
0.807674
1.44524
0.285464
0.382576
0.914891
1.66099
0.249359
0.0350362
0.98354
1.11021
0.691796
0.234599
)
;
    }
    procBoundary3to1
    {
        type            processor;
        value           nonuniform List<scalar> 
48
(
3.51591
2.20573
2.46187
3.27005
1.52799
1.99252
2.20573
0.984518
3.22189
0.299614
0.299614
0.31836
0.31836
0.243495
0.234905
0.290727
0.217307
0.222478
0.217307
0.190762
0.160688
0.148216
0.190762
1.10197
0.251885
0.155287
0.187677
0.148216
0.314101
0.421276
0.421276
0.628865
0.628865
3.22189
0.150666
1.37293
1.49207
0.251885
3.61929
1.30632
0.243495
2.15316
2.67684
0.190762
0.241448
0.899327
1.48029
0.185985
)
;
    }
    procBoundary3to2
    {
        type            processor;
        value           nonuniform List<scalar> 
29
(
0.0765917
0.0765917
0.0385557
0.0377751
0.378578
0.0873813
0.0217956
0.0907914
0.0844737
0.0704654
0.0944163
0.354585
0.0627264
0.0578405
0.0596315
0.0440095
0.0851573
0.0884269
0.0835071
0.0629888
0.0625514
0.0851573
0.0335597
0.0884269
0.0521643
0.0648003
0.0884269
0.289935
0.289935
)
;
    }
}


// ************************************************************************* //
