/*--------------------------------*- C++ -*----------------------------------*\
| =========                 |                                                 |
| \\      /  F ield         | OpenFOAM: The Open Source CFD Toolbox           |
|  \\    /   O peration     | Version:  v1912                                 |
|   \\  /    A nd           | Website:  www.openfoam.com                      |
|    \\/     M anipulation  |                                                 |
\*---------------------------------------------------------------------------*/
FoamFile
{
    version     2.0;
    format      ascii;
    class       volScalarField;
    location    "0.39";
    object      k;
}
// * * * * * * * * * * * * * * * * * * * * * * * * * * * * * * * * * * * * * //

dimensions      [0 2 -2 0 0 0 0];


internalField   nonuniform List<scalar> 
1431
(
2.93221
2.08991
0.500785
0.474855
0.158093
1.43113
0.214116
1.67007
1.78485
0.167457
1.60676
1.58424
1.52264
0.22553
0.150117
0.190079
0.198304
0.45302
0.184265
0.647719
2.508
0.348816
1.82251
2.10486
1.84518
1.18795
1.21979
0.231465
0.896848
0.531943
0.797696
1.10434
0.737869
0.12626
1.37251
1.61699
2.73013
0.240494
0.481537
0.945094
2.42365
2.78328
1.3693
0.265625
0.821816
0.242849
0.242803
1.05831
0.240298
0.687738
1.39687
0.376243
1.4654
2.06158
2.19873
1.55422
0.0969747
1.93613
0.197682
0.248856
0.128316
0.236083
0.499512
0.294986
0.325901
0.12987
0.295979
0.546564
0.187257
0.251181
1.00979
0.142488
0.358678
0.0837679
0.223129
0.164053
0.361867
0.697235
0.221354
0.368457
0.201387
0.285721
2.03818
0.225247
1.0647
0.710879
0.206607
0.467879
1.42409
1.81377
0.533677
0.14405
0.209018
0.285196
1.84187
0.544046
1.96361
2.04377
0.298976
0.484319
1.79595
0.265258
0.240175
0.345367
0.764748
1.07712
1.39958
1.53943
1.52032
0.218959
0.247962
1.64472
0.726619
2.34182
2.24999
0.14832
0.186643
0.417112
0.46639
0.395382
0.298134
0.241664
1.19486
0.231586
0.652261
0.488358
0.421235
0.168851
0.817342
0.606796
0.177412
0.535061
0.898814
0.22381
0.859962
0.835907
0.876168
0.229617
1.18717
0.158547
0.390367
0.714566
0.208436
0.252083
1.82431
0.718681
0.550127
1.70489
0.322528
0.220608
0.589118
0.211234
1.01559
0.541346
1.35006
0.420117
1.12344
1.33368
1.95463
0.563789
1.53025
1.61643
0.272935
0.330029
1.0431
2.62482
2.33773
2.0351
0.45053
2.17006
1.74927
1.68613
0.853388
1.19745
1.89712
1.11416
0.625359
1.15991
1.40273
1.30234
0.141046
0.506801
1.49169
3.15416
1.07082
1.32875
1.2681
1.71824
0.897596
1.19389
0.777397
0.962335
1.00221
1.7706
0.435589
1.15481
1.6528
0.856108
0.179631
1.38346
1.62815
0.290301
1.25977
0.234279
1.62959
0.828666
1.14629
0.17066
1.38123
1.34233
0.629035
0.24077
1.34858
1.09768
1.29675
0.663378
1.08949
0.796983
1.45349
1.1546
1.30366
1.53412
0.231331
0.311032
1.42877
1.79227
1.53633
2.16175
1.23691
0.890113
1.04242
0.779615
1.05391
0.95925
1.1491
1.91083
1.28648
1.1254
0.751205
1.79575
1.05399
1.08806
1.54785
0.974306
0.937079
0.665775
1.0628
1.28023
1.37602
0.416572
0.169936
1.32366
0.516429
0.349602
0.803896
2.31224
0.496678
2.1471
1.73661
1.05028
0.931036
1.17581
1.46842
0.485285
1.56216
1.39199
1.67312
2.24718
1.01556
0.0950437
1.4589
1.21552
2.20381
1.92945
1.44739
0.816914
1.40589
0.946163
0.81522
1.12234
1.58761
2.24468
0.718044
1.53118
1.77386
2.16374
2.39581
1.87044
1.07521
1.77144
0.14957
1.78191
1.8285
1.84988
0.78034
1.20998
1.50417
1.51137
0.711467
0.894128
1.57397
0.876002
2.18336
1.52427
1.16469
0.484471
1.52021
0.999854
2.73288
2.15314
1.00399
0.831983
0.185638
0.901132
1.70167
1.36439
0.950093
2.0343
0.186252
5.24627
1.24864
1.25725
0.340685
1.9519
1.06187
0.450566
0.4028
1.8994
2.29759
0.353939
1.12744
0.212476
1.82333
0.378181
0.814184
1.45271
2.03043
1.98924
1.10052
1.04287
0.774646
1.42096
0.863025
2.33236
1.76691
0.906102
1.9588
1.4228
0.900029
1.79761
0.538651
0.216694
1.93024
0.991483
0.225019
1.64137
1.01079
0.604455
1.19453
2.43023
0.354298
1.19779
0.996339
2.07924
0.19904
0.874475
1.82922
3.90625
1.22019
0.699291
1.4817
0.16304
1.55954
1.19449
2.26535
2.71267
1.11059
1.50039
0.630895
3.23921
1.69266
1.16011
1.73019
0.249863
5.21501
1.71548
1.20486
1.82992
0.782755
1.16603
1.40022
1.31773
1.36014
0.463687
1.6774
1.837
1.7763
1.80785
1.89211
1.5761
0.899945
2.18424
1.46721
2.22916
1.46815
1.69786
1.50249
0.920897
1.37946
1.66
0.987071
1.08125
1.61921
1.36095
1.79043
0.266792
0.92788
1.13923
1.36933
1.57537
1.60367
1.49882
1.49729
0.939902
1.53276
0.180528
0.510766
0.296636
0.802253
1.73247
1.60634
1.70166
1.86782
1.84384
1.89645
1.81744
1.67738
1.92407
1.73311
1.88832
0.218071
1.23404
0.210575
0.196932
0.217409
0.175958
0.195157
0.186449
0.212737
0.241602
0.208261
0.75319
0.228864
0.307015
0.211697
0.240874
0.321144
1.85365
0.409957
0.894259
0.279875
0.773256
1.73389
0.243034
0.805715
0.738364
0.290237
1.65525
0.776012
1.58937
0.205867
0.28241
0.293028
0.396527
1.1989
1.22508
0.683814
0.725018
0.190237
0.339133
0.402169
0.226877
1.22572
1.2011
0.294771
0.362269
0.307743
0.248407
1.0178
0.811854
1.24404
0.802635
0.98433
0.74556
0.300159
0.348891
0.922747
1.22695
1.16946
0.820832
0.976857
0.848411
0.931257
0.522385
1.20226
1.26289
0.237217
1.51832
1.38528
0.290854
0.672234
0.449142
0.311417
0.877922
0.517139
0.639161
0.853995
0.834851
0.624186
1.2555
0.358461
1.48882
1.00038
0.42634
0.994513
0.663503
1.14388
0.933104
0.226715
0.748034
1.58481
1.598
1.29051
1.42258
1.93363
0.64254
1.63944
0.38481
1.09813
0.185792
1.73884
0.670184
2.50231
1.61065
1.50795
1.53488
1.33502
0.408337
1.75475
2.08849
1.08474
0.571828
2.11793
1.4187
0.586384
1.44499
0.662828
1.07874
0.368422
2.96756
2.09969
1.1184
1.10375
1.88856
4.25676
1.91462
1.6394
0.319089
1.17635
2.12545
1.63418
0.937555
1.69175
1.67227
1.10877
0.706737
0.617293
1.46423
1.46965
1.51906
1.66538
0.814073
0.559791
0.852807
0.859853
1.22676
0.904989
1.57132
1.28406
0.488241
1.27468
2.43982
1.47189
1.28853
1.49
1.81877
0.397961
1.14296
1.78878
1.26938
0.53086
1.30512
1.47098
1.58483
0.712677
0.893499
1.10072
0.826233
1.21305
0.201584
0.652076
1.82548
1.4171
1.47941
1.76417
2.00659
1.12453
0.657733
0.775386
1.24508
2.20925
1.35639
1.02015
1.38544
1.79442
0.556695
1.88654
0.176868
0.785301
1.62125
1.62452
1.67899
0.286619
1.65618
1.61923
0.773126
1.52374
1.84545
1.86648
1.58923
1.95222
1.22191
1.37898
1.43556
2.13964
1.67657
0.684753
0.896701
0.81585
1.09479
1.05499
2.43743
1.14929
0.783296
0.228571
0.865571
1.8457
0.627546
0.546711
1.61748
1.62349
1.84178
1.34027
1.84015
1.17409
0.750432
0.805518
0.598164
1.57574
0.253417
1.4956
2.15064
0.921892
1.85048
0.914732
0.619606
0.933828
0.374966
0.802149
2.004
2.0077
1.70411
1.02647
0.922643
0.716471
0.551249
1.33388
1.79815
0.224734
0.637863
1.65524
1.27215
2.39377
0.514865
0.291334
2.07278
1.07891
0.325962
0.204245
0.971668
0.930283
0.872973
1.69564
0.399293
1.91444
0.958795
0.899976
1.01242
1.24518
1.55763
1.86761
1.78221
0.923876
1.39332
0.527274
2.5216
1.27496
1.4931
1.77952
1.96794
2.63205
0.851358
1.30018
1.74421
1.05489
1.67761
1.43038
1.38577
1.50067
1.95378
0.675723
2.28002
0.898348
1.73817
1.94872
1.29112
2.32304
1.13861
0.92733
0.683739
0.615814
1.86251
2.03671
0.472488
1.42376
0.56985
0.343867
0.320439
1.64662
0.250944
1.25589
1.63166
1.57111
0.243646
2.61604
1.49003
2.03928
0.259565
1.63561
1.4262
2.6005
2.15208
1.40993
0.212668
0.320127
1.43612
0.197793
0.216911
1.51477
1.72993
1.27493
1.06728
1.2663
2.22549
2.09711
1.31601
0.113479
1.88665
1.7592
1.16818
0.941563
0.906786
1.74772
0.821329
0.749875
1.15122
0.733758
1.23689
0.896026
1.15602
1.13747
0.550453
1.16066
1.82125
1.06866
0.145078
0.769136
0.97646
0.751021
1.64184
0.98126
0.359983
0.484288
1.44652
1.46587
5.07906
1.05124
1.68445
1.91345
0.867255
3.92676
0.272005
1.47309
1.20317
2.2789
2.0542
1.2082
0.205565
2.31249
1.89632
0.188142
1.45074
1.73543
1.82563
0.840211
0.631087
2.16556
0.707178
0.221664
0.700578
2.02389
1.16681
0.937514
0.930782
1.12664
2.18446
0.2111
2.20855
1.72262
1.67434
1.72787
0.457761
0.600746
1.10293
1.45866
1.82421
0.925854
2.7463
1.805
1.34133
1.2858
0.706648
1.40263
1.60986
0.387625
0.631192
0.901027
0.33726
0.723009
0.836189
1.62864
1.00226
0.467579
1.30156
1.55758
1.59073
1.46884
0.656498
1.39019
1.49937
1.77639
4.28177
1.83939
0.705929
0.28167
0.303911
0.249294
1.76006
1.58446
1.93287
1.51686
0.760119
1.9992
0.872798
3.64815
1.9229
1.2356
0.643585
0.783992
0.802575
0.798204
0.797961
0.695645
0.757879
0.567835
0.599521
0.581911
0.583531
0.583237
0.745895
0.590263
0.537424
0.547753
0.58162
0.732792
0.709045
0.568802
0.687773
0.681372
0.556507
0.67604
1.3929
1.0897
0.751029
0.606743
0.659828
0.343031
0.202056
1.12996
1.17677
0.689436
0.249698
0.871885
1.88093
2.37599
0.334252
0.261028
1.16417
0.360465
1.4973
0.190883
0.214847
2.3329
0.0980124
0.659631
1.31752
1.07563
0.817624
1.34745
1.13671
0.808532
0.305345
1.44585
2.07012
1.93888
1.72207
1.09558
0.686937
0.370273
0.267541
0.67411
1.73662
0.936432
0.534892
0.707662
1.32425
0.966954
0.257756
0.418146
1.19803
0.91593
1.14692
1.73969
1.33965
1.40728
0.305987
0.359031
1.08384
0.628739
0.158505
0.111522
1.46521
1.00177
0.943532
0.19361
0.261003
0.379537
1.12918
0.228844
5.63522
1.56434
1.10819
0.660343
1.87729
1.6661
2.06776
0.224209
0.997744
0.757148
0.129667
0.736701
1.5095
1.04467
2.96783
1.46996
0.642741
1.61604
0.60659
1.05801
0.356118
1.47224
0.901966
0.276396
1.56068
1.2968
1.33463
0.825429
2.65371
0.862424
0.72279
0.427435
0.89639
1.11461
0.285542
1.34661
1.20748
1.16007
0.435815
1.19372
1.07911
1.18695
3.42046
0.20794
0.854477
0.528214
0.354308
1.73905
2.06554
0.53659
1.72684
0.760775
1.33714
1.23695
1.55726
0.19073
1.19464
1.1923
1.18391
1.12939
2.35381
1.01869
0.115423
0.734702
0.129272
1.96266
1.38761
1.1008
2.63516
1.59796
1.20697
1.86318
0.647132
1.43854
0.400192
0.294259
0.206113
0.887636
0.303577
1.26581
2.40807
1.63754
1.05545
2.23084
1.32675
0.768342
0.620992
1.60724
1.08356
1.54168
1.10269
2.42349
1.73658
1.10287
0.638296
1.12945
1.10035
1.09155
1.07305
1.03844
1.00316
1.10954
0.974469
0.173705
0.151455
0.169328
0.16378
0.150538
0.168978
1.68815
0.319723
2.10265
1.27847
2.03647
0.541005
0.380417
1.2383
0.676232
0.233169
1.53104
0.502849
1.12476
1.25986
0.110205
0.823401
0.102074
1.92365
1.3991
1.31513
1.49166
0.898633
1.60183
1.00423
4.68447
1.17155
0.371134
0.763028
2.21523
0.627278
1.45599
1.1048
0.812814
1.70435
0.25889
0.147624
0.742307
0.533837
0.28412
0.315011
0.279752
0.274855
0.390324
0.813629
2.26253
2.5341
0.949745
0.37099
1.55388
1.81807
0.50142
1.06395
1.61788
1.24812
1.24463
0.245613
0.446141
0.251438
0.978104
0.204966
1.39715
1.71922
1.70138
2.19689
0.540366
1.15554
0.124556
0.520281
2.22577
1.70439
1.64783
0.967008
0.695092
1.36309
2.24673
0.854129
1.44104
1.11735
0.710281
0.264589
1.08927
0.245043
0.346492
1.4634
1.7367
1.06012
0.90672
1.39567
0.256874
2.0699
0.967246
1.60032
2.00805
0.974439
1.43858
0.745655
1.09775
1.92398
1.09743
2.2594
0.943888
0.374496
0.47068
0.224246
1.34193
2.00677
2.75855
2.01865
1.75545
0.465506
2.56385
0.126704
0.259586
0.350119
0.211306
0.483876
2.13568
0.709436
0.843201
1.22493
1.48799
0.18963
1.76665
1.1907
0.371676
0.559418
0.243149
0.110571
2.03669
0.522618
1.95596
1.11192
1.41477
1.63707
1.27431
0.793778
0.525673
0.184221
0.566633
1.52876
1.18273
1.0786
4.40151
1.11717
0.745258
0.970445
1.09541
0.917041
0.211592
1.84556
0.924467
1.73238
1.64321
1.81012
2.81476
0.456125
0.184514
1.32843
0.201898
0.75591
1.25699
1.37947
2.13661
1.61761
1.74004
1.4522
1.19998
1.30645
0.22823
0.51486
0.658171
0.225009
0.756454
1.01855
1.60437
1.08768
1.14455
0.730041
0.682725
0.866881
0.987431
0.67713
1.15909
1.92415
2.10256
1.15951
0.155527
1.25821
1.46289
1.72366
2.05426
1.5242
0.814928
0.527387
1.00249
0.307959
1.16365
0.875256
1.288
2.23537
1.82467
0.323567
0.364675
1.72189
1.31678
0.86358
1.28385
0.198674
2.29872
1.00025
0.907211
0.791532
3.89616
1.42293
1.88502
0.66251
0.623532
1.14648
1.00254
1.72618
0.98942
0.876242
0.370252
3.34546
0.138771
1.3328
1.88868
0.910244
1.64058
2.44145
1.62021
2.40304
1.01222
0.527066
0.305744
1.49435
1.06001
0.107725
1.09989
0.203777
1.8245
0.942391
2.74922
0.665177
0.148658
0.121564
1.16039
1.23326
0.222096
0.648245
2.22905
0.241704
0.298869
0.630206
1.9973
0.422667
1.10474
0.10907
0.658241
1.28056
1.59497
2.96211
1.06022
1.51624
0.116751
0.592426
0.722391
1.03588
0.204224
1.61513
0.693257
0.802111
0.813215
1.06962
1.73841
1.04899
0.211189
1.21503
0.765737
0.504787
1.02145
1.64369
0.348581
0.703469
0.727166
0.824342
1.13386
0.208081
0.194914
1.65443
1.37698
0.720888
1.26637
0.706312
0.989162
0.773639
1.25238
0.648679
0.591936
0.502264
0.403042
0.111213
0.714596
1.68182
1.18143
0.69011
1.72789
0.540022
1.3246
1.12202
0.706532
0.185505
0.192455
0.87758
1.14908
0.183806
0.640591
0.456383
1.07491
0.372274
0.847282
1.25267
1.86649
0.478057
0.680014
1.05472
0.884299
0.252278
0.0875959
0.577923
0.410887
0.843064
1.12003
0.192981
0.465789
1.04033
1.8772
0.309862
0.617087
0.186309
0.50044
0.519967
0.123337
)
;

boundaryField
{
    frontAndBack
    {
        type            empty;
    }
    wallOuter
    {
        type            kqRWallFunction;
        value           nonuniform List<scalar> 
96
(
0.896848
0.531943
0.544046
0.921892
0.933828
0.922643
0.637863
0.514865
0.291334
1.07891
0.204245
0.930283
0.399293
0.958795
1.01242
1.13861
0.92733
0.615814
0.113479
0.749875
0.145078
0.840211
0.631087
1.16681
0.937514
0.643585
0.783992
0.802575
0.798204
0.797961
0.695645
0.757879
0.567835
0.599521
0.581911
0.583531
0.583237
0.745895
0.590263
0.537424
0.547753
0.58162
0.732792
0.709045
0.568802
0.687773
0.681372
0.556507
0.67604
0.659631
0.936432
0.534892
0.628739
0.111522
0.943532
0.642741
0.825429
0.854477
0.528214
0.53659
1.18391
0.115423
0.129272
1.1008
1.08356
1.10269
1.10287
0.638296
1.12945
1.10035
1.09155
1.07305
1.03844
1.00316
1.10954
0.974469
0.173705
0.151455
0.169328
0.16378
0.150538
0.168978
0.541005
0.110205
0.533837
0.540366
0.943888
0.110571
1.18273
1.15909
0.814928
0.527387
0.138771
1.01222
0.942391
0.121564
)
;
    }
    inlet
    {
        type            fixedValue;
        value           nonuniform 0();
    }
    outlet
    {
        type            zeroGradient;
    }
    wallInner
    {
        type            kqRWallFunction;
        value           nonuniform List<scalar> 
126
(
0.197682
0.248856
0.128316
0.236083
0.499512
0.294986
0.325901
0.12987
0.295979
0.546564
0.187257
0.251181
1.00979
0.142488
0.358678
0.0837679
0.223129
0.164053
0.361867
0.697235
0.221354
0.368457
0.201387
0.285721
0.484319
0.14832
0.186643
0.417112
0.46639
0.395382
0.298134
0.241664
1.19486
0.231586
0.652261
0.488358
0.421235
0.177412
0.535061
0.158547
0.390367
0.208436
0.252083
0.550127
0.220608
0.211234
0.541346
1.0431
0.141046
1.32875
1.2681
0.435589
0.629035
0.0950437
0.81522
1.12234
0.14957
1.50417
1.51137
0.894128
0.876002
0.831983
0.185638
0.901132
0.450566
0.4028
1.12744
1.04287
0.774646
0.604455
1.19779
0.996339
0.920897
1.13923
0.522385
0.517139
0.748034
0.38481
0.670184
0.408337
0.571828
0.368422
1.10877
1.46423
1.28406
2.43982
0.53086
1.02015
0.286619
2.13964
1.14929
1.91444
0.899976
1.4262
0.705929
1.76006
0.91593
0.695092
0.665177
0.148658
0.192455
0.87758
0.183806
0.456383
1.07491
0.372274
1.25267
0.478057
0.680014
1.05472
0.884299
0.252278
0.0875959
0.410887
0.843064
1.12003
0.192981
0.465789
1.04033
1.8772
0.309862
0.617087
0.186309
0.50044
0.519967
0.123337
)
;
    }
    procBoundary3to1
    {
        type            processor;
        value           nonuniform List<scalar> 
48
(
2.88917
2.33591
2.56472
3.07475
1.62277
2.34008
2.33591
0.558536
1.77671
0.255515
0.255515
0.264504
0.264504
1.00747
0.876612
0.266206
0.298595
0.266993
0.298595
0.266211
0.923864
0.878454
0.266211
1.55727
0.267207
0.266222
0.719935
0.878454
0.645182
0.522516
0.522516
0.545553
0.545553
1.77671
0.246792
1.48189
0.787101
0.267207
2.52875
1.37031
1.00747
1.15696
1.27183
0.266211
0.734549
0.972199
1.5571
0.993321
)
;
    }
    procBoundary3to2
    {
        type            processor;
        value           nonuniform List<scalar> 
29
(
0.825357
0.825357
0.116188
0.155757
0.22162
0.42357
0.302073
0.589189
0.248284
0.235051
0.624155
0.38484
0.636574
0.52611
0.344803
0.466819
0.202212
0.219639
0.629507
0.578155
0.459732
0.202212
0.182172
0.219639
0.293532
0.205852
0.219639
0.530136
0.530136
)
;
    }
}


// ************************************************************************* //
