/*--------------------------------*- C++ -*----------------------------------*\
| =========                 |                                                 |
| \\      /  F ield         | OpenFOAM: The Open Source CFD Toolbox           |
|  \\    /   O peration     | Version:  v1912                                 |
|   \\  /    A nd           | Website:  www.openfoam.com                      |
|    \\/     M anipulation  |                                                 |
\*---------------------------------------------------------------------------*/
FoamFile
{
    version     2.0;
    format      ascii;
    class       volScalarField;
    location    "0.39";
    object      nut;
}
// * * * * * * * * * * * * * * * * * * * * * * * * * * * * * * * * * * * * * //

dimensions      [0 2 -1 0 0 0 0];


internalField   nonuniform List<scalar> 
1431
(
0.00524536
0.00706949
0.00172033
0.00171226
0.00104362
0.00496564
0.00167358
0.00361749
0.00510936
0.000904636
0.00306935
0.00452149
0.00744272
0.0012475
0.000825758
0.00115593
0.000966712
0.0012216
0.000890563
0.00173476
0.00375222
0.00290316
0.0047503
0.00540009
0.00476955
0.00538864
0.00275941
0.00101714
0.000942729
0.00075141
0.00217403
0.0026737
0.00207348
0.000773895
0.00565003
0.00486451
0.0103054
0.00104471
0.00237552
0.00243202
0.00620242
0.00853422
0.00636525
0.00170306
0.00260501
0.00117857
0.00135369
0.00260022
0.00188426
0.00279813
0.00641311
0.00197706
0.00678669
0.00486486
0.00736145
0.00492483
0.000502236
0.00484706
0.000778044
0.000892398
0.000736904
0.000926972
0.00125994
0.00110324
0.000756783
0.000479615
0.0008996
0.00127018
0.000744921
0.000789998
0.00198778
0.000698698
0.00102838
0.000481584
0.000932385
0.00064632
0.000963544
0.0014155
0.00103273
0.00112681
0.000840798
0.000883994
0.0062177
0.0014049
0.00269652
0.00431483
0.00127505
0.00160156
0.00457324
0.00560145
0.00108205
0.000706128
0.0010922
0.00134308
0.00663078
0.000711022
0.00460738
0.00716929
0.00192254
0.00131308
0.00695242
0.00104831
0.00139789
0.00121412
0.00178837
0.00265147
0.0031939
0.0026122
0.00393266
0.00112516
0.00100743
0.00799878
0.00400921
0.00516826
0.00748548
0.000803434
0.000839494
0.00122895
0.00112943
0.00103695
0.000833621
0.000991994
0.00152285
0.000795123
0.00127462
0.00126716
0.00119729
0.000871198
0.00398005
0.00371601
0.000655397
0.00114549
0.00491788
0.000842729
0.00188478
0.00295089
0.00366487
0.00121546
0.00484165
0.000658197
0.00109122
0.00212819
0.000711237
0.000740353
0.00472244
0.00196604
0.00129159
0.00728841
0.00135359
0.000814525
0.00176016
0.000897923
0.00257987
0.00129373
0.00354643
0.00214281
0.00392961
0.0056673
0.00598054
0.00399961
0.00608531
0.00796453
0.00168565
0.00241513
0.00168706
0.00493734
0.00451197
0.00705571
0.00182943
0.0074211
0.00645245
0.00773971
0.00233418
0.00481133
0.00674776
0.00379879
0.00416657
0.00388547
0.00662617
0.00567548
0.000521761
0.00253654
0.00573028
0.00660574
0.00379992
0.00141125
0.00136513
0.0064371
0.00262046
0.00331288
0.0024911
0.00267412
0.00279845
0.00277011
0.00109378
0.0053107
0.00636704
0.00432049
0.000760641
0.00201627
0.00599359
0.00192126
0.00298272
0.00167978
0.00812559
0.00261591
0.00257088
0.000644181
0.00504475
0.00321631
0.00114852
0.00124836
0.00318241
0.0026621
0.00446013
0.0013839
0.00297406
0.00420989
0.00621063
0.0028586
0.00331156
0.00553109
0.00101246
0.00219395
0.00368799
0.00555139
0.00327106
0.00741082
0.00289947
0.00240417
0.00253194
0.00217505
0.00265758
0.00270455
0.00279627
0.00681602
0.00317464
0.00290954
0.00238923
0.00589941
0.00550962
0.0055448
0.00526029
0.00275442
0.00268558
0.00259075
0.00289373
0.00287414
0.00350131
0.00189765
0.000868866
0.00530464
0.00372438
0.00272278
0.00257838
0.00732156
0.00357984
0.00587853
0.00654725
0.00286005
0.00169968
0.0047561
0.00600804
0.00352438
0.00394978
0.00322645
0.00619395
0.00311728
0.00256387
0.000400584
0.00393803
0.00314489
0.00724145
0.00584895
0.00586289
0.00214764
0.00573123
0.00262611
0.00106535
0.00162045
0.00740119
0.00900744
0.00196369
0.00634678
0.00646332
0.00732624
0.00734892
0.00681657
0.00245122
0.00638864
0.000547185
0.00595994
0.00670437
0.00864508
0.00226393
0.00264173
0.00160938
0.00158075
0.00194319
0.00111399
0.00712813
0.00135529
0.00716524
0.00785364
0.00268496
0.0034874
0.0059944
0.00268149
0.00891634
0.00735906
0.00500196
0.00142595
0.000694173
0.00111978
0.00541607
0.005796
0.00461055
0.00701663
0.00128297
0.00686134
0.00553849
0.00554967
0.000949338
0.00852105
0.00445735
0.00111781
0.000969498
0.00555741
0.005083
0.00271049
0.00123793
0.00130545
0.00538667
0.00327641
0.00496615
0.00745516
0.00654314
0.00697568
0.00444092
0.00120541
0.00130102
0.00714399
0.00457793
0.00559916
0.00532754
0.00253099
0.00666528
0.00566977
0.00480147
0.0086458
0.00276153
0.00112058
0.00841361
0.00514654
0.00106965
0.00617895
0.00356473
0.00112902
0.00472512
0.00689218
0.00289585
0.00141176
0.00116391
0.00690703
0.00124151
0.00276932
0.00492592
0.00683864
0.00266749
0.00212802
0.0029384
0.00105009
0.00496583
0.00574593
0.00577387
0.00664716
0.00529666
0.00386137
0.00364993
0.00700848
0.00819946
0.00440195
0.00471299
0.000992169
0.00753183
0.00547113
0.00590933
0.00536533
0.00378363
0.00581067
0.00602048
0.00624217
0.00637665
0.00336844
0.0064412
0.0082212
0.0077792
0.00773068
0.00481599
0.00555427
0.00489322
0.00579918
0.00599153
0.00721005
0.00458082
0.00705941
0.00495487
0.00114409
0.00571565
0.00697981
0.00504094
0.00472553
0.00689714
0.00674509
0.00528178
0.000978235
0.00506345
0.00124342
0.00516763
0.00680004
0.00389397
0.00739551
0.00635219
0.00508725
0.00671193
0.00103878
0.00193231
0.00149425
0.00437572
0.00504036
0.00741593
0.00782183
0.00841755
0.00848811
0.00858026
0.00829445
0.00783673
0.00848406
0.00810737
0.00846509
0.00113473
0.00500479
0.00114168
0.00123114
0.0012811
0.0013327
0.00124584
0.0011805
0.00170948
0.00213741
0.00187249
0.00325003
0.00157851
0.00113304
0.00138112
0.00191644
0.00278605
0.00548773
0.00125576
0.00463962
0.00239219
0.00344863
0.00523062
0.00178667
0.00417857
0.00312117
0.00125734
0.00501958
0.00335025
0.00481783
0.00150319
0.00151018
0.00129073
0.00319803
0.0048812
0.00503844
0.00291389
0.00353131
0.00129381
0.001549
0.00328262
0.00126742
0.00491912
0.00424238
0.00129109
0.00292273
0.00160401
0.00128216
0.00504386
0.0042651
0.00481989
0.00322825
0.00501042
0.00429967
0.00206502
0.00181024
0.00469158
0.00464403
0.00415218
0.00195033
0.00439728
0.00409004
0.00212459
0.000819581
0.00457619
0.00512389
0.00131118
0.00495495
0.00444084
0.00111897
0.00370478
0.00220655
0.00155259
0.0044242
0.000732675
0.00373075
0.00420725
0.00471948
0.00251671
0.00500494
0.00160474
0.00478203
0.00270867
0.00315943
0.00521117
0.00447428
0.00435844
0.00240176
0.00109645
0.00103128
0.00602315
0.00597164
0.00655553
0.00359535
0.00833872
0.0036304
0.00419263
0.000882053
0.00600699
0.000955753
0.00795438
0.00116047
0.00530285
0.00571192
0.00340462
0.0038157
0.00587061
0.000821347
0.00785563
0.00857324
0.00553629
0.000930809
0.00581222
0.00628881
0.00205064
0.0027908
0.00456425
0.00471064
0.000819791
0.0040705
0.00866167
0.00454242
0.00521956
0.00858997
0.0053051
0.0069505
0.00593675
0.00229493
0.005884
0.00713949
0.00748902
0.00429468
0.0080672
0.00573065
0.00125462
0.0036257
0.00408144
0.00162103
0.00719189
0.00707581
0.00759624
0.00383046
0.00215151
0.00471183
0.00478546
0.00336525
0.00263434
0.006187
0.00139522
0.00174699
0.00630873
0.00183655
0.00652374
0.00615307
0.00377404
0.00814818
0.00246752
0.00566949
0.00660727
0.00490138
0.000928929
0.00686546
0.00615628
0.00516203
0.00393797
0.00367325
0.00152194
0.00459562
0.00378343
0.00130338
0.00433435
0.0078717
0.00656355
0.00734819
0.00421782
0.00608761
0.00219878
0.00443526
0.00424652
0.00555542
0.0074384
0.00569134
0.00119096
0.00622113
0.00852855
0.0029203
0.00809731
0.000891377
0.00428798
0.00498267
0.00822802
0.00706491
0.000731366
0.00803739
0.00746965
0.00425053
0.00395501
0.00649419
0.0039082
0.00580883
0.00479985
0.00548803
0.0059496
0.00611662
0.0018601
0.00818878
0.00369333
0.00409123
0.00183318
0.00535586
0.00539283
0.00867331
0.00141483
0.00439668
0.00133051
0.00376301
0.00511924
0.00324554
0.00324422
0.00580687
0.00633786
0.00775448
0.00657458
0.00869377
0.00510904
0.00248119
0.00246024
0.0037029
0.007022
0.000956017
0.00667069
0.00731038
0.00110136
0.00843988
0.00483231
0.00231737
0.00111034
0.00330139
0.0028724
0.00649121
0.00665246
0.00627809
0.00531853
0.00109599
0.0022429
0.00258623
0.00668026
0.00426807
0.00123406
0.00093272
0.00355993
0.00295469
0.00512381
0.000842921
0.000594401
0.00892347
0.00114164
0.00160462
0.000462228
0.00478215
0.00106206
0.00469727
0.00773181
0.000730636
0.0019201
0.00113921
0.00126499
0.00110227
0.00566444
0.00568086
0.00495262
0.00536898
0.00254829
0.0034864
0.00184762
0.00525153
0.00631635
0.00285532
0.00561334
0.00422934
0.00562961
0.00262572
0.00521218
0.00830074
0.00232208
0.00577066
0.002929
0.00660781
0.00270999
0.0032671
0.00296753
0.00757912
0.00405268
0.00626214
0.00427627
0.00320251
0.00510606
0.00118772
0.00108207
0.00470987
0.000820539
0.0053222
0.00644172
0.00202462
0.00663595
0.00280045
0.00274417
0.00129364
0.00401244
0.0014806
0.0066222
0.00557188
0.00602434
0.00191867
0.00568409
0.00381018
0.00609187
0.00100655
0.00509921
0.00138802
0.00616761
0.00447833
0.00361255
0.00125634
0.00121296
0.00321061
0.00130523
0.00180414
0.00622059
0.00523916
0.00577248
0.00265971
0.0034116
0.00522669
0.00550753
0.00624411
0.00034331
0.00653133
0.00652674
0.00281888
0.00507429
0.00302035
0.00824845
0.00338716
0.000999969
0.00480282
0.00304394
0.00611886
0.00247529
0.005842
0.00350685
0.00173518
0.00270588
0.00716162
0.00267075
0.000373355
0.00506742
0.00240725
0.00493522
0.0082212
0.0025479
0.0030937
0.00174609
0.00659629
0.00702109
0.00623024
0.00274203
0.00551398
0.00666997
0.00334918
0.0070368
0.00203311
0.00567702
0.00424234
0.00822477
0.00581256
0.00586915
0.00115858
0.00942652
0.00448701
0.000993859
0.00331857
0.00810092
0.00829435
0.00103383
0.000833584
0.00716077
0.00212273
0.00127943
0.00303553
0.00863799
0.00122055
0.00103384
0.00250808
0.00551587
0.00524874
0.00125905
0.00937059
0.00788101
0.00621552
0.00832568
0.00264768
0.00319824
0.00258679
0.00670815
0.00662906
0.00336998
0.00645394
0.00618779
0.0057118
0.00294735
0.00212977
0.00734687
0.0051521
0.00143252
0.00150703
0.00448549
0.00190234
0.00351192
0.00296855
0.00554736
0.00531965
0.00233223
0.00603889
0.00779018
0.00572403
0.00740502
0.00220382
0.00552811
0.00572279
0.00834286
0.00557872
0.00676687
0.00103299
0.00210083
0.0011309
0.00185601
0.00215654
0.00567133
0.00345423
0.00468283
0.00446033
0.00392444
0.00188608
0.0054278
0.00503742
0.0028705
0.000742076
0.000923731
0.000886729
0.000771629
0.000819493
0.000836378
0.000911164
0.000626679
0.000755945
0.000673105
0.000679112
0.00066011
0.000905711
0.000764167
0.00064894
0.000638391
0.000800737
0.000859298
0.000811213
0.000792744
0.000773198
0.000778884
0.000761924
0.00080444
0.0069962
0.00506522
0.00338414
0.0038379
0.00298562
0.00276727
0.0012089
0.00357883
0.002432
0.00208654
0.00175368
0.00166283
0.00592745
0.00581671
0.00237039
0.0017032
0.00528388
0.0017604
0.0074841
0.00153179
0.00142755
0.00620736
0.000762576
0.000812793
0.00540538
0.00556917
0.00173713
0.00402492
0.00432856
0.00165462
0.0025268
0.00724345
0.00588185
0.00857489
0.00849019
0.0044453
0.00279284
0.00211483
0.00140829
0.00381894
0.00816506
0.00104461
0.000758534
0.00418611
0.00639388
0.00543309
0.00224176
0.00125599
0.00523158
0.00103236
0.00406165
0.00817781
0.00641172
0.00200069
0.00124123
0.00281062
0.00557121
0.000742968
0.000949521
0.000366249
0.00678251
0.00260181
0.000920548
0.00100998
0.001726
0.00130438
0.0053451
0.00144737
0.00736009
0.0063184
0.00289323
0.00285071
0.0042049
0.00650436
0.00713267
0.00186577
0.00313527
0.00496071
0.000896613
0.00340602
0.00691063
0.00268175
0.00387639
0.00474468
0.000778772
0.00642712
0.00323797
0.00233352
0.00288768
0.00365166
0.00247581
0.00113079
0.00389069
0.00299384
0.00582139
0.000984776
0.00909012
0.00521718
0.00268684
0.00259631
0.00196426
0.00190696
0.00100293
0.00589908
0.0055305
0.00585134
0.000996037
0.00568318
0.00557744
0.0032161
0.00428232
0.00144438
0.000841116
0.000715411
0.00263423
0.00687328
0.00505912
0.000758926
0.00519941
0.00215779
0.00568079
0.00480615
0.0057169
0.00140157
0.00288079
0.00542194
0.0012384
0.00314295
0.00843734
0.00534103
0.000363702
0.00215208
0.000374574
0.00672769
0.00571186
0.00129518
0.0100843
0.00426435
0.00506802
0.00622356
0.00343236
0.0057516
0.00298694
0.00166716
0.0010411
0.0052586
0.00209802
0.00579894
0.00918252
0.00553947
0.00485594
0.00863641
0.00565227
0.00247453
0.00298946
0.00794399
0.00124078
0.00572079
0.00138644
0.00992481
0.00820922
0.00121382
0.00078432
0.00116422
0.00109418
0.00105801
0.00138725
0.00123984
0.00119342
0.00112949
0.00121427
0.000455253
0.000369014
0.000350823
0.000403427
0.000295019
0.000357441
0.00830987
0.00137677
0.00869208
0.002856
0.00715906
0.000748833
0.00288122
0.00503157
0.00259235
0.00168925
0.00711102
0.0023016
0.00312683
0.00491132
0.000371967
0.0023879
0.000820402
0.00615095
0.0063722
0.00325877
0.00571999
0.00255702
0.00452013
0.00533293
0.00701746
0.00325735
0.00131142
0.00240576
0.00745423
0.00366592
0.00628898
0.00293061
0.00387517
0.00581674
0.00163131
0.000875368
0.00498717
0.000673597
0.00243201
0.00115782
0.00194239
0.00189564
0.00166671
0.00395873
0.00755186
0.00914378
0.00302948
0.0026014
0.00656474
0.00258574
0.00184742
0.00257097
0.00401963
0.00527586
0.00353122
0.0018192
0.00123459
0.00164844
0.00344843
0.00111363
0.00592579
0.00396217
0.00323056
0.00844176
0.000702657
0.00275481
0.000810324
0.0019994
0.00807299
0.00545133
0.0076941
0.00335337
0.00110638
0.00362466
0.00750057
0.00247288
0.00574953
0.00173238
0.00266627
0.00110403
0.00519373
0.00152979
0.00122826
0.00473973
0.00829861
0.00375171
0.00301006
0.00657166
0.00193536
0.00833371
0.00275137
0.00403626
0.0041131
0.00252691
0.00578023
0.00336783
0.00305745
0.00517665
0.00235197
0.00880506
0.000909913
0.00195501
0.00191448
0.00128752
0.00359545
0.00612914
0.00547381
0.00768795
0.00536348
0.00318191
0.00617629
0.00095681
0.0015528
0.00280325
0.00117971
0.00169985
0.0080026
0.00433957
0.00121574
0.00309695
0.00478039
0.00129205
0.00814632
0.00484536
0.00316444
0.0037413
0.00103545
0.000366804
0.00625817
0.00245575
0.00796202
0.0035835
0.00593832
0.00806027
0.00617128
0.00196729
0.00273728
0.000888788
0.00168099
0.00569872
0.00124504
0.00537207
0.00763032
0.00247499
0.00361538
0.00511432
0.00434092
0.00476704
0.00107444
0.00634362
0.00281977
0.00223279
0.00587121
0.00414972
0.00477077
0.00233486
0.000926208
0.0056425
0.00169373
0.00483238
0.00527499
0.00288903
0.00752229
0.00262032
0.00540555
0.00725829
0.00513833
0.00585418
0.00198141
0.00137212
0.00285329
0.00181453
0.00461804
0.00525668
0.00322256
0.00520001
0.00550649
0.0026312
0.00339446
0.00243586
0.00498793
0.00174907
0.00121694
0.00722541
0.0091454
0.0045175
0.00115023
0.00593532
0.00573287
0.00808071
0.00417177
0.00366033
0.00076974
0.000667437
0.00153759
0.00125069
0.00205648
0.00262759
0.00346469
0.00548201
0.00848916
0.0013034
0.00285197
0.00708431
0.00283643
0.00247872
0.00297935
0.00104312
0.00551458
0.00403961
0.00463445
0.00347821
0.00717982
0.00528296
0.0075663
0.00253006
0.00328765
0.0019078
0.00429367
0.004111
0.00372188
0.00476164
0.00239714
0.00700702
0.000374498
0.00294495
0.00580601
0.00482015
0.00402332
0.00472916
0.00387717
0.00965976
0.00119786
0.00297889
0.000973037
0.00542019
0.00175738
0.000892363
0.00429207
0.00117554
0.00602317
0.000706684
0.00533491
0.00101027
0.000473552
0.000369767
0.0032116
0.00553233
0.0015293
0.00145573
0.00520991
0.00174851
0.0021667
0.00275643
0.00623437
0.00129704
0.0025198
0.000790069
0.00385498
0.00512325
0.00468271
0.00670497
0.00498932
0.00557947
0.000889204
0.00214308
0.00166297
0.00255852
0.00127437
0.00567681
0.00385133
0.00196971
0.00214665
0.00257616
0.00535616
0.00253322
0.000880458
0.00263024
0.00224372
0.00339383
0.00538638
0.00571226
0.00265686
0.0042701
0.0021311
0.00237017
0.00318001
0.000962533
0.000639343
0.00492434
0.00438436
0.00179555
0.00301425
0.00428558
0.00505781
0.00352145
0.00303907
0.00205655
0.00177707
0.00238488
0.00175076
0.000704253
0.00397191
0.00617706
0.00237753
0.00207025
0.00822456
0.00187765
0.00464192
0.00518595
0.00413636
0.00138146
0.000518468
0.00117065
0.00250306
0.000753079
0.0022743
0.000880311
0.00132242
0.000824563
0.00128554
0.00159558
0.00531264
0.000781063
0.00138087
0.00175513
0.0015555
0.000827808
0.000417619
0.0010126
0.000774839
0.0012029
0.00147737
0.000545331
0.00089683
0.00177574
0.00188638
0.000772137
0.00109631
0.000598857
0.00128583
0.00105956
0.000501428
)
;

boundaryField
{
    frontAndBack
    {
        type            empty;
    }
    wallOuter
    {
        type            nutkWallFunction;
        Cmu             0.09;
        kappa           0.41;
        E               9.8;
        value           nonuniform List<scalar> 
96
(
0.000111504
9.01801e-05
8.56463e-05
0.000128008
0.000129117
0.0001273
0.000101941
9.22383e-05
6.68658e-05
0.000127455
5.32404e-05
0.000117615
8.06985e-05
0.000132407
0.000122608
0.000132968
0.000125652
9.83956e-05
4.16635e-05
0.000109597
4.38062e-05
0.000113864
9.98469e-05
0.000136932
0.000120235
8.89064e-05
0.000109488
0.000105266
9.20978e-05
9.75929e-05
9.96972e-05
0.000108107
7.58888e-05
9.09898e-05
8.1361e-05
8.20432e-05
7.94118e-05
0.000107543
9.19237e-05
7.81587e-05
7.68914e-05
9.61074e-05
0.000102279
9.68449e-05
9.51714e-05
9.25319e-05
9.32497e-05
9.15874e-05
9.62447e-05
9.72779e-05
0.000122878
9.10397e-05
8.93141e-05
4.62467e-05
0.000107581
9.34089e-05
0.00011639
0.000100025
8.59769e-05
9.11106e-05
0.00013923
4.6015e-05
4.73735e-05
0.000149702
0.000141163
0.000156859
0.000138154
9.41308e-05
0.00013204
0.000124681
0.00012096
0.000157033
0.000141491
0.000136633
0.000128939
0.000139006
5.65491e-05
4.64228e-05
4.384e-05
5.00846e-05
3.61585e-05
4.44729e-05
8.99755e-05
4.67312e-05
8.12293e-05
8.46251e-05
0.000105951
4.56631e-05
0.000140244
0.000137481
9.18726e-05
8.03574e-05
4.72765e-05
0.000138962
8.33334e-05
4.68012e-05
)
;
    }
    inlet
    {
        type            calculated;
        value           nonuniform 0();
    }
    outlet
    {
        type            calculated;
        value           nonuniform List<scalar> 9(0.00683864 0.00753183 0.00152194 0.00568409 0.00623024 0.00428232 0.00129518 0.00258574 0.00401963);
    }
    wallInner
    {
        type            nutkWallFunction;
        Cmu             0.09;
        kappa           0.41;
        E               9.8;
        value           nonuniform List<scalar> 
126
(
9.51641e-05
0.00010421
8.84167e-05
0.000112881
0.00014383
0.000124753
9.4948e-05
5.93245e-05
0.000112944
0.000152354
8.95778e-05
9.6713e-05
0.000222787
8.55618e-05
0.000121425
5.83704e-05
0.000112924
7.79408e-05
0.00011715
0.000168803
0.000113999
0.00013231
0.000101446
0.000106176
0.000151285
9.59755e-05
0.000102074
0.000144189
0.000133353
0.000118791
0.000101532
0.000106133
0.000174975
9.72076e-05
0.000148468
0.000140056
0.000142454
7.92931e-05
0.00013447
7.56583e-05
0.000133134
8.69028e-05
8.90514e-05
0.000148423
9.87859e-05
0.000107236
0.000151279
0.000193174
6.51555e-05
0.000163375
0.000159191
0.000129425
0.000134376
4.7426e-05
0.00012561
0.00018566
6.61651e-05
0.000185555
0.000181698
0.000130875
0.000162647
0.000161935
8.50026e-05
0.00013199
0.000133229
0.000114518
0.00014429
0.000141623
0.000156631
0.000132323
0.000163338
0.000136255
0.0001341
0.000146774
0.000103445
9.2292e-05
0.000120247
9.57335e-05
0.000139913
9.48674e-05
0.000115402
9.19861e-05
0.000151022
0.000178954
0.000165616
0.000207716
0.00010902
0.000144897
9.05395e-05
0.000210109
0.000154717
0.000216314
0.000136351
0.000163885
0.000110301
0.000240703
0.000126563
0.000130248
0.000119665
5.74965e-05
6.25637e-05
0.000135947
9.09328e-05
0.000109898
0.000159484
0.000101651
0.000183715
9.4941e-05
0.000159602
0.000201361
0.000183691
9.32889e-05
4.79851e-05
9.45793e-05
0.000139408
0.000163392
6.51375e-05
0.000105776
0.000202388
0.000212347
9.57143e-05
0.000132972
7.35083e-05
0.000137193
0.00012362
6.00939e-05
)
;
    }
    procBoundary3to1
    {
        type            processor;
        value           nonuniform List<scalar> 
48
(
0.0105469
0.00507571
0.0067852
0.0102313
0.00381734
0.00403874
0.00507571
0.00300492
0.00821231
0.00106682
0.00106682
0.00118206
0.00118206
0.00492557
0.00442298
0.00128267
0.00158935
0.00130044
0.00158935
0.00178257
0.00434662
0.00429445
0.00178257
0.00283496
0.00113276
0.00142306
0.00357958
0.00429445
0.00328525
0.00139766
0.00139766
0.00308121
0.00308121
0.00821231
0.0015815
0.00319651
0.00348288
0.00113276
0.0101518
0.00326947
0.00492557
0.00438084
0.00561177
0.00178257
0.00390742
0.00111807
0.00377824
0.00463385
)
;
    }
    procBoundary3to2
    {
        type            processor;
        value           nonuniform List<scalar> 
29
(
0.00311595
0.00311595
0.00050949
0.000600088
0.000635035
0.00094346
0.000841478
0.00201458
0.0018699
0.00171679
0.00180108
0.0016363
0.00197706
0.00293822
0.00267653
0.00242366
0.00122977
0.00150848
0.00260497
0.00341118
0.00304544
0.00122977
0.000481594
0.00150848
0.00210155
0.00109382
0.00150848
0.0027277
0.0027277
)
;
    }
}


// ************************************************************************* //
