/*--------------------------------*- C++ -*----------------------------------*\
| =========                 |                                                 |
| \\      /  F ield         | OpenFOAM: The Open Source CFD Toolbox           |
|  \\    /   O peration     | Version:  v1912                                 |
|   \\  /    A nd           | Website:  www.openfoam.com                      |
|    \\/     M anipulation  |                                                 |
\*---------------------------------------------------------------------------*/
FoamFile
{
    version     2.0;
    format      ascii;
    class       volScalarField;
    location    "0.23";
    object      epsilon;
}
// * * * * * * * * * * * * * * * * * * * * * * * * * * * * * * * * * * * * * //

dimensions      [0 2 -3 0 0 0 0];


internalField   nonuniform List<scalar> 
1466
(
0.828369
1.91875
0.585111
1.28689
1.80372
37.6336
3.8174
1.28478
9.24588
5.70851
0.86454
3.97841
0.108312
1.52141
0.724339
2.76849
0.247444
1.55077
2.30995
1.41221
0.302609
2.63803
8.00227
1.34728
1.4197
0.480682
0.975324
3.5251
4.51716
1.82841
1.181
40.7115
4.52966
1.10441
1.45432
0.562037
0.412567
0.215054
11.6825
3.63076
4.04198
0.909781
9.26292
1.09266
6.49787
4.73246
0.210263
2.0674
0.690547
0.252308
0.601534
6.40596
2.03061
43.0978
3.83989
2.36703
0.384131
1.73616
0.231522
2.24696
2.63085
1.48322
1.4758
50.9442
2.14821
1.55215
2.37863
0.368044
0.921174
3.16367
0.173063
1.09812
0.212437
1.15679
0.275619
13.4529
1.22132
1.24858
4.23175
2.01398
0.255538
1.31545
0.536142
0.526305
0.170708
0.195771
0.161928
2.8046
0.998545
1.37449
1.22342
0.340025
1.73513
1.10452
0.540899
0.246881
1.38139
0.504797
1.26034
1.36622
3.50459
4.56327
0.55627
2.01424
0.337985
7.69109
0.437779
0.45964
0.917204
1.26279
0.169225
0.313847
3.70812
0.192491
0.151675
5.34544
1.76229
1.57588
1.34581
2.87611
0.356818
0.939951
0.800928
2.74337
1.02914
0.685996
0.732254
1.75831
1.66153
6.96805
0.28681
1.27367
1.07665
2.53049
0.245307
1.75912
1.29675
0.156478
6.38995
1.8938
4.84517
0.379153
1.41945
1.36121
6.55431
1.88519
2.88335
1.53517
1.82178
0.187522
1.33808
1.16121
1.37842
1.45541
1.13306
0.397775
1.07004
6.55092
0.222308
1.43367
5.21735
1.55134
2.87932
0.293356
3.74103
1.58696
7.47182
1.91071
1.52464
2.35534
0.195216
0.182697
1.04531
1.27175
0.881895
1.80611
3.00535
1.96333
0.861446
1.82002
1.06743
0.329806
0.358836
1.21236
2.33301
1.52734
0.442307
6.61772
0.520278
1.92745
4.11353
2.48453
1.5236
2.40871
0.277179
1.12012
6.13188
1.22028
0.971996
1.1196
4.33063
0.184325
0.392607
1.48484
1.50724
1.29781
0.386416
1.91565
0.63975
1.30525
1.39186
6.35244
0.179425
0.165221
1.3065
0.486797
0.450177
0.435581
1.50987
1.02089
17.2774
0.924844
1.61966
0.192939
0.998402
0.185748
1.13671
2.27584
0.518488
8.41073
0.157258
2.93893
1.10305
0.182889
0.62226
1.64135
0.183283
1.47411
0.198825
1.50661
8.78849
0.224375
0.308382
1.68244
2.34483
0.598697
0.380923
0.429588
0.505053
0.565056
1.19241
3.29394
0.85885
2.42746
1.03494
2.73185
0.845007
7.35713
3.29439
14.7853
0.162354
0.170656
3.33174
1.31594
20.562
0.734462
8.64409
1.67777
0.215757
1.04873
2.46194
1.00382
0.155555
0.82148
0.176554
0.272439
2.30154
1.18815
1.64133
1.79419
1.46284
0.571995
0.492023
0.500116
0.464091
0.154373
0.467556
0.277063
15.949
1.69644
0.175186
7.01122
1.34002
15.1384
0.74
0.184316
7.73237
2.71295
0.205587
1.1508
0.248909
6.17352
1.12166
1.10208
1.06005
0.635291
0.415472
0.241377
0.454541
2.01814
7.60773
0.427548
0.18048
2.39355
0.508224
0.214726
2.51893
0.515615
4.62229
0.846944
0.202317
1.56517
0.365694
1.70035
1.01336
0.677354
0.223746
0.356859
0.260255
0.509132
0.302721
1.31566
0.215212
0.977362
0.827121
1.68065
0.238077
0.827332
10.3987
0.22984
0.395834
0.758923
0.617897
0.326306
0.556902
0.190678
5.03827
0.301352
0.273874
11.9556
1.27481
0.160125
1.85041
0.24017
0.225128
0.18545
5.09439
2.61032
2.65647
0.262302
14.7382
1.93451
1.33646
1.03854
3.27021
0.497658
0.25465
0.222409
0.468552
1.91336
0.16066
0.247912
6.77621
1.58552
1.03483
0.554674
0.659328
3.25522
0.160173
0.274055
0.154846
1.60647
1.70407
0.312699
1.14753
0.572074
0.230718
0.213461
0.171162
0.336231
0.383377
6.38161
0.9205
3.66858
0.779664
0.769808
1.0273
0.281953
0.299227
0.18657
10.8923
0.18457
0.922433
0.158654
5.19403
0.72037
1.6903
3.02948
0.830727
1.11223
0.296096
1.03015
0.291817
3.54554
4.73333
1.17504
1.71973
3.59478
0.322935
0.629961
2.97828
0.293061
2.46155
4.61769
2.96744
3.9026
6.25204
3.72224
4.10224
4.35324
1.13906
0.293504
2.04112
6.2453
3.84381
3.85235
4.96173
1.15656
7.26776
11.1999
26.5909
0.249779
9.86278
3.62568
10.1941
5.41223
9.76846
7.37542
2.78221
4.14875
2.51323
5.62803
2.06406
2.3702
5.33865
5.2147
7.19707
6.04331
2.09999
4.28176
5.89283
2.08969
2.225
3.32571
11.1192
16.6903
4.29462
0.43632
1.64576
0.717075
6.20874
5.31181
3.53186
3.40493
33.7683
1.82961
1.02781
0.842762
1.35129
18.7528
2.07974
0.626922
26.3758
0.879343
1.14565
1.91047
0.834203
0.500638
20.8219
4.50136
1.3464
1.04829
0.853324
0.291744
3.09178
1.93313
14.2425
6.13078
19.9903
23.0357
0.510373
0.696783
3.25438
1.03376
0.19563
0.967979
4.70903
5.3712
5.46816
7.74763
9.26259
2.60354
9.98114
3.84709
1.63574
9.17622
0.428099
0.698219
2.59928
2.80892
2.38593
4.58417
12.3503
4.05344
4.17856
0.440948
11.4816
14.052
0.394097
0.194435
0.702273
1.21517
5.70935
5.46126
2.75195
8.16725
5.17294
6.52208
0.217774
0.353407
7.23665
4.85337
9.52116
5.52579
7.56936
1.34408
0.422474
4.18979
4.47497
0.369924
0.637195
0.38328
5.00999
1.87266
1.48178
7.33492
1.5915
0.291155
1.82384
12.001
0.203397
0.333789
1.71337
4.55477
5.01094
2.00337
0.2256
1.80809
7.13886
3.8317
0.60846
10.0398
6.98473
6.275
1.00015
6.13195
6.50278
0.171694
8.50483
6.95251
0.363557
1.18029
1.41635
1.00594
0.24058
1.8786
5.67179
0.60641
3.3283
7.21551
1.44139
1.67064
4.66055
0.466716
0.321304
0.608809
1.78599
1.39636
4.14361
1.15511
3.01868
0.414146
0.551753
0.39428
0.260647
3.03425
1.57281
0.207818
5.13574
3.99641
1.68982
5.30698
7.29022
4.12687
0.797342
0.179993
4.91728
1.76862
17.7489
0.424967
0.494858
0.26164
12.2552
1.16256
0.51011
4.54636
0.184429
1.50843
0.31702
3.87693
3.86422
4.18847
0.489626
1.53654
1.34326
1.75742
1.11704
4.52928
0.350854
0.499983
0.373533
8.43056
0.446772
11.8944
0.20933
4.34068
0.444228
12.9352
5.85034
0.422697
1.3074
3.40921
1.61966
6.21881
0.37211
4.92381
9.31124
1.08582
0.452917
0.462841
2.74788
4.23595
5.83282
8.4683
8.22906
4.36495
5.05822
0.171206
3.8897
0.697088
0.467363
0.873725
0.163509
0.411421
1.18331
1.68197
7.59607
4.12547
0.464196
0.515558
0.459523
0.45764
0.256415
0.413654
0.351905
0.176325
2.65086
0.177134
0.388259
3.89538
1.12879
0.487225
8.38133
0.260764
6.31223
0.650017
2.39872
0.161651
0.396661
1.67696
9.10365
0.398222
1.73783
6.56557
1.04038
0.912347
1.97703
3.28456
8.18887
0.365287
0.455245
0.554537
5.47551
0.396604
0.494612
1.41023
2.22646
3.53694
0.539443
1.42459
1.16001
1.99124
0.738741
1.74039
5.37712
0.168895
1.26647
1.62676
15.5823
5.91608
6.93655
1.36988
0.533238
0.272164
0.250957
6.6251
0.298836
0.225759
1.70123
2.0418
1.33576
0.340836
0.25959
1.40924
3.5621
0.226035
1.3655
0.469799
18.8209
3.53095
0.49726
2.51422
0.376145
1.05905
1.70853
1.24433
2.35399
7.38097
0.902135
0.735453
1.08129
0.808646
0.632201
0.997339
1.01131
7.65081
6.60768
1.67504
0.48577
0.400143
2.02745
14.2645
3.61423
0.229464
1.11677
0.193088
1.43054
2.92804
1.18064
3.52381
8.97735
7.78602
0.223714
1.11755
1.4154
0.363868
0.601584
0.215393
10.265
2.15169
1.33287
0.705411
0.594156
1.2866
2.92609
7.17608
4.69509
0.17719
2.45553
1.20537
3.26932
1.15792
0.725135
0.441569
0.757505
0.362337
11.1571
0.302359
0.513069
3.02971
4.00631
0.473801
0.433698
12.7557
1.54779
4.8454
0.887211
0.415792
1.76807
7.27557
6.31876
0.481842
2.3499
1.89188
0.675275
0.830776
1.00212
0.16429
0.181944
0.76075
0.559745
0.592244
0.513945
0.306293
0.751111
0.994926
4.28776
0.988229
1.26458
16.4127
0.187729
0.172638
4.74199
6.9323
0.169583
2.16639
2.60765
2.89115
4.5353
2.06256
6.87272
0.575344
1.41626
9.31087
0.280219
0.27118
0.938392
0.271597
0.985552
0.731422
7.92525
0.179445
4.58179
1.58238
0.636031
0.48395
0.87414
0.50381
1.33242
0.547063
0.771992
0.354268
14.5071
1.06477
0.387742
0.184823
1.18682
3.139
5.56095
3.20248
1.29278
0.515707
1.21681
0.437939
0.84559
0.45265
1.46745
4.45051
3.46111
1.461
0.247835
0.197276
0.511067
1.22715
0.825385
7.31349
0.228908
0.340677
5.28131
2.75521
0.891972
0.880392
0.444955
2.34414
1.53974
0.207987
0.221555
0.510306
3.26084
0.452576
1.97961
0.179662
6.80902
1.20704
0.754534
0.764107
5.18146
1.06567
3.24709
1.47837
2.02711
1.05031
8.38044
6.31833
7.89589
1.48744
0.421475
0.21505
0.730137
1.62248
1.10173
2.49437
0.323999
5.36435
0.374168
6.67214
0.256745
4.50231
0.502441
0.778341
0.780538
1.04853
0.858752
2.32377
2.7915
2.07876
2.05325
0.919372
2.12294
2.10273
1.01563
1.03266
1.01095
0.884945
0.962898
0.884273
3.96636
0.445707
3.87878
0.328642
1.99346
3.02914
0.840561
2.28586
0.860667
0.478945
9.45029
0.990282
0.647697
0.460675
1.70636
1.04253
1.39635
0.296661
2.12704
1.67111
0.692649
0.519927
1.87931
2.11059
10.6382
6.1329
4.04012
7.11252
0.367235
0.53035
13.5977
2.79937
0.73925
2.48257
1.13347
3.09015
1.71635
1.80637
13.3764
0.188418
1.55575
2.67881
7.12186
6.14196
1.73466
1.75417
2.41817
0.453631
4.28284
1.77886
1.87309
5.28276
2.01865
2.16682
0.489678
1.59719
1.48929
0.872283
0.158595
5.5919
0.739852
0.454691
0.172564
6.84873
0.336847
1.17832
4.25267
7.4528
1.31671
5.65903
3.64812
0.735584
2.44777
23.6698
0.307548
0.422546
6.16824
5.55637
2.31943
5.7278
5.89941
0.30925
0.182679
3.00509
6.96064
0.299211
0.423023
2.19547
0.425103
1.13044
1.29753
0.172984
2.0704
0.753535
0.67471
0.505742
0.175463
6.29911
0.526703
0.742437
3.29947
0.190383
0.215851
15.0666
6.33433
1.33547
0.491933
0.611201
0.677
2.46579
0.521299
4.48759
4.13242
5.46755
0.161146
8.10385
0.901075
1.7737
4.95325
0.222198
5.88704
1.25327
0.437424
4.80884
6.30269
1.12246
4.97581
13.1386
0.59398
5.68289
6.58386
4.97824
0.432362
0.473925
9.43484
1.93305
0.198897
5.15423
2.97755
1.48355
3.88741
0.554886
3.04169
0.257562
1.36977
6.82254
0.180859
7.80949
0.172378
0.180474
0.440345
3.64251
4.51302
1.61919
0.582372
1.26831
0.163117
0.908711
9.36278
1.43482
1.98188
2.99939
0.472915
4.87222
0.295687
0.459254
2.44024
0.475105
0.444132
0.208851
6.98366
0.186551
8.03285
5.58447
0.162405
6.4162
0.155539
3.89937
0.182849
5.74138
1.57947
1.46194
2.20685
0.198506
1.59855
0.32557
0.246932
0.181092
0.457262
1.33781
0.295475
1.2049
1.63963
0.213015
0.815254
2.24259
0.327326
1.86559
1.61202
2.44077
2.01924
0.162785
9.59924
0.673736
0.464102
6.4811
8.54252
7.96373
1.84459
1.16192
2.20794
2.7081
0.512226
0.168981
1.57851
0.577459
7.19244
0.575479
1.56697
1.09144
32.9201
0.964185
2.50124
3.07514
0.229153
2.74526
0.971976
2.46979
1.29285
0.540169
1.4353
1.51458
6.96657
1.35133
0.895173
0.158863
1.97138
1.4006
0.396895
2.69572
7.4657
5.81136
0.352001
5.10591
0.157916
0.265427
4.75435
0.167925
1.05303
1.72608
0.239666
3.13582
0.20234
5.75025
0.22373
0.281558
0.175304
0.934386
4.86291
0.440992
1.55362
2.91905
1.64813
3.10026
5.67445
2.01419
1.2371
0.162426
0.188319
1.25016
1.53768
2.30884
6.96526
1.31092
0.424936
3.40668
0.237859
1.14916
1.51318
2.13468
0.550828
1.06862
1.50221
0.870172
6.78308
1.12165
5.19877
2.94946
5.74776
3.05623
0.640685
0.833859
0.531796
0.169618
5.24402
5.30058
0.388739
5.02561
2.69235
2.13169
0.174618
6.76775
2.15207
0.304594
3.37729
0.16266
0.374227
1.64208
2.49404
1.82388
0.471097
2.94386
3.96726
1.56756
0.267785
6.50435
16.6143
0.202805
1.92082
6.45714
7.74716
0.18988
0.269591
1.22118
0.451687
5.98702
7.43735
5.1851
0.900426
0.568755
2.04992
1.3083
0.859967
0.747507
5.4775
2.05618
6.99463
0.836672
6.08125
6.13865
2.02659
0.187881
2.31957
1.72769
7.00077
4.49885
0.313743
1.47453
0.228243
3.02111
0.539629
5.77262
0.365911
0.374404
5.03273
2.26175
1.29673
1.50452
0.156348
1.95112
0.585143
6.10655
0.170079
6.49648
0.18445
3.79395
3.33085
0.601317
2.89744
2.25636
0.627106
2.81459
0.20446
8.9344
1.17569
5.79501
0.409732
4.34506
4.76268
0.40823
0.240945
0.910256
0.572965
1.14048
1.03888
2.94349
1.55888
0.969104
0.428468
0.537542
0.165268
0.221693
0.885842
0.597732
2.93996
2.36134
6.09037
0.957588
0.442539
5.99457
1.82398
8.57109
0.173782
0.4465
0.563091
4.02588
1.43532
0.677202
0.168192
1.09102
0.39004
1.38507
2.77786
0.223041
0.226797
2.88138
0.595892
2.51487
0.374474
0.257459
1.38303
3.90053
0.946253
0.627723
0.270094
1.01523
1.27319
0.173773
7.34297
2.4297
1.55964
4.05504
0.162047
2.02137
0.721258
1.97273
0.682422
3.4948
0.169752
0.204171
0.935102
1.22482
2.13938
0.172033
5.19557
5.72366
6.02986
0.550594
3.30469
2.68767
0.214214
3.94734
1.5276
0.780372
2.56892
1.32042
0.893306
0.176218
1.81606
2.16296
0.167033
1.97908
2.38327
6.96777
42.319
0.935285
1.31888
1.15348
0.888148
3.28532
4.57986
2.20451
0.597068
0.696981
1.68915
0.830996
0.417958
2.19606
2.60791
0.890858
2.33476
1.87583
0.731579
2.43038
1.52247
5.33412
1.47537
2.36507
2.48841
0.753558
1.052
3.51929
0.925747
0.174117
7.69326
0.248125
2.20267
7.40764
8.41318
1.31353
1.01981
8.52022
0.778055
7.46416
1.19883
1.65643
6.40014
3.74322
2.80403
3.18431
)
;

boundaryField
{
    frontAndBack
    {
        type            empty;
    }
    wallOuter
    {
        lowReCorrection 0;
        type            epsilonWallFunction;
        value           nonuniform List<scalar> 
102
(
0.108312
0.108312
8.00227
0.275619
0.151675
0.454541
0.779664
0.256415
0.272164
0.250957
0.298836
0.225759
0.340836
0.25959
1.40924
3.5621
1.3655
2.51422
1.08129
1.67504
0.229464
0.223714
1.11755
1.20537
3.26932
0.675275
0.830776
0.280219
0.731422
1.20704
0.764107
0.778341
0.780538
1.04853
0.858752
2.32377
2.7915
2.07876
2.05325
0.919372
2.12294
2.10273
1.01563
1.03266
1.01095
0.962898
0.884273
0.328642
1.99346
1.70636
1.39635
1.67111
1.87931
1.71635
1.80637
1.55575
1.73466
1.75417
1.59719
1.48929
5.55637
0.30925
0.299211
0.172984
0.526703
0.611201
8.10385
1.12246
4.97581
1.48355
1.36977
6.82254
0.440345
3.64251
1.61919
1.43482
0.295687
0.444132
8.03285
1.46194
1.59855
0.295475
1.61202
2.01924
7.96373
1.57851
1.56697
1.29285
1.4006
1.53768
3.96726
1.56756
0.187881
0.313743
0.365911
1.50452
0.40823
1.55888
0.537542
0.223041
0.374474
1.38303
)
;
    }
    inlet
    {
        type            fixedValue;
        value           nonuniform 0();
    }
    outlet
    {
        type            zeroGradient;
    }
    wallInner
    {
        lowReCorrection 0;
        type            epsilonWallFunction;
        value           nonuniform List<scalar> 
138
(
0.86454
0.247444
4.51716
1.82841
6.40596
2.03061
43.0978
3.83989
1.48322
0.340025
3.50459
2.01424
0.800928
4.84517
0.379153
1.88519
2.88335
1.91071
1.92745
4.11353
2.48453
0.435581
0.308382
0.598697
0.380923
0.429588
0.505053
0.565056
20.562
0.571995
0.492023
0.277063
1.70035
1.01336
0.677354
0.223746
0.356859
0.260255
0.509132
0.302721
1.31566
0.215212
0.977362
0.827121
1.68065
0.238077
0.827332
10.3987
0.22984
0.395834
0.758923
0.617897
0.326306
0.556902
0.190678
5.03827
0.301352
2.61032
1.03854
3.27021
0.497658
0.25465
0.222409
0.468552
1.91336
0.16066
0.247912
6.77621
1.58552
1.03483
0.554674
0.659328
0.274055
0.18657
10.8923
0.291817
3.54554
0.293061
3.84381
26.5909
2.09999
16.6903
0.717075
1.02781
0.842762
3.09178
19.9903
23.0357
3.25438
4.05344
4.17856
0.394097
0.422474
6.50278
1.44139
1.67064
12.2552
1.53654
8.4683
1.18331
1.68197
0.388259
0.554537
1.70123
1.33576
3.61423
2.15169
0.362337
0.473801
0.415792
0.306293
16.4127
0.187729
0.271597
0.354268
0.207987
0.374168
0.445707
0.478945
2.16682
4.25267
7.4528
2.31943
4.80884
2.97755
0.459254
0.213015
2.24259
2.20794
0.229153
3.10026
3.94734
7.46416
1.19883
6.40014
3.74322
2.80403
3.18431
)
;
    }
    procBoundary2to0
    {
        type            processor;
        value           nonuniform List<scalar> 
42
(
1.7114
1.7114
4.6233
3.57469
4.12604
2.11074
4.04003
4.04003
1.23634
1.23051
6.09612
6.09612
5.77323
5.56561
4.51099
3.0914
2.51936
1.5715
0.927459
35.3001
28.8709
1.52093
1.52093
15.4977
28.8709
0.635587
10.4396
0.332586
10.4396
1.69968
2.28751
0.3087
0.346938
0.375146
0.465905
3.57469
2.51936
4.48766
4.83889
2.52265
2.52265
0.779668
)
;
    }
    procBoundary2to1
    {
        type            processor;
        value           uniform 39.5563;
    }
    procBoundary2to3
    {
        type            processor;
        value           nonuniform List<scalar> 
29
(
1.32024
1.32531
6.17856
4.2688
55.4445
1.40083
8.65978
1.13192
6.43976
5.16213
1.30531
51.2557
1.8043
8.70804
5.26111
18.0538
9.24158
9.24158
1.32531
8.70804
4.34789
7.25479
8.05925
8.25622
5.29305
6.0446
6.43976
43.4353
51.2557
)
;
    }
}


// ************************************************************************* //
