/*--------------------------------*- C++ -*----------------------------------*\
| =========                 |                                                 |
| \\      /  F ield         | OpenFOAM: The Open Source CFD Toolbox           |
|  \\    /   O peration     | Version:  v1912                                 |
|   \\  /    A nd           | Website:  www.openfoam.com                      |
|    \\/     M anipulation  |                                                 |
\*---------------------------------------------------------------------------*/
FoamFile
{
    version     2.0;
    format      ascii;
    class       volScalarField;
    location    "0.23";
    object      k;
}
// * * * * * * * * * * * * * * * * * * * * * * * * * * * * * * * * * * * * * //

dimensions      [0 2 -2 0 0 0 0];


internalField   nonuniform List<scalar> 
1466
(
0.0756056
0.1159
0.065145
0.099386
0.121939
0.831282
0.197907
0.121507
0.589494
0.253896
0.0566618
0.272564
0.01137
0.0993532
0.0732362
0.166364
0.0179784
0.122273
0.186463
0.100663
0.0537081
0.16122
0.217254
0.100278
0.0976751
0.063562
0.104568
0.307885
0.176071
0.0980712
0.120884
0.967767
0.263355
0.0904242
0.129256
0.0588579
0.0566737
0.0355335
0.373676
0.202898
0.2707
0.119756
0.576929
0.114212
0.451624
0.301871
0.0391039
0.110508
0.0983152
0.0484447
0.067963
0.231109
0.104817
0.81653
0.163959
0.238353
0.0379173
0.17904
0.0396997
0.230502
0.153244
0.0885815
0.108113
1.08406
0.138255
0.114535
0.237129
0.0597693
0.0833317
0.173548
0.0355139
0.0917281
0.0316293
0.096178
0.0210028
0.532321
0.0986876
0.102899
0.223118
0.213479
0.0339209
0.0963169
0.0626198
0.0810469
0.0311284
0.0418341
0.0305545
0.188222
0.0884814
0.118428
0.0952382
0.0301133
0.191014
0.0881956
0.0699814
0.0452936
0.109715
0.0718608
0.105953
0.0999472
0.161943
0.370394
0.0744775
0.10306
0.0480572
0.474716
0.0650783
0.0574603
0.0900926
0.095867
0.0288908
0.0436325
0.199326
0.0351144
0.0150434
0.367047
0.086161
0.0944923
0.114859
0.248228
0.0574334
0.0953098
0.0548515
0.19337
0.0917818
0.0971347
0.0756067
0.0914316
0.185381
0.401428
0.0540203
0.0999309
0.102142
0.241734
0.0477804
0.193176
0.15395
0.0320316
0.453127
0.0927269
0.197086
0.0319336
0.164004
0.152053
0.459937
0.0882814
0.121657
0.100383
0.190237
0.0310649
0.158273
0.102349
0.120487
0.119718
0.0939383
0.0589089
0.0920268
0.408953
0.0442526
0.104119
0.404784
0.110626
0.158859
0.050691
0.324949
0.178131
0.462169
0.0852754
0.116662
0.174813
0.0390789
0.0401328
0.0940834
0.146296
0.0960817
0.134573
0.280139
0.209897
0.0805529
0.198776
0.101902
0.0501738
0.0618174
0.100308
0.165528
0.0946063
0.0572057
0.347654
0.0583545
0.0913414
0.136619
0.0946299
0.112044
0.147348
0.0456289
0.0938338
0.440055
0.0981684
0.079932
0.0842849
0.255388
0.0403592
0.0524642
0.114059
0.119107
0.152881
0.0541905
0.142078
0.0621314
0.10055
0.113425
0.370421
0.0400179
0.0361054
0.11063
0.0584689
0.0683162
0.0336973
0.101384
0.0895349
0.562722
0.0950136
0.120308
0.0381057
0.12167
0.0388318
0.0818459
0.154503
0.0691991
0.528875
0.0348032
0.196949
0.0913146
0.0389939
0.0677103
0.122706
0.0403856
0.10758
0.0428449
0.106387
0.560325
0.0453415
0.0290524
0.186126
0.23523
0.0420637
0.0355123
0.0343268
0.0372874
0.0406907
0.0934185
0.241614
0.113403
0.180967
0.0897576
0.213074
0.0704129
0.448166
0.192703
0.606704
0.0364039
0.035476
0.24547
0.104674
0.545889
0.073564
0.549652
0.133305
0.0430404
0.0902242
0.178646
0.0995092
0.0347519
0.068662
0.0348302
0.0510937
0.178688
0.100029
0.0951265
0.193611
0.111509
0.0406559
0.0374121
0.0581172
0.065631
0.0321557
0.0747032
0.029227
0.558743
0.0979755
0.0383975
0.46169
0.15254
0.541116
0.101386
0.041659
0.370015
0.21605
0.0446555
0.0773661
0.0299013
0.370773
0.0918517
0.133701
0.0958448
0.0765877
0.0593142
0.0484328
0.0292692
0.137847
0.494469
0.0624559
0.0405036
0.203995
0.0785339
0.0411335
0.177247
0.0557553
0.338148
0.0827137
0.0414767
0.176219
0.0617043
0.0804525
0.0565952
0.0471506
0.0227098
0.0322475
0.0261085
0.0433667
0.0255405
0.0685302
0.0228587
0.0652567
0.0487622
0.0788611
0.0192611
0.0638386
0.23889
0.0247909
0.0381067
0.0559704
0.0429992
0.0285409
0.0470719
0.0219189
0.178864
0.0274499
0.0381808
0.493372
0.150581
0.036619
0.198197
0.0475926
0.0458031
0.0391524
0.300651
0.117606
0.145264
0.0515165
0.525285
0.206039
0.155956
0.0692717
0.127506
0.0451206
0.0242414
0.0236848
0.0422154
0.109528
0.0193311
0.023874
0.215804
0.0755941
0.056862
0.0371414
0.0451053
0.243132
0.0336989
0.023979
0.0320232
0.152047
0.18293
0.0527733
0.118596
0.0841269
0.0297683
0.0438943
0.0388571
0.0480281
0.0599458
0.398885
0.112702
0.317378
0.0418114
0.0689583
0.125492
0.0392202
0.0447618
0.0178671
0.271169
0.0390311
0.110489
0.0365427
0.283272
0.082931
0.181371
0.156134
0.0760879
0.0803468
0.0518253
0.107381
0.0241027
0.130845
0.394149
0.14218
0.179918
0.254315
0.0544878
0.0908993
0.233135
0.0283671
0.160005
0.26985
0.17696
0.208871
0.354406
0.22563
0.241969
0.22179
0.0998056
0.0495915
0.208758
0.410142
0.157094
0.307697
0.394117
0.118852
0.405818
0.49829
0.49536
0.0388166
0.513852
0.279547
0.482964
0.399755
0.453069
0.405725
0.239976
0.280657
0.213274
0.417563
0.187297
0.206468
0.3966
0.334149
0.405537
0.407964
0.0912731
0.294463
0.404322
0.209177
0.207579
0.253974
0.522718
0.38167
0.338343
0.0602219
0.119169
0.0435065
0.414633
0.34634
0.269963
0.255354
0.860096
0.1675
0.0573876
0.0501396
0.130434
0.538833
0.132371
0.0724267
0.703709
0.0896029
0.121446
0.11911
0.081453
0.0585546
0.590962
0.318824
0.126873
0.0807553
0.0840622
0.0459002
0.140692
0.165324
0.436955
0.407411
0.423538
0.461065
0.0523658
0.0715026
0.132175
0.108386
0.0391902
0.112539
0.299911
0.337473
0.324862
0.414092
0.44285
0.201657
0.468381
0.285138
0.162287
0.451178
0.0507873
0.0753242
0.224208
0.24063
0.221954
0.385775
0.497348
0.161262
0.144678
0.062112
0.506234
0.511523
0.0343732
0.0411899
0.0881005
0.143707
0.343403
0.328995
0.240948
0.439143
0.392744
0.425068
0.0445169
0.0494107
0.432155
0.383772
0.445064
0.396318
0.40442
0.139792
0.0341295
0.35867
0.375969
0.0462548
0.0713085
0.0467748
0.380308
0.19959
0.167796
0.413095
0.129943
0.0466814
0.182261
0.510981
0.0400179
0.045026
0.187809
0.377869
0.295525
0.211648
0.0436729
0.131986
0.387165
0.324626
0.0487104
0.409041
0.379131
0.443298
0.0948701
0.350437
0.254636
0.0376666
0.429977
0.379303
0.0519115
0.0959617
0.149997
0.121106
0.0407512
0.164837
0.367608
0.0757058
0.280665
0.449816
0.0759392
0.0833464
0.336512
0.0675376
0.0459239
0.0721069
0.192485
0.163375
0.355535
0.135876
0.256068
0.0492724
0.0714732
0.0634413
0.043026
0.199512
0.157982
0.043436
0.414555
0.299839
0.188419
0.318967
0.460668
0.207207
0.0730192
0.0396197
0.404768
0.119432
0.558741
0.0613842
0.0698529
0.0464746
0.318172
0.14002
0.070657
0.289413
0.0378288
0.119928
0.0512535
0.32364
0.276429
0.344358
0.0674882
0.0760566
0.156161
0.19282
0.135358
0.369937
0.0478827
0.0691347
0.0550297
0.443096
0.04076
0.51118
0.041644
0.354266
0.0646588
0.511417
0.428396
0.0570252
0.108847
0.290715
0.179515
0.404632
0.0652226
0.324851
0.578653
0.112048
0.0565611
0.0637383
0.167937
0.360372
0.423222
0.303452
0.524112
0.349784
0.329509
0.0374083
0.329834
0.0957954
0.054522
0.0882504
0.0257966
0.0642841
0.0643275
0.0815961
0.456972
0.346876
0.0682492
0.0706852
0.0661867
0.0675693
0.0218948
0.0641267
0.0623973
0.0376552
0.197869
0.0394128
0.0323353
0.21873
0.093377
0.053161
0.418609
0.0478099
0.406007
0.0604682
0.23971
0.0368591
0.0633791
0.183956
0.444312
0.0645142
0.189448
0.412561
0.12987
0.0938607
0.206127
0.283809
0.417713
0.0516583
0.0679356
0.0401943
0.391946
0.0508041
0.0704287
0.1032
0.227839
0.284611
0.0546823
0.127019
0.126936
0.188411
0.0834308
0.190399
0.430362
0.0380707
0.137983
0.117142
0.550501
0.437709
0.424775
0.122279
0.0773714
0.020983
0.0206448
0.466554
0.0219156
0.0207814
0.0979824
0.184561
0.0722425
0.0237319
0.0210006
0.058711
0.11425
0.0448095
0.0557244
0.0717301
0.45461
0.313888
0.068597
0.0913718
0.048033
0.13107
0.185571
0.102992
0.146845
0.469791
0.0934165
0.0649046
0.0512978
0.0914456
0.0844753
0.104415
0.0910212
0.484371
0.255266
0.0692549
0.0703318
0.0602684
0.157088
0.429644
0.146405
0.0230081
0.133913
0.038228
0.115244
0.276574
0.102546
0.267687
0.305349
0.431106
0.018331
0.052284
0.162326
0.0630441
0.0794891
0.0414395
0.301096
0.0888877
0.101906
0.077136
0.0795375
0.0998913
0.177322
0.454913
0.209734
0.0358543
0.162905
0.0636607
0.130008
0.132853
0.0879853
0.0638793
0.0867495
0.0306811
0.482697
0.0410519
0.0725742
0.217583
0.174185
0.0367979
0.0646135
0.516323
0.118375
0.339569
0.0817277
0.0339995
0.1301
0.478825
0.234348
0.0688023
0.19288
0.199825
0.0367398
0.0426552
0.0861702
0.0375988
0.0324292
0.0681354
0.056577
0.0862285
0.068941
0.0308117
0.0926255
0.0888265
0.239807
0.120278
0.084584
0.388654
0.0196052
0.0341033
0.334526
0.407337
0.02539
0.216176
0.255263
0.273674
0.294819
0.211084
0.414208
0.075481
0.160048
0.447149
0.02086
0.0482358
0.120382
0.0254278
0.0855721
0.0395686
0.510805
0.0255231
0.314551
0.125121
0.0771444
0.0549272
0.079257
0.0697384
0.136489
0.0637895
0.0949971
0.0281438
0.545033
0.109298
0.0557941
0.0405195
0.0943743
0.200476
0.214796
0.235113
0.0995439
0.0688287
0.0904943
0.066997
0.0757262
0.0574203
0.118388
0.278721
0.245537
0.125205
0.0455477
0.0418956
0.0532252
0.0833295
0.0946448
0.434942
0.0437968
0.0555266
0.275844
0.241974
0.091762
0.0979489
0.0613014
0.220243
0.144361
0.0186532
0.0445365
0.0576723
0.293676
0.0704925
0.137196
0.0318591
0.42795
0.0524474
0.0967783
0.0401262
0.249295
0.0908948
0.199191
0.118712
0.161606
0.0909465
0.422682
0.39275
0.422917
0.114189
0.0598574
0.045177
0.0968201
0.138846
0.0921434
0.179332
0.0586371
0.325788
0.0307516
0.471914
0.047938
0.307732
0.0659714
0.0410472
0.0402407
0.0444877
0.0414293
0.0833265
0.0886394
0.0778635
0.0736872
0.0462414
0.0721092
0.0733007
0.0497842
0.0503248
0.0492374
0.0902427
0.046896
0.0440315
0.272448
0.0358927
0.282425
0.0228555
0.0739428
0.242267
0.112398
0.156486
0.0767517
0.0378742
0.444967
0.0844244
0.065709
0.0571457
0.0706513
0.118542
0.0666813
0.0416706
0.211422
0.0699662
0.0754954
0.0540339
0.0738058
0.146951
0.468777
0.418102
0.179381
0.471664
0.0570674
0.0651882
0.457242
0.143632
0.0658807
0.230501
0.09895
0.137592
0.0713156
0.0733552
0.538483
0.0356626
0.0653303
0.221907
0.400854
0.417161
0.0719518
0.072591
0.156157
0.0597357
0.333804
0.113294
0.134533
0.308338
0.135189
0.093787
0.0675593
0.0674043
0.0745307
0.116001
0.0325476
0.402083
0.0716227
0.0495745
0.0357351
0.423089
0.0431497
0.0908123
0.130485
0.224193
0.122357
0.427043
0.223992
0.101767
0.139733
0.633208
0.0525441
0.0667401
0.445336
0.173868
0.0837726
0.374422
0.349404
0.0227088
0.039523
0.233982
0.251243
0.0216416
0.0550019
0.147351
0.0701858
0.117768
0.104075
0.0162452
0.174509
0.0707562
0.0580033
0.0484097
0.0399316
0.41962
0.0318641
0.103367
0.268555
0.0414741
0.0269383
0.53255
0.420852
0.102778
0.0627497
0.0350593
0.0658222
0.139285
0.0444555
0.307442
0.333609
0.379145
0.0330685
0.229514
0.0747936
0.105461
0.294769
0.0300908
0.438554
0.0983845
0.0677245
0.150534
0.355572
0.0576247
0.155078
0.515643
0.0785566
0.39067
0.418746
0.341925
0.0649816
0.0529783
0.355275
0.149252
0.0312609
0.404806
0.105827
0.0700399
0.23023
0.0715556
0.193177
0.0474714
0.0729527
0.189834
0.0377777
0.407
0.0385868
0.0263418
0.0285073
0.118475
0.348679
0.0692313
0.0773649
0.126686
0.0368439
0.0932829
0.419686
0.0652674
0.105938
0.133352
0.0634974
0.359633
0.0216929
0.0362978
0.200151
0.0683035
0.0276145
0.0283114
0.239068
0.0384377
0.223308
0.307977
0.0288334
0.335763
0.0350547
0.269326
0.0293955
0.296714
0.17487
0.0639141
0.200792
0.0399143
0.0683839
0.0521606
0.0353944
0.0344653
0.0540258
0.134577
0.0222275
0.0949807
0.153343
0.0202935
0.0762979
0.08538
0.0355184
0.131312
0.0646404
0.229099
0.0710758
0.0304593
0.469371
0.0861221
0.0669581
0.375017
0.562631
0.226935
0.172508
0.102161
0.102361
0.160475
0.0683808
0.0297167
0.0617282
0.0805324
0.509685
0.0771565
0.0664237
0.114804
0.81056
0.0916319
0.143604
0.257242
0.0220191
0.25815
0.0980561
0.137837
0.0490213
0.057433
0.158194
0.105712
0.408647
0.107053
0.093579
0.0366867
0.128639
0.0646829
0.050179
0.181594
0.447307
0.348397
0.0447103
0.236688
0.0357692
0.0498563
0.291137
0.0366776
0.0904629
0.145338
0.0321171
0.248438
0.0429545
0.414564
0.0442197
0.0518841
0.0396189
0.0829015
0.375156
0.0516508
0.138319
0.220504
0.137363
0.11921
0.296273
0.141196
0.103522
0.0371688
0.0418384
0.0960033
0.062949
0.189265
0.41458
0.100474
0.0527456
0.185036
0.0335886
0.108451
0.0930101
0.209037
0.0563487
0.0906948
0.0986551
0.06091
0.385821
0.0938132
0.417561
0.244741
0.355937
0.227525
0.0749096
0.0983495
0.062507
0.0356087
0.371246
0.211655
0.0659269
0.349108
0.215582
0.150234
0.0381121
0.399874
0.18928
0.0475922
0.163827
0.0267098
0.0611187
0.181241
0.170856
0.135561
0.0609809
0.182424
0.0976074
0.0504804
0.0276791
0.388583
0.543554
0.025831
0.16051
0.427445
0.516229
0.0329979
0.0405589
0.104427
0.0612626
0.378142
0.234761
0.20328
0.0871127
0.0639574
0.151962
0.121599
0.0781519
0.0808031
0.398538
0.151336
0.452436
0.0692749
0.459633
0.417267
0.165424
0.0169113
0.188993
0.134884
0.396701
0.3179
0.0225894
0.11995
0.0462077
0.178804
0.0786638
0.373079
0.0199266
0.0655209
0.361437
0.122868
0.118891
0.0655996
0.0321788
0.171468
0.0769573
0.354286
0.0356814
0.48322
0.0356636
0.241861
0.191301
0.0649749
0.173487
0.219677
0.0793268
0.168307
0.0348934
0.490082
0.112023
0.449207
0.0477627
0.192788
0.231242
0.0268152
0.0464486
0.0749922
0.0521165
0.0949234
0.0946886
0.176324
0.0615942
0.0738283
0.0452181
0.0316612
0.0372961
0.0429693
0.0817309
0.0564029
0.222285
0.129254
0.390393
0.0728601
0.0442339
0.344625
0.190874
0.450861
0.0391279
0.0735546
0.056201
0.179566
0.0945273
0.0663181
0.027559
0.0902726
0.0606596
0.159858
0.243469
0.0187756
0.0382012
0.195027
0.0641341
0.149004
0.0246065
0.0355928
0.060316
0.263861
0.0889414
0.0773054
0.0338727
0.0874186
0.140651
0.0366572
0.241073
0.156648
0.115917
0.338896
0.037306
0.195426
0.0540969
0.137383
0.0842445
0.230836
0.038254
0.0236323
0.0859308
0.119407
0.152944
0.0265858
0.272203
0.417205
0.451522
0.0591064
0.172581
0.179823
0.0243844
0.159387
0.10808
0.0986269
0.161669
0.101183
0.0897847
0.0394177
0.112265
0.147181
0.0336756
0.154205
0.18072
0.422817
1.00166
0.0850094
0.125306
0.0972626
0.0613903
0.194392
0.226221
0.147472
0.0720107
0.0877819
0.110281
0.0770601
0.0554281
0.118825
0.127954
0.0801625
0.163761
0.0921467
0.0918182
0.159854
0.111659
0.37816
0.111098
0.157144
0.16477
0.0685373
0.0887574
0.281483
0.0850686
0.0350513
0.443281
0.0243549
0.217992
0.516716
0.561208
0.0963384
0.128304
0.562677
0.063214
0.25399
0.0799468
0.115908
0.211618
0.133413
0.142769
0.138774
)
;

boundaryField
{
    frontAndBack
    {
        type            empty;
    }
    wallOuter
    {
        type            kqRWallFunction;
        value           nonuniform List<scalar> 
102
(
0.01137
0.01137
0.217254
0.0210028
0.0150434
0.0292692
0.0418114
0.0218948
0.020983
0.0206448
0.0219156
0.0207814
0.0237319
0.0210006
0.058711
0.11425
0.0557244
0.0913718
0.0512978
0.0692549
0.0230081
0.018331
0.052284
0.0636607
0.130008
0.0367398
0.0426552
0.02086
0.0395686
0.0524474
0.0401262
0.0410472
0.0402407
0.0444877
0.0414293
0.0833265
0.0886394
0.0778635
0.0736872
0.0462414
0.0721092
0.0733007
0.0497842
0.0503248
0.0492374
0.046896
0.0440315
0.0228555
0.0739428
0.0706513
0.0666813
0.0699662
0.0738058
0.0713156
0.0733552
0.0653303
0.0719518
0.072591
0.0674043
0.0745307
0.173868
0.0227088
0.0216416
0.0162452
0.0318641
0.0350593
0.229514
0.0576247
0.155078
0.0700399
0.0729527
0.189834
0.0285073
0.118475
0.0692313
0.0652674
0.0216929
0.0276145
0.223308
0.0639141
0.0683839
0.0222275
0.0646404
0.0710758
0.226935
0.0617282
0.0664237
0.0490213
0.0646829
0.062949
0.0976074
0.0504804
0.0169113
0.0225894
0.0199266
0.0655996
0.0268152
0.0615942
0.0316612
0.0187756
0.0246065
0.060316
)
;
    }
    inlet
    {
        type            fixedValue;
        value           nonuniform 0();
    }
    outlet
    {
        type            zeroGradient;
    }
    wallInner
    {
        type            kqRWallFunction;
        value           nonuniform List<scalar> 
138
(
0.0566618
0.0179784
0.176071
0.0980712
0.231109
0.104817
0.81653
0.163959
0.0885815
0.0301133
0.161943
0.10306
0.0548515
0.197086
0.0319336
0.0882814
0.121657
0.0852754
0.0913414
0.136619
0.0946299
0.0336973
0.0290524
0.0420637
0.0355123
0.0343268
0.0372874
0.0406907
0.545889
0.0406559
0.0374121
0.029227
0.0804525
0.0565952
0.0471506
0.0227098
0.0322475
0.0261085
0.0433667
0.0255405
0.0685302
0.0228587
0.0652567
0.0487622
0.0788611
0.0192611
0.0638386
0.23889
0.0247909
0.0381067
0.0559704
0.0429992
0.0285409
0.0470719
0.0219189
0.178864
0.0274499
0.117606
0.0692717
0.127506
0.0451206
0.0242414
0.0236848
0.0422154
0.109528
0.0193311
0.023874
0.215804
0.0755941
0.056862
0.0371414
0.0451053
0.023979
0.0178671
0.271169
0.0241027
0.130845
0.0283671
0.157094
0.49536
0.0912731
0.38167
0.0435065
0.0573876
0.0501396
0.140692
0.423538
0.461065
0.132175
0.161262
0.144678
0.0343732
0.0341295
0.254636
0.0759392
0.0833464
0.318172
0.0760566
0.303452
0.0643275
0.0815961
0.0323353
0.0401943
0.0979824
0.0722425
0.146405
0.0888877
0.0306811
0.0367979
0.0339995
0.0308117
0.388654
0.0196052
0.0254278
0.0281438
0.0186532
0.0307516
0.0358927
0.0378742
0.093787
0.130485
0.224193
0.0837726
0.150534
0.105827
0.0362978
0.0202935
0.08538
0.102361
0.0220191
0.11921
0.159387
0.25399
0.0799468
0.211618
0.133413
0.142769
0.138774
)
;
    }
    procBoundary2to0
    {
        type            processor;
        value           nonuniform List<scalar> 
42
(
0.138302
0.138302
0.241794
0.179853
0.243825
0.130114
0.230716
0.230716
0.109536
0.0985651
0.383567
0.383567
0.331118
0.361044
0.301661
0.149977
0.199825
0.111188
0.0872113
0.92759
0.766956
0.106368
0.106368
0.467355
0.766956
0.0655708
0.341802
0.0499765
0.341802
0.144511
0.181138
0.049587
0.0524274
0.0570977
0.069086
0.179853
0.199825
0.152711
0.193751
0.178052
0.178052
0.0930906
)
;
    }
    procBoundary2to1
    {
        type            processor;
        value           uniform 0.995842;
    }
    procBoundary2to3
    {
        type            processor;
        value           nonuniform List<scalar> 
29
(
0.119428
0.126573
0.232647
0.161171
1.07179
0.0908201
0.304875
0.110083
0.350306
0.278654
0.101394
1.08682
0.105599
0.412669
0.389617
0.749495
0.476889
0.476889
0.126573
0.412669
0.313235
0.384782
0.219202
0.438346
0.359521
0.303293
0.350306
1.03138
1.08682
)
;
    }
}


// ************************************************************************* //
