/*--------------------------------*- C++ -*----------------------------------*\
| =========                 |                                                 |
| \\      /  F ield         | OpenFOAM: The Open Source CFD Toolbox           |
|  \\    /   O peration     | Version:  v1912                                 |
|   \\  /    A nd           | Website:  www.openfoam.com                      |
|    \\/     M anipulation  |                                                 |
\*---------------------------------------------------------------------------*/
FoamFile
{
    version     2.0;
    format      ascii;
    class       volScalarField;
    location    "0.23";
    object      p;
}
// * * * * * * * * * * * * * * * * * * * * * * * * * * * * * * * * * * * * * //

dimensions      [0 2 -2 0 0 0 0];


internalField   nonuniform List<scalar> 
1466
(
92.2282
92.9664
91.3051
92.1763
88.9
89.5341
90.3171
88.4614
87.9235
83.1889
91.5281
87.82
92.8325
92.078
91.7966
92.3987
91.8528
92.3123
89.5663
92.2536
92.1916
91.7648
88.2635
92.5374
92.1922
91.1891
90.9125
90.9133
89.7134
88.6669
88.1583
89.425
90.1894
88.5097
92.2224
91.4863
91.1399
92.2085
90.3017
90.24
86.9805
92.023
88.6017
88.171
88.4334
89.0176
92.2263
92.2032
92.117
92.2235
91.5939
83.1457
89.0647
88.3143
91.2055
92.0025
92.1567
91.6934
92.0303
92.2221
92.3517
88.5324
88.7152
89.2504
93.2783
92.3153
91.5775
92.1195
92.2392
93.5194
91.4622
92.1602
92.2206
92.0484
92.2158
82.8425
92.069
92.1396
90.1818
92.274
91.6233
91.9247
91.9293
92.1755
92.2285
92.2364
92.2269
93.4947
92.2512
92.1638
92.1177
92.2585
92.4165
92.1828
91.6684
92.2409
92.4353
91.8664
92.2069
92.1657
90.3059
90.7663
91.2918
92.422
92.1598
88.7697
91.9825
92.0341
92.2687
92.2413
92.1244
91.9842
94.3925
92.2244
92.8136
89.3718
91.7984
92.0785
92.1966
91.6364
92.1628
92.2502
91.3367
93.4571
92.3822
92.2694
92.8141
92.0572
92.3975
90.1047
92.2449
92.0738
92.176
90.7489
91.6329
92.3373
91.9068
92.2185
86.9712
91.9863
83.3312
92.2516
92.3196
92.4671
87.6267
93.2662
94.123
92.2052
90.8896
92.2255
92.3596
92.8516
92.1667
92.6868
92.0906
91.3702
92.1418
95.0585
92.0818
92.1645
90.211
92.2245
93.3196
92.2192
91.2711
92.4033
90.3437
92.6402
92.3833
90.669
92.2409
92.2329
92.7785
91.4259
91.0288
93.0004
91.6077
92.3648
91.8684
92.3941
92.2513
92.1591
92.2878
92.3151
93.2433
91.8321
91.9858
90.1408
91.6344
92.2833
92.3219
92.7782
92.2902
93.1923
92.199
92.1875
86.3822
92.3143
91.8534
91.8512
95.2798
91.9964
92.1099
92.4161
92.7917
92.1317
92.0932
89.0628
91.4595
92.7316
92.6342
95.5314
92.0106
92.2276
92.2175
91.8251
91.8276
91.2893
92.2397
92.1754
91.7537
92.2037
92.3939
92.2329
91.9041
92.2333
91.6012
92.5163
91.5833
88.6633
92.2243
93.4265
92.0356
92.1893
91.8266
92.7658
92.2129
88.5503
92.245
92.4162
88.1316
92.2758
92.2539
91.7515
91.8633
91.7414
91.366
92.2165
91.3247
91.9719
92.0219
91.8467
92.206
93.5984
92.1579
91.8233
91.4175
91.1552
90.7414
82.8678
92.2296
92.2305
91.7853
92.1142
89.7877
91.936
87.8713
94.9944
92.004
92.1557
91.8586
92.281
92.2251
91.2311
92.2314
92.0557
93.8481
92.5254
92.1496
92.0194
92.5876
91.4894
92.1321
92.8451
92.0149
92.2165
91.9311
92.239
90.6525
91.9827
92.2319
87.8599
91.8558
82.8476
92.2942
91.9492
89.8951
91.0875
91.9923
91.4956
92.1643
95.4718
92.7178
91.9339
92.168
91.1497
93.7716
92.2089
92.8756
92.3849
87.8976
91.7106
91.9719
89.2909
92.2388
92.0136
95.0715
91.1728
85.6912
92.8958
92.2291
92.1962
92.3237
91.3352
94.0938
91.4852
91.6197
91.9555
91.535
91.7027
94.7097
91.7257
91.578
91.5735
94.3162
91.2752
92.013
91.1938
95.87
91.6253
94.8722
91.9642
91.3814
91.7101
91.6893
91.447
95.0299
91.9262
92.1644
90.2802
92.2491
92.2325
92.1577
92.1391
92.1749
92.0142
95.4286
92.4383
92.0133
91.9111
90.8246
92.0742
92.3366
91.6116
91.1674
91.849
91.6635
91.5454
91.9436
94.9896
91.5428
91.9648
95.0455
91.4446
91.6485
94.5584
91.352
94.0785
92.2205
92.1625
92.2157
90.6573
92.0397
91.6933
91.5293
91.8702
92.228
91.9924
92.2456
92.1848
92.2
92.1686
92.3525
89.1636
92.9326
91.5801
92.433
91.3673
92.1872
92.0364
96.6999
91.5076
92.6461
92.2356
84.1839
91.9886
92.3722
91.3037
91.5136
94.6855
92.0108
92.9738
92.05
89.4697
87.1751
92.2403
92.3053
91.4664
92.1652
92.1944
91.6089
92.1684
91.1918
90.4753
90.8721
90.8037
90.0541
90.4882
90.5196
90.657
94.5237
92.0179
92.2171
93.3307
89.1664
92.6492
87.6909
88.0486
90.9563
90.7309
90.465
92.156
93.6237
91.3264
90.9964
87.7443
89.8705
89.2626
92.2534
91.4344
92.4489
87.0613
91.3394
91.8242
88.7408
91.1
88.7093
87.686
91.2634
91.4186
88.9023
92.0843
91.9375
91.553
92.307
92.6043
91.7629
92.0197
94.2549
91.4581
92.0747
91.18
91.5327
91.2703
89.7041
88.0137
91.3376
91.4106
89.0208
90.4702
94.3805
91.9635
90.2648
91.8892
88.4736
94.7088
91.7561
91.6419
91.9244
85.2129
88.8905
94.7075
91.3677
91.6096
93.4004
89.3296
91.5089
89.7756
92.1088
90.6485
94.582
90.9775
92.334
92.3372
91.5526
92.7282
84.6263
91.3178
91.354
91.185
90.3358
89.2868
90.5086
91.4322
91.4587
90.9064
94.5416
90.9054
91.7382
91.6697
91.8464
87.4932
91.9353
89.0756
87.9975
92.207
91.7612
92.1915
92.1531
91.5693
91.9434
92.4645
91.3049
91.3321
91.4484
90.859
90.4139
91.0367
92.2353
92.1826
90.7808
89.0217
89.4302
89.9099
91.1582
91.596
91.7331
87.7712
88.1824
94.422
90.6208
92.1229
90.2767
92.3478
92.4532
88.3834
94.4942
92.0162
92.1626
90.426
91.9877
92.2664
92.4241
87.6557
84.3017
92.3299
92.2205
92.7157
91.1646
88.6317
92.0615
90.7074
91.2136
89.0571
92.056
91.507
92.5738
91.4948
90.9274
91.3323
92.3482
92.5261
92.3491
92.5863
92.2216
93.0451
89.3363
90.776
90.0033
92.1563
93.9639
92.4221
85.8693
91.2169
94.3688
90.6011
91.6686
92.3818
88.2407
92.533
91.3763
94.1828
90.5787
91.6169
91.3471
91.4317
92.1957
91.9845
86.7428
89.3571
92.4013
88.2558
91.3295
90.5785
92.7381
91.4399
87.0487
92.3479
91.2861
93.7534
91.1383
92.2105
93.3509
92.334
90.8118
91.528
92.1386
92.7962
92.1628
91.0649
91.9887
88.4824
91.2503
92.23
91.918
92.3966
92.1834
89.4579
94.159
90.6262
92.0837
90.8118
92.1352
90.5863
91.4819
91.054
91.4051
89.9031
87.9232
91.9477
92.9228
90.9086
92.3787
88.3334
91.9894
92.2272
88.7505
93.0522
91.7362
91.4032
92.4295
88.8041
89.7135
93.1559
89.2544
90.5231
91.9082
92.2681
90.0706
92.3584
91.4675
91.7231
92.1789
91.6244
93.9869
91.7039
92.6878
89.5931
91.0445
92.2312
93.7841
91.2071
92.2206
91.4199
92.1185
91.5523
89.1975
91.955
91.8209
93.4196
92.1545
91.2216
90.9124
92.1238
94.1998
91.1723
92.0147
92.2438
92.3448
92.2926
90.7343
91.5906
92.2897
89.9047
92.2692
92.2012
92.3006
91.7259
90.9687
93.9365
90.8763
91.5337
86.8479
93.9092
90.8006
92.1415
92.1868
89.4618
91.105
90.844
92.601
92.0043
91.0115
92.3774
86.7617
92.2319
92.5138
92.6082
91.5653
88.5509
91.8711
92.2142
92.2341
92.1556
92.1779
86.9539
92.1197
92.1834
90.9346
92.9707
91.8559
92.0751
92.1912
92.2227
93.1074
91.8656
92.9534
91.7955
92.479
91.5049
91.9327
91.2067
91.1536
92.3504
92.4107
92.232
91.6083
89.1521
92.0326
91.2943
91.6913
92.1346
92.3852
93.8192
92.1308
90.2266
90.6338
91.4872
91.8733
91.7058
92.4712
90.1083
89.506
92.2228
92.3959
92.2871
92.7399
91.8083
92.9331
89.8782
91.1641
90.4891
92.8402
92.9768
92.3986
92.1988
91.0241
92.2456
91.5714
92.5288
91.867
91.5057
93.7448
92.6788
93.1642
91.6665
90.1732
91.9562
92.8571
92.2559
93.3507
92.5475
91.1997
91.6981
91.9953
91.9456
89.8892
92.1876
91.057
91.5681
91.7808
91.7122
92.0473
90.0712
92.3335
89.5621
92.2597
91.7572
92.5566
89.4949
91.9829
91.3513
91.8321
92.2404
92.0699
91.998
92.3489
92.2337
92.2268
91.6341
91.013
92.2229
91.5229
91.5629
91.6176
91.8553
91.1875
92.3815
91.5743
97.5404
92.0753
92.2382
86.1543
90.5482
92.1927
92.0661
91.9983
91.6969
91.718
92.1684
89.4191
92.3373
92.4692
89.1415
92.2075
91.6167
92.0091
91.9943
91.9905
91.8375
89.122
92.2079
94.7118
92.8296
90.8358
93.9595
92.2634
91.8507
92.4945
91.6779
91.7003
92.2095
90.3744
88.3722
91.7938
92.2331
91.9532
93.5371
91.023
91.5956
91.8118
91.6111
91.4779
91.9976
92.2531
91.9575
92.5175
91.7669
91.7058
88.7531
92.3156
92.2345
91.3823
92.8205
91.4907
89.6788
91.3265
91.1949
90.6138
90.938
92.2131
91.7575
92.2481
91.5895
92.4213
91.9246
92.2269
92.0003
91.2253
91.5355
92.6441
91.4441
92.4293
92.1122
92.3075
92.579
84.1048
92.1655
93.4273
92.8721
93.6162
91.8793
90.5995
95.3219
88.5456
92.4118
91.9443
92.0407
92.2721
90.8624
91.9027
93.5808
92.1685
91.6814
91.4465
87.4142
92.2113
91.9975
91.4664
92.3321
92.3253
92.2719
92.3064
92.9606
92.9029
92.9663
92.8725
92.3462
92.7456
92.624
92.3684
92.3995
92.4355
92.2389
92.4763
92.5256
86.8893
91.8124
89.6665
92.1687
92.528
93.6121
92.0728
92.6067
92.2583
91.8005
89.2317
92.1903
91.5363
91.41
92.2799
92.6944
92.2187
91.6172
91.8832
92.2598
90.6939
94.284
92.4649
92.3934
89.418
90.1857
90.828
87.4805
92.0914
91.4542
83.7707
94.9164
91.9023
91.7155
92.4512
86.9542
92.3061
92.4184
90.4256
91.5436
92.1525
91.6468
89.7046
88.1665
92.3386
92.3742
91.9672
91.7113
90.6346
92.328
92.3779
87.9571
92.5961
92.1422
91.7606
92.2523
92.2176
92.3098
92.2009
87.4288
90.8698
94.5253
92.1605
92.8188
92.1611
92.1631
86.9346
92.1068
88.7907
89.6548
90.2784
91.8991
89.0715
89.8239
92.1722
91.8048
86.8618
89.6905
91.9802
92.2209
89.0267
92.2161
92.2751
90.0832
90.247
92.1763
92.0132
94.1111
91.9708
93.0098
92.3368
92.7853
91.9274
91.2345
94.6548
91.677
91.4828
87.971
91.9415
92.1383
93.2451
91.587
92.1318
94.5613
88.8006
92.1887
91.4394
92.629
91.8408
94.636
92.1117
89.6812
89.9371
88.836
92.1875
87.5419
91.7728
94.8665
90.0833
92.2313
89.135
88.3568
91.3127
90.7297
89.652
92.2803
90.2905
90.4727
92.034
88.1911
89.5401
87.3928
91.7098
90.9712
91.2297
93.827
92.23
87.7544
92.1839
92.217
91.0949
91.1805
87.8565
91.9999
92.2055
89.0298
92.2342
90.9979
91.9177
92.1981
92.6723
90.828
89.6392
92.2564
91.0513
92.7777
92.2373
92.2623
90.5214
92.2654
92.2128
92.8488
91.312
88.9671
92.1923
91.7368
91.8235
91.2564
92.1269
91.9848
95.0832
91.6029
86.7993
90.6586
92.0336
96.0521
92.2247
91.8087
92.008
95.3408
92.1035
92.2501
92.8755
91.4085
92.2589
91.9579
92.2914
91.8377
91.1259
88.1823
92.7063
92.4637
92.1304
91.9681
92.2275
92.2678
92.1801
92.6408
92.6507
91.7704
92.8616
92.0599
96.7159
91.3828
91.5962
91.4292
87.3029
87.0742
91.982
92.1113
92.2624
92.3659
91.2589
91.5421
92.1388
91.8952
87.0172
91.2312
92.2387
88.3278
89.5332
92.3102
92.3406
91.5253
91.9925
91.3122
92.2736
92.3513
92.0487
92.7614
91.8002
92.6303
91.3213
92.6386
91.4525
92.2376
92.535
92.2795
91.0509
91.0096
90.0028
91.6637
92.7878
90.7882
92.2235
91.2905
88.5238
92.232
91.7398
93.6144
92.2119
90.0928
91.3762
88.6568
92.0919
92.003
91.5391
92.3043
88.5453
92.0707
92.733
91.7781
93.1978
92.333
89.764
92.6052
92.535
92.2475
91.4528
92.174
92.1906
92.0838
88.9187
92.1672
91.9695
94.1035
92.8146
92.3327
92.1324
92.0175
91.6649
88.8693
91.9698
91.7468
90.2769
92.0316
87.1057
90.6327
91.9001
90.5101
91.5029
93.691
91.3352
92.2659
90.7767
90.1768
92.1056
94.411
91.7154
92.6715
92.0408
95.5915
91.9198
91.4834
91.07
92.1571
91.9764
91.5224
91.9531
92.7045
91.187
90.7778
92.9649
92.2424
92.1912
91.7116
82.7737
92.2016
92.4988
88.1862
87.4433
92.0818
92.2075
92.3636
91.6473
91.6987
90.9839
89.6499
91.2361
93.8694
92.7974
93.4238
92.258
91.6154
88.1956
92.0226
88.5754
91.6086
86.5993
87.3971
92.2366
92.7573
91.8767
92.3032
90.8894
94.4294
92.2401
92.3211
91.4059
91.3985
91.8074
95.2096
92.1831
92.0468
89.6982
93.0462
92.2843
92.2406
92.2116
91.9686
91.5119
95.8087
92.0311
86.6277
92.0174
95.4045
91.2985
91.9284
84.3477
91.933
91.9871
90.3997
92.1221
94.7865
92.2357
86.851
91.9476
94.4966
90.8336
92.0177
92.3004
91.0089
94.4275
92.1399
92.3803
91.0098
92.131
91.6737
94.7148
92.1148
92.22
91.6471
90.9793
94.1109
91.7083
92.3422
92.1593
91.3301
94.6231
91.0329
91.947
89.3203
91.5236
92.0581
91.9109
94.757
92.4281
91.3595
92.2103
92.405
91.6701
92.1813
92.3175
92.7321
91.9983
94.7276
91.9817
94.2428
92.1424
91.7114
92.4077
91.5931
91.6316
93.8119
92.202
92.0449
91.5342
92.2317
90.3352
92.5374
92.3623
90.4789
92.24
91.2916
91.9841
93.1364
91.8212
90.7982
92.2342
92.241
91.8592
93.7322
93.4189
92.2099
84.3051
85.8955
87.2419
91.9143
94.3305
94.4959
92.2055
92.9552
92.2141
91.7265
92.4722
92.4956
92.255
92.2313
92.7997
92.5393
91.9075
94.2271
91.5319
89.3772
84.8101
91.6774
93.6497
92.4656
91.9799
91.278
90.7524
92.5898
91.4499
93.7066
92.7247
92.2418
91.0298
92.2972
93.0035
92.2743
93.1605
92.5695
91.734
92.6501
92.6868
86.3905
92.689
92.3482
92.0716
91.5921
92.3054
90.5011
92.1394
92.0809
95.6027
92.179
91.9988
86.7494
86.8264
92.5923
91.7604
87.2204
91.6859
90.121
88.3986
88.344
90.6781
90.2477
96.5963
81.3291
)
;

boundaryField
{
    frontAndBack
    {
        type            empty;
    }
    wallOuter
    {
        type            zeroGradient;
    }
    inlet
    {
        type            zeroGradient;
    }
    outlet
    {
        type            fixedValue;
        value           nonuniform 0();
    }
    wallInner
    {
        type            zeroGradient;
    }
    procBoundary2to0
    {
        type            processor;
        value           nonuniform List<scalar> 
42
(
92.7983
92.7983
93.3813
93.3922
95.2352
92.6817
93.4759
93.4759
94.9883
94.53
95.4242
95.4242
95.4225
95.1416
94.7516
92.4111
93.7832
94.6075
94.6679
87.7122
91.9026
94.6572
94.6572
92.6224
91.9026
94.6753
92.2593
94.5247
92.2593
93.2864
93.7162
94.3592
94.1716
93.972
93.8106
93.3922
93.7832
93.37
92.4821
93.5084
93.5084
93.6858
)
;
    }
    procBoundary2to1
    {
        type            processor;
        value           uniform 83.3717;
    }
    procBoundary2to3
    {
        type            processor;
        value           nonuniform List<scalar> 
29
(
88.9751
88.1827
89.0722
89.76
90.3308
89.4247
83.2779
88.3934
89.4128
88.8691
89.0503
87.1636
89.1779
83.2961
85.5645
82.8584
88.8958
88.8958
88.1827
83.2961
84.8225
88.7879
86.5526
88.5155
85.9714
88.9919
89.4128
79.3927
87.1636
)
;
    }
}


// ************************************************************************* //
