/*--------------------------------*- C++ -*----------------------------------*\
| =========                 |                                                 |
| \\      /  F ield         | OpenFOAM: The Open Source CFD Toolbox           |
|  \\    /   O peration     | Version:  v1912                                 |
|   \\  /    A nd           | Website:  www.openfoam.com                      |
|    \\/     M anipulation  |                                                 |
\*---------------------------------------------------------------------------*/
FoamFile
{
    version     2.0;
    format      ascii;
    class       volScalarField;
    location    "0.6";
    object      p;
}
// * * * * * * * * * * * * * * * * * * * * * * * * * * * * * * * * * * * * * //

dimensions      [0 2 -2 0 0 0 0];


internalField   nonuniform List<scalar> 
1466
(
93.3875
128.079
93.0107
95.6949
96.3167
108.88
91.8077
92.9066
119.836
110.193
87.3576
112.309
120.021
96.3976
108.486
86.4495
94.3132
113.949
117.174
97.6201
96.5348
86.1726
113.078
98.4985
119.957
129.161
85.6477
95.4624
97.1331
126.264
89.2388
127.897
95.5221
97.8709
119.875
97.9412
98.2686
94.807
109.672
94.8837
92.016
85.6094
87.355
93.346
97.2604
91.9622
89.498
98.903
110.742
94.7613
109.651
127.816
108.926
97.9646
96.1187
118.227
92.2858
86.4762
95.7671
109.817
129.398
91.8587
94.9405
128.429
101.524
90.8933
115.713
98.2546
122.453
93.7337
129.49
114.055
98.8169
118.925
129.449
120.257
92.2288
96.0211
94.3837
125.733
109.246
85.6808
92.2869
108.679
98.5598
92.3968
97.6623
124.234
108.558
109.042
129.124
85.5275
96.4244
93.9972
90.1875
94.6958
128.305
87.3902
121.114
95.8615
109.238
109.891
98.372
112.728
88.1251
92.11
109.41
98.9523
88.5463
92.8754
129.311
120.9
92.705
86.4367
110.932
129.079
85.5728
112.496
91.8194
93.4174
95.5207
92.9619
97.3829
94.2966
97.8992
94.9412
123.714
113.615
98.1399
127.308
109.497
85.8489
113.271
98.5252
128.776
92.1246
93.7084
95.7076
91.8992
94.0192
95.5907
94.983
98.45
111.647
89.6137
97.0287
127.767
127.594
127.282
110.779
129.094
127.613
123.135
89.5087
127.324
85.3876
96.1922
97.9542
127.532
100.195
127.606
124.984
87.2514
97.3067
126.951
88.8203
98.4819
112.682
95.1564
105.024
95.2433
127.267
94.3667
122.749
127.965
117.152
127.291
126.62
129.253
130.177
120.411
128.617
94.9664
94.5833
123.445
94.4931
98.7388
108.839
122.549
94.7762
94.663
129.648
97.5347
103.841
99.1749
129.23
93.0173
121.265
128.632
97.9006
92.838
127.25
125.55
94.172
129.333
128.621
101.8
123.987
127.373
98.0748
114.577
98.496
110.816
95.4454
97.7915
98.4303
95.2369
98.3711
115.504
98.5281
113.588
129.125
97.9979
129.271
96.0813
123.37
112.234
97.6592
129.198
128.736
129.92
122.46
108.413
100.373
109.9
128.845
98.489
112.066
127.326
94.6506
94.3559
125.432
125.856
105.758
127.275
124.817
128.18
118.503
126.206
125.79
95.1967
101.711
123.385
94.4219
127.355
127.557
97.0013
108.428
98.7734
94.71
109.638
113.88
98.5644
128.805
99.1769
94.4246
128.172
127.215
105.184
110.531
84.5212
98.7727
108.227
127.352
129.041
129.337
129.147
101.436
95.023
127.098
128.284
98.5226
99.1691
124.004
97.1752
93.6008
127.27
127.523
95.5268
120.027
122.065
93.8523
120.519
94.9828
103.183
105.504
99.5786
94.4244
127.074
128.479
97.5357
108.701
129.695
119.62
98.1289
98.2593
93.6038
94.9164
118.686
94.2812
123.061
113.663
98.4406
128.682
128.46
127.938
97.229
129.221
94.1993
108.379
107.687
99.1542
92.3278
128.493
96.6152
117.376
94.0048
134.025
128.12
128.719
114.244
118.73
92.4768
106.513
97.6762
99.2666
95.7468
127.449
93.8464
93.9345
97.9496
123.706
95.774
143.205
104.428
129.55
123.571
133.227
122.005
97.0908
102.997
102.7
98.7411
96.6494
96.7671
97.7465
97.7423
91.8483
111.394
126.255
96.147
99.0346
100.885
93.913
95.0658
116.882
122.974
122.38
96.3188
104.143
112.061
99.4475
145.729
108.987
92.5328
97.2104
112.752
136.003
93.816
100.372
94.2346
94.6656
94.5379
94.9184
95.5056
95.0417
94.9606
94.4083
94.5101
93.9209
96.9241
97.5391
93.5332
97.189
93.316
93.2706
93.3153
124.889
93.33
92.9381
93.2305
93.5152
112.024
93.2987
109.59
85.7693
111.736
110.021
86.8007
85.4398
108.453
114.288
111.928
85.439
110.95
93.1761
93.6943
109.844
108.573
91.6355
85.0235
85.1858
91.4547
111.56
91.5311
93.2606
85.1952
149.828
91.598
92.6869
108.589
93.3525
95.885
89.2643
128.016
93.0991
93.4356
93.4083
97.708
108.768
93.2303
96.3419
108.85
93.7861
128.259
92.4213
120.554
128.473
92.956
109.801
128.671
93.4914
95.4062
120.426
96.852
96.1217
89.8237
92.2537
95.873
128.526
94.9023
96.3381
90.5039
97.3289
111.95
93.4637
95.622
95.904
95.0509
95.1805
95.4913
90.7637
111.803
97.3061
128.691
93.5466
97.9518
95.2715
99.2474
98.3552
104.552
96.7448
98.0581
98.2857
98.8456
123.227
93.6443
98.0821
100.089
101.32
99.6461
95.7469
93.3584
96.0842
94.5093
97.391
97.8268
95.8968
129.471
93.4645
95.4972
95.1375
91.9267
113.781
97.3804
94.1216
122.524
128.804
93.7371
97.6436
127.732
97.6242
93.9666
98.6667
97.9003
93.7311
95.8561
120.743
121.637
91.9675
95.7602
94.7412
97.928
128.599
96.2917
95.3239
95.018
95.5836
95.7636
97.106
93.5209
86.6169
98.3147
97.0324
96.9157
95.4343
106.486
131.716
96.3152
97.373
123.329
113.214
97.9005
93.556
96.2251
110.267
96.7211
111.004
97.5579
128.903
91.1031
93.6399
98.2515
96.425
94.3631
98.0271
97.665
93.709
95.8538
115.118
96.01
98.0358
128.399
136.111
121.711
93.3681
96.5762
96.7042
140.202
96.7745
95.6973
95.6821
127.334
127.878
94.5849
93.9211
104.853
96.7834
97.3069
90.6257
96.8426
97.1586
97.2578
94.3632
93.8556
95.4014
94.5308
116.933
97.6759
93.3852
97.3736
115.289
94.658
96.8223
95.8181
98.1242
113.942
98.6079
96.0003
98.8747
136.075
112.125
105.08
112.903
112.262
95.7686
128.096
97.6837
110.451
94.8008
93.8553
93.8424
120.052
103.339
97.4733
127.399
127.479
128.448
123.13
93.0309
118.797
94.1432
127.73
107.631
121.591
96.3465
94.2892
95.9498
97.3904
97.5038
99.2811
121.448
123.229
105.215
96.4446
114.842
95.1424
96.3548
127.884
95.7339
95.9991
119.074
97.8265
129.198
95.0914
110.665
96.2727
94.5364
96.0638
124.875
96.2623
121.083
129.676
94.7436
99.974
94.7383
93.6838
96.527
127.879
114.743
98.9943
122.14
93.2946
114.386
100.035
127.187
93.9394
127.751
114.953
93.8241
95.629
127.361
96.3295
98.0804
111.935
95.8622
108.47
129.42
91.7574
119.778
98.2281
94.8383
129.043
115.365
126.647
96.1807
126
127.166
97.8278
127.008
99.0182
120.057
116.905
110.607
126.491
127.222
108.06
92.9576
125.669
94.6885
95.1712
126.284
127.097
128.33
94.4349
93.8872
127.524
93.2798
127.269
94.1663
93.7613
115.051
94.2364
100.22
95.415
97.5319
96.5263
94.3577
98.1244
126.978
120.181
86.2829
114.823
98.13
95.7102
96.2434
96.6807
94.9615
93.7571
129.388
95.4568
97.4589
92.2559
94.4112
116.318
127.825
97.1436
95.7656
94.9499
99.2121
98.0741
108.405
95.6623
95.6742
92.3083
91.629
124.512
129.613
93.6312
124.409
97.4731
91.2265
129.12
93.701
92.9756
116.693
91.5299
95.1126
121.185
109.4
98.4652
93.3657
129.23
128.821
100.147
125.98
95.44
117.563
114.553
94.7697
127.906
93.4354
96.8449
92.4243
84.9944
94.318
131.335
126.781
94.8271
112.249
97.3665
93.3594
95.0321
93.7558
98.9841
94.6848
108.421
98.2616
94.0041
104.465
94.3414
100.149
95.4002
93.3242
127.715
120.433
95.1315
87.1636
90.6115
98.0292
93.4993
95.4609
97.1904
93.9692
98.6912
94.0396
129.596
120.983
85.0276
95.9442
95.9677
101.833
114.686
98.3505
129.246
94.3197
95.2837
95.3951
128.809
96.5952
112.79
94.2365
94.02
126.968
94.4911
91.6209
94.4868
119.105
121.118
114.935
126.078
96.0824
93.4208
85.9782
91.8079
109.6
109.215
126.9
93.3295
93.313
93.3987
94.0355
95.2281
92.3202
90.4745
110.348
124.093
97.524
128.378
95.6412
89.8949
123.126
94.3049
98.0526
93.434
127.446
125.575
127.991
108.937
96.2194
100.349
97.5108
120.663
94.1843
129.307
92.6997
92.7913
93.6929
127.983
97.909
93.4214
129.15
95.4766
127.451
99.8881
94.6376
94.782
98.1206
97.2856
98.85
97.0808
96.8336
97.5925
96.7063
98.4582
114.515
115.735
99.9762
97.4926
96.5766
102.043
114.219
118.388
107.553
104.836
122.207
126.094
129.994
128.821
95.6924
95.0592
94.9324
99.0648
121.379
120.34
129.272
94.5336
93.9734
110.035
93.9994
97.8072
108.748
94.3524
112.625
95.8237
108.379
124.916
117.735
110.322
94.3871
95.5124
127.962
94.2096
128.366
109.52
95.1534
87.5192
95.3925
93.2784
97.4119
107.476
127.364
119.469
94.0167
108.826
93.7072
97.2569
96.774
92.5899
91.521
95.3108
127.288
126.415
95.9746
91.6161
93.9567
127.839
114.663
122.018
119.487
129.075
109.289
126.619
85.5252
94.3761
98.4221
129.355
108.74
86.2157
136.78
94.9078
113.953
95.6012
123.632
98.3225
112.638
93.9353
109.147
94.4858
91.8337
94.6803
97.3123
86.6372
96.2971
128.53
128.466
129.134
98.7894
90.4054
128.507
93.4993
98.7034
112.428
96.3176
120.927
95.7852
94.7841
128.979
113.423
98.2117
128.833
98.0371
109.488
114.49
115.724
115.538
126.71
95.4055
95.7071
109.538
93.9332
98.6566
99.0429
120.996
130.496
91.574
93.2344
98.0873
110.836
119.448
98.4723
112.386
94.7628
129.233
94.4054
94.433
88.0401
127.769
127.679
94.0949
112.348
96.9232
85.6121
113.108
94.8385
114.223
98.7429
113.453
98.4342
95.8735
92.0318
99.8867
128.943
127.234
95.2187
91.346
128.096
129.375
99.4891
119.825
128.913
122.51
94.0771
97.8813
123.172
90.6064
129.698
128.949
91.6187
94.7475
93.4998
97.801
128.4
97.2966
122.388
93.952
127.526
126.855
127.665
128.099
93.6566
108.139
125.305
122.773
129.321
95.7249
130.624
93.1071
97.5976
129.716
99.274
94.0244
128.891
93.4784
128.135
92.0004
112.035
128.253
128.005
93.7602
97.9764
121.4
95.309
128.584
128.354
128.692
128.473
122.121
121.817
127.553
127.626
127.731
127.864
119.802
99.7984
95.7057
127.647
128.005
98.4893
94.3347
128.717
113.347
98.1144
93.6791
91.5449
93.8802
90.1635
94.8951
125.501
95.209
93.6169
127.311
112.755
128.207
127.055
130.034
120.112
120.981
95.7094
93.4448
119.16
129.513
118.251
98.3533
113.675
119.042
90.3352
128.138
126.256
108.542
122.595
124.694
109.083
93.1593
98.149
93.4674
127.134
89.8342
97.7456
85.6135
95.5008
89.7109
98.4874
109.918
123.773
104.328
108.997
97.5113
93.4258
109.085
95.8354
121.429
121.078
96.7007
127.305
91.9603
127.88
109.929
131.658
95.3159
120.139
104.921
113.269
98.0475
95.1944
100.197
124.361
89.272
101.435
94.8778
91.7758
93.3385
97.8106
94.1734
97.9828
90.0696
124.474
99.4315
87.881
87.3853
100.154
119.754
128.515
97.5521
86.135
94.7245
95.3851
93.4936
97.8168
97.5083
94.2381
93.5894
88.8774
129.15
91.7932
109.453
109.559
121.542
127.126
129.235
126.28
127.413
108.677
124.279
124.689
127.869
111.516
118.905
93.7104
127.241
94.7666
129.235
129.26
93.4408
97.634
116.38
110.264
120.294
98.645
96.777
94.3492
91.1768
115.749
117.932
99.6031
94.5188
97.9924
109.331
109.036
88.4181
99.8933
126.885
111.191
98.9941
93.8531
97.9323
87.3295
110.191
98.1168
109.186
93.4795
87.9121
93.6201
100.289
127.477
127.446
111.949
98.0029
95.0118
94.1705
119.442
97.8717
97.9932
125.841
97.4233
121.73
87.3652
109.716
97.3357
93.4345
97.0399
128.524
94.411
129.072
86.3994
99.7209
94.1923
97.8009
99.3877
96.1275
119.983
128.015
109.931
127.451
94.526
94.574
124.972
94.0025
91.6213
114.679
98.0282
112.773
94.3143
127.854
129.502
121.213
89.9952
97.6903
93.3464
116.33
95.0346
93.2023
113.372
97.3732
93.4992
110.211
98.4067
111.799
120.761
111.863
98.2979
96.1727
108.617
95.653
85.567
116.898
98.1249
114.356
96.5298
91.261
93.6267
98.0978
92.7531
96.9257
91.7505
128.146
94.1406
116.257
129.119
95.899
91.542
123.78
94.4497
85.7124
129.673
122.523
129.803
117.172
94.6449
89.4422
129.411
115.603
129.073
94.3648
97.9392
93.3782
90.3017
94.5131
101.05
94.1069
128.328
94.71
128.058
89.7431
88.3783
116.551
126.619
126.868
94.5751
127.04
111.326
127.876
126.961
96.1483
96.1267
126.238
110.962
127.148
125.923
126.747
95.5345
128.267
106.395
129.425
125.502
100.371
96.0212
129.529
129.662
128.786
127.189
94.6561
123.114
128.517
103.571
130.635
128.505
88.6381
128.466
86.6171
87.1277
91.7479
85.9017
86.5207
89.644
93.8559
95.2795
108.804
124.967
130.025
97.7667
121.208
97.7763
96.0921
95.8189
121.795
107.414
97.9644
93.8223
128.527
98.5147
109.232
127.585
92.5473
128.034
113.737
98.4122
124.065
98.1286
95.7064
128.762
95.4231
87.2958
91.9822
92.0927
110.122
95.02
91.6735
91.9375
125.148
128.005
127.555
127.692
128.193
128.626
120.687
126.104
110.634
93.0674
128.592
116.976
90.4501
128.311
90.7988
111.213
94.6529
91.2187
92.2279
98.192
93.1813
95.9752
98.2574
98.6449
102.646
92.7995
94.4986
111.553
141.069
106.527
112.435
123.803
129.64
120.806
118.712
117.356
92.4876
91.9267
96.1779
92.194
96.0229
96.3837
112.216
93.0759
127.476
127.808
128.379
)
;

boundaryField
{
    frontAndBack
    {
        type            empty;
    }
    wallOuter
    {
        type            zeroGradient;
    }
    inlet
    {
        type            zeroGradient;
    }
    outlet
    {
        type            fixedValue;
        value           nonuniform 0();
    }
    wallInner
    {
        type            zeroGradient;
    }
    procBoundary1to0
    {
        type            processor;
        value           nonuniform List<scalar> 
29
(
92.8806
92.8806
92.3038
91.7962
85.8891
86.4174
119.099
92.1722
91.7543
91.9258
92.2259
86.4174
92.3038
93.5332
119.774
120.192
85.8891
86.1473
91.7962
92.4363
120.429
120.488
86.9179
119.202
119.202
86.9179
121.164
119.206
121.164
)
;
    }
    procBoundary1to2
    {
        type            processor;
        value           uniform 92.4947;
    }
    procBoundary1to3
    {
        type            processor;
        value           nonuniform List<scalar> 
48
(
98.1024
98.0266
98.0997
98.0997
98.8881
97.2924
97.2924
98.317
98.0108
92.655
93.7199
92.655
93.5622
94.2745
93.2242
93.5622
96.4472
96.4472
97.9534
97.9534
97.0292
97.5689
98.0553
95.9133
95.9133
97.2569
97.8738
97.8738
98.2341
97.8781
97.4135
98.2341
98.317
98.1847
97.61
97.8781
98.4088
93.7199
98.6525
98.801
95.4578
98.3018
98.1847
97.61
92.6879
99.3043
98.7883
95.4578
)
;
    }
}


// ************************************************************************* //
