/*--------------------------------*- C++ -*----------------------------------*\
| =========                 |                                                 |
| \\      /  F ield         | OpenFOAM: The Open Source CFD Toolbox           |
|  \\    /   O peration     | Version:  v1912                                 |
|   \\  /    A nd           | Website:  www.openfoam.com                      |
|    \\/     M anipulation  |                                                 |
\*---------------------------------------------------------------------------*/
FoamFile
{
    version     2.0;
    format      ascii;
    class       volScalarField;
    location    "0.35";
    object      epsilon;
}
// * * * * * * * * * * * * * * * * * * * * * * * * * * * * * * * * * * * * * //

dimensions      [0 2 -3 0 0 0 0];


internalField   nonuniform List<scalar> 
1466
(
12.9358
36.0071
9.40793
94.9228
8.4285
26.9315
36.767
54.186
9.22576
43.8271
66.3808
41.3607
5.53306
5.78099
30.9562
84.9226
33.4174
110.197
121.519
67.2235
114.511
74.2089
91.0403
56.0856
7.08393
11.3995
48.3479
86.107
5.7849
49.017
77.1689
12.6329
9.01059
76.8963
119.257
70.8971
64.1548
40.6143
77.0695
24.8592
13.8229
68.241
87.5299
9.16101
13.5431
36.4504
93.035
8.99881
61.8065
5.48514
18.1581
45.295
35.3489
9.37488
11.7357
6.66749
22.0563
72.7578
7.46196
52.1551
24.096
24.1689
21.9467
29.9722
79.0008
41.0342
171.978
62.4888
29.1503
10.3981
64.1709
164.483
90.8304
6.62925
21.2803
71.0461
20.219
17.499
17.7378
71.3278
53.5083
82.4808
10.2598
88.6607
94.7005
147.281
81.8043
75.0668
61.3063
46.1466
15.0592
50.7405
131.302
9.96685
24.1595
9.86563
33.8342
83.7191
8.49322
6.16555
26.6553
10.4814
8.03121
94.0663
102.224
76.7213
46.7287
9.67
87.248
15.581
18.8203
92.6468
13.4287
76.1866
53.406
24.7467
55.5525
40.3848
29.1003
29.4704
101.797
17.046
15.8076
7.38812
10.3944
70.1223
38.9299
88.9847
54.0466
33.9054
69.4216
59.2311
90.0611
55.1589
17.2632
24.5059
37.3741
24.5837
17.0798
28.1675
6.27626
95.2764
72.3279
83.043
83.9057
170.474
12.2411
17.5721
52.5578
97.7334
17.431
33.2333
33.9472
13.0834
40.8083
70.902
75.6284
82.034
11.8419
47.4594
11.2005
54.0185
123.459
83.4158
112.582
100.86
64.2449
100.514
94.4003
38.1127
105.898
8.30722
4.51345
30.3453
31.7823
7.24688
40.3183
60.8095
16.3793
85.5584
8.02688
28.9462
130.546
4.59174
75.8209
149.324
97.0988
51.8893
30.9346
26.386
117.895
31.831
137.249
184.885
43.7251
20.9716
9.94056
154.054
126.75
194.013
89.8581
42.7872
44.2484
45.202
47.2145
103.511
136.523
25.2349
11.378
62.5715
106.303
87.2353
140.883
96.5166
120.568
80.5024
148.848
96.5775
58.7096
59.6059
95.9798
26.0324
84.4748
25.1321
88.9634
87.4155
66.831
8.93924
16.1628
25.1765
52.2086
79.1899
201.671
158.863
14.4666
77.7642
68.8325
92.366
21.3959
114.377
42.9988
68.977
36.6858
206.822
17.3586
48.6069
12.7775
6.55998
73.1869
31.6423
136.004
85.7611
22.5665
67.9109
7.86357
15.9635
75.2716
11.3059
109.183
117.64
98.6748
88.3498
54.9985
24.6118
67.1189
4.96154
39.9318
45.7639
107.631
10.5743
150.696
127.931
62.1364
12.1015
16.3731
30.1035
20.5168
60.6244
101.532
57.5515
20.6763
92.1702
81.9069
60.5545
88.8604
2.3195
56.8097
53.0095
8.64711
17.8286
20.2054
12.5971
6.83419
12.811
47.3477
41.164
197.988
4.15977
58.1533
21.5473
4.67888
38.1271
8.93528
7.57287
85.5935
12.496
9.60462
10.6691
36.2535
126.236
27.8265
121.791
63.3178
35.2218
49.1808
41.0885
121.146
29.8857
5.39668
32.6769
40.6535
154.351
108.707
18.8356
89.2318
15.3266
3.30701
30.7971
15.6876
33.9885
83.0535
16.3215
13.9069
36.2728
98.3172
16.1402
109.642
19.5305
13.0322
10.1402
8.30953
28.22
26.9353
63.5202
39.5367
9.90497
58.1016
38.7601
34.5048
98.1309
31.3619
12.8151
60.7603
125.179
95.753
119.054
112.139
20.8674
7.41067
38.612
101.414
103.481
72.3731
54.3905
8.01483
205.358
24.9003
23.8347
78.9185
39.6507
33.5763
123.38
96.85
30.6163
18.7603
59.0619
51.8834
99.9673
11.5385
59.9059
50.5309
32.3647
55.9481
57.0527
30.9289
32.9381
21.3604
17.7915
7.79176
3.9227
31.9418
15.3882
50.82
14.6662
20.905
8.30687
2.74785
98.7087
23.2156
7.22164
1.99341
2.06495
68.4849
3.20499
45.9593
111.274
83.9899
28.1668
135.914
118.184
24.589
98.6045
126.748
117.875
73.5655
4.91613
4.1351
51.0761
31.8373
19.9519
87.9377
90.8606
21.1107
132.073
26.2326
34.506
62.5602
91.3747
29.4312
34.9749
51.3436
13.3127
111.466
211.825
32.8842
10.6073
4.72554
15.157
5.13734
50.8191
3.65299
18.8253
51.5838
9.17509
28.9043
15.3863
22.9037
35.0537
13.4899
57.7677
36.0927
11.8535
7.18575
10.0271
23.6896
13.3813
11.7503
38.5426
9.27257
31.8732
7.38774
24.8372
14.2472
80.9337
54.6601
13.3681
20.2792
24.0401
10.6596
22.8597
14.0169
28.2247
57.3905
6.48434
31.849
12.4759
9.79379
81.1119
160.085
97.0269
35.8228
127.886
101.195
148.221
127.15
20.7295
10.9624
7.7534
138.441
77.0567
138.444
83.2339
24.8888
17.5372
48.6703
13.348
38.5586
27.7723
40.72
62.9666
54.9673
83.3406
66.5589
92.4421
16.9669
80.3016
62.0366
37.5374
11.5363
20.4984
26.6823
110.807
47.1507
167.957
36.344
59.2603
14.5674
9.00713
17.4334
40.4475
49.1721
10.3942
162.732
25.0841
93.7245
14.5686
10.3225
75.3637
13.2429
135.139
30.9207
193.497
131.343
14.095
22.2359
10.8055
34.7179
69.6633
18.0141
117.898
19.6631
102.974
28.1377
45.5455
12.8509
30.8868
13.4171
23.4375
134.976
35.0662
110.048
10.2782
7.67037
24.6522
177.739
27.043
20.5102
54.6808
62.4734
16.4317
124.02
115.758
25.0165
35.3807
13.4539
38.3876
15.424
158.265
72.2771
81.4825
93.6924
153.927
27.6199
50.2858
37.8302
114.778
12.5534
60.1594
20.9287
83.1055
76.9744
79.4018
37.7383
74.3139
61.0436
59.1467
105.883
7.80717
13.5324
39.043
80.447
25.6747
69.4366
38.9161
136.517
77.7596
79.3181
53.3757
52.4887
68.1764
39.7041
13.1475
14.8023
29.4524
223.184
77.3053
28.4148
5.14901
43.6001
80.8989
31.3904
125.028
21.3442
37.4543
130.548
29.4916
51.2024
25.546
21.8676
109.501
28.3326
3.34528
24.1338
19.3755
34.1047
42.8597
254.549
77.6437
94.7963
60.0078
114.235
20.4501
22.5231
16.059
63.5483
10.7363
99.512
79.3077
49.7164
91.8359
142.054
80.2513
55.5326
26.5885
100.913
13.5146
80.7119
117.441
55.5023
27.1318
70.0592
9.99317
33.0344
5.68898
145.333
97.8824
10.9744
203.937
15.4995
5.82341
167.382
87.9878
9.20755
12.9959
139.848
31.094
115.019
37.9515
55.3098
10.8676
13.9245
17.4119
87.0201
12.8829
63.6403
5.03125
38.4333
9.0402
22.3138
17.0006
87.5788
14.9444
12.2691
161.374
18.3528
127.094
25.416
8.22057
73.2888
11.8069
137.389
16.3318
14.2748
60.1715
19.4699
7.4695
49.9288
101.697
27.1711
74.3522
113.103
22.597
9.72206
16.1985
77.0129
69.9815
28.869
8.93827
7.43091
70.2555
33.1467
148.954
9.7279
65.5273
143.803
105.728
51.4796
80.5814
98.7053
60.5626
60.345
109.004
168.5
60.8527
229.791
99.3499
90.5123
16.8079
14.6358
10.512
91.5618
133.527
83.3876
5.67395
140.197
86.451
119.509
87.6226
3.41014
125.792
62.4418
48.5064
85.2993
4.30252
28.6973
25.5237
31.2704
29.153
38.5464
43.8918
88.3392
82.0532
12.5508
4.52405
122.755
112.044
162.74
91.5991
12.2773
117.404
91.4183
15.9861
31.7549
45.124
168.091
43.3657
78.4353
119.57
74.68
139.079
27.2071
23.8486
19.6316
19.0644
65.4191
113.658
39.0972
16.5053
23.7813
113.609
28.0644
10.9474
89.3817
55.1613
116.378
5.65171
38.1935
49.7333
79.5247
37.094
28.1607
134.245
99.9865
14.9619
32.7834
14.1133
118.357
63.7116
12.0385
13.8765
6.84824
74.8239
91.678
15.2672
40.4837
3.42403
18.3662
12.1791
69.2177
91.2913
123.158
57.1169
86.3253
50.6676
37.2469
13.738
93.1193
84.2875
16.7576
96.3878
98.8091
89.223
14.9663
63.0009
31.892
23.0683
84.2084
11.1794
15.5026
84.2725
72.9889
94.7225
31.2308
132.74
28.9441
25.7032
16.1765
14.1488
17.6333
22.9878
35.6987
108.566
117.344
15.2478
102.593
76.2788
32.4978
87.3249
36.2033
80.3768
113.021
56.6186
101.376
14.9159
21.3189
25.4977
70.955
23.9957
60.4058
100.86
148.827
78.355
9.19604
16.9071
11.972
59.9775
109.816
288.474
31.5775
14.6837
41.2199
10.467
67.9535
11.5779
166.668
17.7013
115.306
97.9696
108.346
92.6314
128.092
121.596
122.918
127.501
166.306
186.556
208.67
172.351
167.011
166.999
171.586
171.033
237.149
139.472
154.052
267.556
287.24
189.002
262.037
165.41
160.346
151.729
89.8781
91.0901
5.85167
10.5753
75.839
30.1338
12.9194
12.9422
5.66447
31.0005
125.791
82.7569
101.826
24.3623
30.1466
10.5657
49.3097
15.7238
69.0208
26.4222
121.388
36.1521
43.826
149.315
87.511
141.845
12.7332
12.5553
7.88624
9.15415
7.05259
30.6305
45.5783
66.9698
92.1791
8.48027
30.3206
25.2899
14.7
13.3505
26.2423
102.018
27.7432
26.815
31.6321
109.063
35.9066
13.4573
56.3203
43.7498
68.6212
89.4262
124.982
98.4935
12.0846
50.7031
103.351
43.8487
145.909
38.6736
139.296
34.0557
77.9885
140.623
3.02376
47.8044
21.2603
74.4046
3.93036
96.4673
81.6821
96.4113
30.8613
29.6338
32.8253
83.7405
30.7085
14.9897
10.0814
81.0177
143.585
84.1687
18.2812
139.795
110.326
28.5455
145.032
70.929
12.6691
4.61637
39.2936
52.9817
141.43
227.735
62.7415
78.0524
6.58127
15.7126
41.079
86.0226
108.656
11.3935
81.595
30.7091
32.2613
5.75251
43.6672
7.70464
48.1926
90.7667
8.90309
11.6245
135.783
10.2604
94.1186
20.7906
52.483
125.831
113.488
170.386
91.936
107.867
98.8177
111.619
74.096
96.1589
58.6074
23.9791
22.2089
129.031
37.3522
10.0896
42.088
78.3919
35.4504
15.9934
101.196
7.03661
39.7779
38.6028
7.33666
8.61674
36.9039
16.3059
32.3114
15.5811
48.4703
136.809
12.9293
11.0893
12.5403
97.1183
37.9615
10.4493
28.0539
131.936
14.5922
25.8658
33.8193
7.28291
28.6988
39.4466
8.82141
104.844
117.536
14.5915
15.3136
3.31882
97.6344
20.7363
13.4587
26.1046
15.5966
18.2415
6.60075
15.9782
15.6343
10.1858
7.54239
8.11521
134.71
15.3317
16.4355
14.7815
16.3336
39.6692
43.4062
11.6458
12.4657
14.2125
15.2459
64.0112
124.479
74.6344
29.5102
21.0228
90.8393
123.501
34.4861
126.91
81.894
29.4086
25.1451
28.9447
7.27005
119.068
59.485
145.051
49.0744
7.99874
148.415
41.7589
50.9818
76.5993
117.164
91.7883
127.175
10.8224
98.0528
38.346
108.469
92.063
159.066
6.38735
21.153
15.9441
66.7118
40.469
59.3941
73.8394
50.628
11.758
17.7347
10.4271
40.7162
96.8594
86.6161
126.637
102.333
12.103
5.32613
36.381
57.3
45.8145
21.5002
26.7253
5.58088
39.4846
86.8635
46.8249
55.3577
97.433
7.79103
8.18253
24.0308
62.5027
35.5967
110.115
19.9535
87.4498
145.623
89.8507
79.7454
158.431
33.5926
113.406
97.2261
26.7127
25.1
19.4074
15.225
6.11729
7.06377
91.545
63.4419
109.779
119.985
126.057
165.846
33.9743
33.2755
79.2696
79.7126
101.915
105.974
4.80773
16.2083
74.0165
84.1551
6.38964
111.89
37.6963
20.5436
47.867
43.8407
18.121
17.7173
13.0302
53.4116
8.38586
21.0901
37.1024
33.6786
23.7215
247.285
6.55578
31.2346
23.3747
11.6275
9.64951
40.2923
12.6095
11.8677
6.02255
50.5901
63.7155
137.622
95.7225
93.3311
8.97819
66.4503
6.24268
118.796
65.02
4.05774
49.9078
44.7531
95.1815
115.31
67.7502
75.5233
95.7463
5.02291
7.73766
117.755
17.3389
4.9448
38.0203
4.37333
106.591
28.2675
117.832
9.19199
148.365
58.0991
7.86852
124.746
48.115
6.59722
75.9844
82.7926
42.2399
75.7438
35.5014
121.475
44.7352
85.2927
21.5915
59.1463
33.5308
108.549
43.2229
130.138
170.526
75.2182
174.612
166.091
165.826
6.87975
30.8166
53.402
10.7029
120.933
10.2444
66.3096
100.827
20.8065
133.658
58.0272
5.96209
28.6436
31.5943
10.2231
34.1628
19.9044
25.3183
8.49699
227.735
112.435
88.3391
79.8464
11.5637
4.72002
121.166
71.3744
76.3601
62.4742
77.4975
75.2823
150.319
51.9251
36.0491
115.626
6.26198
63.701
133.152
82.6163
25.6615
8.12477
6.99378
15.8052
14.278
17.8971
23.1476
83.7856
7.87522
14.1624
67.704
22.2158
75.6865
105.669
92.7713
7.55179
85.5695
54.2722
6.48422
6.05366
7.66248
13.1683
212.47
12.597
95.5151
21.4214
8.44897
8.00802
2.59036
107.539
6.16256
12.8528
66.6336
12.9174
113.874
96.2673
114.222
63.1691
44.2881
42.7242
24.4625
53.4898
15.5162
33.6895
99.1818
2.95071
57.4885
74.3029
33.5858
69.0087
54.8174
121.028
23.0472
45.8499
16.781
48.1469
116.655
54.9153
12.6231
10.8006
16.8326
13.2165
92.9134
76.051
43.6614
50.7046
167.954
26.0685
118.067
60.6699
67.3238
61.0206
24.1073
71.0365
106.872
9.43902
26.1394
99.4308
20.65
154.285
48.3175
74.008
140.981
72.2091
109.284
104.11
90.1877
106.006
6.33302
6.8307
12.3305
5.42902
32.7998
10.1364
82.7744
31.9536
86.1619
55.0732
122.117
75.4486
120.447
12.5026
118.617
108.509
16.8601
9.12876
140.554
57.7615
23.2232
27.0543
72.5704
34.841
165.309
31.7642
23.6545
12.2022
10.3046
64.9005
83.4971
72.6727
15.8384
180.351
79.7447
48.3681
168.831
7.65058
7.03625
97.2684
81.0346
9.03224
12.1729
47.0507
16.5678
51.8892
162.937
33.2918
11.7986
45.9842
159.198
62.617
77.9371
39.9204
68.3219
10.3983
7.57592
6.78137
12.2951
31.8715
18.9785
109.534
8.83093
5.84367
115.578
12.2482
64.9715
30.9634
23.7659
)
;

boundaryField
{
    frontAndBack
    {
        type            empty;
    }
    wallOuter
    {
        lowReCorrection 0;
        type            epsilonWallFunction;
        value           nonuniform List<scalar> 
108
(
110.197
164.483
90.8304
8.93528
9.90497
18.3528
25.416
8.22057
11.8069
19.4699
7.4695
27.1711
22.597
9.72206
7.43091
10.512
119.509
31.2704
29.153
16.5053
18.3662
123.158
14.1488
32.4978
97.9696
108.346
92.6314
128.092
121.596
122.918
127.501
166.306
186.556
208.67
172.351
167.011
166.999
171.586
171.033
237.149
139.472
154.052
267.556
287.24
189.002
262.037
165.41
160.346
151.729
89.8781
10.5753
30.1466
141.845
9.15415
109.063
139.296
34.0557
139.795
81.595
11.6245
113.488
111.619
74.096
38.6028
36.9039
15.5811
37.9615
28.6988
39.4466
117.536
3.31882
3.31882
13.4587
15.5966
15.9782
15.6343
134.71
15.3317
16.4355
14.7815
16.3336
39.6692
43.4062
11.6458
12.4657
14.2125
15.2459
64.0112
126.91
81.894
7.99874
76.5993
92.063
159.066
46.8249
55.3577
145.623
89.8507
63.7155
10.7029
121.166
62.4742
14.1624
54.2722
12.597
10.8006
16.8326
167.954
)
;
    }
    inlet
    {
        type            fixedValue;
        value           nonuniform 0();
    }
    outlet
    {
        type            zeroGradient;
    }
    wallInner
    {
        lowReCorrection 0;
        type            epsilonWallFunction;
        value           nonuniform List<scalar> 
126
(
40.6143
77.0695
24.8592
13.8229
68.241
87.5299
9.16101
13.5431
36.4504
93.035
8.99881
61.8065
5.48514
18.1581
45.295
35.3489
9.37488
11.7357
6.66749
22.0563
72.7578
7.46196
52.1551
17.7378
9.86563
33.8342
83.7191
8.49322
6.16555
26.6553
10.4814
8.03121
94.0663
102.224
76.7213
46.7287
9.67
87.248
15.581
76.1866
53.406
7.38812
10.3944
69.4216
59.2311
24.5059
37.3741
24.5837
6.27626
123.459
31.7823
9.94056
109.183
117.64
98.6748
4.96154
39.9318
150.696
127.931
62.1364
12.5971
12.811
41.164
197.988
40.6535
154.351
108.707
20.8674
78.9185
96.85
99.9673
98.7087
7.22164
91.3747
111.466
211.825
10.6073
15.157
18.8253
7.18575
13.3813
9.27257
167.957
193.497
177.739
254.549
203.937
229.791
59.9775
288.474
170.386
96.2673
53.4898
180.351
48.3681
168.831
7.65058
7.03625
97.2684
9.03224
12.1729
47.0507
16.5678
51.8892
162.937
33.2918
11.7986
45.9842
159.198
62.617
77.9371
39.9204
68.3219
10.3983
7.57592
6.78137
12.2951
31.8715
18.9785
109.534
8.83093
5.84367
115.578
12.2482
64.9715
30.9634
)
;
    }
    procBoundary1to0
    {
        type            processor;
        value           nonuniform List<scalar> 
29
(
31.7234
31.7234
21.5643
27.042
48.0371
41.9435
121.042
53.9031
91.1455
27.259
32.3316
41.9435
21.5643
31.5168
57.0086
18.7434
48.0371
57.5993
27.042
29.1811
9.56958
5.66591
66.7567
10.7542
10.7542
66.7567
7.21195
76.3408
7.21195
)
;
    }
    procBoundary1to2
    {
        type            processor;
        value           uniform 22.4552;
    }
    procBoundary1to3
    {
        type            processor;
        value           nonuniform List<scalar> 
48
(
58.7177
86.3474
76.7636
76.7636
60.7129
114.743
114.743
9.89921
29.516
4.35322
4.45069
4.35322
6.41952
28.9469
29.3188
6.41952
5.79392
5.79392
4.81013
4.81013
22.0247
17.4936
5.68027
32.0938
32.0938
6.66054
13.2291
13.2291
7.62894
47.8632
14.5441
7.62894
9.89921
17.9728
4.89023
47.8632
15.9327
4.45069
46.903
49.4666
30.3216
15.6899
17.9728
4.89023
25.6615
74.0012
54.1205
30.3216
)
;
    }
}


// ************************************************************************* //
