/*--------------------------------*- C++ -*----------------------------------*\
| =========                 |                                                 |
| \\      /  F ield         | OpenFOAM: The Open Source CFD Toolbox           |
|  \\    /   O peration     | Version:  v1912                                 |
|   \\  /    A nd           | Website:  www.openfoam.com                      |
|    \\/     M anipulation  |                                                 |
\*---------------------------------------------------------------------------*/
FoamFile
{
    version     2.0;
    format      ascii;
    class       volScalarField;
    location    "0.35";
    object      p;
}
// * * * * * * * * * * * * * * * * * * * * * * * * * * * * * * * * * * * * * //

dimensions      [0 2 -2 0 0 0 0];


internalField   nonuniform List<scalar> 
1466
(
71.7589
110.005
70.633
76.1193
72.0358
90.1272
61.6689
70.9031
100.992
91.0327
69.4048
93.094
101.144
70.429
89.4608
68.6391
72.1644
95.1585
98.4431
71.9876
77.4567
68.2486
93.9558
72.5142
101.191
110.953
67.6631
75.2191
70.7776
107.996
71.151
109.766
75.293
69.2429
101.164
71.2191
68.6353
73.6439
91.3144
66.3238
67.2052
67.6627
69.3277
72.0937
65.8216
68.0458
71.913
69.478
91.6367
75.0809
91.2804
109.782
89.897
71.975
75.5574
99.4531
69.7655
68.5967
75.4303
90.852
111.151
68.0257
65.9018
110.432
82.8073
69.3061
96.7457
71.9366
103.8
71.5207
111.488
95.0109
72.9959
100.124
111.25
101.682
70.157
66.0278
73.9219
107.511
90.5749
67.7794
70.6203
89.2882
71.9176
73.3023
69.9224
105.902
90.0805
90.8205
110.976
67.5563
77.6933
72.4842
67.6535
72.8679
110.274
69.5402
102.263
72.7904
90.7831
91.4084
70.151
93.9177
70.0143
70.4031
90.1897
70.412
70.573
70.7712
111.038
102.172
71.5799
68.4743
91.7769
110.984
67.5848
93.4272
63.4681
66.3795
75.7568
72.8057
65.6666
73.2873
65.6139
72.9375
105.188
94.5052
71.8143
109.182
90.7775
67.8123
94.1264
72.4882
110.784
62.9925
66.8428
75.0999
64.8849
66.6654
75.9823
75.3215
72.3664
92.4451
71.3457
78.0672
109.623
109.459
109.15
91.9328
111.03
109.504
104.567
67.147
109.192
67.4716
73.7321
71.0415
109.402
81.1841
109.452
106.65
68.3158
73.9299
108.95
70.6871
72.3031
93.438
73.563
86.6787
75.0957
109.151
74.4957
104.121
109.891
98.3013
109.045
108.426
110.982
112.458
101.677
110.658
75.5781
75.1501
104.996
75.3726
72.136
89.4721
103.871
74.3991
75.1537
111.496
80.3397
85.0214
80.2247
110.976
70.7134
102.696
110.954
79.0928
72.2971
109.119
107.153
75.66
111.173
110.762
82.8879
105.437
109.263
72.1995
95.6006
72.5272
91.6251
74.7408
78.8027
73.3985
76.1245
73.2599
96.6209
72.4031
94.3886
111.105
74.0355
111.006
73.6224
105.081
93.0304
70.7769
110.968
110.746
111.92
103.876
89.7704
82.0302
91.7506
110.823
72.4469
92.8645
109.205
74.875
74.8152
107.178
107.459
87.0949
109.149
106.404
110.084
99.6768
108.001
107.41
76.0477
83.3488
104.817
76.0874
109.247
109.419
73.8083
89.5927
72.6327
75.6321
90.3372
94.7808
72.5847
110.839
80.0293
74.7412
110.165
109.082
86.3582
91.7999
65.9256
72.3301
88.9196
109.236
111.048
111.09
110.971
82.2281
74.1691
108.955
110.213
80.1999
79.7783
105.608
78.1244
73.2707
109.145
109.406
75.1956
101.309
103.359
72.0841
101.669
74.74
84.1097
86.2689
71.8156
74.4604
108.928
110.473
68.4915
89.4661
111.764
100.857
69.9092
65.4866
75.5293
74.8324
100.085
75.293
104.463
94.472
72.2465
110.66
110.416
109.815
77.6871
111.191
74.1264
89.5798
88.2247
71.6554
73.2594
110.469
72.4162
98.6757
73.8767
116.094
110.04
110.689
95.5218
100.004
69.8819
87.6449
78.3042
80.4177
76.6534
109.333
75.5075
73.9745
65.415
105.207
75.0453
125.405
86.3569
111.531
105.133
114.952
103.342
77.8874
84.0215
83.9487
79.3039
77.2462
77.3338
78.204
70.7658
73.0318
92.5716
107.796
76.752
79.534
81.6877
75.7506
74.9036
98.2237
104.342
103.684
77.1914
85.2461
93.4831
80.0055
127.973
90.284
69.7244
69.0291
93.4462
117.525
73.5423
81.1871
75.5267
74.4513
74.8631
73.9401
71.7053
73.2484
73.8466
73.3089
74.2486
73.7196
64.4433
66.1385
75.641
65.8115
75.3099
74.2254
73.0576
106.065
74.887
74.0718
72.9332
73.2132
93.7322
70.5088
91.6144
67.9047
93.3468
91.8407
69.0053
67.6053
90.0854
95.8688
93.6313
67.5925
92.6974
71.31
71.2922
91.7136
89.9716
68.5844
67.1739
67.3114
66.3206
93.1186
65.2311
65.9788
67.256
132.263
62.7739
66.2605
89.5159
74.4368
76.7711
71.7525
109.942
73.9918
73.4037
74.0866
67.6962
89.4856
73.1278
63.4357
89.5492
73.8099
110.208
71.8409
101.783
110.47
72.8101
90.4199
110.714
73.1934
63.3154
101.638
64.4371
63.1914
68.0256
70.6248
63.5043
110.538
74.6256
63.3922
68.9074
70.0891
92.6151
73.5386
69.7928
63.3181
65.7138
71.7336
63.3795
69.2573
92.4811
69.9182
110.728
74.1226
65.3349
77.5326
81.8707
81.3857
85.7591
68.7438
70.4923
81.1342
81.7139
104.73
74.3283
65.3826
80.946
82.3178
82.1027
75.0618
70.7339
68.1926
76.2451
66.8293
68.0922
70.1009
111.465
75.5082
72.7254
73.2982
70.4635
94.6242
70.8414
75.9489
103.829
110.848
74.4039
67.4351
109.607
80.6699
75.5602
78.5389
67.697
75.7217
63.8565
101.818
102.92
69.1162
71.262
69.606
80.5825
110.329
79.0758
68.6336
67.9329
76.5547
66.5646
79.8872
74.0232
68.4526
78.7319
66.8889
68.0633
65.0088
87.6003
113.236
63.7266
70.0746
104.849
94.0151
71.4918
75.389
65.4897
91.5263
65.3654
92.2653
79.9725
110.907
72.8125
75.0649
65.3751
68.8444
75.1987
67.2289
67.1913
75.9692
76.9785
96.4218
78.4665
78.4879
110.369
118.005
102.87
75.2725
67.2303
79.1683
122.127
70.3546
72.751
77.8443
109.21
109.791
76.4494
75.0581
86.1226
69.6198
67.6666
72.2953
79.9072
69.7405
68.3829
76.1521
75.8626
77.8768
74.8485
98.0119
66.7586
75.631
69.1031
96.6858
75.6165
68.9315
76.7531
72.1352
94.8693
80.8413
78.8065
81.187
118.417
93.3099
86.1678
94.243
93.7687
76.4624
109.988
68.434
91.0341
74.3036
74.8726
73.373
101.544
84.3741
70.7214
109.106
109.332
110.102
104.421
73.4495
100.258
73.9201
109.601
88.7915
102.827
69.8716
71.5543
76.6903
77.9979
68.58
81.899
102.776
104.513
86.2905
70.6402
96.0639
75.7967
78.3198
109.774
73.607
78.136
100.93
78.9594
110.992
73.9345
91.8517
77.0857
76.3397
77.8054
106.449
71.9865
102.199
111.841
74.7628
80.8354
74.579
75.1147
72.8573
109.755
95.9465
81.6291
103.587
73.8871
95.5899
82.0074
109.042
71.9948
109.646
95.8066
74.119
75.5779
109.24
77.9313
71.7306
92.8107
69.3874
89.4266
111.305
68.7744
101.058
73.7643
73.8864
111
96.4376
108.483
77.0196
107.809
109.029
80.884
108.856
79.5637
101.194
98.1566
92.2159
108.32
109.096
89.8899
74.4513
107.461
76.5867
74.3582
108.106
108.951
110.261
75.0056
75.8777
109.405
74.0177
109.151
75.5597
74.8299
96.4779
71.9031
80.2175
77.2617
70.9042
77.7306
76.1737
78.8467
108.829
101.507
68.4774
95.731
71.8527
72.4875
71.7833
73.5035
71.1638
75.8889
111.271
76.6366
71.3881
73.6762
71.6196
97.5054
109.7
74.6859
77.4278
69.6926
81.7656
68.571
89.7209
72.4929
71.1613
66.7671
62.432
106.21
111.52
75.0789
105.927
73.529
72.8906
111.031
73.6267
71.4618
97.8355
72.6639
74.5612
102.323
90.1897
72.3634
73.8784
110.997
110.778
82.2334
107.59
73.6799
98.9031
95.4364
75.5548
109.787
74.1624
65.8728
71.9734
67.0816
74.0741
113.5
108.621
73.3921
93.5565
65.5553
74.7972
75.1285
74.4138
79.5237
70.4703
89.6118
68.1739
75.8381
85.8789
75.2845
81.6272
74.3287
73.9513
109.605
101.611
76.4421
69.3756
67.8579
65.7237
75.1556
76.3146
70.5781
71.9632
79.8433
73.9967
111.565
102.245
67.1133
76.3455
73.9944
84.2784
95.7257
72.1139
111.015
72.4209
76.3439
74.1072
110.821
77.875
94.3191
76.1181
74.04
108.816
65.9052
67.9237
74.0705
100.288
102.34
96.1167
107.883
77.1012
74.3624
68.1545
68.1101
91.58
90.9745
108.744
74.1741
74.4427
74.8306
75.1669
77.3374
70.7564
72.1917
91.7664
105.745
70.1879
110.314
76.5926
71.7738
104.611
74.2019
66.0287
75.8913
109.315
107.361
109.926
90.6269
76.2673
81.5712
69.3425
101.861
75.2556
111.071
73.0937
72.0082
72.5368
109.885
66.6849
75.7972
110.997
76.317
109.335
82.1121
72.8725
76.675
72.3153
71.5505
73.1448
73.3583
71.5429
74.6015
72.1801
79.4131
95.5404
96.8981
81.0008
78.3584
77.3353
83.1121
95.1986
99.8349
88.6817
85.95
104.053
108.318
112.513
111.272
76.3263
75.5141
75.1156
73.393
102.731
101.494
111.115
75.5799
75.1148
91.6797
74.1372
69.6582
89.5407
75.8132
93.9275
72.5294
89.6693
106.653
98.8079
90.9101
73.7766
76.3131
109.86
72.6846
110.345
91.0854
77.0465
69.5379
75.2753
72.6246
65.9513
88.637
109.244
100.667
74.1283
90.3303
74.8411
71.4273
70.1911
66.2758
63.6097
74.3866
109.171
108.206
72.2533
65.9075
66.0206
109.744
95.8612
103.385
100.715
110.915
91.1852
108.443
67.6589
75.588
79.5005
111.15
89.8571
68.404
119.472
76.6042
95.0176
74.7987
105.219
72.0247
93.3334
73.942
90.0524
74.5552
73.228
71.1804
73.8871
68.7105
74.2191
110.562
110.471
111.006
73.0965
68.2495
110.481
72.2718
72.6104
93.1851
71.1663
102.248
75.3688
75.452
111.052
94.1682
71.9032
110.822
67.2978
90.0524
95.8434
96.9874
97.0765
108.518
76.1736
72.0134
91.2082
75.8918
81.1392
79.861
102.208
112.672
64.1285
66.117
69.206
91.5522
100.629
72.1428
93.1395
74.6449
111.098
72.6199
75.105
70.0019
109.638
109.715
75.3818
93.5244
77.8619
67.7123
94.6919
73.3574
95.3198
72.6535
94.3774
72.5074
65.8645
70.3467
80.9521
110.876
109.103
77.4813
72.9161
109.991
111.144
81.3483
101.057
110.766
103.97
73.6338
65.5332
104.689
67.6224
111.581
110.892
70.5033
76.3448
73.6857
65.4231
110.346
70.0646
103.867
71.6029
109.395
108.976
109.52
110.055
74.1883
89.3352
107.073
104.241
111.139
74.8149
112.929
73.1603
65.435
111.757
81.9951
75.7581
110.854
73.9455
110.038
69.8418
93.2633
110.174
109.889
74.2328
65.3741
102.546
73.933
110.568
110.293
110.676
110.437
103.589
103.247
109.419
109.484
109.589
109.732
101.051
80.7871
76.5502
109.527
109.896
73.9059
75.9488
110.761
94.2902
71.7517
75.9961
66.5348
65.9132
68.3566
75.5254
107.225
76.7518
75.8988
109.195
94.1786
110.104
108.903
112.039
101.435
102.355
76.5908
73.5614
100.568
111.346
99.6182
72.2558
94.5923
100.198
67.4537
110.028
108.077
90.286
103.958
106.406
89.8075
71.9705
65.5323
75.7846
108.984
71.7883
71.2476
67.7997
73.2513
66.9605
68.273
90.5591
105.362
86.5096
90.8462
65.6931
74.5262
90.5156
71.9211
102.793
102.402
71.7857
109.197
70.0228
109.774
91.7127
113.87
73.751
101.395
86.1875
94.1561
71.7168
74.2377
81.4726
105.825
71.1888
83.4279
65.846
68.3522
75.6328
66.086
74.1339
65.7166
71.766
106.118
80.7177
70.0429
69.5856
81.9145
101.106
110.407
73.5604
68.0565
75.6196
72.8791
74.8109
66.1397
79.8176
75.9065
73.5137
70.807
110.963
69.591
90.5713
91.7527
102.8
108.972
110.986
108.008
109.295
90.2073
105.806
106.184
109.752
92.9958
100.088
74.3618
109.104
66.215
111.023
111.249
73.2417
65.6304
97.5385
90.9301
101.608
74.1535
71.1231
75.0755
68.7688
97.5105
99.0471
81.7622
75.8485
67.1781
89.9263
89.7667
70.3644
81.6257
108.734
91.9647
72.7343
74.5247
65.7911
69.5471
91.6072
67.5701
89.8424
73.3128
69.9828
74.2163
79.9629
109.349
109.711
92.8965
71.1931
75.5166
75.1752
100.595
68.8551
72.2456
107.484
73.5889
103.079
69.5237
90.4629
72.2453
73.9231
79.8436
110.53
74.7108
110.856
68.5741
82.1437
75.1284
74.0064
78.7314
77.7068
101.252
109.963
91.8578
109.324
76.2955
70.3073
106.664
75.7343
67.9203
95.6868
71.5922
94.0004
74.1879
109.733
111.446
102.326
68.0799
66.0324
75.1326
97.6923
75.0075
74.591
94.7249
65.2302
74.321
91.3601
71.979
92.5721
102.093
92.6393
72.0512
77.1428
89.5275
75.1338
67.7664
98.0491
71.7839
95.2168
74.3043
68.2446
74.7853
65.5715
71.8021
66.0961
69.5444
110.061
75.5976
97.4573
110.991
77.8699
65.2649
105.393
75.9979
67.8308
111.723
103.968
111.743
98.3397
72.1138
67.3319
111.247
97.1309
110.977
75.8669
65.7585
75.4553
68.18
70.3917
83.3302
74.3987
110.256
75.5053
109.944
71.8707
70.0939
98.6928
108.456
108.708
76.1431
108.882
92.1856
109.753
108.802
76.2041
70.4987
107.971
92.6506
108.894
107.729
108.583
75.5558
110.271
88.6686
111.278
107.146
82.8694
78.3532
111.495
111.677
110.76
109.044
74.6287
104.594
110.296
85.9503
113.136
110.531
70.7327
110.265
68.7833
69.2504
64.7848
68.0153
68.651
67.1496
73.8066
75.7961
90.3086
106.993
112.035
73.4015
102.87
72.6506
76.915
76.5115
103.229
88.6103
65.4834
74.4276
110.499
68.539
89.91
109.444
74.1791
109.969
94.6129
72.2711
105.925
73.4791
76.501
110.777
74.8859
69.4075
70.4946
69.8457
91.4562
76.7837
67.0716
67.1093
106.901
109.923
108.525
109.577
110.169
110.624
101.768
107.873
91.9112
74.3636
110.597
98.3277
71.9216
110.304
72.7766
92.4534
74.3167
72.2565
72.9339
65.5835
70.6547
69.5767
71.5621
77.0143
89.1215
70.3367
75.273
92.6505
121.882
88.1592
93.4139
105.385
112.396
101.918
99.8555
98.5164
70.0211
68.985
65.9527
71.5232
71.9769
71.1544
93.7334
70.5198
109.551
109.766
110.395
)
;

boundaryField
{
    frontAndBack
    {
        type            empty;
    }
    wallOuter
    {
        type            zeroGradient;
    }
    inlet
    {
        type            zeroGradient;
    }
    outlet
    {
        type            fixedValue;
        value           nonuniform 0();
    }
    wallInner
    {
        type            zeroGradient;
    }
    procBoundary1to0
    {
        type            processor;
        value           nonuniform List<scalar> 
29
(
66.593
66.593
61.7133
60.9928
67.9355
68.3252
100.242
70.7918
74.8993
65.8585
68.2848
68.3252
61.7133
67.6315
100.976
101.387
67.9355
68.224
60.9928
67.3499
101.545
101.571
69.3889
100.213
100.213
69.3889
102.235
100.361
102.235
)
;
    }
    procBoundary1to2
    {
        type            processor;
        value           uniform 67.0579;
    }
    procBoundary1to3
    {
        type            processor;
        value           nonuniform List<scalar> 
48
(
68.1055
69.8994
69.088
69.088
72.6208
69.8174
69.8174
65.4442
67.3842
70.9177
69.6935
70.9177
71.145
65.7101
66.1781
71.145
68.7292
68.7292
67.3593
67.3593
65.7153
65.4285
67.9983
69.3612
69.3612
69.6892
65.3668
65.3668
65.2042
71.4908
70.7368
65.2042
65.4442
66.8198
68.0762
71.4908
65.917
69.6935
67.9468
72.6609
65.888
66.3104
66.8198
68.0762
66.4214
73.442
72.544
65.888
)
;
    }
}


// ************************************************************************* //
