/*--------------------------------*- C++ -*----------------------------------*\
| =========                 |                                                 |
| \\      /  F ield         | OpenFOAM: The Open Source CFD Toolbox           |
|  \\    /   O peration     | Version:  v1912                                 |
|   \\  /    A nd           | Website:  www.openfoam.com                      |
|    \\/     M anipulation  |                                                 |
\*---------------------------------------------------------------------------*/
FoamFile
{
    version     2.0;
    format      ascii;
    class       volVectorField;
    location    "0.35";
    object      U;
}
// * * * * * * * * * * * * * * * * * * * * * * * * * * * * * * * * * * * * * //

dimensions      [0 1 -1 0 0 0 0];


internalField   nonuniform List<vector> 
1466
(
(3.57598 -0.0296696 -1.43759e-16)
(4.81077 -0.113102 -3.39944e-19)
(-2.62859 -0.201861 4.65058e-16)
(0.303042 9.59273 -3.20014e-17)
(0.58217 -1.04278 -5.77904e-16)
(-2.19675 0.140524 -8.92214e-16)
(0.120899 -0.0573588 1.76764e-16)
(3.64314 -0.386772 1.17669e-16)
(7.34976 0.111658 -9.44387e-19)
(4.81976 -0.134723 1.27869e-16)
(6.2045 -0.183061 -1.62676e-16)
(5.11121 -0.482334 0)
(8.32477 0.0616852 0)
(0.473132 -1.62738 -1.23359e-16)
(-1.18788 0.237881 0)
(4.93844 -0.453826 1.24667e-16)
(2.62581 -1.69519 -7.76902e-17)
(0.0090026 5.34622 -2.33762e-17)
(0.953297 5.66863 -7.3775e-17)
(-0.042834 7.88082 1.10625e-16)
(0.107877 7.61587 5.20317e-17)
(-1.97089 0.0238621 5.09798e-18)
(0.0309519 6.27686 -5.1358e-17)
(-0.126327 7.65543 -1.19121e-17)
(8.22588 0.140339 6.98434e-17)
(-0.470969 0.116043 -2.73387e-16)
(-1.23711 0.530732 -1.17584e-16)
(-0.0592748 7.77859 0)
(-1.72713 -0.366502 0)
(4.90762 2.4676 4.81272e-17)
(6.49696 -0.521224 1.05366e-16)
(-0.503664 -0.0431334 1.70386e-16)
(-0.34976 -1.1358 2.14536e-16)
(-0.367936 7.297 1.09233e-16)
(4.6128 -0.191645 8.78779e-17)
(-0.910313 0.854056 2.07208e-16)
(-0.4151 6.8913 0)
(2.478 -0.716641 -2.36665e-16)
(5.09793 0.179152 -2.63337e-16)
(2.54202 0.214605 -2.86044e-16)
(-1.96995 -0.0458145 -1.2756e-16)
(-2.82817 0.0165882 -2.94143e-16)
(-2.92439 -0.093438 1.61934e-16)
(-0.677403 -0.370763 1.36342e-18)
(1.99571 0.0596087 -3.2689e-18)
(4.32643 0.00882881 0)
(6.26436 0.149741 6.41507e-18)
(2.38651 0.161188 0)
(-2.01093 -0.358821 1.25203e-16)
(1.18257 -0.334747 0)
(-1.03933 0.331451 -1.06198e-16)
(4.71992 -0.065126 -3.43077e-16)
(-2.4068 -0.105024 5.99241e-16)
(1.37534 -0.638139 5.32254e-16)
(-0.873825 -0.507578 -9.8649e-17)
(6.3827 -0.0447606 1.19383e-16)
(3.82361 -0.256848 -1.61608e-17)
(6.03235 0.0386879 0)
(-0.00418923 -0.286328 1.14913e-17)
(4.72166 0.0444553 0)
(0.36578 -0.120182 2.63654e-19)
(-0.257621 -0.840129 -1.07906e-16)
(2.45676 0.391477 1.23771e-16)
(4.16421 -0.205797 1.29791e-16)
(1.39582 5.799 -1.58064e-16)
(2.29444 0.564504 1.92569e-16)
(-0.386066 1.90246 0)
(-0.114084 5.38855 2.30292e-17)
(7.48504 0.55016 2.72032e-17)
(-2.17754 0.0180715 -1.49104e-16)
(1.29247 0.75088 1.13313e-15)
(-0.112445 6.14351 0)
(-0.0562079 6.33048 0)
(8.13882 0.215588 -1.41062e-16)
(0.0343299 -0.539624 2.84658e-16)
(6.2904 -0.0406362 -1.04006e-16)
(0.0573395 -0.817338 9.25298e-17)
(2.33453 0.356681 -7.46506e-17)
(-1.35416 -0.103095 0)
(3.9463 0.839229 0)
(4.27695 0.0342727 -1.21599e-16)
(5.12877 -0.303416 -1.48251e-16)
(-1.56035 1.12961 -2.3556e-16)
(0.913538 3.25587 2.4655e-16)
(-0.107222 5.53571 9.7545e-17)
(0.611409 5.8118 3.78129e-17)
(-0.479725 8.39324 0)
(3.75895 0.301647 1.58185e-18)
(4.88332 0.114496 2.38493e-16)
(-0.147854 0.221191 -3.20914e-16)
(-0.149824 0.140531 -9.53603e-17)
(-1.91957 0.349079 -2.10066e-16)
(0.40795 7.68404 -3.55811e-17)
(3.27195 0.530371 -1.44528e-16)
(1.96955 -0.505978 0)
(-1.86286 -0.270774 -3.20382e-16)
(4.58897 -0.133325 3.01981e-16)
(6.37835 -0.000546096 -6.65239e-18)
(6.54686 -0.121913 2.98919e-16)
(0.0736874 -0.272716 9.61459e-17)
(-1.79136 0.299838 5.07597e-16)
(-0.353837 -0.0098092 0)
(1.69585 0.068608 3.25217e-16)
(-1.15086 -0.592051 3.24529e-16)
(-2.84514 -0.133928 -1.20994e-16)
(4.02173 0.233229 5.45811e-17)
(-2.52658 -0.176735 -2.25438e-17)
(2.17857 -0.246916 0)
(5.53566 -0.389464 1.59087e-16)
(3.31202 -0.0769015 5.81788e-17)
(0.185249 -0.0475958 -2.7388e-16)
(5.02693 -0.0766281 3.48976e-17)
(3.85601 -0.368035 -2.49226e-17)
(-3.05269 -0.0117862 -3.7194e-17)
(4.2838 -0.317326 0)
(0.547523 0.158094 8.79328e-17)
(-2.64383 0.152095 1.33714e-16)
(3.87009 -0.0249103 0)
(-1.15021 -0.409073 1.28131e-16)
(2.74503 0.0972859 -4.0576e-16)
(0.040045 9.06862 -2.55687e-17)
(1.48004 -0.593558 2.33862e-16)
(1.22493 0.371759 -7.56155e-16)
(-0.0888166 -0.318353 0)
(1.81327 -0.00194309 -5.99079e-16)
(-1.10153 1.18254 -1.21402e-18)
(6.6551 1.02158 4.31454e-17)
(-0.257427 5.88422 -5.62646e-17)
(-0.11842 7.46526 1.88019e-17)
(0.840771 0.470095 1.76186e-16)
(4.96185 -0.00826965 1.99922e-17)
(-2.3178 0.169783 0)
(-0.14384 6.41756 3.51978e-17)
(-0.173319 7.72515 2.4749e-17)
(-0.0457082 -6.42211e-05 -1.6162e-17)
(-2.58607 -0.269944 0)
(2.74777 0.0430964 0)
(0.762689 -0.572568 -9.84261e-18)
(-2.15415 -0.208219 -7.40414e-17)
(2.79853 0.17621 1.34991e-16)
(0.359256 -0.588729 0)
(-0.017746 7.77002 -5.04624e-17)
(-0.102079 6.8421 -2.27027e-17)
(0.37586 5.24271 -2.0657e-18)
(-1.46687 -0.420342 -2.03973e-16)
(0.955301 6.52284 7.91011e-17)
(-0.50463 -0.0426056 -2.94036e-16)
(0.512997 0.0847352 -4.64277e-16)
(1.55639 0.720784 -6.89097e-17)
(-0.944837 -1.12033 1.16989e-15)
(-0.0227821 0.122812 1.78444e-16)
(3.42768 -0.134188 -8.02083e-20)
(7.08822 0.877753 -1.54591e-19)
(0.868949 0.14708 0)
(1.58498 0.712501 0)
(-1.92426 0.115055 1.96104e-16)
(-0.134069 7.75451 -1.20437e-17)
(-0.540446 9.13238 -1.03165e-16)
(-0.229182 0.0250765 1.1198e-15)
(5.51289 3.77606 5.89627e-17)
(-0.491065 0.00725409 1.30563e-16)
(5.56415 1.37692 0)
(0.572643 3.03403 6.98554e-17)
(-0.0666434 7.02444 2.04707e-19)
(2.69153 2.61812 0)
(-2.51614 -0.197207 1.32929e-16)
(-0.116489 6.90398 0)
(-0.192786 4.88909 1.74821e-16)
(-0.0573691 6.71165 -2.49095e-17)
(2.00432 8.93776 5.16756e-17)
(-0.0462905 6.85034 1.68705e-16)
(-0.425564 0.0665563 -1.25799e-16)
(1.64415 -0.0533393 3.95833e-17)
(7.39191 0.713551 -1.41394e-17)
(3.97434 -0.00366213 -2.33318e-16)
(7.65576 0.143992 -2.72409e-16)
(5.23677 3.04279 1.5279e-16)
(3.74115 1.73348 -7.12792e-17)
(0.00971693 0.0139834 -3.65253e-16)
(1.0005 1.06622 -2.40488e-16)
(8.58347 0.166054 3.40992e-16)
(3.9904 -0.136389 -2.33793e-17)
(-0.0304607 4.7922 -1.63431e-16)
(1.33581 0.435835 2.60377e-16)
(4.05974 0.217432 -3.9823e-17)
(0.215361 5.53196 -2.47697e-18)
(-0.0572263 5.46919 -9.64595e-17)
(2.04241 4.56164 -1.3332e-16)
(7.34953 0.375379 6.68212e-17)
(-1.22857 -0.00071837 3.82527e-16)
(-0.0145991 6.94609 -1.13777e-16)
(0.420977 -0.230124 2.76728e-19)
(0.82612 4.62718 5.93163e-18)
(0.764718 6.18971 2.06895e-16)
(5.88215 3.29897 -3.50428e-17)
(0.334552 0.138269 0)
(-1.57011 0.203119 3.11209e-18)
(3.39198 1.18114 -3.45656e-16)
(1.36798 2.27288 -2.43675e-16)
(1.69817 5.85764 -4.17833e-16)
(0.630151 3.58176 0)
(1.1641 0.556795 0)
(5.53552 2.26644 -3.80691e-21)
(0.585932 2.90388 0)
(1.45718 0.585073 1.95063e-16)
(1.74896 1.81344 -1.783e-16)
(0.579936 6.92973 -9.13001e-17)
(6.8351 3.6808 0)
(-0.0809181 0.0958265 1.43061e-16)
(-0.0417498 7.78014 1.68214e-19)
(0.572883 6.08251 6.85225e-17)
(-0.0928748 5.5516 -9.15464e-17)
(-0.24692 2.30159 0)
(-0.0893939 7.29697 1.21321e-16)
(0.249052 7.39801 -3.23724e-17)
(-0.0544883 6.8242 5.49797e-19)
(0.0249147 5.53639 2.66603e-18)
(0.021197 5.26173 -8.68102e-17)
(3.69288 4.13246 1.34304e-16)
(-0.149101 7.28651 1.69763e-16)
(-0.26979 5.4644 -1.2856e-16)
(0.575941 0.083459 -1.24887e-16)
(-0.0102853 6.58729 -1.78407e-16)
(0.623731 0.161225 2.39566e-16)
(-0.0317416 6.60638 7.89876e-17)
(3.63246 3.6134 -1.40134e-16)
(-0.923983 -1.48108 4.69519e-16)
(0.79488 1.00217 -2.32144e-16)
(-0.0309406 0.117717 -2.98095e-16)
(0.530842 0.0290899 -2.80512e-20)
(0.765591 0.255254 -6.05227e-16)
(4.37383 0.114377 2.07892e-16)
(0.993864 5.03373 1.05731e-16)
(0.458357 3.35408 1.86536e-16)
(-0.923325 0.777139 5.65216e-17)
(2.17925 1.34084 -6.99613e-16)
(-0.103205 6.84141 3.32623e-17)
(0.0354261 5.02929 1.6649e-17)
(0.577985 0.265286 2.53038e-16)
(0.00488782 6.61593 2.1769e-17)
(0.293863 1.95116 0)
(4.36803 0.786219 4.49184e-17)
(5.82114 3.19276 8.03297e-17)
(2.32429 4.32608 1.92762e-16)
(0.110363 0.186229 0)
(5.99062 1.26684 0)
(-0.464003 -0.0374876 0)
(8.5287 0.337187 0)
(3.00363 0.843197 -1.19109e-16)
(6.05493 3.64953 -7.29375e-17)
(-0.0215563 6.1937 -4.70604e-17)
(1.18313 6.22864 -2.27541e-16)
(6.98096 4.2674 3.65757e-18)
(4.20123 -0.483125 -8.91773e-17)
(-0.514208 0.0560546 3.21424e-16)
(0.352491 0.0228911 -2.91943e-16)
(-0.195453 7.94706 0)
(8.93029 3.97668 -1.65716e-16)
(-0.0205018 4.00774 -6.44921e-17)
(-0.0823069 2.38403 1.08787e-16)
(0.0616769 -0.60869 0)
(-0.194723 6.5495 -2.19421e-17)
(-0.165695 7.70562 -3.10176e-17)
(0.546998 -0.039327 3.45827e-21)
(4.35584 3.86403 9.00966e-18)
(1.32217 0.0836661 -2.85082e-16)
(4.14022 -0.0718807 2.40894e-16)
(1.56804 0.784826 -1.22674e-16)
(0.490151 6.77347 -1.66973e-17)
(9.24093 3.59574 -8.17138e-17)
(1.7969 4.11139 -1.15874e-16)
(-0.029466 3.99684 0)
(-0.233449 -0.701731 7.16191e-18)
(-0.0233782 0.106381 -1.83614e-16)
(-0.159124 0.0549675 -4.0767e-16)
(0.80954 0.192636 4.58885e-16)
(0.25895 0.166409 -2.54749e-16)
(2.74715 5.40739 -1.1429e-16)
(-0.100369 6.30966 -1.11361e-16)
(2.04116 0.874281 1.83398e-16)
(0.38147 -0.0608555 2.25872e-16)
(1.74139 -0.992013 2.28678e-17)
(2.52279 3.80592 0)
(5.4727 0.566197 -3.98213e-17)
(-0.164261 -1.62347 4.31478e-16)
(0.818842 -0.362781 -1.69665e-16)
(2.67957 1.31454 0)
(2.74219 1.2921 -3.39012e-16)
(-0.294797 -0.282257 0)
(7.86465 4.10242 -2.7115e-16)
(7.77298 1.22838 1.36944e-16)
(2.93794 -0.0048436 -1.69365e-19)
(8.49964 0.122755 -3.52493e-16)
(-0.672194 -0.0293303 0)
(3.90061 5.90152 9.90432e-17)
(1.00692 2.39612 -3.90107e-16)
(0.072825 3.83121 1.16673e-16)
(0.940719 -0.727717 3.92943e-17)
(2.60642 1.26787 8.2061e-17)
(0.351867 -0.0411125 -2.75356e-16)
(0.588175 -0.995769 0)
(-0.72219 0.0223107 1.89085e-16)
(-0.521577 -0.265026 0)
(8.7039 0.397383 -2.12482e-16)
(-0.69179 9.25053 0)
(0.0450653 1.60654 9.29463e-17)
(1.27911 0.343819 1.50501e-16)
(0.191495 -1.58989 -2.33964e-17)
(3.21177 8.47544 -2.61131e-17)
(0.0239661 7.29781 6.2763e-17)
(7.17584 1.95368 1.52367e-16)
(-0.384822 4.41515 0)
(-0.152666 6.86576 -3.62754e-19)
(3.10008 0.372611 -1.46358e-16)
(3.92465 1.9421 -1.92109e-16)
(4.95755 2.96929 -2.8935e-16)
(-0.11952 0.0506605 0)
(5.36821 3.6211 2.17594e-16)
(-0.2421 -1.20311 0)
(-0.563844 0.283555 3.18684e-16)
(-0.00580087 -1.30674 0)
(-0.0145503 3.97913 -1.22532e-16)
(0.072271 1.87456 -6.71593e-17)
(0.236034 -0.0328367 3.59837e-16)
(-0.18406 9.0888 -1.6818e-17)
(7.80889 5.27524 -8.51997e-17)
(1.1449 -0.198342 -8.26863e-17)
(4.88255 3.81928 -2.1536e-16)
(-0.0522994 -0.0595652 -2.92771e-16)
(3.09415 0.150687 1.792e-16)
(0.0222657 5.86155 9.21769e-17)
(7.88623 4.68366 5.1455e-16)
(-1.61902 -1.13591 -3.56133e-16)
(3.58335 7.29481 2.14079e-17)
(2.43881 2.75362 -1.48353e-16)
(7.19126 1.76938 6.19732e-17)
(2.497 1.44063 -3.90341e-16)
(0.613778 0.166845 4.43243e-16)
(1.86409 1.01251 -1.9996e-16)
(0.775494 -0.26836 -1.92187e-16)
(1.51164 0.330424 2.24471e-19)
(6.62514 3.24035 6.79957e-17)
(1.31918 -1.54979 3.97196e-17)
(3.25689 3.37078 -3.49857e-17)
(1.60079 8.87578 -5.65947e-17)
(-0.806423 -0.180316 -9.91574e-17)
(5.73489 0.461888 -1.87252e-17)
(3.87427 6.15628 -7.94065e-17)
(7.06925 0.249616 2.49822e-17)
(2.8848 2.28458 1.62104e-16)
(6.32189 4.6117 -2.29743e-18)
(8.59785 2.76128 -4.72973e-17)
(0.0848441 10.4167 -5.64962e-17)
(0.907384 0.944758 1.21525e-17)
(-0.85018 -0.930782 0)
(1.01949 1.66376 2.11975e-16)
(-0.534617 3.76286 -1.93464e-16)
(3.57181 0.460277 7.43319e-18)
(9.50361 2.51287 0)
(3.50302 7.45752 2.3516e-17)
(-0.305969 -0.310957 0)
(1.39742 2.99551 9.92975e-17)
(1.96738 5.07529 1.02405e-16)
(0.172837 3.02833 0)
(-0.49067 -0.785245 -2.89365e-16)
(-0.0552202 1.93695 4.27252e-19)
(7.19361 3.02 5.37512e-17)
(7.38918 2.58259 4.69219e-17)
(-1.01144 -2.01597 1.65267e-16)
(2.83502 7.02173 3.67176e-18)
(3.03395 8.99022 0)
(0.76363 2.49841 1.07818e-16)
(1.40154 3.00159 -3.45431e-17)
(3.03533 8.52435 -2.98403e-18)
(-0.1239 -1.79234 5.39301e-16)
(0.0682465 5.59636 3.49537e-17)
(3.1509 -0.490863 -2.52848e-17)
(1.23117 5.43206 7.50848e-17)
(3.0482 0.156391 4.12636e-16)
(4.09662 4.69589 -8.02574e-17)
(0.614054 2.06957 1.02279e-16)
(1.14619 2.40901 -3.20966e-16)
(0.65298 2.67556 -1.90965e-16)
(0.677005 3.23204 2.61982e-16)
(1.11512 3.69348 0)
(1.16193 3.05447 1.44506e-16)
(0.684941 -2.14977 -1.92911e-17)
(0.301327 -2.42261 -1.855e-16)
(0.153742 -1.83726 1.66654e-16)
(0.11656 -1.43716 -4.45245e-17)
(-0.329683 -0.328622 2.05668e-17)
(0.0511694 3.5058 4.36738e-17)
(0.0254216 1.72502 -6.12637e-17)
(0.261105 3.64238 -5.01207e-17)
(0.0810624 -0.0970391 4.17087e-19)
(-0.056791 -0.637508 1.56092e-16)
(0.13344 -0.521082 -6.01415e-17)
(1.22351 7.15121 -2.97139e-17)
(-0.0729804 -0.241867 8.55829e-17)
(0.0603269 -0.324693 0)
(0.183814 0.337258 -2.06212e-16)
(0.769235 0.455927 2.24339e-16)
(1.58645 8.92635 0)
(-0.588626 -0.904405 2.59661e-16)
(1.19222 9.77375 -1.91663e-17)
(0.135999 -0.149308 7.39447e-19)
(1.61642 7.72223 -2.99744e-16)
(-0.269317 0.352079 -1.29423e-16)
(2.54173 -0.309401 0)
(1.83746 -0.104853 9.71966e-17)
(0.0898364 0.503629 -1.51265e-16)
(1.36545 6.81333 -1.3643e-16)
(1.06057 3.41885 2.58041e-16)
(0.991679 -0.155399 5.59996e-16)
(2.83594 1.36387 -1.16056e-16)
(-0.461278 -1.52005 0)
(-0.655341 -1.07601 0)
(0.962682 0.82878 1.40084e-16)
(0.371645 0.26917 0)
(4.06592 -0.808001 0)
(0.45219 0.137247 -1.72969e-16)
(-0.341172 0.0691444 3.88505e-16)
(4.05436 -0.750673 0)
(1.02014 4.49303 1.03319e-16)
(2.49784 -0.827819 9.92158e-17)
(0.278959 0.0836703 1.74057e-19)
(-0.086445 0.517943 4.29813e-16)
(2.14542 0.575447 2.83862e-17)
(1.68948 -0.410828 -5.52834e-16)
(0.609335 -0.142439 3.00219e-16)
(0.787035 -0.0241597 0)
(-0.0791431 -0.616909 -1.10166e-19)
(-0.394453 -1.11507 5.51959e-16)
(-1.5593 10.281 1.70813e-17)
(2.17036 -0.0420379 -5.11304e-16)
(-0.132943 -0.435191 -4.54998e-16)
(-0.545893 -0.502424 7.75171e-17)
(-0.379629 -0.866351 -7.79162e-17)
(-0.168406 -0.865086 3.07656e-16)
(0.141532 -0.0867873 -3.59514e-16)
(-0.307231 0.270569 4.64287e-17)
(0.451078 -1.1578 -8.01046e-17)
(1.0676 -0.211767 2.62307e-16)
(-1.18729 -0.40445 0)
(1.33824 -0.0399817 -3.10177e-16)
(3.27343 -0.677804 1.28917e-16)
(8.67451 0.101495 7.59369e-17)
(2.19378 -0.107093 0)
(3.15832 -0.403064 -7.45481e-17)
(1.81251 -0.372346 1.53655e-16)
(2.56462 -0.144188 8.64649e-21)
(3.32394 -0.0545533 -9.98767e-17)
(0.184572 0.459253 -3.93779e-17)
(8.70177 0.134157 3.50549e-17)
(0.0986722 1.78659 -1.96295e-18)
(0.0520361 -1.18474 4.79808e-18)
(0.45609 1.08698 0)
(-0.734554 1.87427 0)
(0.0134254 -1.37014 0)
(1.46935 -0.0945343 2.72713e-16)
(-0.0763822 -1.7721 -4.44092e-16)
(-0.12387 -0.189643 -2.57385e-17)
(-0.290137 1.39729 -1.82662e-16)
(-0.643465 1.89992 5.32686e-16)
(1.13304 -0.971184 2.1598e-16)
(2.56859 -0.137459 -1.18055e-16)
(1.68213 4.16342 -8.62531e-17)
(0.454241 0.304741 -3.38465e-17)
(3.28295 2.36398 -3.94081e-17)
(1.92342 3.54767 4.84899e-17)
(1.49242 1.93713 1.08271e-16)
(0.350813 1.41462 -1.62687e-18)
(-0.52226 -1.43819 -6.04936e-16)
(0.40529 1.30708 1.59794e-18)
(1.07362 -0.08217 1.55969e-16)
(1.83154 -0.141439 5.23072e-19)
(0.755248 0.516306 -1.90172e-16)
(0.739371 3.18041 0)
(0.484171 2.23081 0)
(1.60275 1.17037 -7.8774e-18)
(2.53694 7.65857 -8.05638e-17)
(-0.445864 5.07462 1.54042e-16)
(-0.463367 9.15673 -1.00411e-16)
(0.526213 2.69088 7.24739e-17)
(0.950662 1.44661 -2.83056e-17)
(6.86474 4.81099 -1.71327e-16)
(1.69685 -0.0103609 -1.43292e-16)
(0.609642 0.653898 1.78787e-16)
(0.52474 2.52775 -9.98904e-17)
(1.58008 5.3102 9.61256e-17)
(0.762884 0.890603 1.23088e-16)
(-0.0676128 7.85454 3.11252e-17)
(1.1966 -2.12277 -1.67742e-16)
(1.29198 4.54546 8.59623e-17)
(0.952044 2.81882 0)
(0.237827 4.58392 2.29501e-17)
(0.0153341 5.31211 0)
(0.963818 4.22617 5.09506e-18)
(4.64615 2.85934 0)
(0.102773 2.66006 5.53303e-17)
(0.639569 3.82199 0)
(0.389656 4.47506 0)
(-0.17917 3.02823 -1.52637e-18)
(-0.0880076 -1.40899 2.50921e-16)
(-0.131693 1.55337 -2.21488e-16)
(0.198305 3.91477 0)
(2.2801 8.1295 0)
(1.9995 -0.052745 2.26018e-16)
(2.40578 0.296032 9.96305e-17)
(0.0970815 4.94289 0)
(1.74601 -0.054465 2.83487e-16)
(1.03288 2.08044 -1.29661e-17)
(0.324033 2.92753 4.81184e-17)
(-0.628807 9.58249 -5.85504e-17)
(-0.148693 5.37399 -7.15135e-17)
(0.0981848 2.95133 -8.64263e-17)
(1.51158 2.83266 -1.73e-17)
(8.73868 0.142693 -3.21488e-16)
(8.29384 0.27508 7.88532e-18)
(2.34922 -1.20066 4.94803e-16)
(0.597551 4.23706 -3.09128e-18)
(3.92525 2.63657 1.61441e-16)
(0.136516 4.34693 5.63116e-18)
(5.77532 4.90318 0)
(0.948753 2.70458 0)
(2.59713 3.90412 2.36461e-17)
(3.41733 3.11253 0)
(0.283391 -0.987695 -4.03725e-16)
(1.98673 4.19183 -3.38808e-17)
(0.498462 3.2016 -9.32424e-17)
(0.574164 -0.375252 1.82201e-16)
(-1.11005 10.397 -1.97236e-17)
(0.231302 0.860719 -2.36269e-16)
(0.495281 4.65419 0)
(0.492992 4.77782 0)
(2.52924 3.32422 -2.89595e-17)
(5.27911 6.26625 0)
(2.30325 6.72114 0)
(0.645033 2.258 0)
(-0.293443 8.46847 -1.07891e-16)
(6.7629 5.52997 6.76146e-17)
(-0.682626 -1.25006 -2.41782e-16)
(0.0927615 1.66386 -2.114e-16)
(0.00991376 1.75643 1.69417e-16)
(1.27839 4.14143 4.61515e-17)
(4.50479 7.26366 -2.96759e-17)
(0.659818 3.91068 1.48092e-18)
(6.58379 6.27128 -3.44724e-17)
(-0.166375 6.49666 -4.06281e-17)
(1.35247 0.0361444 1.24977e-16)
(2.31021 -0.959364 1.81469e-16)
(1.71649 0.275383 7.87818e-17)
(0.219176 1.10012 -3.91307e-17)
(0.73524 4.5855 -7.63198e-18)
(-0.738429 9.97077 2.38708e-17)
(-0.195177 5.15908 1.1708e-16)
(-0.0582779 4.98315 1.85657e-19)
(0.109863 1.78195 2.61431e-17)
(2.06951 -0.258451 1.22995e-16)
(7.4551 5.87097 -1.49469e-16)
(0.417209 3.68927 1.13367e-17)
(-0.464164 -0.507729 1.78826e-16)
(0.776557 -0.0655246 2.93783e-16)
(4.36503 4.82564 2.60078e-17)
(8.32888 0.3571 -2.71781e-16)
(-0.0614062 0.617822 7.04168e-17)
(0.857863 4.68148 5.43076e-18)
(0.0805223 4.75699 -1.06929e-17)
(2.58453 5.01443 5.80234e-17)
(0.075189 6.06521 7.18694e-17)
(-0.119937 9.00249 1.53626e-17)
(0.0680659 5.13357 0)
(0.784308 0.405258 0)
(3.98798 2.08348 4.68685e-16)
(1.6506 2.17898 -5.02952e-18)
(-0.304306 9.0651 4.27682e-17)
(8.75095 3.58776 -3.65717e-17)
(0.201235 5.3252 1.92776e-17)
(0.278294 4.86576 -1.05323e-17)
(5.55953 -0.456434 2.15946e-16)
(1.66282 1.91945 -4.46383e-17)
(-0.052958 6.36371 -3.30844e-17)
(0.188822 5.08861 7.74997e-17)
(0.350693 3.71007 -1.32169e-16)
(0.279714 2.10103 1.85873e-16)
(1.3939 2.53004 5.11154e-17)
(-0.00641644 9.27195 4.7879e-20)
(8.95211 1.8528 1.01572e-17)
(0.0416709 4.55484 -1.35134e-16)
(0.0502485 0.755384 -1.12746e-16)
(-0.5947 8.68866 -5.94745e-17)
(5.50112 7.00013 0)
(-1.3461 -1.36549 0)
(0.351507 4.88978 -8.02155e-17)
(0.218442 6.78376 2.66801e-19)
(-0.0744487 6.94882 2.59671e-17)
(1.61679 5.49373 6.90105e-17)
(-0.440827 10.5803 4.59745e-18)
(2.26581 1.78328 1.87381e-18)
(-0.262936 8.68744 1.43354e-17)
(4.31768 2.45562 0)
(8.5319 4.72379 -5.78e-18)
(8.33213 4.37164 -7.02024e-17)
(3.69765 8.23787 2.85968e-18)
(0.880869 3.7227 -6.66043e-17)
(-1.05 -1.07061 -1.59315e-16)
(1.78651 -0.0376919 -2.07016e-16)
(1.11392 0.965852 -1.04387e-16)
(-0.779399 -0.971352 -1.00936e-16)
(0.398739 3.96727 0)
(0.880605 2.05358 6.0463e-18)
(0.443121 7.14294 0)
(6.32707 6.38301 0)
(5.85414 5.33483 3.62559e-17)
(-0.178187 7.04926 0)
(5.84567 4.02685 1.02643e-16)
(4.26693 2.21717 -1.26947e-16)
(5.51695 5.9014 4.55798e-17)
(7.49962 1.40819 0)
(-0.156104 9.42184 -5.86962e-18)
(4.31011 7.75219 1.04126e-17)
(0.55723 -1.07374 3.21772e-16)
(1.07465 -0.0592672 -1.52086e-16)
(7.3315 5.47527 2.01777e-16)
(7.44429 0.129311 -5.26847e-18)
(0.491766 4.61762 8.2539e-17)
(-0.497018 7.87136 8.18323e-17)
(-1.24601 -1.4027 9.13433e-17)
(-0.873073 -1.26806 -1.53651e-16)
(-0.0956275 5.8727 0)
(1.33548 0.538217 -4.04721e-17)
(7.66282 3.55306 9.79077e-17)
(7.51709 1.74181 -1.02491e-16)
(7.66786 4.76181 5.63312e-17)
(0.304154 5.06401 -4.10674e-17)
(9.02713 2.89204 5.1597e-17)
(-0.377015 9.3442 -5.84583e-19)
(-0.207226 8.92565 -1.94411e-17)
(2.8876 1.16247 3.79582e-16)
(0.0152486 9.56653 3.05751e-17)
(-0.149355 6.79263 4.08895e-17)
(0.559078 8.80219 2.76141e-17)
(0.210048 10.7129 4.71919e-18)
(0.702445 0.207272 2.08504e-16)
(0.174566 5.48458 -7.11872e-17)
(8.19724 5.21323 -8.69201e-17)
(-0.932947 -1.61723 8.95007e-17)
(0.130098 4.81523 0)
(0.0113678 10.7953 2.12273e-18)
(4.96266 6.91788 -2.24105e-17)
(0.357983 4.85234 -3.81663e-17)
(8.62752 0.392267 3.84597e-16)
(4.07417 0.34284 2.78334e-19)
(0.513563 -1.16647 2.44029e-16)
(-0.0507436 0.345278 2.0733e-16)
(0.202255 4.98462 1.41592e-16)
(1.85777 0.643436 1.38281e-16)
(-0.265742 7.38518 9.41813e-17)
(-0.0490483 -0.0648594 3.73028e-16)
(9.37804 1.1762 6.27868e-17)
(0.223937 4.01326 -6.98407e-17)
(4.86656 0.032882 4.6946e-18)
(-0.141261 -0.545418 4.40934e-16)
(8.63388 4.17835 0)
(0.543434 0.367205 0)
(0.442406 0.25246 1.6827e-16)
(-0.344387 4.0661 1.20592e-18)
(1.94831 0.717354 0)
(2.9087 -0.295734 0)
(2.63728 0.728947 0)
(0.263654 -0.996004 -4.48674e-17)
(0.516294 0.143092 5.79881e-17)
(2.27969 -1.12164 0)
(0.710177 0.377746 7.84998e-16)
(-0.751404 -1.01231 -8.83469e-16)
(-0.094391 -1.58791 1.18535e-16)
(-0.106628 0.140243 -2.75261e-16)
(-0.66839 -0.244378 2.52211e-17)
(4.64986 -0.431052 7.74937e-17)
(8.11205 3.0846 2.43036e-16)
(-0.163347 9.46266 2.88867e-18)
(-0.338093 -2.06157 -1.73444e-17)
(-0.596506 0.0549765 8.92349e-16)
(-0.0357382 -0.697264 0)
(-0.257644 0.101735 -4.10616e-16)
(0.465823 0.000419835 2.55432e-16)
(0.478588 0.195617 0)
(-0.67261 0.0415638 2.24766e-16)
(2.3092 1.03748 8.15394e-18)
(-0.58925 0.0394725 0)
(-0.113778 0.315795 1.05357e-16)
(8.1959 2.50179 -3.62015e-17)
(8.57765 3.66808 -1.63486e-16)
(1.99885 9.34924 -1.06809e-16)
(-0.0483814 0.123253 3.99578e-16)
(-0.714175 0.0441386 -7.79576e-16)
(1.76296 9.92606 -6.27703e-17)
(1.38547 -1.21096 -9.03993e-17)
(0.734266 0.200713 -5.91639e-18)
(0.524563 3.48731 6.97589e-17)
(0.0559155 6.64578 1.06058e-16)
(0.230309 0.151566 0)
(-0.633212 0.0382929 2.07785e-16)
(-0.0445129 -0.055645 0)
(0.374183 3.41853 0)
(0.137981 2.95092 9.90392e-17)
(1.20392 0.319885 -1.78921e-16)
(-0.176267 -0.719578 9.79017e-17)
(-0.760259 0.0443489 3.77006e-16)
(0.328937 2.81526 -8.89285e-17)
(0.398006 1.85889 0)
(0.177527 4.41733 1.04672e-18)
(3.53241 0.184778 2.24306e-16)
(-0.0383706 10.5834 1.7098e-17)
(-0.127752 7.02721 4.1025e-17)
(-0.403401 9.33435 9.08964e-17)
(4.30896 1.33862 -4.56352e-17)
(0.127296 3.98626 -2.13208e-19)
(-0.569706 -1.35826 -1.30163e-16)
(1.68683 0.624899 -1.16811e-16)
(6.95455 -0.042422 5.66333e-17)
(3.7339 -0.374119 -1.4774e-16)
(-0.57928 -0.0191025 0)
(-0.124344 3.61827 0)
(-0.383754 7.72133 0)
(0.0357361 6.76111 1.96568e-16)
(-0.0221682 9.54864 -1.7648e-17)
(2.94604 3.30987 0)
(1.08622 0.714785 0)
(-1.00155 -0.121611 5.84908e-17)
(0.664554 -1.49651 7.56799e-17)
(-0.0804388 4.63432 1.43259e-16)
(-0.250017 -1.18752 3.19117e-16)
(-0.0825454 -1.60023 0)
(1.04753 -0.513767 -4.63853e-17)
(3.21874 1.97917 6.42184e-16)
(-0.0927246 7.16035 -2.35189e-20)
(-0.221082 8.91918 0)
(-0.69759 -0.183394 -2.42067e-16)
(-0.0574573 6.20284 3.83235e-17)
(-0.25757 6.37514 5.81777e-17)
(1.83457 0.0532597 1.10997e-16)
(0.308044 5.08239 0)
(-1.27627 -0.254583 1.43587e-16)
(-0.42032 -0.360667 4.9411e-16)
(3.05393 -0.20421 1.90911e-16)
(1.54408 0.186832 0)
(0.0136748 -0.965945 2.8977e-17)
(0.118244 1.77899 -1.11973e-16)
(6.28138 1.13923 -9.27698e-18)
(-0.0717444 9.47074 -9.65645e-18)
(5.18662 -0.575196 -2.64187e-16)
(-0.495297 0.111066 -8.55874e-21)
(0.580656 1.24122 1.26761e-16)
(0.063281 6.19375 1.93961e-16)
(2.54825 0.385816 -1.1026e-16)
(1.29799 6.08167 1.02457e-16)
(0.0187563 9.53098 0)
(8.49826 0.94132 -1.14578e-16)
(0.161713 2.57979 -8.43091e-17)
(-0.108203 5.54947 4.84013e-17)
(0.0114052 -0.439473 1.86182e-16)
(1.10402 0.297505 -1.9819e-20)
(3.47158 1.38059 -4.05647e-17)
(0.396752 3.61395 -4.71643e-17)
(5.71857 2.77766 0)
(-0.075055 7.68068 -1.64407e-17)
(2.70425 2.96378 0)
(1.24008 -0.978217 0)
(-0.0312332 5.34298 1.62859e-16)
(1.86761 -0.0254653 -7.74932e-17)
(0.15657 0.271295 3.18423e-19)
(0.984817 0.365042 1.99545e-16)
(1.85349 -0.7434 1.5606e-16)
(-0.817147 0.333893 4.55161e-19)
(-0.0287899 5.27505 -2.62672e-16)
(4.17913 1.99862 2.81281e-17)
(-0.41794 0.0749738 4.19805e-16)
(1.98831 2.83571 1.972e-18)
(1.34348 6.42466 1.5326e-16)
(-0.0535076 1.46945 0)
(0.0994688 -0.517374 4.39417e-17)
(-0.0355682 7.68361 2.18146e-17)
(2.62327 0.11633 -1.65829e-17)
(-0.431097 -0.784938 -6.14425e-17)
(-0.116085 -1.99508 -1.97069e-16)
(0.448249 0.166785 3.40675e-16)
(-0.294341 5.95979 0)
(0.12096 3.6944 4.71735e-17)
(2.28487 8.28031 -1.28181e-16)
(1.13696 1.80523 1.14817e-16)
(0.340173 -0.143858 -3.80983e-16)
(-0.0344197 5.50157 0)
(-0.14239 -0.549476 -4.67628e-16)
(2.86179 -0.111064 -1.00064e-17)
(8.34158 1.51694 -5.57474e-17)
(-0.302213 8.09646 6.72369e-17)
(6.23668 -0.0527502 7.5306e-18)
(-1.34757 -0.541446 -2.07709e-16)
(0.417793 1.0182 -4.89775e-17)
(0.811064 -0.0887031 -2.96254e-16)
(-0.242032 -0.88549 -1.51342e-16)
(-0.157624 7.3179 6.45335e-17)
(-0.613552 -2.04619 -2.28123e-16)
(5.88728 2.65866 1.79226e-16)
(1.46141 0.117839 -2.91766e-16)
(-0.12806 -0.767186 1.92805e-16)
(8.48579 0.530269 7.69301e-17)
(-1.45581 0.209786 2.69083e-19)
(0.102969 9.43398 6.47722e-17)
(-0.044639 7.29331 3.75356e-17)
(-0.13491 8.38428 -5.26248e-17)
(-0.218876 5.74092 3.48666e-18)
(-0.158044 7.46738 7.55886e-17)
(1.35925 0.433683 -8.38081e-20)
(-1.60271 -1.35697 1.8632e-16)
(1.08324 -0.226925 -7.27341e-17)
(-0.065435 7.71299 0)
(-0.154916 0.0494307 -1.95432e-16)
(-0.359645 8.97046 -4.14601e-17)
(4.54342 0.546643 -6.71026e-17)
(0.134934 4.39205 2.36114e-19)
(-0.560326 0.761119 -2.59483e-16)
(2.7624 1.1486 -9.55439e-17)
(0.223935 0.228573 1.45032e-16)
(2.9251 -1.06235 1.11759e-16)
(0.000312009 3.62038 0)
(8.72913 1.45487 0)
(8.25768 1.09841 4.11761e-17)
(-0.129208 5.74653 0)
(3.51033 0.876757 0)
(2.09004 0.724761 -1.8965e-16)
(0.00569455 0.514739 0)
(1.77681 -0.314141 8.63201e-17)
(4.74095 -0.182241 1.14629e-16)
(-0.000707218 0.667658 8.54747e-19)
(-0.920061 0.777777 -1.04435e-16)
(-0.524244 0.0545031 -4.23428e-16)
(-0.109548 -0.461327 -8.38688e-19)
(-0.11603 -0.267137 0)
(-0.0945299 0.554428 -7.10206e-17)
(0.139171 5.59784 7.26504e-17)
(0.323651 4.09223 2.22209e-17)
(4.07402 -0.401453 -1.54943e-19)
(0.678031 -0.883964 0)
(2.05141 8.67588 2.78296e-18)
(1.78055 0.154775 -1.55184e-16)
(-0.311288 7.72231 1.15033e-16)
(4.46211 -0.0605906 0)
(-0.726253 -1.19768 -5.92963e-16)
(3.15803 -0.736169 1.48492e-16)
(5.82895 0.348456 3.85249e-17)
(0.376635 9.77056 -4.13095e-17)
(-0.25488 3.72734 0)
(0.438671 0.409735 1.5326e-16)
(1.18732 0.11543 6.45031e-16)
(2.79967 0.410382 -9.0702e-19)
(4.07608 0.121885 4.2671e-16)
(3.18566 0.0748674 5.74863e-17)
(-0.285334 10.5715 -8.26398e-17)
(0.487069 2.92441 -2.88891e-16)
(-0.210213 6.7517 -2.3379e-16)
(8.61893 0.247783 7.05871e-19)
(1.9339 1.56385 -4.65503e-16)
(-0.339836 -0.0862163 -1.23811e-17)
(1.4769 -0.107328 1.63203e-16)
(0.302463 9.76392 4.51456e-17)
(-0.59967 7.87648 -1.56082e-16)
(3.02421 -0.0596252 2.32411e-16)
(-0.120835 4.59087 4.31913e-17)
(0.170779 0.937264 -8.26326e-17)
(-0.843329 0.0980434 5.22487e-16)
(-1.03651 -1.06631 -8.26412e-17)
(-0.130958 0.0649682 -6.97071e-17)
(0.395314 1.82148 -1.08876e-16)
(3.03171 2.6198 3.8768e-18)
(0.228185 4.44299 0)
(0.0733956 6.68682 0)
(0.0458312 6.60422 0)
(0.0540503 6.64087 -3.09177e-17)
(-0.147967 6.47363 1.86653e-17)
(0.000616834 6.43669 0)
(-0.148561 6.84473 0)
(-0.0716374 6.37935 0)
(0.0995282 7.48682 -7.0121e-17)
(0.0737427 6.27913 0)
(0.180247 6.02485 0)
(0.155603 7.17751 7.07303e-17)
(0.0225339 7.5345 0)
(-0.0371951 7.49295 -3.18142e-17)
(0.191577 6.82011 1.73658e-17)
(-0.0276655 6.32836 0)
(0.322642 5.49411 -9.49327e-17)
(0.217667 6.00337 -3.3985e-17)
(0.220986 6.42657 2.071e-17)
(0.478817 4.68183 1.06738e-16)
(0.584683 3.65458 3.32966e-17)
(0.692078 1.77193 1.89973e-17)
(0.643978 2.68273 -2.01363e-17)
(-0.0547611 7.4516 3.31395e-17)
(-0.053371 7.44973 0)
(-0.0396885 7.45155 0)
(-0.00499738 6.54554 3.08944e-17)
(5.00709 -0.0506083 4.10889e-17)
(8.28756 0.0263225 -2.29302e-18)
(-1.06455 -0.026309 -3.09769e-16)
(-0.73126 -1.50306 -7.76539e-17)
(1.67036 1.42176 -1.43175e-16)
(-1.32574 0.581292 -2.0681e-16)
(2.95048 1.22062 1.99505e-16)
(1.21109 -1.02851 2.04409e-16)
(-1.70577 0.06164 0)
(-0.0337761 6.78736 -1.28421e-16)
(0.186013 6.07967 -6.15712e-17)
(0.0819101 6.44462 -3.63377e-17)
(-1.30387 0.391916 -4.19299e-16)
(1.28963 0.204621 0)
(8.76468 2.21582 -9.46314e-18)
(0.556177 -0.576359 -1.43107e-16)
(3.03479 1.89941 1.15132e-16)
(-1.27244 -1.17173 6.81804e-17)
(1.4594 -0.0666909 8.38937e-16)
(0.2567 8.76228 8.73295e-17)
(3.16251 -0.102468 0)
(2.30186 9.79752 2.91779e-16)
(0.0436387 5.49449 0)
(-1.6752 -0.221137 0)
(-0.0392966 7.48768 0)
(0.404872 -0.505259 8.15965e-17)
(1.97318 0.208607 1.16904e-16)
(8.94153 0.912989 -2.37858e-16)
(-0.856148 0.0489711 -2.18318e-16)
(8.73262 0.582582 -7.62416e-17)
(0.202526 1.9891 0)
(1.85205 0.131558 0)
(-1.64964 -0.937207 -9.73177e-17)
(-0.234327 8.31673 1.32364e-16)
(-0.669241 0.246112 0)
(-0.253488 -0.111502 -2.53804e-16)
(2.91758 -0.596157 0)
(-0.934949 -1.35608 0)
(0.0065395 0.141589 3.84431e-17)
(4.59063 0.287246 7.95784e-19)
(-0.0667341 7.88815 -3.1772e-17)
(-0.0041187 -0.747689 -3.42907e-16)
(2.03736 0.29917 1.85948e-16)
(2.73657 0.160305 -1.49238e-16)
(-0.0475018 5.45004 0)
(7.18746 0.197237 3.0684e-17)
(8.46653 1.94946 0)
(2.2308 0.924944 -3.34958e-16)
(1.56839 0.344143 -2.75469e-16)
(3.36867 1.09097 -3.00551e-16)
(1.15761 0.281167 -1.74116e-16)
(2.93413 1.25492 -1.47962e-16)
(0.589236 -1.39322 -4.7637e-16)
(-0.350709 -0.232944 -1.35495e-17)
(1.94334 -0.0975652 5.34986e-17)
(3.48722 -0.0938654 -1.11807e-17)
(4.37305 0.422834 1.53359e-17)
(-0.0257078 5.92282 7.86516e-17)
(4.82005 2.4725 2.52457e-16)
(-0.0445307 7.28225 1.61906e-17)
(1.96035 0.11434 7.70815e-19)
(-0.118782 5.34174 -3.3954e-19)
(-0.488673 1.88397 -1.82715e-18)