/*--------------------------------*- C++ -*----------------------------------*\
| =========                 |                                                 |
| \\      /  F ield         | OpenFOAM: The Open Source CFD Toolbox           |
|  \\    /   O peration     | Version:  v1912                                 |
|   \\  /    A nd           | Website:  www.openfoam.com                      |
|    \\/     M anipulation  |                                                 |
\*---------------------------------------------------------------------------*/
FoamFile
{
    version     2.0;
    format      ascii;
    class       volScalarField;
    location    "0.55";
    object      nut;
}
// * * * * * * * * * * * * * * * * * * * * * * * * * * * * * * * * * * * * * //

dimensions      [0 2 -1 0 0 0 0];


internalField   nonuniform List<scalar> 
5794
(
0.000874181
0.000631654
0.00282015
0.00508699
0.0135194
0.000966292
0.0013486
0.00108746
0.00221267
0.00182939
0.00202075
0.0014904
0.00158169
0.0075934
0.00102242
0.000718312
0.00937134
0.0072613
0.000599953
0.000481603
0.00148357
0.000784721
0.00164837
0.00101702
0.00164417
0.00405185
0.0123868
0.00855071
0.00362052
0.000766343
0.00146689
0.00141578
0.00235272
0.00129118
0.00395401
0.00362625
0.000786173
0.0019691
0.0018459
0.00466381
0.00566918
0.00314632
0.000747686
0.000681549
0.000914449
0.0022328
0.0018852
0.00115401
0.00197113
0.000723879
0.000240338
0.00291863
0.000917217
0.00215316
0.000135918
0.00220216
0.00168207
0.00126321
0.000743702
0.00528439
0.00134702
0.000563965
0.00182754
0.00274797
0.0055933
0.000967526
0.00357061
0.000667615
0.00576059
0.000642967
0.00606796
0.00370951
0.0158721
0.00138749
0.00609912
0.00343454
0.000401495
0.00362141
0.00067585
0.000169938
0.000663953
0.00076383
0.00742149
0.00177085
0.00191952
0.000846632
0.000795061
0.00100443
0.00168133
0.00233918
0.00494931
0.00218662
0.00319789
0.00518676
0.00255341
0.00798415
0.0039081
0.0030114
0.00202998
0.00145153
0.00144926
0.000886953
0.000768839
0.00975481
0.00130964
0.013624
0.00052701
0.0041541
0.00506265
0.000652843
0.000858015
0.000975821
0.0013949
0.00151239
0.00229173
0.0038494
0.00148172
0.00679814
0.00125134
0.00100913
0.00927289
0.000273906
0.000977935
0.00678893
0.00109049
0.00374514
0.00317375
0.000873711
0.00330063
0.00385696
0.00182452
0.00219011
0.00243074
0.00344449
0.0116808
0.0012015
0.00308796
0.000597772
0.00116727
0.00142274
0.00149986
0.00716583
0.00122365
0.00784731
0.00148597
0.0134263
0.00210784
0.00159265
0.0131421
0.0034136
0.000728133
0.00180062
0.0131165
0.000927633
0.0141259
0.00178181
0.00164329
0.0014622
0.00209999
0.00181762
0.000430711
0.00119436
0.000527316
0.00135471
0.001915
0.00183296
0.00119292
0.000837943
0.000617819
0.000353319
0.000399062
0.0019234
0.000979734
0.000985124
0.000490938
0.00119098
0.000313288
0.00134722
0.000467157
0.00187544
0.000754066
0.00102417
0.000672958
0.00146949
0.00083099
0.0040253
0.000843795
0.00108482
0.000801902
0.000632282
0.00164694
0.00109493
0.00165011
0.00106452
0.00106655
0.00102343
0.000982409
0.000488499
0.000513459
0.00101335
0.00102828
0.00206977
0.00115858
0.000773951
0.00173506
0.00194799
0.000843417
0.00581268
0.0123531
0.00186664
0.000574467
0.000857497
0.00463442
0.00404448
0.00188986
0.00303611
0.00401358
0.00308159
0.00351539
0.00544508
0.000856386
0.00227343
0.00813296
0.00355079
0.00248637
0.00630952
0.000462633
0.00425153
0.00410607
0.00141767
0.00143639
0.00173301
0.00150358
0.00359782
0.0034387
0.00975259
0.012528
0.00221533
0.00111936
0.00141002
0.00101223
0.00763074
0.00216656
0.00178093
0.00135639
0.00114646
0.000954933
0.0120297
0.00112173
0.000884464
0.000742029
0.00102954
0.0124504
0.000544494
0.00081461
0.0186088
0.000921225
0.000933331
0.00377456
0.000966068
0.00273807
0.0043323
0.00372545
0.000498081
0.00122644
0.00103143
0.00506733
0.00378989
0.00073103
0.00279576
0.00239732
0.00146852
0.00494275
0.00492148
0.000868789
0.000948575
0.00211458
0.00148
0.00283168
0.00155742
0.000667381
0.00320827
0.00420972
0.00308621
0.00317988
0.00501168
0.00262117
0.00300328
0.00519535
0.00896416
0.0027572
0.00287843
0.00196031
0.00180021
0.000772219
0.00329149
0.00220863
0.00256407
0.0022066
0.000679545
0.000445555
0.00100227
0.000563526
0.00293182
0.000608117
0.00318898
0.00295647
0.00458309
0.00243913
0.00214367
0.0015123
0.00274439
0.00212501
0.00132028
0.000783007
0.000907182
0.00512585
0.010007
0.00453993
0.00384153
0.00145492
0.00162885
0.00551891
0.014133
0.000658361
0.0021711
0.0013268
0.00130797
0.00135607
0.00185249
0.0017763
0.000824126
0.00100052
0.00145415
0.000994724
0.000932676
0.000791248
0.000477008
0.000652929
0.000893161
0.000403343
0.00116669
0.0022958
0.00100577
0.000383232
0.000591124
0.00162842
0.00115292
0.00212947
0.00192669
0.00187518
0.00230419
0.00142202
0.000966001
0.000833507
0.00276327
0.000441791
0.00184719
0.00113999
0.00100004
0.00581714
0.00293735
0.00312278
0.00340022
0.0016869
0.00772917
0.00170393
0.0014972
0.00132484
0.000709259
0.00264917
0.000454635
0.0090677
0.0013179
0.00661932
0.00296721
0.00159801
0.00130127
0.00159537
0.00145701
0.00522652
0.00291954
0.000750248
0.0029417
0.00348621
0.00106205
0.00603183
0.0041902
0.00334332
0.00126482
0.000780376
0.001686
0.000614423
0.00124937
0.000897055
0.000899506
0.000576799
0.000843487
0.00064889
0.00234111
0.00122653
0.00188225
0.0124892
0.00053235
0.000547233
0.00277568
0.000680733
0.00120478
0.000693366
0.00403781
0.00320595
0.00214603
0.0044047
0.00116141
0.00170391
0.00150684
0.00106358
0.00575187
0.00191636
0.00344638
0.00188976
0.00277957
0.00535016
0.00242216
0.0012413
0.00121133
0.000555486
0.00162783
0.000586428
0.000979371
0.00290395
0.000784221
0.00642577
0.00210639
0.00079854
0.00107494
0.00130326
0.00118292
0.00190304
0.00218239
0.000717263
0.000805563
0.00106723
0.000978613
0.00205312
0.00439934
0.00243286
0.000567874
0.000869664
0.00259248
0.00080723
0.000549839
0.00203226
0.000876916
0.0046509
0.000436964
0.00448202
0.00770515
0.0034709
0.00698995
0.000922266
0.000578145
0.000628117
0.00156011
0.00156547
0.00388805
0.00947282
0.0138656
0.00524959
0.000769585
0.000143571
0.0129139
0.00447449
0.00712562
0.00321197
0.00307043
0.0152847
0.0100785
0.00135052
0.00060248
0.000700959
0.000907878
0.0022733
0.00594154
0.00543725
0.00341772
0.000860837
0.00175697
0.00292853
0.000829476
0.000727563
0.00479769
0.00446527
0.0129892
0.000692454
0.00125936
0.000694155
0.00209791
0.000385201
0.00254598
0.0172317
0.0159428
0.000727858
0.00225403
0.00759094
0.000530779
0.00106354
0.00118782
0.00486451
0.00112108
0.00798808
0.00301691
0.00579128
0.000494089
0.000903117
0.00227396
0.00353298
0.000439821
0.000805427
0.0129454
0.00162296
0.000673747
0.0144241
0.00667499
0.00442085
0.00100248
0.000745523
0.00209915
0.000519975
0.000704669
0.000897554
0.000376987
0.00880028
0.00183841
0.00813003
0.0021005
0.00078548
0.00314156
0.00385607
0.00228792
0.000883249
0.00237711
0.000467777
0.00517746
0.00106367
0.000653381
0.000755672
0.00801132
0.00123514
0.000945564
0.00985863
0.00142418
0.00033881
0.000673923
0.00101448
0.00132755
0.000870579
0.000642302
0.000537115
0.00643379
0.0194349
0.000591467
0.00348814
0.00217378
0.00548184
0.00143917
0.000760663
0.00277146
0.000344365
0.000969411
0.00169151
0.00275202
0.00143121
0.00125917
0.00153007
0.0008573
0.0154578
0.00279192
0.00309655
0.00335008
0.0045595
0.00276579
0.00780859
0.00685324
0.0031771
0.00145719
0.00159725
0.00421879
0.00267644
0.00482139
0.00113321
0.000992686
0.000647059
0.00504177
0.00276071
0.00315451
0.00141185
0.000831196
0.000683999
0.00239256
0.00112631
0.00183711
0.00280395
0.005296
0.000547311
0.00274514
0.00362228
0.000836443
0.00015934
0.00585674
0.0140139
0.0180179
0.00865091
0.000706923
0.000788561
0.000940995
0.0023495
0.00102864
0.00087479
0.00199257
0.000295674
0.00342773
0.00420795
0.00561293
0.000449826
0.00101986
0.00151626
0.00976386
0.00610801
0.00131753
0.00134828
0.000921833
0.000263756
0.00167935
0.000707484
0.00340943
0.00406546
0.00080948
0.00493771
0.00832792
0.000752049
0.000876023
0.00396381
0.00280818
0.00297374
0.00509727
0.00257016
0.00101524
0.00304196
0.000770457
0.00040106
0.000659342
0.00247249
0.000665449
0.000603403
0.00312624
0.0146691
0.00302726
0.00209349
0.00207392
0.00294653
0.0013734
0.000865761
0.00083728
0.000618714
0.00303704
0.00544179
0.00523547
0.00260504
0.00274507
0.00220115
0.000822606
0.012037
0.00151913
0.001534
0.00294005
0.00560903
0.00189818
0.00877841
0.00142215
0.00078599
0.00509166
0.00223391
0.000621666
0.00605374
0.00291734
0.00350634
0.0016066
0.00269458
0.000642215
0.00406257
0.00785258
0.00394328
0.00327039
0.00181002
0.00190129
0.00636635
0.000353134
0.000441162
0.000769609
0.000714542
0.000788054
0.000367608
0.00100404
0.00674894
0.00326354
0.00242281
0.00490103
0.00296379
0.00689386
0.00119442
0.00752935
0.00360866
0.0026836
0.00442303
0.000775392
0.000733083
0.0170056
0.00323708
0.006519
0.00769275
0.00427291
0.00324534
0.00178873
0.0180534
0.000785454
0.000835085
0.000819086
0.00807206
0.000960476
0.00281576
0.00310697
0.00614723
0.00234722
0.0018135
0.00364486
0.00586769
0.00440374
0.00218262
0.00318681
0.00454072
0.000307811
0.000321776
0.000527817
0.00044525
0.00460796
0.00280128
0.00456291
0.000742102
0.000803011
0.000621471
0.000618
0.00129809
0.000477543
0.00269164
0.00489213
0.000756519
0.00567447
0.00269901
0.000712744
0.00146058
0.0174083
0.00462543
0.0030855
0.00566408
0.00565809
0.00291626
0.00341751
0.000716458
0.00386756
0.00254162
0.00455192
0.00792414
0.00310478
0.00830988
0.000890853
0.00098772
0.000970996
0.00937891
0.00111866
0.0065354
0.0157842
0.000651954
0.000897007
0.000570014
0.00477475
0.00291352
0.00676303
0.00493017
0.00282091
0.00103177
0.0057235
0.00665414
0.00289184
0.000928482
0.00302049
0.000618331
0.00286592
0.000887705
0.00385517
0.000861875
0.00565365
0.00363466
0.00132956
0.000681448
0.00187893
0.00648892
0.00560757
0.00319732
0.00844412
0.00344032
0.00140166
0.00069075
0.00111919
0.00936745
0.00145678
0.0025869
0.00297671
0.00812597
0.000622474
0.000835585
0.000798922
0.00146433
0.0122201
0.0012987
0.00076908
0.00249081
0.00684805
0.00235049
0.00277454
0.00451928
0.00473378
0.000771361
0.00147113
0.00956854
0.00651107
0.00241578
0.0180841
0.000389234
0.000258581
0.000433936
0.00071783
0.00453157
0.00150427
0.000875555
0.000995087
0.00147066
0.000707808
0.000839361
0.0181666
0.00284953
0.00551607
0.00150054
0.00242053
0.00366995
0.00308526
0.0123841
0.00345759
0.000816407
0.000795288
0.000754279
0.00620063
0.000818476
0.00739866
0.00742071
0.00383201
0.00458686
0.00387841
0.00111999
0.0102061
0.00132563
0.000773186
0.00324448
0.00127651
0.00438664
0.00280548
0.00257889
0.00340376
0.000838344
0.00075318
0.000632131
0.00490273
0.00381026
0.000913658
0.000860675
0.00207269
0.00112328
0.00399657
0.000607689
0.000799377
0.00282421
0.0052995
0.00308038
0.00572567
0.00368913
0.00586725
0.0126266
0.000877449
0.000843796
0.00670801
0.00115132
0.00330307
0.000711545
0.00158404
0.00219031
0.000467739
0.000790295
0.00129389
0.00539814
0.00278006
0.00632221
0.000843733
0.00294834
0.00552362
0.0140038
0.00209381
0.00306809
0.000784871
0.00114611
0.0132633
0.00108712
0.00360584
0.000838086
0.00128791
0.00103486
0.00146003
0.000271619
0.00188468
0.00123026
0.000557735
0.000530115
0.000574543
0.000337997
0.000252768
0.000663597
0.00885512
0.0137787
0.00318967
0.00187837
0.00266981
0.00517713
0.000772986
0.000680964
0.00112162
0.011042
0.00095914
0.0177558
0.00628028
0.00238317
0.000785791
0.00925798
0.00174355
0.000624487
0.000882604
0.018732
0.00543808
0.000834253
0.000670558
0.000878737
0.00339973
0.00192054
0.0122781
0.000724967
0.000580316
0.000524536
0.000663828
0.000580221
0.0018684
0.000851962
0.00108245
0.000713165
0.000882481
0.000789501
0.00975896
0.000782526
0.00328058
0.00126855
0.00174545
0.000831642
0.00119985
0.00160077
0.00136374
0.000900958
0.00092879
0.000757155
0.00428359
0.000745464
0.00118434
0.00475035
0.000837214
0.000833735
0.00220541
0.000819771
0.000830298
0.00217642
0.000777164
0.0177264
0.00208827
0.000650809
0.000825642
0.000875481
0.00666547
0.00102905
0.00281832
0.00254806
0.00512347
0.00102292
0.000710264
0.00124306
0.000588434
0.000842905
0.00126941
0.00182707
0.00163119
0.00141627
0.000182649
0.00160552
0.00136821
0.00107477
0.00106483
0.00174962
0.000525671
0.000900756
0.000555409
0.000976813
0.00074689
0.00764621
0.00079688
0.00109753
0.000790308
0.000783315
0.000736302
0.000479898
0.00095554
0.00118733
0.0115922
0.0053743
0.00419389
0.000671765
0.000826851
0.00347694
0.000676947
0.00605643
0.00124016
0.00355483
0.00515888
0.000698785
0.00696917
0.000525581
0.000842
0.00623388
0.000817975
0.0129726
0.00073529
0.000739989
0.00249476
0.00560239
0.000762608
0.00312755
0.000763172
0.00157101
0.00060729
0.000749897
0.00214991
0.00106167
0.000830335
0.000824082
0.00226364
0.000931302
0.00190023
0.00161913
0.0040834
0.00100925
0.000725322
0.0051785
0.00272954
0.0025321
0.000666481
0.00515377
0.00278263
0.00644227
0.010729
0.00280766
0.00108169
0.000391087
0.0162012
0.00251374
0.00435193
0.00302268
0.0130567
0.00235604
0.000305396
0.00109612
0.000487124
0.000226856
0.00353615
0.000427343
0.00113072
0.00110504
0.000355423
0.00108453
0.000219578
0.000325971
0.000712973
0.000562148
0.00112328
0.00393704
0.00332916
0.00600153
0.000369708
0.00138031
0.00332188
0.00175397
0.000665959
0.000789861
0.00840508
0.000819153
0.00329466
0.00103043
0.000743619
0.000932219
0.0168458
0.00885289
0.000652233
0.00253663
0.00512717
0.00689189
0.0120954
0.000742557
0.00511413
0.00482172
0.00327122
0.00099619
0.00790796
0.000726737
0.000726071
0.00293149
0.00097147
0.00166486
0.000713771
0.0140789
0.00107404
0.000638056
0.00370518
0.00475981
0.00485128
0.000763924
0.000716392
0.00085641
0.00142747
0.00233951
0.000857593
0.0116063
0.00223735
0.00487175
0.00314602
0.00414514
0.00162014
0.000874349
0.0034736
0.000949525
0.000683472
0.00102781
0.000551143
0.00120068
0.000895449
0.0155993
0.000790689
0.000817004
0.000753307
0.000932585
0.000832534
0.000776467
0.000868348
0.000744352
0.0027732
0.00327912
0.00445895
0.000738082
0.000744804
0.000881359
0.000981477
0.00180843
0.00809414
0.00185065
0.000773793
0.000972174
0.000759724
0.00370352
0.000809563
0.000703737
0.000709705
0.000753809
0.000844066
0.00108099
0.000916244
0.00854151
0.00064336
0.015442
0.000595888
0.00208093
0.000896697
0.00139512
0.000747791
0.00321851
0.00280626
0.000750539
0.000528901
0.00055259
0.0010193
0.00153506
0.00118589
0.00317226
0.000746688
0.00133059
0.00188007
0.00450066
0.00613399
0.00342526
0.000828566
0.000273249
0.00841777
0.00163101
0.00323304
0.00649347
0.000496417
0.000894219
0.00110322
0.00783573
0.000342342
0.00556672
0.00681129
0.00111293
0.00437924
0.00588247
0.00166889
0.000595953
0.00947697
0.0177586
0.00770995
0.00133302
0.00177259
0.00114398
0.00289415
0.000836125
0.0004655
0.00106713
0.000783638
0.00242305
0.00124
0.000430648
0.00201617
0.000749778
0.000431839
0.000801135
0.00304946
0.00584082
0.00070667
0.00290436
0.00434175
0.00833994
0.0102681
0.00306066
0.00236567
0.000795302
0.00639187
0.00144163
0.00750929
0.00550922
0.00284284
0.00379919
0.00399893
0.0116168
0.00459166
0.013292
0.00332422
0.0028335
0.00355938
0.0118072
0.000926954
0.00306719
0.00335229
0.00506875
0.00324002
0.00704717
0.00659494
0.00451856
0.00629299
0.000915575
0.000345995
0.000806692
0.0051452
0.000774284
0.00313293
0.00188958
0.000830954
0.00436184
0.00363411
0.0053045
0.000588283
0.00900347
0.00154541
0.00290045
0.00181814
0.00133946
0.00141494
0.000844962
0.00507762
0.000771118
0.000755195
0.000914086
0.0112161
0.00265075
0.00183588
0.00413899
0.00567008
0.00330544
0.00190985
0.0108801
0.00493049
0.000786156
0.00018062
0.00699656
0.00247694
0.0066252
0.00813267
0.00108797
0.000646043
0.0032224
0.00570508
0.000940179
0.00144795
0.00125948
0.00147624
0.00111902
0.0104892
0.000925214
0.00229082
0.00583437
0.0010721
0.00639494
0.00322609
0.000771421
0.0012985
0.00159173
0.000994081
0.00105423
0.00103029
0.00114541
0.00174053
0.00053946
0.00238784
0.000760675
0.000822548
0.00509253
0.00287989
0.00544518
0.000757913
0.00353858
0.00527437
0.0069994
0.000935582
0.00136268
0.00164266
0.00346742
0.000264964
0.000253697
0.000504356
0.0189446
0.000826216
0.00258056
0.00226569
0.00383343
0.0039171
0.00168872
0.000503121
0.000244131
0.000258295
0.000429
0.000229868
0.00065759
0.000412245
0.000310808
0.00055626
0.000181121
0.000293686
0.00053864
0.000296108
0.000285106
0.000272328
0.000209238
0.000636541
0.000479542
0.000299555
0.000422991
0.000510315
0.000256371
0.000258819
0.000185789
0.000322315
0.000394451
0.000459806
0.000239171
0.000251176
0.000391721
0.000473568
0.000534866
0.000357372
0.000184543
0.000188426
0.000393571
0.000246204
0.000495218
0.000335021
0.000187853
0.000346112
0.000299357
0.000506448
0.000519231
0.00215179
0.00214238
0.0110657
0.000876335
0.00204509
0.00290383
0.00521138
0.00870248
0.00355879
0.000811354
0.000851905
0.00346302
0.00164463
0.00690032
0.0199082
0.0122723
0.0053528
0.00218238
0.00231813
0.00243555
0.000770087
0.0014364
0.000364825
0.00620838
0.00102306
0.00305712
0.00334768
0.00190783
0.00474108
0.00333389
0.00389642
0.00378535
0.00660856
0.0201968
0.00174243
0.00337345
0.00257397
0.000776177
0.0111697
0.00292135
0.00141966
0.00700726
0.00248647
0.00244494
0.00204446
0.00174644
0.00181145
0.000842026
0.000848846
0.0178427
0.00135322
0.00054086
0.000312839
0.00796436
0.00939698
0.000350682
0.00370367
0.00703521
0.000363006
0.000241399
0.000406548
0.00052717
0.000466299
0.000523211
0.000183928
0.000372734
0.000428816
0.000199497
0.000566499
0.000522136
0.000282416
0.000579947
0.00034015
0.000296905
0.000532112
0.000259148
0.000222199
0.000263783
0.000179521
0.000526988
0.000223368
0.00340014
0.00267843
0.000448928
0.000927997
0.00499791
0.000848692
0.00761321
0.000594431
0.00311705
0.00864133
0.00885299
0.00294154
0.00947386
0.00449231
0.000277289
0.00937033
0.00227144
0.00541333
0.0174533
0.0047809
0.00628218
0.00079593
0.0112199
0.0017067
0.00089902
0.0115004
0.000920643
0.00314858
0.00197431
0.000711886
0.000663094
0.00674606
0.000989457
0.00877205
0.0112631
0.00118081
0.00707022
0.000680528
0.00969808
0.00197512
0.000970123
0.00208993
0.00722408
0.00153283
0.00222963
0.00298857
0.00137805
0.00695442
0.000834644
0.00315904
0.000628307
0.0037815
0.00704284
0.0175887
0.000197638
0.000771838
0.00105832
0.00975181
0.00293116
0.000430214
0.000762823
0.00246394
0.00179147
0.0105786
0.00083269
0.00144425
0.000708231
0.0011649
0.00151605
0.000839072
0.0072393
0.000566417
0.000174103
0.000255979
0.00901153
0.0062687
0.000777162
0.0100733
0.00486016
0.000582729
0.0104762
0.012404
0.00881544
0.0103814
0.00681168
0.00158513
0.00884548
0.0009758
0.00289157
0.00245704
0.00697766
0.000733246
0.000946613
0.0011374
0.0100194
0.000567351
0.00160625
0.00131462
0.00202984
0.00211897
0.00857982
0.0102888
0.00913934
0.00366323
0.0008311
0.00861425
0.000518221
0.00222683
0.002148
0.00113341
0.00558909
0.0105074
0.00319759
0.0102116
0.00286795
0.00761374
0.00144488
0.0019794
0.00207246
0.0027612
0.00108816
0.00192198
0.00224493
0.0141265
0.00101649
0.00152204
0.00363841
0.00244351
0.00144134
0.00218326
0.00213744
0.0146202
0.0021975
0.00449482
0.00663531
0.00127769
0.00110532
0.00158722
0.00347271
0.00187585
0.00102991
0.00314145
0.0136889
0.0146445
0.0122579
0.0124068
0.0146722
0.012624
0.0152453
0.00137719
0.0145759
0.0137843
0.0129984
0.0133943
0.0136686
0.0129177
0.013413
0.0128606
0.01316
0.0018566
0.00191674
0.00201412
0.0117934
0.00182937
0.00178681
0.00127432
0.00154268
0.000286002
0.000386036
0.00609739
0.0119018
0.00269571
0.00274932
0.00216649
0.0102228
0.0121184
0.00974944
0.0053266
0.00091377
0.00144031
0.00089332
0.00467408
0.00750375
0.00393712
0.00148044
0.00308021
0.00247176
0.00200519
0.00438461
0.00200509
0.00881367
0.00240392
0.000969259
0.00189863
0.00035758
0.00633593
0.00179302
0.000980964
0.00168954
0.000967507
0.00218084
0.00275853
0.00196478
0.00334077
0.00309983
0.00196614
0.00286931
0.0111212
0.00244786
0.00271178
0.00298898
0.00272431
0.00910947
0.00143316
0.0011383
0.00945899
0.00475291
0.00302311
0.00259888
0.00230298
0.0031382
0.0105231
0.00328887
0.0011698
0.00154591
0.0011195
0.00369152
0.00205367
0.0167635
0.00189861
0.00224315
0.00287679
0.00194222
0.00341041
0.0015971
0.00181099
0.00300098
0.0055629
0.00566131
0.0158534
0.00959043
0.000954544
0.0103082
0.00187576
0.0034626
0.00592436
0.001693
0.00289944
0.0020621
0.0150834
0.00628077
0.00416163
0.00161397
0.00782507
0.0142344
0.00101783
0.00148133
0.00602949
0.00382701
0.00538206
0.00427468
0.00110826
0.00170422
0.0064692
0.00411924
0.00532284
0.0123509
0.0118663
0.00262668
0.00715618
0.000368434
0.00157431
0.00642015
0.00173548
0.00154004
0.00170122
0.00165362
0.00335396
0.000929171
0.00485392
0.000814562
0.00309424
0.00586345
0.00143878
0.00633797
0.00234106
0.003599
0.0014984
0.00444744
0.00104209
0.00381191
0.00235593
0.00193751
0.00409208
0.00361462
0.00103902
0.00110646
0.00620311
0.00602512
0.0011585
0.00137535
0.000583497
0.000933902
0.000420207
0.00691209
0.00149251
0.00152781
0.00392268
0.00677451
0.00294493
0.00199662
0.00100526
0.00711568
0.00120551
0.0013368
0.00250955
0.00221519
0.00174196
0.00190678
0.000670412
0.0065445
0.00540132
0.0121869
0.00170523
0.00638617
0.00247598
0.000917513
0.00655242
0.00709947
0.000706912
0.00207997
0.00204781
0.000798705
0.00207234
0.00242491
0.00692194
0.00754153
0.000251031
0.00508955
0.00151353
0.00189251
0.00225845
0.00209631
0.00729711
0.00679042
0.00661449
0.00122441
0.00166919
0.00245328
0.000318124
0.00711525
0.000956216
0.00348083
0.00103603
0.00320596
0.00165332
0.000254996
0.00397146
0.00142215
0.00635207
0.00147994
0.000878824
0.00325029
0.00126817
0.00152274
0.00560744
0.00289328
0.00491852
0.00266093
0.000913997
0.000636629
0.00314961
0.00198228
0.00404827
0.000248366
0.00132442
0.000245799
0.0117892
0.00140716
0.00202409
0.0034484
0.00252186
0.00108843
0.00293388
0.00153861
0.00120412
0.00524523
0.0036667
0.00241706
0.00281631
0.00166616
0.00250851
0.00137162
0.00139887
0.00510279
0.00327271
0.00127548
0.00551003
0.00287223
0.00239396
0.002077
0.00089873
0.0109715
0.000913411
0.0021446
0.00281719
0.00965751
0.000816362
0.00139843
0.00248246
0.0015913
0.0020775
0.001645
0.00177778
0.00226876
0.00126169
0.00134888
0.00192056
0.000850268
0.000382214
0.00589847
0.00253964
0.000551324
0.0103403
0.0117588
0.00195
0.000751642
0.00209112
0.00182827
0.00635065
0.00212751
0.00177422
0.00180986
0.00194535
0.00184759
0.00174414
0.00236756
0.00295217
0.00502871
0.00131424
0.00106261
0.00265846
0.00250799
0.000387873
0.00350156
0.00267242
0.0127487
0.00628688
0.00614388
0.0121958
0.00224988
0.00207506
0.00610677
0.00133158
0.00189841
0.00181768
0.00186723
0.00104065
0.00141268
0.00334582
0.0061667
0.00121691
0.00634337
0.00250196
0.00239768
0.00349848
0.00298198
0.00262224
0.000547389
0.00326534
0.000513263
0.0112592
0.00237998
0.00107305
0.0080537
0.000800346
0.000862971
0.0105335
0.000570084
0.00225977
0.00188951
0.00266704
0.00198776
0.00727258
0.00320369
0.00581515
0.00243042
0.00330986
0.00311727
0.00455258
0.00181292
0.00608034
0.000615219
0.000589269
0.00061753
0.000349452
0.000385531
0.00209013
0.00136156
0.000899134
0.00119246
0.00384132
0.00519817
0.00637073
0.000424673
0.0102288
0.00870833
0.00207125
0.00108189
0.0028556
0.00281813
0.00255602
0.000584391
0.000543249
0.00911502
0.00256338
0.00183244
0.00279547
0.00847182
0.00521217
0.00123712
0.00530148
0.00935951
0.00366716
0.00225245
0.0019572
0.00183014
0.000569522
0.000837183
0.00136408
0.00199744
0.00137418
0.0017198
0.0132495
0.00557993
0.00517563
0.00231026
0.00185118
0.013993
0.0109621
0.0150271
0.0139002
0.00486171
0.00156417
0.00382381
0.00137329
0.000802192
0.00147333
0.010671
0.0133644
0.0126542
0.00208697
0.00364668
0.00612664
0.00402698
0.00437069
0.0021193
0.00147497
0.00149497
0.000852086
0.00120542
0.00185296
0.00164572
0.00184513
0.00462859
0.00732994
0.00127214
0.0126188
0.00303991
0.00740475
0.00160736
0.00359704
0.00108199
0.00131335
0.00100378
0.000925291
0.00220386
0.000742528
0.00957413
0.00143319
0.000792417
0.00161699
0.00342034
0.00201668
0.00123809
0.00383
0.00627348
0.00308529
0.00245678
0.00228372
0.00276198
0.00135938
0.00345042
0.00253902
0.000351109
0.000583054
0.00225779
0.00401556
0.0150369
0.00398804
0.0014623
0.00128281
0.00574028
0.00255637
0.00602235
0.00817331
0.00141243
0.00170692
0.00149785
0.00170698
0.00100492
0.0076747
0.00163349
0.0022077
0.00116597
0.0016159
0.0152224
0.00982444
0.00230102
0.00525487
0.00397394
0.00270613
0.00948971
0.00594901
0.00107233
0.000842428
0.000750601
0.00106941
0.00494673
0.00212898
0.00389357
0.000898901
0.00254182
0.00666973
0.00188767
0.00520694
0.00142297
0.00541964
0.0023487
0.00183509
0.00206053
0.00582501
0.00678505
0.0102536
0.0014763
0.0139479
0.000801071
0.00709147
0.00204397
0.00446012
0.0102432
0.00237104
0.00323169
0.000816322
0.00594362
0.00193899
0.00229987
0.00042004
0.000247908
0.00792644
0.00349078
0.00733108
0.00621788
0.0109434
0.00859557
0.000795974
0.00445267
0.00366285
0.00388861
0.00309318
0.00278787
0.00712599
0.00109372
0.000806604
0.0010956
0.00771939
0.00154161
0.0114944
0.00507546
0.000848198
0.0100331
0.00149396
0.00169812
0.00863114
0.0107691
0.0132955
0.00940339
0.000444352
0.0010795
0.0060727
0.00291858
0.0138992
0.0146821
0.00241324
0.00910446
0.00243381
0.000505141
0.00360713
0.00317883
0.00972342
0.00744055
0.0100594
0.00139048
0.000950368
0.0046129
0.00421206
0.00223443
0.00194621
0.00342152
0.00782174
0.00126481
0.00147075
0.00221727
0.00902221
0.0119103
0.00663349
0.00249755
0.0121498
0.0010404
0.000757638
0.00182967
0.00234977
0.0085064
0.00670723
0.00486759
0.00143046
0.000805007
0.00668157
0.00160885
0.00492198
0.00727209
0.00354537
0.00623723
0.00221349
0.00379875
0.00271287
0.0143414
0.00148253
0.0016788
0.00246255
0.00170674
0.00102709
0.00655995
0.00193699
0.00178786
0.0151345
0.0135144
0.0150991
0.0110525
0.00901933
0.00191791
0.0036657
0.00155473
0.0100054
0.0144615
0.00404117
0.0089091
0.000736295
0.0026584
0.00209974
0.0100796
0.00425339
0.00598295
0.00250629
0.00485645
0.00323031
0.00290406
0.00544452
0.000524624
0.00484615
0.000841208
0.00712659
0.000865818
0.0101024
0.00167055
0.00238877
0.00412586
0.00720501
0.0012531
0.00969412
0.0136489
0.00266561
0.000596724
0.0103058
0.00177049
0.00191284
0.00185626
0.000550077
0.00058209
0.00372559
0.0095438
0.0127408
0.00584485
0.00653972
0.0103567
0.0021834
0.00453234
0.00221987
0.00468907
0.000663426
0.000605848
0.00778195
0.00424343
0.00166722
0.00214036
0.0122418
0.0027388
0.000943348
0.00058648
0.00240646
0.00297717
0.000797991
0.00582529
0.00121023
0.00761141
0.0030782
0.00520398
0.000945044
0.0139708
0.00331408
0.0149108
0.00367548
0.00137295
0.00562258
0.00519974
0.00130852
0.000747219
0.0127105
0.00216803
0.00166039
0.00176271
0.000775435
0.0149173
0.00173294
0.0111402
0.00901664
0.000696739
0.0072134
0.000802672
0.0145232
0.0117507
0.00261323
0.00220829
0.00229326
0.00963041
0.000848186
0.00076595
0.000757377
0.00530346
0.000727338
0.000885853
0.00643843
0.00509395
0.00476125
0.00272501
0.005953
0.00107759
0.0140351
0.010612
0.00551924
0.000734949
0.00351463
0.00891937
0.000563145
0.000275579
0.000305855
0.00984704
0.0021477
0.0104335
0.00164926
0.00114783
0.00847647
0.0146851
0.00224835
0.00331305
0.0064124
0.0046801
0.00278248
0.00455065
0.000802029
0.00472021
0.00064438
0.00117417
0.00075485
0.00102476
0.00299174
0.00149731
0.00603574
0.00287135
0.00329256
0.00808993
0.00585714
0.00333684
0.0071379
0.00172001
0.000701355
0.002891
0.00154886
0.00673257
0.00524332
0.00763543
0.00547203
0.000886048
0.000824847
0.00101005
0.00359833
0.00133944
0.00704812
0.00191017
0.00118303
0.00259741
0.00920195
0.00365529
0.0117068
0.000621263
0.00900575
0.000914161
0.00329333
0.00155467
0.00588283
0.00694612
0.00226797
0.00128116
0.00288475
0.00587308
0.00104776
0.00214666
0.00957551
0.0124224
0.00268979
0.00640357
0.00553461
0.016784
0.0137279
0.00158715
0.00271308
0.00398349
0.00176374
0.00347378
0.00345519
0.0103661
0.000740874
0.00380471
0.00193816
0.00234588
0.00195907
0.00300344
0.00250454
0.00669421
0.000549072
0.0058227
0.00704941
0.00104188
0.00227069
0.0007521
0.00322654
0.00364472
0.00276781
0.000639327
0.00230414
0.00842462
0.00610064
0.0040596
0.00229674
0.00157833
0.0012483
0.00101258
0.000783784
0.000817223
0.00436228
0.00176096
0.00106883
0.00197162
0.0107151
0.00040453
0.00370866
0.00232024
0.000932739
0.00586649
0.000917062
0.000882593
0.000787605
0.00219802
0.00244884
0.00120279
0.00174014
0.00195772
0.00590135
0.000868227
0.00132183
0.00358702
0.00658253
0.000804633
0.0058919
0.00145571
0.00363662
0.00267991
0.00451692
0.00696655
0.00120229
0.000796451
0.000238105
0.000489728
0.0012424
0.00916634
0.00311051
0.010616
0.00480284
0.00201589
0.00903365
0.00131461
0.000805448
0.00337187
0.00465572
0.00665185
0.00297028
0.000951197
0.00083556
0.000919965
0.000727467
0.00146039
0.0143549
0.00173028
0.00744016
0.00141012
0.000508766
0.00132129
0.000619539
0.00102618
0.00262367
0.00918682
0.00419241
0.00990087
0.00984064
0.000702872
0.00119573
0.00575214
0.0140883
0.00212833
0.00689124
0.00360727
0.0056928
0.0014677
0.00080656
0.000807058
0.00442119
0.00703369
0.00198047
0.00205462
0.0032383
0.00353584
0.0022704
0.00123813
0.00326402
0.00494382
0.0151495
0.0106408
0.000551955
0.00980085
0.00125155
0.00408955
0.00533703
0.00363515
0.0027895
0.00538458
0.00200614
0.00525707
0.0121587
0.0136621
0.00130513
0.00135247
0.00115224
0.000720944
0.000659624
0.00202174
0.00207168
0.00257666
0.00314769
0.00568888
0.00202613
0.000607161
0.00933513
0.000755488
0.00108203
0.0052179
0.00579139
0.004029
0.00249092
0.0032987
0.00660526
0.000820463
0.000841096
0.00311485
0.00578712
0.00599549
0.00191623
0.00361255
0.0069461
0.0037407
0.00338481
0.00118233
0.00117091
0.000680958
0.00127978
0.000330694
0.000586757
0.00109474
0.00119608
0.000827585
0.000546572
0.000257675
0.000281073
0.0116856
0.00947277
0.000848098
0.00746799
0.00215774
0.00696173
0.00327254
0.00568532
0.00484195
0.00916285
0.00976377
0.00956917
0.00446738
0.00376534
0.00880593
0.0024533