/*--------------------------------*- C++ -*----------------------------------*\
| =========                 |                                                 |
| \\      /  F ield         | OpenFOAM: The Open Source CFD Toolbox           |
|  \\    /   O peration     | Version:  v1912                                 |
|   \\  /    A nd           | Website:  www.openfoam.com                      |
|    \\/     M anipulation  |                                                 |
\*---------------------------------------------------------------------------*/
FoamFile
{
    version     2.0;
    format      ascii;
    class       surfaceScalarField;
    location    "0.55";
    object      phi;
}
// * * * * * * * * * * * * * * * * * * * * * * * * * * * * * * * * * * * * * //

dimensions      [0 3 -1 0 0 0 0];
oriented        oriented;


internalField   nonuniform List<scalar> 
11117
(
-8.06475e-06
3.66254e-05
3.3777e-06
-3.19383e-05
5.1627e-06
0.00015397
-3.66782e-06
-0.000155465
-3.99195e-05
7.36593e-05
-4.25409e-05
8.80106e-06
-0.000526793
3.24777e-05
0.000188248
0.000306067
0.000204687
0.00012827
-7.98513e-05
-0.000253106
-3.72538e-05
9.29698e-06
-0.000108582
0.000136539
-0.000364189
-1.42011e-05
0.000254622
0.000123768
-0.000247303
-3.70419e-05
0.000200453
8.38918e-05
0.00122788
0.000234899
-0.000917963
-0.000544814
-0.000128945
0.00014158
-2.84885e-05
1.58529e-05
-0.00084955
0.000918634
0.000293724
-0.000362808
-0.000499901
-0.000202298
0.000366762
0.000335436
-0.000517189
-0.000257059
0.000323978
0.00045027
0.000866736
-0.00107348
0.000492243
-0.000285499
0.000128574
-0.000105485
5.08521e-05
-7.39415e-05
-3.74383e-05
1.7599e-05
-2.62563e-05
4.60956e-05
-7.85929e-05
3.2122e-05
-2.67883e-05
7.32592e-05
-0.000644461
0.000638535
0.000752722
-0.000746795
5.745e-05
0.000203509
-0.000132385
-5.37922e-06
8.1139e-07
0.000134506
-0.000129938
-0.000329963
0.000185115
6.70679e-05
7.77799e-05
-1.76916e-05
1.09324e-05
8.56863e-05
-7.89271e-05
0.000304417
0.000202411
-0.000161292
-0.000345537
0.000108008
0.000108686
-8.6079e-05
-0.000130615
0.00040923
0.000302289
-0.000482671
-0.000228848
0.00100495
-0.00103712
0.000277295
-0.000245125
0.000225379
-0.000334602
0.000640372
-0.000531149
-0.000213566
0.000305998
-0.000201077
0.000108645
8.79598e-05
-5.32471e-06
0.000974023
-0.00105666
0.000123688
-7.7718e-05
8.5359e-05
-0.000131329
-0.000268992
-0.000317689
0.000462079
0.000124602
-0.000127766
-0.000430454
0.000385047
0.000173174
-0.000115064
-0.000428768
0.000364235
0.000179597
0.000171664
-0.000113612
6.50088e-05
-0.00012306
-0.000110078
0.000154149
-6.20443e-05
1.79736e-05
-0.000248369
0.00011927
-6.70106e-05
0.000196109
0.000607648
-0.000820999
0.00100147
-0.000788116
0.000555187
-0.000702679
-0.000198366
0.000345858
0.000430823
-0.000107292
-0.000616177
0.000292646
0.000164808
0.000503792
-0.000584254
-8.43456e-05
0.000196912
0.000340808
-0.000411904
-0.000125816
0.000112225
-1.54899e-05
-1.45153e-05
-8.22197e-05
0.000994171
0.000876332
-0.000880137
-0.000990366
9.66602e-05
6.60015e-05
-2.07241e-05
-0.000141938
0.000178964
3.24663e-05
-0.000153981
-0.0008935
0.000704633
-0.000212463
0.00040133
-0.000873634
0.000669344
-0.000199558
0.000403848
-0.000125975
-3.45504e-05
0.000101035
5.94903e-05
2.84379e-06
7.14424e-05
-4.03868e-05
-3.38994e-05
-9.29393e-05
9.60437e-05
-3.10438e-06
-3.47866e-05
2.10879e-06
3.26778e-05
-0.000325759
-0.00111881
0.00050801
0.000936554
0.000151192
-0.000102864
0.000144425
-0.000192753
-0.000147679
0.000168847
-2.11764e-05
8.69731e-09
1.38568e-05
-1.38568e-05
0.000396567
0.000168806
-0.000521422
-4.3951e-05
0.000369933
0.000173508
-0.00049656
-4.6881e-05
-9.56452e-05
2.08502e-05
0.000104583
-2.97879e-05
0.000882602
0.000115038
-0.0013614
0.000363761
-0.000383264
0.000861813
0.000526398
0.000834156
-0.000852038
4.82407e-05
-3.03584e-05
0.000121451
-5.6582e-05
-5.9186e-05
-5.68267e-06
-0.000174501
-2.42108e-05
-7.02806e-05
0.00011467
-4.53422e-05
-0.000197094
0.00010849
-3.87471e-05
-0.000184807
-4.8006e-05
-9.62697e-05
8.48179e-05
5.94578e-05
0.000154691
-0.0001574
7.63754e-05
-7.36663e-05
2.24419e-05
-0.000330906
0.000308464
-0.000790461
-0.000411561
0.000657353
0.000544669
5.53303e-06
3.44879e-05
-1.86831e-06
-3.81526e-05
0.000463946
-0.000132953
-0.000656751
-0.000243138
0.00022042
0.000177408
-0.000276223
-0.00125634
0.00129542
0.00023715
7.95149e-06
3.91211e-05
-0.000103087
5.60139e-05
-0.000814774
-0.000620149
-2.24067e-05
-6.48955e-05
0.000231016
-0.000143714
4.61591e-05
-3.36178e-05
-1.25413e-05
-0.00101364
-0.000156135
0.000132653
6.33574e-05
4.03382e-05
-7.03537e-06
-6.79499e-06
-6.54772e-06
1.33427e-05
3.36228e-05
4.59703e-05
-9.87415e-06
-6.97189e-05
9.22521e-05
3.64928e-05
-1.65927e-06
-0.000127086
7.77307e-05
-3.01809e-05
0.000163287
-0.000210836
-0.000278517
0.000186022
0.00029284
-0.000200345
-0.000313118
0.00023566
0.000331348
-0.00025389
4.62794e-05
-0.000470754
0.000424474
-1.6349e-05
-0.000618995
0.000635344
3.18312e-05
-0.000474821
0.00044299
5.87887e-05
8.35376e-06
7.98491e-05
-0.000146992
-9.68088e-05
4.77882e-05
0.000138572
-8.95516e-05
0.000512114
-0.000152314
7.73051e-05
-0.000437105
0.000740547
6.0867e-05
-6.13166e-05
-0.000740098
0.000658114
-3.90194e-05
4.87857e-05
-0.00066788
-0.000672536
3.98597e-05
-2.80814e-05
0.000660757
-0.000613624
4.59978e-05
-2.31904e-05
0.000590817
2.36144e-07
0.000222281
-0.000321634
9.91172e-05
0.000572755
2.1449e-05
-2.16492e-05
-0.000572555
0.000622405
4.00698e-05
-2.53808e-05
-0.000637094
0.000710655
5.60719e-05
-3.42786e-05
-0.000732448
0.000800755
6.58855e-05
-3.24851e-05
0.000378182
7.87578e-05
-0.000407738
-4.92015e-05
-0.000258216
0.000193519
8.01766e-05
-1.54794e-05
0.000304514
-0.000379468
-0.00116108
0.00123604
0.000751542
0.000320514
-0.000776635
-0.000295422
-4.69431e-05
0.000149906
-0.000111436
8.47259e-06
-0.000803476
0.000251433
0.000704165
-0.000152122
2.4935e-05
-3.63313e-05
0.000103058
-9.1662e-05
1.76558e-05
1.58354e-06
2.54337e-05
-4.4673e-05
-0.000244335
3.62073e-06
0.00010234
0.000138374
4.07137e-05
-4.35897e-07
2.30796e-05
-0.000206375
0.000132101
0.000160283
-8.60085e-05
-2.20907e-05
5.36311e-05
1.43054e-05
-4.58458e-05
-0.00041618
0.00034816
-0.000157491
0.000225511
-1.95515e-05
2.74908e-05
3.19638e-05
-3.99031e-05
8.79853e-05
0.000563574
-0.000633492
-1.80673e-05
0.000124287
0.000611742
-0.000694807
-4.12217e-05
-3.28498e-05
-6.23057e-05
7.38345e-05
2.1321e-05
-0.000528539
0.00049565
0.000825352
-0.000792463
4.07273e-05
-2.28265e-05
-0.000869939
-0.00103805
8.43849e-05
0.000958722
-5.06103e-06
0.000901466
-0.000642045
-0.000787961
1.02258e-06
-5.03136e-06
4.00877e-06
0.000152689
-9.17109e-05
0.000152601
-0.000213579
-9.73772e-05
-0.000138596
-7.07322e-05
-2.34386e-05
4.75335e-05
4.66373e-05
-0.000339888
0.000392946
0.000600914
-0.000653973
-0.000541819
0.000811727
-0.000639171
0.000369263
1.14734e-05
0.000132067
-0.000119516
-2.40245e-05
0.000553908
-0.000800162
-0.000112331
0.000358585
4.37513e-05
-4.92434e-06
4.41866e-06
-4.32456e-05
0.000209763
-3.89774e-05
-0.000217723
4.69377e-05
0.000166862
-5.42386e-07
-0.000183994
1.76739e-05
0.000178567
-0.000104563
-7.80806e-05
4.07648e-06
-0.000964534
0.0001069
-0.000156001
-0.000312748
0.000277647
-0.000655224
0.000690325
3.71953e-05
-5.58833e-05
-8.67969e-05
-0.00038187
3.18591e-05
9.833e-06
0.000340178
4.34953e-05
9.64e-05
-1.84446e-05
5.70024e-06
1.90561e-05
1.02821e-05
-3.50385e-05
8.34962e-05
0.000150974
-9.34197e-05
-0.00014105
-0.000115961
-4.53139e-05
8.97554e-05
7.15191e-05
3.0738e-05
-0.000387183
0.000432846
-7.64002e-05
8.59243e-05
-7.9404e-05
-4.27626e-05
3.62423e-05
0.000476984
-0.000276922
-0.000226533
2.64709e-05
1.50589e-05
4.55089e-05
-3.71344e-05
-2.34334e-05
5.81614e-06
0.000181259
-0.000138419
-4.8656e-05
0.000279924
-0.000143952
1.67166e-05
-0.000418693
0.000932319
-0.000532875
1.92488e-05
0.000127476
5.95993e-05
-0.000172406
-1.46699e-05
-5.65801e-05
0.000185694
-4.04288e-05
-8.86849e-05
0.000915125
0.000442736
-0.000605159
-0.000752702
3.10288e-05
-2.02865e-05
-9.9322e-06
-8.10089e-07
-0.000443515
-5.42489e-05
-0.000305712
0.000124091
-0.000206705
-8.83836e-05
0.000170998
-0.000255973
-0.000339353
0.000384109
0.000211217
0.000904425
-0.000210074
-0.000694351
0.000152306
0.000552852
-6.62962e-05
-0.000486556
0.000919626
-0.000219746
-0.00069988
0.000242069
9.77087e-05
-3.06479e-06
-9.46439e-05
-8.68569e-05
0.00026151
-0.000174653
0.000137655
-0.000184268
4.66134e-05
-6.52489e-05
0.000498336
-0.000433087
-0.000482169
0.000547395
-6.52267e-05
-0.000485105
0.000481932
3.17213e-06
-0.000367962
-3.44698e-05
0.000402432
-4.68223e-05
-5.49748e-05
0.000101797
-0.000146532
-5.98434e-05
-1.10676e-05
-1.10231e-05
-0.000110438
0.000101194
9.24395e-06
0.000209795
0.000197114
-0.000406908
0.000193688
-0.000256604
6.29168e-05
0.000239843
-0.000268626
2.87832e-05
-0.00012152
0.000136077
-1.45576e-05
-0.000341566
0.000425296
-8.373e-05
-0.000103073
6.92357e-05
3.38375e-05
-0.000426052
0.000484542
-5.84902e-05
-0.000110346
0.000135437
-2.50915e-05
0.000918277
-0.00100556
8.72835e-05
-7.52423e-05
0.000159625
-8.4383e-05
-0.000217169
0.000280525
-6.33568e-05
0.000110059
-1.6098e-05
-9.39614e-05
-0.000254281
0.00029823
-4.3949e-05
-8.14811e-05
0.000136911
-5.54294e-05
-9.199e-05
0.000312235
-0.000220245
-0.000271732
1.35162e-05
-0.000223746
0.000146651
7.70949e-05
8.74231e-05
-3.52284e-05
-5.21947e-05
4.13602e-05
0.000152158
-0.000205953
-0.000643597
-0.000337433
-9.30216e-05
-0.000344168
-8.45995e-05
-0.000123496
-0.000194193
0.000289784
-0.000122922
0.000315512
-0.000105749
0.000241362
3.1343e-05
-0.000272705
0.000157416
-3.54301e-05
-0.000121986
0.000154521
4.89878e-05
-0.00107318
0.0013777
0.000350071
-8.76486e-06
-0.000341306
-0.000931233
-0.000187573
-0.00022691
0.000100935
1.43668e-05
-8.24035e-05
6.80367e-05
-0.000745532
-0.000128102
-0.000758296
-0.000135204
-6.45425e-05
-8.70987e-06
7.32524e-05
2.6735e-05
-1.5186e-05
1.63396e-05
-2.78886e-05
-0.000180415
9.00489e-05
0.000458588
-0.000368222
-0.00089705
0.000879095
0.000699753
-0.000681798
9.43656e-06
6.49776e-07
-2.94666e-05
1.93803e-05
-0.00118449
0.00114144
-5.11086e-05
9.41634e-05
-0.00028376
0.000243673
-2.51624e-05
-3.24164e-05
3.25586e-05
-8.69991e-05
3.19704e-05
-9.95116e-05
-0.000162125
0.000229666
0.000137707
-0.00019257
-0.000330293
0.000385155
7.43495e-05
-6.67541e-05
-7.01184e-05
6.2523e-05
-0.000225391
0.000172246
0.000231711
-0.000199634
4.9606e-05
0.000577864
-0.000427836
0.000781871
-0.000675746
-0.000180237
7.41123e-05
-0.00139843
-3.42995e-05
0.000248241
0.000212451
-0.000260693
4.03207e-05
7.92143e-06
0.000251607
-1.7205e-06
-4.19265e-05
-0.00020796
0.000639149
-0.000190439
-4.26266e-05
-0.000406083
-0.000322338
-0.00023613
3.62961e-05
0.000522172
-7.37204e-05
5.41769e-05
0.00125183
-0.00123229
-0.000143827
-1.96531e-05
0.00016348
5.10079e-06
5.89547e-05
-2.56903e-06
-6.14864e-05
-0.00020536
1.8423e-06
-6.88518e-06
0.000210403
6.00416e-05
-5.94231e-05
-8.16807e-05
8.10621e-05
-8.14986e-05
0.000117593
-0.000249591
0.000213497
-7.69903e-05
0.000110237
-0.000210333
0.000177087
5.69958e-06
9.63407e-06
0.000184215
-0.000199549
0.000140902
-5.08051e-05
-0.000222971
0.000132874
0.000247606
-0.000282584
2.36786e-05
1.12995e-05
2.27591e-05
3.00795e-05
-0.00106791
0.00101508
-0.000149465
5.92415e-05
-0.000742914
0.000833137
0.000838922
-0.000840166
6.83845e-05
-6.71403e-05
0.00020856
-0.000306952
-0.000144274
0.000242667
-6.21012e-05
-4.45374e-05
4.95541e-05
5.70845e-05
-0.0001399
-3.39387e-05
0.000103022
7.08164e-05
0.000156921
-0.000140737
-3.03619e-06
-1.31484e-05
5.84987e-05
0.000718141
-0.000401959
-0.000374681
1.58117e-05
0.00025874
-0.000150461
0.000232484
-0.00023397
1.7297e-05
6.49723e-06
-6.65344e-05
0.000192138
-4.04514e-05
8.77747e-05
-0.000164101
0.000116778
2.59345e-05
1.95908e-05
8.19512e-05
5.15826e-05
-0.000532976
0.000481393
4.42628e-05
-0.00048654
0.000442277
4.56763e-05
-0.000561473
0.000515797
6.61128e-05
-5.76926e-05
-5.64262e-05
-0.000122584
-2.14217e-05
9.92328e-06
-3.07398e-05
4.22382e-05
-1.39273e-05
2.37434e-05
-0.000940125
0.000930309
-0.000310988
-0.000339998
0.000410426
0.00024056
0.00104669
-0.000447361
-0.000799307
0.000199979
-0.000648663
0.00115069
-0.000867739
0.000365712
1.24011e-05
-3.17003e-05
4.60342e-05
-7.55301e-05
-2.44426e-05
2.92405e-05
-0.0005912
-6.43658e-05
0.000283969
0.000371597
-2.41434e-05
-0.000290272
3.06556e-05
-9.57073e-05
-9.56502e-06
7.2856e-05
-4.18473e-06
9.25301e-05
-2.04054e-05
-6.794e-05
-0.000252464
0.000145833
0.000106631
-0.000113002
0.000113961
-9.59346e-07
0.000334258
-0.00019605
-0.000194789
0.000100817
-0.00037057
0.000325715
-5.59624e-05
3.48213e-05
-1.26427e-05
-0.000568778
2.96945e-05
-5.01471e-05
0.00058923
-0.000558922
2.90048e-05
-5.57736e-05
0.000585691
-0.000303682
-7.67654e-05
8.47947e-05
0.000295653
9.6829e-05
0.000288035
-0.000369755
-1.51084e-05
-0.000277429
0.000455241
0.000330199
3.01205e-05
-0.00108052
0.0011069
-5.65019e-05
1.78107e-05
9.18498e-05
-4.9619e-05
1.43595e-06
-0.00013147
-1.76457e-05
0.000120966
-9.61802e-05
-0.00013428
0.000109494
-1.06271e-05
1.56168e-05
1.24939e-05
-1.74835e-05
4.47008e-05
0.000315194
-4.97179e-06
-0.000354923
0.000106143
9.65419e-05
-4.5269e-05
-0.00032829
-6.1499e-05
0.000286192
0.000103597
-0.000504308
0.000313695
0.000387524
2.55318e-05
-1.51194e-05
0.000101813
-0.000707063
0.000453308
0.000418564
-0.000513225
1.71879e-05
0.000508988
-1.2951e-05
-0.000617338
-6.11267e-06
0.000627519
-4.06858e-06
-2.53747e-06
0.00058515
-0.000569043
-1.35691e-05
-3.14233e-05
0.000568614
-0.000556935
1.97445e-05
-0.000583832
0.00101473
-0.000743649
-0.000124605
0.000123865
-0.000118651
0.000119391
-3.65329e-05
5.00583e-05
-6.17728e-05
4.82473e-05
0.000211155
-0.000144158
2.17252e-06
-6.91703e-05
-0.000103414
8.21041e-05
-1.32738e-05
3.45838e-05
-0.000956078
0.000122936
0.000937616
-0.000104475
-0.00011819
0.000729818
-0.00078075
0.000169122
-9.14526e-05
-9.82579e-05
0.000513752
-0.000324042
-0.000141532
0.000157082
6.92145e-05
-8.47648e-05
-3.49052e-05
-0.000118058
0.000510769
-0.000357806
-2.51503e-05
9.83695e-05
8.50241e-05
-0.000158243
4.56414e-05
-8.78074e-05
0.000134418
-0.000569201
0.000531203
2.98112e-05
-1.1715e-05
1.55266e-05
0.000351307
-0.000294137
1.32794e-06
0.000210115
0.000132394
-0.000245222
-9.72871e-05
3.70553e-05
-1.50317e-05
0.000308234
-0.000330257
-9.58258e-06
3.81194e-06
-4.85651e-06
0.000645886
-0.000363716
-0.000693732
0.000728602
-0.000377754
0.000716527
-0.000371024
0.000303676
-5.45052e-05
2.75737e-05
2.32514e-05
7.64296e-05
-0.000127255
0.000483076
-0.000777021
-0.000603106
5.20447e-05
-6.05482e-06
-6.55414e-05
-0.000426587
0.000471965
0.00101215
-0.00105753
0.000843943
-0.00017141
-4.59108e-05
-0.000626622
3.3873e-06
9.91155e-06
4.35695e-06
-0.000315535
0.000235658
0.000385875
-0.00023922
6.47829e-05
-6.98984e-05
0.000180871
-0.000729426
0.000636515
-8.01143e-05
9.98423e-05
-0.000133267
0.000113539
0.000146157
0.000134305
-0.000182839
-9.76236e-05
-0.000631654
0.000570336
0.000556968
0.00014782
0.000116467
3.50624e-05
-4.11061e-05
3.96155e-05
-3.35719e-05
-5.88516e-05
-0.00024086
0.000192419
-0.000112856
0.000118718
1.83402e-05
-2.42027e-05
-0.000184388
-0.000227405
0.000784551
0.000134084
-1.29554e-05
-7.90108e-05
0.000353924
0.000108156
0.000140489
0.000113315
-4.15217e-05
0.000149234
-0.000144133
-8.87743e-06
-3.23846e-05
2.18105e-05
0.000124841
-2.33776e-06
-1.68219e-05
0.000222318
-3.71488e-05
-8.52625e-05
-3.23204e-05
0.00014238
-3.92896e-05
-0.000214992
-5.79335e-05
-0.000159235
-0.000510879
2.57744e-05
-0.000124067
-0.000578613
-7.78654e-05
-0.000538311
-5.21055e-05
5.79217e-05
-4.59377e-05
-5.69074e-05
-0.000139594
-3.07442e-05
0.000342979
0.000119913
3.46087e-05
0.000365957
0.000570598
-1.41177e-05
-5.94022e-06
-8.43763e-06
-1.88115e-05
1.20631e-05
-0.000135488
-0.000260749
0.000197871
0.000483631
-0.000506092
2.35838e-05
-1.12323e-06
6.70787e-05
-0.000217436
0.000136156
5.07048e-05
-0.000259392
0.000171645
8.27923e-06
-0.000113887
-2.00276e-06
0.00010761
0.000261886
0.000442747
0.00026348
0.000405863
3.02767e-05
-6.48272e-05
0.000162245
-0.000177818
5.15102e-05
-3.59364e-05
-0.000111239
2.43623e-05
0.00010306
-1.61834e-05
0.000155748
-4.5887e-05
-0.000101581
8.6145e-05
2.29361e-05
-5.86774e-05
-5.04037e-05
-8.908e-06
-8.08693e-05
2.83852e-05
6.13922e-05
0.000426721
-0.000118546
0.000128795
-0.000398796
0.000666569
9.35908e-05
-0.000358982
0.000635325
-7.12767e-05
9.4615e-05
-0.000118984
-9.41511e-06
4.24749e-05
-3.88607e-05
5.80083e-06
-8.10728e-05
0.000134037
-9.23221e-05
3.93583e-05
5.92697e-05
0.000141665
-3.86904e-05
-0.000624623
0.00103003
-0.000734276
0.000328872
6.58209e-05
-0.000227079
-8.71114e-05
8.98067e-05
-0.000102795
-9.70895e-05
-4.16356e-05
0.00011562
9.76787e-05
-0.00105695
0.000947665
0.00010396
0.0001083
8.33298e-05
-0.000158025
-3.36057e-05
-0.000132193
3.5824e-05
3.62617e-05
6.01078e-05
-1.19587e-05
-0.000356003
-3.36437e-05
-1.31786e-05
0.000378278
-0.000125018
-2.04402e-06
5.78278e-07
3.9529e-05
-3.80632e-05
-4.25853e-05
4.21565e-05
-0.00013899
0.000139419
0.000112189
0.000162853
-0.00011582
0.000176868
7.67288e-05
-0.00014335
-0.000110247
0.000127027
-7.57206e-06
-0.000122519
0.000239612
0.000138318
0.000423175
0.00120326
0.000138811
-0.00116337
-0.0001787
0.00016678
6.32021e-06
4.73109e-05
-0.000653764
0.000168726
0.000581091
-9.60524e-05
-0.000208781
8.131e-05
-7.89386e-05
0.00020641
2.15418e-05
-0.000114238
6.76577e-05
2.50389e-05
3.70222e-05
-8.10508e-05
4.09927e-05
3.03587e-06
-0.000208843
0.000698036
4.50378e-05
-0.000534231
-0.000292992
0.000810611
6.05105e-05
-0.00057813
0.000697633
3.15921e-05
8.94157e-05
-0.000818641
-5.87695e-05
6.3666e-06
7.97237e-05
-2.73208e-05
6.45528e-05
0.000145242
-0.000196078
0.00041696
0.000436471
0.000491504
0.000107452
0.000516886
0.000125701
0.000630631
0.000115376
0.000551291
-7.13834e-06
-4.4504e-06
3.98069e-06
7.60806e-06
-0.00019585
5.52796e-05
-3.72476e-05
-0.000376838
0.000442659
-0.000267994
0.000357801
0.000152659
-0.000194295
3.10235e-05
1.31328e-05
-1.66655e-05
-1.113e-05
-0.000165332
0.000187282
-1.08195e-05
-3.48163e-05
-7.48978e-05
0.00010146
8.2545e-06
1.98952e-05
0.00062824
-0.000413236
0.000967787
6.03944e-05
-0.00101563
-1.2556e-05
-0.00024737
0.000310546
0.000271082
0.000135925
-0.000263368
-6.92072e-05
0.00019665
0.000187501
-5.23525e-05
5.18836e-05
-3.23809e-05
0.000177527
0.000166673
-0.000105581
-0.000109279
8.4012e-05
-0.000953645
0.000926043
-0.000398985
-8.20235e-05
-0.00011422
3.835e-05
0.000137979
-3.9824e-05
-0.000136505
-7.46945e-05
0.000690187
1.63285e-05
-0.000631821
-8.64087e-05
0.000621387
2.42881e-05
-0.000559267
2.33132e-05
-8.74636e-06
-3.39675e-06
-1.11701e-05
0.000210809
-5.89192e-05
-4.26539e-05
-0.000109236
4.12374e-05
-0.000149347
0.000189682
-8.15722e-05
-5.36674e-06
0.0001546
-0.000129915
0.000179752
-7.43767e-05
2.45398e-05
-0.000280757
-5.93646e-05
0.000200131
0.000139991
-8.29842e-05
9.08046e-05
-3.14555e-05
2.3635e-05
0.000607359
1.97686e-05
-1.42831e-05
-0.000612845
-7.25575e-06
4.75641e-05
-4.44931e-05
0.000498306
-2.5283e-05
3.10925e-05
-0.000504115
0.000219649
-0.000123495
-0.000143262
4.71073e-05
-0.000523882
-2.09563e-05
-5.19501e-05
0.000596788
-0.000537253
-8.47038e-05
1.06431e-05
0.000611314
-6.73687e-05
2.23418e-05
7.16138e-05
-2.65869e-05
-0.000158528
9.72441e-05
0.000141686
-8.04023e-05
-0.000158689
-8.1302e-05
0.000180994
5.89965e-05
-0.000234702
0.000202681
-3.45137e-05
0.000756295
8.49869e-05
-4.05265e-05
4.88972e-05
4.03868e-06
-9.18458e-06
-0.00123896
-0.000108301
0.00118684
0.000160428
0.000522565
0.000242023
-0.000208766
-0.000555823
8.26636e-05
-4.28842e-05
-3.30179e-05
-6.76144e-06
-1.42692e-05
5.22794e-05
-0.000101671
6.36608e-05
4.01574e-06
-1.12715e-05
-0.000181745
9.368e-05
-0.000567262
0.000655326
0.000128928
-0.000108433
2.93457e-05
-4.98408e-05
0.000137023
-0.000128907
-1.57528e-05
7.63722e-06
5.77384e-05
0.000113229
-0.00014605
-2.49181e-05
0.000176093
-0.000140051
-8.4683e-06
0.00109679
-0.000931682
0.000261792
-0.000426904
-0.000255342
-0.000240524
0.00029479
5.51428e-06
4.6315e-05
-5.20906e-05
2.61352e-07
-0.00016512
-5.40987e-05
6.06912e-05
-0.000251461
0.00020436
-0.000111588
-6.22523e-05
-9.81894e-06
4.70254e-06
-0.000181885
0.000149923
0.000143452
-0.00011149
1.40272e-06
0.000178053
-0.000174952
-4.50381e-06
1.89358e-06
-7.41428e-06
0.000221927
-0.000409924
0.000481722
0.00112905
-1.61156e-05
2.85041e-05
1.59399e-05
-2.98341e-05
-0.000183663
0.000197557
-6.48922e-05
1.27867e-05
6.80015e-05
-9.18028e-05
5.36125e-05
8.92845e-05
-0.000176453
0.00013281
-0.000830647
0.000330539
-2.66845e-05
-0.000906154
-0.000556147
7.89974e-05
9.47571e-05
4.7788e-05
-0.000210853
-4.57168e-05
0.000187466
-0.000163813
-0.000159831
-7.83854e-05
0.000127779
8.69433e-05
0.000177062
-0.000204735
-3.03684e-05
5.30571e-05
-3.77725e-05
1.50838e-05
-0.000783495
-8.62217e-05
0.000215952
0.000319819
-0.000279471
-0.000218966
0.000178618
-0.000177083
-0.000955894
8.45718e-05
0.0010484
-7.223e-05
-0.00100287
0.00103116
4.39375e-05
6.97793e-05
-8.02693e-05
-4.83617e-05
-0.000264713
-0.000371378
0.00038872
9.86085e-05
0.000130894
-0.000121311
-0.000108192
4.22829e-05
2.53163e-05
-3.49727e-05
-3.26265e-05
-0.000790917
-0.000276438
-0.000169509
-4.22614e-05
-1.98862e-05
0.000231657
9.199e-05
-2.63189e-05
-8.72656e-05
2.15945e-05
0.000233533
-7.64783e-05
-3.78901e-06
-7.54778e-06
1.75421e-06
3.51717e-05
-0.000102991
-1.32537e-05
1.9799e-05
-3.48801e-05
1.68327e-05
-1.75149e-06
8.06439e-05
2.91136e-05
-1.47836e-05
-9.49739e-05
2.23283e-05
0.000684139
-2.04424e-05
-0.000686025
9.70419e-05
0.000633783
-5.59845e-05
-0.000674841
2.30316e-05
-5.49988e-07
-2.68264e-06
3.26262e-05
-0.00108631
0.00108656
-3.28763e-05
0.000250438
-0.00151088
6.08954e-05
0.00119955
6.69899e-05
4.67889e-05
-4.1421e-05
-7.23578e-05
0.000141719
8.68511e-06
-2.37728e-05
-0.000126631
0.000235935
-0.000354427
0.000246762
0.000721722
-0.000571524
-0.00073403
3.30486e-06
1.62305e-05
6.0707e-06
-2.5606e-05
-0.000114907
0.000118443
-9.33324e-06
5.7974e-06
-9.2933e-05
7.22922e-05
3.99492e-05
-1.93084e-05
-0.000724176
0.000230457
0.000471619
2.20996e-05
0.000105786
-3.93602e-05
7.7354e-05
-0.00014378
9.59846e-05
-2.16904e-05
2.979e-05
-0.000104084
0.000248454
2.70651e-05
2.95797e-06
-0.000278477
-3.16942e-05
8.88682e-05
-5.7174e-05
0.000316977
-0.0013055
0.000116236
-0.000138526
-0.000138197
0.000160486
-3.00808e-05
0.000151191
3.46373e-05
-3.37198e-06
6.13223e-05
5.39345e-05
-0.000111885
0.00104017
-0.0014643
0.000182828
0.000241293
0.000431669
6.46133e-06
1.36323e-05
-0.000451763
-5.70804e-06
-3.19058e-06
5.77958e-05
8.59188e-05
8.17678e-05
-0.000903341
0.000735655
-3.05342e-05
-6.15083e-05
9.17592e-05
2.83208e-07
-5.97735e-06
0.000168825
-0.00021418
5.13328e-05
-2.8486e-05
-0.000111579
0.000158885
-1.88199e-05
0.00108832
-0.000763402
-9.01958e-05
4.84355e-05
-7.10953e-05
2.67348e-05
7.978e-05
-7.14524e-05
0.000842248
-0.000575584
5.53958e-05
-0.00032206
5.77139e-05
0.000444533
-2.52633e-05
5.89607e-05
-3.86102e-05
-1.71534e-05
-0.000120641
2.78398e-05
0.000109955
0.000589854
-0.000105893
-0.00044286
-4.11007e-05
-7.37135e-07
2.35915e-06
-4.47056e-05
4.30836e-05
-6.31493e-05
-9.38604e-05
0.000160662
0.000143313
1.37083e-06
0.000110556
-7.43975e-06
-0.000104487
1.87391e-05
8.14905e-05
-1.15618e-05
3.24568e-08
0.000259983
1.14293e-05
-9.19557e-06
9.37509e-05
3.96337e-05
-1.89474e-05
8.51002e-05
0.000265545
-0.000290596
8.20553e-05
-5.70041e-05
0.00112907
-0.00109518
-0.000310114
-3.6143e-05
-0.000598159
0.000182528
0.000516448
-3.20735e-05
2.73022e-05
3.58001e-05
0.000600708
-8.3459e-05
0.00057107
-6.07969e-05
1.70983e-05
5.16501e-05
-1.08278e-06
-2.92595e-05
-3.99154e-05
7.02576e-05
4.04691e-05
-2.13084e-05
-4.86343e-05
2.94736e-05
2.24432e-05
-3.95966e-05
4.51303e-05
-9.11401e-05
7.93999e-05
-3.33901e-05
0.000697701
0.000105259
-4.66655e-05
0.000173377
0.000164638
-0.000270142
0.000238719
-0.000414344
0.000411806
-0.000365279
0.000247089
-0.00113836
0.00114122
9.84894e-05
-0.000101352
0.00026562
0.00049288
-0.000268785
-0.000473183
-0.000143464
2.74643e-05
-0.000274217
-0.000321543
0.000474693
-0.000697045
-0.000154344
0.000376696
-0.000814763
0.000334568
-9.82234e-05
0.000578418
-3.61768e-05
0.00011237
-0.00034012
0.000263927
-2.22297e-05
-6.124e-05
-0.00114764
0.00123111
7.92641e-05
-0.000370494
0.000742442
0.00018379
-0.000798435
-0.000127796
-6.38677e-06
6.03683e-06
3.13734e-05
0.000668103
-0.000620481
6.77541e-05
0.000682811
-0.000734164
0.000177054
0.000535632
-0.000497332
6.91516e-05
-4.97738e-06
9.3742e-05
3.22532e-06
-0.000140704
2.25206e-06
0.000139823
5.27492e-05
-8.06881e-05
7.06327e-05
-4.26938e-05
0.00061003
-0.000515534
-7.23829e-05
-2.2114e-05
0.000663674
-0.000564385
-1.24759e-07
-9.91636e-05
0.000100312
0.00152306
-0.00119453
-0.000428842
-1.34949e-05
8.13672e-06
-2.90563e-05
3.44145e-05
-0.000993006
-0.00063741
0.00105494
0.000575472
6.47763e-06
-5.64612e-05
-9.79488e-05
0.000147932
-1.37163e-05
6.98101e-05
8.00131e-05
-0.000136107
1.47192e-05
-3.18167e-05
-4.01535e-05
5.7251e-05
0.000121546
-4.47488e-05
0.000620903
0.000579752
-0.000796382
0.000304616
0.00056907
-0.000791961
0.000347177
-1.50059e-05
8.23857e-05
-6.47823e-06
1.2758e-05
3.58667e-05
-4.21465e-05
0.000659022
-6.59268e-05
0.000136723
-2.5524e-06
2.47525e-05
-1.08957e-05
-1.82704e-05
-8.95523e-05
-6.29769e-06
0.00011412
0.000107101
0.000822031
-0.000687108
-0.000264338
-0.000364141
0.000317491
0.00072012
-0.000675489
-0.00018606
0.000141428
-0.000138598
0.000124365
9.5543e-05
0.000131296
-3.46986e-05
6.30283e-05
0.000117579
-2.51066e-05
4.44384e-05
-3.38783e-05
8.93058e-05
0.000518578
-0.000625263
0.000106685
-0.00039925
0.000286476
-0.00125725
0.00137003
-0.000244039
0.00015787
0.000362375
-0.000276206
0.000110628
5.4489e-05
-6.98852e-05
-9.52314e-05
-0.000428308
-3.02249e-05
0.00058606
-0.000127528
0.000213274
-0.00017902
-0.000374142
-6.7712e-06
-1.89801e-06
2.31579e-07
0.000126556
-8.83816e-05
7.24531e-05
-2.9581e-06
-0.000113613
1.66477e-06
9.32265e-05
1.44333e-07
-0.000143862
5.04917e-05
0.00016626
-0.000229663
0.000224135
-0.000160731
4.3962e-05
2.44864e-05
8.84731e-05
-7.08668e-05
7.8357e-06
7.6164e-05
1.22499e-05
-3.50704e-05
4.67989e-05
-2.39784e-05
-4.33102e-07
-9.81428e-05
0.000127949
-2.93734e-05
5.40653e-05
4.23749e-07
9.29685e-05
-7.79352e-05
5.19566e-05
6.16353e-05
-3.02814e-05
0.000110365
8.55102e-05
-0.000183392
-8.40029e-05
-0.00069895
-0.000410766
0.000844401
0.000265315
0.000822446
-0.00104089
0.000356416
-0.000137971
-1.14216e-05
-0.00019192
0.000198762
4.57954e-06
-0.000100995
0.00028366
-0.00031514
0.000132476
-4.72013e-06
-4.21627e-05
7.28321e-05
-2.59492e-05
-0.00132929
0.00116421
-0.000242992
0.000408073
0.000369587
-0.000315959
-0.000127002
7.3374e-05
1.23396e-05
0.00072392
-0.000720306
-1.59531e-05
-0.000314509
1.85579e-05
0.000124109
-0.000544288
0.000528877
-0.000108698
0.000174746
-0.000585807
0.000574546
-0.000163484
-0.000102791
-0.000753981
0.000856772
9.00143e-05
-2.8192e-05
8.56123e-05
-0.000147435
7.25257e-07
-4.55923e-06
1.70217e-07
3.66376e-06
-1.77621e-05
3.04643e-05
5.34259e-06
-1.80447e-05
-0.000124391
-5.65371e-05
8.79951e-05
8.27521e-05
-0.000154186
0.000187669
-0.000134878
-3.33685e-06
9.1141e-05
4.70742e-05
-0.000154907
4.8902e-07
0.000111648
4.27702e-05
-2.65981e-05
1.20303e-06
0.000337274
-0.000311879
0.00106505
-0.00110024
-3.24259e-05
6.76133e-05
-0.000221794
1.02321e-05
0.000275056
-1.47841e-05
-0.000260272
2.30393e-05
-0.000131789
1.16469e-05
9.71028e-05
-2.46359e-05
-8.99078e-06
3.13808e-05
2.24589e-06
1.07655e-05
-7.87423e-05
0.0002179
-1.06367e-05
9.97537e-06
-6.1591e-05
-6.21179e-05
5.46502e-05
-0.000243994
2.6735e-05
-1.60579e-05
-0.000175797
0.00060186
4.13702e-05
-5.80803e-05
0.000581209
3.37108e-05
-4.63058e-05
-0.000506299
3.05144e-05
-3.74405e-05
-0.000542357
-6.00671e-05
-1.49139e-05
-0.000353103
-0.000184249
0.000209062
-0.000942593
-0.000169024
0.000271451
0.000181791
8.89304e-05
-9.38533e-05
-8.39096e-05
-0.00117269
0.00118288
-6.89112e-05
5.12284e-05
-0.000234781
-9.18633e-05
-5.33447e-05
3.22063e-05
0.000642229
-0.000193685
-0.000534953
0.000663975
-0.000171224
-0.000567446
4.54962e-05
-2.15402e-05
-0.000109489
8.55335e-05
-2.49166e-05
0.00072583
1.92069e-05
1.82839e-05
-7.56087e-06
-5.42966e-05
4.35736e-05
2.66915e-05
-1.49126e-05
-8.055e-05
6.87711e-05
3.6738e-05
-2.7695e-05
7.29663e-06
7.25119e-05
-3.80324e-05
-0.00023033
-6.51703e-05
-3.99403e-05
4.8277e-05
5.68336e-05
0.000318693
-4.44963e-05
6.15661e-05
-0.000335763
-0.000300279
-6.84699e-05
5.42402e-05
-0.000381413
0.000243238
0.000319046
0.000102124
0.000175489
-0.00019067
1.09397e-05
2.00681e-05
-1.5391e-05
1.68876e-05
-6.39383e-06
-1.42643e-06
-9.06735e-06
-0.000558067
3.02832e-05
0.000506936
2.08479e-05
0.000299275
0.000350499
-0.000569641
-8.01333e-05
0.000241127
-0.00062751
-0.000312568
0.000418952
0.000322183
-0.000609104
-0.000132031
0.0001464
-0.000140889
3.52737e-05
-4.0784e-05
0.000112304
0.000161019
-0.000997499
3.59174e-05
-1.58835e-05
-2.6805e-05
0.000140384
3.8606e-06
-0.00011751
1.87507e-05
-2.9515e-05
1.27575e-07
0.000899207
-2.30251e-05
-0.000766193
-0.000109988
8.67374e-05
-1.52949e-05
-9.80828e-05
-0.000208869
-2.00577e-05
0.000108926
-0.000101266
0.00109598
0.000155972
-5.10606e-05
0.000243305
7.33008e-05
-0.000392866
0.00031596
0.000504926
-0.00042802
0.000319274
-0.000310709
0.000518517
-0.000527082
2.41546e-05
-0.000183264
-2.43691e-05
0.000183479
-0.000199578
0.000184213
6.37429e-05
-4.83771e-05
-0.000245786
4.52859e-05
4.52966e-05
0.000155204
-0.00108933
0.00108108
9.00198e-05
-0.000692916
0.000454938
-0.000618072
0.000513142
-0.000388687
-0.000137465
0.000144739
0.000106138
-3.59797e-05
0.000859988
-0.00102775
-0.000262804
0.000430563
-0.000222713
-0.000988864
0.00119003
2.15458e-05
-0.00104049
0.00105713
-0.000100548
-0.000478926
0.00042306
0.000347754
-0.000291887
-0.000263194
0.000275757
1.19547e-05
-2.45184e-05
-0.00012701
-4.04705e-05
2.67438e-05
-0.000660456
0.000781273
-0.000531583
0.000140675
-9.28455e-06
-3.96877e-05
0.000142097
1.61536e-05
-0.000118563
-0.000215505
0.000195326
-7.29977e-05
7.03486e-05
0.00018444
-0.000913995
0.000873908
-0.000277862