/*--------------------------------*- C++ -*----------------------------------*\
| =========                 |                                                 |
| \\      /  F ield         | OpenFOAM: The Open Source CFD Toolbox           |
|  \\    /   O peration     | Version:  v1912                                 |
|   \\  /    A nd           | Website:  www.openfoam.com                      |
|    \\/     M anipulation  |                                                 |
\*---------------------------------------------------------------------------*/
FoamFile
{
    version     2.0;
    format      ascii;
    class       surfaceScalarField;
    location    "0.47";
    object      phi;
}
// * * * * * * * * * * * * * * * * * * * * * * * * * * * * * * * * * * * * * //

dimensions      [0 3 -1 0 0 0 0];
oriented        oriented;


internalField   nonuniform List<scalar> 
11117
(
-2.21375e-05
5.33972e-05
1.00908e-05
-4.13505e-05
1.09234e-05
0.000145965
-8.41212e-06
-0.000148476
-6.42741e-05
9.53007e-05
-1.93991e-05
-1.16276e-05
-0.000648454
6.91525e-05
0.000201667
0.000377635
0.000230332
8.36549e-05
-3.437e-05
-0.000279617
-3.14242e-05
6.37635e-06
-0.000124859
0.000149907
-0.000705692
-0.000106435
0.00062407
0.000188056
-0.000205416
-1.96288e-05
0.000138231
8.68139e-05
0.00120473
0.000228768
-0.000894728
-0.00053877
0.000191203
-5.41593e-05
-3.63049e-05
-0.000100739
-0.000860552
0.000931935
0.000295838
-0.000367221
-9.08095e-05
-0.000195449
0.000100308
0.00018595
-0.000681166
-0.000220818
0.000411733
0.000490252
0.000871656
-0.00117358
0.000588456
-0.000286537
5.06515e-05
-6.61992e-05
0.000119647
-0.000104099
-6.0738e-05
1.75464e-05
-3.59359e-05
7.91275e-05
-6.34277e-05
8.48519e-06
-3.66763e-05
9.16188e-05
-0.000726428
0.000729604
0.000798016
-0.000801193
0.000125971
4.10493e-05
-0.000116369
-8.61423e-06
5.00286e-06
8.49245e-05
-8.13131e-05
-0.000338598
0.000186968
6.54666e-05
8.61638e-05
-1.486e-05
1.11337e-05
0.000105945
-0.000102219
0.000540251
0.000404334
-0.000310149
-0.000634436
8.25533e-05
7.20901e-05
-7.43186e-05
-8.03248e-05
0.000233551
0.000180529
-0.000246015
-0.000168065
0.000976976
-0.001003
0.000289847
-0.000263818
0.00023246
-0.000348169
0.000652272
-0.000536564
-0.000271023
0.000353916
-0.000272347
0.000189454
0.000167824
-7.30244e-05
0.000961595
-0.00105639
6.0478e-05
-3.3212e-05
3.90302e-05
-6.62962e-05
-0.000160778
2.35764e-05
0.000218084
-8.08831e-05
-8.46977e-05
-0.000236208
0.000246537
7.4369e-05
-0.00011936
-0.000451523
0.000378949
0.000191935
0.000154698
-3.80437e-05
-1.94705e-07
-0.000116459
0.000135234
3.71831e-05
7.33389e-05
-0.000245756
-0.000238742
9.79551e-05
-3.18322e-05
0.000172619
0.000602232
-0.000817521
0.000997776
-0.000782488
0.000216637
-0.000423472
-2.69264e-05
0.000233762
0.000682763
-0.000199854
-0.000819927
0.000337018
0.000204663
0.000352042
-0.000442811
-0.000113894
0.000152076
0.000108726
-0.000171749
-8.9053e-05
8.90705e-05
-9.03244e-05
8.7509e-05
-8.62551e-05
0.000982334
0.000865625
-0.00086918
-0.00097878
2.86093e-05
2.36565e-06
7.09304e-06
-3.8068e-05
4.26208e-06
0.000154606
-3.28965e-05
-0.000901727
0.000714826
-0.000216397
0.000403298
-0.000432373
0.000286373
-6.61411e-05
0.000212141
7.35187e-05
-0.000192668
0.000148236
-2.90869e-05
-0.000309063
0.000420889
-0.000225822
0.000113996
-9.09978e-05
7.31669e-06
8.36811e-05
5.3545e-05
7.41021e-06
-6.09553e-05
-0.000325414
-0.00110921
0.000500618
0.000934003
0.000133503
-6.1134e-05
0.000142888
-0.000215257
-0.000251766
0.000310367
8.00548e-05
-0.000138655
1.54938e-05
-1.54938e-05
0.00040079
0.000173381
-0.000528439
-4.57328e-05
0.000139597
8.74558e-05
-0.000202749
-2.43043e-05
-9.12152e-05
-6.36413e-05
0.000140914
1.39426e-05
0.000870612
0.000113938
-0.001343
0.000358456
-0.000413249
0.00084516
0.000545065
0.00083809
-0.000854538
4.52323e-05
-2.87842e-05
0.000126011
-6.91203e-05
-5.76483e-05
7.57776e-07
-0.000137967
-0.000130992
0.000108181
2.17175e-05
-4.75419e-05
-5.88734e-05
0.000120915
-3.86724e-05
-0.000201603
-4.48907e-05
-0.000118209
9.99866e-05
6.31134e-05
0.00013814
-0.000149682
6.61642e-05
-5.46224e-05
5.03636e-05
-0.00029736
0.000246996
-0.000819633
-0.000446841
0.000664177
0.000602297
3.31063e-06
2.32617e-05
-2.58924e-07
-2.63134e-05
0.000454907
-0.000133599
-0.000646722
-0.000235711
0.00020645
0.000167401
-0.000278246
-0.00127317
0.00131077
0.00024065
2.66461e-05
8.47273e-06
-9.77704e-05
6.26516e-05
-0.000862529
-0.000683532
-8.44983e-05
-7.50215e-06
0.000282528
-0.000190527
8.10952e-05
-3.25458e-05
-4.85494e-05
-0.000978647
-0.000162337
0.00013798
2.51368e-05
6.55284e-07
2.81728e-06
-2.80502e-05
-1.65429e-05
4.45931e-05
5.59827e-05
5.18132e-05
-9.11575e-06
-9.86801e-05
7.40339e-05
1.68926e-05
5.36521e-06
-9.62917e-05
1.16677e-05
3.76962e-05
-3.0133e-05
-1.92309e-05
-0.000332193
0.000423744
0.000267002
-0.000358552
-0.000152769
-5.1096e-05
0.000206304
-2.43924e-06
5.44081e-05
-0.000567418
0.00051301
-5.88967e-06
-0.000633123
0.000639012
3.19708e-05
-0.000461861
0.00042989
9.12725e-05
-2.70729e-06
6.60888e-05
-0.000154654
-8.60991e-05
0.000102264
0.000306844
-0.000323008
0.000511816
-0.000152795
7.77112e-05
-0.000436732
0.000794337
5.91555e-05
-5.60205e-05
-0.000797472
0.000724356
-5.74543e-05
6.0359e-05
-0.00072726
-0.000658155
3.61541e-05
-2.53916e-05
0.000647393
-0.000728277
5.85096e-05
-3.15195e-05
0.000701287
-8.23265e-08
0.000226578
-0.000329621
0.000103125
0.000571655
2.28385e-05
-2.27581e-05
-0.000571735
0.000699149
3.89234e-05
-2.90153e-05
-0.000709057
0.000755863
5.82296e-05
-3.22324e-05
-0.00078186
0.000806444
6.2614e-05
-3.09687e-05
0.000394663
7.96339e-05
-0.00041903
-5.52668e-05
-0.000202848
0.000160864
5.83637e-05
-1.63793e-05
0.00030071
-0.000374033
-0.0011461
0.00121942
0.000854797
0.000413242
-0.000873405
-0.000394634
-2.18104e-05
-5.50788e-05
4.74316e-05
2.94577e-05
-0.000804647
0.000306711
0.000718555
-0.000220619
2.49313e-05
-3.80561e-05
0.000100287
-8.71623e-05
2.19085e-05
-1.71613e-06
3.10283e-05
-5.12207e-05
-0.000247229
1.83663e-06
0.000104207
0.000141186
2.16706e-05
-8.5538e-07
4.32159e-06
-0.000532061
0.000317758
0.000329895
-0.000115591
-0.00010678
0.000207204
5.55538e-05
-0.000155978
-0.00041954
0.000348113
-0.000177948
0.000249375
-2.65354e-05
3.81267e-05
3.66278e-05
-4.82191e-05
0.000113932
0.000653946
-0.000741336
-2.6542e-05
0.000112389
0.000610116
-0.000687916
-3.45895e-05
-3.52521e-05
-3.50432e-05
5.48987e-05
1.53966e-05
-0.000562728
0.000552775
0.000836302
-0.000826348
3.8039e-05
-2.12938e-05
-0.000871283
-0.00103753
8.94494e-05
0.000959302
-1.1224e-05
0.000865449
-0.000622905
-0.000805271
6.11532e-06
-1.92813e-05
1.3166e-05
0.000183969
-0.0001304
0.000195391
-0.00024896
-0.000159782
-0.00019574
-6.41998e-06
-0.000108891
-2.58838e-05
0.000141195
-0.000348092
0.000400822
0.000609927
-0.000662657
-0.000491814
0.000770581
-0.000576117
0.000297351
9.70622e-06
0.000135353
-0.00012548
-1.95793e-05
0.000546599
-0.000798282
-0.000110151
0.000361834
5.06324e-05
-4.82025e-06
4.24706e-06
-5.00592e-05
-0.000103462
0.000281113
-6.86419e-05
-0.000109009
0.000343144
-0.00019331
-0.00026475
0.000114916
0.000114695
-6.97906e-05
-4.83254e-05
3.42144e-06
-0.000934503
0.000104904
-0.000149048
-0.000261881
0.000225319
-0.000655436
0.000691997
6.33006e-05
-6.15016e-05
-6.79981e-05
-0.000398604
3.431e-05
9.61477e-06
0.000354679
3.08204e-05
0.000109076
-1.38856e-05
-1.14327e-05
3.61567e-06
8.7048e-06
-8.87807e-07
0.000183243
0.000120817
-0.000183747
-0.000120313
-6.76961e-05
-9.57012e-05
7.59597e-05
8.74376e-05
0.000111986
-0.000417867
0.000456367
-0.000150487
0.000164217
-0.000145881
-8.77123e-06
-9.56528e-06
0.000551065
-0.000275554
-0.00027718
1.6693e-06
-2.76878e-05
1.75073e-05
-4.96614e-06
1.51466e-05
5.99616e-06
0.000165129
-0.000142258
-2.88675e-05
0.000355282
-0.000210324
3.90115e-05
-0.000424767
0.000948105
-0.000542821
1.94825e-05
0.000143698
1.10844e-05
-0.00019445
3.96675e-05
-8.23413e-05
0.000286949
-4.56883e-05
-0.000158919
0.000905228
0.000437519
-0.000598369
-0.000744379
-7.45429e-06
3.71109e-06
-1.1381e-06
4.8813e-06
-0.000460774
-0.000100075
-0.000243798
0.00010711
-0.000192841
-0.00011453
0.000200262
-0.000243052
-0.000355832
0.000384676
0.000214208
0.000607281
-0.000109328
-0.000497953
0.000350569
0.000337482
6.10221e-05
-0.000398504
0.000912786
-0.000221268
-0.000691519
6.38677e-05
-4.3093e-05
8.10973e-06
3.49833e-05
-3.6547e-05
-5.31975e-05
8.97445e-05
0.000332805
-0.000329494
-3.31064e-06
-5.49252e-05
0.000532743
-0.000477818
-0.000482749
0.000548881
-6.61316e-05
-0.000487529
0.000482831
4.69727e-06
-0.000444552
-1.61095e-05
0.000460662
0.000195339
-5.28929e-05
-0.000142447
-0.00039671
-0.000135352
-3.09712e-05
-7.58087e-05
-3.6317e-05
9.74414e-06
2.65728e-05
0.00021073
0.000199417
-0.000410147
0.000185904
-0.000252211
6.63067e-05
0.000172377
-0.000138077
-3.43005e-05
-9.10946e-05
0.000110855
-1.97599e-05
-0.000584522
0.00071675
-0.000132228
-0.000117099
6.82458e-05
4.88528e-05
-0.000257753
0.00032286
-6.51076e-05
-8.68179e-05
6.92233e-05
1.75946e-05
0.000905839
-0.000989081
8.32425e-05
-0.000300624
0.000325859
-2.52349e-05
-5.31994e-05
0.000116925
-6.37254e-05
0.000246349
-0.000213208
-3.31416e-05
-0.000274471
0.000318642
-4.41704e-05
3.16431e-05
7.25589e-05
-0.000104202
-8.85615e-05
0.000369798
-0.000281237
-0.000197537
-5.31093e-06
-0.000229565
0.000147722
8.18427e-05
-0.000242627
0.000288235
-4.56083e-05
2.76458e-05
0.000133218
-0.000208903
-0.000651648
-0.00017119
-6.50188e-05
-0.000364404
-8.71188e-05
0.000133422
-0.000109846
0.00046585
-0.000122706
-2.99101e-05
-7.35519e-05
0.000206834
1.22958e-05
-0.00021913
-0.000158773
0.000113627
4.5146e-05
-5.23242e-05
9.33735e-05
-0.00106032
0.00136103
0.000621061
-4.62752e-05
-0.000574786
-0.00092119
-0.000188017
-4.25624e-05
0.000116081
-0.000103083
-2.01465e-05
0.00012323
-0.000404734
-2.76392e-05
-0.000762119
-0.000139608
5.65983e-05
-0.000183533
0.000126935
2.9047e-05
-1.08587e-05
1.20824e-05
-3.02708e-05
-0.000193141
9.65744e-05
0.000466484
-0.000369917
-0.000873034
0.000856197
0.000688775
-0.000671937
4.32445e-06
6.94033e-08
-2.03092e-05
1.59154e-05
-0.00117397
0.00113141
-5.11583e-05
9.37189e-05
-0.000284323
0.00023379
-4.39226e-06
0.000174182
-0.000163646
-4.70834e-05
2.13323e-05
-5.82849e-05
-0.000126096
0.000163049
0.000138748
-0.000270364
-0.000267245
0.000398862
0.000110657
-0.000124688
-0.000198658
0.00021269
-0.000142062
0.000102569
0.000154188
-0.000201824
5.05933e-05
0.000583926
-0.000432696
0.000786699
-0.000681122
-0.000189174
8.35969e-05
-0.00138609
-3.43574e-05
0.000246477
0.00027877
-0.000345532
5.95214e-05
7.24105e-06
0.000238258
1.40396e-05
-4.71598e-05
-0.000205138
0.00070035
-0.000224825
-3.74498e-05
-0.000438076
-0.000336844
-0.000244546
3.85472e-05
0.000542843
-8.01453e-05
5.6375e-05
0.00124603
-0.00122226
-0.000118147
1.41449e-05
0.000104002
5.7859e-05
-2.58003e-05
-6.701e-05
3.49513e-05
-0.000285331
1.82286e-05
-2.3181e-05
0.000290284
7.23688e-05
-7.18569e-05
-5.11521e-05
5.06402e-05
-8.07048e-05
0.000121406
-0.000233035
0.000192334
-1.20681e-05
5.77879e-05
5.93487e-06
-5.16547e-05
1.996e-05
-1.35496e-05
0.00011801
-0.00012442
0.000144724
-5.48672e-05
-0.000225188
0.000135331
0.000212007
-0.00022488
7.60462e-05
-6.31738e-05
3.08665e-05
2.58147e-05
-0.00107495
0.00101827
-0.000149974
5.95061e-05
-0.000761177
0.000851644
0.000851401
-0.000853641
6.76846e-05
-6.54444e-05
0.000194548
-0.000293844
-0.000137595
0.000236891
-6.68972e-05
-9.27881e-05
6.34519e-05
9.62334e-05
-0.000118915
-7.77545e-07
7.68916e-05
4.28013e-05
0.000153189
-0.000137984
3.41438e-06
-1.86185e-05
6.34692e-05
0.000694507
-0.000389303
-0.000368673
-8.78265e-06
0.000264558
-0.000148665
0.000144376
-9.7847e-05
-5.53113e-05
-5.8431e-05
5.7558e-06
0.000370433
-0.000134496
0.000131345
-6.7718e-06
9.92285e-06
-1.99723e-05
7.06824e-05
9.29882e-05
5.30137e-05
-0.000531934
0.000478921
5.12326e-05
-0.000579395
0.000528162
4.19393e-05
-0.000562474
0.000520535
6.9679e-05
-6.41507e-05
-5.04191e-05
-9.91533e-05
-2.83656e-05
4.08753e-05
-6.52058e-05
5.26961e-05
-1.16838e-05
2.30775e-05
-0.000934579
0.000923185
-0.000334691
-0.000334107
0.00040827
0.000260528
0.00103289
-0.000441627
-0.000788979
0.000197717
-0.000647126
0.00114802
-0.000862288
0.000361393
1.65008e-05
-3.805e-05
5.05963e-05
7.21522e-06
-0.000122079
0.000108444
-0.000609043
-6.73534e-05
0.000294501
0.000381895
3.86478e-06
-0.000305344
1.71563e-05
-7.74239e-05
0.000198904
5.2702e-05
-1.28714e-05
8.58449e-05
-6.23014e-06
-6.67434e-05
-7.50191e-05
4.77352e-05
2.72839e-05
-0.000239381
0.000283297
-4.39161e-05
0.000391118
-0.000226906
-0.000246554
0.000105047
-0.000378325
0.000331683
-5.84054e-05
2.189e-05
-5.77678e-05
-0.000562488
3.34469e-05
-5.66118e-05
0.000585652
-0.000378447
-1.75516e-05
3.45333e-05
0.000361465
-0.000152275
-6.42972e-05
0.000125951
9.06212e-05
9.86679e-05
0.000152877
-0.000203641
-4.79043e-05
-0.000276943
0.000453704
0.000323858
3.05952e-05
-0.00106963
0.00109606
-5.70309e-05
2.8503e-05
8.98374e-05
-4.59716e-05
-0.000116715
-0.000196222
6.11702e-05
7.2831e-05
-9.58271e-05
-8.90715e-05
0.000112068
2.91884e-05
-2.96955e-05
-5.63494e-05
5.68565e-05
3.00151e-05
0.000315692
2.47318e-05
-0.000370438
-0.000159977
-8.84373e-05
8.96412e-05
-0.000321764
-6.07197e-05
0.000279791
0.000102693
-0.000218535
0.000115166
0.000255445
0.000114345
-6.75522e-05
4.22775e-05
-0.000599925
0.000349932
0.000454656
-0.000549362
1.18974e-05
0.00054191
-4.44609e-06
-0.000698686
2.31056e-06
0.000712608
-1.62326e-05
-1.50046e-06
0.000675718
-0.000656836
-1.7382e-05
-3.41529e-05
0.000554947
-0.000543529
2.27343e-05
-0.000536431
0.00100356
-0.000729007
-6.83199e-05
9.54815e-05
-0.000134431
0.00010727
0.000266858
-0.000181842
2.39305e-05
-0.000108946
0.000140169
-0.000101645
2.64839e-05
-6.50086e-05
-7.25984e-05
7.0458e-05
-1.39934e-05
1.61339e-05
-0.000951545
0.000121118
0.000932951
-0.000102524
-0.000102413
0.000774462
-0.000825975
0.000153926
-0.000192627
8.82666e-05
0.000418623
-0.000314263
-8.86743e-05
0.000113792
-4.01485e-05
1.50308e-05
-0.000147574
-8.87277e-05
0.000675397
-0.000439095
-4.10639e-05
0.000107818
0.000110076
-0.00017683
2.77044e-05
-5.98001e-05
0.00010613
-0.000583505
0.000558628
3.4615e-05
-3.16447e-05
5.30123e-05
0.00033543
-0.000282459
1.04987e-05
7.66369e-05
7.554e-05
-0.000118659
-3.35177e-05
3.9802e-05
-1.63305e-05
0.000315553
-0.000339024
3.14889e-05
-4.53244e-05
4.3024e-05
0.000593328
-0.000351691
-0.000688478
0.000728672
-0.000378373
0.000422286
-0.000193452
0.00010686
7.83472e-05
3.04044e-05
1.96298e-05
7.84003e-05
-0.000128435
0.000478107
-0.000753993
-0.000597148
5.86595e-05
-7.48292e-06
-7.77119e-05
-0.00042541
0.000470983
0.00100995
-0.00105553
0.000842725
-0.000170649
-4.64651e-05
-0.000625611
7.40383e-06
7.22122e-06
7.28348e-06
-0.000385614
0.000258949
0.000480581
-0.000240835
6.56668e-05
-7.20614e-05
0.000273921
-0.000791015
0.000684917
-9.23571e-05
8.80139e-05
-9.97001e-05
0.000104043
-6.86561e-05
0.000301631
-0.000442512
0.000209537
-0.00068863
0.000608529
0.000632876
0.000167744
7.36717e-05
2.99826e-05
-3.7606e-05
1.94227e-05
-1.17994e-05
-0.000124876
-0.000303905
0.000228927
-0.000120937
0.000116359
0.000109138
-0.00010456
-0.00012072
-0.000215317
0.00079688
0.000135055
-1.5351e-05
-7.79812e-05
0.000221877
-3.79289e-06
0.000149384
4.89998e-05
-5.14236e-05
6.09044e-05
-3.04538e-06
-6.39047e-05
-2.08277e-05
2.28614e-05
0.000124861
-4.2646e-06
-2.42015e-05
0.000215648
-4.42702e-05
-8.85956e-05
6.51841e-08
0.000246284
-4.0356e-05
-0.000234115
-4.50199e-05
-8.17945e-06
-0.000516419
2.88902e-05
-2.17131e-05
-0.000401759
-0.000119268
-0.000700659
-7.02231e-05
7.62192e-05
-4.57628e-05
-5.42648e-05
-7.97855e-05
-2.6395e-05
0.000396193
-0.00011869
6.63659e-05
0.000361344
0.000572659
-8.4631e-05
1.41811e-06
-3.86217e-06
-1.95646e-05
1.25681e-05
1.12747e-05
-0.000244721
0.00020652
0.000502035
-0.000526552
2.4422e-05
9.51566e-08
1.51935e-05
-0.000443721
0.000322093
5.76582e-05
-0.000232504
0.000155217
2.93703e-05
-0.000171717
-7.51812e-06
0.000149865
0.000265702
0.000449124
0.00012748
0.000158894
-2.70299e-05
-0.000165638
0.000211513
-0.000269027
5.0089e-05
7.42521e-06
-0.000117346
3.40376e-05
0.000103823
-2.05152e-05
0.000242153
-4.33223e-05
-0.00016946
0.000226288
-2.21014e-05
-0.000147753
-5.64341e-05
-8.00812e-06
-7.41591e-05
2.44875e-05
5.76797e-05
0.000428483
-0.000120437
0.000136149
-0.000403391
0.000668033
2.16522e-05
-0.000134589
0.000252534
-0.000141263
0.000151695
-0.000101647
-1.79868e-05
-1.74694e-05
2.47735e-05
1.06828e-05
-8.92471e-05
0.000118645
-8.72449e-05
5.78472e-05
6.75438e-05
0.00015992
-1.59517e-05
-0.000623063
0.00102744
-0.000732744
0.000328364
6.18292e-05
-0.000232949
-6.76218e-05
4.85589e-05
8.26204e-05
4.05479e-06
-2.87985e-07
0.000154179
8.06289e-07
-0.00100349
0.000888013
4.2448e-05
7.33837e-05
5.72952e-05
-7.10025e-05
-5.96764e-05
-0.000290336
1.75626e-05
0.000125203
0.000147571
2.19246e-05
-0.000466477
-6.50329e-05
0.000260372
0.000388456
-0.000163893
3.56849e-06
-2.12918e-06
2.88329e-05
-3.02722e-05
1.90823e-06
-2.29326e-05
4.76862e-05
-2.66618e-05
0.000105199
0.000160309
-7.11347e-05
9.61216e-05
5.98542e-05
-9.13832e-05
-6.45925e-05
5.53715e-06
-2.26603e-06
4.8386e-06
0.000470721
8.91577e-05
0.000295075
0.00120831
0.000151391
-0.00116989
-0.000189808
0.000271464
7.84304e-05
0.000128773
-0.00066533
0.000173091
0.000592597
-0.000100357
-0.000208989
0.00016911
-0.000138885
0.000178764
2.45655e-05
-0.000127555
7.57557e-05
2.72333e-05
4.95094e-05
-9.26723e-05
4.78792e-05
-4.71633e-06
-0.0002014
0.000690929
4.20096e-05
-0.000531539
-0.000337105
0.000924819
7.23239e-05
-0.000660038
0.000752473
3.51671e-05
9.15262e-05
-0.000879167
-5.65562e-05
8.00793e-06
7.65745e-05
-2.80262e-05
6.56791e-05
0.000145051
-0.000212085
0.000444602
0.00043166
0.00049415
0.000109397
0.000515271
0.000129121
0.000668681
0.000123804
0.000626577
-7.15492e-06
-1.19378e-05
4.19251e-06
1.49002e-05
-0.000337594
3.94453e-05
2.91216e-05
-0.000393586
0.000455416
-5.67702e-05
0.000105329
0.000197257
-0.000197545
4.41064e-05
1.6708e-05
-2.26877e-05
1.33721e-05
-0.000148799
0.000155076
-1.96487e-05
-3.61164e-05
-0.000110459
0.000139459
7.11643e-06
1.79049e-05
0.000621323
-0.00041046
0.000964584
6.11779e-05
-0.00101237
-1.33876e-05
-0.000300363
0.000338975
0.000352506
0.000132723
-0.000260932
-7.2829e-05
0.000201038
-3.68605e-05
-3.11999e-05
6.23012e-05
-6.63534e-05
0.000120466
0.000247486
-9.37924e-05
-2.73473e-05
2.19418e-05
-0.000951213
0.00092327
-0.000397466
-0.000161666
-1.95118e-05
5.0313e-05
9.94359e-05
-4.4956e-05
-0.000104793
-7.90407e-05
0.000680906
1.99364e-05
-0.000621802
-9.4259e-05
0.000730951
2.40581e-05
-0.00066075
3.36666e-05
-1.74347e-05
-3.19265e-05
1.56946e-05
0.00025876
-2.79199e-05
-6.65682e-05
-0.000164272
3.62739e-05
-0.000143663
0.000180857
-7.34679e-05
-2.82336e-05
8.9138e-05
-0.000107466
0.000147012
-5.63185e-05
1.67725e-05
-0.000279195
-5.41861e-05
0.000196959
0.000136423
-9.72926e-05
0.000117805
-4.66003e-05
2.60878e-05
0.000656802
1.41006e-05
-1.08972e-05
-0.000660006
-9.44633e-06
2.74366e-05
-3.08617e-05
0.000494609
-2.42013e-05
3.02502e-05
-0.000500658
0.000224825
-0.000129662
-0.000150053
5.48903e-05
-0.000608857
-2.57532e-05
-6.18294e-05
0.00069644
-0.000526647
-8.56338e-05
1.344e-05
0.000598841
-7.58892e-05
3.7808e-05
7.48102e-05
-3.67291e-05
-0.000139453
6.1877e-05
0.000124456
-4.688e-05
-0.000207627
-7.21578e-05
0.000219077
6.07078e-05
-0.000383788
0.000289616
9.9927e-05
0.000764031
8.16772e-05
-3.92638e-05
5.58828e-05
3.81578e-06
-9.06617e-06
-0.00123489
-0.000108971
0.00118512
0.000158745
0.000582227
0.000203924
-0.000171526
-0.000614625
7.52029e-05
-3.89134e-05
-2.90958e-05
-7.19368e-06
-7.41438e-06
1.67401e-05
-3.44504e-05
2.51246e-05
-1.4826e-05
5.3797e-06
-0.000189043
9.76306e-05
-0.000580523
0.000671935
0.000126372
-0.000107538
3.09499e-05
-4.97837e-05
0.000212365
-0.00020501
5.94283e-07
-7.94983e-06
-4.39176e-05
0.000269565
-0.000255009
2.93613e-05
0.000175955
-0.000142709
-2.84138e-06
0.00109832
-0.000938371
0.000260673
-0.000420625
-0.000315945
-0.000298081
0.000341678
-7.88562e-05
1.76813e-05
-9.09891e-06
7.02738e-05
-0.000147917
-3.45842e-05
4.30478e-05
-0.000309051
0.0002255
-0.000124076
-8.24978e-05
-2.29468e-05
2.95554e-05
-0.000175809
0.00012019
0.000147446
-9.18269e-05
3.35838e-05
0.000252745
-0.000251902
-3.44266e-05
8.31035e-06
-8.91464e-06
0.000221231
-0.000412096
0.000486703
0.00111909
-1.64923e-05
2.88115e-05
9.99289e-06
-1.76894e-05
-0.000170662
0.000178358
-6.13898e-05
-8.83329e-06
7.86993e-05
-0.000127105
8.30211e-05
6.65511e-05
-0.000164233
0.000125387
-0.00102115
0.00036192
1.07706e-05
-0.00106608
-0.000643701
4.02724e-05
0.0001075
0.000128436
-0.000226497
-0.000110928
0.000324293
-0.000276402
-7.20247e-05
-1.19694e-05
4.76771e-05
0.000116806
0.000133118
-0.000182381
-3.48845e-05
6.26121e-05
-7.63103e-05
4.85827e-05
-0.000795632
-9.02728e-05
0.000220574
0.000308701
-0.000258184
-0.000253234
0.000202717
-0.00017174
-0.000968576
8.17024e-05
0.00105861
-6.95624e-05
-0.0010001
0.00102807
4.15938e-05
9.07714e-05
-0.000106226
-0.000109421
-0.000318939
-0.000408381
0.000426958
9.32157e-05
8.2421e-05
-0.000108785
-6.68518e-05
3.99805e-05
3.10047e-05
-3.10694e-05
-3.99157e-05
-0.000793039
-0.000278855
-0.000168555
-3.98337e-05
-2.28273e-05
0.000231216
9.97556e-05
-1.60931e-05
-9.77558e-05
1.40932e-05
0.000238215
-7.77683e-05
-2.31293e-05
2.94032e-05
2.5215e-05
5.25028e-05
-0.000126382
-1.53682e-05
-1.66836e-05
-8.46835e-06
4.23492e-05
-1.71972e-05
9.57107e-05
4.06026e-05
-2.10753e-05
-0.000115238
4.76227e-05
0.000768017
-3.49366e-05
-0.000780703
7.44724e-05
0.000662034
-4.53455e-05
-0.000691161
2.93663e-05
-2.99753e-05
-1.60746e-05
3.1571e-05
-0.00107829
0.00107855
-3.18279e-05
0.000244172
-0.00151549
6.38855e-05
0.00120744
7.77866e-05
5.68372e-05
-5.70928e-05
-7.75311e-05
0.000134452
1.05212e-05
-2.82021e-05
-0.000116771
0.00019885
-0.000393659
0.000278464
0.00076002
-0.000567388
-0.000729063
1.6222e-06
2.20767e-05
6.55693e-06
-3.02559e-05
-0.000105809
0.000106135
-1.56183e-06
1.23572e-06
-3.82355e-05
4.33608e-05
-1.7442e-05
1.23167e-05
-0.000722452
0.000231785
0.000469982
2.06855e-05
8.58796e-05
-1.35059e-05
4.11753e-05
-0.000113549
0.000107503
-2.78423e-05
3.61816e-05
-0.000115843
0.00027249
2.87939e-05
8.21932e-06
-0.000309504
-3.4063e-05
0.000108544
-7.44814e-05
0.00031034
-0.00130106
3.44674e-05
-3.47316e-05
-0.000142427
0.000142691
-2.92034e-05
0.000228413
4.29432e-05
-9.34841e-05
0.000146253
6.02554e-05
-0.000113024
0.00103698
-0.00145987
0.000182872
0.000240016
0.000450503
7.08484e-06
1.32693e-05
-0.000470857
-6.14106e-06
-3.8892e-06
6.59131e-05
8.74777e-05
8.27676e-05
-0.000925493
0.000755248
-3.32504e-05
-8.4074e-05
0.000122416
-5.09183e-06
5.21992e-06
0.000169382
-0.000220791
4.61884e-05
-1.22849e-05
-8.42167e-05
0.000110799
-1.42978e-05
0.00116275
-0.000782912
-0.000107283
0.000164553
-0.000178207
2.16169e-05
6.28696e-05
-5.45039e-05
0.000837838
-0.000572943
5.31786e-05
-0.000318074
0.000137077
0.00048998
-7.59916e-05
7.32434e-05
-4.86469e-05
-1.75691e-05
-0.000122122
2.35012e-05
0.00011619
0.000693501
-0.000171201
-0.000506155
-1.61448e-05
1.27145e-05
-2.30332e-05
9.51172e-06
8.07031e-07
-4.81234e-05
-2.92908e-05
5.25514e-05
5.33763e-05
-2.12705e-06
0.000110972
1.71989e-06
-0.000110565
5.57041e-05
0.000164067
-2.05337e-07
-8.7125e-06
0.000281408
1.40262e-05
-1.12335e-05
0.000104711
1.4724e-05
-4.23403e-06
7.53897e-05
0.000278156
-0.000298395
4.62701e-05
-2.60319e-05
0.00114317
-0.0011171
-0.000304316
-1.15467e-05
-0.000610352
0.00018815
0.000527249
-3.19393e-05
4.29131e-05
-1.84282e-05
0.000669704
-4.07249e-05
0.000533775
-5.54583e-05
3.52566e-05
4.68479e-05
4.46395e-06
-3.55678e-05
-6.90191e-05
0.000100123
3.33581e-05
1.27361e-05
-5.00629e-05
3.96878e-06
6.08197e-05
-7.83888e-05
6.02046e-05
-9.73736e-05
8.35328e-05
-4.63638e-05
0.000707604
0.000102301
-4.5874e-05
0.000179102
0.000165039
-0.000256401
0.000222248
-0.000467894
0.000466394
-0.000475641
0.000373228
-0.0011282
0.0011309
9.67738e-05
-9.94685e-05
0.000302805
0.000478271
-0.000322995
-0.000424504
-6.96554e-05
9.53264e-05
-0.000232789
-0.000178372
0.000477237
-0.000734413
-0.000140358
0.000397534
-0.000930615
0.000415232
-0.000132547
0.00064793
-3.13828e-05
0.000107873
-0.000341543
0.000265052
-1.1958e-05
-6.99147e-05
-0.00114619
0.00122806
8.43059e-05
-0.0003759
0.000752326
0.000180898
-0.000805602
-0.000127622
-2.30035e-06
-6.27553e-07
4.70343e-05
0.000739927
-0.000675706
5.95829e-05
0.000762715
-0.000819882
0.000186288
0.000530577
-0.000493488
7.23078e-05
5.63436e-06
0.000100457
-6.3362e-06
-0.000137628
3.12582e-07
0.000135188
5.74942e-05
-9.26475e-05
8.3696e-05
-4.85427e-05
0.000615462
-0.00052037
-4.88549e-05
-4.62374e-05
0.000771715
-0.00065283
-2.18022e-05
-9.7083e-05
0.000109855
0.0015221
-0.00119242
-0.000439543
-9.67872e-06
4.62662e-06
3.50121e-05
-2.996e-05
-0.000990076
-0.00063701
0.00105302
0.000574068
-1.52331e-06
-2.80165e-05
-7.00939e-05
9.96337e-05
-4.57477e-05
7.8919e-05
9.82493e-05
-0.000131421
3.86703e-05
-6.48276e-05
-4.89328e-05
7.50901e-05
0.000119268
-4.44858e-05
0.000632822
0.00067201
-0.000930955
0.000372877
0.000569156
-0.000781162
0.000324395
-2.99604e-05
7.47413e-05
-6.9548e-06
1.3631e-05
4.02483e-05
-4.69245e-05
0.000706893
-7.28322e-05
0.000140401
-5.72047e-05
2.75665e-05
-1.20727e-05
0.000118648
4.70787e-05
-8.88909e-05
-7.68353e-05
8.07367e-05
0.0008714
-0.000748213
-0.000261137
-0.000383741
0.000310187
0.000820976
-0.00076996
-0.000248375
0.000197359
-0.000108384
0.000195755
8.17388e-05
0.00021007
-3.74542e-07
0.000116163
9.09376e-05
-4.37914e-05
2.54127e-05
-3.6837e-05
9.26065e-05
0.000525042
-0.000633875
0.000108833
-0.000394548
0.000282441
-0.0012425
0.00135461
-0.000280664
0.000214523
0.000413108
-0.000346967
0.000112234
3.51592e-05
-5.94613e-05
-8.79321e-05
-0.000432724
-2.87547e-05
0.000593657
-0.000132178
0.000214229
-0.000182794
-0.000379527
-5.90268e-06
-1.02893e-06
3.06944e-06
0.000109789
-8.05462e-05
8.29916e-05
4.53296e-06
-0.000108638
-1.70406e-06
0.000146119
-4.72254e-05
-0.000224164
0.000125271
0.000144198
-0.000234662
0.000281515
-0.000191052
3.80504e-05
2.81411e-05
8.69971e-05
-8.80452e-05
9.10933e-06
9.56438e-05
2.32917e-05
-4.97578e-05
6.76087e-05
-4.11425e-05
-1.01687e-05
-8.7758e-05
0.00011574
-1.78135e-05
3.85236e-05
-3.36437e-06
0.000106823
-9.40219e-05
6.49856e-05
4.65751e-05
-1.34981e-05
0.000101375
0.000133412
-0.000209208
-0.000100013
-0.000745974
-0.000364957
0.000874841
0.00023609
0.000821318
-0.00103903
0.000355259
-0.000137544
-1.09402e-05
-0.000268043
0.000276383
2.59943e-06
-7.76783e-05
0.000328165
-0.000377433
0.000126946
0.000116387
-0.000162511
0.000103639
-5.75152e-05
-0.00131207
0.00115188
-0.000242443
0.000402641
0.000373285
-0.000319372
-0.000128051
7.41381e-05
1.36973e-05
0.000806963
-0.000802184
-1.84764e-05
-0.000330344
1.92174e-05
0.000134013
-0.000523296
0.000500095
-0.000110812
0.000191364
-0.000686669
0.000680631
-0.000185326
-0.00010608
-0.000741341
0.000847421
0.000114549
-4.76609e-05
0.000112338
-0.000179227
1.54069e-06
-5.02938e-06
-3.50966e-07
3.83966e-06
-5.44256e-05
5.25393e-05
-1.20504e-06
3.09135e-06
-3.48769e-05
-7.01427e-06
3.65565e-06
2.53624e-05
-0.000148661
0.000157766
-0.000116326
-1.47421e-05
8.41592e-05
4.69087e-05
-0.000217584
2.60761e-05
0.00013974
5.17675e-05
-2.55969e-05
2.12105e-07
0.000347092
-0.000321707
0.00108001
-0.00111139
-4.13187e-05
7.27006e-05
-0.000256166
4.46549e-05
0.000295162
-1.02175e-05
-0.000284944
2.94944e-05
-0.000178668
1.38442e-05
0.00013533
2.48782e-05
3.10705e-05
-1.27476e-05
-4.3201e-05
1.4474e-05
-5.54313e-05
0.000161147
1.78565e-05
-2.79844e-06
-9.75559e-05
-7.56612e-05
4.17717e-05
-0.000275161
2.63627e-05
-1.08108e-05
-0.000163468
0.000696514
5.05209e-05
-7.13171e-05
0.000567787
2.8851e-05
-4.1691e-05
-0.00054145
1.04965e-05
-1.84084e-05
-0.000615177
-4.54301e-05
-3.80784e-05
-0.00034849
-0.000181908
0.000208634
-0.000960684
-0.000168533
0.000275575
7.66145e-05
4.34757e-05
-2.39687e-05
-9.44736e-05
-0.00117781
0.00119214
-2.97668e-05
3.02763e-05
-7.55286e-05
-0.000117774
-5.04625e-05
-7.11449e-05
0.000754445
-0.000218652
-0.000630052
0.000651334
-0.000173999
-0.000556376
3.25076e-05
8.41095e-06
-0.000227812
0.000186894
-4.79982e-05
0.000818584
5.03893e-05
6.63353e-05
-6.80093e-05
-3.86593e-05
4.03334e-05
9.01685e-06
2.66919e-06
-7.5124e-05
6.3438e-05
4.06294e-05
-3.14693e-05
2.92232e-06
3.66848e-05
5.40859e-05
-0.000428364
-7.4468e-05
-1.74733e-05
5.43339e-05
3.76074e-05
0.000323131
6.85336e-06
5.95951e-06
-0.000335944
-0.000314566
-7.28583e-05
5.70804e-05
-0.000426938
0.000326357
0.000374502
0.000138679
8.0506e-05
-0.000102379
-1.78397e-05
-5.4756e-05
4.29002e-05
1.69167e-05
1.88662e-05
-3.40052e-05
-1.7777e-06
-0.000346115
2.45364e-05
0.000312306
9.27273e-06
0.000289712
0.000343644
-0.000556802
-7.65553e-05
0.000225006
-0.000624882
-0.000346099
0.000484166
0.000378952
-0.000707668
-0.00015545
7.98344e-05
-6.92658e-05
3.79803e-05
-4.85488e-05
0.000112975
0.000157934
-0.000993361
3.20599e-05
-1.23996e-05
-2.55631e-05
0.000117108
1.55533e-05
-0.000106298
4.18047e-05
2.03131e-05
-4.42612e-05
0.000897163
-2.30375e-05
-0.000764459
-0.000109666
0.000345723
7.51657e-05
-8.19841e-05
-0.00021186
-2.1826e-05
0.00013037
-0.000100764
0.00109537
0.000153418
-2.13762e-05
0.000259297
4.02352e-05
-0.000382525
0.000308548
0.000494757
-0.00042078
0.000243216
-0.000207806
0.000397544
-0.000432954
9.11635e-05
-0.000251878
-7.54992e-05
0.000236214
-0.000198847
0.000165244
5.7838e-05
-2.42352e-05
-0.000243773
4.77756e-05
4.25244e-05
0.000153473
-0.00109086
0.00108491
8.87215e-05
-0.000679857
0.000442922
-0.000715856
0.000591165
-0.000423481
-0.000221889
0.000218432
0.000105844
-3.60288e-05
0.000858623
-0.00102589
-0.00026204
0.000429304
-0.000223687
-0.000986038
0.00118662
2.31014e-05
-0.00105932
0.00107944
-0.000114589
-0.000484929
0.00042949
0.000354588
-0.000299149
-0.000277018
0.000280558
6.6107e-06
-1.01509e-05
-0.000124072
-4.47529e-05
3.08406e-05
-0.000781634
0.00084523
-0.000428553
0.000146288
-1.03511e-05
3.1927e-05
8.57279e-05
-1.47883e-05
-0.000102867
-0.000242315
0.000216908
-1.35793e-05
2.45531e-05
6.56406e-05
-0.000909668
0.00087162