/*--------------------------------*- C++ -*----------------------------------*\
| =========                 |                                                 |
| \\      /  F ield         | OpenFOAM: The Open Source CFD Toolbox           |
|  \\    /   O peration     | Version:  v1912                                 |
|   \\  /    A nd           | Website:  www.openfoam.com                      |
|    \\/     M anipulation  |                                                 |
\*---------------------------------------------------------------------------*/
FoamFile
{
    version     2.0;
    format      ascii;
    class       volVectorField;
    location    "0.47";
    object      U;
}
// * * * * * * * * * * * * * * * * * * * * * * * * * * * * * * * * * * * * * //

dimensions      [0 1 -1 0 0 0 0];


internalField   nonuniform List<vector> 
5794
(
(-0.166787 0.477431 -3.01701e-17)
(0.0639013 1.55764 0)
(0.725385 -0.239493 -1.65173e-16)
(0.821306 4.1191 9.57012e-17)
(0.626279 2.45548 2.63055e-17)
(-0.137045 1.44695 -1.13519e-16)
(3.7038 -0.166056 -1.52482e-16)
(0.959026 -0.261601 0)
(5.66329 0.793155 1.0113e-16)
(-0.761519 -0.465789 2.04143e-16)
(4.66471 -0.103336 -2.79557e-19)
(-0.834363 -0.600713 0)
(-3.62468 0.0207195 4.38355e-16)
(0.384095 7.93977 1.58401e-16)
(0.877302 -0.292149 4.61761e-16)
(0.570719 -0.0374223 -1.55254e-16)
(-0.025555 0.128584 4.48568e-17)
(0.133415 7.74506 1.10851e-16)
(0.617956 -0.305438 4.41312e-16)
(0.0899147 0.97319 1.52457e-16)
(-3.07057 1.84397 -4.31798e-17)
(0.0482708 1.22435 -1.44729e-16)
(3.72113 0.108515 2.19449e-16)
(0.533059 0.111405 -6.38171e-16)
(1.76257 0.216848 -3.95564e-16)
(2.86338 11.0031 2.02497e-17)
(5.08892 -0.691762 0)
(0.416 2.47385 -1.52764e-16)
(0.328698 9.10385 -3.81828e-17)
(0.506398 -0.049671 2.83532e-16)
(-0.598396 -0.929092 -6.25984e-16)
(-1.17897 -0.0501464 -5.17892e-16)
(-2.14366 0.118258 -9.01029e-16)
(0.963725 -0.423656 4.03952e-16)
(1.25511 -0.507618 -1.89155e-16)
(-1.3919 0.505637 1.84786e-16)
(9.71049 0.636115 -2.15601e-16)
(1.71158 -0.713997 0)
(4.14329 -0.303912 1.18674e-16)
(0.0630276 3.64811 0)
(0.415806 1.38454 -1.12528e-16)
(0.832767 -0.493385 1.46459e-16)
(7.2113 0.106551 -8.6207e-19)
(-0.0650146 0.313898 0)
(0.582947 -0.693486 -4.0896e-16)
(4.65989 -0.159466 1.36601e-16)
(2.0916 -0.283179 -2.80081e-16)
(-0.953246 -0.40823 0)
(-2.37686 -0.144316 5.9183e-16)
(0.0455822 -0.631919 6.98365e-17)
(0.466569 -0.0703206 -1.71844e-16)
(5.78976 -0.225337 -1.84951e-16)
(-0.824199 1.25998 0)
(-2.37348 -0.175063 1.1899e-16)
(-0.0946478 -0.0852287 1.01391e-17)
(4.8716 -0.520476 0)
(1.82992 -0.300409 -2.34943e-16)
(-1.24623 0.130883 1.61022e-16)
(8.26015 0.0609033 0)
(4.40518 10.5244 -6.83606e-19)
(9.01575 0.502172 1.89984e-18)
(0.303383 0.936398 -1.22422e-16)
(-0.0365062 -1.50673 -1.44076e-16)
(-0.499847 -0.214913 2.20513e-16)
(-1.24435 0.154284 0)
(0.952403 0.335382 -2.4314e-18)
(0.194758 0.844404 -2.44832e-16)
(0.259438 3.10909 0)
(0.313244 6.23421 -1.25065e-16)
(0.0113239 0.282471 -2.05708e-21)
(4.46903 -0.484503 1.43093e-16)
(0.328293 2.48038 -2.95772e-16)
(11.6057 2.12446 -3.82449e-18)
(0.18325 0.827935 0)
(0.246113 7.52322 1.1108e-16)
(0.720226 1.37631 4.45925e-20)
(-0.673789 -0.215571 1.27246e-16)
(1.53906 10.7974 -2.09303e-17)
(-0.0386439 0.270438 5.88591e-17)
(0.55096 -0.0360055 6.81568e-17)
(-0.244758 0.983879 -1.83138e-17)
(0.126361 0.973278 -1.48138e-16)
(-0.0808333 -0.0983882 -4.37709e-19)
(3.47902 -1.6001 -7.62268e-17)
(0.481699 -1.07488 -3.85731e-16)
(-0.060182 6.15359 -3.74015e-17)
(0.160756 6.96772 2.56352e-17)
(0.0190211 5.03113 -2.57257e-17)
(0.942916 -0.214242 -1.6097e-16)
(2.55887 1.61778 -4.38747e-17)
(0.90397 5.44843 -8.08916e-17)
(0.0219103 8.26342 -6.92769e-17)
(-0.00644627 7.54711 1.31333e-16)
(0.106198 7.17454 6.19192e-17)
(-0.0346079 7.81232 2.83055e-17)
(-2.16385 0.0435452 5.3829e-18)
(0.00617875 6.02167 -5.66296e-17)
(-0.068294 7.36498 -1.42041e-17)
(-0.0452983 8.18209 0)
(8.719 0.55189 -3.08053e-17)
(1.77456 3.38453 -1.17443e-16)
(-1.02211 0.103277 -3.94725e-16)
(8.10577 0.137416 7.38733e-17)
(0.43671 6.75203 -2.1572e-16)
(-0.42702 0.204586 0)
(0.150853 5.31716 0)
(0.0387127 0.922949 0)
(-0.394137 0.0688814 -2.7e-16)
(-1.42557 0.579814 -1.2317e-16)
(0.0048434 0.260103 -1.65e-16)
(2.60956 0.174434 -2.19016e-18)
(1.08341 -0.266877 0)
(-1.36559 4.84592 1.07246e-16)
(-0.197105 -0.337754 1.43432e-16)
(0.00301583 7.82263 0)
(-0.0517554 7.31474 0)
(0.411686 0.0991854 -3.50368e-16)
(0.190731 8.16075 -9.42172e-20)
(9.28063 0.452224 -2.44828e-20)
(10.8307 0.645907 5.84744e-18)
(0.0415349 7.19731 1.08713e-16)
(0.122811 -0.0581617 0)
(-1.97829 -0.146471 0)
(0.423651 1.82524 -2.10755e-16)
(0.753516 -0.8855 1.92052e-16)
(4.66303 2.33881 5.09346e-17)
(0.634152 6.0977 0)
(-0.0260758 1.59636 6.99755e-17)
(5.91623 -0.630926 1.23036e-16)
(-0.520797 -0.035983 1.65606e-16)
(0.996411 -0.589504 2.94593e-16)
(-1.62077 -1.17151 1.81586e-16)
(0.10122 0.81852 2.43526e-17)
(0.99805 10.4868 -6.28414e-17)
(0.0140379 6.03121 1.40732e-16)
(0.762242 -0.0167096 0)
(4.11079 -0.212898 9.40728e-17)
(0.373997 0.928946 -1.79974e-16)
(-0.112714 0.0388839 2.03053e-16)
(1.61909 -0.677832 0)
(-0.0219926 -1.01551 -4.99508e-16)
(0.366452 3.36451 0)
(0.994547 -0.659236 0)
(0.480126 3.79939 2.40918e-16)
(-0.245415 -0.0214273 2.15739e-16)
(1.05284 -0.303629 1.68096e-17)
(-0.887611 1.39037 2.06283e-16)
(7.5201 0.274622 2.37009e-16)
(-0.0766511 1.6372 -1.79239e-18)
(0.605519 1.44278 3.93571e-16)
(7.04428 -0.165305 -1.76463e-16)
(0.0469221 0.0604627 3.20689e-16)
(0.129288 5.47151 0)
(-1.36922 0.0506581 1.77116e-16)
(3.00282 -0.867047 0)
(3.41353 0.0648898 0)
(3.2042 -0.735525 -2.31993e-16)
(2.1332 -0.434668 3.69351e-16)
(4.99146 0.176833 -2.70511e-16)
(0.876897 -0.473939 -1.36655e-16)
(-0.303765 -0.0281978 3.94822e-16)
(0.147488 -0.180085 -3.95483e-16)
(1.95585 -0.277907 0)
(-2.81553 -0.0524942 -1.22311e-16)
(-2.97798 0.0184722 -3.04262e-16)
(-3.10067 -0.100966 1.66169e-16)
(-2.77989 -0.167245 1.10248e-18)
(1.13662 -0.203238 -4.00201e-18)
(2.54746 -0.0460581 0)
(0.554822 -0.17174 8.91245e-19)
(0.285725 0.035628 0)
(-1.85387 0.41527 -1.16319e-16)
(-1.6837 0.425789 0)
(-0.709682 -0.55836 9.66426e-17)
(0.815335 -0.101755 4.2432e-16)
(3.80283 0.065213 0)
(0.731627 0.0546867 -2.248e-16)
(1.69119 0.0257982 -2.35492e-16)
(0.453859 -0.162165 -8.91255e-17)
(6.02668 0.097946 6.9316e-18)
(1.83009 -0.0636523 -4.8174e-18)
(-0.609184 -0.231812 0)
(1.64842 -0.126922 0)
(-1.89796 -0.325838 1.25339e-16)
(0.238097 -0.42448 0)
(-1.63688 -0.862129 5.76209e-17)
(-1.09011 0.0594728 -1.39893e-16)
(-1.21902 0.30234 -1.01569e-16)
(-1.7024 -0.224478 1.18459e-16)
(-0.975346 0.0334584 3.16555e-16)
(4.57467 -0.0653546 -3.42595e-16)
(-1.17646 -0.0851514 3.75208e-16)
(-2.28828 -0.087412 6.00426e-16)
(0.0582517 -0.469741 6.20993e-16)
(-2.3753 -0.679684 -8.78547e-17)
(0.62902 -0.118565 -5.24423e-16)
(1.40897 -0.161081 -2.18167e-17)
(-0.749591 -0.309486 -1.66463e-16)
(0.114956 -0.238657 -2.86098e-16)
(6.24862 -0.0473118 1.23267e-16)
(3.9881 -0.0482029 -1.66787e-17)
(5.6965 0.00707839 0)
(-0.175346 -0.473441 0)
(-0.0813988 -0.239855 1.11989e-17)
(2.20658 -0.172654 -6.21642e-17)
(4.60198 0.0321955 0)
(-0.678962 -0.485698 1.0673e-17)
(0.317202 -0.0875114 2.10856e-19)
(4.23166 1.31052 -6.40326e-18)
(1.83709 8.66269 1.24815e-16)
(0.00097407 0.197723 1.44913e-16)
(9.64738 -0.00735866 0)
(-1.8146 0.117212 -9.40479e-17)
(0.968124 -0.503184 1.67344e-16)
(0.958438 -0.0618684 0)
(2.4216 0.174118 6.13906e-16)
(1.51154 0.452918 -1.51069e-16)
(0.692933 1.00766 9.85111e-17)
(4.0476 -0.186037 1.33039e-16)
(1.36392 5.6207 -1.75293e-16)
(9.56265 -0.00627463 0)
(2.49931 0.775625 2.0144e-16)
(-0.385876 1.8697 0)
(0.164214 5.22556 2.66618e-17)
(4.89803 0.121203 1.33962e-16)
(11.6258 0.738844 2.19737e-18)
(0.877564 0.193931 -7.41564e-17)
(-0.2562 -0.46223 -1.10509e-16)
(-2.74643 -0.12913 0)
(0.536523 0.37612 -3.01826e-16)
(-1.51412 0.707922 0)
(-0.0646654 0.199628 -6.85548e-17)
(0.846999 -0.145244 -1.02153e-16)
(-1.08843 0.748907 1.53598e-16)
(2.41365 -0.0013962 1.43138e-16)
(10.4856 0.152209 5.27229e-18)
(7.86815 1.13503 1.96003e-18)
(7.14784 0.50153 2.8991e-17)
(-2.02567 0.24571 -1.59035e-16)
(-0.594464 0.636422 -3.91649e-16)
(0.11969 0.759951 0)
(1.19379 0.736207 1.16905e-15)
(1.45965 4.77991 2.12279e-16)
(-0.592108 0.69992 -2.3885e-16)
(-0.854335 0.24572 2.70046e-16)
(2.43029 0.664888 2.3016e-16)
(0.447479 -0.986223 -1.37227e-16)
(-0.39373 1.13914 8.06108e-18)
(-0.119941 5.8354 0)
(-0.0287706 6.34965 0)
(-0.0141357 6.25201 0)
(0.601653 0.384725 2.60038e-17)
(1.41063 -0.672311 -7.64522e-17)
(-0.524566 0.315383 -1.31247e-19)
(7.11264 1.20483 -5.83091e-17)
(3.87404 2.89563 -1.05109e-17)
(8.00729 0.207047 -1.52476e-16)
(8.90496 0.526407 1.58992e-16)
(0.0399036 -0.422908 2.85701e-16)
(0.55161 -0.669612 0)
(5.77359 -0.0718763 -1.13689e-16)
(-1.91587 0.0213316 8.28151e-17)
(1.12436 -0.490179 -9.50595e-17)
(0.704298 -0.553831 0)
(-0.717725 -0.111417 0)
(-1.81937 0.0398532 -5.45242e-19)
(0.463245 2.20191 1.38438e-16)
(3.6823 0.776749 0)
(0.0438431 -0.286497 -6.95468e-16)
(4.16264 0.0295555 -1.26944e-16)
(2.59805 -0.343961 0)
(0.714501 -0.890896 -2.76349e-16)
(1.34752 0.771447 -4.50877e-16)
(4.70057 -0.364147 -1.7472e-16)
(9.39597 0.0836229 3.62127e-17)
(0.69466 0.151902 2.97472e-16)
(-1.98635 -0.248916 -1.32685e-16)
(0.599659 -0.790359 -8.5278e-17)
(-0.384601 0.328941 -1.75759e-16)
(-1.99935 1.60434 -2.30747e-16)
(-1.17706 -0.132977 3.13056e-16)
(0.876046 3.13002 2.6334e-16)
(0.848098 1.85417 1.085e-16)
(0.900344 -0.433801 -4.08556e-16)
(0.300772 5.00438 4.75616e-17)
(-0.0854581 5.26909 1.13726e-16)
(0.0177911 6.89565 1.05695e-17)
(0.0936813 6.40546 0)
(0.55159 5.48435 4.439e-17)
(-0.0615562 7.24222 0)
(-1.06299 0.798666 -1.5727e-17)
(1.6999 0.0920575 -1.12976e-16)
(1.02577 -0.156358 2.20586e-18)
(-0.585825 -0.298811 0)
(7.89938 1.73708 0)
(0.908643 8.14606 6.9399e-18)
(1.53574 2.94452 5.39461e-17)
(0.794235 -0.369533 -2.12452e-19)
(0.276028 4.85606 -1.97654e-16)
(0.943373 -0.846206 -1.51929e-16)
(0.110992 0.831177 1.08514e-16)
(-0.426368 6.52046 0)
(0.0361121 0.484012 -8.21942e-16)
(0.645386 2.07446 0)
(0.210323 0.91268 -1.78463e-16)
(3.47153 0.262781 1.65977e-18)
(-0.455727 0.274906 -2.3907e-16)
(0.48201 4.26248 2.40512e-16)
(4.77988 0.109886 2.52396e-16)
(3.06272 -0.148544 0)
(1.18498 -0.66631 -5.76188e-16)
(-0.206564 0.460137 -3.08668e-16)
(1.29113 7.63182 -1.37711e-16)
(0.00653141 -0.530357 -8.05267e-17)
(10.5702 0.121529 0)
(9.96003 0.309046 -1.80558e-17)
(-0.150165 0.0682516 -9.63596e-17)
(0.37721 3.19177 -2.75021e-16)
(-2.09047 0.377595 -2.20371e-16)
(0.45678 7.30746 -4.11379e-17)
(0.967706 0.106727 4.54439e-16)
(2.66902 -0.822836 -1.66355e-16)
(0.318049 7.83676 -7.29652e-17)
(0.400701 1.88724 -8.4099e-19)
(-0.155167 -0.265914 0)
(2.37448 -0.24127 0)
(-0.803966 0.963859 0)
(-0.325932 -0.32145 7.27413e-17)
(-3.09518 -0.374048 -2.92167e-16)
(4.46349 -0.123916 2.99855e-16)
(6.07291 -0.0361453 -7.19385e-18)
(6.4162 -0.126205 3.07782e-16)
(-1.14869 -0.386835 8.83377e-17)
(-1.83236 0.259726 4.98007e-16)
(-1.25221 0.0465197 0)
(-1.13536 -0.320278 -2.21724e-16)
(0.167816 -0.357132 0)
(2.42302 -0.123059 0)
(-2.08734 -0.0774365 -2.72837e-16)
(-0.590708 0.0169299 0)
(0.579177 0.0171168 4.27857e-16)
(1.62867 0.047099 4.09492e-16)
(6.18478 0.359708 0)
(3.78945 -0.00271729 0)
(0.622836 0.097296 3.90436e-16)
(1.70954 -0.0579516 3.5978e-16)
(-1.08944 -0.523978 3.26253e-16)
(0.123411 -0.139911 -2.40861e-17)
(-3.01277 -0.158501 -1.24379e-16)
(2.45179 -0.294807 6.9097e-17)
(4.37638 0.273497 5.64954e-17)
(-0.838165 0.169202 2.46672e-16)
(-2.37502 -0.164194 -2.26592e-17)
(-1.0227 -0.179487 1.51894e-16)
(1.00301 -0.351293 0)
(-2.46367 -0.667898 0)
(-0.709736 -0.182179 1.65036e-16)
(5.11828 -0.419622 1.75843e-16)
(3.68119 0.039238 5.89877e-17)
(1.01833 -0.195013 0)
(0.160095 -0.0391019 -2.7344e-16)
(1.30627 -1.05434 4.655e-16)
(4.5489 -0.0945457 3.71012e-17)
(2.84063 -0.366247 -2.80506e-17)
(1.44986 -0.463945 -2.65217e-16)
(-1.86743 0.467775 3.30499e-16)
(-3.23078 -0.0115394 -3.83097e-17)
(4.109 -0.334396 0)
(1.55923 -0.210675 3.65703e-16)
(-1.2035 -0.0236051 -9.53008e-17)
(-1.87723 -0.727731 -1.07346e-16)
(1.34756 -0.27961 0)
(-1.59929 0.618102 -8.26706e-17)
(0.454538 -1.62466 2.5607e-16)
(0.460187 0.070338 8.89599e-17)
(-2.80379 0.162733 1.41197e-16)
(3.62499 -0.0437234 0)
(1.17997 0.0322222 1.04466e-16)
(-1.09357 0.451123 0)
(-0.219222 0.164984 1.39643e-17)
(-0.534933 -0.982936 1.49135e-16)
(-1.45124 -0.790432 0)
(10.7488 0.090819 0)
(-2.00669 0.259034 1.25564e-16)
(0.722726 -0.57429 -6.02716e-16)
(1.11787 -0.601227 -3.10861e-16)
(0.0171507 8.62518 -3.04068e-17)
(-0.699794 -0.356558 2.5597e-16)
(1.59592 -0.587603 -8.98017e-16)
(-2.54853 -0.255034 0)
(1.44749 -0.154504 -7.19284e-16)
(-1.09426 1.19116 -4.09912e-19)
(0.0436851 0.332381 -2.61738e-18)
(-0.336176 0.0139165 1.51931e-16)
(-0.938878 0.409634 8.74911e-17)
(-1.44185 -0.219782 -9.08094e-17)
(0.543437 -0.179302 1.09201e-16)
(0.906286 0.673836 0)
(-0.0204446 0.00774368 0)
(3.3432 0.169644 -2.36788e-16)
(0.664872 0.0136774 1.4035e-16)
(2.10472 0.0539495 -3.73194e-16)
(9.42356 -0.504013 3.10957e-17)
(1.99893 0.469906 1.64997e-16)
(1.03776 0.0104309 0)
(6.30317 0.948993 4.6801e-17)
(1.58537 2.23569 1.66151e-19)
(-0.17107 1.09797 2.03002e-16)
(0.129007 0.787921 -3.67931e-17)
(-0.267408 5.61061 -6.23695e-17)
(0.0151872 7.36366 2.18005e-17)
(0.124631 8.27293 0)
(0.787148 0.461167 1.77375e-16)
(-0.955333 0.308747 2.82207e-16)
(4.85977 -0.0209942 2.0628e-17)
(2.70123 -0.224207 7.49227e-17)
(0.557636 -0.343264 0)
(0.361557 4.53171 1.5461e-16)
(-2.4318 0.180217 0)
(-0.162804 6.14668 3.91728e-17)
(-0.0468643 8.22398 -5.26105e-17)
(-0.100024 7.4767 2.95646e-17)
(-0.0921756 -0.0257791 -1.56728e-17)
(-2.29006 -0.601772 -3.15694e-17)
(-2.34933 0.0841743 0)
(-0.647403 -0.374439 0)
(1.21294 -0.104881 -1.84373e-16)
(-0.326203 -0.17226 -1.88295e-16)
(0.22711 1.50885 -1.24116e-17)
(-0.151393 1.15467 4.99805e-17)
(3.51557 0.661984 3.26285e-16)
(9.96886 0.176599 1.28078e-17)
(0.486124 2.9199 -2.6611e-16)
(1.04734 -3.00158 -2.03032e-17)
(0.158079 -0.667408 2.97552e-16)
(0.423462 0.0789924 0)
(0.15773 -0.357619 1.65664e-16)
(1.3853 -0.742224 -9.45519e-18)
(-2.64714 0.0731916 -7.73955e-17)
(0.0699437 -0.447594 2.24056e-16)
(1.47064 -0.406796 1.99114e-16)
(9.91941 0.100891 -2.49841e-16)
(-0.96192 -0.360864 0)
(1.62013 -0.243215 6.91753e-17)
(0.801766 -0.338875 -2.14508e-18)
(-0.0213291 7.31292 -6.07718e-17)
(0.0107335 7.79861 -1.93027e-20)
(0.107965 -0.203935 0)
(2.13758 -0.263042 1.89458e-16)
(1.12879 0.393359 -8.25179e-17)
(0.541843 -0.164964 -2.16425e-16)
(0.183939 1.355 -6.08817e-17)
(-2.72553 1.35141 4.45348e-17)
(0.0360334 1.16308 -4.98032e-16)
(-0.0523384 6.52207 -2.69088e-17)
(0.258986 -0.264712 -5.65463e-16)
(0.342694 5.06378 -2.26422e-18)
(-1.58564 -0.523478 -2.22983e-16)
(0.116525 7.16852 -2.84031e-17)
(0.886106 6.16207 9.3182e-17)
(0.139313 0.725496 -1.1154e-16)
(0.159844 1.27402 -2.02868e-16)
(-1.19154 1.72327 1.51247e-16)
(1.80859 0.693912 -3.07568e-16)
(8.34605 0.593775 9.27583e-17)
(-0.520423 -0.0397955 -2.8466e-16)
(10.5622 0.228948 -2.21761e-18)
(1.96584 4.18361 6.19458e-17)
(0.485541 0.078986 -4.50063e-16)
(0.0433825 0.349568 -7.48462e-17)
(-0.11951 0.0179568 4.13575e-17)
(6.11844 1.33309 -5.10612e-18)
(1.45704 0.686787 -7.00421e-17)
(-1.80842 0.00784673 2.08809e-17)
(-1.64054 -0.601764 -1.74212e-16)
(-0.992014 -1.01115 1.15004e-15)
(8.81469 2.80489 -2.78255e-18)
(0.330407 3.00948 1.66003e-16)
(-0.474806 0.493823 2.14201e-16)
(0.214437 1.32709 4.80969e-17)
(-1.68174 1.40174 2.32462e-16)
(0.150438 0.718125 0)
(-1.68891 -0.38262 -1.55462e-16)
(-2.30226 -0.236824 8.61687e-18)
(-0.0491306 0.0468942 1.79618e-16)
(3.32494 -0.115701 -5.48052e-20)
(9.71171 0.0358845 0)
(1.36963 0.0940532 2.0715e-18)
(-0.302835 -0.21284 -5.34488e-17)
(-0.0846981 1.03098 1.53363e-19)
(0.213153 1.29251 1.80883e-16)
(0.554206 5.69286 -1.27908e-16)
(0.336993 6.98762 3.82491e-16)
(0.102483 1.30986 7.91194e-18)
(1.14432 2.26969 -3.07968e-19)
(2.41727 -0.279395 1.78023e-16)
(0.412555 0.125498 0)
(-1.20487 -1.208 0)
(0.506667 -0.393921 -3.40147e-17)
(6.74399 0.812666 -1.37102e-19)
(2.32944 2.5874 2.27333e-17)
(9.07989 1.58113 -5.84575e-18)
(10.346 0.560785 3.24448e-18)
(1.2956 0.487979 0)
(0.439645 3.54862 0)
(0.166038 1.13826 2.05049e-16)
(0.143879 0.432797 2.3257e-16)
(8.77762 0.487083 -4.49232e-16)
(1.50337 0.685031 0)
(1.04663 0.116993 0)
(-2.10725 0.133657 2.08984e-16)
(-0.468442 0.192167 1.42279e-18)
(-0.566236 -1.07852 -1.67123e-16)
(-0.124372 -0.212568 2.05695e-16)
(0.535646 -0.862736 -8.7607e-17)
(-0.00206391 7.93189 -2.50427e-17)
(-0.0843462 7.32228 -1.4497e-17)
(-0.238979 -0.199608 -2.7162e-16)
(9.83262 0.177855 -6.62348e-17)
(9.39584 -0.169156 3.63504e-18)
(-0.213115 0.673511 1.51393e-16)
(0.184599 0.987509 -3.76381e-17)
(1.15926 2.8771 -1.04436e-17)
(-0.134345 8.14578 -1.29468e-16)
(-0.247643 0.0172997 1.07562e-15)
(0.0392718 0.975283 6.62667e-18)
(-0.198222 0.341287 0)
(5.37511 3.6841 6.75968e-17)
(0.0377439 0.970494 1.09231e-16)
(0.0688482 1.1371 2.97639e-20)
(-1.04882 2.68179 1.65545e-16)
(-0.645757 -0.246971 0)
(10.8443 0.0205267 0)
(-0.224066 -1.40012 -5.8152e-17)
(-1.87605 0.451253 0)
(1.04374 -0.653453 7.38308e-17)
(9.99855 0.0699004 -1.04313e-16)
(4.5888 -0.0434274 7.66882e-17)
(-0.502888 0.00140418 1.2538e-16)
(6.78198 0.00675145 9.63633e-17)
(-0.0233668 1.25848 7.62158e-17)
(-0.607121 -2.57278 1.73808e-16)
(0.198222 1.25731 1.99727e-16)
(0.466073 7.87709 -9.04304e-17)
(-1.35511 0.956527 -6.59747e-17)
(-0.50028 -0.200258 0)
(9.63889 0.869163 0)
(0.464635 3.84287 -2.25551e-16)
(-0.378184 -0.360289 -1.90484e-16)
(-0.0125354 1.09875 6.42082e-16)
(0.532407 6.34182 -2.39535e-17)
(-0.00881836 0.198259 0)
(0.642795 -0.0531244 -4.3582e-16)
(0.173437 0.583482 -1.89118e-16)
(0.0171289 0.996721 1.58825e-16)
(1.19843 -0.243114 0)
(-0.348056 2.92457 0)
(0.0500899 1.15367 0)
(0.0241242 0.842312 -1.74997e-16)
(0.269738 2.5563 6.57195e-18)
(9.89861 2.8718 -2.69603e-18)
(0.349932 0.00540696 0)
(5.23978 1.28163 0)
(-0.341396 0.0438671 -9.45545e-17)
(0.60669 8.13354 6.4844e-17)
(0.174112 0.62283 0)
(0.670716 0.129331 3.99815e-16)
(0.304111 -0.218964 -3.35864e-19)
(-0.0562882 0.505627 -1.66416e-16)
(1.15447 -0.365288 0)
(7.87581 0.609615 -6.38147e-17)
(-1.62037 0.707988 -1.54744e-16)
(0.532848 2.86848 7.74396e-17)
(0.165841 4.37697 0)
(0.706088 4.6413 -9.44669e-18)
(9.84944 0.26923 -1.99611e-17)
(1.87785 3.3723 -4.01202e-18)
(0.260722 5.59461 -1.28451e-16)
(0.685439 -0.450394 -2.53039e-16)
(0.976648 2.50736 -4.4e-16)
(0.00911376 6.65175 4.15971e-20)
(0.10952 7.73746 3.96498e-17)
(2.57547 2.52317 0)
(11.257 -0.353343 1.97976e-17)
(-2.66391 -0.24013 1.39948e-16)
(8.71006 0.831737 -1.18387e-16)
(-0.40286 -0.0230947 1.73428e-16)
(0.00822903 6.61054 0)
(-0.0252352 8.11104 -4.29537e-17)
(-0.218961 4.72094 1.89975e-16)
(1.08383 -0.0250825 -6.90064e-18)
(0.00877671 1.35057 5.2757e-17)
(0.560113 0.776123 6.29565e-18)
(-0.00707887 6.31522 -2.9607e-17)
(0.06956 7.47666 -2.56256e-17)
(1.93004 8.7219 5.66422e-17)
(-0.374686 0.0673738 1.88592e-17)
(10.1075 0.175146 0)
(0.674413 -0.356621 4.63352e-16)
(-1.20417 0.0823468 -9.17792e-17)
(0.76767 0.165878 -3.29044e-16)
(7.32433 0.594336 1.688e-17)
(0.0409995 7.54273 -3.98996e-17)
(-0.0457179 6.42605 2.02613e-16)
(0.553057 -0.599845 -2.40751e-19)
(-0.438731 0.0812235 -1.20695e-16)
(0.928216 7.53678 0)
(-0.42893 -0.328503 0)
(-0.099594 -0.225744 -2.00686e-17)
(-0.643186 -0.961578 0)
(2.6471 5.1011 -6.03818e-17)
(3.98842 3.71534 0)
(0.843239 7.16747 -1.39521e-16)
(1.77351 1.34095 5.16285e-17)
(2.00329 0.195365 2.91529e-16)
(0.677622 -0.266888 5.1326e-17)
(7.05749 0.656905 -1.51458e-17)
(3.84253 -0.00775485 -2.34155e-16)
(7.50224 0.135708 -2.94461e-16)
(3.16566 0.583615 0)
(0.152656 0.966248 -8.10712e-17)
(5.01697 2.90409 1.62514e-16)
(3.51948 1.63073 -7.44634e-17)
(0.010173 0.00176718 -3.68208e-16)
(0.197396 0.984419 5.78711e-16)
(0.0240047 0.983562 3.3645e-17)
(0.487467 -1.78175 -3.48692e-16)
(0.328768 2.64176 1.0145e-18)
(0.930701 1.04717 -2.45398e-16)
(-0.773881 -0.0736774 1.76862e-16)
(-0.339956 0.746234 8.74903e-17)
(0.114653 1.35632 0)
(0.0939035 0.381831 -7.81301e-17)
(-0.458444 0.683248 -7.78705e-17)
(0.227468 0.900538 3.02977e-16)
(-2.06842 -0.591244 -8.07762e-17)
(0.92934 9.62153 -3.18848e-17)
(10.6255 0.426381 -7.2265e-17)
(-2.50561 0.141091 7.08324e-17)
(0.471802 3.01619 -5.01771e-17)
(-0.961501 0.733674 -1.31648e-16)
(8.53085 0.15246 3.58873e-16)
(3.8895 -0.128839 -2.42398e-17)
(-0.0314517 7.98919 2.88267e-18)
(4.06539 -0.162321 2.509e-16)
(-0.0409868 4.5404 -1.87342e-16)
(0.0762253 6.12716 7.89087e-17)
(7.11754 0.381259 0)
(-0.0723548 -1.60423 -9.19797e-17)
(-0.0190709 0.025766 2.91476e-17)
(0.0546767 0.471785 0)
(-0.0577034 0.320877 -2.05205e-16)
(-0.221689 -1.41082 5.54676e-17)
(0.816679 0.150053 2.94823e-16)
(1.36726 0.487154 2.52036e-16)
(3.72661 0.177787 -4.20351e-17)
(8.92191 0.33959 -1.20785e-18)
(1.85503 2.12977 -1.35661e-16)
(-2.17798 0.277023 2.36409e-16)
(0.805837 -0.990836 -2.99774e-16)
(-0.360505 -0.072712 1.12818e-16)
(-1.42452 -0.219904 0)
(0.109722 0.762167 -1.14028e-17)
(-2.06526 1.42382 -2.57803e-16)
(0.214177 1.33103 9.87333e-21)
(-0.0020732 6.40941 2.48483e-17)
(0.188187 5.22354 -3.08616e-18)
(-0.0117359 5.22009 -1.1278e-16)
(0.207001 6.83721 2.6299e-17)
(1.93848 4.40936 -1.45717e-16)
(6.98918 0.328562 7.16979e-17)
(0.44196 0.782611 0)
(10.578 0.962645 0)
(-0.77132 -0.343423 4.45195e-16)
(-1.19315 0.304233 4.92733e-16)
(0.0323519 7.48069 1.22855e-16)
(-0.0229179 6.5324 -1.36119e-16)
(-1.455 0.280894 1.15704e-16)
(0.983812 7.29508 -3.78358e-17)
(-0.510423 0.425399 4.77477e-17)
(0.11476 0.568218 2.36402e-17)
(0.368161 -0.164112 1.8711e-19)
(-2.62613 -0.423702 -4.97734e-17)
(-0.233884 -0.522098 -1.04778e-17)
(0.268775 2.80455 -4.99324e-17)
(3.28964 -0.0789923 -4.13893e-16)
(0.889121 4.46011 6.54618e-18)
(-0.674381 -1.42909 1.35802e-16)
(-0.301131 0.342264 0)
(-0.195003 -0.139818 0)
(-0.0193194 2.84937 0)
(0.725127 5.8568 2.40228e-16)
(0.767818 9.56465 2.08445e-16)
(0.0444831 7.67606 1.99963e-16)
(-0.505973 -0.449853 3.56597e-17)
(5.7412 3.22136 -4.01418e-17)
(0.279488 0.0895729 0)
(0.194223 0.97525 8.78069e-17)
(0.171079 0.402933 3.60257e-17)
(10.5139 0.0593228 -7.52853e-18)
(-2.24629 -0.0251235 -8.44349e-17)
(-1.49618 0.426749 3.21649e-18)
(-0.921552 -0.199672 -1.50746e-16)
(8.84599 0.370705 -2.04969e-17)
(0.246793 2.4135 0)
(3.30193 1.11297 -3.60596e-16)
(3.06992 0.672705 2.04643e-16)
(-2.31225 -0.625679 0)
(-0.108766 -1.49817 6.26008e-17)
(1.29783 2.19621 -2.61289e-16)
(8.5088 0.141131 0)
(1.58584 5.55198 -4.90477e-16)
(0.220372 6.75585 -1.13265e-16)
(0.644185 3.59042 0)
(1.09008 0.537944 0)
(11.3693 0.286006 4.37497e-17)
(10.3344 0.374597 3.38381e-17)
(8.86125 1.12843 2.09123e-18)
(5.25515 2.14379 -2.20851e-21)
(0.252941 2.35869 0)
(1.34236 0.549359 2.03514e-16)
(1.38262 8.22971 -2.67357e-17)
(4.3788 -0.0711512 0)
(0.0485856 -0.82928 -4.2362e-16)
(3.0644 2.70803 2.24805e-17)
(0.168499 0.725991 -1.40087e-16)
(9.28359 0.943647 -5.24181e-17)
(10.841 0.0440532 7.84426e-17)
(1.65656 1.7508 -1.86367e-16)
(9.86892 0.42919 -1.56567e-17)
(0.093258 7.73468 1.34733e-16)
(0.505609 9.52562 3.67203e-17)
(0.548874 6.53483 -1.08512e-16)
(6.63559 3.56259 0)
(-0.531444 -0.35872 1.43412e-16)
(-0.0636785 0.0260876 -1.99418e-16)
(0.878867 0.194055 3.19699e-17)
(-0.0927224 0.0885697 1.36921e-16)
(0.0114974 8.23518 4.08632e-21)
(-0.00691976 7.4614 1.82127e-19)
(0.537579 5.84184 7.57896e-17)
(0.438707 0.409225 0)
(-0.803119 0.207459 0)
(2.74555 -0.649711 8.0217e-17)
(0.417837 0.44612 1.80727e-16)
(-0.0283049 5.25943 -1.07295e-16)
(-0.0361451 6.84886 -2.94781e-18)
(-0.247782 2.25895 0)
(1.38668 1.24762 -3.62325e-17)
(10.0681 0.113169 8.62392e-17)
(0.0360774 0.481911 0)
(0.136412 0.304203 -4.75491e-16)
(-2.4159 -0.737322 5.65589e-17)
(0.0535815 -0.225021 2.70111e-16)
(0.0120112 7.80615 5.35777e-17)
(-0.0663677 6.8456 1.48153e-16)
(9.52957 0.978573 0)
(0.239318 6.9711 -3.82785e-17)
(0.00571173 7.78083 -2.75504e-17)
(9.44996 1.19155 -9.64513e-17)
(0.316364 0.855329 -8.6637e-20)
(7.42643 2.10821 6.74646e-18)
(0.0151459 6.49156 5.125e-19)
(-0.00922298 6.51067 0)
(0.01086 5.23659 3.10753e-18)
(0.106411 5.0021 -1.00882e-16)
(0.402548 6.63959 -3.21393e-17)
(3.53805 4.00009 1.45383e-16)
(0.0264935 0.481209 5.03922e-17)
(-0.0204752 7.04078 2.04568e-16)
(0.0241405 8.30068 0)
(-0.288857 5.24856 -1.44468e-16)
(0.0647769 2.1108 2.71007e-17)
(-0.169374 -1.46982 -1.27758e-16)
(-1.43586 0.632491 6.00313e-17)
(0.0640721 0.221144 4.43698e-18)
(0.0581853 0.94158 1.23611e-16)
(-0.316391 0.402239 0)
(0.743427 4.49462 1.13999e-17)
(-0.0569125 1.31248 -2.21163e-17)
(0.491021 0.0146281 -1.24766e-16)
(8.82167 0.688319 -8.02373e-19)
(-0.331068 2.14438 -3.42144e-17)
(0.0612071 0.879709 -2.32044e-16)
(0.0732022 1.11505 -1.76412e-16)
(0.0702449 6.24817 -2.13112e-16)
(0.161151 7.57 0)
(0.541678 0.124403 2.46012e-16)
(0.0408716 6.2331 9.19948e-17)
(0.17114 7.42964 2.01406e-17)
(0.13247 -0.169573 -8.85056e-17)
(3.49582 3.48891 -1.52819e-16)
(-0.894403 -1.37293 4.91932e-16)
(0.253412 -0.860857 5.80238e-16)
(0.992484 0.815297 -2.61883e-16)
(0.249342 6.98496 2.01697e-16)
(0.248117 1.45483 -3.41289e-16)
(-0.769013 -0.431578 -1.83537e-16)
(-0.0431092 1.19702 -1.15856e-16)
(0.882897 9.71585 0)
(9.77254 0.111001 0)
(-0.0369918 0.0663139 -2.9733e-16)
(-0.00892861 -0.280012 2.05385e-16)
(0.133742 -1.32729 -6.04791e-17)
(0.0272753 0.570087 0)
(-0.274573 -0.058454 1.1469e-16)
(0.459081 -0.0198968 -3.27991e-20)
(0.690775 0.279319 -6.21454e-16)
(3.99671 0.0795722 2.2707e-16)
(0.940044 4.78981 1.18359e-16)
(0.0913964 7.08957 -2.60084e-16)
(0.351283 -0.812519 3.94604e-16)
(-0.0521599 0.321661 -1.85621e-16)
(9.62604 0.940337 -1.357e-17)
(0.513195 3.34315 2.0422e-16)
(2.10178 0.119412 1.39807e-16)
(0.527128 -0.750847 0)
(-0.934367 0.785921 5.49698e-17)
(2.06338 1.28286 -7.34147e-16)
(0.0524106 0.781606 -2.45356e-17)
(0.00188885 1.09356 2.79108e-16)
(0.597148 3.20511 2.26521e-17)
(8.40052 0.555968 -1.16587e-16)
(10.6153 0.273927 -2.42401e-19)
(-0.617969 -0.210914 1.72746e-16)
(11.0373 0.0520646 0)
(-0.391224 0.165957 -4.80666e-18)
(-1.82193 -0.22564 2.0281e-18)
(-1.02367 -0.554997 -1.65532e-17)
(-0.00806864 8.00214 3.32075e-17)
(-0.0247886 6.52759 3.94707e-17)
(0.00691884 4.85954 1.80558e-17)
(10.497 0.0405606 1.42828e-17)
(-0.202609 -1.39647 -2.2805e-19)
(-0.0155767 7.11774 -4.63836e-17)
(-1.82274 -0.471446 6.06633e-21)
(0.969561 -0.700197 0)
(9.01621 1.66608 -4.96619e-18)
(-0.851747 0.306543 0)
(0.405556 0.254111 9.47681e-17)
(-1.10823 0.31913 7.87579e-17)
(0.124941 0.702776 4.88743e-18)
(0.553673 0.267844 2.48917e-16)
(-0.254788 -0.11336 3.70774e-16)
(9.25751 0.706088 -1.77286e-17)
(0.296344 -0.625884 2.48946e-16)
(-0.217727 -1.13923 2.89342e-16)
(9.47655 1.13072 9.8767e-17)
(9.71232 0.337397 4.09899e-17)
(5.78723 3.33487 2.79704e-17)
(0.0948924 7.3377 -4.06428e-17)
(-0.0108577 6.21866 2.57271e-17)
(0.21476 2.78134 1.12776e-16)
(0.218223 1.66108 0)
(4.07298 0.72047 4.75796e-17)
(5.59738 3.06126 8.66066e-17)
(9.50571 -0.392625 -1.99841e-17)
(0.355147 0.661908 1.17163e-16)
(0.722941 -0.879324 2.26812e-16)
(0.0877553 0.0752135 0)
(8.72447 1.75306 0)
(0.27595 2.69517 0)
(0.0439301 0.363643 4.03493e-16)
(-2.06539 0.288367 6.45952e-17)
(2.16875 4.1298 2.20621e-16)
(0.373918 5.76463 2.57327e-17)
(0.918644 8.62975 -4.81596e-17)
(0.0934458 0.197412 0)
(-1.16149 -0.826645 7.76293e-17)
(0.213761 6.01603 -1.22776e-16)
(-0.137163 0.037374 -8.33778e-16)
(11.235 0.118732 9.56749e-17)
(5.65314 1.17631 0)
(-0.21328 1.25338 1.73038e-16)
(1.1804 6.70093 0)
(-0.49583 0.238122 1.49741e-16)
(-0.858035 -1.1808 -1.97064e-17)
(0.744485 10.19 5.88111e-17)
(9.82259 1.12673 -1.34928e-17)
(9.78911 0.733828 1.02326e-16)
(-1.09937 -0.0893856 0)
(1.03435 2.98564 -5.05502e-17)
(-0.489682 -0.0253609 0)
(8.40663 0.326469 0)
(0.866792 0.392192 -1.27525e-16)
(-0.516041 -1.39132 1.9597e-17)
(-2.82948 4.87928 -1.25396e-16)
(2.80662 0.794659 -1.24857e-16)
(0.0227604 0.240565 2.30311e-16)
(10.2581 0.108787 -1.50489e-20)
(5.85717 3.51823 -7.88003e-17)
(-0.1052 -1.07277 -2.29295e-19)
(-0.00169469 6.96831 4.9992e-17)
(-0.0313426 5.84362 -5.67405e-17)
(0.522025 2.43641 -1.14999e-16)
(1.15326 6.06708 -2.49053e-16)
(0.197145 2.12892 -1.21986e-17)
(-0.218524 1.17318 -3.27507e-16)
(0.213904 1.34031 -1.8703e-16)
(-0.187248 1.6341 5.54536e-17)
(0.896813 -0.400518 1.92466e-16)
(-0.383188 -0.251075 -2.77194e-16)
(0.187501 0.891328 -5.25615e-16)
(-0.332834 0.975078 -3.72095e-16)
(6.81632 4.14925 3.25786e-18)
(0.269381 0.882086 5.62607e-16)
(10.0431 0.0452561 -6.30785e-17)
(0.779346 -0.0156315 0)
(-0.165765 2.75358 -4.28487e-21)
(3.56144 -0.878103 -1.11176e-16)
(-0.348849 -0.395837 0)
(9.99757 0.4422 3.95311e-17)
(-0.525278 0.0523447 3.0734e-16)
(0.324539 0.0197668 -2.79791e-16)
(9.60953 2.28387 0)
(-0.0496927 8.04854 3.09993e-20)
(-0.141028 7.53125 0)
(9.99942 0.0923278 0)
(0.679623 0.28346 -4.81973e-17)
(10.0723 1.56901 -5.12685e-17)
(8.76206 3.89967 -1.86665e-16)
(0.787065 8.34044 1.93764e-17)
(7.13359 2.12837 -1.07097e-16)
(0.0782957 3.6592 -7.4575e-17)
(0.0167859 4.69357 4.4387e-20)
(0.023212 4.45565 -6.83547e-17)
(-0.0205272 0.495201 0)
(-0.0789617 2.29324 1.18714e-16)
(0.0029304 -0.57128 0)
(0.104488 0.907744 0)
(0.250279 0.904696 0)
(0.234506 -0.579581 -2.07438e-16)
(-0.220705 0.851951 0)
(0.113523 0.651619 1.27737e-16)
(2.8734 2.79826 -2.73469e-16)
(0.416992 4.16086 0)
(0.0823408 5.00189 1.62449e-16)
(-0.206976 6.25382 -2.48848e-17)
(0.00134247 8.09474 6.76064e-17)
(-0.0931401 7.52479 -3.74115e-17)
(0.29932 2.46965 2.1284e-16)
(9.30305 1.05723 -2.73125e-17)
(0.10811 0.827205 2.12939e-17)
(-0.127014 1.03209 -7.72923e-17)
(-0.855666 1.14438 0)
(1.01038 -0.670575 1.22831e-19)
(4.5388 2.16365 0)
(0.484485 -0.0614947 1.87285e-21)
(3.54771 0.130368 -4.69001e-16)
(10.0178 0.0555542 3.46684e-17)
(0.0797133 7.20751 1.12191e-16)
(-2.31314 2.55254 -2.8264e-16)
(0.227067 1.44722 0)
(0.0144689 1.04874 9.07413e-16)
(4.76572 3.1323 -3.40915e-17)
(11.357 0.437869 0)
(9.76153 0.237722 2.4625e-17)
(1.27668 1.28726 1.39728e-17)
(9.12929 0.293022 0)
(4.23243 3.76046 1.07041e-17)
(-0.619992 -0.542518 -4.61559e-17)