/*--------------------------------*- C++ -*----------------------------------*\
| =========                 |                                                 |
| \\      /  F ield         | OpenFOAM: The Open Source CFD Toolbox           |
|  \\    /   O peration     | Version:  v1912                                 |
|   \\  /    A nd           | Website:  www.openfoam.com                      |
|    \\/     M anipulation  |                                                 |
\*---------------------------------------------------------------------------*/
FoamFile
{
    version     2.0;
    format      ascii;
    class       surfaceScalarField;
    location    "0.77";
    object      phi;
}
// * * * * * * * * * * * * * * * * * * * * * * * * * * * * * * * * * * * * * //

dimensions      [0 3 -1 0 0 0 0];
oriented        oriented;


internalField   nonuniform List<scalar> 
2776
(
-0.000301899
-2.42728e-05
0.000223458
0.000102714
-0.000871146
0.000941072
0.000302563
-0.000372489
-0.000383624
-0.000217351
0.000239598
0.000361378
0.000121675
-3.28609e-05
0.00100974
-0.00109855
-0.00014384
6.42177e-05
0.000163658
-8.40354e-05
-0.000118994
-0.000450222
0.000379153
0.000190063
-9.94079e-05
-2.70558e-05
0.000423857
-9.22641e-05
-0.000604203
0.00027261
0.00101185
0.000889825
-0.000893688
-0.00100799
-0.000950845
0.000755134
-0.00022947
0.000425182
-0.000348819
-0.00116811
0.000523797
0.00099313
0.000428055
0.00017727
-0.000559663
-4.56622e-05
0.000886922
0.000114934
-0.00136915
0.000367296
-0.0001424
-0.000115496
0.000114057
0.000116915
-3.83319e-05
-0.000197577
0.000478075
-0.000144974
-0.000681919
-0.000249085
0.000176299
0.000257793
-0.000185007
3.09424e-05
-0.000482272
0.000451329
0.000526659
-0.000155742
7.87546e-05
-0.000449671
0.000725323
-4.53166e-05
5.39611e-05
-0.000733968
-0.000702492
3.79113e-05
-2.70108e-05
0.000691592
-9.80552e-07
0.000225734
-0.000328625
0.000103872
0.000589041
2.27563e-05
-2.27885e-05
-0.000589008
0.0006877
4.77e-05
-3.15164e-05
-0.000703883
0.000309723
-0.000382642
-0.00117643
0.00124935
1.41739e-05
2.55924e-06
2.21736e-05
-3.89067e-05
-0.000242979
4.48203e-06
0.000125704
0.000650025
-0.000735003
-4.07268e-05
0.000143099
-0.000107775
0.000170178
-0.000205503
-0.000355331
0.000407779
0.000626037
-0.000678485
0.000568284
-0.000852156
-0.000111914
0.000395786
4.3196e-05
-5.57191e-06
4.93295e-06
-4.2557e-05
0.000100362
6.25247e-05
-0.00015742
-5.46668e-06
-0.000355265
0.000317997
-0.000700884
0.000738152
3.87857e-05
9.03838e-06
0.000374857
0.00027652
-0.000131827
-1.59427e-06
-0.000487652
-4.53524e-05
-0.000373947
0.000174772
0.000968007
-0.000233633
-0.000734374
-9.52958e-05
0.000234252
-0.000138956
-4.26375e-05
0.000207932
-0.000165295
-0.000480011
0.000544716
-6.47052e-05
-0.000489224
0.000480991
8.23248e-06
-9.08469e-05
-3.85662e-05
0.000129413
3.2975e-05
-7.62797e-05
4.33047e-05
0.000462253
-6.35427e-05
0.000947862
8.61395e-05
0.000237407
-0.000217025
-2.03826e-05
-0.000273794
0.00031753
-4.37362e-05
-0.000142494
0.000204171
-6.1677e-05
-0.000230959
0.000150008
8.09515e-05
-0.000210995
-0.000660151
-0.000363268
-8.69539e-05
0.000155302
-9.10844e-05
0.00019907
-9.87086e-05
-0.00109255
0.00140227
0.000294958
1.28252e-05
-0.000307783
-0.000966374
-0.000201734
-3.00419e-05
-5.47129e-05
8.47548e-05
-0.000804326
-0.000146519
2.48983e-05
-1.85316e-05
2.01864e-05
-2.6553e-05
-8.92387e-05
7.96448e-05
-3.30436e-05
-6.979e-05
8.197e-05
-0.000107476
-0.000204397
4.98791e-05
0.000593831
-0.000439314
0.000791244
-0.000686649
-0.000187852
8.32573e-05
0.000209871
-0.000248168
5.79193e-05
-1.96215e-05
0.000255004
5.44947e-06
-4.53955e-05
-0.000215058
-0.000196904
-6.09822e-05
-0.000457859
0.000873409
-0.000876343
6.89974e-05
-6.60638e-05
0.000178076
-0.000277791
-0.000157217
0.000256933
0.000163774
-0.000145593
-9.52886e-06
-8.6523e-06
5.35946e-05
-0.000544765
0.000491171
5.2517e-05
-0.000535469
0.000482952
0.00106066
-0.000453173
-0.000811223
0.000203737
8.46636e-06
-2.50328e-05
4.14647e-05
-0.000633789
-7.23387e-05
0.000307377
0.000398751
-4.5403e-05
-7.97173e-05
3.58816e-05
-0.000138411
-2.70299e-05
9.56513e-05
-0.000244416
0.000141982
0.000102435
0.000106972
-0.000391758
0.000344295
-5.95088e-05
-0.000599094
3.36466e-05
-5.72725e-05
0.000622719
-0.000298179
0.000484328
0.000337648
4.11988e-05
0.00022647
-1.85592e-05
-0.00024911
-0.00034297
-6.39297e-05
0.000299891
0.000107008
-0.00056173
1.76975e-05
0.000557283
-1.32509e-05
-3.88677e-05
0.000596826
-0.000584585
2.66264e-05
-0.000644421
0.0010661
-0.000776942
4.08031e-05
-1.66625e-05
0.000328591
-0.000352732
0.00077068
-0.000401766
2.85034e-05
2.42547e-05
7.76193e-05
-0.000130377
9.25309e-07
9.78382e-06
3.46478e-06
-0.000238219
6.4409e-05
-6.91686e-05
0.000223993
-0.000784825
0.000682506
2.04774e-05
0.000115257
-0.000155034
1.92997e-05
-3.71389e-05
-0.000230349
0.000175224
-0.000184554
0.000802487
0.000138585
-1.8512e-05
-8.06934e-05
0.000176049
-1.23915e-05
0.000148194
2.26329e-05
0.000127375
5.66521e-06
0.000231742
-4.01295e-05
-0.000233664
-0.00052223
3.30061e-05
-6.12755e-05
-0.000542928
-4.57381e-05
-6.17228e-05
0.000376203
0.000616927
-6.94142e-06
-1.1564e-05
-1.90479e-05
1.20803e-05
0.000525539
-0.000553457
2.50796e-05
2.83855e-06
6.22344e-05
-0.000242658
0.00015615
0.000277566
0.000477567
-7.43422e-06
-8.54343e-05
3.14985e-05
6.137e-05
0.000424383
-0.000117886
0.000137321
-0.000431905
0.000722639
3.63479e-05
-9.25059e-05
-4.325e-05
5.81022e-05
-0.000119177
-8.78058e-05
-0.00106314
0.000952595
7.76854e-05
-4.35802e-05
4.67836e-05
-3.52789e-05
3.20755e-05
-5.90685e-05
5.19284e-05
-4.61169e-05
5.3257e-05
-2.57956e-05
-6.50513e-05
-4.67919e-05
7.97668e-05
0.000375652
-0.000156378
-0.000683011
0.000176984
0.000608698
-0.00010267
-0.000212774
0.000716238
4.51742e-05
-0.000548638
-0.000310878
0.000889357
5.88123e-05
-0.000637291
-6.27811e-05
6.08312e-06
8.51291e-05
-2.8431e-05
0.000111763
0.000530872
0.000132217
0.000608
-8.13106e-06
-1.34732e-06
4.74651e-06
4.73188e-06
-0.000170947
-0.000223582
0.00014473
-5.55208e-05
-0.000108507
-7.99696e-05
-8.26064e-05
0.000727811
1.958e-05
-0.000664785
0.000667975
2.2637e-05
-1.80412e-05
-0.000672571
0.000516832
-2.63379e-05
3.16328e-05
-0.000522127
0.000224688
-0.000141489
-0.000145464
6.22653e-05
-0.000564683
-9.52205e-05
1.83298e-05
0.000641573
4.83171e-05
4.48987e-06
-9.611e-06
8.7849e-05
-4.58426e-05
-3.53527e-05
-6.65365e-06
0.000136855
-0.000114856
3.04109e-05
-5.24106e-05
0.000179235
-0.00014386
-6.87164e-06
-1.13739e-06
-5.37151e-06
0.000229937
-0.000422173
0.000494799
-0.000816253
-9.26222e-05
0.000225864
5.76575e-05
-7.3035e-05
-2.17614e-05
-0.000178549
-4.45306e-05
-2.00735e-05
0.000243153
0.000236423
-7.53946e-05
9.60251e-05
0.000686606
-5.69358e-05
-0.000725695
0.000728334
-0.00061617
-0.000756585
3.39591e-06
1.50138e-05
6.37953e-06
-2.47893e-05
-0.000741444
0.000236957
0.000482508
2.19788e-05
-6.15258e-06
-2.75192e-06
5.72216e-05
-0.000627326
0.000191678
0.00054262
-0.000270852
0.000231984
0.000507604
-0.000755644
-0.000160979
0.000409018
-4.13571e-05
0.000119447
-0.00034826
0.000270169
9.05015e-05
-0.000388043
0.000735363
-0.000683726
8.05799e-05
0.000553546
-0.000515876
7.40927e-05
0.000651425
-0.000550014
-6.81156e-05
-3.32957e-05
0.000104092
0.00154905
-0.00121751
-0.000435628
0.000605555
-0.000836344
0.000356493
-6.60598e-06
1.2885e-05
3.59867e-05
-4.22657e-05
0.000160131
-2.41312e-05
6.81715e-05
-3.80756e-05
9.52325e-05
0.000527287
-0.000635898
0.000108611
-0.000405657
0.000290151
-0.00128057
0.00139608
-0.000442279
-3.03859e-05
0.000605931
-0.000133266
0.000224232
-0.000188002
-0.000391561
-8.12099e-06
-1.94591e-06
-1.49712e-06
5.07882e-05
2.09769e-05
9.20087e-05
-0.00133454
0.00117265
-0.000250089
0.000411981
0.000380344
-0.000324715
-0.000130091
7.44624e-05
0.000139284
-0.000561885
0.000541409
-0.000118808
-0.000179274
3.22178e-06
0.000115397
6.06547e-05
-2.63055e-05
2.62369e-07
0.000361165
-0.000335122
0.000610054
3.06511e-05
-4.38788e-05
-0.000552906
2.6581e-05
-3.54049e-05
-0.000366485
-0.000191557
0.000215072
-0.000988061
-0.000171193
0.000282911
-7.49281e-05
3.52116e-05
-0.0002047
0.000698368
-0.00018453
-0.000596445
3.29152e-05
-2.45601e-05
1.18313e-05
-0.00039324
0.000271461
0.000345772
0.000303938
0.000366979
-0.000592934
-7.7983e-05
0.00011522
0.000163916
-0.00102058
3.76932e-05
-1.69007e-05
-2.89135e-05
-9.83138e-05
-0.000179478
-0.000408024
0.00033058
0.000528865
-0.000451421
-0.000254059
4.39349e-05
4.91262e-05
0.000160998
-0.000733765
0.00047302
-0.000371507
-0.000174776
0.000153043
0.000111854
-3.77794e-05
-0.000497015
0.0004413
0.000361397
-0.000305682
-0.000297035
0.000305105
2.9122e-05
-3.71924e-05
-0.000130961
-3.85932e-05
2.39616e-05
-0.000244628
-0.000438253
7.25013e-05
0.000732731
0.00049374
0.000780827
-0.000419632
-0.000854936
-5.31604e-06
1.53973e-06
1.22022e-05
-8.42586e-06
1.26461e-05
0.000716289
-3.61204e-06
4.44237e-05
0.000572138
-8.99036e-05
-3.19492e-05
3.31586e-06
-0.000565875
0.000594508
-2.37126e-05
2.3656e-05
-0.000265742
0.000265799
0.000435563
-0.00017092
0.000340912
8.00432e-07
-0.000701172
-2.12089e-06
5.02345e-05
-0.0005779
0.000770156
-0.00024249
0.00062728
0.000118118
-0.000135343
-0.000535249
3.25774e-05
-0.000250114
-0.000448468
0.000332096
-0.000175992
0.000684166
0.000227189
-0.000155804
0.000527614
0.000181736
-4.9597e-05
3.82161e-06
-3.9659e-05
-3.75815e-05
-3.27142e-05
5.83461e-05
-3.97008e-05
-8.19372e-06
-0.000462476
0.00033181
-0.000116607
-0.000163837
7.00932e-05
0.000210351
4.44803e-05
0.000114271
-1.20137e-06
-0.00015755
-7.89131e-06
-6.45014e-06
-9.53597e-05
4.44674e-05
1.29542e-06
4.00311e-05
-6.83688e-05
1.88089e-05
-4.24165e-05
0.000303538
-0.000527342
0.000266221
7.962e-05
-0.000435147
-0.000237407
-6.90415e-05
0.000419441
-0.000377976
2.7576e-05
0.000154895
9.73557e-05
-0.000136753
-0.000115498
-9.92481e-06
-0.000243356
4.89829e-05
-8.96845e-05
6.0967e-05
-2.02653e-05
1.30773e-06
0.000212787
0.000116029
-0.000103901
-0.000224915
8.16955e-05
-4.85416e-05
-0.000424912
0.000459241
-0.000307903
-0.000346241
2.4629e-05
8.489e-06
-1.57752e-05
-1.73428e-05
7.5934e-05
-0.000621565
-2.83956e-06
2.68933e-06
-3.80212e-05
3.81714e-05
-0.000259403
0.000914405
-0.000284555
0.000243301
-2.63326e-05
6.75869e-05
-0.000312619
0.000741474
0.000604746
0.000200256
-0.000177722
0.000826294
-0.000426437
0.000894645
-4.24477e-05
6.00964e-05
0.000486438
-0.000504087
-2.46458e-06
4.65164e-05
-4.93678e-05
6.92873e-05
2.19576e-05
-7.879e-05
0.000604417
-0.000790077
-0.00097273
0.00120069
0.000562114
-0.000415904
0.00041922
-0.000262635
0.000380753
6.76e-05
-4.3944e-05
-2.62354e-05
0.000401303
-2.2458e-05
0.000454466
-3.66702e-05
-6.68206e-05
0.000443447
-0.000445313
-0.000505691
0.000507557
-1.91429e-05
-0.000422189
0.000500451
-7.82618e-05
-6.06122e-05
7.13686e-05
-0.000587605
-0.000145224
-0.00130413
0.00065928
0.000206786
-0.000477638
-0.000401859
-1.40454e-05
7.54109e-05
-7.8109e-06
1.13875e-05
-1.10863e-06
-8.73911e-06
-1.25942e-05
1.52785e-05
-3.71743e-05
6.89674e-05
3.33911e-05
-0.000709009
0.000250033
-0.000161102
0.000620078
-0.0005817
0.000467249
0.000169454
-0.000207292
-7.70173e-05
1.59156e-07
4.72492e-05
1.51162e-05
-6.25246e-05
-0.000317153
0.000249267
0.000174662
-0.000106776
0.000319523
-0.000185749
0.000435856
-0.00056963
-0.000555267
0.000503448
0.000231316
4.09086e-05
-0.000138307
-0.000133918
2.24013e-05
-5.78837e-05
0.000110874
-7.53915e-05
0.000341498
-0.000424097
2.19866e-05
-2.22692e-05
0.000319237
-8.74967e-05
6.57412e-05
-3.29574e-05
0.000934526
-0.000845211
-0.000508947
0.000542822
0.00038002
-0.000745858
0.000150598
7.28606e-05
-0.000830259
5.44848e-05
-0.000812095
0.000422609
-1.14812e-05
-0.000180075
0.000384162
-0.000357581
0.000118707
-8.74109e-05
-9.29736e-05
-5.35439e-05
1.26043e-05
4.2694e-06
-9.2119e-05
-9.51682e-05
0.000125634
6.16528e-05
-2.73351e-05
5.77256e-05
4.72145e-05
-7.7605e-05
5.54399e-05
-9.75269e-06
-4.56872e-05
-0.000563068
0.00140889
-0.00110522
0.000506993
-0.000569204
-0.000663174
-9.55182e-06
-6.71011e-05
2.56646e-05
-5.40529e-05
-6.49645e-05
5.41449e-05
6.48725e-05
-4.22014e-05
-4.61417e-06
0.000245148
-0.000198333
-0.000890483
0.000919751
0.000373564
-0.000402833
-0.000209775
0.00014129
-0.000848699
0.000917183
-0.00109543
0.000534849
0.000752257
-0.000135869
0.000450709
-0.000352399
0.000725687
0.00012948
0.00028662
-0.000153093
-0.000263007
7.35741e-05
-0.000454181
4.99474e-05
0.000330659
0.000636176
-3.83078e-05
8.06275e-06
-5.64628e-05
6.01504e-05
4.27295e-05
-4.64171e-05
0.000694328
-9.81487e-06
0.000316822
-0.00100134
-0.000158302
0.00020469
-8.85886e-05
2.665e-05
1.19398e-06
8.90706e-05
-4.8494e-05
-9.76679e-06
4.71688e-06
-0.000941493
-7.9151e-05
0.000132831
0.000887813
-0.000984667
0.000480357
0.00100948
-0.000505171
0.000116978
-0.000455562
0.000575776
0.000574114
-4.40661e-07
-2.23975e-06
-6.58533e-05
0.000147188
0.000385249
-0.000466584
6.12243e-05
-0.000538614
0.000508332
-0.000476577
-0.000205274
0.000110606
-0.000122683
0.0007676
-0.000862275
0.000344708
-0.000210068
0.000295147
0.000358368
0.00122206
-0.00056257
0.000264428
-0.00092392
0.000446408
-7.48595e-05
-0.000256329
9.13586e-05
-3.09883e-05
-1.10481e-05
3.61747e-05
3.45305e-05
-5.96572e-05
2.95449e-05
-6.02079e-05
-1.64871e-05
4.71501e-05
-2.1642e-05
-6.09211e-05
2.91514e-05
5.34117e-05
-0.000414044
-3.08694e-06
-0.000437805
0.000267492
5.35381e-05
0.000289955
-0.000451797
0.000514611
-0.000352768
0.000483836
0.00110334
-3.81315e-05
-6.99008e-06
6.243e-05
-0.000575355
-1.79875e-05
0.000798803
-0.000685674
0.00038899
-0.000502119
-0.0001521
-0.000807375
-2.85856e-05
0.000238053
0.000505207
-0.00052839
-0.000703318
0.00156078
0.000364599
-3.65661e-05
-0.00115011
0.00131444
-0.000127766
-2.84785e-05
0.000113979
0.000113492
-0.000167322
0.000152128
0.000177779
0.000377695
-0.000278953
-7.98049e-05
-0.000482765
0.0013488
-0.000550481
-0.00150164
0.000361954
-0.000453634
7.21625e-05
1.33384e-05
0.000345515
-7.07611e-05
5.70557e-05
-4.31505e-05
0.000606173
-6.86965e-05
-0.000318621
0.000388408
-1.09095e-06
6.00398e-05
-0.000152601
-5.19602e-05
0.00027778
2.91839e-05
0.000686445
-0.0006368
-0.000521027
0.000471382
0.000685503
-0.000872888
0.000646781
-0.000459395
-0.000175007
9.52025e-05
0.00021121
0.000613446
-0.000469972
0.000322007
0.00106772
0.000306835
-4.47025e-06
0.00049913
-0.000279697
-0.000219433
0.000588833
-0.000847595
-0.000269074
0.000100776
-3.69769e-05
-0.000477122
-0.000132757
8.33642e-05
0.000526515
0.000215183
0.000384961
-0.000422874
0.000711237
-0.000212107
-0.000131071
2.17441e-06
0.000149374
0.000489577
-0.000700839
0.000234668
-0.00013567
8.40689e-05
-0.000183067
-8.07054e-05
0.00019303
4.69673e-05
-0.000159292
0.000283454
-0.000129491
6.95304e-05
0.000333737
-0.000119814
-0.000227743
2.47026e-05
0.000252236
-4.91948e-05
3.48167e-05
0.000352931
-9.00535e-05
8.57331e-06
0.00019139
0.000152967
-3.73304e-06
0.000257455
-1.03256e-06
0.000201989
-1.30987e-05
1.0466e-05
8.97539e-06
-6.34269e-06
-0.000124713
-5.40612e-06
0.00014916
-1.9041e-05
1.83434e-05
-0.000191968
0.00018052
-6.89525e-06
-2.87614e-06
-0.000106245
-1.55919e-05
-1.07773e-05
2.72548e-05
2.82118e-05
-4.46893e-05
-3.25805e-05
2.78867e-05
9.01038e-05
-8.54101e-05
1.88309e-05
-7.77472e-05
-0.000261168
0.000972405
-4.19811e-05
3.43221e-06
2.77716e-05
5.71801e-05
-8.97606e-05
-4.76562e-05
4.03436e-05
2.61435e-05
9.34732e-05
-3.02556e-05
-0.000531172
0.000104304
-0.000515328
0.000942196
-1.56643e-05
0.000119373
-0.00114646
-0.000213261
0.00113471
0.00022501
-5.45228e-05
2.23606e-05
6.29685e-05
-3.08064e-05
0.00057876
-0.00028579
-0.000824142
3.19478e-05
0.000147202
-0.000291945
0.000114731
0.000227037
-4.98226e-05
0.000123057
-9.61903e-05
-0.00012755
0.000100683
1.27364e-05
4.13434e-05
-1.51375e-06
-5.2566e-05
-5.49335e-05
0.000737998
-0.000499918
0.000476933
-8.1521e-06
7.66863e-05
-0.000236468
-0.000313446
0.000283647
0.000266267
0.000178926
9.12969e-05
0.000179976
-1.67146e-05
3.32653e-05
-0.000122532
2.84541e-05
1.09323e-05
-7.12903e-05
7.23588e-05
-0.000122051
0.000120983
-2.77114e-05
-4.92989e-06
-6.35491e-05
5.55821e-05
-9.14455e-05
1.21705e-05
1.70558e-06
-8.51664e-05
-0.000708089
-1.69269e-05
1.94944e-05
9.60301e-06
-1.68629e-05
6.69773e-05
2.44008e-05
-0.000100021
7.8441e-05
1.02579e-05
4.53023e-06
-1.66696e-06
-2.9919e-05
1.05102e-05
-1.998e-05
-4.51878e-05
3.79577e-05
-2.02038e-05
-6.90084e-05
5.12545e-05
-4.85266e-05
5.03525e-05
2.60608e-05
3.26048e-05
-0.000207612
0.00110067
4.71002e-05
-0.00114777
0.000149104
-0.000167523
0.000248355
5.10919e-05
6.08817e-06
-5.72537e-05
-0.000109082
2.3634e-05
-7.55176e-05
5.18835e-05
0.000129024
1.63587e-05
-5.7361e-06
2.09953e-05
-3.79054e-05
3.75386e-05
-5.06373e-05
6.0502e-05
0.000102803
-0.000146947
0.000131073
-0.000137721
0.000141911
9.76564e-05
-9.04635e-05
0.000142717
9.88027e-05
-0.000179285
0.00017733
-0.000190019
0.00112097
0.000175079
-0.000238028
0.000204861
9.65891e-05
0.000148556
-0.000102428
0.000138106
-0.00023171
9.71998e-05
-3.595e-06
-0.000118351
0.000257958
0.000136395
-0.000276002
0.000100565
-0.000135047
-3.89033e-05
6.05209e-06
3.28513e-05
0.00142386
-5.43112e-05
-3.83347e-05
3.07304e-06
4.57276e-05
3.96678e-05
-2.12919e-06
-5.975e-05
3.71471e-06
9.68696e-05
-4.08343e-05
3.58071e-05
0.000284852
-9.41893e-05
7.64445e-07
0.00015314
-9.64117e-05
0.000133757
-3.37218e-05
6.67845e-06
1.67754e-07
0.000104538
-0.000128481
0.00015364
-0.000200206
0.00017359
0.000113297
-7.1704e-05
0.000130074
-2.73344e-05
-0.000144272
0.000158533
1.04413e-05
4.91776e-06
2.52514e-06
-2.84382e-06
4.81142e-06
1.10022e-05
-1.29698e-05
1.23624e-05
-0.000121817
8.12604e-06
-5.9189e-05
0.000167442
-0.000105982
0.000162965
8.16918e-05
-0.000135557
9.89235e-05
4.81917e-05
1.18103e-05
7.00717e-05
2.81713e-05
-4.21646e-06
3.53435e-05
-7.39615e-05
-0.000330495
4.3935e-05
0.000360521
0.000291799
-6.88809e-05
-0.000245614
2.26953e-05
0.000132664
0.000176885
-9.99013e-05
-0.000209647
0.000132005
0.00107027
-0.000363793
-0.000884173
-8.08606e-05
0.000342202
3.04582e-05
-0.000159412
0.000223194
0.0011232
0.000251799
-7.99701e-05
3.66655e-05
9.14963e-05
-4.4291e-06
3.62817e-05
-5.15284e-05
2.54015e-05
0.000332962
-9.84113e-05
-0.000105279
4.42783e-05
0.000488714
-9.60835e-06
-0.000101334
-1.69531e-05
7.53678e-06
0.000167949
-0.000280247
-9.07495e-05
-0.000192598
-2.41261e-05
0.000211318
4.10276e-05
0.000500877
-0.00040541
-0.000136494
-2.04818e-05
0.000255764
0.000699935
-0.000284121
-4.04891e-05
0.000266943
5.76667e-05
-0.000148102
0.000432644
-0.000444661
-0.00019728
0.000493839
-0.000145843
0.000118255
-4.65766e-05
-0.000177661
-0.000192267
-0.000416724
-0.000124523
0.000472551
-0.000834015
0.000946411
0.000228497
0.000128384
9.69921e-05
-2.75882e-05
0.000300251
-0.000298499
3.92757e-05
0.000229799
-7.38157e-05
-0.000171278
1.52943e-05
0.000282811
-0.000140477
-1.11641e-05
-2.35139e-06
-0.00108464
0.00104808
0.000273069
6.43661e-06
0.000221371
0.000122631
-5.85887e-07
-3.30604e-05
3.61714e-05
0.000708536
0.000715608
0.000203176
2.64384e-05
-0.000945223
-3.23291e-05
0.000119932
0.000352354
5.98088e-05
1.65439e-05
5.51449e-06
-1.72469e-05
-2.74192e-05
0.00049338
-0.00046137
-4.59039e-06
-0.000847671
0.000708931
7.19048e-05
-0.000119589
8.09351e-05
-1.78089e-06
-6.67918e-05
2.67152e-05
8.30892e-07
4.52438e-05
-7.41724e-05
6.15334e-05
9.07905e-05
0.000386687
-3.14872e-05
-2.24308e-05
7.7552e-05
0.00108091
1.97638e-05
1.79585e-05
6.34079e-05
-1.87738e-05
-0.0001767
-0.000259451
0.000275524
-3.48459e-05
-0.000896527
0.000574009
-0.000684167
-1.99554e-06
-0.000778117
-0.000469849
-0.000633776
0.000909309
-0.000101498
5.59161e-05
0.000152303
-0.000230299
-1.04077e-05
-0.000182652
9.63317e-05
-0.000910183
0.000470516
-6.84002e-06
-0.000966786
0.000670585
-0.000600326
2.36056e-05
-4.04678e-05
0.000693899
-0.000677037
0.000233306
0.000277346
3.38785e-05
-0.000356752
4.55279e-05
-1.62278e-05
5.9167e-05
-3.35535e-05
1.55904e-05
-1.92776e-05
-3.73429e-06
-0.000231492
7.51949e-05
-2.3404e-06
0.000142371
0.000404874
-0.000591081
9.5458e-06
0.000421076
6.59386e-05
-9.43972e-05
-0.000561695
-0.00067816
0.00124167
9.359e-05
-7.67428e-05
0.000526531
8.13055e-05
0.000585464
-0.000546823
-0.000119947
-9.84757e-05
0.000145202
-0.000988219
-3.72345e-05
2.07372e-05
0.000543029
-0.000514758
0.000159629
-0.000175644
0.000181549
-0.000165534
0.00148498
-0.000928372
0.000349747
-0.000906356
0.000442826
5.01021e-05
-0.000445918
-4.71013e-05
0.000768044
-0.00056953
-0.000358299
0.000159785
0.000240207
-0.000203799
-0.000176291
0.000628997
-0.000369148
-0.000385501
-4.23879e-05
-0.000177986
0.000253957
0.000109054
-0.000185026
-0.00120742
3.90719e-05
0.00010521
0.000815689
8.9204e-05
0.000207937
-0.00111283
0.000228693
2.18998e-05
0.000104506
-1.78113e-05
3.06717e-05
0.000466221
-0.000904596
0.000568422
-0.000154704
-0.000263923
0.000140727
0.0002779
-0.000353891
0.000660111
-0.000666079
0.000689434
-0.000445692
0.000505022
4.87661e-05
0.00114579
-0.00114745
-0.000122271
-0.000257171
0.000935276
-0.000926978
-0.000322891
0.000544237
-0.000443849
0.000970305
-0.00100303
0.000920759
-0.000905719
-0.000365215
-8.34662e-05
1.35337e-05
-0.00019167
0.000110061
0.000153771
-5.61365e-06
0.000188898
4.65146e-05
-0.00010865
-5.69595e-05
-0.000104949
0.000119307
0.000148607
-0.000178152
-0.000386323
0.000201057
-0.000110258
-0.00077467
-0.000184931
0.000675297
-0.000793608
-0.000470651
-0.000586419
0.000822533
0.000783754
-7.43532e-05
-0.000166579
6.77821e-05
-0.000888837
3.91867e-05
-9.94749e-05
9.49465e-05
-0.000879482
9.80563e-06
1.5025e-05
0.000851036
-0.000875866
-2.08154e-05
4.39108e-05
0.000735741
-0.000779652
-0.000232881
7.37482e-05
-0.000175131
0.000613285
-0.000223264
-0.00013434
-6.39723e-05
-0.000572811
-0.00023574
0.000414348
-0.000423189
-4.35446e-05
0.000814693
-0.000770021
-0.00069489
-0.000843547
0.000975865
0.000562571
4.22459e-05
-2.66725e-05
0.000919703
0.000147784
0.000221401
0.000980769
-0.00103533
0.00069891
-0.000100077
-0.00105824
0.00110288
5.54354e-05
-0.00113888
-1.49659e-05
7.03663e-05
-6.58888e-05
-0.000556341
-0.000212788
0.000571849
7.21831e-05
-0.000483277
-0.000151553
0.000510308
-0.000360316
-3.06444e-06
-0.00103805
-0.000488898
0.000472637
0.000145742
-2.90085e-05
-2.7633e-05
8.2043e-05
-0.000534295
-0.000200198
-9.22404e-05
-0.000707109
-3.59944e-05
0.000743104
1.59882e-06
-1.24664e-06
-5.92409e-06
0.000277592
-0.00127557
-5.40655e-05
0.00105204
-0.000440902
9.98983e-06
-1.0194e-05
-7.14472e-06
0.00053287
-0.000515531
-4.73345e-05
2.29089e-05
-0.000949865
-5.26865e-05
2.534e-05
-7.79321e-05
-4.82176e-05
-1.82493e-05
2.86875e-05
0.000621466
-0.000340002
0.000122322
0.000268615
0.000350819
0.000171463
-4.5718e-06
5.77182e-05
0.000156225
-0.000415905
-5.74733e-05
0.000128439
-0.000227698
9.80575e-05
-0.000107478
0.000145
3.25717e-05
3.44099e-05
-8.10091e-07
-8.29184e-06
3.79541e-05
-3.66524e-05
-0.000229638
0.000328753
-8.9196e-05
-9.91925e-06
0.000863396
-0.000824196
0.000584405
4.24179e-05
0.000197373
-3.77357e-05
0.000195404
-2.9922e-05
2.99388e-05
-1.2611e-05
8.36571e-06
-6.87695e-05
1.38272e-05
1.28157e-05
-2.9215e-05
1.63993e-05
-6.56246e-05
4.10357e-06
-5.46664e-05
3.37047e-05
2.09617e-05
-6.51854e-05
5.84901e-05
6.69528e-06
-3.87492e-05
-0.000293169
-5.23307e-05
4.6748e-05
5.58269e-06
2.99291e-05
-0.00110806
0.00117795
-0.00048725
-0.00151485
-1.07631e-05
2.35789e-05
-7.17914e-05
0.000194401
0.000123691
-4.07462e-05
-7.83696e-05
2.37031e-05
4.14254e-06
0.00068693
-0.000669795
-0.000229924
2.29416e-05
6.15943e-06
4.90877e-06
-0.000319085
-0.000196729
-0.000192084
0.000281041
0.000152301
4.88575e-05
-7.62798e-05
4.4884e-06
-0.000200798
0.00017643
-1.2565e-05
-0.000431565
5.08839e-05
0.000441905
-9.42499e-05
8.98138e-05
0.000705975
-8.64206e-05
-3.96166e-05
7.90019e-05
0.000659525
0.00110235
-0.000844668
0.000698333
7.11403e-05
0.00043823
-0.000329521
1.39217e-05
-2.55716e-05
-0.000108651
0.000119328
0.000115748
-0.00017376
-6.13161e-05
-0.00011205
-8.76825e-05
-0.000469688
2.8632e-05
-0.000623643
-0.000149902
0.00010379
0.000669755
0.00093025
-1.89795e-05
-4.69814e-05
7.39471e-05
-8.21779e-06
-2.95546e-05
6.75434e-05
-5.11347e-06
0.00021232
-0.000407819
-0.000310426
-8.25986e-05
-2.05793e-05
0.000226869
-0.000166288
0.000173549
-4.05299e-05
-0.0001071
7.886e-05
6.26416e-06
-0.000364449
-0.000637477
0.000580541
0.000865121
9.51752e-06
-0.000114281
-1.2071e-05
-0.000669556
0.00044363
-2.8838e-05
-0.000300202
0.000271768
-0.000207201
0.000340725
-0.000169576
0.000190439
-9.95826e-05
7.87192e-05
8.03919e-06
1.54979e-05
-4.77307e-06
-0.000147718
0.000123859
2.38588e-05
4.90855e-05
-5.46977e-05
5.61219e-06
-8.57306e-06
-8.72204e-05
7.00591e-05
-9.92201e-05
0.000623739
0.000243525
-3.18288e-05
7.64737e-05
0.000123485
-0.000106485
-0.000299048
0.000311301
-1.01247e-06
-0.00111512
-4.60398e-05
0.000125828
0.00121794
-0.00116082
3.81171e-05
-4.21476e-05
3.35693e-05
0.00010636
-7.56942e-05
0.000123798
0.000428262
7.06245e-06
-1.42619e-05
0.000426641
-0.000286597
-0.000394975
3.30293e-06
-0.000797113
-0.000459572
-0.000261899
-0.000141668
5.70286e-05
-0.000327781
4.53346e-05
-2.90231e-05
-4.49895e-06
-1.18126e-05
2.48518e-07
0.000112736
-7.64197e-06
6.28644e-05
-0.000174119
-0.000335191
0.000109985
0.000500842
-3.97084e-05
1.04934e-05
-9.38297e-05
-0.0010161
-3.77537e-05
6.78894e-05
-4.91738e-05
-4.13339e-05
-5.88428e-06
-0.000187362
-8.97872e-05
0.000254719
-9.00397e-05
0.000303813
-0.000335088
4.08046e-05
-0.000116027
1.19036e-05
2.10707e-05
-8.56608e-05
-0.000130072
0.000564025
-2.60478e-05
3.27577e-05
-0.000195749
-0.000232038
-0.000775948
0.000989388
-0.000710588
0.000357341
-0.0004903
7.16959e-05
0.000819887
-0.000130601
0.000164902
7.63049e-05
-5.3464e-05
-4.73905e-05
3.37534e-05
9.25675e-05
-9.93991e-05
6.09766e-05
6.87004e-05
-1.24082e-05
-0.000130465
0.000721515
-0.000199909
-0.000697896
0.000216008
0.00012058
0.000166006
2.12631e-05
2.78224e-05
-0.000111189
0.00118166
1.61854e-05
-0.000121569
-0.000634174
-9.88329e-06
-0.000929166
0.000573075
-1.74151e-05
0.000160578
-2.15266e-05
0.000198644
-6.17756e-05
-9.12291e-05
0.000201374
3.25125e-05
1.52265e-05
2.67663e-05
0.00054104
7.31875e-05
-0.000202961
0.000345991
8.1514e-05
-9.69639e-05
-5.94782e-05
-0.000275967
6.72996e-05
7.83703e-05
1.06126e-05
2.47302e-05
3.7016e-05
0.000403775
-0.000495466
-3.83809e-05
-0.000697943
-0.000521148
0.000443143
-4.48239e-05
7.92848e-05
0.000107249
-4.7509e-05
-2.47747e-05
5.75443e-05
-0.000235134
0.000145445
-8.50877e-05
0.000317702
-9.9587e-07
0.000131617
-8.6651e-05
7.92329e-05
-0.000129335
7.03957e-06
-4.71836e-06
0.000795651
-0.000467315
-0.000187046
0.000445956
-0.000281506
3.19069e-05
-0.000137471
8.87504e-05
0.000451553
-0.00118544
-0.000282216
-0.00016438
0.00029515
-0.000350577
-0.000125729
-0.000556434
0.000471169
-0.000158844
-6.11764e-05
2.92473e-05
-0.000485219
-0.000532663
-0.00124441
-5.33595e-05
2.31917e-05
-0.000179197
-6.37802e-06
8.362e-05
-2.66822e-05
-5.05598e-05
0.000172205
-0.00014984
-2.39911e-05
0.000238044
-0.000262594
-0.000160097
0.0004715
-0.000377256
0.000154882
-8.08168e-05
-0.000475831
0.00101983
-0.000972333
3.82431e-05
0.000382851
-0.000248256
-1.59893e-05
6.29624e-05
-1.24425e-05
-1.6325e-05
4.78929e-06
9.5898e-06
-0.000135479
-0.00147568
-0.000825692
-0.000382513
0.000313812
9.57876e-05
-2.5558e-05
1.59028e-05
-0.000125234
-2.74105e-05
-6.19977e-06
-6.56811e-08
-0.000194273
-3.15297e-05
-9.93725e-06
-7.97091e-05
-0.000559975
0.000572621
-0.000506014
0.000566986
5.63547e-06
-0.000501751
0.000440135
6.16158e-05
-0.000443167
-6.28464e-05
-3.03231e-06
-0.000686848
0.000687648
-0.000552791
0.000567554
-1.47628e-05
-0.000508367
-0.000636958
-4.98896e-05
0.000660637
0.000633887
2.67501e-05
-0.000564457
-0.000429613
0.000493088
-0.000446085
-4.70039e-05
-0.000333432
-9.61811e-05
-0.000241057
-9.23747e-05
0.000180776
-0.000136842
-6.02805e-05
0.000620676
1.32114e-05
0.000638301
-1.76248e-05
0.000657881
1.37677e-06
0.000533968
-0.000373264
6.79092e-05
-3.65786e-07
-8.2456e-05
-0.00016408
8.1002e-05
-0.000239727
0.000146862
1.40362e-05
-7.82651e-05
0.000148607
-0.000237316
-0.000688428
0.000189477
-2.23842e-05
7.21364e-05
0.00045858
-0.000583513
0.000148918
-0.000189048
0.000138892
0.000140242
0.000102361
2.14982e-05
-0.000842852
-3.85473e-05
-3.34829e-05
0.000125554
-7.68403e-05
9.82158e-05
-0.000795853
-0.00019407
-0.00149892
0.000542321
0.000282052
-0.000222931
-2.6115e-05
0.000651996
-3.44311e-05
5.54191e-05
1.45628e-05
-9.4262e-06
0.00106186
-0.00126704
7.87444e-05
2.83999e-07
-7.90284e-05
0.00126348
3.42187e-05
6.32341e-05
0.000226026
-0.000134388
1.86749e-05
2.81835e-05
0.000231042
0.000779215
-0.000790805
-0.000188319
-0.000192283
-3.09587e-06
-0.000372437
0.000204
0.000695725
0.000806062
-0.000810762
5.36746e-05
-2.95506e-05
6.60163e-05
-9.25532e-05
0.000277455
-0.000164748
0.000173913
-0.000527096
-0.000791131
-0.00021385
-6.80984e-05
0.000173861
-7.67233e-05
0.000126064
-0.000223202
0.000237117
0.000224059
-0.000217875
9.0036e-05
-7.5144e-05
-7.23162e-05
-0.000218772
0.000562549
0.000114455
8.94105e-07
-1.2429e-05
-1.21878e-05
3.68013e-05
0.000165958
0.000289507
-0.000412568
-4.48856e-06
-0.000130433
0.000684928
0.00058676
-0.000195992
-0.000103669
-0.000524874
-0.00061127
0.000601661
-0.000173934
9.55404e-06
-0.000737769
0.000543716
-0.000158346
-0.000338437
0.000196377
6.19144e-06
0.000138972
0.000353797
-0.000513002
-7.02658e-05
0.000212129
3.34146e-05
-9.41257e-05
0.000104526
-0.000582706
9.87559e-06
-3.83409e-05
-2.68743e-05
0.000397978
0.000118761
0.000416597
0.000435769
-0.000135482
0.000130963
0.000452259
-0.000484023
-8.17538e-05
1.74311e-05
-3.5136e-06
-9.20057e-06
-0.000156436
-6.26809e-05
1.45444e-06
-0.000486578
-0.00135523
0.00112017
0.000232704
-0.000132907
0.000695854
0.000201232
6.78843e-05
5.52886e-05
5.34058e-05
-0.000194392
0.00026842
-3.28515e-05
1.17478e-05
3.63302e-05
4.24099e-05
-5.62725e-05
-9.47875e-05
5.60144e-05
-6.0661e-05
0.000123954
0.000766294
0.000502124
-0.00040424
-3.65508e-05
0.000236859
-0.000173268
-0.000339558
-0.000144443
0.000226366
-0.000245426
5.45227e-05
-0.000128535
7.13829e-05
0.000253681
-0.00032034
-4.72381e-06
-8.42358e-05
-4.52221e-05
2.3856e-05
1.61751e-05
-0.0002048