/*--------------------------------*- C++ -*----------------------------------*\
| =========                 |                                                 |
| \\      /  F ield         | OpenFOAM: The Open Source CFD Toolbox           |
|  \\    /   O peration     | Version:  v1912                                 |
|   \\  /    A nd           | Website:  www.openfoam.com                      |
|    \\/     M anipulation  |                                                 |
\*---------------------------------------------------------------------------*/
FoamFile
{
    version     2.0;
    format      ascii;
    class       volScalarField;
    location    "0.72";
    object      nut;
}
// * * * * * * * * * * * * * * * * * * * * * * * * * * * * * * * * * * * * * //

dimensions      [0 2 -1 0 0 0 0];


internalField   nonuniform List<scalar> 
1466
(
0.000809695
0.00204786
0.00130907
0.00390396
0.00135469
0.0023995
0.00242539
0.00184568
0.000743568
0.00233327
0.00303137
0.00233279
0.000731387
0.00133418
0.00567678
0.0062655
0.00170032
0.00101254
0.0049889
0.00337199
0.00547653
0.00814325
0.00393445
0.00313245
0.000756391
0.00408387
0.00516672
0.00409245
0.000745819
0.00370234
0.00360666
0.00389402
0.00164363
0.0099653
0.00294716
0.00177774
0.0111426
0.00161105
0.00215497
0.000843866
0.000830465
0.00198543
0.00193835
0.000742936
0.000692524
0.000991507
0.00188517
0.000701698
0.00153595
0.000745204
0.00110782
0.00167321
0.00170547
0.000916491
0.000820532
0.00101067
0.000714715
0.00210508
0.000872605
0.00202312
0.00571713
0.00268163
0.00186102
0.00351321
0.00569358
0.00206261
0.00833355
0.00361077
0.00208063
0.000886537
0.0075196
0.00113047
0.000937261
0.000909336
0.00384429
0.00252596
0.00256697
0.00171187
0.00125576
0.0037325
0.00290997
0.00526591
0.00117249
0.00321358
0.0052478
0.00531783
0.00772151
0.00313442
0.00252046
0.00276838
0.00501631
0.00463602
0.00416627
0.00250858
0.00181064
0.00106381
0.00188193
0.00179249
0.000822716
0.000851173
0.00149188
0.000906585
0.000641902
0.00170714
0.00227489
0.00193668
0.00147826
0.000763892
0.00191115
0.00074472
0.00568339
0.00296194
0.00150396
0.00178399
0.0015661
0.00639574
0.00304935
0.00168625
0.00193521
0.00159247
0.00637138
0.00251256
0.00236971
0.000828306
0.000735568
0.00160852
0.00264215
0.00404241
0.00330383
0.00449043
0.00176208
0.00196633
0.00346325
0.00288358
0.00520391
0.000755803
0.00077651
0.00110385
0.00121126
0.00113819
0.000939432
0.00465345
0.00485245
0.00448643
0.00855239
0.00722497
0.0039375
0.005335
0.00452039
0.00308973
0.0053159
0.00343873
0.0024092
0.00156724
0.00493885
0.00814273
0.00375235
0.00600401
0.00452626
0.0021466
0.00393695
0.00338232
0.00147517
0.0048158
0.00772612
0.00341641
0.00436167
0.00481522
0.00532162
0.00323886
0.00559173
0.00284079
0.000766689
0.00221293
0.0010363
0.00086788
0.00339476
0.00417854
0.00546161
0.00608772
0.000844869
0.00392781
0.00538099
0.000595767
0.00304886
0.00561723
0.00546766
0.00275091
0.00206208
0.00150246
0.0058799
0.00506183
0.00389676
0.00822663
0.00194019
0.00615993
0.000637369
0.00329849
0.00687363
0.00778495
0.00305864
0.00448745
0.00316468
0.00557328
0.00754524
0.00798874
0.0064534
0.00229593
0.00451184
0.00334974
0.00458041
0.00483078
0.00457313
0.00517946
0.0059772
0.00485982
0.00588625
0.00587851
0.00343819
0.003984
0.00454677
0.00630838
0.00502728
0.0065623
0.00520238
0.00569305
0.00694753
0.0011029
0.00548358
0.00626503
0.00557148
0.00309081
0.00881957
0.0101381
0.00300408
0.00801491
0.00469581
0.00473055
0.00463099
0.00580758
0.00231906
0.00359575
0.00304234
0.0076021
0.00397669
0.00312595
0.0038245
0.000898637
0.00397256
0.00278683
0.00596463
0.00619831
0.0021489
0.00366541
0.00305508
0.00559559
0.0032546
0.00106462
0.00135708
0.001962
0.00125124
0.0032007
0.00276169
0.00607594
0.00353386
0.00053352
0.000941294
0.00481441
0.00536319
0.00123667
0.00168373
0.00143713
0.00107628
0.00429683
0.00506394
0.00680039
0.00603451
0.00421531
0.00545638
0.0043688
0.00596605
0.00696898
0.0050343
0.00315372
0.00959933
0.00118262
0.00478243
0.00488498
0.000935949
0.00176471
0.00175465
0.000596511
0.000786562
0.000813448
0.00330821
0.0010298
0.00159974
0.0013174
0.00450906
0.00597229
0.00135554
0.00662422
0.000474831
0.000865047
0.00567482
0.011933
0.00691511
0.00121418
0.0029301
0.00852285
0.00226802
0.00551888
0.00391465
0.0046476
0.00436464
0.00361254
0.00978078
0.00288594
0.00119521
0.00579807
0.000947466
0.00151559
0.00151867
0.00570917
0.00619959
0.00156417
0.00126312
0.00287539
0.0054309
0.00513128
0.00390007
0.00165377
0.0016811
0.00295989
0.00547805
0.000847809
0.00566684
0.00483866
0.00795523
0.0032138
0.00404305
0.00242685
0.00155969
0.00373228
0.00352784
0.000429732
0.00299166
0.00295919
0.00212184
0.00503279
0.00172278
0.000907378
0.00358524
0.00753766
0.0106143
0.00739034
0.00285844
0.000643125
0.00103649
0.00295945
0.00977858
0.00659905
0.00502173
0.00755506
0.0011877
0.00944223
0.00216134
0.0020716
0.00121496
0.00325684
0.00290755
0.00805671
0.001463
0.00280072
0.00163392
0.0125449
0.00388475
0.00146099
0.00247488
0.00359526
0.0102741
0.0111091
0.0107117
0.0111835
0.0123552
0.0117048
0.00155728
0.001519
0.00120267
0.00115774
0.00721542
0.0140455
0.00807396
0.0137437
0.00767726
0.00310843
0.00119284
0.00150211
0.00678466
0.000691085
0.0012286
0.00112511
0.00281203
0.00135702
0.00298178
0.0115162
0.00274957
0.00302773
0.00972467
0.00963289
0.00481896
0.00305564
0.00317461
0.0107933
0.00334696
0.00126007
0.00130537
0.00305284
0.00566973
0.0026817
0.00969695
0.0105375
0.0032753
0.00293174
0.00357998
0.00249098
0.00790305
0.00149844
0.00335498
0.00255769
0.00664483
0.00503224
0.00170604
0.00172251
0.00485044
0.000580678
0.00133269
0.000807916
0.00137644
0.00695147
0.00153737
0.000956571
0.00656702
0.0014686
0.00557021
0.00210752
0.00130262
0.00519538
0.00178485
0.00536652
0.00540985
0.00158349
0.000987734
0.000875015
0.0113782
0.000983526
0.00139123
0.00150462
0.000966812
0.0057917
0.00137579
0.00719098
0.00122508
0.0018803
0.00533162
0.00218527
0.0126499
0.00690863
0.0067673
0.0119399
0.00658296
0.00151367
0.00647065
0.00143539
0.00617973
0.00281981
0.00525198
0.00781705
0.0115657
0.00673018
0.00317495
0.00341693
0.00454858
0.0110241
0.00966019
0.00204013
0.00392806
0.00746453
0.00905038
0.00541479
0.0106494
0.00390433
0.00166893
0.0133546
0.00503111
0.0147967
0.0138853
0.013079
0.00382018
0.00884434
0.0116615
0.0109849
0.00229257
0.00767401
0.00130172
0.0089877
0.00346882
0.00611164
0.00388436
0.0148477
0.00580751
0.00870682
0.00648679
0.0016633
0.0142457
0.00826855
0.0105169
0.00086288
0.0013303
0.00178036
0.0123907
0.00799198
0.0110269
0.00235898
0.00804277
0.0114901
0.0093887
0.00467437
0.0121844
0.0105478
0.00160617
0.00172169
0.00933099
0.0144704
0.0142623
0.00994336
0.00247994
0.00365144
0.0110351
0.00391465
0.00192471
0.00813647
0.00130011
0.00711916
0.0128229
0.00253635
0.0133607
0.00183638
0.00922186
0.00646524
0.00869428
0.00542545
0.0102903
0.013741
0.00170516
0.0148002
0.0150252
0.00878805
0.00197873
0.00153596
0.0102676
0.0109623
0.00589516
0.00291
0.00118017
0.00764202
0.0139838
0.0109678
0.00376291
0.0112175
0.00647473
0.0109012
0.00462967
0.00423146
0.00302744
0.00626904
0.000931571
0.0123876
0.0146202
0.00418916
0.00561366
0.01114
0.0137815
0.0084531
0.009595
0.00502373
0.00633694
0.00104169
0.0150228
0.00838657
0.00759667
0.00216379
0.00972255
0.0134773
0.00664171
0.00490654
0.00457166
0.00309342
0.00340064
0.00574337
0.00362238
0.00131239
0.00116583
0.00263187
0.00957561
0.0099214
0.00593112
0.0015952
0.00611339
0.0106636
0.00333105
0.00378304
0.00193222
0.00231769
0.00349233
0.00274227
0.00403221
0.00229381
0.00187456
0.00628554
0.00247301
0.00119403
0.0059654
0.00144678
0.00186013
0.0130054
0.00183524
0.0102952
0.0109615
0.0124624
0.00830926
0.00192647
0.00196013
0.00123536
0.0120551
0.00126835
0.00626877
0.00626653
0.00488182
0.00386713
0.00950005
0.0033663
0.00325731
0.0065962
0.0102695
0.00129229
0.0101817
0.0102707
0.00311506
0.00235296
0.0116267
0.000984612
0.00407773
0.0014145
0.0117521
0.0102096
0.00639469
0.00163555
0.00552856
0.000917687
0.0110459
0.00322259
0.00139886
0.00136779
0.0111858
0.00397443
0.00284281
0.00493155
0.00402396
0.00457871
0.00119093
0.00504582
0.00658975
0.00119543
0.00574327
0.0012173
0.00679737
0.00247487
0.0013146
0.00167778
0.00391691
0.00158387
0.00299049
0.00951933
0.000629989
0.00820507
0.000713674
0.000463883
0.00442286
0.000490275
0.0110974
0.00162472
0.00151686
0.00255437
0.000684336
0.000466621
0.00276607
0.00882313
0.000710117
0.00798966
0.00943345
0.000721844
0.00046999
0.0053841
0.0103075
0.00929749
0.00496383
0.00276648
0.000479698
0.00994162
0.0044302
0.0071248
0.00105632
0.00337011
0.00961767
0.00404307
0.0018623
0.00922651
0.0108904
0.00409081
0.00227878
0.00812569
0.00931779
0.00301808
0.00169639
0.00995374
0.00378422
0.01071
0.00913495
0.000446856
0.00871529
0.00263501
0.00970529
0.00135002
0.00820815
0.00709161
0.00111071
0.00671998
0.00120845
0.00883788
0.0118187
0.0052326
0.010954
0.000843013
0.0027292
0.00339136
0.000751034
0.000505463
0.00583956
0.00288214
0.00384762
0.00490028
0.00368345
0.00107655
0.00339176
0.0063842
0.00555088
0.00405725
0.00128832
0.00389423
0.00503359
0.00244874
0.00695029
0.00454319
0.0106736
0.00324582
0.0041969
0.00376735
0.00614094
0.00557601
0.00549453
0.00439379
0.00143945
0.00251331
0.00851444
0.00559048
0.00399356
0.000576139
0.0112237
0.00256585
0.0116993
0.00604195
0.00447181
0.00178129
0.0113702
0.00123289
0.00635531
0.0131369
0.00937577
0.00330017
0.0105317
0.0113583
0.00562968
0.00365146
0.00432655
0.00143165
0.00828268
0.00312104
0.00158704
0.0107229
0.00643491
0.0073553
0.0095667
0.00159232
0.00170939
0.0010345
0.000399753
0.00117263
0.00854835
0.00429244
0.00114712
0.00521138
0.00410609
0.00317135
0.00724318
0.00176242
0.00542756
0.00428909
0.00508475
0.00709775
0.00312694
0.00938105
0.00263152
0.0042768
0.00186575
0.00304847
0.0050663
0.00123632
0.00149014
0.00394009
0.00386236
0.00524487
0.00553209
0.010728
0.00106251
0.00338604
0.00329167
0.000528393
0.00491155
0.0058397
0.00667012
0.00955993
0.0102054
0.00143219
0.0101929
0.00195689
0.000763506
0.00895251
0.00284666
0.00461444
0.00827143
0.00282533
0.00369907
0.0147089
0.00895427
0.00534393
0.00312738
0.00269113
0.00371326
0.00392348
0.00962283
0.0107263
0.000917698
0.0093995
0.00438629
0.00120226
0.00351638
0.0019705
0.00477443
0.0151875
0.00891629
0.00240128
0.0082613
0.00463831
0.0119409
0.00961242
0.01023
0.00107506
0.00102699
0.00106044
0.000885135
0.000910388
0.001004
0.000827135
0.00129914
0.00129841
0.00132385
0.00130424
0.00123404
0.00117128
0.00120752
0.0012394
0.00131381
0.000924723
0.00104426
0.00126607
0.00117757
0.00130343
0.00111567
0.00112019
0.00112807
0.00116254
0.00101951
0.00306108
0.000730891
0.000513735
0.0095436
0.00222413
0.0021106
0.0058479
0.0015333
0.00533432
0.00875052
0.00391476
0.0100356
0.00369117
0.000731301
0.0012537
0.00581985
0.00770564
0.00936193
0.00600155
0.00330422
0.0044604
0.00261805
0.0107718
0.00768253
0.0011712
0.00246742
0.00227499
0.000929095
0.000483186
0.000866227
0.00239232
0.00440351
0.00901956
0.00781686
0.00103201
0.00270591
0.00356964
0.0017812
0.00408221
0.00151548
0.00840752
0.00291457
0.002028
0.0048933
0.00112136
0.00211555
0.00143502
0.00739009
0.00382454
0.00402526
0.00819409
0.00281963
0.00882755
0.00387526
0.00568509
0.00759221
0.00366761
0.0105121
0.00161872
0.00105982
0.000769023
0.00383492
0.00611328
0.00101486
0.0039041
0.0104369
0.00950957
0.00113956
0.00601218
0.00829207
0.00584603
0.00447615
0.00194164
0.00675502
0.00468416
0.00187776
0.00471265
0.00111567
0.0043574
0.00533425
0.0111215
0.00124435
0.00111724
0.0096342
0.00358703
0.00754694
0.00331002
0.00256001
0.00158206
0.00634308
0.00326836
0.00677456
0.0097599
0.00403919
0.00893402
0.000989489
0.00211618
0.00984965
0.00546044
0.0108611
0.00118664
0.00104897
0.00320166
0.00231645
0.00152592
0.00549288
0.000740086
0.00141605
0.00732473
0.00126386
0.000379374
0.00229194
0.00089862
0.00772009
0.00604704
0.00201858
0.0084723
0.000910525
0.00150754
0.0103345
0.00332516
0.0068291
0.00120505
0.00104704
0.00430221
0.00329675
0.00141245
0.00287301
0.00627799
0.006464
0.00281382
0.00245166
0.0072553
0.00491374
0.00447852
0.0076117
0.000810094
0.00614549
0.000837844
0.00259534
0.00218884
0.000752284
0.00159584
0.00266088
0.000598177
0.00219826
0.00980727
0.00275785
0.00376677
0.00353431
0.00425345
0.000940459
0.00329771
0.00524718
0.0076194
0.00545859
0.00144881
0.00181614
0.000932515
0.000722782
0.00076027
0.00289561
0.00730631
0.00102022
0.00213897
0.00281647
0.000247074
0.00651766
0.00991207
0.000550746
0.00227092
0.000578182
0.00135846
0.000955715
0.000561477
0.000584259
0.00366469
0.00577654
0.000727473
0.00110247
0.000460797
0.00050429
0.000484739
0.000461331
0.00100235
0.0010237
0.000538311
0.000598217
0.000616461
0.000599519
0.000920209
0.0113466
0.00730604
0.00506219
0.00614972
0.00525235
0.00962373
0.00471804
0.00117175
0.00101348
0.00941886
0.00333217
0.00207597
0.00144496
0.00602125
0.00362879
0.00962412
0.00920171
0.000483577
0.00716478
0.00249449
0.00406415
0.000652608
0.00297448
0.00280247
0.00641682
0.0018739
0.00537324
0.00673625
0.00338622
0.000860141
0.00102634
0.00089087
0.00177056
0.00548288
0.00318837
0.00427696
0.00275772
0.00312519
0.00472365
0.00126389
0.01354
0.0084129
0.00403576
0.0055933
0.00724408
0.00977661
0.0101561
0.00161903
0.00158838
0.00519999
0.00424056
0.00414167
0.00407848
0.00813978
0.00440688
0.00302768
0.0109704
0.00105089
0.00105738
0.00817579
0.00295979
0.00117698
0.00235856
0.00329156
0.00408774
0.00897336
0.00123189
0.00352955
0.00104684
0.000895001
0.00533978
0.0119118
0.00260345
0.0102531
0.00697133
0.00180857
0.0030926
0.00838113
0.0143698
0.00272664
0.00266123
0.0101972
0.00330459
0.0094285
0.00839093
0.0108574
0.0120056
0.00163587
0.00446877
0.00426025
0.00389177
0.00246962
0.00861965
0.00582841
0.00917415
0.00451083
0.00607594
0.00190986
0.0106553
0.00686402
0.00275851
0.00324489
0.00315616
0.00130483
0.00293426
0.00482755
0.00368365
0.00308685
0.00374815
0.00273651
0.00267272
0.00628098
0.00940778
0.000954571
0.00200174
0.00394726
0.00250235
0.00333209
0.00453389
0.00281817
0.00290614
0.000916214
0.00393722
0.000906092
0.00288047
0.00983851
0.0100303
0.00142647
0.00297604
0.000899426
0.00904188
0.00260967
0.00160755
0.006568
0.00315846
0.0099534
0.00934177
0.00408827
0.00364148
0.00153593
0.00418634
0.00539351
0.00783935
0.00175831
0.00144591
0.00652749
0.00131724
0.0106243
0.00291151
0.00223942
0.00302366
0.00634798
0.00568437
0.000989496
0.00846366
0.00199829
0.000871681
0.00925968
0.00580703
0.00334848
0.00287875
0.00200381
0.0108544
0.00241101
0.00597594
0.00319714
0.00327324
0.00512915
0.00497835
0.00699738
0.0111154
0.0109739
0.00245041
0.00209248
0.00176398
0.00406067
0.000777958
0.0031082
0.00343746
0.000494458
0.0101212
0.00503065
0.00344827
0.00957575
0.00207053
0.00635691
0.00359882
0.000933288
0.0033196
0.00454911
0.00206203
0.0017442
0.00161955
0.0121743
0.0070519
0.0100815
0.00959326
0.00496966
0.00193335
0.00333546
0.00210002
0.000859273
0.00146891
0.00567093
0.00098694
0.0043457
0.00491996
0.00687441
0.006092
0.00373248
0.00858069
0.000909432
0.00375988
0.00650756
0.00563433
0.00169094
0.00517998
0.00893503
0.00246805
0.00177006
0.00230388
0.00614212
0.00970646
0.00102226
0.000400063
0.00399634
0.00319714
0.00310953
0.00947141
0.00680963
0.000669685
0.00324724
0.000505009
0.00089266
0.00130182
0.00153959
0.00322384
0.00926008
0.000403173
0.00969504
0.012865
0.00776087
0.00146538
0.00122038
0.00769871
0.000974667
0.00385467
0.0024218
0.00388431
0.00788333
0.00133006
0.00359924
0.00331131
0.00319771
0.00215425
0.00301176
0.00114275
0.00550133
0.00308841
0.0064139
0.000964114
0.00369912
0.00310549
0.00374515
0.00314418
0.00331246
0.00838279
0.00274384
0.00327441
0.00264331
0.00325109
0.00833144
0.00287049
0.00151078
0.000243404
0.000383444
0.00285721
0.00494292
0.00296716
0.00589982
0.00468135
0.00112192
0.00208091
0.0104275
0.00617506
0.00459616
0.00354964
0.00295541
0.00569014
0.0113036
0.001564
0.00272996
0.00467912
0.00246968
0.00613442
0.00268142
0.00284641
0.00555762
0.00331614
0.00503569
0.00475224
0.0031657
0.00521004
0.00609644
0.00446353
0.00305813
0.00159532
0.00515937
0.003418
0.00553322
0.00427547
0.00350845
0.0030972
0.00674456
0.00400464
0.00620727
0.00320313
0.00833673
0.0108995
0.00218172
0.00104637
0.00688841
0.00272188
0.00173103
0.00148413
0.00312933
0.00326695
0.0041268
0.00490292
0.00309609
0.00326189
0.000742022
0.00384611
0.00404451
0.00327777
0.00509214
0.00172667
0.00218195
0.000920986
0.0017055
0.000885982
0.000728189
0.00165768
0.00232127
0.00079967
0.000794819
0.00121992
0.000781883
0.00149805
0.0018212
0.00109722
0.000751261
0.00169869
0.00239993
0.00153358
0.00134169
0.000978934
0.00177583
0.000729311
0.000839856
0.000966547
0.000747645
0.000686281
0.000740351
0.00216774
0.000572907
0.00053654
0.00183632
0.000730068
0.00132451
0.00117712
0.00231943
)
;

boundaryField
{
    frontAndBack
    {
        type            empty;
    }
    wallOuter
    {
        type            nutkWallFunction;
        Cmu             0.09;
        kappa           0.41;
        E               9.8;
        value           nonuniform List<scalar> 
108
(
0.000119882
0.000132992
0.000111241
5.75129e-05
5.19795e-05
7.60902e-05
8.59246e-05
5.61252e-05
5.93629e-05
8.24884e-05
5.64501e-05
8.55203e-05
8.68654e-05
5.68828e-05
5.80391e-05
5.40854e-05
0.000130729
9.02935e-05
6.12122e-05
6.97016e-05
4.82497e-05
0.000134759
6.39797e-05
9.17418e-05
0.000126675
0.000121344
0.000125037
0.000105448
0.000108271
0.000118847
9.88253e-05
0.000151484
0.000151406
0.000154173
0.00015204
0.000144378
0.000137489
0.000141474
0.000144967
0.000153081
0.000110018
0.000123427
0.00014788
0.000138182
0.000151949
0.000131353
0.000131852
0.000132717
0.000136512
0.000120468
6.22307e-05
8.79993e-05
0.000137463
5.8462e-05
0.000131981
0.000125128
9.23844e-05
0.000131505
0.000123974
4.57109e-05
0.00010841
0.000141199
0.000123506
0.000100275
9.04549e-05
7.22954e-05
0.000111927
8.70019e-05
9.13647e-05
0.000120744
2.8726e-05
2.8726e-05
6.66393e-05
6.99141e-05
6.79196e-05
7.06335e-05
0.000129845
5.57533e-05
6.1042e-05
5.86714e-05
5.58194e-05
0.000118886
0.000121275
6.51268e-05
7.2278e-05
7.44427e-05
7.2442e-05
0.000109608
0.000137541
0.000119778
5.8509e-05
7.87312e-05
0.00010251
0.000121428
0.000124303
0.000125024
0.000123714
0.000106466
0.000108013
5.98327e-05
0.000102595
0.000117146
4.82791e-05
6.11511e-05
4.86654e-05
2.82331e-05
4.61796e-05
0.000132052
)
;
    }
    inlet
    {
        type            calculated;
        value           nonuniform 0();
    }
    outlet
    {
        type            calculated;
        value           nonuniform 0();
    }
    wallInner
    {
        type            nutkWallFunction;
        Cmu             0.09;
        kappa           0.41;
        E               9.8;
        value           nonuniform List<scalar> 
126
(
0.000183957
0.000242118
0.000102377
0.000100758
0.000224426
0.00021949
9.0877e-05
8.46574e-05
0.000115924
0.000213934
8.51349e-05
0.000176965
8.97137e-05
0.000130407
0.00019182
0.000194954
0.000109971
9.79551e-05
0.000119772
8.5586e-05
0.000236922
0.000104818
0.000228397
0.000147485
0.000125369
0.000213754
0.000204252
9.84959e-05
0.000101809
0.000172206
0.000107903
7.79424e-05
0.000195173
0.000254314
0.000218273
0.000170773
9.24168e-05
0.000216817
8.92972e-05
0.000203322
0.00018027
0.000101187
8.88339e-05
0.000201089
0.000222444
9.20041e-05
9.4495e-05
0.000128889
0.000111976
0.000170485
0.000122551
7.69191e-05
0.000157692
0.000221969
0.000146243
6.46626e-05
0.00011192
0.000192716
0.000166345
0.000126978
7.22681e-05
9.80031e-05
0.000121841
0.000183806
0.000112576
0.000174785
0.000175156
7.76472e-05
0.000142222
0.00016955
0.000169325
0.000173736
8.45304e-05
0.000173366
0.000194994
0.000197041
7.10924e-05
9.71047e-05
0.00011477
0.000119157
0.000117998
0.000116389
0.000190729
0.000196942
0.000195183
0.000208421
0.000187246
0.000193734
0.000141192
0.000222622
0.000173815
0.000154973
0.000134365
0.000197431
0.000109641
0.000194926
0.000105752
8.92637e-05
0.000190195
9.65289e-05
9.88475e-05
0.000142633
9.37654e-05
0.000173549
0.000206622
0.000129226
9.03284e-05
0.000194338
0.000267386
0.000177022
0.000156054
0.000116131
0.000202805
8.77229e-05
0.000100484
0.000114857
9.12217e-05
8.20639e-05
9.0344e-05
0.000242236
6.96314e-05
6.53078e-05
0.000208961
8.77032e-05
0.000154428
0.000138158
)
;
    }
    procBoundary1to0
    {
        type            processor;
        value           nonuniform List<scalar> 
29
(
0.00191843
0.00191843
0.00106198
0.00280019
0.00608433
0.00251856
0.00282703
0.000910958
0.00230188
0.00251364
0.00135943
0.00251856
0.00106198
0.000972
0.00209151
0.00111253
0.00608433
0.00517387
0.00280019
0.00215367
0.000830578
0.000739752
0.00296717
0.000708597
0.000708597
0.00296717
0.000722336
0.000911595
0.000722336
)
;
    }
    procBoundary1to2
    {
        type            processor;
        value           uniform 0.00247299;
    }
    procBoundary1to3
    {
        type            processor;
        value           nonuniform List<scalar> 
48
(
0.0117066
0.00554831
0.00752186
0.00752186
0.00365497
0.00398902
0.00398902
0.0116508
0.0148143
0.00132025
0.00141205
0.00132025
0.00119807
0.00188923
0.0023133
0.00119807
0.00120362
0.00120362
0.00147473
0.00147473
0.00125276
0.00200878
0.00176679
0.0013456
0.0013456
0.00149708
0.00441974
0.00441974
0.0083886
0.00278176
0.00162472
0.0083886
0.0116508
0.0152316
0.00169859
0.00278176
0.0142532
0.00141205
0.0135643
0.00286923
0.0012119
0.0150466
0.0152316
0.00169859
0.00248284
0.00097581
0.00347071
0.0012119
)
;
    }
}


// ************************************************************************* //
