/*--------------------------------*- C++ -*----------------------------------*\
| =========                 |                                                 |
| \\      /  F ield         | OpenFOAM: The Open Source CFD Toolbox           |
|  \\    /   O peration     | Version:  v1912                                 |
|   \\  /    A nd           | Website:  www.openfoam.com                      |
|    \\/     M anipulation  |                                                 |
\*---------------------------------------------------------------------------*/
FoamFile
{
    version     2.0;
    format      ascii;
    class       volVectorField;
    location    "0.09";
    object      U;
}
// * * * * * * * * * * * * * * * * * * * * * * * * * * * * * * * * * * * * * //

dimensions      [0 1 -1 0 0 0 0];


internalField   nonuniform List<vector> 
1431
(
(0.476479 1.30066 1.52929e-16)
(3.11149 0.855708 3.32059e-17)
(0.300964 0.0162483 0)
(1.36028 -0.19664 1.94215e-16)
(-0.611303 -0.362693 0)
(1.29675 4.16332 2.47283e-16)
(2.66305 -0.3111 3.90578e-16)
(0.828347 0.493793 5.16469e-17)
(0.602669 3.53493 1.9548e-16)
(2.15174 -0.154324 3.88767e-16)
(2.70528 10.0263 2.06582e-17)
(6.87872 -0.104232 0)
(0.571438 2.09142 -1.97303e-16)
(-1.56287 -0.286193 -5.33864e-16)
(1.42652 -0.465688 0)
(2.29497 -0.260925 -3.58607e-16)
(3.04594 -0.334729 -2.72408e-16)
(0.0587521 -0.026625 0)
(3.32449 0.352445 -2.23922e-16)
(-0.0893071 -0.136028 2.11595e-16)
(4.08091 9.43566 -7.27894e-19)
(0.0595142 -0.987671 2.25784e-16)
(0.685066 2.93015 -2.08693e-16)
(12.4922 2.03966 -3.48703e-18)
(0.607693 3.43057 1.92269e-16)
(0.517211 0.414821 -1.55691e-21)
(1.51214 9.78868 -2.1299e-17)
(0.877238 -0.495474 -4.28451e-16)
(-0.102505 2.49898 -6.19085e-17)
(0.286154 5.1575 3.3283e-17)
(0.0402379 4.5105 -1.09853e-16)
(0.0623734 3.22441 5.2718e-17)
(0.0128303 4.50657 0)
(-1.64902 0.333316 -3.8241e-16)
(1.49322 3.77461 -3.59316e-16)
(2.11604 0.270352 0)
(0.170834 3.022 0)
(0.452001 -0.0414508 -2.40331e-19)
(1.07448 -0.0725778 0)
(0.143344 3.433 0)
(0.245009 3.16795 -1.68202e-20)
(0.163072 3.14355 1.96185e-16)
(0.40901 1.37869 -2.73502e-16)
(1.49073 -0.340789 1.96134e-16)
(1.6313 4.67296 0)
(0.0667797 -0.122958 3.89958e-16)
(1.74224 2.18397 1.91999e-17)
(1.10728 9.36767 -6.59979e-17)
(2.5286 -0.373786 0)
(0.614265 -0.224222 0)
(1.47919 1.30819 0)
(1.54473 -0.193519 0)
(1.29931 1.28925 4.26397e-16)
(1.27848 -0.0128546 1.74592e-17)
(3.17164 0.531409 -2.13174e-18)
(1.2456 0.319831 4.96313e-16)
(-0.996002 0.170512 2.07414e-16)
(4.29571 -0.326036 0)
(4.48805 -0.0143871 0)
(0.343984 -0.0435326 4.7144e-16)
(0.880447 -0.293727 -1.48818e-16)
(-0.0974416 -0.402601 4.07827e-16)
(-0.0328824 -0.046453 0)
(0.374676 -0.0502148 0)
(0.6035 -0.0570176 9.44131e-19)
(2.00467 -0.047047 -2.03006e-16)
(0.804159 -0.131909 -2.78598e-16)
(1.22754 -0.114149 -8.78003e-17)
(0.133556 -0.015707 -6.39099e-18)
(-0.00975535 -0.105906 0)
(-1.26218 -0.817148 5.67485e-17)
(-1.89076 -0.0643618 -1.37147e-16)
(0.785497 0.0413151 1.28203e-16)
(-1.32323 0.404975 3.28152e-16)
(-1.36371 -0.050769 3.94116e-16)
(-0.0593619 -0.111805 -6.05274e-16)
(0.37187 -0.0477891 -2.55427e-17)
(0.778186 -0.0358854 -1.85266e-16)
(1.71015 -0.12297 -2.69804e-16)
(0.0934054 -0.00304221 0)
(3.00754 -0.360334 -6.3216e-17)
(0.406261 0.0180882 1.26122e-17)
(5.47055 0.613553 -6.96527e-18)
(2.91388 2.55222 8.42711e-17)
(11.9348 0.706455 1.92273e-18)
(2.1801 -0.220155 -9.95383e-17)
(3.01837 0.022461 0)
(1.99604 0.147029 1.78841e-16)
(9.55721 0.22969 6.22e-18)
(7.45631 0.644637 2.34111e-18)
(-0.541144 0.671559 -2.91257e-16)
(-0.593969 0.523289 3.09141e-16)
(0.529721 0.0177853 3.22692e-16)
(2.0924 -0.200516 -1.24509e-16)
(3.37571 0.402322 9.2635e-18)
(0.0236708 3.80355 0)
(2.49685 -0.0644288 -7.04221e-17)
(4.87881 1.35191 -1.44794e-17)
(1.17599 -0.405474 0)
(0.588198 0.0371361 -6.77821e-19)
(0.885882 0.187478 1.99656e-16)
(0.524756 -0.401026 -7.04653e-16)
(4.39333 -0.685838 0)
(0.183813 -0.0986729 -3.51313e-16)
(0.78799 -0.0119423 3.71648e-16)
(0.0534764 3.1835 1.73483e-17)
(0.0702944 2.91019 0)
(1.64855 7.07882 6.68693e-18)
(0.779087 2.23213 3.65004e-16)
(4.63491 -0.320869 0)
(0.246372 -0.0654955 -7.49821e-16)
(0.67725 2.75403 -3.63489e-16)
(0.164349 0.0258422 5.81379e-16)
(0.31229 2.80146 -1.51113e-16)
(3.31903 0.672785 -1.01526e-18)
(-0.357682 -0.0632396 8.04116e-17)
(-2.07723 -0.133226 0)
(0.937962 -0.150383 -2.2611e-16)
(1.46605 -0.0490891 0)
(0.275927 -0.0141604 0)
(0.238879 -0.152401 -2.72216e-17)
(1.68444 -0.202091 8.09231e-17)
(-0.737989 0.268161 2.27022e-16)
(-0.592984 -0.217622 1.70304e-16)
(-1.76119 -0.386688 0)
(1.46565 -0.0370763 1.65134e-16)
(0.329014 0.0340076 0)
(1.34602 -0.651406 5.32387e-16)
(0.328849 -0.0820233 -3.49943e-16)
(3.182 0.117322 3.70388e-16)
(2.47558 -0.0857351 3.65066e-16)
(-0.00642368 -0.0177635 -1.16687e-16)
(3.06621 0.12647 -8.68971e-17)
(3.02479 0.59522 8.88738e-17)
(-0.294278 -0.124224 0)
(-0.0210864 -0.630331 -3.64552e-16)
(0.755098 -0.036987 1.69808e-16)
(0.825303 -0.646053 0)
(10.8859 -0.0718167 2.94581e-17)
(0.395955 0.0454035 2.12526e-16)
(0.909424 0.0592007 0)
(0.291687 4.76697 0)
(3.70466 -0.436967 7.47232e-17)
(0.151066 -0.0457737 0)
(0.719555 2.22787 2.41503e-16)
(0.0413144 4.57582 -8.59322e-17)
(-0.681348 -0.284781 -2.02332e-16)
(1.0249 0.575184 -4.58587e-16)
(2.27514 -0.176611 2.70206e-16)
(0.493586 -0.087496 1.81424e-16)
(-0.191551 -0.408315 2.64806e-16)
(0.0949551 -0.00836633 8.84297e-17)
(0.117498 3.31811 -2.22704e-20)
(1.62262 -0.105784 -1.96502e-16)
(0.0415599 3.1797 -5.16694e-17)
(0.633532 0.0133883 -4.14642e-16)
(11.112 0.381623 -1.97553e-18)
(3.20765 1.73541 7.68679e-17)
(6.427 0.690812 -5.77486e-18)
(2.99671 -0.0677193 2.27756e-17)
(8.41412 1.85726 -3.36725e-18)
(0.633562 2.74988 2.18649e-16)
(3.57599 -0.101389 -1.2839e-16)
(3.27414 -0.0667641 9.4896e-18)
(-0.55562 -0.204031 -4.78364e-17)
(0.365282 1.81727 -2.06702e-16)
(0.19517 2.29366 7.07217e-16)
(3.5139 0.490333 8.91365e-18)
(0.541251 -0.110363 2.56549e-16)
(4.09522 1.12082 3.1305e-17)
(8.33136 1.04203 -7.29581e-18)
(0.930462 1.43871 0)
(0.186614 3.85227 -4.22681e-17)
(10.7717 0.112611 3.2447e-18)
(3.27164 1.05462 -1.34623e-17)
(11.1564 0.183215 0)
(3.10806 0.0583171 0)
(1.4539 4.45595 -1.31652e-16)
(1.31295 1.3387 -3.68445e-16)
(1.65598 3.66911 -3.94373e-17)
(1.67297 -0.0720999 -4.00325e-16)
(1.40709 -0.0829494 0)
(0.268253 0.457631 1.12355e-17)
(11.1047 2.61409 -2.65101e-18)
(1.66789 4.23669 9.64855e-17)
(0.0774129 1.92905 0)
(0.88823 2.54045 -1.05612e-17)
(3.51462 1.40965 -5.14271e-18)
(0.322889 3.61997 6.95313e-17)
(10.6985 -0.143746 2.01608e-17)
(0.0910406 4.15387 -7.16225e-17)
(0.294205 3.30099 -4.33237e-17)
(0.194349 3.31562 -7.07538e-17)
(1.23022 5.95955 0)
(1.20237 -0.0512645 0)
(3.75589 2.68329 -7.05509e-17)
(4.86601 1.86872 0)
(1.66616 4.05928 -2.34285e-16)
(0.142363 0.0146917 4.63849e-16)
(0.991491 -0.208559 0)
(2.40302 0.689241 -1.15063e-18)
(3.51804 -0.0848927 -7.37444e-17)
(1.60233 7.62536 -3.93464e-17)
(3.01425 0.0477506 7.8757e-17)
(0.633031 2.23211 -7.14664e-17)
(0.0268348 4.00509 4.71451e-18)
(0.115129 2.49007 1.27655e-16)
(0.145688 0.0184555 3.31983e-16)
(10.4922 0.517658 -1.09273e-18)
(0.906239 0.541832 -2.00865e-16)
(-0.427139 0.368401 3.0566e-16)
(3.39633 -0.133043 0)
(0.0537915 2.91584 4.16586e-17)
(0.280938 3.15368 4.42623e-17)
(11.3959 1.01071 0)
(0.555513 0.201622 6.06131e-16)
(0.162346 3.29306 2.15582e-16)
(1.72435 4.26585 -5.49061e-17)
(1.5115 1.61789 -6.6064e-17)
(1.27773 7.2398 2.70688e-16)
(-0.0453916 3.40207 3.68248e-16)
(0.990897 0.0471479 0)
(3.49658 0.949933 2.20513e-16)
(3.37678 -0.0902738 0)
(0.0303015 3.03274 -2.10306e-16)
(10.4439 1.18079 1.97811e-18)
(2.89546 6.47805 -3.06584e-17)
(4.46272 1.20232 3.26702e-17)
(0.0237412 3.25825 2.62446e-16)
(0.85732 7.82359 4.51372e-17)
(2.54995 0.0225166 2.98663e-17)
(0.0157024 4.50211 3.73383e-21)
(0.0101235 3.10252 -4.76995e-18)
(0.208562 3.49721 9.84914e-17)
(0.0468115 3.2401 -5.05105e-17)
(7.16015 1.21226 8.64293e-18)
(0.080385 2.93198 0)
(0.563716 2.92215 -5.60476e-17)
(0.191588 4.39619 0)
(2.36823 0.361839 3.2472e-17)
(2.90952 0.0586436 6.55135e-17)
(1.73096 2.12305 1.76856e-17)
(10.4231 0.806483 -7.14246e-19)
(0.358278 3.55343 0)
(0.388567 3.30939 3.27985e-17)
(0.727177 0.275718 6.91187e-16)
(0.448759 3.08816 3.60503e-16)
(1.40812 8.26975 0)
(-0.0767314 3.2221 -4.60983e-16)
(0.608471 -0.0499993 1.94315e-16)
(0.863307 -0.486185 0)
(10.1976 0.497181 -3.81349e-19)
(3.03124 -0.0947991 2.19278e-18)
(3.25755 -0.0313016 -1.37844e-17)
(0.0680099 4.03781 5.46214e-17)
(0.208857 3.03682 -8.14721e-17)
(3.06987 -0.11908 8.48362e-21)
(10.5544 1.64368 -4.72266e-18)
(6.11058 1.89269 3.53608e-17)
(0.203773 3.20439 -6.69762e-17)
(0.0892784 0.695088 1.74707e-16)
(10.8063 -0.05509 -1.8293e-17)
(0.921269 1.28365 0)
(3.14164 0.0157597 7.23367e-17)
(0.0538755 2.59502 4.34775e-17)
(1.71506 6.18286 -6.3674e-17)
(0.681058 3.4122 -2.01685e-16)
(0.956019 4.88301 0)
(1.00478 8.87248 6.25169e-17)
(-0.869668 -0.107899 0)
(1.12268 1.7605 -6.58767e-17)
(0.121979 3.11591 9.33265e-17)
(2.96846 0.662662 -1.54461e-17)
(2.48318 0.184494 6.01517e-17)
(9.1332 1.64639 0)
(0.13508 4.06468 -2.86859e-20)
(9.84067 1.3537 -6.02816e-17)
(1.39261 4.91009 2.57637e-17)
(0.0986454 1.55107 1.96882e-20)
(0.0828542 1.88191 -1.02083e-16)
(1.16838 2.45433 0)
(0.227754 2.97985 2.95153e-16)
(0.0815126 4.61926 1.12256e-16)
(1.69646 0.987904 2.87162e-16)
(3.02738 0.290287 0)
(5.38829 1.04113 0)
(0.241872 3.06277 1.92978e-16)
(5.39744 1.60075 -4.49935e-17)
(11.536 0.434558 0)
(2.84876 0.963439 -3.40596e-17)
(0.0613877 0.0304515 -2.69917e-16)
(0.555001 3.37209 2.15083e-16)
(4.40833 1.5847 -4.00617e-17)
(0.813493 1.95055 -8.32518e-17)
(0.793237 7.30009 -1.51071e-16)
(0.0138969 3.2615 -6.23376e-17)
(2.46144 4.83259 0)
(0.141687 1.91458 0)
(0.442234 0.36516 2.46027e-16)
(0.066507 1.63368 1.13008e-17)
(1.16235 1.17303 -2.89086e-16)
(0.773859 0.00972551 -2.26183e-16)
(2.87454 0.491457 -4.10768e-18)
(0.585224 1.27838 1.06942e-16)
(0.811887 3.03948 -5.61093e-17)
(3.11314 -0.136779 -5.0288e-17)
(2.87293 1.22114 2.32175e-17)
(0.226737 3.03866 -4.24419e-16)
(0.195217 3.06929 -3.71404e-16)
(3.76908 0.996136 -2.13157e-17)
(4.32328 3.80128 2.4445e-16)
(1.56277 0.125586 0)
(-0.67281 -0.288569 -9.36518e-17)
(-0.448752 -0.00247747 0)
(0.626236 3.51827 -3.60506e-16)
(4.64392 2.24713 0)
(1.69898 3.86688 -1.11476e-18)
(3.07687 0.402821 1.71288e-17)
(0.315629 0.0193354 -2.57457e-17)
(5.88729 4.77188 1.3283e-18)
(2.46616 1.427 2.40454e-17)
(4.18539 2.4299 0)
(0.451833 0.0459424 0)
(0.581238 1.24751 0)
(1.72797 3.83358 4.37342e-16)
(0.286872 0.00661549 -2.76917e-16)
(0.39189 0.0354157 0)
(0.371538 3.42743 4.35088e-16)
(1.94874 -0.0182793 3.25393e-17)
(3.30888 -0.0895796 6.41787e-17)
(0.470904 2.08979 2.63966e-16)
(0.243243 -0.0176512 2.09335e-16)
(0.49518 3.47448 -4.27407e-16)
(0.720986 -1.16406 -3.45742e-16)
(2.93884 0.00774557 -1.58422e-17)
(0.557699 1.3174 -4.77125e-17)
(0.204195 3.18631 0)
(6.53306 1.22897 6.28914e-18)
(1.73263 3.88691 -1.96251e-16)
(0.136178 0.0716526 0)
(0.715257 -0.0131889 0)
(0.595808 1.38166 3.66112e-17)
(3.85525 5.2518 9.35198e-17)
(0.330593 2.91659 0)
(0.606502 3.57165 2.03981e-16)
(0.266004 3.70577 0)
(2.7598 0.695079 2.36153e-17)
(9.98779 0.94508 5.55056e-17)
(3.74227 4.17569 -1.75821e-16)
(0.689283 1.86351 0)
(0.930163 4.34801 1.95164e-16)
(0.462138 -0.106612 -4.01338e-16)
(0.443611 0.758511 2.68069e-16)
(2.63449 2.72269 -8.19904e-19)
(0.487452 -0.251013 3.13252e-16)
(1.72336 1.41832 -1.87625e-16)
(9.10222 3.29352 1.60493e-18)
(-0.769734 0.677982 -7.52967e-17)
(10.6888 0.154671 -2.05201e-19)
(0.259667 3.13538 -1.90796e-19)
(0.930318 -0.914875 -4.19703e-16)
(0.0520343 1.81921 -4.26891e-17)
(0.152307 1.8824 -8.70576e-17)
(2.83661 0.337619 3.8352e-18)
(0.261683 0.0367114 -4.80412e-17)
(7.65264 6.21022 1.46605e-17)
(0.541988 3.56405 1.99232e-16)
(11.8849 3.58326 -3.84567e-19)
(-0.127081 3.38601 4.98953e-17)
(0.633816 5.3567 1.24586e-17)
(1.27492 8.6258 -7.93579e-17)
(-0.214071 -0.622705 -2.15759e-16)
(9.03773 0.365802 9.24633e-17)
(1.42574 1.65863 0)
(0.309694 2.93684 1.11464e-16)
(8.19409 1.0822 -1.12297e-18)
(2.89146 2.25082 -2.35855e-17)
(1.74371 0.0421653 -7.469e-17)
(-0.035452 1.2935 0)
(8.07545 1.63827 -2.356e-18)
(0.571348 2.93921 4.46705e-16)
(1.70722 4.03541 1.00845e-16)
(0.34903 0.401974 0)
(0.657168 -0.227264 1.65922e-16)
(9.80325 4.71514 -1.22292e-17)
(0.672534 3.68226 5.17539e-17)
(1.49284 2.51495 -6.94162e-16)
(0.541355 3.65133 3.14173e-18)
(1.47528 4.05196 0)
(1.54229 1.93961 -3.30061e-17)
(2.87481 0.127525 1.2717e-16)
(1.52552 2.78708 -2.01589e-16)
(1.50443 2.83989 2.01934e-16)
(3.16469 -0.139883 1.6395e-16)
(6.90848 1.99386 -4.41312e-18)
(0.625019 0.841313 -6.28605e-20)
(0.693675 3.3058 3.26926e-19)
(0.643225 3.28267 -1.46228e-16)
(0.399025 3.5765 -4.10792e-16)
(1.0603 3.95659 -5.15744e-17)
(2.91156 3.55686 -9.56279e-17)
(0.245749 2.96054 3.30148e-17)
(5.43651 2.34664 1.23301e-16)
(0.189606 3.04187 -3.54806e-17)
(1.4443 0.319872 -8.86475e-17)
(0.753385 3.3722 -1.17706e-20)
(1.02007 4.19007 8.67128e-17)
(-0.390635 0.166987 1.00988e-16)
(3.02484 0.202313 3.4024e-17)
(0.784763 3.37448 1.70298e-17)
(3.3734 3.20741 0)
(1.72389 3.84115 0)
(0.824104 3.3602 8.25234e-18)
(0.368062 2.24021 1.90478e-16)
(0.569092 3.74953 -1.86878e-17)
(0.491271 -0.00668368 2.38046e-16)
(1.99671 3.151 1.36738e-21)
(-0.303147 -0.666991 0)
(1.59663 4.01221 -1.84534e-16)
(0.873442 3.31861 0)
(-0.0228075 2.46706 -1.02488e-16)
(0.535457 2.30804 -5.09216e-16)
(1.85164 1.29822 -1.12614e-16)
(2.31494 3.01884 4.20592e-17)
(0.940638 3.24447 1.79603e-17)
(0.201936 -0.654419 4.30545e-16)
(-0.0942962 -0.193541 -6.66019e-20)
(2.58075 0.368417 1.05995e-16)
(0.22579 -0.0548925 -3.2762e-16)
(12.1053 1.70909 2.09348e-18)
(0.162042 2.9819 1.99896e-16)
(0.170646 3.0028 2.93471e-16)
(0.180571 2.98653 -2.70002e-20)
(0.168079 3.00756 0)
(0.196526 2.97394 -1.88457e-16)
(0.228166 2.95809 -1.36498e-16)
(0.198583 2.95749 -1.36822e-16)
(0.28092 2.97476 -2.92532e-16)
(0.271107 2.9393 4.10125e-16)
(0.327612 2.98147 1.13285e-16)
(0.306365 -0.373534 0)
(10.9061 0.522004 1.59206e-18)
(0.334514 -0.221425 -1.15501e-16)
(0.350182 -0.0955097 3.20922e-16)
(0.447385 -0.0239258 -4.69309e-16)
(0.366856 0.00730641 3.66857e-20)
(0.350086 0.117287 0)
(0.314698 0.0915385 -1.08456e-16)
(3.9509 1.42681 3.89496e-17)
(2.14079 0.379066 5.44816e-17)
(2.42147 0.994414 4.83719e-17)
(0.578523 -0.475914 -2.64472e-16)
(2.344 -0.57469 -1.40848e-16)
(0.0682909 -0.527753 0)
(2.26956 -0.54773 -7.71423e-17)
(2.3098 -0.500488 2.40075e-16)
(2.03201 -0.677768 7.36175e-17)
(8.86025 0.0922272 -2.14199e-18)
(0.288394 -0.586462 0)
(0.409583 -0.306353 3.51119e-16)
(1.80166 -0.233126 -1.12555e-16)
(0.842934 -0.369111 2.2476e-16)
(8.94422 -0.101871 -2.78573e-17)
(1.93325 -0.602959 -2.33554e-16)
(0.424837 -0.496294 -2.02509e-16)
(0.939474 -0.583163 2.69087e-16)
(0.0820002 -0.268187 4.09796e-16)
(8.90587 -0.2205 1.81107e-19)
(0.81918 -0.647903 -2.50345e-16)
(9.00353 -0.247971 -2.29473e-17)
(1.7921 -0.372215 -6.13037e-16)
(1.69536 -0.291935 0)
(0.098358 -0.153293 8.73361e-21)
(2.41057 -1.35319 0)
(10.9442 0.0945287 3.16783e-17)
(11.0446 0.343171 1.01309e-16)
(0.511264 -0.888728 1.40829e-16)
(0.696103 -0.0815151 -1.31074e-16)
(0.382924 0.0504159 7.19101e-16)
(1.86895 -0.169207 0)
(1.85803 -1.20718 0)
(0.406663 0.124187 0)
(10.6947 0.226454 2.09247e-17)
(2.02569 0.210394 2.15049e-16)
(0.480301 0.098516 1.90465e-17)
(2.26749 -1.09536 2.30128e-16)
(0.076413 -0.119909 0)
(0.451989 0.0318008 0)
(0.298795 -0.105782 2.66125e-17)
(0.705037 0.0791778 1.93834e-16)
(10.0186 0.403274 -6.3143e-17)
(1.87744 0.0152861 2.01513e-16)
(0.282699 -0.0629503 2.0489e-16)
(0.644001 0.152706 3.74931e-16)
(2.49066 -0.336349 -2.89069e-16)
(0.0548289 -0.158659 -2.21131e-16)
(0.291392 -0.0225524 1.90231e-16)
(9.67922 0.756683 1.44709e-17)
(1.6803 0.111667 -2.62582e-16)
(-0.116675 1.18109 -5.2076e-16)
(0.280256 1.46487 1.72611e-16)
(0.53806 0.191263 -4.74584e-16)
(0.0690206 0.422594 1.05762e-15)
(0.34692 0.552328 -2.08045e-16)
(9.78729 1.06358 -3.16649e-17)
(10.7266 0.687725 -8.56448e-17)
(0.227622 -0.170613 -3.59237e-16)
(1.84487 0.263345 2.10577e-16)
(1.54494 0.172954 1.95158e-16)
(0.0990536 0.631659 0)
(0.593732 0.143353 2.75162e-16)
(2.02083 0.232853 2.90893e-16)
(0.0729207 -0.254568 0)
(0.280527 -0.0954231 0)
(0.544313 0.780789 2.23606e-16)
(3.34785 -0.0266668 -1.47836e-16)
(0.126723 1.28554 -9.10038e-17)
(0.619251 0.20769 1.64553e-16)
(1.3565 0.222484 1.86342e-16)
(10.7216 1.02142 -2.74641e-17)
(2.01426 3.25164 0)
(1.606 0.353278 -4.0703e-16)
(0.598321 1.43835 -2.06716e-16)
(3.22383 -0.127036 -6.16633e-17)
(0.529603 0.258527 -1.1909e-16)
(3.09301 -0.177456 -9.03633e-17)
(10.0229 1.56492 5.15708e-17)
(0.142005 3.50815 -5.09066e-19)
(0.497583 -0.484807 0)
(-0.087183 0.265496 2.70519e-17)
(2.52669 0.967479 1.76064e-16)
(1.42502 0.644369 -3.15696e-16)
(0.536471 0.695248 0)
(1.45919 0.83938 0)
(0.461491 3.0975 0)
(0.201841 -0.0530247 5.03012e-16)
(-0.409194 0.0555225 3.15596e-18)
(0.618138 4.09594 2.96465e-17)
(0.596434 0.393815 7.72219e-17)
(0.926945 -0.741095 2.43921e-16)
(0.758283 3.12779 1.76646e-16)
(-0.145054 0.277653 -3.71788e-16)
(0.156977 2.73958 -7.766e-17)
(1.61681 0.536986 4.86245e-16)
(0.304221 2.18003 4.26717e-16)
(-0.101801 -0.163445 7.27167e-17)
(0.920197 1.1134 -9.8929e-18)
(0.950192 6.08585 -4.79578e-17)
(0.741383 3.27065 0)
(0.355593 3.05426 0)
(1.53165 2.70032 3.01673e-16)
(0.0578586 0.200862 4.09337e-16)
(0.192648 3.01447 0)
(1.26761 3.30328 -3.86499e-16)
(0.252208 -0.30561 -4.27507e-16)
(0.796803 0.697173 -7.03923e-16)
(3.03589 -0.159724 1.51585e-17)
(0.374493 1.47136 -1.6922e-16)
(0.626194 5.07901 3.38118e-18)
(2.29439 6.9491 0)
(0.298997 3.01335 5.3938e-17)
(10.5719 1.96456 -5.08624e-18)
(4.87064 3.4514 6.93033e-17)
(0.786805 1.5973 0)
(4.96259 7.50954 0)
(0.753796 1.27428 1.0172e-16)
(1.03203 1.20023 0)
(3.32713 -0.0825343 -9.41735e-18)
(0.202407 2.05186 -1.22625e-16)
(0.203806 3.10143 2.47396e-16)
(0.854868 2.84351 -4.0948e-17)
(4.64499 6.10123 -3.58512e-17)
(0.326577 2.91611 -7.90586e-17)
(1.88131 0.527924 -1.14426e-16)
(-0.0875496 -0.440602 1.11107e-16)
(1.42362 4.40521 4.84622e-17)
(3.23288 -0.157264 1.11295e-16)
(0.103826 3.03386 0)
(0.23519 2.8435 1.52596e-17)
(0.168496 3.01944 5.4896e-20)
(0.792293 2.91629 0)
(2.42674 6.45986 2.7881e-18)
(2.21086 4.2293 1.52516e-16)
(2.04969 3.84789 -1.38711e-16)
(2.4295 3.77045 1.88995e-16)
(0.0633923 3.18166 1.09085e-20)
(0.1711 3.89534 -1.5324e-16)
(1.61386 0.788262 -7.4391e-16)
(0.411893 0.65177 0)
(0.835157 0.636194 1.32434e-16)
(0.193849 2.52077 -3.79024e-17)
(-0.0640545 2.25843 4.38499e-17)
(1.41484 1.06222 -3.88808e-19)
(1.55528 1.766 -1.4771e-16)
(-0.0882389 2.9287 -1.81504e-19)
(0.630938 3.20059 0)
(1.24781 -0.275153 -2.02032e-16)
(1.53714 2.87142 5.50312e-16)
(3.95505 1.55217 0)
(10.6129 0.301364 2.02221e-18)
(1.22227 7.70304 2.94443e-17)
(0.540781 0.699484 9.79702e-18)
(0.983951 3.52548 5.27022e-17)
(1.38096 0.424554 0)
(2.19971 5.21715 1.22321e-16)
(1.86289 3.91611 -2.47643e-16)
(2.3545 11.9098 4.43269e-18)
(3.01741 4.47471 6.64048e-17)
(2.27058 -0.01657 -4.58507e-17)
(0.303263 -0.0480173 -3.11305e-16)
(3.16322 -0.176773 5.8154e-17)
(1.01156 1.14372 -1.32895e-16)
(1.40833 2.67522 3.52072e-16)
(0.296151 2.78432 -2.16495e-17)
(0.364857 3.67414 -7.73116e-17)
(0.260287 3.30763 2.19897e-16)
(11.3696 0.0504835 -8.79743e-18)
(2.9661 -0.0350026 -3.71811e-17)
(-0.0399715 1.70324 -1.39922e-16)
(1.71997 3.65477 -2.69771e-17)
(3.51785 0.823386 -1.4958e-17)
(2.21986 0.942903 -3.2742e-16)
(-0.17265 -0.0061242 -1.08917e-16)
(1.49182 3.28101 1.86067e-16)
(0.781225 1.42822 1.34336e-16)
(1.064 5.06922 -8.18307e-17)
(0.542814 3.17468 -2.32925e-16)
(0.430224 0.0236805 0)
(2.97613 5.43552 -6.46661e-17)
(1.42445 0.00135479 0)
(0.585593 1.47184 1.57702e-16)
(1.25332 0.611904 0)
(0.338926 -0.0742647 4.86953e-16)
(0.384301 2.89356 -2.3731e-16)
(0.938129 2.77608 5.48545e-17)
(1.9722 4.46568 1.01147e-16)
(5.26929 0.57387 -5.92426e-17)
(2.84471 0.218696 1.23838e-16)
(0.291467 2.9101 -2.07171e-16)
(2.16431 0.51739 9.57523e-17)
(0.228252 3.5059 -2.04924e-16)
(5.25441 3.01841 -2.30904e-16)
(2.80826 0.0379164 5.36874e-17)
(1.10536 3.47015 0)
(-0.0870556 2.46829 -3.99257e-17)
(0.678886 1.1962 1.10336e-16)
(1.67312 4.84253 -2.4073e-17)
(1.68258 3.88187 1.49149e-16)
(0.833913 -0.221985 1.57881e-16)
(2.24201 1.92699 2.33473e-17)
(0.101547 1.97639 1.58316e-16)
(0.217799 2.99487 -8.32916e-18)
(0.17067 3.33674 1.41696e-16)
(2.42016 4.56512 -1.18391e-16)
(0.235924 -0.0771069 7.3097e-17)
(1.67011 3.81921 -8.47849e-17)
(0.593672 3.39969 -2.14682e-16)
(1.53874 5.74279 -5.35576e-17)
(0.0540359 0.658364 0)
(9.0687 0.626601 -1.56352e-16)
(7.6765 1.93362 1.16127e-17)
(0.596785 3.25801 1.62357e-16)
(0.571924 1.13293 7.14633e-16)
(0.75558 1.95734 4.15015e-17)
(0.392846 1.49806 0)
(2.61661 1.03455 -1.60611e-16)
(-0.301039 -0.0222068 7.84093e-17)
(0.0891846 0.180992 -3.67648e-16)
(1.2291 0.804 8.36249e-19)
(0.540359 -0.0725613 -1.75647e-17)
(1.05575 3.15867 6.5293e-17)
(3.7061 0.58171 -8.63528e-18)
(8.96967 0.437492 0)
(0.387936 3.00237 0)
(0.0188445 1.88449 -7.49507e-17)
(0.376448 0.113214 2.59818e-16)
(9.56501 0.516387 0)
(1.29546 -1.24527 3.11377e-18)
(1.95225 4.4891 -2.99669e-16)
(2.63733 0.384308 0)
(2.64715 0.540564 0)
(2.21059 1.21622 -1.37418e-16)
(2.1018 2.37142 2.56228e-17)
(8.40751 0.36492 0)
(1.01125 -0.179229 1.92059e-16)
(0.538601 -0.133656 -1.60208e-16)
(0.272084 2.51897 0)
(0.548879 3.03003 0)
(0.167264 -0.286182 2.11581e-16)
(3.24127 0.151229 -5.53721e-18)
(1.33764 1.58208 1.44582e-16)
(0.0541226 0.851657 -3.73489e-16)
(0.16163 2.86491 7.34098e-17)
(3.02059 0.13529 0)
(2.64811 0.0932435 0)
(0.216699 2.96957 -2.11846e-16)
(4.88665 0.235324 -2.17001e-18)
(2.58458 3.56413 -1.84249e-16)
(2.49689 0.0655279 1.38766e-17)
(4.61908 5.11443 -3.83412e-18)
(4.1137 0.199944 0)
(1.82773 3.83051 0)
(0.764221 2.98747 -8.45278e-18)
(2.82033 0.116791 0)
(-0.0696833 2.50634 0)
(10.4227 0.604832 -1.14897e-18)
(0.289015 3.64929 -2.69754e-16)
(4.47406 0.217025 0)
(1.33163 1.03203 -5.04529e-18)
(0.815208 3.66971 3.2715e-17)
(0.368505 3.52893 1.00944e-16)
(1.3736 1.09946 -2.11745e-16)
(0.942044 4.53637 -3.78981e-18)
(-0.101561 3.26961 4.37125e-17)
(0.233967 0.0203708 3.76782e-20)
(0.328704 2.55155 -4.6441e-16)
(0.283489 2.13398 2.74799e-21)
(-0.0269692 1.79328 2.47325e-16)
(2.56769 0.0603374 -2.4618e-16)
(0.279837 3.42728 2.0248e-16)
(0.210037 2.60611 0)
(0.0249691 4.0199 2.31849e-18)
(10.3591 0.437019 -8.20897e-18)
(0.671443 2.4016 0)
(0.874731 0.128046 5.50106e-16)
(3.79876 0.368777 1.59373e-17)
(0.826168 1.60743 0)
(0.422333 1.85353 4.49874e-16)
(2.3714 7.48015 0)
(1.66568 8.21387 2.54078e-17)
(0.672451 -0.127482 0)
(4.58794 0.858734 2.0277e-17)
(0.0585777 2.32122 -3.05941e-16)
(2.75085 0.110394 -9.41065e-17)
(2.00312 1.50044 -2.01908e-17)
(-0.0444907 0.571971 2.96854e-16)
(0.169935 2.98135 -6.78538e-17)
(5.30277 0.258696 7.87862e-18)
(7.98964 0.291901 0)
(2.98853 -0.133904 -1.76425e-17)
(0.0393277 3.60684 0)
(0.516375 3.54193 0)
(2.69608 0.218141 -1.17808e-16)
(2.34141 4.11573 0)
(0.140124 2.93259 0)
(1.21347 3.82991 -3.69037e-17)
(3.45518 -1.06931 0)
(0.155018 -0.181997 2.08052e-16)
(0.441498 3.90919 6.61288e-17)
(1.29216 -0.616779 2.21685e-16)
(0.802099 0.468764 1.71973e-16)
(1.89404 0.242199 1.92008e-17)
(3.28192 0.322272 -5.64039e-17)
(1.6248 -0.520029 -3.69519e-16)
(13.4381 2.58486 0)
(0.587275 4.174 0)
(0.149887 3.13019 -2.27499e-16)
(0.270357 0.192065 -1.20522e-19)
(0.784102 4.05836 1.37597e-17)
(1.12564 0.475361 2.14682e-17)
(10.7699 2.19502 3.23576e-18)
(2.68417 2.0113 4.53598e-17)
(-0.0824978 0.650687 -9.89169e-17)
(1.5361 -0.565904 3.4419e-16)
(0.129843 -0.521276 -3.22732e-16)
(0.0953062 2.91281 0)
(2.07244 -0.323991 4.04532e-16)
(2.39546 -0.395646 -2.03884e-16)
(0.898887 3.52211 -3.38595e-17)
(2.15153 0.120345 -1.6659e-17)
(0.378141 1.56158 -4.9546e-16)
(-0.0133562 3.13101 -7.22613e-18)
(0.831019 4.45117 1.76216e-16)
(0.105598 3.10917 1.07875e-16)
(0.141024 3.27882 0)
(1.54371 1.60998 9.81891e-17)
(2.37345 0.0199679 5.36256e-17)
(0.0186455 0.206027 0)
(0.611037 3.3456 -1.87755e-16)
(0.519859 0.728721 -7.1007e-16)
(1.80039 3.22008 0)
(0.790116 0.00927745 -1.69701e-16)
(0.720163 2.39677 0)
(0.323704 -0.707751 -6.31331e-19)
(3.49506 0.169178 -2.5855e-18)
(9.98132 2.52023 1.78012e-18)
(2.12296 3.95956 0)
(1.4015 1.80864 2.10769e-16)
(0.198796 3.72656 -1.27791e-16)
(1.49857 1.98689 0)
(2.05706 0.856382 -1.21382e-16)
(-0.0916659 -0.0719779 -1.71714e-16)
(0.125966 2.8362 -1.33371e-16)
(0.608243 3.30042 1.45969e-16)
(0.246385 2.46909 3.08888e-16)
(2.39744 0.038281 -2.91612e-17)
(2.82063 -0.204859 0)
(0.509741 3.56191 0)
(2.88737 -0.239548 2.87505e-17)
(0.60066 2.0385 2.02015e-16)
(0.127346 3.3626 -4.70016e-17)
(1.99308 -1.12756 1.10285e-16)
(0.519427 -0.219058 -2.64307e-16)
(0.144138 2.99939 0)
(0.179272 2.89187 1.20737e-16)
(9.82861 7.45449 -1.42118e-18)
(0.335744 2.48582 4.08037e-17)
(0.741768 3.78072 -1.61934e-17)
(0.410366 0.724493 -1.12163e-16)
(1.89339 4.15249 1.97762e-16)
(4.49782 1.33978 2.85056e-18)
(3.06419 0.0768523 -1.23377e-16)
(1.62481 0.425692 0)
(11.2094 0.748567 2.22717e-18)
(0.227779 3.04071 8.86051e-17)
(8.6584 0.335258 1.12559e-18)
(0.124939 2.5512 -1.42341e-16)
(0.121595 -0.456419 -1.857e-16)
(0.206791 2.97728 -4.00781e-16)
(0.463149 3.47735 8.07954e-19)
(0.226104 0.0458662 4.99366e-16)
(1.60698 3.85265 -1.29404e-16)
(0.990077 2.04127 -4.5988e-16)
(0.564159 3.08403 -2.60042e-19)
(3.79907 0.184928 1.05126e-17)
(0.053605 3.46598 -6.2886e-17)
(0.193033 3.06797 4.36396e-17)
(0.374326 4.89988 -2.43486e-18)
(-0.114761 -0.398441 0)
(1.55856 -0.0104904 0)
(0.245252 2.97312 -1.10745e-16)
(5.7872 0.282002 1.78694e-18)
(7.64057 0.175394 -1.26962e-17)
(0.180749 3.60746 1.94467e-16)
(1.76302 1.71676 -3.56698e-17)
(1.90817 -0.152409 7.07828e-17)
(4.50607 0.570904 9.19116e-18)
(0.184791 2.99056 7.42503e-17)
(0.758228 3.04635 -1.31382e-16)
(1.82431 0.854215 4.89122e-16)
(0.650938 2.37639 -1.29816e-16)
(0.619828 0.0804191 0)
(0.661728 0.00688499 -1.29771e-16)
(0.312198 1.35456 -1.38758e-16)
(1.34142 2.91303 0)
(7.76462 1.14933 -1.01873e-17)
(0.768828 0.0459702 1.00533e-16)
(5.57725 0.0373283 0)
(0.121057 -0.186543 0)
(6.41986 2.91439 -2.86472e-17)
(-0.092873 3.37157 2.24576e-17)
(0.486244 5.07303 -6.61082e-18)
(0.620295 0.800425 0)
(-0.223638 -0.156139 1.02106e-16)
(0.640575 -0.103536 8.88298e-16)
(1.14701 -0.141896 -5.99005e-16)
(3.19785 0.177711 -4.08553e-17)
(2.65634 2.11744 7.04296e-17)
(0.379134 -0.0854361 2.77412e-16)
(0.809222 -0.0785987 0)
(0.189368 0.67488 -9.1003e-17)
(1.89476 2.5846 -2.13168e-18)
(2.04824 3.25684 8.02664e-17)
(1.36331 1.67558 -3.30473e-17)
(0.536869 2.70799 0)
(0.726467 3.49713 1.07495e-16)
(0.403129 2.65445 1.18503e-16)
(2.18376 -0.043824 0)
(9.93226 0.658101 1.31444e-16)
(0.868948 3.60585 0)
(0.461523 2.99417 0)
(3.04343 4.60505 -2.96403e-18)
(0.541304 3.29266 2.42601e-16)
(0.432713 4.35314 1.43453e-16)
(4.63015 -0.550217 -1.82072e-16)
(0.30454 -0.226885 2.65873e-16)
(2.68525 -0.293963 2.07226e-16)
(-0.0887411 2.7095 0)
(0.738912 3.59337 6.21097e-20)
(0.170648 2.69454 -2.30239e-16)
(8.1667 -0.208911 -5.79784e-17)
(2.31084 -0.2206 5.17938e-17)
(0.110317 3.29898 3.7175e-16)
(0.0988997 0.627984 -1.27519e-16)
(1.69603 1.60913 1.59448e-17)
(6.56514 -0.308813 3.74891e-17)
(3.17224 -0.186088 -6.62855e-17)
(0.105551 8.52319 8.12552e-17)
(0.0746503 2.45469 1.66143e-20)
(0.0651312 2.37209 1.27756e-16)
(0.0226419 2.22584 1.19214e-18)
(0.0475058 2.28948 0)
(0.0700995 9.28017 -7.17829e-17)
(0.0848024 2.52469 -2.37664e-16)
(-0.0202266 3.64299 -9.74342e-19)
(0.00320631 3.65333 -2.62963e-17)
(-0.02688 3.61337 0)
(-0.00188869 3.70647 5.57486e-17)
(0.133082 7.95625 0)
(0.161406 10.031 0)
(0.000962409 3.81733 -7.37714e-17)
(0.28595 6.76796 -4.2086e-18)
(0.212999 7.39503 -3.90509e-18)
(0.00356898 3.86878 2.34688e-17)
(0.0847294 2.56182 1.23182e-16)
(0.079495 2.62414 0)
(0.00361184 3.85688 -3.2356e-17)
(0.0727322 2.70143 0)
(0.0635661 2.79115 0)
(0.00597898 3.83275 2.41329e-17)
(0.0583622 2.89361 0)
(0.343774 2.53452 1.36987e-16)
(5.7653 4.45337 -5.66099e-17)
(0.717811 -0.335872 2.76557e-16)
(0.0276099 0.54171 0)
(1.7587 3.69083 -1.22581e-16)
(-0.286654 -0.968979 1.12728e-16)
(0.477835 1.32378 4.4436e-16)
(8.13242 2.06993 -1.57411e-17)
(-0.115846 3.37063 -2.88999e-17)
(0.792597 5.75634 0)
(-0.600715 -0.616954 5.63485e-16)
(1.09496 -0.295268 3.21828e-16)
(2.16367 0.550126 0)
(5.55363 -0.319729 3.09315e-17)
(1.95047 -0.294704 -2.42593e-16)
(0.111732 -0.169949 -2.08384e-16)
(6.46307 3.63088 9.84086e-17)
(2.55208 3.54038 -5.26411e-17)
(0.353686 2.75179 1.26914e-16)
(2.77961 1.73664 -4.03135e-17)
(3.01243 0.0365269 -8.15586e-17)
(8.41089 0.652375 -2.9077e-19)
(-0.953229 0.0477952 -3.12019e-16)
(0.0559493 3.0092 0)
(1.62973 3.83943 3.92628e-16)
(1.62846 2.25082 -4.37329e-20)
(1.82251 0.0733405 5.97184e-17)
(1.42131 0.182659 0)
(10.9232 0.0104638 2.61784e-17)
(0.183782 0.548661 -1.80093e-16)
(3.68975 -0.661334 3.01676e-18)
(0.456246 2.44246 1.674e-16)
(0.160201 3.07373 0)
(0.735898 1.54803 1.10056e-17)
(0.63718 1.71137 -9.0739e-17)
(9.23536 3.2409 2.31239e-17)
(1.12639 -0.773627 2.94724e-16)
(1.33695 -0.219865 -2.73523e-16)
(0.0553088 -0.240011 2.41098e-16)
(2.37166 -0.261225 -5.81128e-17)
(0.807617 2.40533 4.44796e-17)
(-0.0893174 2.67024 1.82825e-20)
(0.232735 4.77514 -1.98907e-17)
(0.0685056 0.926033 0)
(1.35046 1.56157 2.94087e-19)
(0.711176 0.24627 6.75228e-17)
(3.82707 0.29302 9.68086e-17)
(0.401895 -0.483486 0)
(0.864639 0.332049 -4.13132e-16)
(0.175978 -0.0932075 0)
(11.1228 0.546493 1.96629e-18)
(0.726502 3.06897 0)
(1.43236 2.05666 -8.13714e-17)
(0.0102299 1.39061 1.73152e-16)
(0.129016 -0.133202 3.22081e-16)
(3.24205 -1.14473 0)
(2.86321 -0.0108658 -2.91557e-17)
(0.0516552 3.19551 4.67405e-19)
(0.346729 -0.866085 0)
(2.35964 0.00927262 0)
(1.30006 1.8043 -3.02025e-16)
(0.189224 3.06021 -1.294e-17)
(7.17393 -0.00501383 0)
(0.240821 0.1078 -1.40082e-16)
(3.41492 -0.780488 -2.06546e-16)
(0.0850513 -0.0973004 0)
(0.0679649 2.59052 3.48165e-16)
(1.75745 -0.654504 -1.29493e-16)
(7.47692 4.81044 2.0365e-17)
(0.825299 3.50234 3.30564e-17)
(0.415959 2.33162 2.49409e-16)