/*--------------------------------*- C++ -*----------------------------------*\
| =========                 |                                                 |
| \\      /  F ield         | OpenFOAM: The Open Source CFD Toolbox           |
|  \\    /   O peration     | Version:  v1912                                 |
|   \\  /    A nd           | Website:  www.openfoam.com                      |
|    \\/     M anipulation  |                                                 |
\*---------------------------------------------------------------------------*/
FoamFile
{
    version     2.0;
    format      ascii;
    class       volScalarField;
    location    "0.31";
    object      nut;
}
// * * * * * * * * * * * * * * * * * * * * * * * * * * * * * * * * * * * * * //

dimensions      [0 2 -1 0 0 0 0];


internalField   nonuniform List<scalar> 
1431
(
0.00232813
0.00291588
0.00264123
0.00167375
0.00159474
0.00209843
0.00383763
0.000786808
0.00279119
0.0045915
0.00158901
0.00100705
0.00135466
0.00130655
0.00415881
0.000563455
0.0045874
0.00200956
0.000722055
0.00188489
0.000815173
0.00291738
0.00357971
0.0013983
0.00146745
0.00205663
0.00150241
0.00122097
0.00100551
0.00162189
0.00132289
0.000723415
0.00205357
0.000929752
0.00128213
0.00247022
0.00247241
0.00085992
0.00205586
0.000858845
0.00218307
0.000487169
0.00160947
0.00493159
0.00385872
0.0016928
0.00297331
0.000803865
0.000839951
0.00087084
0.00160629
0.00457035
0.00277906
0.00165371
0.00552045
0.000767551
0.0059211
0.00275947
0.00101369
0.00062458
0.0042393
0.00125151
0.00293978
0.000783197
0.000901416
0.00291879
0.00255389
0.00117081
0.00334307
0.000750534
0.00087004
0.00145264
0.00174045
0.00200907
0.00144197
0.00124899
0.00133373
0.00332327
0.000785121
0.00215032
0.00080577
0.00200186
0.0009683
0.00342938
0.00229072
0.00181086
0.00160669
0.000957628
0.00149615
0.00259603
0.00220346
0.000910893
0.00146542
0.00086346
0.00190127
0.00136504
0.0015858
0.00073015
0.00114663
0.00102215
0.00314189
0.00080631
0.00304069
0.00173937
0.00121167
0.00259122
0.000786
0.00273924
0.00181787
0.0013452
0.00252546
0.00281734
0.000755131
0.00281621
0.0011018
0.00167336
0.00174608
0.0037739
0.0016022
0.00306799
0.000861898
0.00285647
0.00591128
0.0012901
0.000831262
0.00301187
0.0017231
0.00155178
0.00208355
0.000810095
0.00205094
0.00259323
0.00101003
0.00308426
0.00155059
0.000924179
0.00174414
0.00305472
0.00216603
0.0025724
0.00302861
0.000486859
0.000769977
0.000882149
0.00100113
0.000775584
0.000734477
0.00283772
0.00168778
0.000775302
0.000819445
0.000951394
0.00251391
0.000485159
0.000494522
0.00163193
0.000803203
0.00290557
0.000755911
0.000709342
0.00205129
0.00226793
0.00284308
0.00111479
0.00184308
0.00314207
0.00153363
0.000865483
0.00147255
0.00330907
0.00102814
0.00107269
0.00125643
0.000769106
0.000771793
0.000475336
0.000597496
0.000876083
0.00152937
0.00071868
0.000839657
0.00484142
0.000750601
0.00310327
0.000773325
0.000789483
0.000753131
0.00121436
0.00216832
0.000799537
0.0037736
0.0051616
0.0011778
0.000790607
0.0033382
0.000848859
0.000785488
0.000838977
0.000630482
0.000537287
0.000580872
0.000662573
0.000737336
0.0021687
0.000786224
0.00195276
0.00181869
0.000834412
0.00158326
0.000880344
0.000789764
0.000783689
0.00152438
0.000831719
0.00559604
0.00143603
0.000756812
0.00382121
0.0019116
0.000833771
0.000830403
0.0023009
0.000777394
0.00232187
0.0008254
0.00087489
0.00091773
0.00323504
0.000819178
0.00142162
0.00197373
0.00116649
0.000747278
0.000796827
0.000790578
0.000784149
0.000737179
0.00269736
0.000827042
0.00263479
0.000842883
0.000718332
0.00402024
0.00454438
0.00156045
0.00128792
0.000830201
0.00215604
0.00173895
0.000942925
0.000723799
0.00325594
0.00362666
0.00126917
0.0033061
0.00109107
0.000573941
0.00264382
0.00112704
0.00110063
0.00107923
0.00119415
0.00143384
0.00372221
0.000790315
0.000802487
0.00102851
0.000745873
0.00106281
0.00429401
0.000743721
0.000888689
0.000727644
0.000727984
0.00106854
0.000766121
0.00276667
0.00389823
0.00366888
0.00565616
0.00292831
0.0025997
0.00200127
0.00280094
0.00102511
0.00132063
0.00195722
0.000756516
0.000884706
0.000832914
0.000776648
0.000870784
0.000752358
0.00285062
0.00072831
0.000742896
0.00116006
0.0007718
0.00269419
0.000709129
0.000844742
0.00094594
0.00106532
0.000730883
0.00230722
0.00270268
0.000828727
0.00109847
0.00110889
0.000866259
0.00083648
0.0007837
0.0033832
0.000719611
0.00117071
0.00271882
0.00418975
0.00262026
0.000795426
0.00249456
0.00269145
0.00243247
0.00276641
0.00268036
0.00376441
0.00249347
0.00080691
0.00270533
0.00161796
0.00083113
0.00334352
0.00170465
0.00266487
0.00341421
0.000786371
0.00421764
0.00112996
0.00197737
0.00140367
0.00188248
0.000532489
0.000822732
0.00240261
0.000933543
0.0021738
0.000532881
0.000826031
0.000872535
0.000282116
0.000230406
0.00103305
0.000507401
0.000777284
0.000553113
0.000694564
0.000947931
0.000609525
0.000579639
0.000507314
0.000643884
0.000531393
0.00094054
0.0005759
0.000250293
0.000339098
0.000849394
0.00059425
0.000876289
0.00266642
0.00345367
0.00273546
0.00265566
0.00274992
0.000749707
0.0030473
0.00180195
0.00357107
0.000842245
0.000848857
0.000563812
0.000534696
0.000861145
0.000314029
0.000692294
0.00104905
0.000593022
0.000927724
0.00062292
0.00053107
0.000266253
0.000907185
0.00329816
0.000850077
0.000848694
0.00279731
0.00181808
0.00144079
0.000834646
0.00352362
0.000772419
0.000722901
0.0031458
0.000832703
0.00167894
0.00271044
0.000793398
0.00260133
0.000713732
0.000836618
0.00375142
0.000831188
0.00060944
0.00318551
0.00250346
0.000933788
0.00108934
0.00342377
0.00431112
0.00272151
0.00104604
0.00264599
0.00276918
0.00388902
0.00169121
0.00256221
0.00349549
0.00180261
0.00276233
0.00608657
0.00293842
0.00485768
0.00133471
0.000519754
0.00390501
0.00253973
0.00334479
0.00288366
0.0031499
0.00170987
0.00171873
0.00549968
0.000805463
0.00372591
0.00339957
0.000531877
0.00346445
0.00419769
0.00128615
0.00086541
0.00363983
0.0041923
0.00379787
0.00452271
0.0033789
0.00313326
0.00287303
0.00320344
0.00378948
0.00310942
0.00244912
0.00358393
0.00103115
0.0018549
0.00288597
0.00232052
0.00221257
0.000912243
0.00323215
0.00210713
0.00241735
0.00283606
0.00256429
0.000729775
0.00113638
0.00200924
0.00215333
0.00325833
0.00343383
0.00507674
0.000887806
0.00283411
0.00259258
0.00114929
0.000800582
0.0007912
0.00502544
0.00280029
0.00403857
0.00376804
0.000705665
0.000569863
0.00101887
0.0025492
0.00421359
0.000958872
0.00258191
0.00132682
0.00290363
0.000837176
0.00218369
0.00227435
0.00160149
0.00226583
0.00277101
0.00245506
0.00148706
0.00206908
0.00413715
0.00356408
0.000743268
0.000664225
0.00137314
0.000742225
0.00232406
0.000792521
0.00373991
0.00468347
0.00145244
0.00320094
0.00260065
0.00202367
0.00153401
0.00270646
0.000739325
0.00316171
0.00327086
0.00254167
0.00377422
0.00173516
0.00273166
0.000779527
0.000733094
0.00166916
0.00199531
0.0038457
0.00350858
0.00200453
0.00212562
0.00386063
0.00271219
0.00225475
0.00468311
0.00337151
0.00420852
0.000545936
0.00421431
0.00248613
0.000796436
0.00394394
0.00233905
0.00183888
0.000735832
0.00107616
0.00359651
0.00267621
0.00255374
0.0024452
0.00362666
0.0010371
0.00075833
0.00445646
0.00172333
0.00311668
0.00501178
0.00263384
0.000742293
0.00303351
0.000744964
0.00340969
0.00190496
0.000872331
0.00343181
0.00318935
0.00382126
0.00391941
0.00261506
0.00267614
0.00270212
0.00181486
0.00107111
0.00250642
0.000798386
0.00238088
0.00339936
0.00214811
0.00181411
0.00279526
0.000794663
0.0018106
0.000790962
0.00521046
0.00278884
0.000848213
0.000785211
0.000774763
0.00169151
0.000778692
0.00367451
0.000743665
0.00045169
0.00297443
0.0026307
0.0019641
0.00202372
0.00195492
0.00377175
0.00211013
0.00208051
0.00368304
0.00236967
0.00200271
0.0030176
0.0012
0.00287105
0.0022393
0.000747857
0.00319299
0.00217836
0.0021613
0.00385895
0.00184285
0.0025273
0.00225214
0.00158146
0.00367416
0.00093001
0.00178376
0.00068583
0.00307154
0.000804894
0.00321872
0.00252062
0.000621533
0.000805701
0.00270876
0.00371567
0.00182045
0.000737966
0.00114547
0.00266552
0.00178113
0.003523
0.000806798
0.00309926
0.00355474
0.00201062
0.00172344
0.00316197
0.00375373
0.00281559
0.00344787
0.00255652
0.0007705
0.00116396
0.00381778
0.00344095
0.000820652
0.000841147
0.00392787
0.00329993
0.00327903
0.000691889
0.00259481
0.00243301
0.000827758
0.000466238
0.000848166
0.00448192
0.00361823
0.00376689
0.000604726
0.000822183
0.00245894
0.00375084
0.000772152
0.000741685
0.00181997
0.0056785
0.0015483
0.00111084
0.00469095
0.000775689
0.00115295
0.00284411
0.00359194
0.00215511
0.00249072
0.00220132
0.00404033
0.0017888
0.00170578
0.00348315
0.00188908
0.00301379
0.00287615
0.00167682
0.000236924
0.000932691
0.00082468
0.000728365
0.00182065
0.00180944
0.000765967
0.00157561
0.00157514
0.0014845
0.00116533
0.00325251
0.000850453
0.00227239
0.00234067
0.000843492
0.0019158
0.00442064
0.00246751
0.000635419
0.00311318
0.0029291
0.000721623
0.00243556
0.000644435
0.000839829
0.000804036
0.00393459
0.00206036
0.000626175
0.00345722
0.00357363
0.000683562
0.000524705
0.00290009
0.000608729
0.000704622
0.000723073
0.00481057
0.000768143
0.00248457
0.00331517
0.00323326
0.00254909
0.0026224
0.00458631
0.000692923
0.00158821
0.000785004
0.000663495
0.000745978
0.000845652
0.00113825
0.00111993
0.00423085
0.000755035
0.000743546
0.000764188
0.00253038
0.00222984
0.000845059
0.000841297
0.000874412
0.0018622
0.000958918
0.00120263
0.00201402
0.00229227
0.000855407
0.0034809
0.000513708
0.00216653
0.000792763
0.000757684
0.00389392
0.00469135
0.000766198
0.00227146
0.000511422
0.000777309
0.000734148
0.00361889
0.00408642
0.00146251
0.00132534
0.00055355
0.000771225
0.00355106
0.00124104
0.00467821
0.000819696
0.00235517
0.00191147
0.00202902
0.00256864
0.000773043
0.000870894
0.000982772
0.000847837
0.000834558
0.000693644
0.00219195
0.0051046
0.000808283
0.00342603
0.00308074
0.000716723
0.00175606
0.000232502
0.00258485
0.00253514
0.00208794
0.00305644
0.0014241
0.000829141
0.000810087
0.00350501
0.000582307
0.00182333
0.000833415
0.000673434
0.000597139
0.000538485
0.000648751
0.000837217
0.000732127
0.00077515
0.00221819
0.00139817
0.00077673
0.00168075
0.00273757
0.00184155
0.000639563
0.000865649
0.000752292
0.00276737
0.000647758
0.00208632
0.0010545
0.00383893
0.0011232
0.000819233
0.0032703
0.000779268
0.000719585
0.00073297
0.000663717
0.00246541
0.000713862
0.00199172
0.00273775
0.00224874
0.00082016
0.00309095
0.00273496
0.00264942
0.000237755
0.00198986
0.0020653
0.00412335
0.0029817
0.000837771
0.00086838
0.000806196
0.00261141
0.00201266
0.00307969
0.00255789
0.00165276
0.00080373
0.000757459
0.000629706
0.00244472
0.000758369
0.00236578
0.00183957
0.0030735
0.000777871
0.000779554
0.0015775
0.00553436
0.00357888
0.000818192
0.000819174
0.00152208
0.00276511
0.000707611
0.000746356
0.00217096
0.00206726
0.00338978
0.00396161
0.0007045
0.000878317
0.00338084
0.00266294
0.000825604
0.00321151
0.00378895
0.000843635
0.00246045
0.002283
0.00144553
0.0020857
0.00219563
0.00335736
0.00377705
0.00095415
0.000934367
0.000844088
0.00315827
0.000796655
0.000727547
0.00222562
0.000805875
0.00381692
0.00185047
0.00288971
0.00379221
0.00296086
0.000865315
0.00137254
0.00153855
0.00307613
0.00078434
0.0024229
0.000814331
0.000794609
0.00106039
0.00141248
0.000729678
0.00469828
0.000680444
0.00224462
0.000751924
0.00171913
0.000460058
0.000514091
0.00049253
0.000422986
0.000522599
0.000513287
0.00204274
0.000237158
0.000738628
0.000819347
0.000484699
0.00196341
0.000546243
0.0025475
0.00131779
0.0021464
0.000467328
0.00423501
0.000551474
0.000662815
0.00427754
0.00495479
0.00230879
0.000455501
0.00252588
0.00394425
0.00286517
0.0038755
0.00434247
0.00310242
0.00211307
0.00230387
0.000462474
0.000463272
0.000942241
0.000446341
0.00303721
0.0037682
0.00263184
0.00238397
0.000979946
0.00286769
0.00214703
0.000816252
0.00045952
0.000475634
0.00171365
0.00318151
0.000777951
0.00382906
0.00295189
0.00292109
0.000774343
0.000379617
0.0041049
0.000483435
0.00106514
0.000616957
0.000824241
0.00280921
0.00285491
0.000830072
0.00260628
0.00276724
0.000895133
0.00252968
0.00136776
0.0005718
0.00108269
0.000809744
0.00160004
0.00575391
0.000777466
0.00188242
0.00504401
0.000846033
0.0024161
0.00365325
0.00343154
0.000812717
0.000728797
0.000974789
0.00333984
0.00297729
0.00232223
0.00185112
0.00296161
0.00362296
0.00362342
0.00265542
0.00294164
0.00106697
0.00286335
0.00256666
0.00318837
0.000455248
0.00239706
0.00474385
0.00288961
0.00236151
0.00334204
0.000884765
0.00264999
0.00332118
0.000837613
0.00251822
0.00321328
0.00133827
0.00168155
0.000638237
0.002673
0.00265271
0.00265375
0.00323177
0.00326451
0.000753538
0.0039294
0.00308184
0.000624261
0.00357043
0.00455775
0.00182203
0.00451816
0.00198519
0.000782376
0.000803791
0.000755154
0.00251449
0.00471907
0.000846456
0.000789666
0.000770322
0.00208626
0.00116223
0.000777242
0.000840584
0.00294718
0.00270224
0.000797909
0.000787744
0.00255807
0.000821793
0.00331815
0.000330548
0.000782042
0.000791223
0.000802653
0.000556401
0.00101421
0.00287284
0.000522724
0.000739534
0.0006464
0.00102328
0.0010135
0.000793377
0.00346765
0.0024047
0.000743931
0.00214929
0.000768822
0.00053434
0.000448523
0.00217926
0.000833445
0.0024188
0.00298876
0.00215924
0.000489744
0.00125662
0.000911026
0.000598451
0.00086683
0.00365845
0.000640836
0.00208797
0.000807937
0.00244656
0.00429118
0.00241881
0.000688312
0.00255085
0.00089874
0.00282444
0.00280306
0.00119005
0.00079971
0.0027153
0.0023603
0.000790575
0.000445261
0.000944085
0.000485217
0.00369649
0.00243982
0.00175517
0.00516759
0.000788384
0.000586328
0.0023812
0.00252906
0.000497917
0.00226408
0.00178767
0.00106035
0.00256619
0.000771422
0.00273389
0.00274829
0.00269126
0.00538151
0.00255115
0.000800015
0.000823312
0.000466365
0.00187818
0.000822224
0.00339536
0.000679408
0.00267871
0.00370923
0.00273227
0.00191208
0.00333478
0.00114047
0.000506492
0.000836311
0.00135452
0.000381485
0.000676483
0.00278378
0.00402806
0.00142804
0.000759142
0.000734773
0.00270335
0.000481043
0.000840551
0.00223417
0.00376144
0.00083487
0.000839298
0.000839721
0.000781443
0.000381111
0.000666929
0.0036722
0.000612013
0.00373557
0.000751366
0.00143586
0.0030745
0.000828092
0.00404309
0.00226666
0.000591876
0.000859833
0.00211673
0.0026839
0.000870092
0.000483051
0.00456244
0.00444108
0.00089222
0.0027615
0.00158407
0.00073959
0.00372535
0.00477375
0.00284428
0.00295623
0.00409863
0.000879143
0.000851863
0.00146451
0.00313565
0.000842408
0.000819704
0.00191324
0.00287351
0.00235861
0.00308704
0.000811753
0.00304328
0.00170088
0.00254001
0.00168247
0.00349409
0.00331935
0.000473489
0.000359784
0.00491712
0.000751801
0.00185296
0.000731998
0.000773181
0.000844423
0.000906206
0.00221543
0.00146103
0.000933272
0.000407239
0.00455971
0.0011367
0.00172458
0.00297047
0.00154885
0.00212768
0.00366459
0.00182741
0.00141971
0.00539061
0.00254505
0.000891858
0.00140491
0.0032665
0.00071904
0.00177592
0.00109754
0.000791261
0.00178373
0.00376281
0.00318801
0.0024354
0.000622049
0.00366705
0.00250308
0.00148058
0.00265009
0.00469771
0.00389936
0.000769825
0.000844272
0.00371245
0.00270426
0.00237736
0.0042584
0.00334574
0.00369313
0.000567243
0.000829291
0.00130433
0.000814911
0.000878683
0.00281537
0.000839676
0.0010051
0.000387717
0.00188524
0.000804413
0.000947695
0.00239854
0.00313191
0.00478892
0.00343511
0.00352787
0.00299369
0.00304478
0.00124392
0.0031595
0.00160856
0.00218582
0.000845908
0.00170253
0.00422629
0.00160878
0.000626873
0.00475333
0.000785429
0.00450912
0.00283813
0.00430073
0.00440777
0.00287121
0.000774776
0.00267875
0.00472922
0.000845622
0.00078108
0.000596143
0.00313469
0.00260284
0.000730467
0.00359693
0.00242407
0.000967887
0.00372925
0.000896637
0.000482323
0.00284734
0.00485394
0.00272793
0.00294294
0.00103807
0.000855226
0.0026127
0.00239045
0.00200412
0.00267779
0.00185567
0.0027782
0.000760037
0.00189554
0.00205332
0.000819098
0.00123492
0.00188508
0.000715115
0.00179093
0.00280503
0.000833717
0.000389818
0.00243482
0.0016485
0.000802011
0.00130825
0.00180921
0.00204847
0.000683108
0.0016501
0.00269868
0.00321633
0.00288324
0.00163087
0.000855043
0.00233976
0.00238251
0.00291573
0.00297427
0.000712277
0.00260616
0.00371405
0.00293337
0.00223685
0.000755578
0.00129107
0.000696419
0.000944984
0.00225672
0.00141959
0.00108121
0.002779
0.00151751
0.00383258
0.00137785
0.000781652
0.00480625
0.0011305
0.00247844
0.00289098
0.00255235
0.000812163
0.00102467
0.00201833
0.00084305
0.000972223
0.00165953
0.0010261
0.00305302
0.00137108
0.00183489
0.00456705
0.00148146
0.00118823
0.0014799
0.00121209
0.00107766
0.00215438
0.000837201
0.000832859
0.00134308
0.00345248
0.00172588
0.000877483
0.000909291
0.000913065
0.000792802
0.00250137
0.00236624
0.00283729
0.00436652
0.000741467
0.000669086
0.00251908
0.00506883
0.00282383
0.00450166
0.00378204
0.000802371
0.000761034
0.00122033
0.000748304
0.000867177
0.00118015
0.00179872
0.0016111
0.0027201
0.000932766
)
;

boundaryField
{
    frontAndBack
    {
        type            empty;
    }
    wallOuter
    {
        type            nutkWallFunction;
        Cmu             0.09;
        kappa           0.41;
        E               9.8;
        value           nonuniform List<scalar> 
90
(
6.74396e-05
7.67403e-05
7.78013e-05
7.56509e-05
8.24098e-05
8.48924e-05
8.70496e-05
9.41682e-05
8.00401e-05
8.94254e-05
9.18017e-05
9.50532e-05
9.10571e-05
9.32902e-05
9.26057e-05
0.000103964
9.97103e-05
8.12128e-05
7.222e-05
6.52073e-05
7.83114e-05
0.00010014
8.80442e-05
9.30498e-05
8.00661e-05
0.000113441
0.000111158
8.7765e-05
8.199e-05
5.70039e-05
6.37379e-05
6.10557e-05
5.23277e-05
6.48073e-05
6.36792e-05
6.01913e-05
5.87081e-05
6.85425e-05
7.93737e-05
5.66332e-05
5.79997e-05
5.77074e-05
0.000111655
5.60579e-05
5.74657e-05
5.93452e-05
6.09761e-05
0.000125435
7.7064e-05
0.000106726
0.000115743
5.45204e-05
7.54198e-05
9.46038e-05
9.40158e-05
6.94052e-05
8.0518e-05
0.000120736
0.000120021
8.94115e-05
6.47055e-05
5.63736e-05
6.17828e-05
0.000108287
9.67887e-05
8.29645e-05
0.000107171
5.61348e-05
0.000111967
6.11001e-05
6.13266e-05
4.79261e-05
9.11699e-05
6.07417e-05
9.95445e-05
7.39486e-05
7.15894e-05
0.00010389
6.09192e-05
0.000106196
5.7343e-05
0.000110768
5.12676e-05
7.51599e-05
4.75089e-05
6.08965e-05
9.94423e-05
4.8942e-05
8.23412e-05
8.38906e-05
)
;
    }
    inlet
    {
        type            calculated;
        value           uniform 0.000851986;
    }
    outlet
    {
        type            calculated;
        value           nonuniform 0();
    }
    wallInner
    {
        type            nutkWallFunction;
        Cmu             0.09;
        kappa           0.41;
        E               9.8;
        value           nonuniform List<scalar> 
138
(
0.000118771
7.94381e-05
0.000232605
0.000107942
0.000148686
5.78416e-05
0.000285311
0.000130961
0.000100794
0.000167919
0.000146805
0.000119795
5.94945e-05
6.08943e-05
5.92508e-05
7.17e-05
7.78689e-05
6.66659e-05
7.15726e-05
7.99799e-05
0.000261169
0.000128826
6.67249e-05
0.000132794
0.000129878
0.000127515
0.000121819
0.000126329
0.000121442
0.000129644
0.000130789
6.5937e-05
6.59229e-05
0.000104151
3.31933e-05
2.71042e-05
0.00012117
6.14603e-05
9.27226e-05
6.63254e-05
8.46878e-05
0.000111146
7.33792e-05
7.16405e-05
6.17036e-05
7.86951e-05
6.33659e-05
0.000112713
6.822e-05
2.85229e-05
4.12037e-05
0.000101223
6.90139e-05
0.000104665
6.862e-05
6.5245e-05
0.000102119
3.81476e-05
8.309e-05
0.000124943
6.94709e-05
0.000109391
7.66065e-05
6.41924e-05
3.06478e-05
0.000108183
8.682e-05
7.44011e-05
0.000129076
6.37265e-05
9.17853e-05
6.50799e-05
0.00010381
0.000112875
0.000134312
9.54206e-05
0.000135778
8.54232e-05
6.98805e-05
0.000110271
0.000103206
0.000153252
0.000184126
8.46469e-05
7.64958e-05
0.000167496
6.71256e-05
8.93408e-05
0.000127141
0.000122784
0.000103954
5.52149e-05
7.66929e-05
5.75679e-05
9.43508e-05
2.69913e-05
0.000110952
6.51138e-05
7.44602e-05
8.35516e-05
0.000109155
6.09385e-05
6.22687e-05
6.82529e-05
0.00011714
2.66922e-05
0.000103038
0.000132365
9.75871e-05
2.5047e-05
7.53093e-05
0.000125422
2.75992e-05
8.84877e-05
6.67122e-05
0.00011648
9.27987e-05
4.67957e-05
6.81626e-05
0.000126229
9.12522e-05
4.06495e-05
9.3869e-05
7.35478e-05
5.67271e-05
5.88573e-05
9.85242e-05
5.7642e-05
3.5889e-05
7.87728e-05
4.47759e-05
8.07551e-05
0.000143807
9.0008e-05
0.000102332
0.000206353
0.000187215
0.00010675
)
;
    }
    procBoundary0to1
    {
        type            processor;
        value           nonuniform List<scalar> 
29
(
0.00287664
0.00541181
0.00209592
0.00209592
0.0052805
0.0052805
0.00270911
0.00128969
0.0020759
0.00199704
0.00192595
0.00205324
0.00109676
0.00140845
0.00196818
0.00114792
0.00772556
0.00523723
0.00177849
0.00561094
0.000820636
0.00071834
0.0032673
0.000734619
0.000726624
0.00523723
0.000718004
0.000906239
0.000734619
)
;
    }
    procBoundary0to2
    {
        type            processor;
        value           nonuniform List<scalar> 
42
(
0.00295405
0.0025218
0.00173808
0.00162602
0.00185238
0.00295405
0.00173808
0.00101222
0.00150316
0.00104946
0.0023316
0.00225252
0.0023316
0.00227792
0.00215443
0.00293911
0.00215443
0.000994795
0.00121235
0.00454137
0.00454137
0.000994795
0.00101695
0.00442385
0.00442385
0.000964012
0.00355698
0.000888217
0.0034158
0.00252549
0.00252549
0.000801365
0.000694882
0.000587524
0.00054065
0.00173808
0.00204457
0.00059962
0.0034158
0.00101222
0.000692922
0.000594881
)
;
    }
}


// ************************************************************************* //
