/*--------------------------------*- C++ -*----------------------------------*\
| =========                 |                                                 |
| \\      /  F ield         | OpenFOAM: The Open Source CFD Toolbox           |
|  \\    /   O peration     | Version:  v1912                                 |
|   \\  /    A nd           | Website:  www.openfoam.com                      |
|    \\/     M anipulation  |                                                 |
\*---------------------------------------------------------------------------*/
FoamFile
{
    version     2.0;
    format      ascii;
    class       volScalarField;
    location    "0.31";
    object      p;
}
// * * * * * * * * * * * * * * * * * * * * * * * * * * * * * * * * * * * * * //

dimensions      [0 2 -2 0 0 0 0];


internalField   nonuniform List<scalar> 
1431
(
85.4681
83.1439
82.8606
80.7985
84.3512
76.1164
71.7561
88.7989
79.6693
78.8137
83.4976
83.9704
78.7349
94.1248
84.9388
85.7386
85.1693
83.1858
83.8683
83.1581
84.0415
79.8543
78.3456
95.0396
69.9052
83.181
61.9433
93.273
80.8947
80.5275
104.895
111.475
73.8585
68.7325
73.0551
81.1346
84.352
87.7837
74.2945
87.8416
101.646
82.284
66.7028
73.725
73.0576
84.5487
84.1128
109.431
105.914
89.0237
79.5669
78.7751
79.0027
68.4952
72.5873
102.468
78.3698
74.9245
69.2377
83.9779
83.31
82.1323
84.0449
88.4683
90.4764
82.7062
81.117
76.1741
83.5884
88.9198
67.6431
73.9344
82.5611
75.0799
85.1622
74.0839
84.3221
75.0204
88.9826
64.0858
88.4916
80.9913
81.0702
83.0247
69.5329
84.2364
84.256
78.5249
95.9947
83.239
83.8952
78.9414
84.3074
87.5595
82.0105
84.0199
85.2833
90.7382
84.0906
104.865
82.2082
87.7307
84.6105
84.152
81.9042
81.3778
88.6738
105.234
106.772
84.2322
64.3129
82.7353
89.3559
83.2787
82.9621
84.1478
83.3582
84.0687
96.9268
74.2611
86.3179
77.5878
78.2454
99.8613
88.104
81.7116
97.7986
83.6625
84.9909
88.1947
82.9093
106.018
95.7758
84.2791
84.3449
80.5962
82.34
82.4655
84.4398
105.603
78.7687
84.1594
87.6275
105.984
107.186
86.3991
90.2112
105.636
82.1076
104.204
89.1437
91.5744
82.8459
78.6819
82.9667
83.4128
88.4799
83.839
90.1468
99.0853
82.9745
82.7339
84.7698
81.208
84.1106
61.2758
84.1457
87.0196
79.2886
84.5153
97.6831
85.6169
103.701
89.4046
88.1497
84.073
78.9135
89.8437
80.3561
95.7997
88.2331
83.9442
95.95
83.482
87.8301
98.7631
87.8619
75.3234
83.4499
88.4316
81.5993
84.3381
84.1016
88.337
81.9738
86.0909
88.6946
107.729
80.8102
81.4332
81.7949
107.751
102.628
100.32
88.5834
64.4072
84.1243
88.733
83.8733
92.5395
88.3191
89.2929
100.595
88.677
77.4666
69.8767
91.0639
81.9607
81.976
88.3934
88.4207
59.5856
87.7787
95.5306
89.0607
82.804
101.611
83.9818
93.418
105.28
84.3347
80.3902
88.8147
87.2428
88.4513
89.0507
89.9727
85.1122
88.4092
82.4235
90.2457
100.921
80.1651
83.9458
82.7652
81.1101
87.6759
72.1846
69.0223
96.5526
94.4806
80.0166
79.45
107.75
83.7938
89.4237
79.5864
82.6094
88.3464
88.8177
89.2273
79.4857
84.0082
79.3928
88.6298
92.5266
84.0886
87.7734
94.448
79.5746
88.9883
104.728
93.4635
92.4759
88.9093
85.956
84.3331
83.3148
82.2058
78.3847
79.082
82.2872
82.2866
84.0612
85.9178
77.5393
84.4147
94.4833
95.3675
89.5877
86.2709
88.5105
94.3512
81.9702
95.9699
91.3811
84.3028
93.9513
82.5628
97.3578
88.3695
103.248
80.2128
107.598
83.3532
82.7119
88.5492
89.1617
88.5438
83.3812
89.2866
87.8572
82.7305
84.1799
78.1848
82.7139
78.0466
81.8243
88.0539
80.7602
82.4452
82.5107
79.3522
82.2696
80.1535
80.0171
88.4034
80.724
102.194
89.0258
82.9965
79.5968
82.3585
81.9125
88.239
80.5421
78.1761
83.1017
78.7165
78.4121
81.9194
88.4682
79.3915
79.3066
93.1964
79.2732
88.9765
82.1171
83.6192
83.5394
82.0895
82.4912
82.9569
82.5713
78.6592
82.0831
82.5896
79.0457
83.1536
83.0007
78.5693
78.8515
82.1218
83.8494
83.4355
82.1145
80.6177
80.6258
82.4257
83.0119
83.0632
82.513
81.9167
97.3591
82.2787
81.8705
83.0437
87.5079
86.6526
83.3491
82.6172
82.0302
83.4217
82.7492
79.3844
81.4835
81.6749
78.7509
82.9006
83.757
81.8072
82.5607
100.253
87.4755
81.3157
82.6193
83.4157
88.6406
79.1027
88.5971
83.0684
82.8729
88.6156
79.6484
82.6953
85.7858
81.3504
107.348
83.2466
83.0132
85.7166
82.1639
82.5139
79.4016
106.575
120.242
83.1026
79.925
78.1563
83.4645
82.1029
81.3008
78.9315
83.0999
81.0197
83.3932
83.0992
80.7821
72.866
83.9839
73.1991
83.0954
82.3001
80.8051
82.0362
83.9153
81.2373
80.8561
83.045
70.6295
72.0146
80.599
80.9305
81.0132
82.7219
81.2947
81.0353
83.1036
82.486
80.7508
81.0006
80.1391
81.2736
79.1934
81.9355
79.2508
80.5638
81.4934
80.0148
81.4979
76.9045
87.45
72.4322
77.1276
80.7426
80.1803
83.0752
77.6634
73.7845
79.0156
78.3147
82.4426
107.347
103.819
73.2764
78.9918
82.6599
82.7676
84.6127
82.0897
82.2219
82.1665
90.9134
87.1103
107.33
76.0199
77.2887
78.5448
82.7831
82.5735
82.8462
86.1888
78.1769
87.1885
84.143
81.8434
78.9219
81.5621
88.6618
82.0872
76.0332
77.9096
81.3319
84.1762
83.8869
82.633
78.8455
78.6609
85.2014
79.3075
78.3747
83.0023
90.0285
82.1301
88.4842
85.7727
85.263
77.5522
83.6702
81.1312
82.3029
82.975
81.8998
83.2838
82.1156
81.4284
82.4233
84.0068
82.8587
81.3427
107.298
108.073
82.846
82.3911
81.3529
82.9388
82.1427
81.9078
81.4406
87.3158
83.9306
83.3426
82.926
77.4594
82.6363
77.7221
81.2771
88.5014
79.9024
78.4617
82.6204
83.1276
87.9609
82.0171
82.034
82.5353
83.1994
83.177
87.0159
92.3968
81.3024
83.0224
83.2806
85.7031
73.2967
83.8712
81.5265
93.6453
83.1497
83.553
80.1981
78.5939
83.9794
78.0169
83.3903
83.7
81.3944
81.917
83.3079
90.5839
81.4709
88.5462
82.3724
84.1727
82.1696
82.458
82.5534
87.2564
80.2779
91.6769
77.7231
76.6759
85.5418
87.8451
88.8222
82.8414
83.4506
81.2574
92.626
79.4364
82.6876
82.5193
79.0644
81.8763
81.9722
78.7116
82.9406
78.9711
77.5911
83.1187
86.8069
80.7972
83.6937
80.792
84.8862
91.6651
80.8138
77.9949
81.4302
79.6865
80.2932
82.1483
83.2313
79.5699
81.6297
113.28
80.2184
83.6503
80.7055
88.3948
78.3468
83.0999
83.8942
88.3648
82.4014
80.9278
79.4172
95.9306
85.7044
83.1946
82.4599
77.3132
88.3893
80.2377
82.2664
82.9478
82.9996
79.4461
79.0972
83.0456
82.6924
82.4396
91.0329
86.2525
79.6878
80.6517
88.6417
87.966
81.2074
79.926
84.522
83.9264
83.4327
83.6725
88.8407
79.3375
83.9211
77.7882
79.6619
82.9514
83.7308
88.509
83.3471
84.7935
107.173
106.435
73.082
76.8544
79.3916
87.8783
83.942
83.0466
82.7552
82.4588
82.1925
83.0394
81.4437
83.7242
83.1294
83.6031
105.611
84.5103
83.3209
85.1058
81.1304
79.5883
83.9035
81.1181
88.5977
97.4365
82.6526
79.3524
92.7624
79.5137
84.0681
118.909
85.3854
79.4544
81.8646
100.401
81.3621
83.186
80.1514
78.0928
80.9608
89.027
82.9756
80.9954
99.4653
84.7809
88.8306
90.1042
88.353
83.842
79.0052
89.4853
78.8557
80.7023
98.6549
78.0015
83.2261
83.8518
98.0741
97.4097
84.8454
91.806
83.5803
82.8386
80.4895
83.4906
84.3438
80.1529
108.635
83.9903
90.7936
89.4626
93.4965
94.3398
98.7585
79.6047
79.5346
95.0279
96.6947
95.0524
83.7713
83.0739
87.9945
88.7051
89.0703
98.6024
78.2368
96.697
100.888
93.1492
88.2308
79.2144
82.2827
99.4019
90.3681
95.8973
82.7695
90.1366
83.5869
81.159
82.2924
92.213
83.9856
82.8524
81.1462
79.7493
81.7258
82.7514
94.2105
79.7164
83.9228
97.2405
83.3666
81.2122
82.7548
99.3487
84.1178
90.8812
101.714
130.628
87.3403
88.5347
83.7455
80.8924
86.1761
88.073
81.6371
84.5572
101.646
79.8147
83.9641
82.3015
85.704
82.7018
78.2347
84.6494
89.1373
88.1548
79.1889
83.7741
69.309
89.8868
89.6545
87.0816
87.221
87.3378
90.5591
88.7021
93.3547
82.4051
82.2154
89.1993
82.6684
84.0336
79.4226
83.8658
83.3562
83.3417
81.8203
84.0523
78.5667
83.3255
81.4708
88.2796
83.0917
81.7514
90.0626
105.514
90.3997
87.0327
77.1947
103.722
80.048
82.9196
82.5241
88.4777
82.7694
83.3126
82.7453
83.6638
111.184
83.3344
78.1294
78.2522
88.2656
88.7158
88.3908
83.892
79.317
82.3234
81.7525
85.009
87.3145
98.9853
83.9377
79.4218
107.062
89.6969
83.7385
83.658
83.2606
97.5946
67.7986
73.824
82.7153
88.5853
83.9271
78.7011
82.8996
83.4713
88.9332
85.4223
83.273
75.204
73.9933
105.978
90.4505
82.2657
76.4056
88.7598
84.1629
81.3881
83.1978
81.2242
81.3994
81.2547
80.7857
80.7352
81.8824
84.2871
102.988
105.318
90.499
84.9493
83.1045
83.8343
83.5546
88.3367
81.4574
80.6233
80.8171
83.8066
82.8499
88.9922
84.5391
81.0846
81.8902
89.132
83.2224
88.4394
88.5345
90.6089
80.0036
88.7968
77.4572
99.5095
81.4862
99.4705
82.0673
85.1838
84.1144
84.6636
85.5716
83.667
83.4888
82.3156
84.0472
79.4604
88.7494
83.6552
85.2807
83.1345
62.3496
84.3047
82.0513
85.5136
77.2366
84.1228
85.2628
81.2313
98.849
78.7735
83.9856
82.6864
81.5172
82.8925
79.7975
80.8507
78.7316
81.5848
82.5784
85.3033
84.3089
86.0273
84.3316
82.6539
80.7197
80.1321
82.5554
78.3543
77.7482
78.6758
88.5361
85.0023
84.6547
82.5229
83.29
91.4147
81.564
78.6628
78.2758
76.7021
83.8852
90.0576
85.714
86.1509
84.2289
88.8805
81.6748
83.2612
89.0724
78.1669
82.2693
94.5918
68.3315
84.3083
78.2114
77.549
89.3096
68.8673
74.9397
89.2029
76.5393
84.8094
86.3026
84.003
80.751
78.7433
88.3844
91.5399
104.035
81.7214
84.3165
78.5056
82.428
78.219
84.0338
80.0097
81.1662
74.6783
91.3693
78.002
82.3555
81.7278
85.8841
102.918
80.9215
79.258
83.265
83.1545
82.8468
78.0691
83.5044
88.1414
81.6304
82.336
82.8566
84.3685
83.8733
80.4252
81.6926
79.1593
74.8201
78.9872
96.9571
85.0365
78.1309
87.4169
79.1197
83.3191
67.9035
72.2438
83.4521
91.2737
76.7214
107.517
81.4918
85.134
84.1337
71.5336
109.942
84.1527
85.8709
88.7163
87.6832
78.3633
83.2242
88.0152
84.7573
87.7062
88.6429
82.4978
84.024
86.0046
89.2061
89.1376
84.2874
80.0005
82.0979
83.7199
108.608
84.2609
84.9766
104.797
88.6218
84.2053
83.371
92.3673
81.347
109.027
86.0877
85.681
82.1475
89.2541
85.0799
85.5485
83.2789
85.0237
86.0222
68.0263
82.8988
89.1465
84.4035
83.8171
80.351
92.3969
82.2193
85.0354
81.3257
105.209
82.4683
106.144
83.6485
82.6104
99.5513
102.08
82.8792
81.0629
89.1903
84.5811
69.8057
85.7351
82.5509
83.7656
70.6881
73.6903
89.2352
83.9114
85.431
81.3853
82.0512
82.7231
82.2911
84.4392
82.9348
83.5156
81.8301
83.0622
80.3204
77.7525
84.4659
88.1468
70.557
83.9592
82.8717
88.7117
74.4578
83.8106
81.3021
84.7991
81.6091
81.4229
80.1477
92.2909
99.6101
89.2469
72.3838
84.4104
83.3664
81.7294
77.1048
103.452
105.762
83.6926
81.7242
85.5818
88.5445
74.5427
83.1106
82.2854
86.9137
86.8301
106.182
83.8109
82.0941
83.2344
100.526
75.3544
102.217
84.6807
82.0252
84.2631
90.725
82.2845
89.6928
83.0199
80.1644
87.0642
91.0903
84.732
84.3211
79.9294
70.92
79.9871
83.147
89.0992
84.7176
78.6563
76.1087
81.8671
84.2367
90.0681
83.6449
79.5085
79.1337
88.5474
88.2893
89.911
77.6539
82.832
81.6763
83.6243
77.042
82.1964
82.0557
82.2421
82.2484
77.4765
86.9678
84.0335
84.9202
104.92
83.3429
107.821
87.567
87.4505
90.2633
76.0576
84.2897
67.1965
84.4765
80.9062
70.3271
84.2955
81.1224
84.271
82.4103
82.7458
84.7783
65.6162
75.3418
78.893
84.1504
78.2171
82.9592
106.655
84.1859
79.6251
88.5395
82.7427
83.1748
79.7036
82.9799
83.6096
79.6508
82.9204
79.5684
82.7131
88.35
80.1394
88.4887
86.076
83.4308
74.4314
82.0074
82.8541
83.5605
83.0476
83.5424
88.9326
84.1006
88.1859
85.8535
83.691
88.8631
91.2815
85.7851
82.3531
111.69
117.209
83.0402
82.9603
80.8821
80.4254
79.1967
82.5154
87.3408
84.3829
80.6223
79.516
85.2318
87.105
82.9923
85.1974
79.021
83.8429
80.5398
88.9261
84.4441
80.7321
78.2927
81.0436
79.0237
88.5233
82.8712
77.2596
86.8292
90.9018
84.2499
82.7888
82.7965
84.1078
83.703
80.9391
83.5082
82.2922
84.4276
85.3411
82.557
77.4507
82.7049
84.3883
76.8593
82.0309
79.1841
84.2163
82.99
83.0067
84.8193
80.9828
89.7485
78.6297
63.2064
88.3263
80.7124
84.2547
108.247
82.4472
82.0155
75.8538
84.354
78.0221
79.9267
88.2949
82.554
79.1818
78.1414
86.8622
80.5733
82.6714
81.9118
79.9582
83.1803
88.4163
83.9916
83.572
82.5883
82.1918
108.027
80.0822
85.5565
84.6431
83.7523
90.7855
79.59
90.9086
89.8783
84.7603
84.5745
78.0628
82.8437
83.636
84.5769
80.0402
112.493
77.1469
84.8182
92.366
80.0934
104.488
88.0487
91.9022
83.2447
87.2806
82.3311
84.0133
84.3867
84.7071
72.8788
83.8113
80.4429
80.0961
85.7441
79.7917
85.4143
85.4698
85.0028
89.2811
88.9135
87.9801
84.3466
77.2024
86.9156
88.2168
89.0472
88.5386
82.8157
79.1791
80.6037
78.1287
89.4374
104.908
80.7801
77.3979
80.2791
78.4007
84.44
88.463
90.1596
70.8551
114.645
66.2415
70.3425
104.525
74.1928
77.1389
81.2533
)
;

boundaryField
{
    frontAndBack
    {
        type            empty;
    }
    wallOuter
    {
        type            zeroGradient;
    }
    inlet
    {
        type            zeroGradient;
    }
    outlet
    {
        type            fixedValue;
        value           nonuniform 0();
    }
    wallInner
    {
        type            zeroGradient;
    }
    procBoundary0to1
    {
        type            processor;
        value           nonuniform List<scalar> 
29
(
71.6081
71.6781
70.1022
70.1022
72.6252
72.6252
106.976
74.4086
77.4245
73.256
74.1759
72.7945
71.3084
71.6812
107.325
107.582
72.1877
73.0501
72.0051
71.863
107.433
107.279
74.5983
107.558
107.715
73.0501
108.343
106.853
107.558
)
;
    }
    procBoundary0to2
    {
        type            processor;
        value           nonuniform List<scalar> 
42
(
80.4328
80.0097
83.9347
83.781
82.7906
80.4328
83.9347
83.8701
83.228
83.3161
81.5875
80.0082
81.5875
79.2546
78.6518
80.4801
78.6518
83.2243
83.3553
73.3179
73.3179
83.2243
83.0029
75.1219
75.1219
82.9585
77.0719
83.0925
78.8715
79.2421
79.2421
83.3501
83.5568
83.6265
83.6461
83.9347
78.8791
84.0254
78.8715
83.8701
83.7365
83.689
)
;
    }
}


// ************************************************************************* //
