/*--------------------------------*- C++ -*----------------------------------*\
| =========                 |                                                 |
| \\      /  F ield         | OpenFOAM: The Open Source CFD Toolbox           |
|  \\    /   O peration     | Version:  v1912                                 |
|   \\  /    A nd           | Website:  www.openfoam.com                      |
|    \\/     M anipulation  |                                                 |
\*---------------------------------------------------------------------------*/
FoamFile
{
    version     2.0;
    format      ascii;
    class       volScalarField;
    location    "0.24";
    object      epsilon;
}
// * * * * * * * * * * * * * * * * * * * * * * * * * * * * * * * * * * * * * //

dimensions      [0 2 -3 0 0 0 0];


internalField   nonuniform List<scalar> 
5794
(
24.5242
0.777821
4.17082
0.857284
9.3204
2.49389
38.8858
74.708
152.464
12.5011
41.4592
1.17245
5.03595
3.76387
6.59463
0.538314
162.775
5.09581
4.97487
1.16476
68.532
9.51517
13.0683
2.21214
53.4324
118.58
114.686
16.4157
114.984
3.51298
1.53581
7.24376
9.41307
1.28096
51.5394
49.9003
4.4374
1.71264
2.33904
10.2093
6.34502
8.14633
9.65768
8.45874
7.45661
47.6895
6.81267
23.7089
6.25057
23.7835
0.930294
86.0651
14.9237
4.246
0.107474
39.7547
10.0174
28.7429
5.68091
250.954
56.9397
1.57847
4.84944
9.86789
19.7981
0.786011
8.80219
11.5139
3.11369
2.7856
87.5925
10.7565
93.0176
5.71687
3.79023
36.8935
1.21522
77.3869
8.73845
0.243652
9.22891
1.49345
3.38392
9.54878
1.34392
35.0676
9.24821
37.0742
2.98209
8.97381
48.2262
6.64619
40.2143
38.248
39.9785
92.9747
32.5199
47.0562
5.21986
62.7595
52.5117
2.63174
7.36326
3.93394
4.36293
21.1987
1.35749
5.53567
62.4019
9.34544
0.977589
8.99337
58.4681
0.3216
18.5779
30.6013
2.8258
2.20357
51.7369
22.227
16.8015
8.55615
0.701269
23.3503
14.9393
50.9992
3.53445
1.66762
91.7973
14.9646
1.63028
6.69681
6.11421
64.4307
58.715
8.56747
122.446
1.48729
0.465514
0.786517
3.90105
10.2272
16.4721
7.05344
0.891797
163.681
0.804848
43.5211
4.69488
11.5256
13.0985
3.55934
36.8479
0.842876
148.791
5.27369
2.8852
2.87256
82.2504
1.57941
7.46643
18.9849
1.35621
35.3793
52.4958
75.0505
26.1644
5.87434
0.73101
12.8592
4.16765
21.4949
13.3482
18.5005
1.84548
20.5957
4.39256
56.8811
1.38845
146.478
1.40939
15.8172
1.09005
6.02131
4.24638
100.328
4.06945
6.81756
9.43573
2.48284
53.1867
9.48761
8.79328
0.938597
5.00605
2.10559
77.499
0.41184
4.49899
6.94486
35.6254
102.215
16.7039
13.6241
6.71592
55.5995
0.90439
13.32
5.34612
89.5281
13.5424
10.5
45.9179
18.6464
1.17436
42.8052
21.3724
4.71689
34.9613
65.1498
10.0193
12.7166
66.5164
40.2558
137.257
27.6492
1.6886
18.1952
5.17525
4.78375
16.6169
38.8419
1.08813
69.1596
1.55541
13.2834
10.0283
31.5774
2.58192
8.0718
1.43543
36.0303
57.2819
1.01723
1.13562
1.77138
9.64847
3.03708
51.4459
37.0033
8.73359
0.58733
161.04
0.404493
5.00058
11.8155
6.91824
16.2822
6.49606
11.7391
73.0727
40.0065
13.3597
0.230991
21.9945
1.12721
7.22607
73.7408
9.10182
57.3279
6.20249
12.8947
25.0385
93.792
16.6228
3.83202
4.28309
3.68211
0.797991
6.88128
0.690769
41.121
9.65387
7.6513
14.6162
68.7066
15.4643
35.4102
45.2592
60.4572
35.4312
41.6888
1.10501
6.94347
4.90543
106.192
16.2763
3.71036
18.7268
0.222477
2.00986
55.8158
5.48002
68.6311
9.18899
78.0984
0.596262
2.34679
66.001
5.21124
8.55967
28.1531
99.8276
0.262502
9.81855
34.7936
10.2724
12.1753
48.3104
146.419
39.5191
25.7475
0.989987
5.44974
0.565292
3.61698
9.35772
1.43983
4.18516
40.6086
128.296
8.85236
0.520504
8.90992
6.60139
12.2812
10.0476
1.08202
7.16888
4.20066
2.1637
55.9973
149.235
13.7273
4.01825
1.06897
4.29252
22.392
85.9439
2.23651
3.02151
109.11
7.70143
12.516
1.10881
70.177
4.61992
107.191
37.584
72.5331
11.9519
1.43229
95.7209
34.631
47.2314
3.3466
63.5737
51.5343
9.84337
31.4611
2.51084
0.446959
3.17598
1.54908
24.522
46.7205
33.5536
11.1722
38.4751
0.203945
3.74127
2.32799
12.4836
53.4934
43.4609
1.29687
68.7784
42.1581
24.0725
22.2749
3.9928
60.0584
2.56823
1.34159
10.8992
15.202
1.51428
6.66215
7.39195
24.9157
1.65112
54.5053
33.2518
1.33964
9.84068
42.2671
12.3395
2.8555
1.40287
33.6524
64.909
5.06114
36.1501
23.7284
74.7912
7.1303
12.4417
2.65063
40.8645
30.7539
5.08086
53.2464
16.9506
2.57481
24.0637
31.3341
1.8015
0.395687
0.826332
14.3233
93.3178
5.75562
6.57868
84.5329
5.78058
3.52258
1.44466
9.28923
33.0288
26.4687
1.44169
8.11183
5.20553
1.65351
3.46063
32.6478
24.9405
0.163885
8.02213
84.0646
10.403
1.01648
100.617
12.3284
37.6181
0.229201
34.1339
114.797
39.3989
52.8885
9.12931
1.08906
20.7098
2.6139
69.5658
15.5026
22.6017
13.6656
21.0006
9.10184
0.269941
7.91683
53.6043
3.9831
14.4067
75.845
28.2011
8.31571
6.8954
1.15616
30.7518
10.2654
6.16469
3.97482
13.2503
36.8704
10.4294
4.13454
83.0007
9.80057
1.19847
0.757361
0.886738
3.20547
19.5623
0.91281
3.92325
2.11103
0.288621
36.967
8.3836
18.986
8.53768
3.57139
7.03032
1.25412
5.13136
27.2151
41.2987
0.591755
87.2853
0.454433
4.51848
0.171285
0.194604
10.036
31.7753
0.15887
5.61437
30.9099
3.66669
0.941232
10.9988
64.9841
17.7672
1.28204
8.53776
34.4745
1.11466
7.23233
24.1225
0.339181
21.2992
1.78156
3.01346
17.5274
6.60348
151.304
14.8438
57.9766
12.7383
102.376
0.99889
3.15326
9.37419
0.524616
5.60843
8.09792
0.252921
1.64774
3.2751
0.436123
5.16781
7.74853
1.27136
14.2399
21.142
6.0794
1.24215
6.27867
217.289
3.21375
57.7092
4.76277
2.59853
5.52849
0.527737
9.1644
2.37124
0.380003
77.9497
45.9774
33.3436
63.1131
91.9951
9.20683
12.4536
12.5588
5.34042
9.76432
44.1934
9.19968
56.6263
19.1259
82.1396
48.1894
0.469375
37.3482
6.71657
38.6011
0.513492
0.955476
1.34979
51.8251
12.1157
33.8345
0.154884
9.33129
0.316186
9.36305
3.19286
88.7261
17.0752
47.7988
0.200702
8.9438
165.534
9.5395
0.15189
6.26383
12.7302
15.9674
2.13911
10.4715
0.820076
3.86883
33.0377
33.0365
7.57748
0.735985
1.74108
43.5393
61.5214
10.9121
1.58719
1.25899
3.15256
12.6575
38.4733
0.377534
16.1143
0.869413
0.841089
3.45235
0.979416
5.56767
87.8751
26.3793
4.31197
15.8986
5.2824
8.33687
33.702
7.73177
124.073
69.7882
22.033
49.8637
0.67032
0.774995
1.98109
7.66418
1.67464
2.80148
1.7293
79.2366
42.7218
0.667521
52.4148
6.39098
0.251835
7.34755
11.1899
46.9531
1.20878
30.977
50.2089
69.654
16.4509
25.5266
33.268
7.27889
31.637
23.0663
6.04615
23.944
45.5524
11.2557
2.46538
7.2827
1.16476
13.526
2.77551
0.248413
4.66717
135.385
102.506
1.84663
1.1794
0.148593
4.66162
65.7277
80.4049
51.5229
6.90527
32.8404
18.4969
1.84769
1.90239
9.81307
5.11335
1.38862
0.382461
16.7009
7.72228
148.232
6.11178
4.69195
1.393
56.9184
19.1082
59.0625
40.2075
82.5772
44.7822
16.2021
8.69458
70.5008
46.9021
32.4083
31.3527
101.732
151.557
1.48401
9.49852
8.12303
12.8989
28.1814
52.4535
37.988
54.2014
42.9882
47.2691
28.3545
7.03904
4.44595
96.4919
15.1028
6.09557
41.1666
41.1074
1.82006
3.19421
10.1005
12.2716
59.9708
16.0064
70.913
15.0642
8.98236
1.66366
6.70202
2.00498
0.195017
15.2788
43.1941
5.18338
40.5396
44.5271
7.69144
5.64283
16.3582
43.6451
27.0312
54.398
68.6497
16.5107
31.102
7.51921
42.7735
6.19188
35.4564
11.775
1.32858
4.24264
1.29102
1.3058
8.9725
4.55846
1.8525
29.8593
53.3929
17.751
6.74211
1.05159
46.3519
11.9263
21.1217
49.0886
10.5916
0.355864
42.1505
14.7314
24.9236
3.9123
14.6591
0.996862
147.492
12.3185
85.7759
9.89677
11.43
5.18038
0.202996
1.53079
5.49136
29.5754
22.3997
82.7465
69.5749
49.1508
3.92537
10.5644
30.2739
126.792
0.889131
1.39835
10.3104
44.5357
1.40638
3.94289
20.9307
42.9811
24.8355
0.306294
17.4019
3.85119
4.18053
5.77336
7.191
36.4649
36.2995
9.31605
1.66214
1.84892
4.39392
7.14721
101.016
12.7156
1.89922
3.97162
1.41847
22.3948
2.28689
25.9036
0.192654
4.07421
5.66287
10.741
19.276
20.0198
50.0583
34.6961
23.7111
71.9527
39.671
30.3106
31.6619
0.178693
1.13739
5.28831
4.97938
9.29598
3.1288
57.6556
39.0954
107.518
19.2799
1.39519
9.67726
0.878894
14.1257
52.3632
2.32496
274.354
3.02852
2.01633
61.4428
14.8537
6.52803
1.1948
2.12208
12.5233
6.86297
0.930189
1.87434
49.6723
74.0389
10.372
10.08
35.076
7.21553
25.988
49.9185
89.5193
74.4505
7.86607
9.47422
1.01568
11.7526
0.365398
0.313243
1.12091
3.0187
25.6058
1.56308
7.35655
0.4808
5.84214
87.3186
7.02767
8.35714
9.81538
22.4259
29.7298
8.76334
33.0598
6.29142
0.546037
29.3138
11.3706
39.8781
7.89851
80.3252
14.1429
36.7994
2.21672
32.4734
28.5698
14.7674
12.208
10.1161
5.04363
2.38449
74.9319
8.96444
2.98607
29.2731
4.94127
61.5981
10.6533
10.8636
1.37719
3.23753
3.90537
0.304839
9.28153
30.3956
154.738
6.94418
1.649
72.4705
1.05451
13.3582
15.0273
28.6435
10.043
7.17835
23.3606
43.6786
6.6704
13.1615
1.32107
3.04772
0.521482
1.032
1.18901
3.64858
0.17939
0.441548
1.3654
1.68421
7.95893
5.8223
5.34574
1.20571
0.426341
67.6474
9.71854
22.1304
1.66686
21.2996
0.672272
48.4267
4.82935
8.81789
1.52382
22.6545
47.1714
1.57298
9.99366
5.16877
0.169787
9.2298
69.3992
21.4625
14.3737
209.329
0.160213
11.0558
29.5129
19.2658
23.1293
23.8262
64.2298
37.0453
1.25433
8.62859
0.518737
0.465299
17.8094
11.6928
120.575
40.3269
68.4828
0.431407
13.2371
88.1358
17.2286
16.8897
43.8698
1.49517
11.2263
0.943399
35.7423
11.0061
5.71525
4.59178
13.0396
4.4126
4.81394
10.0137
4.88261
0.841774
14.2909
7.09325
26.2826
14.3455
1.58603
8.19929
31.8886
0.199307
4.62706
1.09768
6.4513
12.4684
0.187004
21.6657
1.20578
10.3605
17.971
2.39284
13.5408
9.06558
0.518527
8.12434
11.6212
0.148411
128.138
22.4349
3.55876
1.05828
19.9171
0.165313
0.678469
10.3641
1.81814
0.166037
1.47567
34.4504
19.7772
42.0917
24.7428
8.30724
55.1
14.2687
0.179188
1.60197
12.3064
8.38516
6.55582
9.12562
0.200417
26.3053
0.304351
7.66636
1.57923
57.5404
2.31749
12.2153
81.8635
0.606759
37.1996
5.77756
0.361182
5.67421
4.11705
31.5235
34.8047
0.438048
39.1624
0.502787
0.584831
17.6362
1.12997
5.50933
8.26887
4.14131
32.3751
6.09432
89.0635
0.770403
2.78644
0.999118
4.50064
7.10717
17.4594
3.43449
29.4508
8.00902
21.0957
16.0642
2.18649
0.903438
7.34175
9.10688
5.02787
4.25203
7.33655
111.741
56.9218
64.1848
20.2493
104.211
8.33395
8.3671
15.2977
1.30637
4.93136
0.1553
681.7
41.5174
0.169238
4.18774
57.1167
53.2536
8.93689
1.40668
7.22796
39.6716
17.4828
0.85688
12.0643
10.8361
6.29172
6.70768
7.98992
1.81248
0.221196
7.10729
9.09034
6.80208
32.4789
0.969776
47.3599
12.05
14.7042
18.1047
0.723255
4.33806
21.1612
9.24891
17.7713
11.7029
4.39366
3.00597
5.65372
17.9223
9.54117
5.79633
0.947364
10.364
20.166
1.95576
22.156
92.9189
47.7503
8.25948
5.33743
7.02429
6.67538
0.649566
24.9398
11.1072
23.2257
0.145448
4.08369
0.877614
182.67
0.178665
0.23707
7.68825
2.61015
1.14412
32.754
5.33891
6.04367
1.81376
6.27716
20.8909
121.362
28.8378
1.72359
1.59995
1.85382
6.05974
58.4686
26.7241
4.67534
8.61374
0.570491
4.7871
8.22091
12.8985
36.2585
0.855714
7.95836
35.7593
3.85768
0.513173
25.0376
18.9854
33.1252
28.5537
17.5456
8.51433
0.508297
3.3808
14.3607
2.11688
62.2423
1.11663
0.508448
35.6649
9.98478
1.46918
0.143774
13.0733
67.9939
0.422255
0.270765
14.0572
2.14956
1.65014
5.94143
4.52573
25.4314
0.17195
5.25351
3.81305
67.6674
9.61484
8.84281
30.7003
4.43941
1.13713
1.1862
6.33966
54.8738
12.2436
42.2109
5.14047
11.6285
35.5192
25.3212
4.78102
15.4684
0.659048
8.52356
0.1727
4.64738
3.78736
7.71757
6.17646
7.44805
2.68446
4.73743
25.3737
0.19029
1.20486
7.39019
5.20552
0.227958
5.10528
69.4196
9.35798
50.9486
44.5649
1.8561
1.20455
92.1571
0.981
33.9966
17.3724
6.25766
1.3959
1.21306
11.7181
0.625058
13.6082
0.386159
6.24733
0.213315
1.25656
3.45575
35.0326
6.02074
34.6682
22.7417
6.71097
8.83755
0.461627
4.98569
7.6971
10.6271
1.70642
4.99564
0.425664
10.059
24.8763
11.2802
100.168
51.759
27.9915
22.2589
6.53114
0.173743
3.48001
22.52
2.569
111.076
0.444639
0.218342
2.53127
16.7142
0.523367
4.61775
15.639
1.24571
5.34019
10.7093
4.86903
0.923484
7.60353
4.01371
35.0287
22.5021
0.206509
22.5
32.7906
4.40332
18.3774
1.67506
68.8364
0.320012
1.6403
0.921587
9.55112
338.409
11.381
78.7927
7.31544
28.9892
105.373
18.2684
8.73335
0.32944
0.67742
0.402704
0.21498
4.23371
10.8155
0.382183
19.0644
0.242263
0.542918
7.17707
16.6329
0.307048
1.32226
0.205543
2.51473
12.3538
0.943098
12.6353
8.83753
0.745557
1.62676
0.217158
0.825332
13.0831
6.79242
9.54405
0.257226
0.627936
14.4861
6.43073
0.796546
0.357597
0.600021
0.329625
0.321298
6.87925
0.576994
0.171808
4.8514
0.300108
5.56954
10.5793
1.38873
7.21878
13.4376
0.244894
9.32585
26.864
67.7695
5.21677
1.19068
0.151161
14.6043
1.80364
33.2875
1.32406
175.368
10.218
75.2609
36.0375
0.211114
0.199293
0.181058
4.24984
3.14687
7.33132
0.237828
4.05586
5.66202
14.3312
19.7703
4.01533
5.02012
27.8356
14.2812
240.66
2.07026
23.4677
51.4595
11.9172
5.17181
6.26526
88.9887
2.38541
31.3022
4.23437
11.2753
11.5748
1.45761
11.493
13.9056
589.904
1.4279
9.49101
1.0018
7.77129
4.68173
3.61028
70.3099
7.02117
0.540224
0.245433
12.7482
5.27983
0.377119
15.5358
0.210304
0.503024
2.25276
0.156366
10.0912
5.85863
0.230587
11.0092
6.25745
15.3951
7.97021
1.55232
1.01622
0.491745
0.340143
10.1687
0.649494
37.3203
114.189
0.95555
18.7506
2.76801
13.9162
1.59275
0.154861
61.6499
4.81592
4.91573
41.6175
3.81141
5.36035
0.250151
3.88747
36.8749
4.89298
22.6568
64.6095
8.9156
0.145284
9.93384
23.2665
1.73556
8.55018
11.9972
53.9163
1.57673
7.15082
0.316884
3.93569
1.2793
5.31635
5.73712
0.498607
101.046
0.223408
64.8181
1.30271
0.217819
0.15703
1.7901
0.318737
0.369596
7.18171
1.02705
96.3039
10.7386
0.869868
15.693
3.26931
5.94922
18.6232
0.821572
9.10311
8.11497
2.33782
39.6894
9.55467
0.812207
23.4989
10.0897
12.1414
10.251
1.12242
0.271563
4.31906
15.4392
0.334785
4.52682
1.7545
0.167459
10.1717
66.4641
77.9239
13.4602
3.54483
52.2642
0.172455
12.4715
8.63627
2.00022
12.5295
10.1107
1.05537
25.1018
0.148382
10.4204
5.55177
6.91839
8.00407
1.66239
11.1296
4.10579
1.42128
1.50237
0.756226
1.76873
23.956
2.82405
12.178
68.6404
39.9038
41.315
10.797
25.3146
27.5993
26.4024
28.0356
7.36291
4.52859
29.0298
11.3252
31.3384
103.224
111.333
15.582
80.6127
25.2816
17.8277
7.90695
1.55232
53.5706
56.4059
20.1412
40.0051
21.6345
113.757
29.0957
24.4894
61.1416
5.50213
9.86515
7.18625
0.786002
1.40035
9.07968
39.8485
0.840354
0.320162
7.30954
12.2651
22.2446
17.6288
16.4426
13.0112
20.5845
32.9096
1.26231
8.53125
5.4236
25.125
23.6665
7.98211
19.098
2.90647
4.38978
2.97243
9.30086
8.98108
1.62983
33.8651
7.98357
1.35329
1.34251
6.24631
0.270257
3.82143
37.3226
31.0149
4.53445
1.12706
1.85627
19.6082
30.0743
36.8795
24.4264
1.55709
4.53713
1.41857
4.76543
6.59185
5.60878
110.817
7.52234
5.49938
4.90906
4.97805
0.304956
37.1538
0.593075
21.5399
3.90167
0.276865
7.18139
3.6617
1.52618
4.13832
1.2348
2.67885
59.5585
4.57329
3.98462
5.86426
1.14741
43.109
159.734
3.21628
74.1006
20.3323
4.91733
151.798
1.07186
10.5478
139.566
20.5931
80.7374
4.25894
2.2107
113.974
154.298
67.1618
8.70457
6.33989
11.1381
8.66684
4.11581
105.347
3.84498
1.34115
35.1572
3.82616
6.88207
1.10425
1.88979
44.7794
28.5694
34.4452
99.2378
128.813
11.9606
136.649
4.42275
37
32.6296
1.18654
119.262
6.97681
95.7146
43.3908
35.4468
1.13319
107.624
93.6646
13.7794
106.231
101.077
3.88576
40.3404
43.3378
15.0893
12.5456
51.3499
15.2498
76.2084
35.0369
28.7736
7.20902
30.4727
12.1256
38.3093
7.63808
1.29981
1.05852
183.997
1.0315
8.05521
0.315242
39.7611
18.2584
4.38426
4.27124
4.62596
7.45439
2.05231
4.80765
3.89399
9.86006
1.17089
3.16792
4.49717
1.16863
33.9458
37.6236
15.1914
5.06657
7.84456
7.47477
8.85893
11.8143
14.4725
16.1465
24.0241
5.76646
0.242399
12.5957
17.18
53.0926
7.67827
4.04006
1.47518
6.62869
4.08163
12.0453
18.4016
4.80235
8.99329
6.6248
47.7808
7.92235
2.37814
37.4401
5.70899
2.27945
5.28983
2.03004
7.90699
5.80608
74.8349
2.93129
4.57374
5.82521
6.47177
5.49392
7.95568
4.00267
2.09758
5.76988
5.62063
4.99181
2.14662
2.52779
3.15486
5.58516
3.90216
6.16728
4.29394
8.56998
16.2037
4.42576
0.979688
3.65513
0.469966
9.25727
1.31961
0.679476
16.9569
13.3973
43.99
9.60237
1.06686
4.94445
6.3638
4.34385
39.5718
97.0035
44.889
33.2004
3.54419
4.94767
39.5644
1.84526
20.9979
1.03277
8.26154
0.832807
45.5655
23.573
1.88845
34.414
12.7542
9.92623
10.5494
1.80309
0.649881
43.6812
40.2561
37.1634
38.588
23.3058
11.7002
1.57282
0.863182
49.8347
19.4676
15.855
42.9028
73.5908
33.6149
32.9745
61.8679
51.233
10.2487
1.25978
17.2981
28.2654
64.2709
14.6297
1.51247
25.1856
6.78102
38.445
41.5704
8.22926
1.93485
0.785683
0.572194
59.1356
98.5039
41.7378
75.0236
0.506266
49.7511
30.8127
6.73661
5.74102
9.6213
1.6588
36.8685
34.6208
9.60594
19.3473
1.38414
9.42783
33.2859
0.622116
28.7397
39.1428
11.8667
60.6993
40.9654
40.5827
129.255
9.50892
4.81276
19.0224
38.388
32.4423
15.9035
1.57115
18.5439
41.9162
26.6496
19.2161
31.8108
8.55447
1.25347
0.800994
29.9482
25.8137
4.92545
43.0508
122.109
135.272
113.257
30.8489
43.1847
13.1932
9.99647
0.307995
35.1347
6.07126
65.2597
51.3934
4.86764
9.66079
93.9067
3.60471
2.80594
32.1683
28.5782
12.6087
4.51655
5.63762
82.8996
18.2217
1.64427
27.8473
5.06202
5.03924
3.0615
35.7453
24.5986
5.14716
18.6719
20.9924
43.0241
9.34585
0.680615
0.646452
0.825568
3.05046
6.83092
3.69401
83.6819
92.2325
23.5623
1.2046
130.906
24.1488
35.1812
7.77514
0.197769
48.0611
5.32272
1.12678
5.11509
115.499
59.7097
30.4368
8.03501
103.716
30.1523
16.6599
1.3352
8.76205
2.74749
11.3713
6.79558
7.21403
9.79048
8.53079
23.9368
39.3193
9.66394
3.18124
17.5267
33.7595
13.6433
49.6791
28.9282
18.6821
10.6023
44.2232
4.58191
1.5611
56.1356
19.9831
31.6236
40.8917
69.9414
30.9645
7.33787
3.72365
3.60792
17.2297
10.9153
8.79644
0.567061
0.642156
3.11679
3.24027
2.58279
54.9169
23.8378
24.2642
4.27721
4.26275
6.51299
9.64703
3.32731
4.09309
3.41473
3.2496
3.26626
18.5624
6.6102
33.1317
26.2622
11.3099
0.399942
65.4152
8.85243
10.9115
3.05592
44.1887
126.127
20.8597
29.3337
2.44364
39.2941
5.27334
11.7177
0.373196
0.194207
15.2281
17.3922
41.6877
9.27254
1.04386
0.764273
30.3057
8.44798
4.61631
78.2978
1.30328
5.95891
7.69117
7.54718
6.40066
27.8402
156.18
43.91
2.87983
6.29375
46.2297
22.1887
5.53133
3.07198
14.691
5.27381
21.8462
7.85499
0.22118
9.89086
6.38058
0.319073
13.4393
5.66493
11.6137
9.23834
4.22283
3.13999
8.45385
4.28902
18.4279
6.89087
4.65721
6.02134
1.53385
8.90172
7.33464
13.0044
9.83165
35.6358
64.7378
19.4279
61.5688
4.68395
85.6067
28.3735
91.6028
1.20596
1.82228
6.6022
24.6247
5.65063
0.415709
63.5401
4.02385
6.11852
7.66858
15.5844
18.6698
5.33917
45.6223
16.4088
2.22401
2.66841
4.08624
4.06367
9.97869
0.406088
0.595207
6.01318
7.17936
17.7147
12.4242
0.440948
72.0291
44.2424
172.635
113.541
11.5637
3.46685
4.81838
3.93084
32.2923
3.951
4.34153
32.1218
35.6133
1.86484
20.4926
25.0348
82.5649
74.6823
6.62247
24.4331
2.47375
7.01215
12.0858
1.38461
6.21844
3.73101
9.73418
21.7183
40.7453
14.9747
33.5165
1.5527
6.49076
21.5751
21.6462
6.69627
23.986
26.8079
33.063
4.47182
19.1779
23.0806
89.2595
7.73341
7.70078
1.53031
0.306682
42.5693
6.15087
5.83446
158.196
44.0883
347.797
2.06084
15.0704
28.6508
33.2617
11.4143
162.768
32.3521
0.358515
0.203599
5.379
0.297514
1.75454
42.6966
3.03096
42.0567
17.9943
37.7846
46.8893
4.59651
16.3103
60.789
15.3929
30.7687
554.219
4.81124
5.43602
32.5719
83.7061
4.131
36.4493
64.1831
5.15582
2.02201
39.4332
4.31315
7.84957
12.4762
0.236107
6.4801
2.00352
3.06763
9.24215
71.6736
3.7588
5.23806
14.2632
26.3721
29.1371
143.149
0.711099
76.2232
10.1156
8.61411
6.71196
1.14384
6.2142
78.5594
13.569
56.692
4.09878
105.283
69.012
5.41635
29.1462
7.05241
5.57684
8.27324
0.164212
15.7992
52.2662
10.1323
7.61261
3.82192
8.42845
23.1703
23.4802
4.62972
40.8925
5.62522
76.3926
10.2293
1.80906
0.323888
6.75997
11.6204
47.3075
4.53857
38.275
99.0893
3.66995
10.371
66.4048
6.42713
1.39078
64.7206
1.65347
1.11593
7.02843
12.5743
44.7794
3.48196
6.72587
36.1488
0.261595
2.08547
17.5552
30.3072
18.0241
5.28525
21.0387
18.3084
14.397
13.724
11.197
9.8675
9.70177
0.313746
0.57466
9.11383
50.5247
2.90248
8.23059
68.543
8.55116
35.9497
23.6157
7.58365
4.95557
3.84683
41.6257
4.76818
1.39644
1.60469
3.85347
21.9223
4.45844
6.99212
4.44039
51.6735
40.441
4.90844
34.66
43.6017
41.5532
9.72431
35.3594
0.431795
15.1137
42.4218
9.30363
0.349002
0.567292
1.49345
1.94548
8.2188
48.8367
1.39352
9.44004
7.52469
3.7292
4.6714
1.9419
6.94462
56.3334
1.25886
13.0064
60.2289
5.91571
2.54679
10.5943
0.395726
0.524823
44.4023
13.6549
5.68955
113.185
13.0641
25.2102
73.6563
45.2169
6.44591
0.376328
48.4978
0.250401
3.72842
75.6872
33.976
5.17586
1.89484
3.94509
19.4836
30.785
0.210404
0.610437
4.12549
34.3422
5.09897
7.50135
4.32989
13.5712
35.6546
11.3507
1.71143
30.858
95.7701
144.239
32.9518
9.60631
4.99322
16.5947
20.9508
10.1047
4.07357
3.22179
7.27192
6.52251
0.838159
6.86175
3.63387
15.0493
25.9634
0.168665
4.72733
5.74266
33.3722
1.79174
5.09779
3.8068
1.92085
53.2296
27.4287
16.3341
6.85432
0.389338
0.497272
10.9035
8.39703
94.2812
0.281765
24.1047
5.90871
14.7399
1.07714
10.891
9.68583
70.9521
15.3566
0.316934
0.498297
6.05756
25.8721
1.68178
6.10515
0.165875
6.88201
1.70479
0.346526
3.42161
4.5394
5.91327
30.3398
16.2094
4.86613
37.431
4.54007
6.46561
7.85029
0.446096
1.48764
10.7539
1.46087
4.39542
1.76839
5.71795
6.24434
35.7485
3.55787
1.21385
6.34981
5.40853
31.1585
3.67455
3.95172
10.0786
0.330685
0.485868
4.67524
0.408226
38.1274
86.4211
3.82271
6.53057
0.521739
12.8023
0.194211
30.4214
4.62376
53.6009
23.1595
2.86157
67.3241
0.406281
8.40167
8.76585
58.8462
11.2029
98.4679
5.42214
3.94029
0.456342
6.81499
1.49547
2.84418
5.71061
23.0131
24.994
11.9995
1.58202
5.38447
0.339205
6.57867
6.79526
6.53967
12.4966
11.9979
4.81491
13.3715
34.2593
7.93519
15.2718
8.19203
10.1
1.30708
2.44189
5.14045
44.1975
12.0209
0.481147
9.08142
0.421848
2.80799
16.321
1.30304
3.53059
3.7748
68.5835
6.24034
11.1468
6.40014
8.92255
36.0368
5.35865
26.3679
11.9793
7.50389
3.85304
4.32851
7.23349
11.8062
5.94407
7.50218
10.0286
0.157855
3.32145
5.21872
0.617353
4.15928
0.491816
0.589567
0.875013
0.152385
11.709
0.386467
7.71381
7.15607
8.69356
6.44561
1.09633
1.61836
3.857
12.5166
13.683
7.6606
9.93456
4.46847
3.58191
65.0466
49.6678
3.15624
133.576
5.73554
2.81757
146.269
88.9755
43.1742
0.331235
0.464427
0.458165
0.403273
0.46412
7.65005
11.2014
66.5391
0.249165
0.384294
7.57046
5.06852
10.3214
3.41381
0.303119
0.166049
50.5896
10.3827
21.0274
29.5573
2.75933
14.5962
27.3589
26.6948
48.767
0.170935
13.1777
17.9332
7.36957
25.2366
8.61638
0.354458
3.04808
19.941
5.58667
1.05043
14.1957
0.512916
7.26221
4.59959
4.25028
9.42716
0.240273
4.82814
2.12493
69.2387
0.688603
2.41662
0.150831
6.16075
24.2012
1.82591
36.0192
2.47125
0.347872
58.4468
4.47759
1.67673
45.6897
65.6144
51.0536
26.8836
1.63656
6.76573
7.60259
14.477
9.84759
0.378027
43.3077
1.69304
2.51557
5.36722
1.00763
10.5346
6.47764
4.21586
0.832209
13.5994
35.323
2.13305
7.5781
1.969
2.87376
4.5194
99.9607
9.36677
1.68259
11.0439
0.329608
0.457718
0.359243
9.90776
0.531051
4.4021
6.02134
3.85432
45.3501
15.2199
27.7727
16.948
8.10871
4.88252
16.4067
7.59357
24.4716
25.2885
6.14839
96.4968
10.9417
0.369988
0.494223
6.25227
4.11625
12.2958
10.3638
1.35445
2.25038
26.9303
91.7179
37.3423
15.1957
14.3163
109.608
34.4109
33.7229
6.76106
3.45858
13.9277
122.975
23.0293
153.924
20.1551
0.570109
1.32826
1.37566
37.9421
3.88885
34.9542
31.656
29.6657
28.6073
18.4223
8.45503
2.34206
0.415999
15.0234
0.692604
1.74277
4.75248
5.33788
7.07249
1.62221
11.1958
10.1213
3.55823
25.1532
44.64
19.1405
0.16278
1.48445
1.76347
3.37004
11.8432
17.8823
4.2557
6.34401
7.42741
5.9945
112.301
5.14096
8.70895
16.8662
6.32885
8.84252
1.33044
0.519695
23.8932
46.7835
8.98241
12.0256
33.6147
2.64396
10.4189
9.61659
5.34495
11.0469
15.2039
3.32499
19.405
1.70284
0.252185
4.93177
0.233763
26.2731
43.6083
2.89036
6.93682
8.86825
1.28191
44.4891
32.3286
0.274916
30.0652
8.73493
0.211269
1.68174
19.0863
80.5713
8.2606
1.92347
4.10846
1.28822
11.7877
0.31037
0.244086
1.36535
4.92919
28.9178
2.9864
28.8962
9.9213
1.67562
4.88201
12.9111
5.01565
0.21028
1.55315
4.19603
27.0802
77.3288
39.5303
6.49845
0.459129
2.59506
21.6564
20.2161
6.16511
4.78492
18.1937
107.476
4.98263
26.9404
6.96527
6.07744
7.01574
3.71964
72.5187
0.496372
7.0061
4.51908
5.24431
2.35031
0.372798
1.03163
1.75584
1.34031
15.6374
4.79834
13.5677
5.78665
5.11765
7.18071
9.68906
3.46738
13.7358
96.0842
1.03439
18.2634
0.771974
16.1145
56.817
0.956493
20.8854
14.4145
6.53559
4.82487
0.799108
7.26918
40.3128
2.28749
46.5665
157.961
22.2186
49.4246
0.568213
29.0176
42.4516
5.55676
55.8145
19.0023
6.04945
23.8635
9.36434
6.32525
37.5226
7.18386
9.87956
0.999235
0.966295
9.02572
7.16815
4.35319
7.12594
29.4394
32.0244
1.51456
0.49992
6.97649
21.253
27.883
5.98727
0.376067
13.0552
8.15976
29.0234
18.5779
2.47084
102.858
29.6707
5.15161
7.53764
21.7487
0.220621
48.6186
28.4668
5.89398
47.574
48.0848
20.0845
1.04245
0.176717
1.57634
3.02681
1.33589
7.2101
10.0433
21.8464
4.15083
26.2417
60.7665
24.0062
57.1357
76.5955
42.8589
9.85378
4.23858
20.6562
2.36837
60.2876
86.6932
0.969755
11.1724
1.76922
6.17782
50.0533
42.7645
11.7356
0.227147
1.24824
27.8461
30.4959
11.7655
3.25653
1.1742
1.38411
41.2012
8.2329
30.3049
23.9461
80.8809
0.316267
96.9033
0.299253
21.1566
0.584054
60.1639
17.9353
61.8059
0.216297
12.4027
113.346
5.2922
2.06944
14.1252
3.02008
38.028
47.0139
45.0501
44.6939
1.34053
1.30232
60.9936
13.9492
40.6608
98.6949
173.676
7.34241
0.718428
60.8005
125.646
0.683997
0.555122
10.9869
1.23357
3.56276
7.86114
5.51487
14.5744
3.00544
18.2877
29.3358
1.14162
140.676
5.10052
128.21
2.55799
33.7112
7.7347
5.48061
8.0313
8.27176
35.5289
93.2943
37.7484
2.66701
7.99097
42.9504
0.540581
0.171618
147.709
45.8351
2.82956
6.51454
1.15599
4.56084
9.21685
50.537
5.73028
9.20416
1.29699
66.655
0.333895
20.4961
0.701452
5.81969
0.420862
3.14515
121.577
14.1415
0.564347
88.8709
0.864918
6.91116
53.8645
1.62209
46.9988
10.2344
9.61881
44.0487
5.95661
9.97594
0.615554
37.9456
28.1489
4.28026
46.4653
82.7307
33.8466
46.7759
9.16169
2.99499
3.23477
23.5591
0.331735
14.3931
47.476
10.0869
13.9624
153.941
10.3411
100.742
5.26148
0.342108
0.314769
0.50643
21.2236
3.06297
36.0587
100.922
3.76358
11.0474
5.94748
6.96673
5.80901
4.8974
5.55099
4.41516
7.94273
15.9722
0.363027
0.448038
0.463316
136.18
5.53925
4.09067
3.52169
150.095
35.0186
89.1454
42.8865
6.93837
61.8991
0.780064
11.7259
39.9383
48.6167
12.286
9.77966
1.48506
10.4897
9.14687
144.035
5.19901
5.2024
14.1078
13.3413
0.796539
17.6442
0.38647
2.20379
8.55552
56.5193
17.1238
6.16855
65.2017
15.4678
4.35956
2.61026
17.2795
3.02566
6.62343
16.8659
11.8996
7.64144
28.736
0.400617
0.48813
46.0199
3.079
5.37965
1.83521
83.1794
31.2012
37.1796
0.766907
40.5612
0.954246
46.6008
35.1051
27.8132
31.8598
15.2088
7.2947
0.614197
1.12652
4.10286
35.7174
0.156076
1.48772
0.172722
4.09714
2.07251
17.1715
17.8244
1.22473
6.65866
5.04776
0.707409
5.74933
0.573374
0.567753
122.109
34.4902
17.499
0.370612
0.520278
21.4902
0.281935
0.398873
12.8914
0.776343
0.517758
10.8733
0.991015
46.032
5.44371
0.916872
29.2332
1.87312
7.00471
31.3134
7.54541
6.66728
6.85418
32.1175
11.9559
1.32404
5.2935
106.869
34.5637
50.5425
23.4272
14.2805
0.169727
0.161792
24.0512
60.1706
28.5452
4.35746
21.9283
7.45204
4.99421
17.8886
48.9936
6.99472
6.44745
100.383
0.158714
8.45185
66.3355
16.8624
5.43356
34.6865
13.1098
80.5893
42.0376
17.5001
14.6833
2.13898
2.71092
3.07424
6.23761
19.1815
5.5181
17.0806
14.3735
109.388
30.5281
35.6497
2.00077
5.6839
14.8908
31.0516
21.4719
79.0524
4.46439
84.6093
4.74335
10.915
35.2621
0.514225
1.49932
0.699994
43.2888
27.807
31.0304
19.4536
15.3108
8.9012
2.76337
7.56722
0.276173
6.18706
4.69015
658.708
111.446
4.0513
61.3552
14.9684
4.78254
0.281425
19.9277
0.848682
0.388075
0.278251
7.16049
23.6446
51.1521
2.22551
34.9955
1.10843
5.84838
0.644072
6.66866
14.7854
16.7173
387.357
15.5459
11.0454
0.168502
3.71422
75.7773
80.0657
5.02052
3.97851
2.02962
12.5351
5.66278
6.74515
9.96061
27.0802
0.620132
16.6419
0.453171
30.4517
20.8534
9.04004
2.80006
9.50354
118.459
11.8628
47.3837
78.1961
0.789592
22.7669
1.49356
8.70226
0.521448
5.26584
5.04802
31.7571
7.06253
3.60621
0.860389
4.49971
89.4425
1.63621
1.96921
12.9982
12.0463
89.692
127.528
0.31331
16.2717
0.547546
4.98174
10.3469
5.32873
51.6941
6.77556
10.1875
50.8086
2.79582
53.6341
4.19044
31.6921
70.2713
5.1161
0.686135
0.811385
28.8139
0.341071
1.32126
8.96784
19.5873
3.06416
9.09528
43.8695
7.79364
72.1904
13.68
26.2203
41.4412
1.11741
34.0733
14.286
0.362746
0.182161
1.13478
3.86796
14.6337
13.5834
69.0102
5.89383
4.30964
162.559
8.36002
4.84146
96.6084
14.0096
13.7942
7.90003
6.78238
35.5396
1.24727
2.65117
15.3081
0.479401
8.67549
9.61942
62.7191
2.02038
16.823
0.485734
0.799904
31.4297
53.4233
8.0396
3.71296
52.6407
21.83
6.58688
10.34
27.9422
0.782386
12.2411
18.166
4.15785
206.898
0.437071
6.18839
98.3239
77.4319
1.82408
8.99864
24.5854
5.8322
16.9603
75.7518
6.00221
30.0434
74.6564
11.2945
38.1594
4.54859
4.83785
66.1778
24.9217
154.231
32.0929
61.2717
1.45513
22.7519
10.2821
20.8301
13.5341
1.76088
15.4595
7.93378
0.221749
0.197981
3.14786
0.525104
10.6341
17.0067
26.2706
33.8629
26.7586
4.8186
51.9475
51.5657
126.175
1.40298
0.524901
19.137
0.814268
46.59
31.6068
0.590685
3.93148
7.18854
181.591
11.3007
3.94045
3.98528
4.69924
80.1176
0.21816
4.21461
2.811
0.331093
62.4725
35.2029
5.18042
2.69498
52.7898
79.0162
25.4293
0.827263
12.5703
1.11156
0.897503
0.553206
0.392564
2.29736
4.19354
1.94169
0.202328
39.4615
2.99935
0.227994
5.22158
0.592264
37.6875
3.52404
145.223
6.82779
0.431709
5.57014
60.0078
6.62073
112.286
33.1096
24.8346
6.48159
4.09755
10.5414
6.34214
4.74936
2.16045
5.57183
0.167292
23.9819
9.92887
26.2424
8.23727
9.21433
3.85893
72.7245
23.0597
571.252
13.4723
1.39677
0.687479
0.812272
5.42389
0.996715
4.45444
25.2641
1.66496
17.4281
2.13282
1.01618
6.09976
7.86825
5.5352
25.4137
5.75092
6.17768
5.14211
6.71992
1.40686
6.54868
59.7926
6.24337
5.81699
6.01395
86.6167
122.751
68.9831
5.07265
9.63292
0.453486
5.6694
0.197609
13.8163
5.06917
78.9484
0.688817
114.87
160.106
1.97431
1.64703
8.93788
32.1743
44.2299
1.06365
2.74585
18.0321
34.6604
0.280906
37.4801
21.5257
6.31294
0.369202
2.18535
92.4426
5.85338
3.42833
35.1881
3.41814
39.843
16.1127
0.271124
16.7609
2.51375
101.708
6.42299
84.0449
451.753
5.51964
142.623
0.512776