/*--------------------------------*- C++ -*----------------------------------*\
| =========                 |                                                 |
| \\      /  F ield         | OpenFOAM: The Open Source CFD Toolbox           |
|  \\    /   O peration     | Version:  v1912                                 |
|   \\  /    A nd           | Website:  www.openfoam.com                      |
|    \\/     M anipulation  |                                                 |
\*---------------------------------------------------------------------------*/
FoamFile
{
    version     2.0;
    format      ascii;
    class       surfaceScalarField;
    location    "0.24";
    object      phi;
}
// * * * * * * * * * * * * * * * * * * * * * * * * * * * * * * * * * * * * * //

dimensions      [0 3 -1 0 0 0 0];
oriented        oriented;


internalField   nonuniform List<scalar> 
11117
(
-0.000149274
1.61965e-05
7.00542e-05
6.30229e-05
1.33554e-05
0.000206933
-8.26738e-06
-0.000212021
-0.00010905
0.000145888
1.10094e-05
-4.78479e-05
-2.59434e-05
-0.000151388
0.000176248
1.08275e-06
7.1275e-05
0.000369576
-0.00034454
-9.63106e-05
-2.11742e-05
1.44375e-06
-0.000223664
0.000243394
0.000582476
0.00014279
-0.000579319
-0.000145948
0.0012259
0.000153668
-0.000970598
-0.000408967
0.00121404
0.000243398
-0.000704029
-0.000753408
0.000184531
-0.000154213
-2.0149e-05
-1.01688e-05
-0.000890228
0.000990814
0.000302147
-0.000402733
-0.000393116
-0.000117994
0.000264336
0.000246774
0.000114556
-0.000155083
-3.62156e-05
7.67428e-05
0.000623509
-0.000453683
0.000123735
-0.000293561
0.000420998
-0.000294063
0.000206406
-0.000333341
-4.97082e-05
6.69439e-05
-7.0618e-05
5.33823e-05
-9.02949e-05
0.000238762
-4.64829e-05
-0.000101984
9.12541e-06
-2.51949e-06
0.000134841
-0.000141447
0.000269857
0.000704537
-0.000553396
-2.78963e-05
1.54031e-05
0.000174116
-0.000161623
-0.000310222
0.000165883
5.00466e-05
9.42927e-05
-2.86183e-05
2.13979e-05
0.00025815
-0.000250929
0.000110027
4.47275e-05
-8.61746e-06
-0.000146137
0.000186556
0.000196283
-0.000113789
-0.00026905
-0.000520904
-0.000504726
0.000523839
0.000501791
0.00089727
-0.000929945
0.000275725
-0.000243051
0.000252887
-0.0003428
0.000879511
-0.000789598
-0.000792965
0.000704262
-0.000647351
0.000736054
3.29209e-05
9.91427e-05
0.000944067
-0.00107613
-4.13729e-05
2.12809e-05
-2.57365e-05
4.58286e-05
-3.98727e-05
0.000249945
-7.37286e-05
-0.000136344
-3.53012e-05
-0.000240697
0.000182237
9.37616e-05
-0.000177384
-0.000652484
0.00050631
0.000323558
-0.000123933
0.000179072
-9.03162e-05
3.51774e-05
0.000112799
0.000102392
-0.000222904
7.71344e-06
0.000281487
1.38973e-05
-0.000113271
-0.000182113
0.000596798
-0.000830715
0.00101133
-0.000777409
0.000263257
-0.000304176
-9.41541e-05
0.000135073
0.000119716
-9.42871e-06
-0.000203476
9.31878e-05
-7.64302e-06
0.000221189
-0.000262469
4.89227e-05
-0.000412935
8.57087e-05
-3.10587e-05
0.000358285
-7.36787e-05
7.17068e-06
1.49262e-05
5.15818e-05
0.00103545
0.000909208
-0.000913889
-0.00103077
-0.000297918
4.57641e-05
-3.6011e-05
0.000288165
0.000489691
0.000140087
-0.000359921
-0.00117169
0.000818745
-0.000243534
0.000596482
-0.000767173
0.000648368
-0.000222013
0.000340819
0.000707887
-0.000790086
0.000415746
-0.000333547
-0.000141235
0.000101808
-9.04914e-06
4.84764e-05
-4.26734e-05
9.49794e-06
3.31754e-05
1.01966e-05
3.96431e-05
-4.98397e-05
-0.000557507
-0.00144129
0.000698811
0.00129998
-0.000186854
0.000231013
-7.05996e-05
2.64405e-05
0.000454488
-0.000417298
0.000128378
-0.000165568
9.94292e-06
-9.94292e-06
0.000417285
0.000261344
-0.000605136
-7.34923e-05
0.000401207
0.000111752
-0.000491507
-2.14524e-05
-0.000382685
-0.000196498
0.000536941
4.22418e-05
0.00090022
0.000115995
-0.00139102
0.000374806
-0.000371936
0.000747323
0.000521882
0.000867224
-0.000878476
3.47047e-05
-2.34526e-05
0.000252655
-0.000134632
-0.000119025
1.00267e-06
-0.000115983
-0.000125119
0.000201229
3.26021e-05
1.96585e-05
-8.75618e-05
0.000215183
-6.21325e-05
-0.000330434
6.24515e-06
-0.000214245
0.000172012
3.59881e-05
0.000152881
1.00958e-05
1.07989e-05
-0.000173776
4.37791e-05
-6.10847e-05
1.73056e-05
-8.4618e-05
2.50785e-05
9.09906e-05
-3.1451e-05
6.85975e-06
8.33873e-05
-1.09714e-06
-8.91499e-05
0.000727755
-0.00033465
-0.000950612
-5.43366e-06
0.000119055
3.92605e-05
-0.000270474
-0.00133694
0.00136957
0.000237854
0.000184115
-0.000387955
0.000223902
-2.00622e-05
-7.04155e-05
-5.07706e-06
-0.000579623
0.000318467
0.00102622
-0.000765061
-1.67149e-05
1.55798e-05
1.1351e-06
-0.000900581
-0.00015965
0.000130286
-0.000294466
1.26106e-05
-1.6063e-05
-2.78195e-05
-2.54265e-06
3.03622e-05
1.81175e-07
6.86775e-05
-9.32657e-06
-5.95321e-05
0.000125665
4.91328e-05
-1.62048e-06
-0.000173178
-0.000268324
0.000226237
0.000172431
-0.000130344
-0.00011112
-0.000166934
0.000229377
4.86762e-05
-0.000147254
0.000140079
0.000139852
-0.000132677
4.49832e-05
-0.000203944
0.000158961
-2.02873e-05
-0.000492736
0.000513023
2.30254e-05
-0.000522016
0.000498991
4.56708e-05
1.46325e-05
0.000126794
-0.000187097
-1.13387e-05
2.22483e-06
5.8838e-05
-4.97241e-05
0.000518029
-0.0001368
6.90068e-05
-0.000450237
0.000524285
5.22564e-05
-7.01283e-05
-0.000506413
0.000827784
-1.35772e-05
2.71829e-05
-0.00084139
-0.000776918
4.2015e-05
-3.1147e-05
0.00076605
-0.000339267
1.23738e-05
3.3298e-06
0.000323564
-2.01906e-05
0.000242728
-0.000349149
0.000126612
0.000574935
2.21956e-05
-2.37823e-05
-0.000573348
0.000712354
0.000114318
-5.60772e-05
-0.000770595
0.000523938
2.80445e-05
-1.79383e-05
-0.000534044
0.000841675
5.11956e-05
-2.56469e-05
0.000378869
6.90126e-05
-0.000404036
-4.38457e-05
-7.17853e-05
6.29581e-05
8.17354e-06
6.53614e-07
0.000317596
-0.000389736
-0.0012009
0.00127304
0.000516419
7.5336e-05
-0.000626085
3.43304e-05
-9.6849e-05
0.00046137
-0.000350914
-1.36074e-05
-0.000564108
-0.000137922
0.000506556
0.000195474
5.63242e-05
-7.75446e-05
0.000202024
-0.000180803
4.93995e-05
-5.07028e-05
9.27173e-05
-9.14139e-05
-0.00020329
6.90332e-05
3.9034e-05
9.52224e-05
-0.000277778
5.25459e-06
-2.19422e-05
-0.000103113
6.67429e-05
0.000141849
-0.000105479
0.000368838
-0.000350426
-0.000188129
0.000169716
-0.000406361
0.000333447
-0.00016285
0.000235764
4.93895e-05
-3.69773e-05
3.66162e-05
-4.90285e-05
5.087e-05
0.000340225
-0.000388099
-2.99566e-06
0.000138106
0.000734126
-0.000826979
-4.52536e-05
-0.000179149
-0.00021525
0.000309193
8.52057e-05
-1.05112e-05
-2.99307e-05
0.000324882
-0.000284441
2.87094e-05
-1.61317e-05
-0.000891054
-0.0010369
8.40814e-05
0.000956653
-3.83962e-06
0.000480088
-0.000281486
-0.000209113
0.000316931
-0.000269226
-4.77045e-05
7.25744e-05
-4.88291e-05
1.47624e-05
-3.85077e-05
-0.000574852
-0.000797736
0.000107247
8.96922e-06
-2.8304e-05
-8.7912e-05
-0.000363814
0.000419983
0.00062918
-0.00068535
-0.000406597
0.000405711
-0.000350662
0.000351548
1.54436e-05
0.000201649
-0.000186173
-3.09195e-05
0.000763674
-0.0012265
-0.000124976
0.000587801
0.000110836
-1.70887e-09
9.21115e-07
-0.000111756
0.000247817
-0.000230349
-0.000143679
0.000126211
-0.000299648
0.000508626
2.24066e-05
-0.000231385
0.000182224
-0.000198009
-5.54287e-05
7.12133e-05
-0.000846167
0.00010583
-0.000160244
-0.000398318
0.000507514
-0.000450776
0.00034158
5.27187e-05
-0.000158852
-0.00018793
-0.000466258
4.58637e-05
8.36211e-06
0.000412032
7.9763e-05
0.000205047
-3.21552e-05
-4.61533e-06
-2.03656e-05
-9.34631e-06
3.43273e-05
8.99479e-05
-6.13867e-05
-9.18916e-05
6.33304e-05
0.000321025
-0.000356242
-7.00521e-05
0.000105269
-0.000170828
-0.000295842
0.000365499
0.000101172
-7.05255e-05
-1.94362e-06
0.000131381
-5.89118e-05
0.000241191
-0.000209239
-0.000100043
6.8091e-05
1.64194e-05
-2.60054e-05
1.3975e-05
-4.38908e-06
-1.06077e-05
0.000269842
-0.000131654
-0.000127581
0.000114349
4.18357e-06
-4.59578e-05
-0.000456914
0.00102597
-0.000589968
2.0916e-05
5.20926e-05
0.000431134
-5.28485e-05
-0.000430378
-0.000129466
5.31041e-05
0.00010553
-2.91677e-05
0.000955259
0.000465014
-0.000633017
-0.000787255
-4.6814e-05
3.72207e-05
-0.000172917
0.000182511
-0.000307705
0.000179848
-0.000436251
0.000109023
-0.000170329
-9.21145e-05
0.000153421
-0.000497326
-0.000385459
0.000579863
0.000302923
0.000714082
-0.000193184
-0.000520898
8.59675e-06
-0.000218761
9.94176e-05
0.000119343
0.00121967
-0.000326328
-0.000893341
0.000116003
-0.000364507
0.000177359
0.000187148
0.000220141
-0.00045171
0.000231569
-3.54959e-05
0.000111721
-7.62247e-05
5.08412e-05
-0.000788953
0.000738111
-0.000560928
0.000609618
-4.86903e-05
-0.000610867
0.000581118
2.97481e-05
0.000683427
3.68872e-05
-0.000720315
-2.78206e-05
9.38783e-05
-6.60577e-05
-2.80119e-05
-7.51007e-05
0.000214707
0.000154131
5.53344e-05
-8.46469e-05
2.93125e-05
0.000241472
0.000162512
-0.000403984
-0.000245476
0.000306448
-6.09721e-05
-0.000174752
0.000289914
-0.000115162
0.000242569
-0.000239147
-3.42174e-06
-7.96557e-05
-6.13172e-05
0.000140973
-0.000490271
0.000307486
0.000182785
0.000699095
-0.00117617
0.000477072
-0.000159977
0.000124074
3.59026e-05
0.00103414
-0.00105274
1.85988e-05
0.000118658
-4.75672e-05
-7.1091e-05
-0.000135887
0.000173011
-3.71236e-05
0.000322355
-0.000317957
-4.39796e-06
-0.000327107
0.000419462
-9.23558e-05
-0.000400763
0.000358374
4.23888e-05
-0.000115783
0.000137449
-2.16664e-05
-0.00010238
3.05944e-05
-0.000250108
0.000112223
0.000137885
-0.000198438
0.00017296
2.54784e-05
-6.98362e-06
6.99418e-05
-0.000225982
-0.000664246
-0.000202432
-3.82654e-05
-0.000508358
-0.000144126
0.000282739
-3.27943e-05
-0.000226781
-7.28662e-05
0.000294191
-4.63743e-05
-0.00110718
9.78189e-05
0.00100936
-7.45031e-05
5.17062e-05
2.27969e-05
0.000478121
0.000226416
-0.00111856
0.00143616
-0.000398272
0.000179453
0.000218819
-0.0011176
-0.000323686
0.000360405
0.000347482
0.000190328
-0.000400664
0.000210336
-0.000628861
-0.000138313
-0.00101984
-0.000151853
-2.35784e-06
-6.4254e-05
6.66118e-05
5.20872e-05
1.81637e-05
-1.69656e-06
-6.85544e-05
-0.000105835
5.85e-05
0.000616583
-0.000569247
-0.000815084
0.000940752
0.000403749
-0.000529417
-0.00010411
2.32515e-05
0.000302755
-0.000221896
-0.00118737
0.00114375
-5.32882e-05
9.69023e-05
0.00052357
-0.000415737
-5.69916e-05
0.000108468
-6.90684e-05
0.000180741
-3.24986e-05
1.1521e-05
-0.00010109
0.000122067
-0.000677207
0.00106604
0.000660823
-0.00104966
-0.000162211
0.00019892
0.00015165
-0.000188358
-0.00028987
0.000291526
0.000180567
-0.000241243
6.61432e-05
0.000651076
-0.000475976
0.000781473
-0.000690989
-0.000165963
7.54793e-05
-0.00140233
-3.59356e-05
0.000250896
0.000125795
-0.000149183
0.000148481
-0.000125092
0.000269276
-6.00512e-05
-1.06713e-05
-0.000198553
0.000984538
-0.00017341
-0.000157107
-0.000654022
-0.000398739
-0.000282148
5.09129e-05
0.000629974
-8.63026e-05
5.5603e-05
0.00127064
-0.00123994
-5.884e-05
-2.48414e-06
6.13241e-05
4.31115e-05
0.000109554
-5.46902e-05
-9.7975e-05
0.000396522
-3.33115e-06
1.97705e-06
-0.000395168
0.000206412
-0.000138535
-0.000242945
0.000175068
0.000101638
-9.67144e-05
0.00014369
-0.000148614
0.000228866
-0.000316804
-9.80274e-05
0.000185965
-2.65181e-06
-6.77408e-08
-0.000224907
0.000227627
5.16375e-06
0.000101761
-0.000202718
9.57933e-05
0.000109378
-0.000127511
1.67735e-05
1.35987e-06
2.14845e-05
2.49674e-05
-0.000964319
0.000917867
-7.23274e-05
2.19838e-05
-0.000768926
0.00081927
0.00090856
-0.000913279
6.89337e-05
-6.42143e-05
6.42384e-05
-0.000156419
-0.000172251
0.000264431
4.16501e-05
-0.000366746
-8.12634e-06
0.000333222
-0.000219951
-2.30591e-05
0.000154124
8.88861e-05
0.000162724
-0.000139129
2.25896e-05
-4.6185e-05
4.45954e-05
0.000561236
-0.000305206
-0.000300625
-9.15736e-05
8.26541e-05
0.000117942
0.000110317
-0.000155923
-4.59672e-05
4.35977e-05
-0.00013304
0.000156185
-0.000167803
0.000190592
-0.000279505
0.000256716
0.000446848
-0.000432879
3.81245e-05
5.06949e-05
-0.000530134
0.000479439
6.36981e-05
-0.000372226
0.000308528
2.91368e-05
-0.000424072
0.000394936
0.000150697
-0.000161643
1.71914e-05
-0.000360222
-6.72964e-06
5.77028e-05
-6.13366e-05
1.03634e-05
-3.19367e-05
4.05901e-05
-0.000984565
0.000975911
-0.000184131
-0.000464561
0.000514663
0.000134029
0.00108317
-0.000463354
-0.000829133
0.000209319
-0.000665511
0.00118709
-0.00088446
0.00036288
3.01651e-05
-4.40117e-05
6.59338e-05
0.00019705
0.000128734
-0.000218537
-0.000675655
-8.09791e-05
0.000330953
0.000425681
-3.90608e-05
0.000580427
-1.7797e-05
0.000223625
5.03549e-05
-0.000165512
2.0094e-05
7.87853e-05
-5.74514e-05
-4.14279e-05
-0.000373566
0.000360186
1.338e-05
-0.000103926
0.00010527
-1.34321e-06
0.000213739
-0.000187881
-0.000155324
0.000115003
-0.000411344
0.000360745
-6.44038e-05
-0.000363486
0.000196029
-0.000803609
3.04318e-05
-9.40026e-05
0.00086718
-0.000469103
3.51884e-05
-7.56292e-05
0.000509543
0.00019737
-0.000124246
0.000345409
-0.000418532
-0.000321477
-0.000275668
0.000337481
0.000259665
-0.000525136
0.00071877
0.000505177
2.98114e-05
-0.00108421
0.00111071
-5.63147e-05
7.41219e-05
0.000356042
-0.000223751
-5.45116e-05
0.000448689
6.03107e-05
-0.000360612
-5.17569e-05
0.000363837
4.85325e-05
-8.72834e-05
0.000125616
-5.03615e-06
-3.32969e-05
8.98521e-05
1.24886e-05
-0.000118851
1.65108e-05
-9.8767e-05
-4.43528e-05
6.86168e-05
-0.000312969
-6.09133e-05
0.000279389
9.44937e-05
-0.000108581
7.38101e-05
-0.000378165
-2.63331e-06
-1.30393e-05
-5.80061e-05
-0.000234797
0.000141419
8.57346e-05
-0.000665401
3.54131e-05
0.00068168
-5.16923e-05
-0.00049
-2.08376e-05
0.000493126
1.77123e-05
-1.26373e-05
0.000692727
-0.000668023
-1.20662e-05
-4.72518e-05
0.000652975
-0.000633756
2.80332e-05
-0.000393632
0.000386978
-0.000391664
-0.000111968
1.07618e-07
0.000156021
-4.41613e-05
-0.000628412
0.000278418
0.000357826
-7.8321e-06
-0.000139913
9.01685e-05
2.77037e-05
2.20405e-05
0.000419169
-0.00035896
-3.45662e-06
-5.67518e-05
-0.000990719
9.52063e-05
0.000977921
-8.2408e-05
-0.000131987
0.000624339
-0.000676377
0.000184024
0.000415237
-0.00031037
-0.000295397
0.000190531
0.000132615
-0.000158737
-4.12389e-05
6.73613e-05
-4.63884e-05
4.82297e-05
0.000174735
-0.000176576
2.57349e-05
8.18591e-05
4.36928e-06
-0.000111963
6.59727e-05
-0.000120697
0.000180389
-0.000565726
0.000538234
2.36969e-05
6.63926e-05
-8.99083e-05
0.000182982
-0.000156721
1.83338e-05
-0.000188866
-0.000136623
0.000214028
0.000111461
4.54319e-05
-1.86979e-05
0.000349899
-0.000376633
-6.47244e-05
-3.37546e-06
-1.91835e-05
0.000110441
-1.94403e-05
-6.59219e-05
0.000989408
-0.000573349
0.000593672
-0.000348693
-0.000236159
0.000214768
2.80541e-05
3.78473e-05
5.6559e-05
-0.00012246
0.000289003
-0.000631211
-0.000472876
2.97106e-05
5.88188e-05
-3.91399e-05
-0.000427131
0.00047272
0.00101197
-0.00105755
0.000851799
-0.000170925
-4.91998e-05
-0.000631675
4.29211e-05
-3.95849e-05
4.60633e-05
-0.000606051
0.000352645
0.000957668
-0.000243962
5.68667e-05
-1.61945e-05
0.000195024
-0.00062443
0.000462328
4.19343e-06
-0.000702606
0.000777929
-7.95173e-05
1.20399e-05
-0.000228988
0.00036824
-0.000151292
-0.000236506
0.000177436
2.91387e-05
5.36276e-05
0.000448782
5.8331e-05
-7.69523e-05
2.07029e-05
-2.08155e-06
4.10139e-05
-0.00012235
7.19074e-05
-2.63529e-05
3.45046e-05
0.000275164
-0.000283316
-9.89247e-05
-0.000112226
0.000859696
0.000131118
-8.34572e-05
-8.3115e-05
-2.49645e-05
-4.87641e-05
0.000256201
7.98569e-05
-1.39071e-05
-8.80572e-05
0.000131169
-6.35078e-05
3.1725e-05
2.91836e-05
8.30399e-05
2.65789e-05
0.000178191
0.000161295
3.03711e-05
-0.000416149
1.10135e-05
0.000311342
-6.2092e-05
-0.000265015
-3.19946e-05
-0.000103892
-0.000653421
4.25545e-05
-5.98805e-05
-0.000244296
1.98952e-05
-0.000223371
5.10791e-05
-6.16868e-05
-8.88955e-05
-2.94208e-05
-3.5218e-05
-9.54643e-06
0.000146996
0.000324541
0.000153581
0.000466917
0.000833067
0.000184204
0.00011872
3.63472e-05
-5.21126e-05
3.39292e-05
-5.56197e-05
-0.000105659
6.7125e-05
0.000569649
-0.000602828
2.67001e-05
6.47861e-06
3.59807e-05
0.000420823
-0.000314013
-0.000135292
0.00099149
-0.00070253
-0.000205264
0.000371662
6.06826e-05
-0.000227081
0.000372356
0.000446389
0.000209159
0.000439209
-0.00017062
-0.000619466
-0.000106363
0.000144234
-0.000148638
0.000110767
-0.000101969
1.56838e-05
8.96246e-05
-3.33911e-06
-0.000527457
-0.000108016
0.00043021
1.86886e-06
2.44196e-05
-9.78576e-07
-2.53099e-05
1.90236e-05
-4.50878e-05
9.32781e-06
1.67364e-05
0.000454613
-8.89564e-05
0.000155682
-0.000372896
0.000634499
7.58416e-05
-0.000417756
0.000743122
-0.000373941
0.000577224
-0.000585968
-1.39414e-05
7.71072e-05
-7.0976e-05
7.81018e-06
-4.03174e-05
-3.25171e-05
3.3839e-05
3.89955e-05
-0.000108135
-7.98692e-05
8.16408e-05
-0.000624573
0.00102934
-0.000735251
0.000330485
-2.19631e-05
0.00032607
-2.26206e-05
-5.53603e-05
0.000159127
9.03148e-06
8.71529e-05
-6.31153e-05
-0.00014797
-0.0011703
0.0010366
0.000232848
-0.000259859
-0.000105827
0.000219707
0.000145979
0.000284573
-5.05287e-05
-0.000131625
-0.000102419
-4.76302e-05
0.000731057
3.37134e-05
-6.1534e-05
0.000275809
-0.000121718
1.0713e-06
8.02704e-09
9.28366e-05
-9.39159e-05
9.31638e-05
-8.63246e-05
3.44763e-05
-4.13154e-05
-0.000143838
5.41137e-05
0.000239917
-0.000280208
8.89813e-05
0.000280693
-8.94658e-05
-0.000178537
0.00015438
0.000201516
-8.71124e-05
0.000190363
-0.00100374
0.00129629
9.49518e-05
-0.00125631
-0.000134936
0.000185447
-0.000165149
-0.000185277
-0.000711566
0.000187181
0.000635176
-0.00011079
0.000180965
0.000154411
-0.000118861
-0.000216515
0.000118904
-0.000320189
0.000176815
2.44698e-05
9.8332e-05
-0.000204278
0.000106691
-7.44403e-07
-0.000242873
0.000729265
5.74365e-05
-0.000543828
-0.00024922
0.000824316
2.09647e-05
-0.00059606
0.000532612
2.74469e-05
5.87026e-05
-0.000618762
-6.2661e-05
6.53509e-06
8.42813e-05
-2.81554e-05
8.31311e-05
0.000158341
6.12435e-05
-5.88731e-05
8.86202e-05
0.00051148
0.000104636
0.000520994
8.34779e-05
0.000469597
0.000196049
0.000580003
-5.2002e-06
-8.08841e-05
8.42606e-06
7.76583e-05
0.000208901
-0.000209934
0.000145267
0.000537121
-0.000559084
0.000481583
-0.000536944
-0.000173548
0.000260701
-2.22725e-05
4.41738e-05
-5.88786e-05
-1.43328e-05
-0.000212841
0.000238073
-1.08999e-05
-8.03798e-05
-0.00026121
0.000324525
1.70647e-05
7.52481e-05
0.00104529
-0.00087714
0.000967697
6.53858e-05
-0.00101564
-1.74387e-05
-0.000149624
0.000217439
0.000145924
0.00013703
-0.000266047
-7.14596e-05
0.000200476
0.000548304
-0.000233137
0.000314897
-0.000260909
0.000113646
0.000198924
7.42389e-05
0.000189
-0.000124943
-0.000953973
0.000926426
-0.000399584
0.000107863
-0.00011169
-5.59589e-06
-0.000355625
1.1159e-05
0.000350062
-9.51435e-05
0.000816589
2.20936e-05
-0.000743539
-7.5085e-05
0.000373744
2.22817e-05
-0.000320941
1.39516e-05
-1.8704e-05
-2.70833e-05
3.18357e-05
0.000208314
-0.000302024
0.000263639
-0.000169929
-7.84592e-06
-9.14062e-05
0.00014565
-4.63982e-05
-4.98676e-05
-3.81896e-05
-0.000184523
0.00022543
-8.24624e-05
4.15557e-05
-0.000262411
-6.07724e-05
0.00019658
0.000126604
-0.000169017
0.000238726
-0.000121357
5.16478e-05
0.000839342
7.66414e-05
-7.63036e-05
-0.00083968
4.69796e-06
7.16702e-05
-5.62742e-05
0.000504361
-2.56418e-05
2.55855e-05
-0.000504304
0.000271274
-0.000251957
-0.000119486
0.000100168
-0.000480913
-5.36469e-06
-3.5686e-05
0.000521963
-0.000606995
-9.69471e-05
1.26268e-05
0.000691315
-0.000137729
3.09756e-05
0.000180944
-7.41904e-05
-0.000220084
8.28627e-05
0.000212242
-7.50206e-05
-0.000137324
3.43847e-05
9.7081e-05
5.85862e-06
-6.68536e-08
1.71565e-05
-0.00015013
0.000806235
7.00901e-05
-3.46499e-05
0.000115254
-2.28651e-06
-2.13137e-06
-0.00123013
-0.000150743
0.00120443
0.000176437
0.000260658
0.000426367
-0.000344415
-0.00034261
9.11327e-05
-4.85537e-05
-4.2646e-06
-3.83144e-05
5.62395e-05
-9.042e-05
0.000272558
-0.000238378
5.72952e-05
-5.25973e-05
-9.73536e-05
5.60439e-05
-0.000683397
0.000724706
0.000138949
-0.000118282
2.74154e-05
-4.80824e-05
-0.000442971
0.000428741
2.42627e-05
-1.00326e-05
1.05903e-05
-0.000216064
0.000359789
-0.000154316
0.000159569
-0.000112482
-1.90326e-05
0.000984355
-0.000859588
0.000140727
-0.000265493
-0.000556505
-0.000545281
0.000454436
-0.000221795
-0.000192653
0.000151566
0.000262882
-0.0002194
-3.92363e-05
3.85527e-05
-0.000272852
0.000178267
-4.27391e-05
-9.56331e-05
-3.28347e-05
-9.26151e-06
0.000462187
-0.000422484
-0.000226357
0.000186654
1.02832e-05
-0.000458333
0.000453529
-5.47909e-06
7.51256e-05
-1.31809e-05
0.000232259
-0.000472736
0.000542625
0.00113048
-1.87999e-05
3.20747e-05
2.8245e-05
-3.44448e-05
0.000325809
-0.000319609
-4.14582e-05
9.25373e-05
0.000120215
-0.00016511
6.85915e-05
0.000126056
-0.000241057
0.000180973
-3.45007e-06
0.000187473
-0.000209966
-0.000251083
1.11274e-05
0.000456243
4.42323e-05
0.000207072
8.56587e-05
-0.000111765
-8.18693e-06
2.3034e-05
7.57125e-05
8.12418e-05
-0.00010162
-0.000130571
-7.18623e-05
9.4299e-05
-1.3938e-05
2.71653e-05
-4.3501e-05
3.02737e-05
-0.000849109
-0.000100303
0.000237845
0.000481158
-0.000498748
-4.102e-05
5.86096e-05
-8.24325e-05
-0.000881856
2.25521e-05
0.000941736
-6.00399e-05
-0.00100426
0.00103247
3.18305e-05
5.44827e-05
-9.04878e-05
7.7019e-05
-0.000153044
-0.000326741
0.000330161
0.000160365
0.000123613
-0.000174782
-0.000109196
0.000131507
5.10305e-05
-0.000105806
-7.67309e-05
-0.000827864
-0.000294561
-0.000176838
-3.82498e-05
-3.1163e-05
0.000246251
0.000129096
4.13646e-05
-0.000147267
-2.31932e-05
0.000234356
-4.03186e-05
-9.55796e-06
-4.24661e-05
-1.27003e-05
-7.34461e-05
-5.64985e-05
8.96272e-05
9.46594e-05
-8.22498e-05
-2.73978e-05
1.49881e-05
2.54486e-05
6.4846e-05
-6.60597e-05
-2.42349e-05
-2.19234e-06
0.000444482
1.41617e-06
-0.000443706
0.000118424
0.000786264
-7.36514e-05
-0.000831036
2.2923e-05
5.70192e-05
1.47172e-05
2.77063e-05
-0.00108809
0.00108809
-2.77131e-05
0.000300394
-0.00161254
6.64338e-06
0.0013055
0.000257347
6.93924e-05
-7.9391e-05
-0.000247348
0.000261346
2.8158e-05
-6.10608e-05
-0.000228443
0.000437253
-0.000157722
9.00451e-05
0.000167453
-0.000254401
-0.000306684
2.51619e-05
5.32823e-05
-1.9137e-06
-7.65305e-05
-0.000206584
0.000201913
5.04095e-06
-3.69662e-07
9.15049e-05
-7.54147e-05
-0.000211972
0.000195882
-0.000805082
0.00029076
0.000510983
3.33818e-06
0.000185175
-4.22218e-05
7.85524e-05
-0.000221506
0.000273045
-7.57669e-05
8.80631e-05
-0.000285341
0.000180995
-3.09004e-05
7.91944e-05
-0.000229289
-1.57592e-05
-4.17565e-05
5.75157e-05
0.000322291
-0.00125202
-4.88389e-05
6.2426e-05
0.000110166
-0.000123753
-6.59356e-05
-0.000459453
-2.06884e-06
-0.000270929
0.000216993
1.55933e-05
3.83425e-05
0.00104035
-0.00146475
0.000185405
0.000238995
0.000527435
1.05374e-05
1.17767e-05
-0.000549749
4.58146e-06
-1.93489e-05
0.000130022
9.12214e-05
9.44505e-05
-0.00101854
0.000832866
-6.73955e-05
-0.000205916
0.000299385
-2.60736e-05
8.87861e-06
0.000173284
-0.000228061
4.58988e-05
-4.27157e-05
-0.000138871
0.000196469
-1.48823e-05
0.000474047
-0.000257135
-1.70267e-05
0.000211902
-0.000221228
3.65159e-05
3.36586e-05
-1.18435e-05
0.000847904
-0.000582821
4.28538e-05
-0.000307936
-0.000112131
0.000276528
7.67947e-05
-4.04904e-05
5.44418e-05
-3.41137e-05
-0.000244475
3.80615e-05
0.000240527
0.000367259
6.37092e-05
-0.00032159
-0.000109379
1.03348e-05
-1.90305e-05
-8.59545e-05
9.46502e-05
-0.00024591
0.000156606
-0.000182557
-0.000162915
-8.80676e-06
0.000229758
1.19712e-05
-0.000232922
-0.000117613
-0.000141041
0.000112269
-7.01328e-05
0.000138859
4.23316e-05
-3.91103e-05
0.000269824
3.50285e-05
-2.09593e-05
0.000171106
8.03048e-05
-0.000157729
0.000108132
-3.07081e-05
0.00119654
-0.00119933
-0.000267681
3.43395e-05
-0.000653832
0.000203748
0.000565087
0.000239728
-0.000223004
-6.35381e-05
0.000254489
-0.00020115
0.000420708
0.000237037
0.00017667
-0.000229591
1.7086e-05
-3.19896e-05
-8.82181e-05
0.000103122
5.30859e-05
2.08449e-05
-9.14389e-05
1.75081e-05
0.000190983
-0.000225097
4.99619e-05
-9.94124e-05
8.1628e-05
-3.21775e-05
0.0007569
9.19861e-05
-4.26512e-05
4.7553e-05
0.000120122
-0.000293251
0.000245999
-0.000691045
0.000678408
-0.00025253
0.000120544
-0.00113865
0.00114013
9.30169e-05
-9.44972e-05
8.78245e-05
0.000610086
-0.000101547
-0.000179638
0.00020558
-7.55982e-05
0.000508488
-0.000201833
0.000596086
-0.000868883
-0.000200395
0.000473192
-0.000643619
0.000254497
-4.78925e-05
0.000437014
-2.80738e-05
0.000109028
-0.00035402
0.000273066
-4.0104e-05
-5.03659e-05
-0.00105262
0.00114309
0.000120003
-0.00050215
0.000804981
0.000171781
-0.000850037
-0.000126725
5.0051e-05
-6.3947e-05
-8.37649e-06
0.000847012
-0.000850612
0.000199649
0.000520374
-0.000560733
0.000123837
0.000552533
-0.00050864
6.07427e-05
4.75852e-05
0.00011393
-3.24188e-05
-0.000236242
-6.85494e-07
0.000228121
0.000137537
-0.000158198
0.00012637
-0.000105708
0.000735003
-0.000613694
-7.88667e-05
-4.24424e-05
0.000537047
-0.000473374
1.50431e-05
-7.87156e-05
5.74598e-05
0.00154217
-0.00123256
-0.000367077
-5.30833e-06
4.09062e-06
-6.67699e-05
6.79876e-05
-0.000993697
-0.000637392
0.00105532
0.000575765
7.47873e-06
-1.72851e-05
-1.81983e-05
2.80047e-05
0.000128852
-0.000235555
-0.000131198
0.000237902
-3.60119e-05
7.5254e-05
0.000106177
-0.000145419
0.000111336
-4.27262e-05
0.00068829
0.000448517
-0.00067498
0.000277333
0.000681096
-0.000924363
0.000381374
2.12807e-05
8.32396e-05
-9.99825e-06
2.8597e-05
3.83552e-05
-5.6954e-05
0.00054379
-6.16729e-05
0.000142223
-2.30447e-05
1.59859e-05
-6.04295e-06
7.83041e-05
-7.20213e-05
-9.75055e-05
9.12227e-05
0.00027235
0.000654058
-0.000500041
-0.000319701
-0.000278091
0.000413661
0.000487158
-0.000465041
-2.81298e-05
6.01231e-06
0.000373184
-1.96047e-05
-0.000199168
5.40804e-07
-3.6449e-05
-1.16589e-05
0.000198686
3.48781e-05
0.00012481
-4.32632e-05
0.000102714
0.000537931
-0.000665557
0.000127626
-0.000415707
0.000295676
-0.00131337
0.0014334
3.37495e-05
-9.8432e-05
-0.000101302
0.000165984
0.000226208
6.35239e-05
-0.000117786
-0.000171946
-0.000441071
-2.17104e-05
0.000604653
-0.000141872
0.000227604
-0.000192251
-0.000399167
-2.0485e-05
2.20645e-05
3.47677e-05
0.000223543
-0.000168805
0.00017147
1.90911e-05
-0.000218216
-7.45922e-06
-3.72993e-05
6.4972e-05
2.37732e-05
-5.1446e-05
0.000160875
-7.95241e-05
-6.97808e-05
-1.15706e-05
3.91529e-05
2.1542e-05
0.000102029
2.35227e-05
2.41109e-05
-3.45975e-06
0.000138554
-7.04562e-05
9.90103e-05
-0.000167108
-6.16886e-06
-0.000137932
0.000179147
-3.50458e-05
9.23048e-05
-2.87808e-05
0.000160058
-7.77298e-05
0.000175019
0.000109622
-4.65587e-05
0.000198283
-0.000115847
0.000465005
0.000113028
-0.000568768
-0.000404524
0.000718181
0.000255111
0.000822669
-0.00104135
0.000356779
-0.000138102
-1.41609e-05
0.000412277
-0.000399065
9.48464e-07
-0.000177126
0.000681667
-0.000782571
0.00027803
0.000160925
-0.000149671
4.70183e-06
-1.59565e-05
-0.0013523
0.0011909
-0.000258711
0.000420107
0.000425408
-0.000358269
-0.00015223
8.50902e-05
-6.79137e-06
0.000553523
-0.000550768
4.03698e-06
-0.000397532
2.24957e-05
0.000158673
-0.000601947
0.000555019
-0.000111746
0.000167925
-0.00066598
0.000685521
-0.000187467
-0.000101554
-0.000757293
0.000858847
-2.85821e-06
-6.93324e-06
-9.10497e-06
1.88964e-05
1.32388e-05
-2.5007e-05
1.37258e-05
-1.95753e-06
-0.000178635
0.000176483
-6.07545e-06
8.22745e-06
0.000101696
0.000200935
-0.000211126
-3.40843e-05
7.66905e-05
-9.1445e-05
-0.000186632
4.33721e-05
0.000107633
3.56267e-05
-2.23143e-05
-4.83148e-05
5.00419e-05
2.05872e-05
-2.57439e-05
-8.14315e-07
0.000386855
-0.000360297
0.00119726
-0.00122001
-8.16226e-05
0.000104373
-1.42355e-05
-0.000103403
1.916e-05
2.40783e-05
-4.32382e-05
0.000469805
5.50913e-05
-0.000414982
-0.000109914
-2.59168e-05
-6.10727e-05
2.94089e-05
5.75806e-05
-8.67796e-05
0.000135446
-0.00047115
-2.68501e-05
-4.30015e-06
-6.44828e-05
-4.40423e-05
3.42779e-05
-0.000263087
1.12859e-05
8.11825e-06
-0.000238804
0.000693804
3.99287e-05
-4.10056e-05
0.000672097
2.56639e-05
-4.4786e-05
-0.000635444
3.60964e-05
-6.60534e-05
-0.000435036
-6.39715e-05
9.00703e-06
-0.00033609
-0.000165837
0.000188957
-0.00103414
-0.000173252
0.00029411
-0.00027235
4.18346e-05
-4.96925e-05
-0.000108763
-0.00122648
0.00124894
-0.00014131
-4.5118e-05
-0.000187138
-8.20423e-05
-1.25211e-05
-9.36284e-06
0.000534622
-0.000192435
-0.000417273
0.000769672
-0.000208635
-0.00065618
2.07054e-05
3.03184e-05
-0.000284125
0.000233101
6.95538e-05
0.000496078
-7.84739e-05
0.000299755
-0.000295623
5.73353e-05
-6.14673e-05
1.98374e-05
4.36447e-06
-0.000136488
0.000112286
5.21736e-05
-5.96119e-05
5.74172e-06
-0.000326546
0.000177478
0.000357969
-2.87951e-05
1.45754e-05
1.97009e-05
-5.48124e-06
0.000236373
-0.000139249
0.000203348
-0.000300472
-0.000372888
-9.4313e-05
6.96692e-05
-0.000202187
0.000199295
0.000197916
-0.000145999
-6.52193e-05
8.06467e-05
0.000118502
-1.0606e-05
1.77208e-05
2.7332e-05
-8.36594e-05
8.42598e-05
-2.79324e-05
9.69786e-05
8.61478e-05
-0.00011185
-7.12763e-05
0.000342295
0.000397563
-0.000644493
-9.53647e-05
0.000217339
-0.000547626
-0.000238481
0.00038551
0.000199086
-0.000494708
-8.98879e-05
-0.000535579
0.000450865
4.31791e-05
4.15349e-05
0.000153279
0.000141036
-0.0010994
-1.29176e-05
3.78792e-05
-4.54467e-05
0.000157036
-6.84166e-06
-0.000138908
-5.21771e-06
-9.0071e-05
6.84385e-05
0.000899313
-2.35436e-05
-0.000766622
-0.000109147
4.68478e-05
5.49598e-05
-8.32598e-05
-7.31589e-05
-1.96486e-05
-2.21079e-05
-0.000105221
0.00113808
0.000154232
-3.78521e-08
2.76922e-05
5.26504e-05
-0.000478029
0.000380683
0.000610526
-0.000513179
0.000240006
-0.000263941
0.000355648
-0.000331713
-8.61681e-06
0.00047108
8.3226e-06
-0.000470786
5.9621e-05
-6.0396e-05
-3.77316e-05
3.85066e-05
-0.000262088
4.41609e-05
5.0246e-05
0.000167681
-0.00113901
0.0011379
9.5551e-05
-0.00078106
0.000516359
-0.000671178
0.000575775
-0.000191018
-0.000119087
0.000107918
0.000109902
-3.36139e-05
0.000860204
-0.00102817
-0.00026302
0.000430984
-0.000231579
-0.000988365
0.00119035
2.95907e-05
-0.00117966
0.00119813
-0.00012723
-0.000506912
0.000450761
0.000373772
-0.000317621
-0.000598245
0.00060236
8.62525e-05
-9.03674e-05
-0.000115768
-9.62551e-05
7.28942e-05
-0.000513372
0.000666465
-0.000557617
0.000171126
-1.65788e-05
-0.000123883
-0.000172645
0.000119325
0.000177203
-6.78512e-05
8.44486e-05
-8.43979e-06
2.31866e-06
-0.000266229
-0.000929384
0.00089717
-0.000271617