/*--------------------------------*- C++ -*----------------------------------*\
| =========                 |                                                 |
| \\      /  F ield         | OpenFOAM: The Open Source CFD Toolbox           |
|  \\    /   O peration     | Version:  v1912                                 |
|   \\  /    A nd           | Website:  www.openfoam.com                      |
|    \\/     M anipulation  |                                                 |
\*---------------------------------------------------------------------------*/
FoamFile
{
    version     2.0;
    format      ascii;
    class       volScalarField;
    location    "0.84";
    object      nut;
}
// * * * * * * * * * * * * * * * * * * * * * * * * * * * * * * * * * * * * * //

dimensions      [0 2 -1 0 0 0 0];


internalField   nonuniform List<scalar> 
1466
(
0.00111053
0.00203575
0.00138016
0.00408525
0.0014577
0.00242847
0.0019318
0.00195119
0.000742689
0.00232531
0.00299588
0.00232242
0.000730364
0.00124321
0.00576073
0.00623974
0.00181178
0.00102179
0.00502342
0.00345701
0.00544187
0.00811041
0.00396584
0.00321231
0.000753834
0.0041269
0.00515003
0.00410708
0.000735113
0.00356022
0.00347027
0.00392345
0.00178932
0.0110306
0.00291787
0.00195579
0.0120044
0.00176467
0.0021364
0.000662751
0.000739005
0.00196136
0.00189608
0.000670656
0.000558806
0.00131963
0.00190046
0.000643422
0.00154558
0.000706522
0.00112121
0.00165404
0.0017211
0.000899509
0.000936373
0.00100874
0.00101178
0.00210151
0.000860231
0.00200772
0.00576964
0.00212234
0.00138965
0.00355434
0.0056497
0.00232019
0.00837011
0.00372898
0.00200516
0.000963599
0.00762169
0.00114217
0.000956742
0.00090491
0.00382074
0.00247913
0.00203787
0.00127787
0.00112099
0.00364072
0.00291257
0.00513296
0.00128407
0.00323972
0.00527358
0.00534423
0.00886168
0.00307706
0.00250768
0.00280311
0.00508004
0.00462064
0.00421954
0.00094846
0.00202282
0.00119644
0.00186942
0.00180022
0.000821546
0.000807193
0.00150819
0.000918243
0.000592224
0.00171556
0.00221396
0.00204953
0.0014898
0.000709874
0.00188571
0.00108001
0.00574346
0.00291545
0.0015016
0.0017538
0.00155497
0.00652752
0.00302701
0.00167906
0.00152013
0.00120957
0.00674871
0.00194958
0.00137362
0.000733973
0.000584499
0.00170199
0.00254071
0.00408385
0.00339543
0.00442114
0.00174787
0.00195313
0.0034937
0.00294766
0.00530827
0.000668322
0.000604758
0.00130288
0.000999689
0.000873448
0.00088876
0.00464038
0.00497706
0.00452485
0.00820625
0.00722972
0.00396091
0.00531662
0.00443925
0.00312292
0.00539618
0.00345418
0.0023156
0.00177062
0.00485161
0.00811135
0.00380401
0.00690392
0.0045161
0.00212217
0.00394289
0.00326127
0.0014777
0.00491701
0.00782528
0.00331091
0.00450388
0.00486887
0.00537293
0.00316213
0.00560005
0.00281159
0.000781929
0.00212828
0.0010431
0.00086401
0.00324162
0.00405027
0.00552892
0.00615567
0.000835718
0.00399711
0.00536203
0.000578505
0.00299295
0.00562773
0.00548787
0.0027672
0.00199225
0.00141205
0.00587363
0.00509543
0.00401159
0.00817617
0.00191649
0.00625731
0.000686191
0.00327249
0.00695574
0.00778927
0.00314648
0.00441092
0.00303773
0.00645885
0.00764824
0.00809635
0.00640744
0.00218302
0.00449829
0.0034382
0.0046111
0.00490925
0.0046229
0.0052015
0.00593855
0.00497546
0.00588523
0.0059078
0.00344723
0.00411466
0.00459699
0.0064496
0.00514565
0.00666051
0.00528852
0.005743
0.00698028
0.000950914
0.0055666
0.00641593
0.00562749
0.00303502
0.00877966
0.0100046
0.00305002
0.00811958
0.00483494
0.00477882
0.00457535
0.00580232
0.00235185
0.00350272
0.00290509
0.00764261
0.00393216
0.00300972
0.00386111
0.00089271
0.00388513
0.00264931
0.00596363
0.00612715
0.00204079
0.00320538
0.0030409
0.0056006
0.00331192
0.00103946
0.00135666
0.00195409
0.00126248
0.00323023
0.00281894
0.00622279
0.00350514
0.000508585
0.000941726
0.00472828
0.00532923
0.0011974
0.00168716
0.00143747
0.00108804
0.00427807
0.00513753
0.00689158
0.0061399
0.00420218
0.00548014
0.00427727
0.00604955
0.00619374
0.00501724
0.00306377
0.00906635
0.00115492
0.00467024
0.00476922
0.000794103
0.00168536
0.00168537
0.000873383
0.000781647
0.000673214
0.00328427
0.00103434
0.00159776
0.00138706
0.00439929
0.00610445
0.00122049
0.0067203
0.000483264
0.000853636
0.00648909
0.00888932
0.00352523
0.00155239
0.00280737
0.00907301
0.00216866
0.00557961
0.00404354
0.00452246
0.00420421
0.00344455
0.00964641
0.00272568
0.00116026
0.00588118
0.000958569
0.00151555
0.00152041
0.00582563
0.00704874
0.00149891
0.00128534
0.00271285
0.0054954
0.00525558
0.00391074
0.00158123
0.00186428
0.00292226
0.00545113
0.000841442
0.00560634
0.00479547
0.00466162
0.00178282
0.00220895
0.00231187
0.00173752
0.00354753
0.00344119
0.000437199
0.00290625
0.00280691
0.00205422
0.0049893
0.00169913
0.000895784
0.00350142
0.0074862
0.0105082
0.00734533
0.00305068
0.000635497
0.00101556
0.0028208
0.00966855
0.00657693
0.00501942
0.00865085
0.00109777
0.00945745
0.00206415
0.00197985
0.0011867
0.00322661
0.00280351
0.00802924
0.00142699
0.00273533
0.00179293
0.0128575
0.00386973
0.00142528
0.00131008
0.00357351
0.0104198
0.0101206
0.0109183
0.0113484
0.0111864
0.0106767
0.00178677
0.00180407
0.00153457
0.0011533
0.00540954
0.0116393
0.00897079
0.0112198
0.00712314
0.00320182
0.00113428
0.00146579
0.00644639
0.000550534
0.001241
0.00113793
0.00274312
0.0011378
0.00289079
0.0113853
0.00269076
0.00307123
0.00948012
0.00962243
0.00489065
0.00300391
0.00315563
0.0107328
0.00332437
0.0011878
0.00121565
0.00306097
0.00575696
0.00227959
0.00972967
0.0104881
0.00271657
0.00290997
0.00288414
0.00173778
0.00793225
0.00146166
0.00271557
0.00193079
0.00674441
0.00488532
0.00165862
0.0017049
0.00491732
0.000479606
0.00122821
0.000706525
0.00124033
0.00704805
0.00153276
0.000736766
0.0066438
0.00132262
0.00566654
0.00197125
0.00127878
0.00529914
0.00166592
0.00539944
0.00553679
0.00135779
0.000613033
0.000866303
0.00876344
0.000721556
0.0015719
0.00159347
0.000662642
0.00592453
0.00165454
0.00524133
0.00141117
0.00230068
0.00532779
0.00144004
0.0102927
0.00460169
0.00362954
0.00959692
0.00392791
0.00173748
0.00649267
0.00113898
0.00633236
0.00145463
0.00307043
0.00838859
0.0114626
0.00662783
0.00312727
0.00372294
0.00493171
0.0110492
0.00963248
0.00193622
0.00147343
0.00458994
0.00898064
0.00539515
0.0104612
0.00393143
0.00180336
0.0110091
0.00566092
0.0128113
0.0134914
0.0117313
0.00364103
0.00996904
0.0117399
0.0117801
0.00236833
0.00768736
0.00117427
0.00979987
0.00331544
0.00626627
0.00136952
0.0136185
0.00578619
0.00887732
0.00754017
0.00164696
0.0137708
0.00942331
0.00739618
0.000853966
0.00129514
0.00188703
0.0121919
0.00437197
0.0109797
0.00223181
0.00842116
0.00823913
0.00569526
0.00459749
0.00911463
0.0107201
0.00147134
0.00170449
0.0092192
0.0123258
0.0128211
0.00651209
0.00244553
0.00348195
0.00821571
0.00409839
0.00183144
0.00816601
0.00124331
0.00802161
0.00994905
0.00248761
0.0106767
0.00179114
0.00912147
0.00663003
0.00802962
0.00192994
0.00717053
0.0122947
0.00168828
0.0139317
0.0138742
0.00963609
0.00194899
0.00148008
0.0105784
0.0108635
0.00601229
0.00274996
0.00115036
0.00783855
0.0117108
0.0110007
0.00358194
0.0120599
0.0072673
0.0110159
0.0045655
0.00407417
0.00313826
0.0064608
0.00091921
0.0126969
0.0132698
0.00394201
0.00573166
0.0120106
0.0132756
0.00924265
0.0103536
0.00538255
0.00665093
0.00101408
0.0132063
0.00857762
0.00873259
0.00210212
0.00940606
0.0129522
0.00664702
0.0050165
0.00459672
0.00298248
0.00329725
0.00559923
0.00343736
0.00126855
0.00114146
0.00255776
0.0095556
0.00979235
0.0059462
0.00129263
0.00616046
0.0115175
0.0037663
0.00382379
0.00185526
0.00228895
0.00359859
0.00259645
0.00388153
0.00218
0.00179745
0.00653251
0.00238663
0.00120478
0.00595726
0.00141359
0.00181164
0.0125742
0.00184171
0.0101065
0.0107922
0.0128574
0.00800816
0.00183884
0.00187564
0.0012109
0.0124403
0.0012276
0.0063037
0.00613372
0.00476072
0.00419852
0.00944934
0.00328752
0.00314483
0.00671987
0.01129
0.0012531
0.00985267
0.0107498
0.00300016
0.00225265
0.0121483
0.000965868
0.00393703
0.00159774
0.0115622
0.0112612
0.00247688
0.00166215
0.00557272
0.000910466
0.0109392
0.00316487
0.00129318
0.00131792
0.0109205
0.00391603
0.00290185
0.00483484
0.00401336
0.0012364
0.00150897
0.00501443
0.00582248
0.00105129
0.00577872
0.00114717
0.00690356
0.00248135
0.00154917
0.00160801
0.00422987
0.0018802
0.00302184
0.00953481
0.00062657
0.00807766
0.000707934
0.000463311
0.00414199
0.000487016
0.0109175
0.0015568
0.00145647
0.00247801
0.000679218
0.000467831
0.00268423
0.0080559
0.000703996
0.00871631
0.0103603
0.000716402
0.000467783
0.00546308
0.0111846
0.0103858
0.00489095
0.00278208
0.00048233
0.0107911
0.00515162
0.00713133
0.000956648
0.00331315
0.00962359
0.00436242
0.0018356
0.0101963
0.010567
0.0040187
0.00223709
0.00800056
0.00935354
0.00306461
0.0017137
0.0109969
0.00411894
0.00730084
0.00714936
0.000454532
0.00797804
0.00268372
0.00907393
0.0012633
0.00821911
0.00719219
0.001111
0.00662112
0.00110143
0.00870758
0.012449
0.00530678
0.0117918
0.000917904
0.00191711
0.00264173
0.000743973
0.000515631
0.00671987
0.00277339
0.00416602
0.00449953
0.00372236
0.0011052
0.00344097
0.00638326
0.00557508
0.00437474
0.00124486
0.00393158
0.00508365
0.00238599
0.00707425
0.00439785
0.0105174
0.00311076
0.00422735
0.00372909
0.00614304
0.0055514
0.00543821
0.00450908
0.00105331
0.00212256
0.00850252
0.0056
0.00381495
0.000572574
0.00884301
0.00253149
0.00913333
0.00542651
0.00447419
0.00159864
0.0111745
0.00118298
0.00645443
0.0132983
0.0104261
0.00323514
0.00943145
0.0110404
0.00565043
0.00362888
0.00432651
0.00137817
0.00830674
0.00319541
0.0018051
0.00761745
0.0036039
0.00721132
0.0106839
0.00184269
0.00168701
0.00108931
0.000407312
0.00114067
0.00852318
0.00455325
0.00114629
0.00507253
0.00414266
0.00326995
0.00735743
0.00195706
0.00533778
0.00431522
0.00518148
0.00704136
0.00310124
0.0101569
0.00255144
0.0041747
0.00127223
0.00245741
0.00505812
0.00119572
0.00143463
0.00396517
0.0037729
0.00517249
0.005698
0.0105809
0.00137158
0.0034515
0.00333642
0.0005246
0.00478418
0.00569433
0.00686276
0.0104182
0.0106072
0.00151499
0.00948056
0.00190559
0.000756279
0.0101102
0.0028272
0.00441395
0.00769126
0.00274684
0.00381393
0.0125887
0.00821473
0.00528819
0.00307454
0.0027419
0.0037169
0.00395214
0.00952173
0.0116809
0.000903645
0.00651257
0.00441523
0.00110007
0.0035764
0.0019664
0.00471129
0.0135548
0.00911366
0.00242567
0.00806259
0.00462708
0.0117593
0.00605
0.0106836
0.00109067
0.00103922
0.00107807
0.000888471
0.000919008
0.00100574
0.000833037
0.00129313
0.00131238
0.00133853
0.00129922
0.00122799
0.00116523
0.00120474
0.00125244
0.00132912
0.000927462
0.0010447
0.00128205
0.00119405
0.00132522
0.001133
0.00111418
0.001122
0.00115653
0.00103857
0.00300984
0.000730081
0.000522602
0.00903278
0.00216175
0.00214195
0.00219745
0.00133216
0.00540802
0.00922576
0.00391031
0.0110516
0.0037419
0.000724536
0.00120965
0.00585998
0.00427824
0.00915373
0.00604376
0.00331812
0.00453215
0.00252458
0.0109554
0.00756429
0.00116523
0.00184683
0.00152022
0.000923905
0.000487345
0.000853881
0.00243289
0.0044544
0.00873525
0.0089152
0.00103021
0.00188041
0.00285255
0.00198279
0.00404972
0.00153488
0.00941244
0.00229454
0.00152835
0.00478849
0.00113218
0.00205073
0.0013787
0.00750183
0.00385041
0.00392217
0.00825679
0.00293958
0.00819611
0.00387886
0.00576377
0.00761633
0.00353293
0.0107304
0.00162109
0.00105516
0.000761761
0.00391338
0.00617858
0.00105387
0.00393423
0.00788226
0.00904719
0.00117632
0.00603555
0.00824024
0.00586592
0.00457238
0.0019359
0.00690289
0.00524516
0.00212183
0.00479063
0.00115592
0.00443242
0.00539554
0.0119713
0.00121755
0.00111179
0.0105472
0.00363661
0.0076044
0.00337904
0.002595
0.00131156
0.00641356
0.00313271
0.00680134
0.00975917
0.00392574
0.00882362
0.00106816
0.00214522
0.00979105
0.0048315
0.0104748
0.00115129
0.00106324
0.00255508
0.00173006
0.00123705
0.00554212
0.000738781
0.00139962
0.00737432
0.00110498
0.000385939
0.00228973
0.000904192
0.00751946
0.00606941
0.00198577
0.00867302
0.00091806
0.0014596
0.0102661
0.00330227
0.00754564
0.00121699
0.00107694
0.0043327
0.00338576
0.00109009
0.00235054
0.0062347
0.00662054
0.00277857
0.00222613
0.00700238
0.00481107
0.00447964
0.00693047
0.000803011
0.00628368
0.000831585
0.00173505
0.00126823
0.000745235
0.00177297
0.00264347
0.000610816
0.0024226
0.0100182
0.00170664
0.00207126
0.00358515
0.00470329
0.000933833
0.000929632
0.00517119
0.00771284
0.00547753
0.00146132
0.00164443
0.000926101
0.000716293
0.00075415
0.0029163
0.00792703
0.00104401
0.00170569
0.00151465
0.000250463
0.00601433
0.00849262
0.000563311
0.00229347
0.000584773
0.00153725
0.000944295
0.000569413
0.00058999
0.00157869
0.00325877
0.000726846
0.00109946
0.000470577
0.00051339
0.000495341
0.000470305
0.000995781
0.00101766
0.000543604
0.00060409
0.000622149
0.000605072
0.0009163
0.0110065
0.00711991
0.00497895
0.0062035
0.0052148
0.010075
0.00481417
0.0011835
0.00103989
0.00900889
0.00261053
0.00155998
0.00161331
0.00601943
0.00350694
0.0096754
0.00971445
0.000487189
0.00715088
0.00246818
0.00399836
0.000666707
0.00294458
0.00276153
0.00641764
0.00177038
0.00540586
0.00681632
0.00333648
0.000879765
0.00103684
0.00087571
0.00198071
0.00553583
0.00313902
0.00432508
0.00268719
0.00306917
0.00476189
0.00132822
0.0108378
0.00620995
0.00397429
0.00525353
0.0083292
0.00969881
0.0111618
0.00183426
0.00129867
0.00525668
0.00428107
0.00403563
0.00413382
0.0059902
0.00389152
0.00291295
0.0118403
0.00104516
0.00105214
0.00923737
0.00293883
0.0012387
0.00240096
0.0032824
0.00391961
0.00987912
0.00120829
0.00358565
0.00105748
0.000916473
0.00530651
0.0117236
0.00249001
0.00954459
0.0068745
0.00135078
0.00244364
0.00764614
0.0120859
0.00177732
0.00157616
0.0096429
0.00321249
0.00888425
0.00801045
0.0105367
0.0118085
0.00160282
0.0045721
0.00437132
0.0037563
0.00244873
0.00956366
0.00395879
0.0063758
0.00390314
0.00542976
0.00189158
0.0100621
0.00700442
0.00241571
0.00326035
0.00305522
0.00127297
0.0028962
0.00488254
0.00355183
0.00307658
0.00379882
0.00262104
0.00255501
0.0063199
0.00940389
0.0009519
0.00186817
0.0038935
0.00138836
0.00337072
0.00439262
0.00184183
0.00168051
0.000909692
0.00393053
0.000902468
0.00292722
0.0109155
0.0111022
0.00152762
0.00290293
0.000883355
0.00865186
0.00237033
0.00135275
0.00663632
0.00315958
0.00952981
0.00884649
0.00400477
0.00364243
0.00155084
0.00243352
0.0032544
0.00752043
0.00179216
0.00128757
0.00661153
0.0013546
0.0102199
0.00313314
0.00221014
0.00301917
0.00642022
0.00572191
0.000866607
0.00909949
0.00177299
0.000858588
0.010403
0.00667352
0.00339933
0.00293459
0.00194674
0.0103735
0.00240101
0.00685192
0.00333942
0.00292538
0.00525215
0.00497218
0.00712307
0.0109017
0.0108246
0.00227223
0.00209053
0.00174607
0.00414308
0.000773499
0.00312632
0.00344048
0.000499038
0.0105875
0.00238357
0.00335577
0.0103214
0.00202734
0.00640098
0.00373982
0.000924043
0.00338658
0.00446106
0.00205911
0.00170338
0.00183647
0.00947986
0.00575859
0.0100978
0.0105266
0.00489869
0.0018764
0.00232693
0.00200356
0.000864591
0.0014824
0.00572564
0.000982467
0.00437471
0.00503094
0.00688373
0.00616825
0.00374231
0.00855834
0.000903316
0.00388215
0.00656354
0.00560222
0.00184692
0.00206847
0.00574813
0.00193673
0.0013058
0.00216149
0.00621183
0.0107766
0.000996646
0.000407784
0.00348278
0.0026136
0.00305222
0.0102329
0.0068812
0.000678436
0.00318795
0.000515336
0.000886712
0.0013508
0.00174195
0.00320772
0.00928066
0.000410526
0.0106925
0.0101075
0.00592066
0.00161267
0.00110986
0.00757571
0.000985718
0.00389238
0.00243222
0.00391717
0.00739155
0.00130508
0.00352043
0.00326329
0.00315623
0.00190926
0.00297678
0.00113343
0.00553296
0.00305042
0.00685069
0.000988425
0.00357533
0.00308743
0.00382238
0.00309313
0.00326684
0.00908483
0.0027863
0.00316751
0.00262195
0.00312555
0.00819462
0.00254517
0.00150854
0.000247617
0.000393933
0.00281842
0.00493794
0.00291296
0.00601662
0.00455447
0.00113888
0.00208913
0.00980539
0.00627335
0.00463568
0.00362395
0.00232873
0.00582282
0.011093
0.00180847
0.00276422
0.00466112
0.00250163
0.00619615
0.00264892
0.00289618
0.00560239
0.00339026
0.00500685
0.00472942
0.00311091
0.00518304
0.00348161
0.0020411
0.00310564
0.00134954
0.00522302
0.00341646
0.00497302
0.00416024
0.00354341
0.00317219
0.00680913
0.00411363
0.00620528
0.0032375
0.00907822
0.0105936
0.00212706
0.00109542
0.00685939
0.00242278
0.00184369
0.00171904
0.00307462
0.00325768
0.00407443
0.00486504
0.0031545
0.00330767
0.000741187
0.00372738
0.00403392
0.00293992
0.00518559
0.00171291
0.00211536
0.000918958
0.00165335
0.000881846
0.000519389
0.0015974
0.0021733
0.000582481
0.000596261
0.00125745
0.000743419
0.00141964
0.00184707
0.00111898
0.000758371
0.00168841
0.00238542
0.00150547
0.00135472
0.000987839
0.00174076
0.000728691
0.000837177
0.000962396
0.000668621
0.000946752
0.000586624
0.0022636
0.000568152
0.000535058
0.00182053
0.000793212
0.00130526
0.00118121
0.0023415
)
;

boundaryField
{
    frontAndBack
    {
        type            empty;
    }
    wallOuter
    {
        type            nutkWallFunction;
        Cmu             0.09;
        kappa           0.41;
        E               9.8;
        value           nonuniform List<scalar> 
108
(
0.000120944
0.000134317
0.000113738
5.84503e-05
5.28203e-05
7.57174e-05
8.52536e-05
5.61191e-05
5.90154e-05
8.19059e-05
5.6665e-05
8.47932e-05
8.62408e-05
5.66703e-05
5.84269e-05
5.49508e-05
0.000130995
8.94312e-05
6.23748e-05
6.93126e-05
4.9131e-05
0.000134897
6.35638e-05
9.08531e-05
0.000128723
0.000123001
0.00012732
0.000106043
0.000109499
0.000119269
9.97231e-05
0.000150968
0.000152959
0.000155798
0.000151623
0.000143852
0.000136959
0.000141277
0.000146426
0.000154772
0.00011038
0.000123551
0.000149643
0.000140004
0.000154303
0.000133267
0.000131323
0.000132194
0.000136015
0.000122916
6.32212e-05
8.7179e-05
0.000136978
5.90267e-05
0.000133207
0.000124785
9.14847e-05
0.000131075
0.000125531
4.64749e-05
0.000109291
0.00014254
0.000127147
9.95062e-05
8.95724e-05
7.37549e-05
0.00011112
8.62229e-05
9.0604e-05
0.000123334
2.91311e-05
2.91311e-05
6.81044e-05
7.07111e-05
6.88701e-05
7.13422e-05
0.000129713
5.69238e-05
6.21318e-05
5.99339e-05
5.68963e-05
0.000118086
0.000120532
6.58133e-05
7.30249e-05
7.51617e-05
7.31379e-05
0.000109138
0.000138865
0.000123031
5.90123e-05
8.03242e-05
0.000105024
0.00012263
0.000123603
0.00012438
0.000124927
0.000109179
0.000107569
6.04424e-05
0.000103235
0.000116587
4.91953e-05
6.23427e-05
4.95391e-05
2.87528e-05
4.74674e-05
0.000133914
)
;
    }
    inlet
    {
        type            calculated;
        value           nonuniform 0();
    }
    outlet
    {
        type            calculated;
        value           nonuniform 0();
    }
    wallInner
    {
        type            nutkWallFunction;
        Cmu             0.09;
        kappa           0.41;
        E               9.8;
        value           nonuniform List<scalar> 
126
(
0.000201311
0.000240288
8.05563e-05
8.86617e-05
0.00022225
0.000215537
8.02231e-05
6.80801e-05
0.000153045
0.000215638
7.78576e-05
0.000178228
8.51405e-05
0.000132049
0.000189759
0.000196859
0.000107395
0.000110661
0.000119531
0.000118629
0.000236655
0.000102494
0.000226975
0.000132339
0.00013958
0.000212468
0.000205147
9.83495e-05
9.66412e-05
0.000174172
0.000109343
7.17882e-05
0.000196318
0.000248652
0.000231321
0.000172235
8.56459e-05
0.000214279
0.00012576
0.000200512
0.00017926
8.73921e-05
7.14849e-05
0.000199722
0.000221327
8.05905e-05
7.37337e-05
0.000151613
0.000105814
0.000170915
0.000123346
8.23574e-05
0.000157888
0.000221366
0.000147548
6.17153e-05
0.000112006
0.00019327
0.000166609
0.000128327
0.000102322
8.17019e-05
0.000122378
0.000183748
0.000113855
0.000174983
0.000175484
7.67995e-05
0.000139509
0.000165483
0.000165302
0.000169669
6.63418e-05
0.000169215
0.000190579
0.000195159
5.80051e-05
8.55025e-05
8.95795e-05
7.55976e-05
8.79157e-05
8.11739e-05
0.000189021
0.000195116
0.000193401
0.0002097
0.000190687
0.000196177
0.000130176
0.000222776
0.000169349
0.000152349
0.000133482
0.000195981
0.000109442
0.000190057
0.000105225
6.28058e-05
0.000183971
7.15959e-05
7.05451e-05
0.000146958
8.95628e-05
0.000164624
0.000210361
0.00013171
9.09458e-05
0.000193483
0.000265856
0.000173921
0.000157614
0.000117151
0.000198956
8.76483e-05
0.000100135
0.000114328
8.02886e-05
0.00011168
7.14239e-05
0.00025353
6.85894e-05
6.45809e-05
0.000207343
9.46881e-05
0.000152281
0.000138655
)
;
    }
    procBoundary1to0
    {
        type            processor;
        value           nonuniform List<scalar> 
29
(
0.00147935
0.00147935
0.000881529
0.00220052
0.00611781
0.00250929
0.00280017
0.00117701
0.00232823
0.00197871
0.00167106
0.00250929
0.000881529
0.000748545
0.0020574
0.00109674
0.00611781
0.00534186
0.00220052
0.00162789
0.000825243
0.000739432
0.00304648
0.000708141
0.000708141
0.00304648
0.000722018
0.000907815
0.000722018
)
;
    }
    procBoundary1to2
    {
        type            processor;
        value           uniform 0.00150663;
    }
    procBoundary1to3
    {
        type            processor;
        value           nonuniform List<scalar> 
48
(
0.012419
0.00622798
0.00860196
0.00860196
0.00380951
0.00428258
0.00428258
0.00875082
0.0141375
0.00120959
0.00111339
0.00120959
0.00119945
0.00118954
0.00150105
0.00119945
0.00113675
0.00113675
0.0012898
0.0012898
0.000924762
0.00113607
0.00145308
0.00169947
0.00169947
0.00122651
0.00255963
0.00255963
0.0056576
0.00277528
0.00141975
0.0056576
0.00875082
0.0138213
0.00138547
0.00277528
0.0117436
0.00111339
0.0135776
0.00295738
0.00101339
0.0131085
0.0138213
0.00138547
0.00155448
0.00100644
0.00362633
0.00101339
)
;
    }
}


// ************************************************************************* //
