# vtk DataFile Version 2.0
track0
ASCII
DATASET POLYDATA
POINTS 7 double
0 0.210526 1e-06
2.46415e-19 0.631579 1e-06
1.97132e-19 0.631579 1e-06
1.47849e-19 0.631579 1e-06
9.85659e-20 0.631579 1e-06
4.9283e-20 0.631579 1e-06
0 0.631579 1e-06
LINES 2 9
1 0
6 1 2 3 4 5 6
POINT_DATA 7
 FIELD attributes 1
p 1 7 float
83997.7
92669.3 92669.3 92669.3 92669.3 92669.3 92669.3
