/*--------------------------------*- C++ -*----------------------------------*\
| =========                 |                                                 |
| \\      /  F ield         | OpenFOAM: The Open Source CFD Toolbox           |
|  \\    /   O peration     | Version:  v1912                                 |
|   \\  /    A nd           | Website:  www.openfoam.com                      |
|    \\/     M anipulation  |                                                 |
\*---------------------------------------------------------------------------*/
FoamFile
{
    version     2.0;
    format      ascii;
    class       volScalarField;
    location    "0.2";
    object      epsilon;
}
// * * * * * * * * * * * * * * * * * * * * * * * * * * * * * * * * * * * * * //

dimensions      [0 2 -3 0 0 0 0];


internalField   nonuniform List<scalar> 
5794
(
11.007
1.22953
4.67055
2.01021
5.36321
1.37617
63.7037
51.5097
136.508
11.4373
57.3091
0.968815
0.611172
0.85142
4.20347
0.78223
164.154
1.31042
3.90025
1.78623
69.2209
2.81815
12.9582
1.7978
1.27597
138.972
108.216
7.33459
35.0857
5.17502
0.312142
7.89981
4.48364
1.36884
1.3059
15.3467
4.45464
1.86301
2.22784
17.523
2.27556
9.15468
9.6658
5.23386
4.50605
13.6266
7.94561
1.2778
4.91438
46.7262
0.772235
62.6358
13.8814
3.41153
0.120801
2.82232
11.6633
5.60708
5.87035
301.212
58.084
1.27521
0.281196
11.4586
12.4319
0.551468
9.51815
12.4186
1.63579
2.36975
54.5681
10.6264
68.0981
12.9829
1.57407
9.25571
2.11992
89.2916
5.013
0.294004
4.77317
1.76956
2.98085
7.29032
1.44548
6.01818
6.74801
25.9435
2.03519
7.73812
14.2132
3.60376
43.1651
30.3733
3.71097
34.2846
12.0984
30.5323
3.43028
64.3028
54.0778
3.04746
7.52361
1.33665
2.82249
5.81943
1.46975
1.87793
30.5866
5.17546
0.436227
4.76266
60.3497
0.283675
2.53199
30.7695
2.73389
3.52047
52.5736
22.4157
4.0444
5.70291
0.685771
11.0721
11.1498
62.8456
2.25061
1.26989
56.294
11.3036
1.29812
1.32119
6.11951
75.0332
4.24186
5.23905
124.669
1.16816
0.376411
1.30893
8.32022
5.47617
11.2731
4.25583
0.854112
156
0.621317
47.6308
2.7009
5.3552
12.8969
2.99203
5.0489
0.996662
141.344
6.16495
2.81286
0.501818
96.7324
1.71422
6.43576
1.03482
1.37038
4.4431
13.4075
20.6026
5.38096
2.02798
0.586273
7.11791
4.93926
6.12699
1.43933
1.37676
1.82931
18.8153
4.46192
2.62095
1.60112
122.241
0.67436
16.7845
0.334645
0.470912
0.810749
87.3452
4.5706
1.13884
4.71656
2.59731
75.8861
9.892
0.792334
0.308368
0.720133
1.7401
17.8485
0.632951
3.19894
7.00669
43.6116
75.8371
0.469043
13.3639
7.74469
23.0467
1.08434
2.0607
3.37248
97.5688
7.07239
10.6548
15.4714
4.47079
1.35866
1.55593
16.1996
4.76196
36.5635
60.5942
10.1771
0.752446
40.8424
10.8741
144.932
21.9219
2.94697
12.0031
3.0806
3.8233
3.76716
1.08721
1.23897
53.3319
1.49122
9.27262
6.62525
34.0071
0.70895
9.71626
1.64961
5.53667
62.252
2.7779
1.38457
0.773288
5.23818
1.86222
19.821
13.2202
6.26947
0.494884
157.802
0.454679
4.99822
7.34519
7.11299
17.5882
1.95804
10.0342
77.7981
14.0905
4.96434
0.212159
30.5895
0.540491
3.03928
71.1452
7.08593
57.8986
7.55904
0.311543
1.89353
53.8903
16.9374
3.39779
3.54218
9.95167
1.25403
0.564105
0.400372
19.4234
2.19967
8.61914
7.94941
21.4233
10.8493
5.34027
37.8296
3.2253
12.783
0.960848
1.18397
4.58926
4.88886
106.742
1.46302
5.97208
5.68364
0.215227
2.36744
57.4295
3.50111
70.142
5.82007
74.9822
1.03685
1.81637
75.6791
6.20956
0.321479
25.8059
109.462
0.252625
9.80843
34.9317
2.63785
5.06914
13.8866
3.57364
74.6338
36.1752
3.0288
3.12175
0.679063
2.07354
14.1248
1.20305
0.512409
51.1177
103.84
8.89338
0.478106
1.50925
7.159
7.69992
4.81393
0.974498
3.27289
0.989889
2.19457
1.56752
126.493
14.5737
3.95673
0.410548
0.472788
22.959
23.0552
2.47826
1.08291
105.682
0.554669
13.1357
0.312368
61.6895
3.2855
66.6231
50.42
29.3358
2.08384
1.40864
97.7271
55.9641
38.3915
2.06292
16.7461
5.46699
11.0983
2.11566
1.82739
0.289638
1.84469
2.10894
9.36178
12.4214
2.53743
12.426
8.50794
0.353136
8.15453
1.89819
12.4725
12.8806
1.81252
1.40689
97.1005
28.2226
13.1699
6.3845
2.1504
12.8805
2.51066
0.656583
1.14337
1.55012
1.42831
3.95246
7.44753
16.3852
1.5506
1.95039
28.5376
0.39252
3.50276
44.866
13.1049
1.30923
1.9719
23.2542
15.8735
3.88826
32.2358
8.6229
58.0428
8.35018
0.357458
2.25125
9.33179
12.034
3.55358
26.4769
9.78947
1.72766
2.8602
1.05081
1.85169
0.326752
1.41452
4.66042
89.0952
5.74898
3.33784
86.77
3.56826
3.16347
1.62696
7.03402
5.95045
1.86818
1.44206
8.10493
0.921442
0.977756
12.8478
28.188
2.84894
0.21103
4.17899
92.8309
5.24466
1.4382
102.144
3.15942
22.3401
0.209239
15.8609
40.0832
4.43092
41.5807
2.48004
1.37299
20.0827
0.491307
71.6398
12.4307
17.7691
9.50963
25.9292
5.65257
0.315678
5.10616
57.4774
2.17543
10.035
83.134
22.6439
7.6965
11.8302
1.42332
31.6676
2.67199
3.56469
2.23925
4.3498
45.8995
10.5618
11.5586
76.3105
3.61833
1.44558
1.69437
2.21796
1.94832
21.3172
0.953766
4.59108
1.65454
0.234413
39.684
4.95716
13.9011
8.60499
1.44865
2.21843
1.53001
2.15151
29.6033
38.8965
0.409816
32.9035
0.828305
7.83358
0.196271
0.219745
2.48408
47.0653
0.193585
5.6474
25.4885
1.59635
1.19944
6.60492
2.17374
16.7465
1.76724
10.5489
43.6561
1.63276
2.18401
23.7149
0.361317
16.8537
1.54246
1.73429
7.14827
6.59716
159.014
12.7378
63.0007
3.77012
104.077
1.59259
1.10324
8.06389
0.562258
5.61067
4.66507
0.25187
1.37779
1.85144
0.744273
4.43832
6.11015
1.72006
9.47077
20.8383
2.01286
1.82071
5.10673
167.402
3.95742
60.1552
3.49694
1.05796
12.3902
0.703376
11.0524
1.7658
0.277569
80.7394
36.3688
29.0548
11.6626
68.9195
9.28988
7.90695
11.4848
9.77928
1.53604
33.8629
5.03822
13.1626
14.5674
27.5951
51.5668
0.379146
18.5153
5.08361
22.2089
0.354912
1.22423
0.982795
30.6729
4.53231
47.2982
0.232905
9.32698
0.300983
5.49628
7.56405
92.4826
3.15894
29.1562
0.20423
8.66825
195.84
5.11901
0.161648
5.01907
9.36244
10.7004
2.14854
10.6619
0.408817
0.727858
35.6851
17.0208
7.76415
2.04983
1.70408
56.2056
71.4199
2.25788
1.43511
1.81773
2.51575
8.32186
5.90439
0.326829
9.02263
1.1998
0.679489
1.52735
1.2061
3.19857
96.2328
26.3391
2.60708
3.4185
5.25122
8.7981
29.3619
5.88446
127.313
43.5614
5.35903
51.4802
0.804698
0.631406
1.61278
9.22385
1.61978
1.89781
0.573128
77.2635
33.8623
1.51447
48.7736
5.45585
0.451662
4.29311
2.88983
50.0043
1.48823
4.80943
41.358
24.217
11.1414
11.3873
35.5333
4.19962
23.7501
35.3769
1.80799
3.20904
33.7917
10.0861
2.47766
11.0106
1.13897
2.4158
1.83381
0.27127
2.94864
139.545
0.975004
1.43916
1.56881
0.196216
4.90229
51.4598
90.8279
4.85435
4.18293
41.1176
4.02707
2.15933
1.99549
9.80379
3.99747
0.520438
0.391077
18.1326
5.56777
193.336
6.35099
2.66592
1.51686
9.52361
20.7111
44.6409
5.01647
0.995427
45.2421
16.1817
8.71325
54.0121
54.2324
8.69557
5.50406
101.761
158.542
1.0991
5.65505
4.55729
13.8669
28.1336
8.85901
38.2193
5.1966
51.2728
37.1611
37.3796
4.42013
3.70367
94.8831
16.6474
3.50164
38.7204
13.4254
2.10837
2.14001
6.08409
7.09326
16.5769
11.9226
57.6004
16.1124
8.97368
1.49793
7.54629
1.35784
0.201012
2.89427
29.9051
5.18593
32.0792
4.09268
8.06083
13.7043
11.4181
30.802
4.2819
44.0812
26.1568
10.9025
13.3762
4.93226
17.8314
4.68024
20.3563
7.57265
1.42215
2.36335
0.843739
1.68205
11.1919
2.9629
1.20809
14.2261
41.5978
17.1106
2.06114
1.41442
31.484
8.52982
3.89529
31.2248
5.34288
0.50322
14.9315
0.76615
25.5692
6.75733
9.88173
1.39772
148.237
3.50552
90.5342
10.0078
2.93697
11.4985
0.299987
1.44117
3.8544
14.1447
3.40321
82.1579
53.8887
5.41213
8.69304
8.81738
31.927
62.7961
0.637464
1.24967
6.59421
8.96425
2.03024
1.55828
21.1231
46.5915
20.8905
0.282598
17.3829
3.01607
2.3048
3.3152
5.48494
20.264
19.0749
9.30714
1.30651
5.06578
2.45242
5.10614
76.7206
12.1223
2.20619
2.73853
1.69055
21.7735
1.7808
26.453
0.220005
7.16621
5.82496
10.7384
13.8821
3.39675
31.6158
7.745
33.9301
69.9215
51.5316
25.4507
29.9057
0.212725
0.801419
5.25635
3.58322
6.11335
1.78519
41.5053
5.9697
117.041
16.1087
0.991289
1.29567
0.610972
14.1092
54.9151
1.2259
328.791
2.59735
1.76437
72.5263
15.7394
6.53003
0.949326
2.12634
8.30386
7.09822
0.653773
1.62384
51.0673
71.759
5.47912
10.0696
47.2054
15.2364
3.79914
40.5298
66.6725
66.9879
4.41836
4.18926
1.25983
7.3514
0.282641
0.572613
1.47347
1.3785
34.5897
1.32131
7.34959
0.365176
15.2129
29.0974
5.12965
8.41064
9.52133
23.998
24.7348
2.55001
51.065
6.28432
0.452179
24.7157
12.7103
39.3641
7.83907
39.875
11.1689
6.67604
1.79742
35.1345
20.7255
6.01243
4.18095
4.33265
2.95737
2.79339
77.127
2.06587
8.72747
11.8987
3.66391
23.8449
5.63628
11.5886
1.97776
1.40213
2.28314
0.250411
5.80198
18.9919
161.846
6.93872
4.69224
75.1596
1.39109
3.40036
9.97236
22.7807
10.0415
5.79461
23.8214
54.4416
3.91582
8.11078
0.911488
0.897126
0.36878
0.790729
0.898333
5.82902
0.220631
0.310838
1.72706
1.02143
7.95133
1.7293
5.34034
1.52674
0.320736
72.6003
9.71779
1.26783
2.30283
3.27705
0.556294
40.9413
4.83391
22.66
0.837624
30.9101
45.2686
0.930259
9.98972
12.943
0.22508
9.22784
71.7729
21.4305
9.12548
174.383
0.200463
11.0493
30.1754
2.09886
24.9286
27.6276
6.20974
29.5003
1.80179
7.1247
0.410547
0.512331
18.2743
13.4197
99.3861
26.1592
12.8753
0.448309
3.05111
45.8897
12.4221
11.4089
48.2346
1.43562
2.71819
1.31971
36.672
10.9982
3.28242
4.61315
22.5028
4.42196
4.81325
10.0347
0.402853
1.21259
11.1321
4.01985
3.66273
15.9966
1.55653
8.19477
24.2475
0.208747
2.61985
0.807763
5.2274
5.72301
0.209748
3.3832
0.904224
10.3568
5.36996
1.75341
8.84052
9.58742
0.499773
7.12588
6.1881
0.198902
129.21
22.9699
1.84692
1.26585
18.9636
0.260943
0.475434
10.3588
1.12997
0.260001
1.51494
0.994825
4.16692
45.5774
25.9237
8.57048
29.9702
4.26118
0.289075
1.17934
10.2926
8.35425
2.56387
5.03609
0.338517
26.2909
0.337684
4.51936
1.85501
64.5297
2.19036
9.76289
89.5254
0.572987
38.2756
15.777
0.326484
4.56385
2.89908
32.257
35.7252
0.429979
40.3369
0.526005
0.524808
16.5591
1.40643
2.09725
4.48822
1.26568
23.9522
5.99649
124.881
1.16683
1.53387
1.17535
4.50316
1.14077
17.7957
1.09743
29.8462
7.95886
21.0983
11.3364
2.0812
0.686087
3.99742
3.365
4.19764
2.47086
7.2881
24.2362
57.5311
64.3303
21.8779
18.9867
8.51835
8.50119
10.7122
1.04698
2.28863
0.201006
672.659
42.8043
0.199816
1.34322
63.442
57.6072
8.94955
1.33514
10.7428
1.20178
48.5369
0.489096
8.77015
27.2375
2.30385
9.61222
23.6086
1.88959
0.230752
5.49913
13.1334
9.96432
33.0075
1.36007
48.821
2.90525
10.5448
23.676
0.798436
4.36027
22.0278
9.24687
17.75
11.9151
4.4464
1.30259
11.1639
1.67034
9.9257
5.7631
1.21402
5.54951
25.5427
1.2959
24.1887
70.3287
77.2898
8.18457
4.64361
7.40587
6.93531
0.635071
30.211
11.1019
25.2507
0.199569
2.3388
0.668256
163.037
0.199568
0.42474
5.23445
1.40394
1.37732
38.6634
3.06363
6.31698
1.5347
6.28244
10.8954
65.1098
17.6705
1.8597
1.0519
1.33808
1.86142
66.5252
16.6217
4.81642
8.60919
0.574255
1.81669
0.354497
16.5769
10.7341
0.387031
8.36368
36.7514
2.11539
0.473744
4.29244
3.42499
33.9493
49.4062
25.7925
10.7016
0.482971
3.55244
9.77489
1.16724
58.085
1.22322
0.361451
52.1728
9.98212
0.391097
0.199121
13.0603
85.8293
0.592875
0.3124
14.2971
2.00491
1.95184
4.5769
5.00912
5.16276
0.206908
8.57447
5.8373
94.3737
9.17558
4.81799
34.4061
4.45123
3.70734
1.68611
1.12698
43.6164
8.14148
14.4081
10.4154
6.84838
40.7789
20.8379
5.20096
12.8401
1.06169
7.05416
0.234695
13.0616
6.03377
5.80059
4.5972
3.16876
3.69176
9.35214
2.54722
0.267136
0.981463
7.38539
8.65879
0.34656
12.5743
75.1495
9.35676
58.4694
56.9363
1.79125
0.882247
40.5888
1.36443
46.9135
19.8657
12.0038
1.45331
0.698159
1.67839
0.701345
8.69706
0.553896
4.63402
0.372385
1.3792
2.39702
34.0327
4.78382
34.9683
19.1271
13.6205
8.82876
0.468854
3.36628
7.65938
9.29173
4.25919
7.04434
0.436073
13.0043
26.9353
6.86853
53.8366
9.38293
32.5272
14.8531
3.75313
0.220278
5.88768
15.3602
2.04938
10.8135
0.781267
0.229239
2.91106
21.5041
0.381443
8.08612
11.9618
0.769709
1.43462
3.61877
3.58881
0.676535
7.60181
7.71096
49.4428
15.1817
0.22
23.3228
17.9606
1.60791
18.4315
1.20023
72.6076
0.590136
1.88968
1.22227
5.11395
278.31
11.3766
9.41604
5.6807
22.0535
116.831
23.4068
2.64823
0.37641
0.695343
0.451243
0.264587
1.01921
1.88283
0.332993
13.3891
0.30187
0.441316
21.0236
10.2575
0.337911
1.22688
0.250109
1.07492
2.36511
1.15502
7.8344
20.6814
0.970981
1.82235
0.320145
0.581451
8.87933
13.7181
18.0396
0.224537
0.33056
9.29657
20.5102
0.651005
0.413538
0.690613
0.363649
0.362319
1.74745
0.52357
0.230737
5.36891
0.346916
17.7531
7.12369
1.18358
1.83415
9.3763
0.403071
15.9945
33.5868
70.4112
3.5334
1.51022
0.202019
14.9521
1.86271
42.6655
3.70347
143.627
7.70962
87.8382
38.1087
0.37094
0.343715
0.219111
8.15491
2.10323
3.72445
0.337505
4.43094
4.50764
10.2849
22.5981
2.55225
11.0425
41.3146
22.5228
196.522
1.46732
15.5799
20.9778
12.5162
7.85788
15.2845
107.018
0.955857
39.9405
3.82424
13.5556
9.61587
1.51393
11.4904
13.9053
530.567
1.05061
18.8376
1.22428
0.90331
3.25143
3.1342
109.059
1.17202
0.415732
0.298159
1.76359
1.17435
0.361962
5.09595
0.254375
0.425416
1.16888
0.209418
6.85755
19.402
0.302136
7.00131
10.0675
9.42335
20.9326
1.62757
1.1579
0.599347
0.396696
3.58166
0.730452
49.4353
125.173
0.392396
20.0447
6.70661
13.9162
1.50107
0.195876
62.1837
2.89182
2.78858
61.7712
2.65494
9.64743
0.387037
2.439
39.1394
2.79439
16.9051
77.4424
1.98758
0.197515
2.31911
29.5685
1.41574
2.70364
12.7492
87.3854
1.89594
3.38356
0.322823
1.9812
1.00985
0.797369
4.3245
0.751431
81.3555
0.266944
15.6201
1.45023
0.231336
0.231873
4.16419
0.389608
0.471827
2.71006
0.752944
71.9983
10.7373
0.77375
15.4349
5.10898
4.25083
13.3533
0.68785
9.09542
8.83537
4.89247
58.719
6.80117
0.649946
9.92253
13.0442
1.62615
10.2486
0.82332
0.255361
9.26134
19.8391
0.255083
0.844816
1.84174
0.26454
18.9319
26.3863
63.8094
13.4337
2.07019
51.8919
0.21933
1.50786
6.59888
1.55219
1.44563
18.3578
0.740044
13.7549
0.203241
5.50113
3.87791
1.06249
8.03554
1.60244
17.306
2.74003
1.46056
1.20482
0.550067
1.453
23.9457
0.89099
1.45334
43.5902
9.14911
41.2961
10.9271
35.6294
33.3516
30.686
20.2649
4.14497
3.11461
36.0504
1.52938
45.2505
65.0684
189.502
19.5754
84.3989
34.2751
19.3343
4.08788
1.4471
11.9839
54.6487
5.90867
2.70176
27.2952
191.464
62.0205
30.1428
44.7397
7.84082
3.90982
4.10171
0.932299
0.68148
6.89864
46.9494
1.06809
0.269284
4.52021
14.5845
11.9864
42.5428
50.7617
11.1001
55.6159
10.5853
0.842504
10.8899
12.2027
70.3584
68.7274
13.6254
62.4068
11.1791
12.6682
10.1043
8.23852
6.30125
1.75035
30.1667
6.51187
1.52971
1.48556
6.0983
0.379053
3.41157
109.499
32.1512
6.85984
1.32838
1.42452
12.8951
37.8567
25.8707
25.188
1.40797
5.49056
1.30149
3.7397
5.22237
10.7701
184.244
5.08014
7.01649
1.60251
10.7253
0.420166
26.0865
0.780407
20.6878
1.65285
0.363195
15.79
5.69096
0.75082
2.30798
0.689381
2.26964
80.4553
4.73451
4.28966
7.44276
0.70417
59.3946
73.2189
2.61544
98.8111
21.1221
6.11057
58.5055
1.61096
9.06824
84.9232
28.6694
104.124
3.52913
0.696923
139.64
82.4984
88.0834
9.64936
5.48065
7.5722
11.7971
0.550169
89.6288
3.43233
0.832639
11.3578
5.26095
8.77728
1.37243
0.592801
55.572
38.6019
34.7456
85.7951
84.5019
9.54876
72.8706
5.09793
8.5678
32.9684
1.3044
147.067
0.443672
84.364
31.9846
5.65252
1.39298
83.0269
84.3959
8.95389
181.593
89.2146
4.92329
24.0232
2.33638
10.0498
0.347839
23.4127
21.1753
68.6519
30.5604
25.1415
13.396
27.7877
18.2161
17.2327
15.261
1.55256
0.787532
242.341
1.76149
6.03325
0.265922
42.5847
16.8541
4.76195
3.50664
12.9927
15.4943
1.92784
10.2362
6.83454
23.1665
1.01341
8.33623
7.4499
1.30607
16.8178
1.17613
7.7356
4.68513
16.0626
16.4756
3.2311
4.78388
29.346
10.9593
31.96
4.44946
0.300857
0.519973
24.1402
13.0896
14.6258
12.1947
0.792181
4.61006
2.7655
3.68623
37.4257
8.31301
6.85503
7.72909
107.379
16.0781
4.42742
33.0283
1.90068
3.87788
8.2334
2.094
15.044
5.26094
190.099
1.51156
8.3795
3.15075
8.77738
9.44472
9.7063
3.93273
2.16985
4.58099
2.31257
9.46617
1.94243
1.74476
3.61354
5.69117
5.39649
3.54477
2.00009
15.8349
18.5452
4.27983
0.691869
8.24559
0.346758
6.94346
2.22356
0.783077
22.9648
0.912238
11.9621
21.0148
0.971166
9.83131
3.04186
2.38861
36.1772
97.3189
41.8672
24.1107
2.77508
13.9702
1.04286
1.73184
15.2121
1.03439
0.467055
0.828669
40.9777
25.4828
1.14596
1.27988
8.51438
5.11715
8.29208
2.05327
0.497384
37.9468
38.1224
32.4659
1.02087
1.56026
9.47627
0.981158
0.770868
7.70515
26.1925
2.4138
29.1976
71.2706
36.2555
52.3695
218.837
47.0104
10.9631
1.06845
11.3229
57.5544
200.628
6.94906
2.37217
37.8986
0.682459
2.68737
6.10776
8.32869
1.32463
0.861812
0.806404
213.837
98.2664
31.7432
75.6264
0.505263
46.2141
27.2987
17.6622
6.00693
3.63331
1.6486
135.767
0.985982
5.04239
8.51997
1.46507
0.567561
3.45814
0.714512
39.1661
1.89681
5.9698
59.4169
37.0131
55.1556
156.141
6.29236
3.37283
60.7321
162.798
91.5662
57.4148
1.17243
10.1876
166.647
41.7628
0.642339
2.53529
10.6932
0.53898
0.91853
39.7755
1.04966
6.16642
29.4791
131.735
143.639
93.9943
28.7434
70.208
11.9711
7.50371
0.295609
31.75
18.4626
64.6054
11.6743
4.89361
10.3669
21.8108
2.78894
1.25925
1.07195
1.45013
7.69109
6.25608
5.68114
11.8208
7.93957
1.91232
35.9478
2.91008
9.97763
4.47528
77.1069
51.192
12.3022
23.6314
27.866
4.57078
6.94736
0.342793
0.85286
1.1487
2.80731
3.77099
3.05063
20.0127
12.7025
32.4772
0.891794
120.725
26.4435
80.0006
11.5302
0.227019
45.4836
18.9536
0.744816
3.4406
62.8355
56.63
39.7729
19.6545
13.1087
36.0663
2.46741
1.42755
6.12212
1.85975
11.3707
2.75879
1.98753
3.04921
5.61206
53.4697
8.73562
21.1824
1.69736
8.46021
25.8934
8.88182
10.2236
57.2061
8.84373
4.14606
55.0455
2.66389
1.81304
62.1531
22.4806
78.5143
88.0023
1.34276
5.70528
15.7081
6.21534
6.50304
41.689
3.27411
10.8588
0.315166
0.841836
1.85714
2.23263
2.10279
64.9063
1.5521
17.7054
5.69194
6.21472
6.25989
18.6756
6.73847
6.5248
7.66892
8.80245
8.06469
39.915
6.56712
20.9125
33.8801
11.2987
0.589774
100.663
16.5481
21.4542
7.91366
25.0801
110.415
27.4671
66.8689
2.53619
50.3245
6.6335
6.01065
0.471259
0.228747
42.0662
32.7906
14.9867
24.0468
0.627239
0.516446
37.1127
20.4985
4.11436
12.2338
0.975666
6.16879
2.40374
2.05306
9.31624
9.75587
179.009
3.54333
2.5881
13.5037
9.59028
16.859
3.77421
4.89517
29.9273
10.1978
76.645
17.0711
0.232202
10.6313
6.65317
0.511808
26.6145
11.6005
27.0445
9.86456
7.69066
4.78028
8.80021
4.44155
19.7806
15.0363
8.9258
5.85423
1.61161
17.9704
9.40804
2.01985
2.70461
58.7551
35.8639
49.9917
65.9407
11.2523
40.9374
39.9626
88.4086
1.68934
4.0437
9.40909
1.5861
1.93697
0.461422
11.7973
5.52223
6.90097
16.0056
58.3209
62.1152
5.34096
34.5877
7.74162
2.42133
2.36128
6.7803
5.39279
7.23575
0.392922
0.772667
4.35151
7.93007
59.1767
23.9619
0.294727
19.2796
15.8383
220.75
56.6396
2.1114
7.18944
3.13516
4.36656
32.9499
4.1295
8.2028
33.1361
28.1347
1.77876
75.6509
31.5693
62.3622
115.698
5.25604
67.7839
4.1154
1.66699
16.0735
1.57063
14.0125
1.80509
12.4342
29.832
34.511
1.98765
22.9197
1.22984
10.057
10.1272
52.8601
3.59785
30.9416
44.7987
33.6855
4.48156
24.8842
32.0459
69.1376
13.4994
19.0849
3.0705
0.266176
22.3619
6.59796
13.3329
43.7415
28.6996
411.333
1.40305
24.3816
65.0441
41.1496
6.91458
198.925
9.88901
0.509082
0.227645
5.70716
0.515411
1.51333
10.9915
8.837
13.4254
16.592
35.378
53.4423
5.71359
21.0297
19.3527
11.9435
2.17229
620.05
4.87802
3.6504
2.08499
21.0648
3.16638
28.1309
68.5735
13.2413
1.87582
57.9032
2.44224
3.22179
25.502
0.231286
4.77443
1.21223
4.3802
2.467
77.6525
5.04706
6.52897
15.3184
13.5127
42.8115
148.907
0.429751
40.2533
6.4398
2.4561
4.48636
0.849599
8.6942
122.024
1.90456
15.7864
4.10587
10.6509
42.2066
12.1178
26.3103
2.43466
13.9292
2.65093
0.211714
16.9727
61.6073
3.02622
2.90693
11.9476
4.62585
23.1402
1.73348
18.7982
9.29877
5.62606
102.206
14.0043
1.86843
0.55687
3.98238
12.5851
18.1469
5.24535
19.7748
46.9282
1.9809
20.1984
10.6664
9.39104
0.741826
10.8408
1.01715
0.808935
3.88454
12.5055
14.9173
11.4613
15.4841
14.6084
0.227416
3.09109
17.797
13.304
30.3263
4.28405
1.53965
6.27216
1.85039
13.7235
11.1111
9.7821
21.4426
0.387777
0.691178
10.1425
9.45692
4.52801
2.95542
125.137
9.37156
20.9051
14.5393
18.3613
5.02568
3.36021
3.36605
3.33652
1.55699
1.88865
3.01728
29.1115
3.37064
10.1413
7.15286
10.1542
22.8489
3.70952
3.501
36.8427
27.4521
6.95592
13.383
0.616936
7.50865
3.12234
10.9869
0.377626
0.736354
1.46692
1.29865
16.3804
71.3994
1.45056
19.8165
15.5914
5.6748
6.02721
4.79764
4.66377
11.1746
0.92904
6.71882
65.7192
3.32782
4.30363
7.79608
0.51299
0.672482
62.1336
16.4676
6.18824
117.556
15.6393
34.3187
53.9127
6.37792
3.96674
0.485707
11.2038
0.261287
1.57778
79.2622
39.418
3.03737
1.0431
2.23206
26.7035
1.32595
0.228798
0.760239
3.03602
79.8986
6.9132
16.4298
4.63361
8.58957
28.793
12.5799
1.64241
8.31089
100.171
7.41434
4.75571
1.17937
5.04555
7.89455
28.3917
23.6381
7.63619
7.88918
3.63807
4.75689
0.690939
15.4001
5.41535
14.9459
33.1715
0.216398
6.29609
1.09931
45.8493
1.55582
3.12298
3.99941
1.19149
64.3189
38.8232
14.487
13.2529
0.535619
0.515173
10.0433
21.7031
117.645
0.249437
26.4472
5.09089
5.05474
1.4543
7.23961
9.61996
123.956
14.9414
0.494031
0.555552
1.72906
35.8019
1.63619
3.14305
0.267078
3.94914
1.00817
0.283135
6.26487
3.36564
5.91307
38.0714
20.4616
1.45208
2.33805
4.94083
4.16195
14.8207
0.662615
1.80591
13.3776
1.00828
2.26327
1.72134
14.6023
1.63767
38.3325
2.93078
0.871982
6.34821
4.80683
24.4536
4.63345
7.20824
11.0718
0.484229
0.593831
4.75027
0.321173
37.2248
1.96302
2.08608
14.4321
0.327627
5.05948
0.241969
30.2038
3.21058
9.93085
34.9433
2.02112
11.9546
0.583075
13.4279
17.7416
7.82475
12.9024
12.6384
6.98835
10.0127
0.360946
6.81208
0.880779
4.97739
2.91108
28.6571
27.8866
36.1634
1.71509
10.2479
0.481184
1.75079
14.9396
3.77696
8.5017
1.04488
1.84926
16.6563
2.54846
18.386
5.99364
7.8327
2.47773
0.801056
2.592
4.11797
29.6744
13.7293
0.394299
13.0749
0.609055
2.25202
31.2066
1.14807
4.71789
6.41832
85.0675
4.21164
3.10457
6.44904
8.84279
36.0921
3.26581
3.17459
4.96174
6.27185
7.32464
4.37459
7.23209
11.8056
1.98676
15.5835
5.38157
0.227845
5.73002
3.51496
1.06326
6.07928
0.415218
1.11215
0.93709
0.209058
8.10306
0.512941
12.1709
11.7898
8.69255
3.47899
1.38335
1.88831
11.0858
1.98968
13.6818
7.43003
2.64776
5.05029
6.31186
72.1871
53.0431
3.03967
130.358
3.28874
2.50294
4.97329
70.642
42.0494
0.553965
0.468099
0.759387
0.620221
0.443839
7.6501
7.39235
87.83
0.300026
0.525183
12.9409
6.92862
11.0996
2.41436
0.560066
0.214683
82.1484
11.1163
7.11435
1.13617
2.01239
14.7607
7.77677
26.588
94.7294
0.214492
16.1492
13.525
4.10521
23.7775
1.29543
0.510475
4.58006
19.1851
1.90903
1.40205
10.743
0.431841
17.6657
5.28493
4.57007
3.5396
0.351865
10.7597
4.1904
14.0452
0.546001
2.13267
0.207565
14.2335
23.3916
2.15363
2.89614
2.64089
0.648586
63.1973
7.23808
1.41118
33.8838
66.0095
78.5317
37.7694
1.72915
15.8278
5.80578
28.635
3.70225
0.490701
49.8874
1.8022
6.71592
11.051
1.20325
11.202
3.80196
3.8358
1.23446
11.2121
47.1285
1.68843
2.424
1.87032
5.69659
3.28315
28.2612
3.0549
1.20889
11.5272
0.532032
0.459541
0.398444
4.06634
0.633269
1.35344
3.48257
4.27855
90.1242
25.1741
54.5224
12.2968
8.10824
4.99509
2.42521
16.0793
20.5153
19.3066
6.38364
44.6196
8.75742
0.54099
0.542946
3.05289
4.15356
12.6769
3.33995
1.6227
2.00912
6.69207
91.771
36.6616
13.3158
17.0702
13.1088
32.0603
33.5149
3.02396
4.61663
13.9255
36.3419
2.29532
162.961
25.674
0.466479
1.63901
0.817508
38.3092
10.1499
2.70135
36.7855
10.3965
61.3623
26.5251
4.79667
1.41283
0.317758
14.6106
0.819972
1.67817
5.52048
6.74651
15.9106
1.59873
13.1298
1.70096
2.14019
25.1586
33.3354
23.2246
0.205318
0.899953
1.18837
8.69769
19.7594
31.4162
5.85418
3.97046
3.19513
18.166
30.0246
5.29644
6.35441
14.8047
0.628227
10.6771
1.59139
0.618626
23.8958
34.9229
0.289711
16.2769
19.7854
1.60755
6.23277
9.61652
5.35761
6.53281
15.8021
2.22631
15.8307
1.26656
0.357621
3.45988
0.323223
26.2827
32.4431
2.74231
8.1586
17.1032
1.42399
14.0538
35.3728
0.403005
30.351
12.2017
0.285971
1.24167
22.6387
1.92198
17.9526
3.81219
11.8966
1.56862
17.8182
0.47447
0.323877
1.50431
2.31975
28.8923
1.96697
28.7401
3.71317
1.70939
3.62249
12.981
3.21124
0.281736
1.00107
4.23017
7.86276
78.0395
13.2855
10.0094
0.544026
3.97456
59.7644
24.9777
3.13388
3.55725
16.4161
67.6347
3.69838
31.744
6.43544
9.9595
4.89898
2.68895
13.1762
0.542443
11.1481
4.52369
3.89796
2.72378
0.410859
1.17467
1.49656
1.59229
14.8859
11.0429
7.50555
4.21017
3.81544
6.36183
4.29729
2.83552
13.5894
32.3948
0.81275
21.0492
0.659658
19.3172
81.243
1.45651
27.0731
1.82682
6.7831
3.57918
0.929435
11.7913
40.3044
3.74603
65.7113
40.449
22.2196
36.7254
0.947726
33.0868
12.1853
5.52502
98.1603
19.6418
3.68263
29.4331
6.39484
4.5159
39.8545
5.39147
6.72761
0.8996
1.19042
3.79247
4.57796
4.36242
6.29887
29.2466
31.8599
2.04422
0.540079
11.3406
13.7705
62.9709
7.47158
0.47746
13.0551
0.832502
29.0297
18.9311
1.15532
107.902
1.34257
2.56909
10.6102
32.7161
0.27498
50.0046
31.3056
1.64934
49.3475
50.5685
20.4512
1.398
0.266554
1.00459
2.37177
0.832782
7.19264
10.2069
47.096
3.06378
7.92931
49.2691
19.7715
7.80117
98.68
91.5864
5.73669
1.85006
2.38677
2.7125
107.532
70.2118
2.67583
21.9
3.21106
13.4972
51.4133
42.7941
7.28369
0.244428
0.866074
1.66018
30.3076
34.5835
2.2967
3.44812
1.52886
48.774
6.19596
36.4323
20.0806
13.0699
0.580981
74.7494
0.383233
13.3271
0.64362
64.0718
2.34239
66.7271
0.232034
7.44034
54.0906
8.23237
2.31786
0.585156
2.00548
37.9785
37.2279
21.3812
14.1811
1.84647
1.54328
64.5675
15.0412
2.62873
92.1991
205.334
14.2513
0.948802
20.1535
6.03631
0.800381
0.630581
8.68698
1.47353
1.71298
5.40479
3.2824
50.6106
2.40788
22.6611
27.3321
0.4408
29.5033
0.744867
34.5412
0.382302
33.5819
3.0193
5.9091
5.46437
4.77797
4.34936
105.83
12.9416
3.70491
5.42552
31.7933
0.788662
0.212207
117.666
12.6558
2.16055
3.4304
1.32691
1.91378
4.34135
19.4277
1.37226
5.4061
0.905763
73.3432
0.327767
11.2772
0.744317
3.93032
0.498456
2.81883
128.278
16.7456
0.665089
67.5102
0.744209
11.0897
5.41031
1.38836
45.585
13.2885
0.348256
66.9255
1.51214
9.37152
0.646516
2.07044
22.618
4.30828
2.96889
84.678
36.5604
44.7937
6.26862
1.84432
2.08365
8.36993
0.484029
11.301
49.9546
9.01061
13.9625
117.7
10.3407
4.93262
1.38044
0.250811
0.46172
0.537471
14.9877
3.66002
25.4687
40.0926
1.37301
3.64447
5.98342
10.5852
2.37779
10.7656
5.76606
7.86819
1.49648
15.0143
0.409368
0.555299
0.384021
18.2484
0.891358
3.435
2.74861
115.091
8.64075
89.314
13.4428
7.41651
66.9148
0.7451
9.80368
5.71632
38.3298
6.91396
5.90047
1.5749
1.13193
6.26625
6.54667
14.3144
2.85278
6.76451
14.6263
1.38991
5.9491
0.52916
1.37936
8.55443
36.2605
19.9796
6.2079
18.833
11.4627
1.33207
3.28192
14.853
2.9509
5.08641
2.66051
5.44117
4.18117
7.3558
0.649457
0.467962
51.6024
1.04173
3.88478
1.92109
85.7966
31.2082
37.1902
0.52725
40.568
0.619311
46.6032
35.1112
27.8121
31.8558
1.75857
1.69346
1.04708
1.16486
2.75869
35.6271
0.204326
0.367555
0.222997
6.58873
1.70794
17.1527
2.29052
1.5234
4.51407
3.7312
0.877068
12.9969
0.508005
0.724763
59.1317
31.8178
15.3103
0.581879
0.503505
30.5487
0.351277
0.315272
3.57456
0.63572
1.13962
5.19255
1.08358
56.4708
1.96346
1.2546
29.4574
1.2238
13.4046
31.9975
5.14915
11.6754
3.95704
42.9939
2.51532
1.03738
3.07177
139.399
1.89414
63.7116
12.7142
23.6526
0.266057
0.218741
4.4268
42.7686
36.5693
4.37961
10.8017
7.90297
3.88402
12.5097
29.7477
2.24837
4.75371
47.9405
0.213478
8.48899
34.2701
5.20927
4.02256
34.683
7.43164
73.0858
51.8045
11.786
8.09096
2.17241
2.11695
2.1754
6.54256
19.1515
1.74313
3.06345
48.7675
148.762
49.0994
30.421
2.09155
11.7632
13.6383
28.4805
2.66218
20.1818
4.3759
15.1739
0.313183
15.0848
32.8375
0.879912
1.1754
0.81527
6.31062
39.1585
41.8691
15.6841
39.8088
16.103
4.45827
13.1559
0.314804
6.19744
7.42198
686.71
12.8411
3.95744
28.5544
6.49676
3.82386
0.287878
17.9496
1.13952
0.530418
0.290464
0.83316
1.77911
51.5978
1.26445
44.8711
0.821634
6.81703
1.04444
6.90921
2.26962
5.66725
340.6
17.2357
11.0449
0.223942
9.15187
71.5704
73.3884
1.40539
2.45714
1.19272
12.7647
5.66527
10.7566
6.7859
20.7423
0.741623
8.59113
0.636364
57.8048
28.7143
17.6903
5.82298
4.15016
99.4522
21.1504
19.5766
10.1836
1.37504
7.49973
1.44998
3.5361
0.447697
5.2954
5.02201
38.6737
9.04112
1.93953
0.493131
1.11065
89.5368
0.821184
1.12884
14.0354
2.07056
31.7162
13.9532
0.512736
8.25727
0.553815
5.627
11.1058
3.92632
54.8556
12.5937
4.28435
20.9994
4.64843
57.3062
4.34356
22.8064
13.2874
3.8149
0.380397
0.607049
6.39927
0.415082
1.22543
1.61976
10.7101
11.036
6.04968
32.2495
7.72373
71.4637
10.5213
10.0186
0.950093
1.08411
39.3995
2.58301
0.464752
0.213831
1.37554
1.96374
5.9365
3.59245
72.6081
4.31493
1.39575
153.195
28.1051
5.23701
128.571
9.10251
1.87482
4.38408
6.78266
32.5937
1.49132
1.92996
14.5629
0.611386
8.91706
26.4312
69.4617
1.76186
2.42038
0.350235
0.66965
11.9533
43.5449
1.16505
0.516206
34.9437
8.01352
1.98026
10.3424
10.0071
1.28356
13.4659
13.0634
0.362231
186.948
0.508194
7.71161
88.7517
71.2361
1.27505
1.93956
19.7504
1.7318
18.6197
11.0617
4.36362
22.2891
71.8642
11.2375
4.1179
1.35379
4.3127
77.3233
11.3196
69.1493
29.6754
7.77766
1.6107
27.8189
10.0309
21.2289
18.7341
1.52947
10.7874
7.93357
0.37755
0.219983
1.93598
0.515389
6.95021
11.7309
19.9904
23.4849
12.5948
4.63438
75.7383
20.4322
122.344
0.857973
0.347982
9.10231
0.755542
27.1979
45.8764
0.800127
8.69621
6.25373
46.508
11.5009
13.4217
15.7158
4.1129
123.578
0.250376
6.5058
6.39097
0.329437
63.3106
37.7321
3.57629
2.57128
55.1939
4.52678
25.4759
1.24118
10.2433
0.531432
0.709675
0.929315
0.706316
2.50378
2.69137
0.791326
0.255245
56.6505
2.77464
0.233034
3.2372
0.36517
7.76464
2.36622
43.5613
12.0827
0.538534
5.58077
60.6708
17.4463
72.6909
23.4569
20.3351
10.9143
10.3045
1.01936
13.7095
3.16642
1.38084
6.3505
0.211689
19.6629
12.1662
34.727
2.53185
0.925601
7.9022
68.6178
28.4415
596.789
13.7195
0.860438
1.02217
0.652019
4.18007
1.30625
1.76341
25.6128
1.00512
18.1023
1.41746
1.19633
11.4076
4.58551
5.52923
18.6937
2.26373
4.11473
11.7538
11.3245
1.58859
9.1721
71.5414
7.60208
0.48707
6.01746
134.155
62.6468
5.88877
5.07462
10.1933
0.363979
3.93522
0.285452
27.9102
1.72497
24.7095
0.833504
112.837
1.76033
3.13661
1.05921
0.885257
41.9109
45.6409
1.25882
1.71524
17.4682
34.6673
0.518418
17.6925
16.2677
2.12283
0.392762
2.89537
85.2063
7.69691
8.77444
36.3243
2.37459
7.63012
10.6883
0.252735
17.2978
2.67157
24.7938