/*--------------------------------*- C++ -*----------------------------------*\
| =========                 |                                                 |
| \\      /  F ield         | OpenFOAM: The Open Source CFD Toolbox           |
|  \\    /   O peration     | Version:  v1912                                 |
|   \\  /    A nd           | Website:  www.openfoam.com                      |
|    \\/     M anipulation  |                                                 |
\*---------------------------------------------------------------------------*/
FoamFile
{
    version     2.0;
    format      ascii;
    class       volVectorField;
    location    "0.2";
    object      U;
}
// * * * * * * * * * * * * * * * * * * * * * * * * * * * * * * * * * * * * * //

dimensions      [0 1 -1 0 0 0 0];


internalField   nonuniform List<vector> 
5794
(
(-0.952396 0.612579 -2.66591e-17)
(0.0593375 2.184 0)
(2.01487 -0.269358 -1.32511e-16)
(0.356784 -0.247446 1.59136e-16)
(3.32355 0.790849 3.08214e-17)
(-0.10694 1.9914 -1.08796e-16)
(-6.46258 -0.682397 -9.33967e-17)
(-5.58219 -0.14854 0)
(6.00855 1.31041 9.02925e-17)
(-0.204749 -0.109754 2.06766e-16)
(5.26349 -0.210186 -1.63572e-18)
(-1.15333 0.168636 0)
(0.0917122 -0.255274 7.20498e-16)
(0.948979 3.9881 2.53757e-16)
(4.11119 -0.199454 3.12014e-16)
(0.43033 -0.635868 -1.56773e-16)
(1.5415 0.247588 4.96065e-17)
(0.712544 3.24442 1.97823e-16)
(3.87803 -0.25934 3.09208e-16)
(0.0568347 1.88386 1.29377e-16)
(-2.77918 1.48214 -4.46772e-17)
(0.287591 2.79922 -1.15873e-16)
(-2.78824 0.135336 2.40124e-16)
(1.50923 0.0828647 -5.44691e-16)
(-1.87824 -0.153392 -4.15745e-16)
(2.76246 9.9172 2.01158e-17)
(7.21182 -0.158264 0)
(0.889968 3.57046 -1.62544e-16)
(-1.13536 2.23713 -6.32807e-17)
(-0.406832 0.108653 2.80517e-16)
(-0.969572 -0.147219 -6.18841e-16)
(-1.52929 0.133745 -5.32012e-16)
(-1.41045 -0.516301 -1.02838e-15)
(-1.41159 -0.0995747 3.87146e-16)
(-1.3848 -0.755269 -1.99694e-16)
(-0.37166 -0.621519 2.06746e-16)
(9.79811 0.574183 -2.0727e-16)
(2.1206 -0.100342 0)
(-1.0511 0.129508 1.72459e-16)
(-1.57366 1.11765 0)
(-2.88654 -0.0727093 -1.10863e-16)
(1.0769 0.677216 1.42755e-16)
(7.51874 0.109093 -9.06288e-19)
(0.370016 -3.34859 0)
(3.5484 -0.469766 -2.90319e-16)
(2.40482 -0.305153 1.78017e-16)
(4.39273 -0.0402734 -2.27117e-16)
(-1.51519 -0.27278 0)
(-0.524641 0.447251 7.23334e-16)
(0.746156 -0.220162 6.97285e-17)
(0.403503 -0.10432 -1.68627e-16)
(7.61855 -0.440966 -1.41004e-16)
(1.61384 -0.179617 0)
(2.97492 2.72429 9.7738e-17)
(-0.0573389 -0.0342984 1.05801e-17)
(2.48752 0.26385 0)
(4.96932 -0.09832 -1.7724e-16)
(-2.41552 -0.418952 1.53167e-16)
(8.54565 0.0556013 0)
(4.07546 9.14303 -6.9574e-19)
(9.22985 0.453123 1.81134e-18)
(0.602685 1.78606 -1.04686e-16)
(-0.831498 -0.361951 -1.64986e-16)
(-0.777671 0.270899 2.21999e-16)
(-0.596936 -1.34528 0)
(1.35002 -0.0820401 -2.48961e-18)
(1.74012 0.975888 -2.32842e-16)
(0.26896 0.317722 0)
(0.606703 2.6395 -2.12709e-16)
(-0.0308362 0.930385 -8.98266e-21)
(8.05977 -0.694233 9.24846e-17)
(1.62292 1.21254 -3.44289e-16)
(12.3346 1.9998 -3.45665e-18)
(-4.10531 -0.261779 0)
(0.702775 3.01981 1.98434e-16)
(-0.0266165 2.88733 -1.57171e-19)
(0.14034 -0.484401 1.39963e-16)
(1.57103 9.72304 -2.07806e-17)
(0.113858 -3.32102 3.52732e-17)
(0.18601 0.000438365 7.47542e-17)
(-0.416182 1.51059 -1.59933e-17)
(0.0548279 1.82419 -1.2896e-16)
(-2.42979 0.380528 -1.93863e-18)
(-2.2948 -0.854203 -9.87152e-17)
(2.02244 -0.598589 -3.67515e-16)
(-0.0672057 2.2864 -6.1555e-17)
(0.213818 4.51494 3.58933e-17)
(0.0732109 6.60101 -2.14216e-17)
(0.753051 0.77706 -1.63853e-16)
(-3.0576 0.033573 -3.89215e-17)
(0.648321 5.40586 -8.94601e-17)
(0.110178 5.39158 -9.66737e-17)
(0.10987 4.67975 1.77973e-16)
(-0.227104 9.11198 5.28683e-17)
(0.164305 3.83956 4.86187e-17)
(-2.016 -0.0639095 4.96664e-18)
(0.186959 6.14765 -6.09824e-17)
(0.0924584 4.57505 -1.94029e-17)
(-0.130606 5.40979 0)
(8.9699 0.500861 -2.92992e-17)
(1.73889 3.12353 -1.19607e-16)
(-0.374328 0.0744962 -4.71332e-16)
(8.42336 0.139331 6.92292e-17)
(1.01356 3.48007 -3.62161e-16)
(2.91156 -0.0872002 0)
(-0.653312 1.5785 0)
(-0.0081692 1.89157 0)
(0.438467 0.0268732 -3.20685e-16)
(-0.592683 0.855595 -1.16532e-16)
(-0.0872145 -3.21289 -9.56125e-17)
(-0.224246 -0.127078 1.84017e-19)
(-1.61328 -0.241215 0)
(-1.35818 4.58127 1.09248e-16)
(0.557441 -0.201103 1.49065e-16)
(0.122727 4.145 0)
(-0.89341 8.46787 0)
(3.09958 0.728381 -2.38861e-16)
(-0.657553 0.0750563 -1.03983e-18)
(9.4638 0.406904 -2.39233e-20)
(10.8354 0.579331 5.81841e-18)
(-0.931815 0.379382 2.27442e-16)
(3.10353 0.0467968 0)
(-1.94779 -0.10691 0)
(0.647578 3.8112 -1.9493e-16)
(-0.134012 -0.406764 2.04896e-16)
(4.61735 2.43198 4.76488e-17)
(1.20334 4.1954 0)
(-0.0511065 2.06063 6.57765e-17)
(7.25553 -1.12188 9.71918e-17)
(-1.37238 -0.221611 1.46693e-16)
(-0.877533 -0.379216 3.25562e-16)
(1.44708 -0.318129 2.06393e-16)
(0.766839 1.19023 2.45633e-17)
(1.18969 9.28241 -6.46186e-17)
(-2.02879 1.05993 2.47269e-16)
(2.84049 0.124724 0)
(4.57814 -0.199925 8.6746e-17)
(0.804417 1.66226 -1.58987e-16)
(-0.146553 -0.243504 1.94047e-16)
(-0.215609 -0.607554 0)
(-3.31779 0.0200289 -3.39706e-16)
(1.75999 1.88873 0)
(0.0144061 -0.623234 0)
(0.826615 1.50089 4.18141e-16)
(-0.154599 -0.141531 2.2341e-16)
(1.91313 0.0149503 1.67388e-17)
(-1.92209 -0.192798 2.1676e-16)
(7.97923 0.281616 2.20851e-16)
(3.84674 0.557663 -1.90169e-18)
(-0.272597 0.0941337 5.37423e-16)
(7.39301 -0.183983 -1.65436e-16)
(2.09905 0.695469 2.35017e-16)
(-1.40325 1.44818 0)
(-0.375094 0.0981529 2.23136e-16)
(4.87801 -0.402639 0)
(4.05384 0.10277 0)
(-0.924511 0.120984 -3.05318e-16)
(-0.670776 -0.0227026 4.32442e-16)
(5.51816 -0.0784911 -2.55032e-16)
(1.83315 -0.298131 -1.34598e-16)
(-2.17357 0.170534 3.25487e-16)
(0.191002 -0.423186 -4.00323e-16)
(-1.0145 -0.112734 0)
(1.86887 -0.489989 -1.2442e-16)
(-3.26934 0.0257409 -2.42591e-16)
(-2.91525 -0.597561 1.43314e-16)
(2.77472 -0.193755 9.38842e-19)
(1.9062 -0.217103 -3.50284e-18)
(-0.346652 -0.122357 0)
(-1.90744 -0.131085 7.81207e-19)
(-1.06187 0.0555767 0)
(-1.95539 0.457423 -9.59205e-17)
(0.536255 0.282013 0)
(-1.39934 -0.175457 9.80215e-17)
(-1.45017 0.151722 4.01707e-16)
(-2.34072 -0.190277 0)
(3.30696 0.0431222 -1.68497e-16)
(-1.99462 -0.182156 -2.32085e-16)
(1.09082 -0.237273 -8.54285e-17)
(6.69202 0.247952 5.67492e-18)
(-0.127265 -0.144497 -6.21935e-18)
(-1.34129 -0.252467 0)
(-0.123058 -0.145819 0)
(0.4958 -0.128907 1.45199e-16)
(1.61953 -0.00567747 0)
(-0.307851 -0.725524 6.50431e-17)
(-0.641985 0.214648 -1.57531e-16)
(-1.65363 0.10526 -9.52377e-17)
(-0.975106 -0.136009 1.19186e-16)
(-0.626857 -0.0773168 3.64392e-16)
(4.99583 -0.127181 -3.09341e-16)
(-1.74579 -0.0877593 3.83654e-16)
(-0.57025 -0.115186 7.05325e-16)
(-0.691883 0.00310307 6.12932e-16)
(0.859332 0.0220669 -1.03474e-16)
(-1.05687 -0.173048 -5.28191e-16)
(-3.44573 -0.389951 -1.7881e-17)
(-0.23059 -0.0688032 -1.9203e-16)
(3.03999 -0.404515 -2.27938e-16)
(6.51501 -0.0494702 1.15525e-16)
(-4.00191 -0.802051 -1.43364e-17)
(6.89552 0.0241086 0)
(-1.11808 -0.0461696 0)
(-2.32282 -0.59993 9.07612e-18)
(4.15639 0.0494811 -5.59866e-17)
(2.53173 -0.431538 0)
(0.341645 -0.136643 1.21932e-17)
(0.889017 0.548614 1.29386e-19)
(6.29166 0.63203 -6.28013e-18)
(3.44507 7.36777 1.24267e-16)
(-0.594582 -2.24495 9.44442e-17)
(9.79187 -0.0109901 0)
(1.10128 -0.546918 -9.74293e-17)
(0.23061 -1.14219 1.74971e-16)
(0.427723 -0.0981268 0)
(-2.33979 -0.52139 6.77837e-16)
(-4.04593 -0.516153 -1.17002e-16)
(1.76106 1.80906 9.97937e-17)
(4.82836 -0.65687 1.24529e-16)
(1.55171 5.569 -1.74426e-16)
(9.71304 -0.00498648 0)
(-1.12661 0.174666 2.67885e-16)
(0.50769 2.74873 0)
(-0.7302 5.1414 3.12823e-17)
(5.44552 0.117658 1.23153e-16)
(11.9655 0.725036 1.93706e-18)
(0.410928 0.0357021 -7.68685e-17)
(1.1078 -0.300037 -1.01526e-16)
(3.7861 -0.00585655 0)
(2.94421 0.568865 -2.14475e-16)
(-0.147372 -0.279102 0)
(-1.92889 -0.479025 -6.20007e-17)
(-1.611 0.446778 -9.64101e-17)
(0.0143198 0.0506294 1.29983e-16)
(1.52974 0.411094 1.93978e-16)
(9.63417 0.141074 6.24462e-18)
(8.04429 0.580622 2.18347e-18)
(7.48 0.525587 2.7112e-17)
(-0.450074 -0.429868 -2.06562e-16)
(-2.29244 0.562599 -3.43828e-16)
(0.0516372 1.49363 0)
(1.16191 1.62241 1.29518e-15)
(1.41853 3.76941 2.22839e-16)
(-0.120271 0.286495 -3.08897e-16)
(-0.454776 0.369604 3.15189e-16)
(-0.217737 -0.230995 3.1945e-16)
(2.93319 -0.688147 -1.00169e-16)
(4.24142 0.445253 8.15837e-18)
(-0.0420999 5.97131 0)
(0.038193 2.8042 0)
(-0.114411 4.31436 0)
(1.31621 -0.181707 2.55998e-17)
(3.30559 -0.275051 -6.96823e-17)
(-0.360186 -0.0782254 1.94169e-19)
(7.48199 1.13982 -5.42228e-17)
(5.36355 1.29274 -1.32417e-17)
(8.32909 0.216462 -1.42039e-16)
(9.13218 0.505335 1.50676e-16)
(0.55952 0.294652 3.43029e-16)
(-1.21108 -0.223013 0)
(6.25101 -0.0536287 -1.05108e-16)
(1.47228 -0.407795 8.12158e-17)
(0.899276 -1.10837 -9.41479e-17)
(0.768602 -0.0530473 0)
(-4.4149 0.0215127 0)
(0.486839 0.116538 -6.78684e-19)
(-0.158627 0.817639 1.97006e-16)
(3.97533 0.754123 0)
(-2.13933 0.0173422 -5.43415e-16)
(4.23245 -1.23526 -1.18849e-16)
(3.88316 0.137114 0)
(-1.00472 -0.168985 -2.9413e-16)
(-1.38067 -0.352389 -5.32909e-16)
(7.56973 -0.95805 -1.19839e-16)
(9.55983 0.0941769 3.46136e-17)
(3.72691 0.132238 2.12367e-16)
(3.46217 2.33042 -1.14357e-16)
(-3.43663 0.372579 -6.4458e-17)
(0.912489 0.486866 -1.75927e-16)
(-0.281584 -0.0264316 -3.445e-16)
(-0.304669 -0.0258645 3.9958e-16)
(1.03423 3.81973 2.66018e-16)
(-2.44316 -0.416372 1.25093e-16)
(0.651807 0.569172 -4.13517e-16)
(-1.26079 0.504759 8.08354e-17)
(-0.0363648 6.86001 1.14746e-16)
(0.150959 4.36914 1.46234e-17)
(0.23336 4.12936 0)
(0.324024 6.4959 4.10705e-17)
(-2.16534 0.442751 0)
(-1.02283 -0.411128 -1.55502e-17)
(-1.72652 -0.659565 -1.24871e-16)
(-1.19971 0.239161 2.24092e-18)
(3.46379 1.04468 0)
(8.23124 1.61108 0)
(1.68863 6.74168 6.50352e-18)
(-2.54216 -0.610044 6.09911e-17)
(-0.180985 0.0787102 5.53811e-19)
(-0.560604 0.294458 -3.39522e-16)
(0.734269 -0.0884522 -1.75547e-16)
(0.0617442 1.50454 9.35942e-17)
(-0.440193 6.22755 0)
(0.126936 0.517742 -8.04035e-16)
(0.50523 0.924395 0)
(-1.71032 -2.25742 -1.19944e-16)
(3.83038 0.253719 1.53364e-18)
(0.77037 0.413941 -2.50942e-16)
(0.638355 1.95743 3.74523e-16)
(4.98225 -0.73558 2.48926e-16)
(4.18111 0.174289 0)
(-0.942945 -0.128924 -6.39193e-16)
(0.0135248 1.10391 -2.8366e-16)
(2.19267 6.10317 -1.42349e-16)
(0.59544 -0.14519 -8.41771e-17)
(10.6045 0.117703 0)
(10.0584 0.29233 -1.72786e-17)
(0.520809 -0.121398 -1.21474e-16)
(1.06966 3.5269 -3.22605e-16)
(-1.64867 0.625296 -2.05188e-16)
(-1.35497 1.47216 -6.65583e-17)
(-3.38272 4.99885 3.18604e-16)
(-5.22269 0.53054 -9.96e-17)
(-0.408532 -0.126594 -2.13906e-16)
(3.95999 0.689088 -9.11968e-19)
(-0.240693 -0.513063 0)
(-1.22145 -0.0807842 0)
(-2.01966 0.272311 0)
(-1.15737 -0.0315725 7.21258e-17)
(0.417188 -0.250126 -4.15533e-16)
(4.63788 -0.288972 2.76195e-16)
(7.26709 -0.0114597 -5.73744e-18)
(6.69135 -0.128771 2.89424e-16)
(-1.02834 -0.0569098 8.97266e-17)
(-1.60265 -0.1558 5.04461e-16)
(-1.19381 0.247924 0)
(-0.581795 -0.31084 -2.21072e-16)
(-0.126088 -0.036429 0)
(-0.669611 -0.152431 0)
(-0.978168 0.105038 -2.8287e-16)
(-1.29652 0.0954491 0)
(1.43819 -0.15253 3.99344e-16)
(-1.45143 -0.0521841 4.18713e-16)
(6.16127 0.603187 0)
(-1.62607 0.233845 0)
(3.47738 0.167405 3.09947e-16)
(0.289241 -0.0306973 4.08569e-16)
(0.679659 -0.0837815 3.76522e-16)
(-0.570588 -0.360797 -2.31465e-17)
(-2.15412 -0.877565 -1.12824e-16)
(2.08511 0.0853716 7.63783e-17)
(-0.862306 0.0771753 8.48323e-17)
(0.169661 0.194566 2.36493e-16)
(0.0616124 -0.154867 -2.73885e-17)
(-1.79779 -0.140175 1.51753e-16)
(-0.491116 -0.0898756 0)
(-1.09382 -0.230903 0)
(2.07317 -0.323866 1.46276e-16)
(5.6767 -0.613617 1.42276e-16)
(-5.3718 -0.904821 4.45275e-17)
(-4.66999 -0.423427 0)
(0.905983 0.344814 -3.19199e-16)
(1.2641 0.0547754 5.22832e-16)
(4.99253 -0.0866935 3.43136e-17)
(-5.73441 -0.719574 -1.69163e-17)
(-5.38012 -0.568865 -1.58852e-16)
(4.0262 0.0994503 3.20157e-16)
(-3.53601 -0.223122 -3.12581e-17)
(1.98663 -0.0143636 0)
(4.03627 -0.184393 3.0913e-16)
(-1.56853 -0.112986 -9.52086e-17)
(1.05318 1.77968 -1.07659e-16)
(0.9492 -0.0484658 0)
(3.88204 0.105961 -7.56442e-17)
(0.149386 0.340443 3.16929e-16)
(0.99469 -0.393203 1.0115e-16)
(-2.76553 0.330455 1.19232e-16)
(2.29353 0.369622 0)
(4.11488 0.23926 7.59104e-17)
(-2.17403 0.192791 0)
(0.846494 0.122805 1.37282e-17)
(-1.1559 1.2624 1.45384e-16)
(0.826854 1.39901 0)
(10.7916 0.0837683 0)
(0.429588 -0.606249 1.54227e-16)
(-0.937107 -0.762594 -6.33616e-16)
(-1.4591 -0.366384 -2.97533e-16)
(-1.89354 4.04664 -4.16619e-17)
(0.363076 -0.26538 2.25952e-16)
(-0.139179 -0.0615417 -9.94123e-16)
(2.83047 0.136072 0)
(2.06166 0.00357295 -6.15585e-16)
(-0.145116 -0.247244 7.13158e-20)
(-0.0156546 0.973856 -2.32932e-18)
(-0.0796089 -0.0848955 1.866e-16)
(0.469732 0.0063807 9.5567e-17)
(-1.90618 -0.181213 -8.87211e-17)
(-1.12309 0.239013 1.04172e-16)
(0.752543 -3.43532 0)
(-1.73621 0.231214 0)
(-4.22923 -0.329283 -2.20092e-16)
(1.43064 -0.148558 1.31148e-16)
(-2.48586 -0.317436 -3.85107e-16)
(10.3289 -7.09473e-05 3.15364e-17)
(0.273356 -0.0065698 2.13868e-16)
(-1.38138 -0.141256 0)
(6.5763 0.959183 4.37993e-17)
(1.8339 -2.23337 5.55292e-19)
(-0.0438099 1.98354 1.76515e-16)
(0.226474 1.69829 -3.07721e-17)
(0.216568 6.46926 -5.80038e-17)
(-0.189032 4.40696 3.15586e-17)
(-0.0154335 5.25823 0)
(0.913657 0.979068 1.56178e-16)
(-1.30996 0.702156 2.20634e-16)
(3.51936 -0.732227 2.22779e-17)
(4.24551 0.0326231 7.01034e-17)
(-0.838637 -0.059714 0)
(0.499986 2.04743 2.42672e-16)
(-2.27351 0.353425 0)
(0.104348 6.37072 4.11636e-17)
(-0.184347 5.44394 -7.43481e-17)
(0.0387183 4.44717 4.13683e-17)
(-0.0651045 -0.426696 -1.71596e-17)
(1.33472 2.15756 -3.07536e-17)
(1.30181 0.0441924 0)
(-0.687702 -0.222527 0)
(-1.4195 -0.150541 -1.77826e-16)
(0.506428 -0.268223 -1.941e-16)
(0.0677948 2.0866 -1.14708e-17)
(-0.192221 2.64075 4.0741e-17)
(7.22889 1.96862 2.12557e-16)
(10.0202 0.153913 1.23086e-17)
(0.194119 1.07636 -4.2734e-16)
(1.00481 -3.04942 -2.00538e-17)
(3.9258 -0.699188 2.13179e-16)
(2.40045 0.810787 0)
(1.03032 -0.326784 1.66943e-16)
(-1.37504 -0.390608 -9.52944e-18)
(1.4845 -0.363012 -9.33274e-17)
(-0.346708 -0.655686 2.3056e-16)
(-1.38493 -0.278664 2.11494e-16)
(9.96884 0.0954835 -2.40192e-16)
(1.64065 -0.177042 0)
(-0.609342 -0.106568 8.23454e-17)
(-3.57239 0.560227 -1.53535e-18)
(-0.655192 9.01581 -5.57529e-17)
(0.116848 4.04339 -4.44566e-20)
(-0.0437472 -0.147575 0)
(1.78727 -3.00758 1.36994e-16)
(0.686062 0.0758815 -8.37762e-17)
(0.0425501 -0.16902 -2.19461e-16)
(0.0688658 2.13267 -5.24461e-17)
(-2.58578 1.12635 4.48143e-17)
(0.246375 2.58384 -3.90651e-16)
(-0.0115368 6.16565 -3.09769e-17)
(0.733597 -0.0256933 -5.36442e-16)
(0.509756 5.52073 -2.3665e-18)
(0.231174 -1.34087 -2.5585e-16)
(0.176513 4.13342 -4.62039e-17)
(0.704968 7.42797 8.80998e-17)
(0.428173 1.81429 -9.04965e-17)
(0.0907821 2.19838 -1.75041e-16)
(-0.153649 0.899492 1.75734e-16)
(-0.200723 -0.180042 -4.16721e-16)
(8.64105 0.543833 8.79497e-17)
(-1.42499 -0.17256 -2.47603e-16)
(10.8575 0.45833 -2.02109e-18)
(3.01275 1.72757 7.51894e-17)
(0.582779 0.298988 -4.24748e-16)
(-0.467632 -3.03384 -4.36662e-17)
(0.624136 0.00279779 3.84118e-17)
(7.16637 0.671028 -5.28449e-18)
(1.63149 0.98696 -6.20893e-17)
(3.72343 -0.112016 1.99578e-17)
(2.5754 0.0930776 -1.49088e-16)
(-1.14336 -1.15415 1.0777e-15)
(8.20743 1.51316 -3.32662e-18)
(1.25066 3.82944 1.86273e-16)
(-3.6032 -1.08526 1.2621e-16)
(0.0573083 2.10995 4.35573e-17)
(-1.14249 0.959448 2.52734e-16)
(0.38649 1.5616 0)
(4.4395 -0.109597 -1.08585e-16)
(4.10832 -0.112524 8.25158e-18)
(0.463857 -0.22105 2.1664e-16)
(4.1707 -0.344475 -3.59281e-20)
(9.85207 0.0290028 0)
(-3.98633 0.366876 1.51681e-18)
(0.467011 -0.0189123 -4.75854e-17)
(-0.0755818 1.8916 9.29888e-20)
(0.0613131 2.03411 1.58692e-16)
(-0.283459 -0.185671 -2.28197e-16)
(-0.750536 -0.104316 8.42126e-16)
(4.37642 0.540226 7.88431e-18)
(1.73021 -1.35215 -2.23476e-19)
(-0.361405 -0.346941 2.49158e-16)
(-0.953144 0.274452 0)
(0.77505 1.61502 0)
(-0.00683658 -0.116261 -3.76869e-17)
(7.03784 0.831002 -1.50007e-19)
(4.6533 1.11132 2.85366e-17)
(8.4303 0.852858 -7.07909e-18)
(10.3929 0.502362 3.13214e-18)
(-0.985798 -0.136856 0)
(0.414265 1.75986 0)
(0.164975 2.046 1.74244e-16)
(0.362779 1.46222 1.90173e-16)
(9.1168 0.479444 -4.22947e-16)
(1.79979 1.23917 0)
(1.11901 -0.20237 0)
(-1.89476 0.227469 1.95382e-16)
(0.672674 0.320548 1.55643e-18)
(-1.56657 1.00337 -1.50951e-16)
(0.70036 -0.0332076 1.93429e-16)
(0.644151 -0.0756964 -9.52158e-17)
(0.24776 4.53351 -3.89422e-17)
(-0.751949 6.31239 -1.57431e-17)
(0.693549 -0.0396514 -2.56516e-16)
(9.95502 0.156828 -6.36111e-17)
(10.3091 0.242112 3.39445e-18)
(0.0791198 1.72092 1.36235e-16)
(0.37713 2.06838 -3.2881e-17)
(3.40175 0.993571 -1.26897e-17)
(-2.24304 0.0431394 -2.46087e-16)
(-0.908838 0.0880323 9.62064e-16)
(-0.0268637 1.66946 5.96338e-18)
(-2.14701 -1.13344 0)
(5.86368 4.01528 6.01783e-17)
(0.108419 2.01853 9.24726e-17)
(0.350937 2.51884 -4.06123e-21)
(-0.241644 1.86937 1.75901e-16)
(0.542948 -0.0246314 0)
(10.9018 0.252674 0)
(0.609334 1.48917 -5.76519e-17)
(3.93797 0.0225773 0)
(1.45058 -0.0223553 7.6111e-17)
(10.0485 0.0601547 -1.00371e-16)
(5.11999 -0.0216871 7.10378e-17)
(-1.35105 -0.0796303 1.08263e-16)
(7.27507 0.035517 8.98937e-17)
(0.114757 2.93814 5.77836e-17)
(-0.646364 -2.64133 1.7133e-16)
(0.0883396 1.97239 1.71606e-16)
(1.05673 4.23024 -1.36879e-16)
(-1.06931 0.229396 -6.90371e-17)
(-0.323131 -0.318253 0)
(9.74321 0.7878 0)
(1.04117 1.57533 -3.58806e-16)
(0.55585 -0.0950391 -2.05354e-16)
(-0.0640622 1.64906 6.00023e-16)
(1.11009 3.19027 -4.27121e-17)
(1.07346 0.21796 0)
(3.04472 -0.0281675 -3.24255e-16)
(-1.31335 -2.30633 -1.27667e-16)
(-0.0570153 1.57336 1.46937e-16)
(-0.517286 -0.552574 0)
(0.621185 1.79531 0)
(0.286689 2.38967 0)
(0.146293 1.87708 -1.46842e-16)
(0.587125 1.04875 9.88895e-18)
(10.8548 2.56547 -2.53016e-18)
(-0.54168 0.141873 0)
(5.43868 1.26729 0)
(2.25828 1.07483 -7.24578e-17)
(1.23064 4.07771 1.00184e-16)
(-4.33597 -0.458743 0)
(0.606153 -0.186531 4.03834e-16)
(1.3707 0.0502795 4.94809e-19)
(-0.0828642 1.17357 -1.55002e-16)
(0.885717 -0.155171 0)
(8.22193 0.565063 -6.02596e-17)
(-0.0131839 0.1549 -1.38033e-16)
(0.488897 3.78192 6.47197e-17)
(0.100165 3.12924 0)
(0.716817 1.90576 -1.07905e-17)
(9.97203 0.253454 -1.91719e-17)
(3.60767 1.34798 -4.89633e-18)
(-0.744798 0.707787 -2.00094e-16)
(0.343527 0.113231 -2.74551e-16)
(-2.93075 -0.412313 -4.33447e-16)
(-0.958701 6.8522 7.29917e-19)
(0.448089 4.50017 6.18445e-17)
(1.91197 3.04517 0)
(10.6011 -0.163652 2.08142e-17)
(-1.31973 -0.868408 1.49556e-16)
(9.09373 0.784433 -1.11725e-16)
(0.439564 -0.338079 1.76143e-16)
(-0.213205 5.69556 0)
(-0.201043 5.09157 -6.10529e-17)
(0.18763 5.36885 1.9917e-16)
(1.01703 -0.201837 -7.09109e-18)
(-0.0291538 1.99504 4.84905e-17)
(1.17817 0.982669 5.77783e-18)
(-1.38732 7.89297 -2.62617e-17)
(0.303005 4.16575 -3.92892e-17)
(2.40978 8.74836 5.36999e-17)
(0.737431 0.0694418 1.91007e-17)
(10.142 0.163391 0)
(0.296812 -0.0244952 5.13349e-16)
(3.03879 0.301593 -6.83892e-17)
(-0.941107 -0.262625 -3.19225e-16)
(7.72528 0.559033 1.58618e-17)
(0.145177 4.16465 -6.32736e-17)
(-1.032 8.39948 1.68259e-16)
(0.738235 -0.0555741 -4.85911e-21)
(-0.982551 0.404102 -1.04248e-16)
(1.1468 5.48291 0)
(-0.390207 0.161015 0)
(-0.038247 -0.0828049 -2.13568e-17)
(-0.420996 -0.539968 0)
(3.61895 2.60316 -6.9719e-17)
(5.05783 1.73728 0)
(1.33662 3.66065 -2.34419e-16)
(2.64663 -2.58312 4.36686e-17)
(0.0620355 -0.0982173 4.64899e-16)
(1.8304 0.252783 4.01105e-17)
(7.37159 0.680003 -1.41769e-17)
(2.36071 -0.0132614 -2.61687e-16)
(7.8143 0.142691 -2.73875e-16)
(0.509694 -0.118786 0)
(0.200096 1.78964 -7.25912e-17)
(4.95107 3.00477 1.49237e-16)
(3.55587 1.74533 -6.89151e-17)
(0.826075 0.194583 -4.62298e-16)
(0.312998 1.92521 4.98786e-16)
(-0.0490386 1.63739 3.08177e-17)
(0.252939 1.0655 -4.07009e-16)
(1.54742 0.543484 -9.36988e-19)
(0.757972 2.28428 -2.59115e-16)
(0.394343 -0.18218 1.93895e-16)
(-1.17752 1.57323 6.95519e-17)
(0.0861323 2.14949 0)
(0.0653961 0.618234 -7.50334e-17)
(-0.0267601 1.51707 -7.09987e-17)
(0.405002 1.91087 2.61207e-16)
(4.39511 -0.0992223 -6.23124e-17)
(1.79625 7.48235 -3.8192e-17)
(10.6672 0.422529 -6.96482e-17)
(3.76731 0.0182465 6.98558e-17)
(0.711586 2.91237 -6.49723e-17)
(-0.271015 0.0255208 -1.43393e-16)
(8.81109 0.165543 3.37172e-16)
(4.51465 -0.684984 -2.34281e-17)
(-0.0559562 5.04682 4.02421e-18)
(4.55454 -0.146334 2.31861e-16)
(-0.565105 6.44604 -1.60553e-16)
(0.0757686 3.57467 1.13444e-16)
(7.31065 0.23848 0)
(0.308241 0.274496 -1.27522e-16)
(0.131404 0.25976 2.82281e-17)
(0.0263535 0.896993 0)
(-1.96571 -1.61854 -1.37683e-16)
(0.507415 1.07495 5.85727e-17)
(1.37581 0.207194 2.54994e-16)
(0.31053 -0.0926287 3.26789e-16)
(4.09872 0.17781 -3.86984e-17)
(10.1375 0.639616 -1.09693e-18)
(0.192647 -0.25372 -2.04893e-16)
(-0.279669 0.0912477 3.16257e-16)
(1.14544 2.67784 -2.41348e-16)
(0.556216 0.124462 1.19236e-16)
(4.19524 -0.152292 0)
(0.279225 1.39895 -1.02178e-17)
(-1.95109 1.28545 -2.64608e-16)
(0.0223507 2.03736 1.34082e-21)
(0.18965 4.07821 3.69011e-17)
(-0.0509933 6.32389 -2.64513e-18)
(-0.245041 6.7533 -1.11205e-16)
(0.526904 4.3304 3.69325e-17)
(1.74412 4.6446 -1.52213e-16)
(7.34226 0.351573 6.68765e-17)
(0.146845 -3.35641 0)
(11.2326 1.03962 0)
(-4.02138 0.416687 2.73657e-16)
(0.471797 0.484775 5.7794e-16)
(0.141698 4.16956 1.93748e-16)
(-0.594281 8.25319 -1.23417e-16)
(-1.09288 0.29353 1.16749e-16)
(1.43243 3.9014 -5.54994e-17)
(-2.96536 -0.4634 3.59026e-17)
(0.0508818 1.05377 2.16485e-17)
(0.762514 0.796052 -1.03707e-19)
(1.6692 2.51286 -4.62754e-17)
(-0.0943548 -0.169237 -1.11186e-17)
(1.75574 2.10155 -5.9611e-17)
(3.7753 -0.0699337 -3.77025e-16)
(-1.36553 0.839572 9.17106e-18)
(0.724283 1.76611 1.34269e-16)
(1.09703 0.582202 0)
(0.679952 -0.0328517 0)
(-1.49591 0.545001 0)
(0.55267 7.53594 2.19374e-16)
(1.40497 7.04119 2.65627e-16)
(0.0958839 4.17011 3.30648e-16)
(3.8515 0.51982 2.46435e-17)
(6.18296 3.48012 -3.52615e-17)
(1.00629 0.109133 0)
(0.0259493 1.26194 8.55026e-17)
(0.0767793 0.522826 3.51712e-17)
(10.5513 0.0545198 -7.24589e-18)
(-0.641288 0.566291 -9.71442e-17)
(-0.147391 -0.0346556 4.33029e-18)
(0.468131 -0.0470979 -1.66723e-16)
(9.12209 0.368826 -1.94019e-17)
(0.173146 0.396673 0)
(4.13912 1.63601 -3.13901e-16)
(2.67744 0.711729 2.45627e-16)
(4.23244 -0.124172 0)
(0.427732 0.766376 7.05808e-17)
(0.969237 3.16186 -3.05328e-16)
(8.84317 0.161698 0)
(1.36527 6.67568 -4.47398e-16)
(0.127177 4.13403 -1.80141e-16)
(-0.922839 0.778288 0)
(1.27371 0.986596 0)
(11.4045 0.280295 4.20139e-17)
(10.3794 0.337162 3.25149e-17)
(10.1643 1.24891 1.92288e-18)
(5.26595 2.16417 2.52466e-20)
(0.990926 4.41328 0)
(1.53951 1.14709 2.57905e-16)
(3.13696 6.23225 -3.0049e-17)
(4.90491 -0.0501014 0)
(0.76279 2.17887 -3.71222e-16)
(5.01382 1.18033 2.96176e-17)
(-0.342602 -3.36172 -9.20027e-17)
(9.45451 0.875061 -4.99831e-17)
(10.8941 0.0428698 7.54774e-17)
(1.30809 2.63406 -2.037e-16)
(9.97769 0.407873 -1.49852e-17)
(0.143739 3.69882 2.39558e-16)
(0.969789 7.52302 4.52284e-17)
(0.420849 8.46524 -9.37111e-17)
(6.6323 3.6986 0)
(3.68458 0.734334 9.73601e-17)
(3.20833 -0.404411 -1.32606e-16)
(2.9776 0.186221 2.78538e-17)
(-0.471939 0.357118 1.21171e-16)
(0.0297052 5.40007 1.75952e-20)
(0.174084 4.70507 6.59154e-20)
(0.459619 5.78861 8.27922e-17)
(0.657684 0.877838 0)
(0.0207401 0.62197 0)
(1.55275 -1.37173 7.73312e-17)
(-1.46531 -0.865948 1.38399e-16)
(-0.0551809 6.67567 -1.04512e-16)
(-0.108894 4.19709 -4.03742e-18)
(0.15357 2.82914 0)
(2.81756 -2.07654 -2.71743e-17)
(10.1108 0.107835 8.29535e-17)
(-0.0435115 0.886972 0)
(-1.65466 -1.77069 -3.18051e-16)
(1.42116 2.8106 5.3138e-17)
(0.716019 -0.0298295 2.54077e-16)
(0.186662 4.27117 8.85779e-17)
(-1.16849 8.36246 1.34135e-16)
(9.63614 0.88373 0)
(-0.0093088 8.88028 -3.28297e-17)
(0.171287 3.81303 -4.67818e-17)
(9.54402 1.06677 -9.28326e-17)
(-3.83286 0.0412391 -1.23014e-19)
(7.50814 1.05915 8.17627e-18)
(-0.465476 6.60737 -3.79833e-20)
(0.159655 4.02743 0)
(-0.204378 6.45087 2.73466e-18)
(-0.710399 6.7105 -9.55275e-17)
(0.899868 3.94881 -4.59517e-17)
(2.58984 4.09686 1.58468e-16)
(0.041242 -3.53168 3.0592e-17)
(-0.183921 5.17023 2.66015e-16)
(-0.146377 5.22148 0)
(0.166925 5.9258 -1.46247e-16)
(1.30874 0.221699 3.51482e-17)
(0.396792 0.647434 -1.44236e-16)
(3.57823 0.0385418 5.77707e-17)
(0.313261 0.396651 4.29e-18)
(0.00187735 1.66424 1.10646e-16)
(-2.26573 -0.535541 0)
(1.8794 2.76929 1.60239e-17)
(-0.0712858 1.83826 -2.03435e-17)
(1.05657 -0.475134 -1.26552e-16)
(10.11 0.908401 -7.25471e-19)
(1.20893 0.935002 -3.57106e-17)
(0.343233 2.20139 -1.78629e-16)
(0.170709 2.22484 -1.41146e-16)
(-0.860685 7.01559 -2.28329e-16)
(0.563385 4.56727 0)
(1.18194 0.326998 2.97449e-16)
(-1.25578 7.52972 8.96683e-17)
(0.487441 4.18443 2.95833e-17)
(0.135481 -0.263605 -8.85767e-17)
(2.41347 3.73804 -1.74907e-16)
(0.908044 0.0964683 6.31246e-16)
(-1.00899 -0.910735 5.81245e-16)
(-0.683657 -0.244666 -2.87304e-16)
(0.630519 4.07997 3.10755e-16)
(0.0796416 2.14562 -3.03089e-16)
(-0.757233 -0.581966 -1.81906e-16)
(0.0455034 2.57084 -9.45881e-17)
(1.5822 8.20537 0)
(9.90668 0.100398 0)
(0.741823 0.00464724 -3.4925e-16)
(0.0315335 4.31577 1.22891e-16)
(0.224409 0.0142141 -8.0757e-17)
(-0.0698955 1.0111 0)
(2.5929 1.00464 8.28885e-17)
(0.68054 -0.609164 -1.99014e-19)
(0.712238 1.3272 -6.74916e-16)
(4.38587 0.0884805 2.08399e-16)
(0.885966 6.21481 1.08978e-16)
(0.00605979 4.25215 -4.01956e-16)
(-3.36921 0.182521 3.06178e-16)
(-1.48458 -1.65528 -1.35258e-16)
(9.87631 0.859147 -1.29343e-17)
(0.319233 2.93239 2.3709e-16)
(-0.210512 -0.248609 1.97575e-16)
(0.675355 0.316855 0)
(-1.14861 0.938523 5.14666e-17)
(1.86242 1.92848 -8.58498e-16)
(0.205196 1.73988 -2.15552e-17)
(0.144059 2.11373 2.49674e-16)
(0.910008 0.289997 3.17817e-17)
(8.81065 0.544303 -1.08969e-16)
(9.83023 0.348805 -2.8644e-19)
(0.488624 -0.134364 1.88254e-16)
(11.0842 0.046723 0)
(1.88112 1.05775 -3.93112e-18)
(3.77088 -0.14502 1.91421e-18)
(4.1228 0.0849531 -1.15685e-17)
(-0.122342 5.03815 4.66916e-17)
(-0.0844882 5.9555 4.59185e-17)
(0.285741 5.4741 1.90751e-17)
(10.5355 0.035261 1.37415e-17)
(0.694079 1.86979 1.11948e-19)
(1.05969 0.980599 -7.8766e-17)
(3.82682 -0.17046 -1.5685e-20)
(0.976861 2.28896 0)
(10.2908 1.66719 -4.58501e-18)
(-2.13409 0.00691855 0)
(0.313273 0.53412 9.34119e-17)
(-0.0150127 0.211297 8.80296e-17)
(0.11103 1.50681 4.18559e-18)
(0.72324 0.786759 2.20738e-16)
(-0.227846 0.131758 3.72126e-16)
(9.41109 0.570772 -1.70699e-17)
(0.636079 -0.0527788 2.5718e-16)
(-3.13498 -0.141058 2.3551e-16)
(9.5523 1.00467 9.5098e-17)
(9.76978 0.283419 3.94725e-17)
(6.29657 1.67649 3.38103e-17)
(0.159095 4.10109 -6.11113e-17)
(-0.783198 8.10765 2.28162e-17)
(-0.0287322 1.43435 1.56762e-16)
(-0.0155115 3.1025 0)
(4.3689 0.700062 4.42884e-17)
(5.53327 3.16781 8.0754e-17)
(10.3108 0.0535089 -1.93351e-17)
(0.517594 -0.0944628 1.17192e-16)
(0.656718 -0.0634649 2.47723e-16)
(0.211246 0.409309 0)
(8.97348 1.57965 0)
(1.20794 1.69181 0)
(-0.918506 -2.68217 2.57099e-16)
(3.96722 -0.0291925 6.33359e-17)
(1.93524 5.05649 2.16297e-16)
(0.0631585 4.01026 3.7358e-17)
(1.75333 5.9635 -6.30409e-17)
(-0.0687186 0.66567 0)
(0.934092 2.84375 6.62396e-17)
(0.842311 3.44954 -1.96445e-16)
(-0.216893 -0.192048 -8.21748e-16)
(11.2687 0.113057 9.21119e-17)
(5.87732 1.17127 0)
(-0.099323 1.89804 1.62733e-16)
(0.77777 4.36938 0)
(1.54102 0.969725 1.37231e-16)
(0.623811 1.20587 -2.08841e-17)
(1.11889 8.73138 6.13483e-17)
(9.97649 1.0212 -1.29328e-17)
(9.89633 0.661378 9.81734e-17)
(-0.302331 0.11311 0)
(0.881276 1.59864 -6.71917e-17)
(-1.15677 -0.254086 0)
(8.7385 0.341868 0)
(1.4106 0.0602027 -1.25413e-16)
(0.610136 1.36219 2.01953e-17)
(-2.65157 4.55974 -1.27491e-16)
(3.10586 0.774482 -1.15826e-16)
(-0.22196 -3.00612 1.32895e-16)
(10.2938 0.103114 -2.62259e-20)
(5.80763 3.64417 -7.35958e-17)
(-3.05268 -0.0865667 -3.7985e-18)
(0.156311 4.11071 8.07382e-17)
(-0.364317 7.30291 -4.97864e-17)
(0.865607 0.725445 -1.37043e-16)
(1.31845 5.82968 -2.53098e-16)
(3.25539 0.63502 -1.41613e-17)
(-0.358059 2.30887 -2.78012e-16)
(0.068021 2.12125 -1.68104e-16)
(1.71015 0.0956502 6.2686e-17)
(0.818546 -0.193203 2.07515e-16)
(0.510493 0.124591 -3.01576e-16)
(0.296868 1.89945 -4.44463e-16)
(-0.0730249 1.80569 -3.37176e-16)
(6.86339 4.32986 3.15431e-18)
(0.54669 1.68612 4.98161e-16)
(10.0929 0.040031 -6.06467e-17)
(0.949229 -0.279195 0)
(-0.479668 2.53418 -2.95149e-19)
(4.63724 1.14781 -7.82369e-17)
(-0.689357 -1.09498 0)
(10.1178 0.407049 3.80857e-17)
(-1.31859 0.247055 2.60208e-16)
(0.248611 0.0781885 -2.63445e-16)
(8.80215 1.30224 0)
(0.225744 4.73858 -6.59612e-20)
(-0.483283 5.44697 0)
(10.0499 0.0792315 0)
(1.1889 -0.280656 -4.76926e-17)
(9.38902 1.02978 -6.09411e-17)
(9.14381 4.17144 -1.69754e-16)
(1.21344 4.80631 2.61662e-17)
(7.5524 2.02654 -1.01131e-16)
(-0.408061 6.30412 -5.88786e-17)
(-0.0198967 2.14873 1.27068e-20)
(0.0377036 3.00504 -8.89717e-17)
(-0.0795941 1.04249 0)
(-0.08838 3.45003 9.67077e-17)
(-0.173701 -0.516909 0)
(-1.04941 -2.28343 0)
(-0.250419 -1.4097 0)
(0.714489 -1.92528 -1.47165e-16)
(-0.102402 1.30324 0)
(0.114345 1.4563 1.10547e-16)
(2.83222 2.5086 -2.70769e-16)
(0.497724 2.25896 0)
(1.66786 2.41923 2.74391e-16)
(0.080914 6.55492 -2.61518e-17)
(-0.1571 5.36816 9.81285e-17)
(0.00635318 4.15821 -5.52518e-17)
(2.19546 1.38588 2.50729e-16)
(9.44141 0.964093 -2.61338e-17)
(0.245005 1.81236 1.87636e-17)
(0.0282774 2.02801 -7.02041e-17)
(3.75965 0.298587 0)
(0.783485 -0.144371 2.30042e-20)
(6.08577 1.01963 0)
(0.784204 -0.531602 -5.19522e-20)
(4.06896 0.12599 -4.24678e-16)
(10.069 0.048531 3.33481e-17)
(0.521669 0.691231 2.07906e-16)
(-2.24235 2.29433 -2.85433e-16)
(0.0592098 2.16376 0)
(0.149274 2.10059 7.49208e-16)
(5.7502 1.47241 -4.2086e-17)
(11.5393 0.48292 0)
(9.81227 0.203086 2.37247e-17)
(1.31337 -3.30319 1.01317e-17)
(9.32647 0.229164 0)
(4.66793 4.1134 9.35941e-18)
(3.97912 0.34434 -3.14967e-17)
(2.55995 0.840442 -3.32625e-17)
(1.2741 0.547611 -1.23338e-17)
(1.21507 0.217296 -2.79915e-16)
(-0.0264977 -0.021419 -2.6757e-16)