/*--------------------------------*- C++ -*----------------------------------*\
| =========                 |                                                 |
| \\      /  F ield         | OpenFOAM: The Open Source CFD Toolbox           |
|  \\    /   O peration     | Version:  v1912                                 |
|   \\  /    A nd           | Website:  www.openfoam.com                      |
|    \\/     M anipulation  |                                                 |
\*---------------------------------------------------------------------------*/
FoamFile
{
    version     2.0;
    format      ascii;
    class       volScalarField;
    location    "0.52";
    object      epsilon;
}
// * * * * * * * * * * * * * * * * * * * * * * * * * * * * * * * * * * * * * //

dimensions      [0 2 -3 0 0 0 0];


internalField   nonuniform List<scalar> 
5794
(
0.710026
0.496519
2.12074
114.317
42.3533
1.06075
14.2351
4.85286
90.5668
4.93632
35.4105
5.9822
14.6925
39.6234
0.682586
0.290372
339.642
53.2809
0.85983
0.873956
65.1564
0.842053
19.9787
0.788867
37.3814
108.861
335.551
22.2043
90.1866
1.80378
7.99377
3.45357
20.322
1.13586
18.0323
17.1042
4.43094
41.4289
40.7118
66.0267
33.0388
1.01213
9.34364
6.88315
0.768043
42.1119
22.7637
6.52659
4.21952
7.54754
0.195001
57.133
2.79104
2.97606
0.251052
38.047
16.0453
10.8126
6.06032
213.935
61.6163
0.566797
10.0325
5.393
23.9732
0.516914
48.3269
25.8404
60.3868
0.805069
76.824
58.3118
442.981
2.26946
59.1864
9.10535
8.77713
76.8005
4.14131
1.17177
1.58395
0.831208
22.0835
26.3604
23.2699
65.2132
47.4483
94.4169
0.723429
21.2466
105.22
28.3726
56.4871
97.0305
33.8665
62.4533
78.3193
46.6961
26.0376
68.9934
52.5379
2.41502
7.49975
35.6628
4.36068
92.5041
0.523082
9.27939
42.2885
2.31115
3.14387
1.8422
57.3417
0.819512
28.7763
74.081
0.665964
80.6106
55.1884
22.0263
88.8793
1.20126
9.84911
17.9339
1.00798
50.5488
71.0977
0.864397
65.7845
10.6617
6.93239
16.5925
34.1018
66.2849
101.21
0.639663
123.964
0.52489
0.350035
2.17418
2.74412
16.3769
1.37987
19.1361
0.526299
355.339
60.0993
55.7557
44.4232
9.92292
12.0679
1.85165
97.0054
6.45009
379.015
47.799
32.559
38.0365
75.0866
29.0346
0.920828
9.26826
2.46982
21.2234
58.131
70.2351
26.5764
5.14536
3.51545
2.25913
0.703762
30.1489
17.8113
17.5883
2.22224
19.4253
1.0641
22.9186
1.35397
76.4993
3.80023
5.25474
3.94697
45.1475
8.7132
376.922
3.03189
15.6939
5.67665
2.34209
45.153
3.84249
26.4564
5.95862
24.4045
7.26682
9.89841
2.15764
1.19502
6.81951
18.7083
61.7975
10.4796
7.02539
28.4509
50.4161
5.20166
19.2233
212.236
44.2531
0.612296
10.2242
18.9668
11.2898
0.748187
18.7195
14.8551
45.4928
28.3304
71.862
9.80766
30.3188
143.635
51.8675
155.277
177.348
2.72229
5.48505
24.7725
0.567837
10.8486
12.8307
1.32971
31.8281
37.6896
222.211
270.695
35.9434
16.2394
1.183
0.721835
55.0155
37.835
55.8765
10.0482
2.94071
1.16175
54.9325
140.515
74.869
49.4614
0.59222
358.648
0.607971
4.98988
139.095
7.07505
20.3128
15.5741
0.970178
85.0662
18.2319
8.38964
0.921638
17.5945
10.5839
15.597
69.5939
0.995937
52.5597
33.1277
25.6794
38.1516
70.4791
16.4166
0.663262
2.52189
2.24881
2.47159
15.3081
3.34498
77.4554
31.9703
0.946626
52.4317
85.9698
51.5093
50.5541
128.404
89.64
12.3544
16.7431
0.843352
2.65487
4.81817
122.342
24.3409
1.32153
56.9217
0.677327
1.07568
55.4287
1.37701
47.7034
3.334
72.7223
2.79818
58.6137
59.6925
38.8251
31.6198
40.4844
46.265
0.756144
9.83786
35.4131
12.2848
27.3182
44.6233
114.715
2.61785
11.1841
78.3958
53.3827
0.257825
18.5367
2.08098
5.84783
18.2187
32.9443
69.2695
8.62614
9.74396
21.3856
3.70819
6.02492
6.34011
3.25446
5.56107
10.573
1.44959
38.4391
74.5206
24.2198
1.05308
3.26439
70.0445
8.0444
79.3639
60.5182
57.3283
275.814
34.151
4.42396
5.06752
293.133
2.44571
74.8115
15.8422
6.19284
15.1257
24.841
99.4893
15.8335
6.16511
35.6716
62.6311
49.9811
22.9517
6.89231
4.60285
0.70838
26.2926
0.934239
20.9105
48.2957
36.4362
15.2052
19.1122
1.14172
3.15575
5.46257
12.5355
17.697
16.1294
1.32572
87.0884
17.9263
5.48846
30.7716
4.46306
59.8245
0.682981
3.06035
10.7547
12.2018
2.51925
10.0356
0.721582
17.8099
0.895086
25.006
200.237
4.79537
2.5267
45.4695
7.48999
1.08425
0.69552
75.4878
44.8494
26.1304
30.2409
27.6523
67.8325
41.6945
26.4905
75.6503
52.8521
77.1917
26.4591
45.6806
14.2248
4.02627
22.9416
18.6608
2.23935
0.894865
0.481216
1.21164
58.4783
5.77494
16.5626
87.4794
1.22265
0.873226
15.5925
22.3589
18.4017
11.0191
1.72391
8.12527
12.3857
4.50007
2.3166
81.6288
30.7369
0.29242
11.6287
66.3174
5.22331
0.605329
96.6231
0.930836
61.0383
0.942605
71.5096
65.0812
42.2949
143.635
0.77801
0.645658
12.0447
2.50123
77.792
10.5837
179.294
51.5569
16.4339
2.85294
0.285747
252.521
47.5577
13.7906
4.1427
88.9634
201.262
26.3881
1.03615
0.613442
22.1581
0.827588
13.1984
17.1541
14.2067
31.7886
10.0916
2.52485
309.338
1.22817
0.721091
91.7632
83.4388
66.1206
6.51644
2.28248
0.71682
4.41126
0.430179
40.767
100.872
231.903
8.84047
12.1794
17.1043
0.690466
0.83896
34.6954
36.8456
0.535883
60.9113
2.95244
4.20827
0.582794
0.634074
26.931
64.284
0.240201
5.52884
210.459
1.57473
0.587219
51.417
78.6252
10.9756
0.833765
0.773466
44.5216
0.863521
0.718472
17.4189
1.5714
175.266
4.08865
24.3652
2.51056
6.62119
165.312
9.91524
70.992
1.07214
105.22
0.594744
48.6741
2.30874
0.272298
5.45776
19.0975
1.08087
1.12573
32.2731
1.25932
1.12804
2.55095
1.00686
1.74264
14.3849
0.68195
0.935294
16.1416
729.938
1.09058
58.5334
2.27578
45.6268
2.55506
0.296843
10.7852
0.854849
0.482911
88.7018
25.8553
117.663
88.0829
138.93
8.84653
64.433
54.039
1.21404
28.7382
69.591
33.4284
99.4959
207.863
76.7594
60.925
0.928134
53.6968
30.3937
85.1742
0.511655
0.737056
0.445486
79.1324
35.7322
38.0295
0.87738
9.33898
0.535128
3.93429
0.797738
102.605
34.2003
88.4216
0.997848
7.76358
156.667
7.70053
0.290542
5.46729
60.6786
117.492
31.2793
5.0448
3.1497
6.16594
37.2175
29.018
7.60632
94.4477
0.59287
42.731
59.8323
13.1101
0.563564
0.891671
0.772622
23.5047
72.0335
1.0215
1.03818
0.598928
0.389152
1.84298
0.533943
13.3503
87.9346
26.4508
30.2606
20.7067
2.58644
9.30772
26.9302
32.1409
127.572
109.783
47.0611
48.8402
3.44893
0.405313
0.62255
1.04368
5.27694
4.48294
3.46703
75.8549
255.207
48.3936
178.458
0.669435
2.66411
15.1261
0.924839
41.7099
0.651607
48.588
128.376
88.963
52.0229
45.7064
37.9411
7.84203
222.22
34.9058
16.6283
36.2007
99.1346
2.21098
31.7117
0.922919
0.400955
24.8116
3.65629
0.344301
14.0678
139.569
101.802
3.77888
2.24165
0.241202
32.8103
151.912
80.212
40.4686
4.22062
40.8998
17.5182
1.05203
0.612461
9.84578
5.83668
16.5825
1.56703
20.8733
16.8917
153.651
81.8294
14.8777
4.42813
108.517
23.384
162.85
45.2046
61.3746
38.5009
16.2401
8.81345
351.671
47.3334
29.4417
41.569
109.757
163.308
2.63138
121.018
5.77506
16.5281
28.3088
89.6191
38.9757
38.343
52.133
113.442
28.6887
3.25498
6.69893
371.012
10.6852
27.2057
52.5128
92.0168
0.909629
0.930095
14.9635
2.47607
76.461
54.129
120.961
3.78254
8.99836
0.567963
1.4947
4.15717
0.853466
31.6581
80.962
5.06405
101.356
34.6924
9.32819
2.36285
235.22
67.8843
46.1457
126.414
87.2542
49.207
51.9612
5.28013
49.6455
29.0166
81.2249
17.9245
5.53715
17.5058
0.598482
0.774917
0.71799
24.0342
1.1845
22.227
293.38
7.28422
0.762687
0.744268
70.9385
39.2795
21.3471
74.2459
35.4686
0.296881
77.229
52.7629
23.2881
3.33577
43.5393
0.585558
146.814
1.07229
89.309
9.54367
13.2011
2.31972
1.41889
0.54111
2.15328
21.3154
42.0154
81.7388
165.521
43.1014
2.46589
1.03714
37.17
127.843
2.4979
17.0597
13.44
68.9157
0.850914
0.73096
12.2552
54.8875
168.762
1.04946
17.4785
2.43742
12.9804
8.28392
31.2342
57.8157
78.7015
9.34649
3.18781
73.6358
12.3528
0.588569
439.846
2.37989
0.856252
4.89176
0.55544
19.2274
0.555448
25.6601
0.930666
3.20286
6.39214
10.7475
183.08
36.475
95.4051
34.0256
48.1092
68.915
39.4282
198.515
33.4987
0.588047
0.476284
5.04241
15.1038
2.3177
22.0939
175.959
50.7773
104.914
15.5443
4.63096
45.3116
0.43742
14.1568
54.1523
1.46512
231.631
2.78849
5.66238
63.8726
18.6079
6.30401
5.74555
67.6232
10.4496
7.09702
0.456932
4.79173
49.9149
68.5415
1.34957
10.0985
34.7598
4.26784
41.9727
115.185
78.0487
77.218
35.9273
1.30141
0.64401
14.7706
0.487907
3.82808
0.552067
1.70749
25.708
0.542673
7.37244
0.5718
73.5448
44.7652
11.4434
8.00213
7.54069
15.0033
187.702
27.4163
63.9288
6.30781
0.612566
177.284
12.0066
60.4988
7.22499
100.256
61.8419
58.8899
0.726972
108.353
85.1368
4.40293
5.6862
8.21979
2.49124
1.1279
73.8814
20.9083
71.1936
75.5804
26.3979
45.2294
11.2314
13.7509
0.753738
1.01818
31.661
0.472374
181.515
21.067
170.572
6.96326
77.4057
68.8247
0.614404
1.03008
159.402
196.041
10.0459
8.91866
23.1497
61.4694
5.77962
34.5104
0.437396
6.09213
3.24356
0.404339
0.435776
1.03607
0.405601
0.491446
0.565014
0.645
7.9755
53.55
5.36966
3.83701
0.529898
84.2452
9.72013
25.3126
1.46702
31.3805
0.521665
37.7977
4.74573
3.41393
0.874363
11.8325
41.3708
0.607025
10.0004
1.30381
0.448253
9.23363
68.8197
21.556
104.635
139.51
0.693228
11.0661
29.2516
12.5439
29.9039
39.833
38.5794
90.3557
0.950838
1.77901
0.602698
0.204843
19.7927
12.0126
163.693
143.565
101.672
0.223981
16.3566
120.851
70.5476
53.7118
56.3587
0.558806
0.795348
0.596697
30.2804
11.0544
18.7695
4.55068
0.391221
4.41198
4.83027
10.1469
6.22217
0.624732
0.721246
29.6903
10.6601
11.2161
0.594454
8.20791
73.3735
0.783528
11.7956
2.26754
5.32035
13.34
0.806014
25.6011
0.454645
10.3784
17.0971
0.879196
41.371
11.285
0.817063
0.736927
61.8256
0.404982
65.6453
3.27887
1.43916
0.632833
3.54976
0.989011
0.542341
10.373
0.611724
1.17149
1.55538
14.8666
17.2323
55.4564
29.7809
9.48588
85.6098
36.8719
1.72281
0.539654
64.8405
0.876488
31.9372
89.5443
2.51161
18.1078
1.48648
80.6278
2.13949
53.1323
3.19266
68.722
44.2812
1.02141
36.293
2.80337
0.157246
6.52535
4.57132
30.688
33.9183
1.49985
38.2338
0.459837
1.22571
4.4827
0.682686
0.944744
35.5178
1.32839
18.5497
0.638299
111.797
3.88975
1.62756
0.597095
4.50483
49.2852
18.8841
1.37822
28.6066
7.37916
15.007
97.9425
31.2262
0.430341
0.625744
48.0763
18.1786
37.0554
6.78071
48.2028
73.3945
64.7649
25.7164
57.1498
9.14581
8.95166
4.19547
1.84939
4.31234
0.662346
917.156
40.5628
0.899706
1.55359
52.9819
49.2515
8.55298
0.485872
0.835842
59.4415
3.8353
0.632369
33.9306
2.30401
31.8181
1.29394
66.2769
0.780013
0.441305
4.33098
2.81683
0.950007
31.604
0.579016
46.3995
0.846695
78.9312
5.21206
6.91645
4.3895
24.8886
9.25538
17.8099
11.4993
4.61055
1.19969
3.07197
9.55733
11.2522
5.46131
0.617546
1.40266
20.4532
37.1649
24.3968
4.28932
15.5577
7.27714
6.09935
7.85855
7.84614
8.85455
9.07656
11.1235
30.7218
0.31668
61.0074
0.450917
407.261
0.93163
1.28934
5.27496
1.19085
0.615586
43.9601
9.38771
6.83018
0.582643
1.9268
36.3551
201.729
100.202
3.56705
0.509284
3.37095
8.71105
54.8145
18.3548
3.66207
8.62203
0.755377
58.2927
7.68533
8.22785
30.5792
6.49375
8.62129
34.8671
16.1624
1.37053
11.8111
83.6368
32.2704
3.72947
18.9959
16.1142
0.441309
60.9207
223.208
38.7643
108.568
0.787693
0.450659
37.6076
9.99186
4.27598
0.241573
13.0963
53.0942
1.00201
1.25754
1.00724
0.612826
0.88461
4.47519
3.06058
13.1968
0.746293
2.02755
30.1493
114.809
55.8026
2.90484
32.5149
4.42685
74.3204
0.912005
49.2115
103.016
44.4496
53.14
2.07552
30.5196
33.3545
179.425
3.64598
3.44088
4.97382
53.182
0.50643
1.46693
31.6356
12.2208
3.41882
32.7716
8.53027
2.40815
12.0834
0.732115
0.407125
7.40081
2.98648
1.3576
1.688
88.1771
9.36075
48.8983
43.3774
40.8513
0.438732
98.5066
1.01112
32.9219
9.63635
7.47103
4.50744
0.553966
11.4698
0.42715
3.91207
0.320023
34.8255
1.93981
11.1315
11.5265
183.475
4.81491
130.13
165.438
3.92238
8.85533
0.66696
27.7506
0.878544
52.2475
79.4556
2.47332
0.310226
8.18822
26.3604
35.0942
150.761
72.8652
104.064
83.553
24.3667
0.387285
1.09353
16.1719
4.70206
79.8377
3.49919
0.437095
0.74785
17.0051
0.318913
2.30694
2.57789
2.577
5.73459
6.92269
5.25153
0.598596
7.60788
2.98665
33.9091
13.5247
0.635012
106.624
30.3633
59.1316
18.3575
3.64966
43.7835
4.65917
0.792417
0.734542
7.21219
863.794
11.3882
40.0703
27.5696
70.1526
106.26
18.4669
5.32678
0.217244
0.549417
1.76489
0.352176
3.99669
5.42671
0.665731
5.97535
0.136174
0.503213
4.36596
1.42803
1.04703
0.877392
0.225787
3.63647
5.36958
0.573628
3.96289
4.75722
0.829816
0.84894
0.401867
0.288868
6.69842
2.16806
1.58228
0.405227
1.02181
2.29681
4.04797
0.732368
0.264286
0.300217
0.589574
0.462981
4.80434
0.537028
0.091511
1.48046
0.69507
3.3117
4.85707
10.4632
14.8894
245.172
1.22214
0.980451
34.5346
87.6223
21.4346
5.23272
0.599145
15.8087
5.01321
17.8648
70.0374
519.282
40.835
97.3548
30.6475
1.37845
1.52422
0.41403
0.94463
1.31274
32.43
0.715789
2.70509
5.90149
0.929167
17.8089
13.421
1.85532
3.77288
15.5075
648.397
3.83429
17.3952
3.18889
14.5341
31.5469
2.858
64.8496
40.8859
31.8352
14.243
4.95199
24.4985
15.9143
11.4986
13.9058
1044.63
2.93545
4.73645
0.565868
44.2283
24.3152
1.71386
69.1341
50.9346
0.568044
0.440462
5.41019
4.53298
1.09352
5.66204
0.14565
0.65097
1.29117
0.196511
3.15144
3.70546
0.563966
6.21151
1.45417
1.41467
4.58421
0.88588
0.69636
0.94019
0.20636
5.58459
0.448193
38.9507
63.5163
7.48381
23.9675
2.98385
13.9163
33.3982
0.454459
63.027
21.1231
19.0576
41.778
25.0814
2.26591
1.0867
24.7771
42.1442
11.3401
203.228
87.9573
13.7784
0.203263
36.8782
30.159
4.31964
40.0203
12.951
59.6742
1.18175
2.93809
0.356931
64.302
1.83736
39.8599
39.4742
0.897097
108.493
1.04116
72.1987
0.87275
0.4572
0.983128
66.1107
1.51885
1.82538
0.895295
1.58769
102.646
10.7407
85.9347
19.3756
1.6348
17.5585
136.023
0.928208
9.13759
8.29318
70.1515
40.7861
6.12318
0.423696
4.14326
3.50543
35.0234
10.2549
2.112
0.185106
2.33159
5.83243
0.503282
40.5749
16.8191
0.192884
1.12546
81.112
90.3332
11.9824
28.1891
65.8242
0.122022
33.3042
47.4513
34.6689
31.9871
11.4727
1.75878
47.3351
0.501335
2.74583
2.9145
48.1639
7.91121
5.48806
6.93399
28.9552
19.4985
0.861772
0.47241
2.70746
13.5511
38.7961
30.7931
170.091
50.6546
41.4399
20.4442
10.6439
28.4285
27.602
60.5551
12.1044
31.2208
37.7923
29.7266
34.3023
104.809
106.146
2.93562
62.5671
30.2029
21.9773
15.8135
16.6026
100.587
40.2972
5.17023
46.0504
17.5629
108.838
3.24639
12.1704
334.54
2.14458
48.9824
26.9076
0.49122
0.718253
2.58293
54.9795
0.776299
0.462276
3.20247
48.7969
61.881
69.9944
56.3441
65.2681
76.4642
73.4102
1.5693
64.7761
54.1138
81.3149
60.4966
49.8633
59.3027
52.9132
44.0068
48.4608
19.9108
18.5754
14.7382
181.887
14.5507
7.52702
3.27022
7.44834
1.48943
1.96923
9.81129
30.34
0.735408
2.36356
2.27607
45.4844
32.4714
32.9608
19.3383
3.14278
4.05056
1.97891
3.76307
13.2133
4.60051
106.703
3.36464
2.49581
0.816414
4.05807
1.65265
24.5752
1.85258
51.7718
0.838899
0.779094
7.34807
3.49793
1.51403
3.42393
1.7095
0.621479
68.5549
0.658652
39.1723
12.2002
7.4895
46.0117
95.7178
0.673311
83.1518
27.3432
15.526
115.029
1.5125
0.549373
105.677
23.3159
97.0233
0.822192
9.26362
117.823
103.791
69.8427
0.524274
0.530848
0.592931
14.726
11.077
355.718
0.576581
9.84371
12.1254
0.879241
11.5477
1.73756
8.72377
46.7784
29.8912
23.4169
335.167
77.0142
0.617356
79.1158
1.2408
13.3531
23.6793
1.32545
125.125
14.6272
324.262
23.6916
13.2968
1.22454
54.0514
311.799
0.814884
100.509
41.4549
2.31311
20.6545
15.0031
1.08786
12.5491
47.7757
20.5419
51.0897
198.967
170.086
4.51994
18.7119
3.18485
82.3
7.13828
0.92337
2.62147
218.305
0.694003
3.68264
0.444403
30.8067
32.4408
2.10451
5.40289
5.36764
5.77678
2.16729
2.03477
30.5241
3.98766
1.47646
1.9534
0.639987
0.813835
14.7603
15.1259
1.47222
83.2966
5.67582
4.95302
1.57381
1.00228
6.84917
16.0584
2.50907
11.5286
1.7266
7.72996
14.9821
42.9612
1.94918
6.54294
1.50089
17.3392
1.35871
1.15251
4.06951
0.759771
0.86317
0.847001
12.4944
9.77886
3.48118
201.853
0.67876
7.22463
1.00488
1.63893
8.90847
9.58366
7.09475
1.14708
0.532837
1.28615
1.02737
1.24896
14.2474
12.6775
0.886381
3.90619
0.741277
0.552574
1.75986
1.25805
10.8794
7.49867
7.21603
3.01379
0.709137
1.64061
0.755176
9.63509
2.53793
1.49438
0.445253
3.18065
0.703586
1.79575
17.1884
6.69387
46.7556
9.85321
2.08662
1.51382
1.64864
0.748654
26.7081
47.9551
21.6841
6.57256
1.98104
9.45891
17.1625
0.718406
13.7926
0.777833
2.74992
1.14401
220.322
28.5411
0.610847
29.0793
10.9012
2.34571
2.878
0.776851
0.469722
32.304
17.3309
5.14074
20.669
2.46478
2.40225
0.869131
0.476643
52.7105
20.2358
4.13076
32.7294
78.3992
13.9872
3.97047
6.97582
223.781
12.0077
0.60657
9.19719
20.0398
9.9536
2.44226
50.1067
3.47586
13.4309
28.2402
3.68028
2.57658
0.78825
0.48774
27.0909
9.12196
3.14089
28.791
79.9216
0.312625
207.304
169.015
2.17435
6.45406
14.8408
6.57743
10.2388
18.0982
3.20473
2.77794
21.6095
15.2587
2.5658
48.9566
15.1383
45.9965
2.31341
43.6541
14.7188
3.61212
4.04555
5.32067
6.30652
38.9145
8.9319
6.52572
36.9902
0.604686
8.93075
7.3039
3.11263
21.9624
2.568
2.42081
0.758633
0.56193
17.3225
46.3588
2.35115
28.215
62.6961
55.6188
78.8737
14.3298
3.22179
6.84788
3.44601
0.354823
178.136
2.35953
46.1428
53.8217
4.80687
11.4822
108.932
2.38323
0.544549
19.1359
25.3978
11.904
15.0001
63.9309
46.1544
3.83502
48.386
34.6687
11.0081
0.51216
5.30841
10.1593
8.14211
7.70624
1.28324
1.86474
3.66636
2.74454
0.469748
0.474212
91.4666
82.9946
9.23018
2.01743
100.915
73.0566
23.4928
1.40906
61.6155
13.0192
2.72408
7.05215
0.367013
185.254
2.44618
1.93232
5.02743
115.405
70.108
93.168
4.20967
81.7681
71.8543
28.3797
17.6785
19.7976
15.9981
11.3722
0.994549
0.714722
1.1173
0.727069
41.0433
27.3752
4.07672
0.635223
17.7556
48.1294
28.5409
84.9618
60.4163
11.8444
0.744586
42.5087
0.912837
1.44196
123.553
61.8119
84.7864
104.441
44.1139
7.95724
6.01329
2.53
2.68978
4.81647
0.796688
2.41168
0.451221
0.488898
0.879319
0.75081
0.939072
52.2428
75.7788
11.8656
48.0591
0.949567
14.1365
0.985099
3.39732
65.9545
12.2564
56.6293
5.16904
4.37914
6.14849
72.0631
14.2546
11.3297
1.46032
65.713
1.26196
0.688959
3.20777
33.4437
67.2343
12.1137
2.73924
14.8813
109.078
3.4439
2.48035
0.891615
0.342357
5.01197
4.00324
66.0046
3.92268
0.996107
0.456534
25.0661
2.28804
5.47785
63.8084
2.52604
161.453
0.756864
0.66815
2.09994
36.2731
167.309
3.5373
1.16022
0.59814
83.1094
54.5856
2.57732
3.73564
3.95046
1.12801
15.1122
4.54271
0.694884
11.9129
7.23226
1.25764
3.85677
0.865059
3.99036
10.7167
0.71763
7.46741
1.01972
3.86658
21.4269
7.48236
0.746271
30.2935
28.9577
4.18378
10.361
29.4798
0.79463
84.2771
9.12431
7.16535
43.0952
2.82159
124.413
27.799
57.7113
1.24846
81.8086
2.22077
23.4644
3.91572
0.438099
56.7495
1.52882
20.4764
5.00666
20.6665
10.1859
5.34753
60.0514
7.30525
69.1888
15.0456
0.797334
10.291
3.88362
0.31307
0.483205
18.5278
138.496
23.9868
3.92768
0.525035
94.7371
11.5254
197.391
108.558
33.2396
58.4483
24.7639
0.578164
31.4469
5.40449
0.990989
46.9578
63.456
3.61552
12.1291
33.0533
3.98346
74.4086
3.88629
18.3077
62.8915
30.3969
4.1661
1.68889
14.3129
91.1713
4.76141
21.8029
82.4759
83.3797
21.154
2.86087
1.24345
35.3612
27.7228
9.37714
29.8845
31.4393
32.2185
4.44004
23.3338
4.61332
110.225
10.1344
3.64037
0.670129
0.44333
30.8337
146.509
36.8334
75.0192
67.2112
308.636
1.81751
13.7978
2.67258
61.4325
0.987869
179.596
37.8458
1.41889
0.524236
7.82249
2.53284
3.61642
70.668
60.2458
66.2081
55.1349
163.05
54.8438
1.77834
17.4862
92.0292
90.1671
8.24915
543.258
5.10264
3.81867
8.60316
88.607
12.7621
22.5194
51.0695
2.91576
6.56513
38.811
15.9849
4.91411
6.43238
0.539201
24.1391
0.719906
65.9201
0.676073
52.2739
1.90041
22.0884
16.4271
33.6401
44.0423
58.5963
0.680026
123.747
0.801005
0.677544
2.40846
0.288356
1.1114
77.8755
24.2355
110.746
5.42741
83.3522
123.711
2.85852
24.5903
0.746607
3.44933
2.25211
0.300195
65.9401
50.5224
0.681119
0.696467
38.2623
5.23744
16.6484
11.7468
2.32652
15.5411
5.63277
101.122
3.46288
32.9699
4.43395
8.96293
12.7156
100.726
2.39466
65.3033
66.9379
2.54474
3.8422
36.2717
2.08399
0.826581
109.023
2.12048
2.15506
179.41
11.0746
84.1823
2.24487
28.0113
61.7174
0.59694
12.1563
18.576
57.0825
70.2427
0.848823
23.3441
50.2096
25.1004
13.7246
9.80296
8.62648
3.58446
0.233043
0.43236
51.6646
29.5445
2.30402
0.780553
90.7636
9.10809
48.532
43.4201
4.40711
5.25889
72.8829
89.0811
11.7485
0.607343
0.774204
31.5911
25.6828
34.526
2.13053
1.84521
48.7093
83.057
4.03048
37.5318
115.852
65.8519
35.2113
69.5698
0.226508
10.0538
14.8082
3.20601
0.257035
0.464838
31.6807
3.82787
4.3244
55.5564
6.79541
13.5653
4.90201
1.30971
15.997
275.037
6.79781
21.7119
2.3454
15.5958
61.0783
17.589
3.52614
4.38694
0.251935
0.491959
42.2344
14.3038
29.0584
80.0001
15.1225
29.2516
183.321
46.8798
39.1983
0.204684
57.3709
0.246832
1.24385
48.9865
26.6689
12.5319
1.79306
2.41389
9.25958
34.9068
0.480163
1.03923
25.5236
98.3386
0.90706
9.88799
3.85428
86.2908
228.956
139.559
6.20832
14.046
64.5289
108.424
6.7684
35.1116
5.21528
9.82228
22.4784
63.4265
2.96917
27.0616
0.604267
18.1975
0.338811
9.09538
10.7748
3.42048
35.459
0.222701
1.12799
102.001
32.5998
0.67518
2.6502
37.6768
41.7995
52.0018
27.6579
0.658553
1.9039
0.288824
0.432059
2.87875
3.61172
104.462
0.469174
26.2455
43.226
2.11117
6.67882
7.17332
8.99547
94.8254
3.15288
0.216848
0.423099
0.824762
28.7373
2.71526
7.22845
0.998928
9.0712
0.663999
0.532771
1.55597
8.2341
5.91819
22.6878
19.5056
1.39626
7.42097
2.23095
31.8296
1.91141
0.225752
0.690698
2.10296
4.12451
24.2487
7.0568
25.5904
71.9836
42.3999
60.079
2.82975
6.35663
3.79976
236.491
7.68044
0.931728
3.89587
0.20992
0.457445
4.99904
0.610034
82.802
202.24
14.8745
0.378011
0.660825
0.95473
0.12307
23.0152
2.95457
55.2518
4.78063
31.435
67.9549
0.189535
1.92133
3.71928
100.788
1.18747
56.9663
2.1793
35.1201
0.667326
6.8234
0.82435
1.99462
14.3225
23.5611
26.9248
3.91384
7.47662
1.04149
1.05403
1.53256
6.05671
65.1192
28.5075
9.40094
29.2137
16.3835
7.99276
3.23125
52.0506
0.807638
34.9287
1.77592
40.9845
45.3856
101.398
12.4056
0.688895
2.10461
0.222315
0.867852
3.13196
12.4144
2.52109
1.05162
86.7486
2.39707
2.07851
45.1743
7.81643
29.8425
15.1599
11.3868
49.5616
0.64501
1.24497
7.89299
7.23758
11.8071
1.0257
4.84285
15.5613
1.14513
1.53557
12.1306
6.53747
3.38103
0.681493
0.568063
0.774543
0.514859
1.48706
0.205658
1.46099
1.17778
8.69624
9.69714
0.648935
0.755219
33.7838
23.7079
13.6846
19.1362
0.928336
11.257
1.19685
70.124
46.2862
33.32
344.294
21.132
80.5377
83.3138
116.668
35.273
0.283624
0.4355
1.98404
0.358891
0.448055
7.65151
20.8337
82.0002
0.218215
0.197172
1.64386
8.79949
12.5861
67.293
1.93803
0.209765
56.4773
12.929
20.9892
21.1182
0.885512
2.17552
22.9445
19.5335
113.397
0.397066
14.3767
113.724
12.9283
36.0355
34.0172
0.274173
0.557485
5.92155
0.850272
0.744644
2.78393
0.653026
3.05734
5.59139
3.56901
1.02866
1.55621
2.37125
215.678
54.8711
0.472828
4.59088
0.780179
4.95179
13.044
1.22765
7.24214
34.1365
5.44555
70.6817
5.8346
34.6904
102.01
243.5
57.9619
28.3883
3.35496
3.26709
30.3557
5.57993
0.67291
0.206442
103.243
6.55511
78.7267
0.414706
3.10955
11.8535
157.629
36.7775
0.637196
0.610758
32.9937
4.81036
13.1979
2.81236
1.8598
8.09745
108.944
0.666831
38.1087
3.34701
0.232115
0.458797
0.35229
5.26726
0.200884
54.3602
5.58279
42.7515
109.457
13.094
2.738
223.62
8.1108
5.40199
159.808
3.9624
13.7932
211.188
6.20393
127.168
3.76251
0.244559
0.480068
43.701
4.24026
2.65403
1.17491
0.796164
5.92496
13.2532
92.2932
27.7419
18.3265
14.6023
85.6679
27.905
26.7054
20.7933
2.81552
13.9309
96.8907
12.1173
179.094
7.08787
0.590069
0.610391
2.29573
34.6249
2.73185
48.7003
22.9443
12.3086
2.44544
10.1392
17.5199
1.57492
0.46482
2.71891
0.4801
4.44935
18.3069
0.889655
10.8325
6.47254
17.7888
28.3732
80.2317
25.1448
281.611
16.0691
0.700267
2.432
0.572527
44.1282
0.585113
5.2207
1.66592
2.27137
0.752386
73.8484
49.3831
5.87572
5.96502
16.5461
49.3954
0.848728
0.719706
2.2982
23.8893
291.334
10.8374
9.69511
32.446
56.8739
19.8485
9.6314
5.32601
25.1314
70.1984
9.97803
2.50129
6.59184
0.972825
27.9975
0.677411
26.2579
287.271
21.5643
1.10976
31.8266
1.57996
12.7107
17.6239
1.30976
30.1653
1.62148
0.424488
0.384902
19.7515
76.7658
14.3268
6.10949
1.84715
0.660681
3.21769
1.60087
0.288413
0.478898
1.13122
28.1099
66.3704
27.7003
18.5848
12.0422
163.459
59.3866
10.3127
0.686813
1.352
4.29801
134.523
104.177
38.0217
0.989659
0.227351
77.6237
4.57479
17.3865
18.4103
140.702
0.361064
109.719
107.587
24.9956
7.60297
67.631
387.233
3.49342
32.123
0.248415
1.10612
66.7206
96.5887
1.61164
0.432904
5.93371
3.21301
1.0525
74.5217
4.40981
10.7655
283.785
26.0514
0.670122
57.4629
30.0795
12.8726
107.807
0.261932
19.3697
0.436267
16.482
61.3372
1.79928
18.6396
26.2987
7.16685
122.018
0.334388
1.22214
40.0707
174.079
50.5037
66.8765
22.2172
310.691
6.58924
27.1326
55.7643
5.26318
114.756
21.7489
137.657
21.8929
8.81199
334.906
46.8837
22.1134
5.02906
0.518497
0.531651
39.2767
0.535297
4.36435
1.69099
28.1605
30.9362
1.7054
0.227784
0.969485
13.827
91.193
2.03227
0.254556
13.0554
41.7531
29.2403
18.3735
1.19171
120.384
43.1906
1.02096
33.7225
72.3418
0.155345
48.0374
26.1796
66.1154
33.6989
34.859
16.2832
7.58851
1.77673
0.597851
4.0673
0.773626
7.31923
9.86969
81.2365
13.3697
17.2058
123.529
53.5408
42.9103
3.14823
13.5984
30.5184
0.523615
36.2741
3.89357
64.9194
118.92
82.1705
8.1688
89.5112
0.524754
39.3392
42.7515
11.6478
0.459894
1.19398
88.1874
29.2759
3.2425
75.7176
84.0185
7.58398
47.0205
32.8874
78.8282
166.051
66.7115
2.62503
62.9831
0.216007
3.37071
0.401887
54.8827
19.0115
74.4907
1.08255
0.299954
95.3703
1.62614
0.853774
5.48682
99.4957
37.5523
95.3015
140.438
49.7389
0.790548
0.958283
45.0597
15.462
180.219
115.462
156.132
6.04566
2.51346
112.702
80.7653
0.425597
0.374149
3.18299
0.570214
1.55414
6.11756
138.469
16.9417
2.73299
33.8271
10.7043
8.37255
57.8711
105.78
60.344
9.6971
32.8071
0.666545
33.6186
18.2117
14.2864
118.335
96.9358
33.7253
72.3377
440.099
298.553
1.66847
0.415919
144.744
77.4722
0.687308
9.56172
0.473703
0.909319
47.8028
101.358
55.7394
16.6012
2.42097
76.6053
0.406283
2.70423
0.420497
2.7967
0.271694
69.8086
142.889
32.3583
7.70937
103.119
0.229883
0.874633
98.936
40.2616
49.1
28.4821
19.9031
107.067
66.7591
0.732149
8.33016
14.7183
19.0145
4.34525
4.24037
81.159
32.3615
33.2022
17.3105
46.8182
20.9559
24.9556
0.190875
0.740625
49.9641
1.07971
13.9623
566.362
10.3421
78.1612
61.8679
0.585918
0.235197
0.40759
3.37403
59.9117
63.9582
61.3787
1.48096
33.7061
5.85888
7.66888
10.2842
11.4851
6.55197
7.14863
4.0692
2.90368
0.41672
0.27022
0.987952
104.759
42.7242
2.53969
24.1646
559.433
99.6746
92.3097
39.3216
0.564033
39.0914
7.12923
1.12343
52.3759
141.482
0.772711
0.645247
0.559739
36.3641
14.7152
84.3546
2.37615
0.624102
41.9604
15.1354
0.465989
1.25177
0.341434
1.3126
8.56076
101.162
11.0027
6.09578
81.4383
52.8564
61.5455
65.8718
11.5457
61.3805
0.6183
34.6897
40.9176
17.4152
27.9485
0.413293
0.477178
43.5125
1.34323
79.2339
2.4443
85.3393
31.1972
37.1175
1.24614
40.4352
1.29121
46.6302
35.1094
27.8292
31.8811
10.3416
48.1706
30.0269
0.676768
27.7192
35.0201
0.654281
3.5917
0.677126
1.85887
3.05534
17.2033
18.4027
1.12505
8.29901
193.946
0.33324
12.3179
0.503019
2.4595
131.96
147.824
2.66542
0.408227
0.483268
6.34437
0.157704
0.568246
2.9973
0.423599
0.451522
3.47099
0.770316
46.2762
2.37725
6.71765
27.9998
45.6473
5.2804
30.4844
6.04548
5.67408
21.1411
66.7017
27.5439
0.471117
21.4329
116.82
62.902
34.3975
8.99521
0.926994
0.172055
0.866366
45.2287
115.767
25.4542
4.38647
11.4782
9.23446
3.0355
6.68954
20.9802
46.8683
0.635567
57.0708
0.342626
8.63763
96.4448
42.1176
89.0824
34.7056
7.04431
92.3735
39.9425
54.273
7.25603
1.52373
5.2423
4.57164
7.57327
15.5312
1.03293
19.0305
33.7692
113.468
17.7073
23.4356
1.7718
0.774456
2.19337
76.6584
29.3628
28.3909
3.68078
83.723
11.2366
14.1696
35.2733
4.60799
2.73364
16.1223
92.8724
80.2207
36.5969
42.5753
51.3873
30.7447
2.0337
1.20581
0.392336
6.18324
1.65335
764.797
85.5961
3.33596
87.2856
40.4119
7.06815
0.338758
12.1719
1.12417
2.34962
0.695529
42.3835
9.15446
39.6236
47.8722
31.2745
0.281966
1.16774
1.88342
0.82053
32.6157
47.0012
746.866
17.1035
11.0462
0.262972
2.54643
100.746
58.6188
13.1133
33.977
1.29762
12.3355
5.66492
0.916185
19.9651
199.413
0.484384
4.5515
0.324556
3.26404
21.1734
2.21185
71.752
2.65338
385.461
13.7295
58.5187
106.047
0.470592
1.15759
12.8477
16.1526
0.915159
5.18808
4.88081
37.756
76.8772
67.3435
2.59169
4.97821
108.94
2.19129
13.2587
14.9156
16.9151
60.3413
85.2845
0.368791
3.63952
0.464524
39.6512
12.7187
236.535
37.5493
1.36647
48.5387
104.918
67.4767
51.7288
2.15169
72.9895
41.811
25.895
1.19461
0.413955
33.0176
1.70826
10.0239
16.6776
1.99579
60.6008
480.497
327.009
6.93592
80.0121
1.06061
9.74664
17.1694
0.868315
71.8233
29.0587
0.254514
0.613824
0.673433
1.14789
13.5313
33.6798
83.7039
25.0233
1.03284
341.205
2.4477
54.8389
96.3926
79.6226
27.7161
8.20915
6.78498
82.8172
0.756456
1.0243
2.15967
0.238349
2.36507
22.9151
59.306
0.352944
19.7641
0.445917
0.953637
11.4554
27.3555
2.51404
2.55875
82.27
39.8354
25.3323
10.4188
0.814807
0.487677
13.4664
237.113
3.09421
432.72
0.260867
0.944398
46.0871
38.4359
1.13025
12.5374
159.31
2.13873
18.9895
40.62
26.8867
71.1737
69.6271
10.7937
6.45462
1.19549
14.9842
83.4456
16.2619
115.263
16.9202
17.0624
1.28225
24.0956
14.3477
20.6276
76.1415
0.744807
17.2798
7.93788
3.45868
0.572123
37.1362
0.326574
1.32862
13.1414
14.3514
18.457
23.7522
67.4015
109.249
92.8585
56.7628
0.978642
0.8694
2.33485
0.44987
7.4751
16.1411
2.81273
3.04905
7.19641
74.1143
3.06248
2.22207
2.13353
14.0139
80.0647
0.287125
5.66758
3.50023
0.398078
58.29
33.8969
0.670472
1.47115
54.2741
99.6971
25.727
0.650143
0.668785
1.0146
0.468103
5.09665
2.24025
1.00596
26.4421
1.77898
0.604691
35.9967
64.5321
0.539101
17.8889
0.567982
56.9132
3.9035
80.4225
1.4499
0.238739
5.55814
61.7532
78.723
97.3474
27.6752
47.7449
23.4152
2.3516
43.6069
20.5036
2.48305
0.773243
5.17867
0.221469
175.254
9.05444
23.517
0.968431
40.2606
38.5229
65.4055
11.7615
656.283
13.2745
1.43823
4.04103
0.443944
3.04604
0.675605
1.17108
5.81953
0.675051
2.43829
1.12249
0.630526
4.07284
0.664742
5.55685
21.9628
51.6956
134.002
2.1209
1.31326
0.541864
1.39448
59.1718
40.3618
23.1889
6.01373
94.5396
122.201
106.038
5.07917
10.7753
0.798379
0.669847
1.12477
19.7938
9.25273
33.6581
3.11477
106.152
232.978
137.343
0.470797
43.0271
30.1778
43.2527
0.651749
1.39486
2.43842
34.6494
2.22349
50.1142
51.5877
0.836763
0.171109