/*--------------------------------*- C++ -*----------------------------------*\
| =========                 |                                                 |
| \\      /  F ield         | OpenFOAM: The Open Source CFD Toolbox           |
|  \\    /   O peration     | Version:  v1912                                 |
|   \\  /    A nd           | Website:  www.openfoam.com                      |
|    \\/     M anipulation  |                                                 |
\*---------------------------------------------------------------------------*/
FoamFile
{
    version     2.0;
    format      ascii;
    class       surfaceScalarField;
    location    "0.52";
    object      phi;
}
// * * * * * * * * * * * * * * * * * * * * * * * * * * * * * * * * * * * * * //

dimensions      [0 3 -1 0 0 0 0];
oriented        oriented;


internalField   nonuniform List<scalar> 
11117
(
-1.28901e-05
4.69863e-05
5.50005e-06
-3.95963e-05
7.18222e-06
0.000150786
-4.8016e-06
-0.000153166
-4.94507e-05
8.56183e-05
-2.97587e-05
-6.40891e-06
-0.000587697
5.09422e-05
0.000193662
0.000343093
0.000206654
0.000100541
-5.41226e-05
-0.000253072
-3.85702e-05
9.15697e-06
-0.000120156
0.000149569
-0.000485926
-4.65478e-05
0.000388936
0.000143538
-0.000272068
-5.15336e-05
0.000238499
8.51026e-05
0.00120824
0.000229698
-0.000904713
-0.000533223
-6.73561e-05
0.000104168
-3.06476e-05
-6.16413e-06
-0.000851556
0.000921273
0.000293725
-0.000363442
-0.000389446
-0.000220447
0.000303026
0.000306868
-0.000614391
-0.000248032
0.000378721
0.000483702
0.000892631
-0.00111119
0.000511305
-0.000292746
0.000127321
-0.000113702
6.43804e-05
-7.79993e-05
-5.02881e-05
1.40911e-05
-2.79724e-05
6.41694e-05
-6.23294e-05
2.71298e-06
-3.25011e-05
9.21176e-05
-0.000677657
0.00066928
0.000778345
-0.000769967
9.44366e-05
0.000176775
-0.00014389
-1.89274e-06
1.32269e-07
0.000117619
-0.000115858
-0.000333401
0.000186162
6.67899e-05
8.04488e-05
-1.70715e-05
1.12202e-05
0.000100685
-9.48336e-05
0.000379837
0.000261837
-0.000198302
-0.000443372
9.13975e-05
9.50792e-05
-7.82907e-05
-0.000108186
0.000344205
0.000262696
-0.000391518
-0.000215382
0.00103251
-0.00106324
0.000274366
-0.00024364
0.000207334
-0.000321274
0.000607657
-0.000493716
-0.000236416
0.000324085
-0.00022438
0.000136711
0.000113128
-2.72654e-05
0.000968886
-0.00105475
0.00011153
-6.80608e-05
7.02977e-05
-0.000113767
-0.000248044
-0.000221628
0.000407436
6.22362e-05
-0.000118114
-0.000355866
0.000339732
0.000134249
-0.000115465
-0.000433418
0.000366606
0.000182277
0.000164347
-0.000110274
6.1946e-05
-0.000116019
-1.98684e-06
0.000126279
-1.03399e-05
-0.000113952
-0.000253972
0.000116775
-6.10182e-05
0.000198215
0.000606209
-0.000819519
0.000999914
-0.000786604
0.000484482
-0.000679219
-0.000157361
0.000352097
0.00053004
-0.000147451
-0.000695453
0.000312864
0.000179196
0.000470365
-0.000557196
-9.23645e-05
0.000167993
0.000242457
-0.000319109
-9.13407e-05
0.000116873
-4.81211e-05
3.02002e-05
-9.89525e-05
0.000988218
0.000871159
-0.000874798
-0.000984579
5.93025e-05
3.97129e-05
-6.23547e-06
-9.27799e-05
0.00014339
8.90911e-05
-0.000138044
-0.000879821
0.000694389
-0.000209333
0.000394765
-0.00078139
0.000576339
-0.000164198
0.000369249
-8.01372e-05
-7.24893e-05
0.000110673
4.19532e-05
-7.88401e-05
0.000176325
-9.15672e-05
-5.91737e-06
-9.14504e-05
6.77974e-05
2.3653e-05
-5.96439e-06
1.08346e-06
4.88093e-06
-0.00032
-0.00110299
0.000499636
0.000923358
0.000154038
-9.49455e-05
0.000151403
-0.000210496
-0.00018867
0.000226733
-4.8875e-06
-3.31758e-05
1.45394e-05
-1.45394e-05
0.000388979
0.000168356
-0.000513073
-4.42621e-05
0.000316454
0.000149373
-0.00042581
-4.00161e-05
-8.64874e-05
-8.46799e-06
0.000109138
-1.41825e-05
0.000877598
0.000114699
-0.00135363
0.000361334
-0.000383808
0.000893967
0.000522355
0.000834298
-0.000851944
4.77285e-05
-3.00823e-05
0.000118508
-6.01504e-05
-5.59393e-05
-2.41804e-06
-0.000174927
-6.06232e-05
-1.24933e-05
7.83449e-05
-5.34403e-05
-0.000143019
0.000111164
-3.81704e-05
-0.000188458
-4.77935e-05
-0.000101217
8.84272e-05
6.0583e-05
0.00015364
-0.000163203
7.80692e-05
-6.85066e-05
3.24395e-05
-0.00032256
0.000290121
-0.00081808
-0.000432181
0.0006788
0.000571462
5.20003e-06
2.6761e-05
-1.65477e-06
-3.03063e-05
0.000454155
-0.000130245
-0.00064391
-0.000250154
0.000222181
0.000181613
-0.000282387
-0.00125084
0.00129178
0.000241446
2.34367e-05
2.02686e-05
-0.000110062
6.63567e-05
-0.000842736
-0.000653002
-3.57129e-05
-5.39994e-05
0.000277201
-0.000187489
6.61316e-05
-3.22853e-05
-3.38464e-05
-0.00104115
-0.000153772
0.00013168
4.09271e-05
1.52762e-05
3.09923e-06
-1.35266e-05
-7.5354e-06
2.1062e-05
4.90213e-05
5.36086e-05
-1.05942e-05
-9.20357e-05
8.52357e-05
3.09558e-05
-3.56016e-07
-0.000115836
2.93128e-05
1.18486e-05
9.04987e-05
-0.00013166
-0.000306781
0.000281158
0.000291875
-0.000266253
-0.000295414
0.000150032
0.000325081
-0.0001797
4.78488e-05
-0.000504114
0.000456266
-1.58382e-05
-0.000657449
0.000673287
3.26522e-05
-0.000469776
0.000437124
6.95217e-05
4.0036e-06
7.3285e-05
-0.00014681
-8.66646e-05
5.53717e-05
0.000186595
-0.000155303
0.000510904
-0.000152383
7.74389e-05
-0.000435961
0.000768046
6.25182e-05
-6.20587e-05
-0.000768506
0.000670202
-4.50027e-05
5.24206e-05
-0.00067762
-0.000660572
3.92409e-05
-2.73591e-05
0.00064869
-0.000652927
4.95752e-05
-2.6009e-05
0.000629361
-5.47437e-08
0.000224451
-0.000325379
0.000100983
0.000571392
2.15189e-05
-2.1762e-05
-0.000571148
0.00063924
3.81712e-05
-2.57762e-05
-0.000651635
0.000738018
5.47882e-05
-3.29947e-05
-0.000759812
0.000801191
6.53368e-05
-3.22305e-05
0.000383968
7.91537e-05
-0.000411758
-5.13639e-05
-0.000259381
0.000204922
7.68924e-05
-2.24337e-05
0.000302563
-0.000377008
-0.00115405
0.00122849
0.000774986
0.000332093
-0.000799235
-0.000307843
-2.93679e-05
7.33679e-05
-4.99332e-05
5.93318e-06
-0.000780701
0.000274472
0.000687957
-0.000181727
2.26633e-05
-3.66093e-05
9.88462e-05
-8.49003e-05
1.95019e-05
2.96984e-07
2.77733e-05
-4.75722e-05
-0.00024639
2.18203e-06
0.000103971
0.000140237
3.15708e-05
5.70143e-06
3.65483e-06
-0.000294659
0.00019098
0.00024506
-0.00014138
-3.66101e-05
0.000113432
1.53189e-05
-9.21412e-05
-0.000417486
0.000348321
-0.000164481
0.000233647
-2.19216e-05
3.17349e-05
3.61346e-05
-4.59479e-05
9.60322e-05
0.000597178
-0.000672359
-2.08517e-05
0.000118915
0.000602319
-0.000682817
-3.84164e-05
-4.10941e-05
-5.13516e-05
7.51005e-05
1.73451e-05
-0.000540251
0.000520878
0.000817375
-0.000798002
4.02601e-05
-2.25527e-05
-0.000869651
-0.00103789
8.6113e-05
0.000958961
-7.18399e-06
0.000866188
-0.00062299
-0.000783449
-2.34929e-05
1.45775e-05
8.91542e-06
0.000177827
-0.000103867
0.000170076
-0.000244036
-0.000112609
-0.00015952
-4.0092e-05
-5.86539e-05
1.4015e-05
8.47309e-05
-0.000341761
0.00039475
0.000602378
-0.000655367
-0.00055446
0.000833321
-0.000652775
0.000373914
1.0616e-05
0.00013969
-0.00012816
-2.21461e-05
0.000546069
-0.000787336
-0.000111196
0.000352463
4.61251e-05
-4.75136e-06
4.29203e-06
-4.56658e-05
0.000106989
6.24593e-05
-0.000168342
-1.1061e-06
0.000253638
-8.35924e-05
-0.000227704
5.76584e-05
0.000175686
-0.000107526
-7.41555e-05
5.99616e-06
-0.000993821
0.000105493
-0.000152819
-0.000285811
0.000248911
-0.000640776
0.000677675
2.43414e-05
-4.52375e-05
-9.28063e-05
-0.000384487
3.21234e-05
9.84097e-06
0.000342522
3.536e-05
9.81713e-05
-1.50236e-05
8.34898e-06
1.54551e-05
2.76674e-06
-2.65708e-05
0.000130048
0.000113066
-0.000125324
-0.000117791
-8.55779e-05
-6.88e-05
7.9411e-05
7.49669e-05
5.49183e-05
-0.000401189
0.00043885
-9.25788e-05
0.000132668
-0.000118364
-1.58623e-05
1.55867e-06
0.000501069
-0.000287255
-0.000238688
2.48738e-05
9.64883e-06
3.41381e-05
-2.70515e-05
-1.67354e-05
4.87753e-06
0.000149543
-0.000131927
-2.2493e-05
0.000317679
-0.000172821
3.29688e-05
-0.000419314
0.0009341
-0.000534067
1.92806e-05
0.000128452
3.03776e-05
-0.000173737
1.49073e-05
-5.88497e-05
0.000235086
-5.39464e-05
-0.00012229
0.000909994
0.000439976
-0.000601643
-0.000748327
3.0159e-05
-2.08351e-05
-6.22405e-06
-3.09992e-06
-0.000438004
-7.3245e-05
-0.000269453
0.000131294
-0.000220494
-0.000101674
0.000190875
-0.000221251
-0.000321012
0.00035815
0.000184113
0.000877919
-0.000187999
-0.00068992
0.00022326
0.000549021
-4.30084e-05
-0.000506013
0.000901323
-0.000215872
-0.00068545
0.000189069
4.29288e-05
1.6679e-05
-5.96078e-05
-6.58362e-05
0.000156013
-9.01768e-05
0.000163296
-0.000196412
3.31165e-05
-6.19522e-05
0.000521713
-0.000459761
-0.00048303
0.000548666
-6.56362e-05
-0.000486821
0.000483085
3.73635e-06
-0.000412666
-2.36497e-05
0.000436316
1.7795e-05
-4.50836e-05
2.72886e-05
-0.000194118
-0.000100541
-6.68676e-06
-2.99233e-05
-9.72084e-05
8.32934e-05
1.3915e-05
0.000210356
0.000198612
-0.000408968
0.000195878
-0.000261447
6.55692e-05
0.000243324
-0.000245306
1.98157e-06
-0.000137292
0.000145481
-8.18943e-06
-0.000420915
0.000522567
-0.000101651
-0.000108258
7.48643e-05
3.33934e-05
-0.000361399
0.000420283
-5.88842e-05
-9.58787e-05
0.000125059
-2.91802e-05
0.000905372
-0.00099055
8.51777e-05
-0.00015282
0.00022273
-6.99097e-05
-0.000161562
0.000215193
-5.36311e-05
0.000155672
-8.17981e-05
-7.38742e-05
-0.000257533
0.000302149
-4.46166e-05
-3.48672e-05
0.000111588
-7.67213e-05
-7.38583e-05
0.000339989
-0.000266131
-0.000256927
-2.454e-06
-0.000223891
0.000145394
7.84979e-05
1.9444e-05
4.01864e-05
-5.96304e-05
4.52312e-05
0.000159691
-0.00020651
-0.000645047
-0.00026985
-8.60162e-05
-0.000348358
-8.50595e-05
-4.64121e-05
-0.000175216
0.000383231
-0.000129593
0.000206876
-9.98876e-05
0.000247774
1.13247e-05
-0.000259099
8.45847e-05
1.55606e-05
-0.000100145
9.27783e-05
8.39966e-05
-0.00106666
0.00136923
0.000446382
-2.42081e-05
-0.000422174
-0.000918475
-0.000184519
-0.000190165
0.000110028
-1.85898e-05
-6.31142e-05
8.1704e-05
-0.000682652
-9.87383e-05
-0.000745838
-0.000133983
-3.9845e-05
-4.80685e-05
8.79135e-05
2.76146e-05
-1.31966e-05
1.4335e-05
-2.8753e-05
-0.000184719
9.21278e-05
0.000440629
-0.000348038
-0.000889599
0.000867493
0.000703053
-0.000680948
7.82824e-06
-8.6688e-08
-3.53571e-05
2.76156e-05
-0.00118084
0.00113797
-5.10534e-05
9.39228e-05
-0.000298517
0.000252453
-1.58883e-05
5.36891e-05
-5.28082e-05
-6.6717e-05
3.37623e-05
-9.73545e-05
-0.000158316
0.000221909
0.000141134
-0.000241341
-0.00034076
0.000440966
8.61635e-05
-8.27529e-05
-9.67094e-05
9.32988e-05
-0.000230906
0.000178117
0.000228475
-0.000199872
4.98886e-05
0.000578418
-0.000428434
0.000785505
-0.00067883
-0.000184223
7.75478e-05
-0.00139413
-3.42667e-05
0.000247559
0.000238327
-0.00029252
4.36276e-05
1.05652e-05
0.000248134
2.38517e-06
-4.35233e-05
-0.000206996
0.000647121
-0.000200957
-3.81154e-05
-0.000408048
-0.000324378
-0.000237207
3.64811e-05
0.000525104
-7.46007e-05
5.48666e-05
0.00125214
-0.0012324
-0.000143994
-3.19029e-06
0.000147184
1.31264e-05
3.45047e-05
-1.03776e-05
-3.72534e-05
-0.000242272
3.74637e-06
-9.43544e-06
0.000247962
5.80931e-05
-5.20776e-05
-7.4561e-05
6.85455e-05
-8.40653e-05
0.000122987
-0.000251191
0.000212269
-6.12234e-05
7.73509e-05
-0.000153578
0.000137451
-2.50153e-07
1.27615e-05
0.000171317
-0.000183828
0.000143518
-5.39746e-05
-0.000224509
0.000134965
0.000245574
-0.000277301
3.0419e-05
1.30782e-06
2.20037e-05
3.08757e-05
-0.00106979
0.00101691
-0.000156082
6.25067e-05
-0.000733887
0.000827462
0.000840869
-0.000842336
6.81173e-05
-6.6651e-05
0.000206785
-0.00030574
-0.000138363
0.000237318
-6.55979e-05
-7.41214e-05
5.97622e-05
7.99571e-05
-0.000136081
-2.40852e-05
9.82405e-05
6.19255e-05
0.000154786
-0.000139282
5.99344e-08
-1.55644e-05
6.1698e-05
0.000715309
-0.000401363
-0.000375644
9.3295e-06
0.000275397
-0.000153433
0.000213659
-0.000199597
-4.73225e-06
5.61827e-06
-9.2815e-05
0.000278176
-0.000101428
0.000132878
-0.000122178
9.07288e-05
-3.50467e-06
4.90726e-05
8.2884e-05
5.17636e-05
-0.000532187
0.000480423
4.56536e-05
-0.000514002
0.000468348
4.41277e-05
-0.000581161
0.000537033
6.61165e-05
-5.8051e-05
-5.58589e-05
-8.77754e-05
-2.69171e-05
2.22813e-05
-4.56634e-05
5.02992e-05
-1.23e-05
2.2772e-05
-0.0009366
0.000926128
-0.000316297
-0.000320683
0.000391237
0.000245744
0.00104011
-0.000444563
-0.0007943
0.000198753
-0.000647411
0.00114832
-0.000865197
0.000364288
1.43318e-05
-3.46822e-05
4.79651e-05
-3.99832e-05
-4.97352e-05
4.96263e-05
-0.000594286
-6.47453e-05
0.000285934
0.000373097
-9.45058e-06
-0.000312511
2.34449e-05
-7.97129e-05
7.05138e-05
6.28882e-05
-7.15761e-06
8.2489e-05
-1.21907e-05
-6.31407e-05
-0.000182308
0.000104515
7.77926e-05
-0.00015012
0.000165054
-1.49343e-05
0.000368261
-0.00020355
-0.00022356
0.000101899
-0.000371753
0.00032644
-5.65861e-05
1.02564e-05
-7.31079e-06
-0.000556184
3.03499e-05
-5.10698e-05
0.000576904
-0.000543805
1.22427e-05
-2.4307e-05
0.00055587
-0.000293771
-8.76354e-05
0.000118434
0.000262973
0.000107775
0.000236707
-0.000311166
-3.33156e-05
-0.00027201
0.000447556
0.000324091
3.02895e-05
-0.00107672
0.00110311
-5.66856e-05
2.10711e-05
8.61965e-05
-4.91745e-05
-2.00658e-05
-0.000160306
-8.29863e-06
9.3093e-05
-9.42099e-05
-0.000109531
0.000110648
-1.22696e-06
4.83755e-06
-6.10885e-06
2.49826e-06
3.99502e-05
0.000330583
9.82477e-06
-0.000380358
1.56062e-05
4.3448e-05
2.55305e-05
-0.000324374
-6.099e-05
0.000282237
0.000103127
-0.000424214
0.000242423
0.000349784
6.80072e-05
-3.69889e-05
8.58552e-05
-0.000697074
0.000436332
0.000439938
-0.000515593
1.47903e-05
0.000510131
-9.32801e-06
-0.000635938
-5.14961e-06
0.000646587
-5.49951e-06
-3.08993e-06
0.000609449
-0.000592686
-1.36726e-05
-3.01403e-05
0.000556837
-0.000545395
1.86974e-05
-0.000556486
0.000998365
-0.00072769
-0.000114776
0.000120015
-0.00012638
0.000121141
7.30965e-05
-2.73776e-05
-1.47384e-05
-3.09806e-05
0.000199024
-0.000132289
-2.4096e-06
-6.43253e-05
-0.000107102
9.0025e-05
-2.41103e-05
4.11871e-05
-0.000953346
0.000123517
0.000934591
-0.000104762
-0.000112222
0.000760887
-0.000811422
0.000162756
-0.000146405
-4.52831e-05
0.000564253
-0.000372565
-0.000139372
0.000157837
3.00092e-05
-4.8474e-05
-5.92724e-05
-0.0001175
0.000558436
-0.000381663
-3.13091e-05
9.48295e-05
9.65617e-05
-0.000160082
4.09035e-05
-8.24644e-05
0.000126797
-0.000574271
0.000540753
3.55218e-05
-2.29495e-05
3.6449e-05
0.000351054
-0.00029518
5.8237e-06
0.000164871
0.000114187
-0.000212098
-6.69595e-05
3.77577e-05
-1.53747e-05
0.000309255
-0.000331638
1.08285e-06
-1.40266e-05
1.17168e-05
0.00065578
-0.000374581
-0.00071338
0.000715488
-0.00037035
0.000670409
-0.000336296
0.0002778
-2.25505e-05
2.92186e-05
2.03768e-05
7.67155e-05
-0.000126311
0.000487546
-0.000772988
-0.000604156
5.76835e-05
-5.71899e-06
-7.38862e-05
-0.000426169
0.000471607
0.00101141
-0.00105684
0.000843264
-0.000171172
-4.59835e-05
-0.000626108
5.09301e-06
8.84713e-06
5.56175e-06
-0.000340685
0.000242892
0.000421878
-0.000240365
6.53093e-05
-7.13344e-05
0.000208575
-0.000746942
0.000651495
-0.000110451
0.000127013
-0.000159869
0.000143307
7.77531e-05
0.000221319
-0.000294934
-4.13882e-06
-0.000652384
0.00058225
0.000591013
0.000150058
8.69735e-05
2.88728e-05
-3.46651e-05
2.84766e-05
-2.26843e-05
-8.99639e-05
-0.000266572
0.000209085
-0.000114394
0.00011367
6.22526e-05
-6.15284e-05
-0.00018257
-0.00023116
0.000787212
0.000134061
-1.31032e-05
-7.84465e-05
0.000333109
7.43266e-05
0.000142714
8.28048e-05
-4.79121e-05
0.000130003
-0.000116877
-3.08222e-05
-3.86537e-05
2.20111e-05
0.000123382
-4.4812e-06
-1.71946e-05
0.000217688
-4.10788e-05
-8.71865e-05
-1.94112e-05
0.000175083
-4.00192e-05
-0.000217513
-4.31567e-05
-0.000118405
-0.000513266
2.64448e-05
-0.000105017
-0.000574202
-9.80992e-05
-0.000597354
-9.35376e-05
9.84151e-05
-4.62091e-05
-5.46571e-05
-0.00012821
-2.01941e-05
0.000360183
3.73914e-05
5.53869e-05
0.000360908
0.00056245
-3.95435e-05
-2.42935e-05
-6.36918e-06
-1.89505e-05
1.21231e-05
-0.000103181
-0.000264075
0.000209895
0.000486911
-0.000509621
2.37864e-05
-1.07676e-06
4.53821e-05
-0.000287322
0.000195392
2.50178e-05
-0.000261689
0.000185137
2.08147e-05
-0.000142062
-6.03831e-06
0.000127285
0.000258777
0.000435612
0.000232993
0.000343346
1.89073e-05
-9.13965e-05
0.000227814
-0.000255944
4.81052e-05
-1.99754e-05
-0.000111472
2.9524e-05
0.000100462
-1.85143e-05
0.000195516
-4.18028e-05
-0.000132899
0.000147941
-1.01904e-06
-9.85705e-05
-4.83516e-05
-8.68542e-06
-7.80755e-05
2.66304e-05
6.01305e-05
0.000427931
-0.00011963
0.000129706
-0.00039135
0.000650623
6.57125e-05
-0.00030333
0.000554071
-9.54342e-05
0.000105579
-9.66322e-05
-1.39679e-05
3.17462e-05
-2.61451e-05
8.36682e-06
-8.97592e-05
0.000118462
-8.56789e-05
5.69766e-05
6.24107e-05
0.000193774
-2.83707e-05
-0.000624095
0.00102917
-0.000733721
0.000328645
6.60668e-05
-0.000235434
-8.46041e-05
8.55398e-05
-3.15798e-05
-5.59469e-05
-3.98003e-05
0.000114702
8.94447e-05
-0.00104014
0.000928277
8.45941e-05
0.00011929
7.15106e-05
-0.000134402
-5.63988e-05
-0.000192583
1.8496e-05
9.20706e-05
8.20167e-05
6.3249e-06
-0.000418991
-3.665e-05
5.4445e-05
0.00038084
-0.000134105
1.62724e-06
-1.16826e-06
3.27646e-05
-3.32236e-05
2.90616e-05
-2.22952e-05
-0.000111448
0.000104682
0.000111813
0.000182101
-0.000137542
0.000166806
7.843e-05
-0.000140185
-0.000105051
8.83146e-05
2.13569e-05
-9.29925e-05
0.000306922
0.00012436
0.000386636
0.00118762
0.00013781
-0.00114624
-0.000179193
0.000250678
3.08897e-05
8.25427e-05
-0.000655806
0.000169682
0.000583237
-9.71134e-05
-0.000218673
0.000116787
-0.000106589
0.000208474
2.32558e-05
-0.000125202
7.4384e-05
2.75625e-05
3.8093e-05
-8.09066e-05
4.1376e-05
1.43762e-06
-0.000206653
0.000695514
4.4024e-05
-0.000532885
-0.000305279
0.000838747
6.47748e-05
-0.000598243
0.000733798
3.62461e-05
8.59082e-05
-0.000855953
-5.76078e-05
6.98289e-06
7.80792e-05
-2.74543e-05
6.50705e-05
0.000145286
-0.000205737
0.000434394
0.000450143
0.00049324
0.000107445
0.00051571
0.000125744
0.000656402
0.000115509
0.000569385
-7.03821e-06
-7.32918e-06
3.98028e-06
1.03871e-05
-0.000285145
4.57899e-05
-1.65882e-05
-0.000390607
0.000456674
-0.000199822
0.000285362
0.000156125
-0.000195925
3.65181e-05
1.65885e-05
-2.13717e-05
-5.50612e-06
-0.000159129
0.000178657
-1.4022e-05
-3.77844e-05
-9.68254e-05
0.000126592
8.01761e-06
1.75924e-05
0.000614659
-0.000402553
0.000966708
6.04859e-05
-0.00101453
-1.26689e-05
-0.000260382
0.000330472
0.000298172
0.000134893
-0.000262695
-7.04526e-05
0.000198254
0.000125958
-4.43686e-05
6.30037e-05
-5.97292e-05
0.000149224
0.00020467
-0.000104329
-7.5389e-05
7.44146e-05
-0.000952806
0.000925088
-0.000398451
-0.00011846
-9.03612e-05
5.25795e-05
0.000117253
-5.15567e-05
-0.000118276
-7.46625e-05
0.000677656
1.71803e-05
-0.000620174
-8.96103e-05
0.000660546
2.46407e-05
-0.000595576
2.81355e-05
-1.18218e-05
-2.11772e-05
4.8635e-06
0.000244779
-3.83057e-05
-6.18579e-05
-0.000144615
4.04801e-05
-0.000149811
0.000188184
-7.88524e-05
-6.83199e-06
0.000136835
-0.000121476
0.000174755
-7.31177e-05
1.98388e-05
-0.000280505
-5.76629e-05
0.00019917
0.000138998
-9.76162e-05
0.000112428
-4.10806e-05
2.62684e-05
0.000612823
1.67935e-05
-1.21995e-05
-0.000617417
-6.26472e-06
3.48353e-05
-3.57281e-05
0.00049533
-2.50439e-05
3.09815e-05
-0.000501268
0.000222122
-0.000123363
-0.000146992
4.82331e-05
-0.000549093
-2.39867e-05
-5.34527e-05
0.000626532
-0.000526827
-8.17997e-05
8.91193e-06
0.000599715
-8.03552e-05
3.41554e-05
8.10549e-05
-3.48551e-05
-0.000150965
9.21096e-05
0.000131952
-7.30962e-05
-0.000179931
-8.28891e-05
0.000201442
6.13784e-05
-0.000269038
0.00025126
-7.50373e-05
0.000757075
8.4444e-05
-4.03274e-05
5.14538e-05
3.95557e-06
-9.28423e-06
-0.00123609
-0.000105502
0.00118234
0.000159253
0.000529767
0.000213071
-0.000182916
-0.000559922
7.95299e-05
-4.11764e-05
-3.14771e-05
-6.87645e-06
-2.16675e-06
2.6937e-05
-7.43574e-05
4.95872e-05
-2.56027e-06
-3.70445e-06
-0.000187739
9.63758e-05
-0.000551485
0.000642849
0.000127325
-0.000107581
2.98512e-05
-4.95948e-05
0.000173071
-0.00016366
-1.6332e-05
6.92084e-06
4.5657e-05
0.000163602
-0.000197679
-1.15796e-05
0.000175388
-0.000140115
-6.05417e-06
0.00109237
-0.000925427
0.000272102
-0.000439042
-0.000275878
-0.000260755
0.000312252
-3.75991e-05
2.95528e-05
-2.86769e-05
3.67232e-05
-0.00015994
-5.48707e-05
6.3846e-05
-0.000272564
0.000213644
-0.000121011
-8.09233e-05
-1.83414e-05
1.89095e-05
-0.000208583
0.000159524
0.000174226
-0.000125166
4.39583e-06
0.000214618
-0.000211349
-7.66417e-06
4.493e-06
-8.0854e-06
0.000221017
-0.000409489
0.000482197
0.00112563
-1.61524e-05
2.84876e-05
7.12551e-06
-1.55473e-05
-0.000180312
0.000188734
-6.14291e-05
-3.21085e-05
7.9626e-05
-0.000118939
7.4835e-05
8.15429e-05
-0.000168087
0.000127448
-0.000922572
0.000342256
-7.38072e-06
-0.000979197
-0.000595759
5.03582e-05
9.61953e-05
7.4777e-05
-0.000223552
-6.98975e-05
0.000196491
-0.000166985
-0.000145517
-6.63114e-05
0.00011462
0.000107294
0.000216886
-0.00026177
-3.28234e-05
5.66096e-05
-6.07144e-05
3.69282e-05
-0.000785463
-8.71998e-05
0.000216858
0.000297674
-0.000252984
-0.00022958
0.000184891
-0.000185312
-0.000951747
9.0328e-05
0.00104673
-7.177e-05
-0.00100189
0.00103008
4.35795e-05
7.9046e-05
-9.04701e-05
-7.85397e-05
-0.000273756
-0.000394152
0.000407526
9.36567e-05
0.000117043
-0.000115072
-9.56273e-05
4.678e-05
3.42945e-05
-4.00545e-05
-4.102e-05
-0.00079018
-0.000276545
-0.000168398
-4.11972e-05
-2.09196e-05
0.000230515
9.28795e-05
-2.11237e-05
-8.94113e-05
1.76555e-05
0.000236074
-7.72591e-05
-1.56462e-05
3.98992e-06
1.27391e-05
2.85981e-05
-0.000115441
-2.91674e-06
1.92601e-06
-2.03447e-05
2.50524e-05
-6.63366e-06
8.88309e-05
3.33439e-05
-1.81657e-05
-0.000104009
2.9058e-05
0.000717144
-2.46349e-05
-0.000721567
8.7756e-05
0.000633643
-5.124e-05
-0.000670159
2.2959e-05
-1.32561e-05
-7.77692e-06
3.24384e-05
-0.00108354
0.0010838
-3.26982e-05
0.000246277
-0.00149407
6.2886e-05
0.00118491
7.48253e-05
5.23426e-05
-4.74675e-05
-7.97004e-05
0.000130956
1.27131e-05
-2.80652e-05
-0.000115604
0.000206319
-0.000356323
0.000250545
0.000735813
-0.000565368
-0.000726931
2.67386e-06
1.84243e-05
6.22791e-06
-2.73261e-05
-0.000118017
0.000118956
-3.08254e-06
2.14393e-06
-6.21417e-05
5.55916e-05
1.99662e-05
-1.34162e-05
-0.00072188
0.000230201
0.000470029
2.16501e-05
9.17958e-05
-2.87437e-05
6.49831e-05
-0.000128035
0.000106892
-2.62634e-05
3.61057e-05
-0.000116734
0.000260079
2.84292e-05
3.61909e-06
-0.000292127
-3.44803e-05
9.52487e-05
-6.07684e-05
0.000315974
-0.00130579
8.80543e-05
-0.000109016
-0.000165988
0.000186949
-2.82701e-05
0.000186657
3.71296e-05
-2.95491e-05
9.13274e-05
5.98179e-05
-0.000121596
0.00103909
-0.00146278
0.000182755
0.000240938
0.000434485
6.47712e-06
1.35899e-05
-0.000454552
-5.77769e-06
-3.49185e-06
6.07233e-05
8.63402e-05
8.14874e-05
-0.000906642
0.000738814
-3.37393e-05
-7.594e-05
0.000112057
-2.37771e-06
-2.3397e-06
0.000169071
-0.000216329
4.95977e-05
-2.21541e-05
-0.000104826
0.000147051
-2.00706e-05
0.00112672
-0.000788549
-9.81486e-05
0.000100954
-0.0001172
2.19197e-05
7.07428e-05
-6.37897e-05
0.000840627
-0.000574479
5.50684e-05
-0.000321217
7.44114e-05
0.000459014
-3.23571e-05
6.30356e-05
-3.98324e-05
-1.62571e-05
-0.000131845
2.54844e-05
0.000122618
0.000608335
-0.000111089
-0.000456253
-4.09927e-05
2.52817e-06
-3.29383e-06
-3.61518e-05
3.69175e-05
-6.90259e-05
-6.22838e-05
0.000118316
0.000108839
-3.20816e-06
0.000120481
-8.17474e-08
-0.000117191
2.03011e-05
0.000127685
-9.8135e-06
-2.23372e-06
0.000272126
1.4025e-05
-1.09542e-05
0.000103821
2.9682e-05
-1.22979e-05
7.44117e-05
0.000260327
-0.000283411
6.95606e-05
-4.64775e-05
0.00112203
-0.00108257
-0.000321854
-3.39863e-05
-0.000600432
0.000183896
0.000518435
-3.95571e-05
3.72883e-05
3.24278e-05
0.000622756
-8.39731e-05
0.000587938
-6.31044e-05
3.37435e-05
5.27976e-05
-2.3236e-08
-3.43215e-05
-5.03014e-05
8.46461e-05
3.77414e-05
-9.56525e-06
-4.96824e-05
2.15062e-05
4.53944e-05
-6.16515e-05
5.26442e-05
-9.09951e-05
7.83219e-05
-3.9971e-05
0.000698851
0.000104785
-4.65615e-05
0.000177454
0.000164676
-0.000266061
0.00023592
-0.000423399
0.000420309
-0.000403999
0.000291777
-0.00113491
0.00113776
9.81082e-05
-0.000100954
0.000272905
0.000463181
-0.000286224
-0.000470123
-0.000145902
7.45364e-05
-0.000265683
-0.000304937
0.000467686
-0.000698496
-0.000146892
0.000377702
-0.00084908
0.000355474
-0.000107929
0.000601536
-3.39351e-05
0.000110063
-0.000339957
0.000263828
-2.18891e-05
-6.19712e-05
-0.00114985
0.00123371
8.0006e-05
-0.00037115
0.000743386
0.000183311
-0.000798881
-0.000127816
-3.09438e-06
1.08202e-06
3.85304e-05
0.000681415
-0.000627876
6.19694e-05
0.000714261
-0.000763475
0.000174959
0.000532997
-0.00049445
6.88977e-05
6.53918e-07
9.39944e-05
-1.76885e-06
-0.00014567
-5.75678e-07
0.000143038
5.04902e-05
-8.16087e-05
7.34569e-05
-4.23384e-05
0.000602891
-0.000509837
-6.33061e-05
-2.97477e-05
0.000695338
-0.000590328
-6.15329e-06
-9.88566e-05
0.000105276
0.00152258
-0.00119282
-0.000435036
-1.61975e-05
9.31859e-06
-1.32284e-05
2.01073e-05
-0.000991987
-0.000637272
0.00105428
0.000574984
3.34092e-06
-4.79487e-05
-9.1065e-05
0.000135673
-3.29247e-05
8.47183e-05
9.35294e-05
-0.000145323
2.77054e-05
-4.76032e-05
-4.50652e-05
6.4963e-05
0.000121194
-4.47527e-05
0.000622411
0.00060958
-0.000837477
0.000323929
0.000560944
-0.000777726
0.000335697
-1.88382e-05
7.0018e-05
-6.6173e-06
1.29907e-05
3.74869e-05
-4.38603e-05
0.000693328
-6.58429e-05
0.000133403
-1.2709e-05
2.60048e-05
-1.14654e-05
3.54623e-05
-3.12416e-05
-3.78319e-05
3.36111e-05
8.66946e-05
0.000817767
-0.00069139
-0.000251463
-0.000364129
0.000299294
0.000735645
-0.000691114
-0.000193291
0.00014876
-0.00013895
0.000157611
9.81255e-05
0.000163622
-2.48531e-05
8.39617e-05
0.000107476
-3.23677e-05
3.64801e-05
-3.46165e-05
9.00223e-05
0.0005202
-0.00062744
0.00010724
-0.000396828
0.000284613
-0.00124954
0.00136175
-0.000271707
0.000182905
0.000401325
-0.000312524
0.000108257
4.61487e-05
-6.37259e-05
-9.06801e-05
-0.00042888
-2.96622e-05
0.000587368
-0.000128826
0.00021279
-0.000179728
-0.000374823
-6.24901e-06
-1.58257e-06
1.4624e-06
0.000115186
-8.12627e-05
7.43343e-05
4.10889e-06
-0.000119918
-2.20794e-06
0.000119538
-2.68914e-05
-0.000182125
8.94785e-05
0.000150755
-0.000222072
0.000236173
-0.000164855
4.11408e-05
2.61238e-05
8.75218e-05
-7.7022e-05
9.53524e-06
8.40753e-05
1.7714e-05
-4.41561e-05
6.00596e-05
-3.36174e-05
-2.66592e-06
-9.44454e-05
0.000122964
-2.58523e-05
4.44186e-05
1.73009e-06
0.000104391
-8.79542e-05
5.83888e-05
5.468e-05
-2.51434e-05
0.00010142
0.000110361
-0.000216925
-0.000102019
-0.000737983
-0.000407252
0.000881053
0.000264182
0.000822056
-0.00104025
0.000356012
-0.000137822
-1.13568e-05
-0.000228266
0.000235074
4.54915e-06
-8.8148e-05
0.000304647
-0.000342326
0.000125827
4.59873e-05
-9.55699e-05
9.59343e-05
-4.63518e-05
-0.00132218
0.00115869
-0.000242031
0.000405528
0.000369793
-0.000316281
-0.000127053
7.35401e-05
1.00584e-05
0.000750715
-0.00074609
-1.46836e-05
-0.000316789
1.8643e-05
0.000125058
-0.000532558
0.000515193
-0.000107693
0.000179963
-0.000611424
0.000599968
-0.000168507
-0.000103945
-0.000749607
0.000853552
0.000114961
-4.66777e-05
0.000102394
-0.000170678
7.2539e-07
-4.75782e-06
5.12365e-08
3.9812e-06
-4.20295e-05
5.01044e-05
-2.9415e-07
-7.78076e-06
-7.82181e-05
-3.96555e-05
5.57319e-05
6.04141e-05
-0.000176128
0.000203768
-0.00012586
-5.17022e-06
8.61704e-05
4.48602e-05
-0.000183047
1.12921e-05
0.000124333
4.74219e-05
-2.62641e-05
9.17592e-07
0.000338922
-0.000313575
0.00104934
-0.00108541
-2.96905e-05
6.57627e-05
-0.000244132
2.33675e-05
0.000288948
-1.74777e-05
-0.00027147
2.93153e-05
-0.00016182
1.2561e-05
0.000119944
-1.90811e-05
9.53714e-06
2.73162e-05
-1.77723e-05
9.97789e-06
-8.32068e-05
0.000232753
4.16924e-06
3.90949e-06
-8.9002e-05
-6.86695e-05
5.07623e-05
-0.000254657
3.31752e-05
-2.19487e-05
-0.000171167
0.00062734
4.34503e-05
-6.13421e-05
0.000569506
3.28167e-05
-4.54854e-05
-0.000508823
2.34708e-05
-3.02412e-05
-0.000558993
-5.72151e-05
-1.97302e-05
-0.000350178
-0.000182742
0.000208546
-0.000945726
-0.000168731
0.000272122
0.000161342
7.38578e-05
-6.83942e-05
-8.45155e-05
-0.0011662
0.00117612
-4.95866e-05
4.68679e-05
-0.000179589
-0.000102052
-5.73919e-05
9.32386e-06
0.000676815
-0.000201509
-0.000564916
0.000651318
-0.000169466
-0.000556514
3.07993e-05
-1.50416e-06
-0.000155686
0.000126391
-2.92088e-05
0.000739738
2.51159e-05
4.16632e-05
-3.88854e-05
-4.30847e-05
4.03069e-05
1.96171e-05
-7.6956e-06
-8.00996e-05
6.81781e-05
3.8422e-05
-2.92763e-05
5.18935e-06
5.71079e-05
-1.36891e-05
-0.000328564
-6.8373e-05
-3.19432e-05
5.07823e-05
4.95339e-05
0.000311438
-2.57073e-05
4.44845e-05
-0.000330215
-0.000302454
-6.89556e-05
5.46204e-05
-0.000396623
0.000269243
0.000335955
0.000133865
0.000180127
-0.000206698
3.82602e-06
3.85266e-06
-2.84113e-06
1.1858e-05
8.47022e-06
-1.61297e-05
-4.19851e-06
-0.000511063
4.2949e-05
0.000459527
8.58693e-06
0.00029637
0.000344226
-0.000560331
-8.02656e-05
0.000245231
-0.000646995
-0.000336219
0.000435354
0.00034124
-0.00063837
-0.000138223
0.000144226
-0.000139733
2.83969e-05
-3.28905e-05
0.000112057
0.000159708
-0.000993645
3.42504e-05
-1.44469e-05
-2.60525e-05
0.000133718
1.59764e-05
-0.000116519
3.5058e-05
-9.99972e-06
-2.08891e-05
0.000898507
-2.30124e-05
-0.000765588
-0.000109906
0.000172702
3.62272e-06
-9.06255e-05
-0.000215115
-2.21483e-05
0.000117397
-0.000100834
0.00109409
0.000155059
-4.11891e-05
0.000240137
6.138e-05
-0.000383171
0.000308671
0.000493543
-0.000419044
0.000331875
-0.000313613
0.000533431
-0.000551694
3.44337e-05
-0.000220346
-3.37622e-05
0.000219674
-0.000220235
0.000193048
4.91401e-05
-2.19537e-05
-0.00024426
4.6352e-05
4.38964e-05
0.000154011
-0.00108792
0.00108024
8.91738e-05
-0.000677234
0.000446776
-0.000647232
0.000533493
-0.000403486
-0.000160727
0.000167589
0.000105539
-3.58218e-05
0.000859515
-0.0010271
-0.000262537
0.000430122
-0.000222732
-0.000987924
0.00118887
2.17866e-05
-0.00102388
0.00103977
-0.000100401
-0.000479784
0.000424065
0.000349253
-0.000293534
-0.000263587
0.000272719
6.63087e-06
-1.57626e-05
-0.000125542
-4.21275e-05
2.83871e-05
-0.000709784
0.000816612
-0.00051408
0.000141407
-9.37577e-06
-5.89071e-05
0.000158301
4.48209e-05
-0.000144215
-0.000224275
0.000201266
-4.35024e-05
5.16648e-05
0.00015318
-0.000911908
0.00087219
-0.000277179