/*--------------------------------*- C++ -*----------------------------------*\
| =========                 |                                                 |
| \\      /  F ield         | OpenFOAM: The Open Source CFD Toolbox           |
|  \\    /   O peration     | Version:  v1912                                 |
|   \\  /    A nd           | Website:  www.openfoam.com                      |
|    \\/     M anipulation  |                                                 |
\*---------------------------------------------------------------------------*/
FoamFile
{
    version     2.0;
    format      ascii;
    class       volVectorField;
    location    "0.79";
    object      U;
}
// * * * * * * * * * * * * * * * * * * * * * * * * * * * * * * * * * * * * * //

dimensions      [0 1 -1 0 0 0 0];


internalField   nonuniform List<vector> 
5794
(
(0.0998873 -0.358999 -3.31066e-17)
(-0.208891 0.23593 0)
(-0.168085 -1.25341 -1.31387e-16)
(0.19786 2.95904 1.07054e-16)
(1.9645 1.79348 2.54897e-17)
(0.118675 -1.7642 -1.11404e-16)
(1.67464 -0.238073 -2.06147e-16)
(0.0435295 -0.154949 0)
(5.86356 0.856719 9.76637e-17)
(0.356657 -0.0972092 2.39087e-16)
(4.73524 -0.111202 -3.35848e-19)
(-2.00218 -0.269439 0)
(-2.41697 -0.246458 4.99189e-16)
(0.605272 6.45763 1.83494e-16)
(0.338608 0.0874688 5.27176e-16)
(-0.858589 -0.00826777 -1.51146e-16)
(1.49276 0.0211437 4.68328e-17)
(-0.113118 6.81219 1.22654e-16)
(0.189663 0.0676975 4.99095e-16)
(-0.0234593 0.699361 1.65479e-16)
(-2.95572 1.79938 -4.5856e-17)
(-0.0033582 -0.888801 -1.57506e-16)
(2.99289 -0.111674 2.49651e-16)
(0.80585 -0.1102 -6.32973e-16)
(1.90438 0.142874 -4.02146e-16)
(2.90972 10.5427 2.12146e-17)
(6.08609 -0.50841 0)
(-0.183316 2.10736 -1.40668e-16)
(0.0390111 9.40341 -3.66183e-17)
(0.162116 -0.0976747 3.14364e-16)
(-0.172603 -0.908409 -6.29335e-16)
(-1.75819 0.0282123 -5.10429e-16)
(-2.14122 0.115792 -8.86243e-16)
(-0.457141 -0.330667 4.44818e-16)
(-0.965461 0.156944 -2.0803e-16)
(-0.653436 0.122806 2.17432e-16)
(9.77956 0.592861 -2.14524e-16)
(2.17934 -0.447937 0)
(3.00886 -0.396396 1.3208e-16)
(0.0351836 3.30958 0)
(0.00576971 2.67977 -1.00643e-16)
(-0.683136 1.42681 1.44439e-16)
(7.41503 0.111794 -8.88147e-19)
(0.345389 2.81077 0)
(0.40336 0.0874895 -4.61172e-16)
(4.89681 -0.168654 1.31541e-16)
(3.75311 -0.162683 -2.45882e-16)
(-2.02738 -0.364888 0)
(0.21411 0.00915652 8.76792e-16)
(0.644695 -0.19609 6.84769e-17)
(-0.172688 -0.0218956 -1.71788e-16)
(6.05517 -0.213281 -1.76191e-16)
(-0.390554 -0.00592661 0)
(0.477543 0.231241 1.72649e-16)
(-0.0617558 -0.0554344 1.06208e-17)
(5.14429 -0.506953 0)
(3.88127 -0.335375 -1.97245e-16)
(-2.09468 0.0958935 1.40464e-16)
(8.41395 0.0644441 0)
(4.36935 9.89694 -7.16731e-19)
(9.15457 0.473974 1.8801e-18)
(0.38252 1.09344 -1.22092e-16)
(0.0614189 -1.43391 -1.44027e-16)
(-0.873488 -0.0414524 2.09347e-16)
(-1.22399 0.141992 0)
(1.09797 0.141837 -2.56902e-18)
(0.229798 0.746273 -2.37195e-16)
(-0.164495 3.69221 0)
(0.0976707 4.76139 -1.45608e-16)
(0.0481619 0.530714 -2.70067e-21)
(4.67841 -0.478698 1.3653e-16)
(0.363104 2.26421 -2.97199e-16)
(11.494 2.03839 -3.42299e-18)
(1.74178 0.154338 0)
(-0.027837 6.0977 1.2712e-16)
(0.000124564 1.05902 4.30092e-20)
(0.471427 -0.191328 1.34442e-16)
(1.59655 10.3456 -2.19908e-17)
(0.506845 2.89425 3.59432e-17)
(-0.462681 0.126501 7.30562e-17)
(0.106218 -0.982379 -1.86583e-17)
(-0.0546352 0.161187 -1.87068e-16)
(0.0151834 1.62778 -1.54992e-19)
(2.07604 -1.49302 -8.84177e-17)
(1.26478 -1.29935 -3.74825e-16)
(-0.130948 5.21766 -4.10311e-17)
(0.221644 5.71384 3.1792e-17)
(0.0354728 5.26686 -2.47534e-17)
(0.816222 0.0566792 -1.66857e-16)
(2.1095 1.04448 -4.59991e-17)
(0.912934 5.60613 -7.89498e-17)
(0.0541246 6.49596 -8.6468e-17)
(-0.0860862 7.57946 1.29578e-16)
(0.117022 7.64146 5.70081e-17)
(-0.0468996 6.48783 3.31456e-17)
(-2.15545 0.0494992 5.22479e-18)
(0.0132869 6.21233 -5.50584e-17)
(-0.128498 7.31893 -1.40321e-17)
(-0.0131916 6.45044 0)
(8.87911 0.523823 -3.0432e-17)
(1.69858 3.20212 -1.22647e-16)
(-1.129 0.178259 -4.16746e-16)
(8.30554 0.142925 7.23308e-17)
(0.526988 5.65545 -2.41173e-16)
(0.450188 0.148414 0)
(-0.440483 5.82864 0)
(0.139479 1.05017 0)
(-0.288317 0.0665426 -2.76152e-16)
(-1.39272 0.575458 -1.20076e-16)
(0.696649 2.8919 -9.79813e-17)
(0.263559 -0.120315 9.58908e-20)
(0.124347 -0.0655355 0)
(-1.51415 4.67333 1.14369e-16)
(-0.0599516 -0.0130389 1.59903e-16)
(-0.013659 6.30934 0)
(-0.102521 7.785 0)
(0.147971 0.0340004 -3.81737e-16)
(-0.416008 8.37141 -9.70851e-20)
(9.40101 0.425247 -2.38537e-20)
(10.85 0.594542 5.99051e-18)
(-0.562535 7.86835 1.05716e-16)
(0.970083 0.0085822 0)
(-1.6239 -0.0658719 0)
(-0.0888827 1.50925 -1.86352e-16)
(0.398864 0.0139338 2.42256e-16)
(4.78849 2.38119 5.00269e-17)
(0.809298 5.14246 0)
(-0.200818 -1.58886 7.1592e-17)
(6.25218 -0.591942 1.16492e-16)
(-0.455765 -0.0464842 1.66366e-16)
(-0.203981 -0.885219 3.36168e-16)
(-0.333664 -0.965199 2.17629e-16)
(0.278282 1.13965 2.29823e-17)
(1.11569 9.9919 -6.67857e-17)
(-0.485385 6.64142 1.33653e-16)
(0.426441 0.0779384 0)
(4.34931 -0.201384 9.15957e-17)
(0.487107 1.06956 -1.79823e-16)
(-1.08786 -0.0923225 1.5661e-16)
(0.0740639 -0.30295 0)
(1.90765 -0.483685 -4.56422e-16)
(0.532279 2.60572 0)
(0.378149 -0.0378663 0)
(0.404681 3.00234 2.49677e-16)
(-1.06734 -0.0151854 1.5899e-16)
(2.15963 -0.100781 1.544e-17)
(-0.887213 0.89554 2.29033e-16)
(7.77571 0.282891 2.3178e-16)
(1.51591 1.10756 -1.87818e-18)
(0.130732 1.25196 3.98528e-16)
(7.26201 -0.177065 -1.72511e-16)
(0.701691 0.205752 3.10526e-16)
(-0.43682 6.01407 0)
(-1.25936 0.369211 1.87554e-16)
(4.23624 -0.689826 0)
(4.21905 0.11884 0)
(1.98598 -0.643156 -2.54734e-16)
(0.681558 -0.285848 4.16663e-16)
(5.27882 0.18231 -2.60749e-16)
(1.23487 -0.570844 -1.36108e-16)
(0.0561157 -0.00916543 4.34456e-16)
(-1.0776 -0.180996 -3.75507e-16)
(-0.270196 -0.0738401 0)
(-1.14312 -0.0562075 -1.47627e-16)
(-2.95899 0.0220271 -2.96549e-16)
(-3.10089 -0.0869611 1.61533e-16)
(-0.741771 -0.191764 1.35905e-18)
(-0.000907374 -0.276 -4.34293e-18)
(0.147915 -0.0612022 0)
(0.0140747 -0.0133116 1.0558e-18)
(0.166608 0.0912808 0)
(-1.84298 0.41139 -1.13444e-16)
(-0.902109 0.129927 0)
(-1.03379 0.27121 1.02588e-16)
(-0.764964 -0.0861484 4.31583e-16)
(2.73395 -0.0602197 0)
(-0.0672486 0.0662949 -2.62984e-16)
(1.77724 -0.0123337 -2.36789e-16)
(0.280184 -0.177967 -9.33771e-17)
(6.25601 0.117684 6.68012e-18)
(0.747701 -0.161991 -5.65642e-18)
(-1.14321 -0.313258 0)
(1.70224 -0.0559667 0)
(-1.89386 -0.328428 1.235e-16)
(0.939849 -0.265209 0)
(0.0633573 -0.819886 6.88163e-17)
(-1.31028 0.140184 -1.47667e-16)
(-1.23336 0.299775 -9.97399e-17)
(0.188624 -0.0177849 1.44482e-16)
(-1.03347 0.0960362 3.40529e-16)
(4.6375 -0.0700475 -3.39639e-16)
(-1.83922 -0.108822 3.77405e-16)
(-2.28561 -0.0862187 5.90615e-16)
(0.388271 -0.471573 6.08395e-16)
(-0.823757 -0.476686 -9.85379e-17)
(-0.704702 -0.491866 -5.1247e-16)
(0.690173 -0.318506 -2.2877e-17)
(-0.245797 -0.0810337 -1.90877e-16)
(0.158259 0.00807211 -3.19889e-16)
(6.43643 -0.0462539 1.20626e-16)
(2.24428 -0.19311 -1.9837e-17)
(5.94522 0.0160648 0)
(-1.13871 -0.469244 0)
(-0.0986826 -0.227371 1.12602e-17)
(3.73559 -0.00379408 -5.82288e-17)
(4.8317 0.0245254 0)
(-0.29399 -0.23445 1.19761e-17)
(0.348949 -0.0133219 2.10831e-19)
(4.82875 1.05193 -5.79862e-18)
(1.96188 8.66498 1.22741e-16)
(0.645543 1.04098 1.12495e-16)
(9.7601 -0.0105178 0)
(-0.729124 -0.152939 -1.18132e-16)
(-0.702991 -0.645019 1.79993e-16)
(0.292266 -0.47802 0)
(0.896337 0.257035 7.74006e-16)
(0.875327 0.0813651 -1.80266e-16)
(1.15124 1.49674 9.47643e-17)
(4.12535 -0.20112 1.31933e-16)
(1.39192 5.65031 -1.71281e-16)
(9.67795 -0.00599465 0)
(1.97194 0.468984 2.14867e-16)
(-0.35571 1.99249 0)
(-0.0999642 5.38374 2.63303e-17)
(5.20207 0.122546 1.30032e-16)
(11.318 0.71331 2.09411e-18)
(-0.735794 -0.276629 -7.29796e-17)
(0.646946 -0.231903 -1.20423e-16)
(0.211073 -0.156939 0)
(0.36429 0.0418904 -3.30793e-16)
(-0.844739 0.273503 0)
(-1.04672 0.455374 -6.81321e-17)
(-0.84362 0.0216468 -1.07168e-16)
(-1.05469 0.730465 1.50202e-16)
(1.75189 0.314183 1.66983e-16)
(9.77867 0.161044 5.64036e-18)
(7.69409 0.905478 1.89371e-18)
(7.33247 0.520972 2.84102e-17)
(-2.13114 0.00844245 -1.54668e-16)
(0.699212 -0.809191 -3.93868e-16)
(-0.434246 -0.0206121 0)
(1.19418 0.849971 1.16466e-15)
(1.44611 4.58977 2.15341e-16)
(-0.762251 0.706782 -2.6209e-16)
(-1.47084 0.994095 2.61557e-16)
(0.279773 -0.120566 3.02872e-16)
(0.459407 0.0685482 -1.594e-16)
(1.32408 0.740874 8.82569e-18)
(-0.118912 5.98855 0)
(-0.0404177 5.90442 0)
(-0.00895498 4.91628 0)
(0.847125 0.122 2.7768e-17)
(2.98913 -0.628268 -7.09377e-17)
(-0.369757 0.0487436 4.75863e-21)
(7.30944 1.18597 -5.69417e-17)
(4.61084 2.28224 -9.23414e-18)
(8.21818 0.214776 -1.48717e-16)
(9.0209 0.519909 1.57001e-16)
(0.0774129 -0.322345 2.91313e-16)
(0.309742 0.023745 0)
(6.02517 -0.0543863 -1.10772e-16)
(-0.650837 -0.231586 1.01724e-16)
(-0.346591 -0.768124 -1.04365e-16)
(1.0097 -0.0311742 0)
(-1.57044 -0.125796 0)
(-1.64662 -0.224737 -5.96074e-19)
(0.12055 1.86123 1.42632e-16)
(3.81653 0.791891 0)
(0.136768 0.00121087 -7.73359e-16)
(4.40824 0.0176367 -1.22452e-16)
(3.48955 -0.0350094 0)
(-0.288559 -0.873101 -2.88683e-16)
(0.629101 1.36174 -4.97426e-16)
(4.9188 -0.336523 -1.65478e-16)
(9.52214 0.0895863 3.59092e-17)
(0.184029 0.0252174 3.40985e-16)
(0.499976 0.181255 -1.83882e-16)
(2.01615 -0.137755 -8.10959e-17)
(0.521319 0.226558 -1.95155e-16)
(-1.55003 1.01177 -2.47486e-16)
(-0.33549 -0.118146 3.86663e-16)
(0.930433 3.34492 2.53685e-16)
(-0.00369639 3.38932 9.79279e-17)
(-0.538792 1.01469 -4.35823e-16)
(0.281026 4.63154 4.79155e-17)
(-0.129908 5.36006 1.10853e-16)
(0.0342926 5.91637 1.26642e-17)
(-0.0205182 5.90774 0)
(0.621244 5.88677 4.06769e-17)
(-0.555065 7.88993 0)
(-0.482137 0.252526 -1.82179e-17)
(-0.729804 0.503575 -1.40439e-16)
(-0.524322 -0.231818 2.45882e-18)
(0.728024 0.128821 0)
(8.0886 1.70145 0)
(1.24989 7.41991 7.06913e-18)
(0.0580979 3.23126 6.08276e-17)
(-0.563005 0.666481 -2.20289e-19)
(0.252237 4.36496 -2.07012e-16)
(0.847377 -0.0549146 -1.72068e-16)
(0.0155234 -0.041538 1.36546e-16)
(-0.492752 6.26746 0)
(0.0274468 -0.900286 -7.48452e-16)
(0.700544 1.95887 0)
(0.852272 1.0182 -1.57307e-16)
(3.6113 0.270248 1.62367e-18)
(0.550641 0.167796 -2.72994e-16)
(0.210297 3.12922 2.81395e-16)
(5.05517 0.10694 2.41806e-16)
(4.00179 0.0492874 0)
(0.155451 -0.413391 -6.69108e-16)
(-0.173218 0.488571 -3.02539e-16)
(1.3595 7.51457 -1.36753e-16)
(-0.0346909 -0.0456923 -8.97327e-17)
(10.5954 0.119101 0)
(10.027 0.29838 -1.79311e-17)
(-0.0615167 0.0586376 -9.85852e-17)
(-0.26059 2.87639 -2.61951e-16)
(-2.06192 0.37903 -2.14968e-16)
(0.158997 7.18007 -4.05366e-17)
(-0.159789 -0.160515 4.67432e-16)
(0.92736 -0.514963 -2.12024e-16)
(-0.312743 7.3941 -7.79237e-17)
(1.88685 1.35096 -8.25543e-19)
(-0.891521 -0.0414034 0)
(1.58581 -0.545949 0)
(1.97298 0.130038 0)
(-1.5438 -0.349411 6.6724e-17)
(-1.72143 -0.30092 -3.31793e-16)
(4.50855 -0.131356 2.97666e-16)
(6.31815 -0.0238688 -6.92894e-18)
(6.6053 -0.125186 3.01633e-16)
(-0.719686 -0.435662 9.24997e-17)
(-1.84045 0.256248 4.89387e-16)
(-1.67554 0.147682 0)
(0.276501 -0.075402 -2.58821e-16)
(0.640818 -0.0698022 0)
(-0.0389009 -0.0831285 0)
(0.16764 0.0141792 -3.5131e-16)
(-0.608711 0.0194406 0)
(0.601577 -0.210977 4.3832e-16)
(1.88097 0.0145427 4.05229e-16)
(6.40051 0.396108 0)
(2.95701 -0.151608 0)
(-0.0594368 -0.0522911 4.47563e-16)
(1.60809 -0.0021402 3.54892e-16)
(-1.08547 -0.528603 3.21604e-16)
(-0.232322 -0.340596 -2.42493e-17)
(-3.03802 -0.136812 -1.20678e-16)
(2.48541 0.00447223 7.00143e-17)
(3.41548 0.126446 6.08787e-17)
(0.566151 0.0983139 2.40655e-16)
(-2.37028 -0.165527 -2.2313e-17)
(-1.7206 -0.211752 1.52919e-16)
(1.20847 -0.285092 0)
(-0.89252 -0.567114 0)
(0.211552 -0.000166887 1.90767e-16)
(5.39658 -0.415694 1.68068e-16)
(1.78608 -0.121095 7.21934e-17)
(0.136346 -0.16811 0)
(0.209973 0.0121666 -2.73728e-16)
(1.3093 -0.470681 4.71335e-16)
(4.77036 -0.0838093 3.61878e-17)
(1.62279 -0.558202 -3.59067e-17)
(0.337115 -0.489044 -3.07001e-16)
(0.396618 0.176591 5.20727e-16)
(-3.21501 -0.00395294 -3.73054e-17)
(4.32466 -0.340067 0)
(3.26893 -0.26339 3.34453e-16)
(-2.17357 0.0508499 -8.47919e-17)
(0.428654 0.190214 -1.38579e-16)
(1.05075 0.010379 0)
(0.564069 0.246566 -1.17539e-16)
(-0.341424 0.463069 2.95729e-16)
(0.52939 0.060575 8.90425e-17)
(-2.78049 0.16604 1.37751e-16)
(3.86808 -0.0165879 0)
(2.97567 0.147806 8.83336e-17)
(-1.99869 0.5585 0)
(0.237538 0.0809241 1.55227e-17)
(0.552276 -0.67662 1.46036e-16)
(0.434242 0.141925 0)
(10.7801 0.0863644 0)
(-0.914508 0.0324498 1.58001e-16)
(-1.20796 -0.0984938 -6.08329e-16)
(-0.436572 -0.298276 -3.5482e-16)
(-0.258754 9.13326 -2.85012e-17)
(0.0630253 -0.562291 3.16062e-16)
(0.23875 -0.686195 -1.08933e-15)
(-0.362958 -0.222149 0)
(0.477125 -0.0995619 -8.03294e-16)
(-1.17933 1.0296 -7.2138e-19)
(0.0986196 0.705487 -2.53211e-18)
(-0.200294 -0.251059 1.72811e-16)
(-0.655227 0.190519 9.20683e-17)
(-0.568607 0.268813 -9.87495e-17)
(-0.893237 0.012272 1.09091e-16)
(-0.018842 0.753176 0)
(0.373638 0.0352522 0)
(2.54542 -0.062195 -2.70245e-16)
(0.735262 -0.30478 1.39724e-16)
(1.70831 0.049067 -4.11345e-16)
(9.1455 -0.232284 3.16243e-17)
(0.339014 -0.0751006 2.0436e-16)
(0.17327 -0.0853048 0)
(6.47454 0.969881 4.57938e-17)
(-0.134705 1.28018 3.14117e-20)
(0.40809 -1.49255 1.9459e-16)
(0.090664 1.01801 -3.71677e-17)
(-0.25055 5.82034 -6.03057e-17)
(-0.112482 7.13416 2.23042e-17)
(0.142363 6.49656 0)
(0.876403 0.478486 1.73481e-16)
(-0.96441 0.315727 2.7474e-16)
(5.11332 -0.0293437 1.99352e-17)
(4.00054 -0.0572171 7.19354e-17)
(-0.116779 -0.316348 0)
(0.232387 3.35209 1.77266e-16)
(-2.41334 0.181956 0)
(-0.155081 6.34062 3.80393e-17)
(-0.0275832 6.46891 -6.71289e-17)
(-0.162887 7.36245 2.94149e-17)
(0.00569892 -0.0349481 -1.59452e-17)
(0.415577 0.233735 -4.1855e-17)
(-1.08518 0.00419652 0)
(-1.30512 -0.055797 0)
(-0.533234 -0.122234 -2.01361e-16)
(-0.089049 0.0283496 -2.08617e-16)
(0.00515463 0.614073 -1.4565e-17)
(0.0536384 -0.877145 5.43165e-17)
(3.7366 0.706191 3.11822e-16)
(10.0064 0.161251 1.27568e-17)
(0.197594 2.33202 -2.81182e-16)
(0.938661 -3.04257 -2.10319e-17)
(0.367975 0.0648189 3.39728e-16)
(-0.0408297 0.0168338 0)
(0.0620632 -0.358524 1.73409e-16)
(0.518224 -0.480452 -1.00449e-17)
(-1.16283 -0.0153016 -1.01213e-16)
(-1.34285 -0.176384 2.00777e-16)
(-0.377591 -0.185519 2.53669e-16)
(9.95497 0.0972247 -2.48951e-16)
(0.213824 -0.444701 0)
(0.178316 -0.328931 8.08751e-17)
(2.06908 0.110012 -2.02963e-18)
(-0.0400038 7.78855 -5.57875e-17)
(-0.00376547 6.34501 1.24441e-20)
(-1.00922 -0.185498 0)
(-0.0595121 0.317644 2.50813e-16)
(1.23801 0.353062 -8.19e-17)
(0.800999 -0.0905508 -2.24757e-16)
(-0.00388788 0.587789 -7.38398e-17)
(-2.78321 1.3782 4.63631e-17)
(-0.0275546 -0.93539 -5.29103e-16)
(-0.122423 6.63608 -2.6221e-17)
(1.00633 -0.0292889 -5.07778e-16)
(0.359528 5.28951 -2.18943e-18)
(-1.62362 -0.465733 -2.13666e-16)
(-0.0975869 6.44986 -3.22323e-17)
(0.982259 6.57841 8.58096e-17)
(0.0106642 -0.857034 -1.12234e-16)
(-0.11403 0.374064 -2.55469e-16)
(-0.366307 0.424639 1.87317e-16)
(0.187475 -0.200436 -3.96214e-16)
(8.5308 0.567875 9.14581e-17)
(-0.456995 -0.0507821 -2.85615e-16)
(10.1451 0.349547 -2.10924e-18)
(2.81887 3.24298 5.67816e-17)
(0.557275 0.0661643 -4.41766e-16)
(1.02864 2.4657 -4.76031e-17)
(0.883039 -0.00371469 3.71323e-17)
(6.33219 1.07946 -4.70834e-18)
(1.5605 0.714491 -6.84957e-17)
(0.537147 -0.245409 3.04527e-17)
(0.401314 -0.00677302 -2.16975e-16)
(-1.01572 -1.05412 1.12573e-15)
(8.40247 2.13116 -2.62712e-18)
(-0.24811 2.64513 1.5363e-16)
(1.44774 0.155736 1.83822e-16)
(-0.0956006 0.247554 6.07608e-17)
(-0.951811 0.498854 2.78918e-16)
(-0.0613176 -0.855013 0)
(0.954976 -0.13852 -1.96762e-16)
(0.445986 -0.272715 1.35452e-17)
(0.0403799 0.0343475 1.83972e-16)
(3.40731 -0.130774 -5.30917e-20)
(9.8225 0.0301818 0)
(1.59108 0.116788 2.10587e-18)
(0.928445 -0.00937309 -4.93252e-17)
(0.0537337 -1.06672 2.87219e-20)
(-0.00403517 0.304041 2.26432e-16)
(-0.078341 4.37176 -1.39888e-16)
(-0.253452 5.97128 4.22917e-16)
(1.69097 0.914606 7.86138e-18)
(-0.154715 1.13458 -6.27835e-21)
(0.117086 -0.209532 2.6202e-16)
(0.23533 0.0317515 0)
(0.29101 0.104622 0)
(-0.921722 -0.0677939 -3.29723e-17)
(6.92115 0.833167 -1.393e-19)
(3.3931 1.99998 2.09403e-17)
(8.61007 1.23826 -5.66667e-18)
(10.3842 0.524148 3.23718e-18)
(0.646978 -0.0106537 0)
(0.151124 2.87085 0)
(-0.196578 0.29459 2.56411e-16)
(0.15614 -0.839878 2.22824e-16)
(8.96348 0.487804 -4.41849e-16)
(1.60286 0.70383 0)
(1.04154 -0.00033409 0)
(-2.09096 0.140622 2.03177e-16)
(0.579409 0.0986563 1.69336e-18)
(0.495754 -0.478986 -1.50084e-16)
(0.94577 -0.108487 1.88214e-16)
(0.0475648 -0.116347 -1.01826e-16)
(-0.00460618 6.31738 -3.04962e-17)
(-0.208662 7.65744 -1.35559e-17)
(0.909964 -0.173112 -2.46706e-16)
(9.92232 0.162658 -6.59556e-17)
(9.17652 0.0688815 3.49573e-18)
(0.501349 -1.09436 1.43665e-16)
(-0.0290852 0.733308 -3.96804e-17)
(2.37547 2.17046 -9.95432e-18)
(-0.556207 8.62186 -1.27718e-16)
(-0.186956 0.00457064 1.07238e-15)
(-0.626538 -0.421381 6.89846e-18)
(0.782918 0.328857 0)
(5.50774 3.76048 6.49572e-17)
(-0.0535204 0.771203 1.19819e-16)
(0.00742468 -0.850392 3.28953e-20)
(-0.759054 2.06603 1.824e-16)
(-0.594803 -0.0538955 0)
(10.3305 0.173428 0)
(0.0798787 0.0630301 -7.19622e-17)
(0.429996 0.113566 0)
(-0.42686 0.374828 8.62114e-17)
(10.0346 0.0635113 -1.03998e-16)
(4.87798 -0.0290232 7.47566e-17)
(-0.441393 -0.0100945 1.25745e-16)
(7.05109 0.029414 9.43107e-17)
(-0.00225375 -0.887387 8.43798e-17)
(-0.783318 -2.54492 1.83507e-16)
(0.0268179 0.687348 2.26822e-16)
(0.705016 6.28243 -1.06505e-16)
(1.27058 0.00899422 -7.34049e-17)
(-0.865422 -0.0220499 0)
(9.72714 0.812977 0)
(0.472988 3.00527 -2.39276e-16)
(-0.360189 -0.0163477 -2.09937e-16)
(-0.539715 -1.39667 6.09691e-16)
(0.641251 5.18873 -2.56564e-17)
(0.376335 0.134656 0)
(0.0270792 0.0669072 -5.04808e-16)
(1.48166 1.68375 -1.40448e-16)
(-0.777415 -0.902831 1.47084e-16)
(0.285259 -0.11078 0)
(-0.283216 2.24622 0)
(0.0363262 -0.890565 0)
(-0.0314718 0.851785 -1.85398e-16)
(0.774192 1.94954 6.8395e-18)
(10.0647 2.79511 -2.36307e-18)
(0.0428086 0.00607252 0)
(5.39151 1.30589 0)
(0.681032 0.255521 -9.79215e-17)
(0.911585 6.41473 7.5239e-17)
(1.36839 0.129241 0)
(-0.824264 -0.0264899 4.00725e-16)
(0.299556 -0.133588 -7.48487e-21)
(-0.0929753 -0.379291 -1.69632e-16)
(0.981686 -0.0150545 0)
(8.0881 0.58836 -6.27698e-17)
(-1.5939 0.679969 -1.51176e-16)
(0.588435 3.04681 7.16285e-17)
(0.0272282 4.26532 0)
(0.92253 3.60343 -1.05157e-17)
(9.94759 0.25554 -1.98745e-17)
(2.93169 2.60703 -3.74341e-18)
(0.220074 5.16038 -1.30443e-16)
(-0.567467 0.889925 -2.70695e-16)
(0.0184196 3.63237 -4.33178e-16)
(-0.186715 6.91477 5.69106e-19)
(0.0471196 6.47644 4.777e-17)
(2.58085 2.64487 0)
(10.5165 -0.2024 2.08602e-17)
(-2.70935 -0.214044 1.3517e-16)
(8.93397 0.813494 -1.16446e-16)
(-0.130304 0.0669239 1.89628e-16)
(-0.115787 6.69796 0)
(-0.042715 6.55907 -5.36426e-17)
(-0.211611 4.9356 1.84328e-16)
(1.0107 -0.0184326 -7.36709e-18)
(-0.531419 -0.861198 5.33838e-17)
(0.737656 0.81058 6.31249e-18)
(-0.151222 6.68069 -2.75251e-17)
(-0.0140948 6.41242 -2.99923e-17)
(2.03283 8.86192 5.52914e-17)
(0.172247 0.0159258 2.1508e-17)
(10.1324 0.166771 0)
(0.406847 -0.224271 5.0555e-16)
(0.210106 0.198975 -1.13308e-16)
(0.745696 -0.153424 -3.42161e-16)
(7.56512 0.579557 1.65556e-17)
(-0.0214433 6.51202 -4.60712e-17)
(-0.0985462 6.85472 1.85624e-16)
(0.961445 -0.0600668 -9.81068e-20)
(-0.400312 0.0759626 -1.20262e-16)
(1.05245 6.50829 0)
(0.440774 -0.0569222 0)
(-0.0548167 -0.137229 -2.1324e-17)
(-0.708664 2.3177 0)
(3.34433 4.02093 -5.3336e-17)
(4.66862 2.93345 0)
(1.08406 5.4979 -1.55571e-16)
(-0.136508 0.727164 6.9577e-17)
(1.01745 -0.0011227 3.66761e-16)
(1.34161 -0.0415045 4.35575e-17)
(7.23875 0.676842 -1.48317e-17)
(3.86314 -0.00637906 -2.32879e-16)
(7.71897 0.140898 -2.86671e-16)
(1.97053 0.151555 0)
(0.195959 1.06295 -8.22548e-17)
(5.1359 2.954 1.59686e-16)
(3.6432 1.6669 -7.30274e-17)
(0.0743917 0.0346913 -3.71154e-16)
(0.258513 1.13023 5.7998e-16)
(-0.664284 -0.566399 3.38096e-17)
(-0.317656 0.4455 -4.23912e-16)
(1.35395 1.89498 -1.75059e-19)
(0.926224 1.17568 -2.42746e-16)
(-0.412001 0.0539272 1.96834e-16)
(0.284058 -0.753115 9.69917e-17)
(-0.206691 0.325267 0)
(0.0624688 0.422383 -7.92545e-17)
(0.462598 -0.932791 -7.62903e-17)
(0.0137 0.655756 3.19189e-16)
(0.886529 -0.168793 -1.16689e-16)
(1.39778 8.57245 -3.6467e-17)
(10.6553 0.423718 -7.21373e-17)
(0.147229 -0.0408579 1.18104e-16)
(-0.245523 2.62746 -4.69004e-17)
(0.57848 -0.0542444 -1.42959e-16)
(8.67326 0.16612 3.52697e-16)
(3.96409 -0.137937 -2.40585e-17)
(-0.00730686 6.56098 3.541e-18)
(4.31915 -0.150006 2.447e-16)
(-0.0672027 4.85991 -1.73283e-16)
(-0.0210015 5.7995 8.63937e-17)
(7.26672 0.286846 0)
(0.0147908 0.24203 -1.2646e-16)
(0.031416 0.0492169 3.04258e-17)
(-1.33335 -0.766393 0)
(1.43684 0.945298 -1.61986e-16)
(0.0685622 0.103514 6.89713e-17)
(1.11449 0.351257 2.70352e-16)
(0.961683 0.0968266 2.84354e-16)
(3.87953 0.187178 -4.10939e-17)
(8.86981 0.507815 -1.08971e-18)
(0.924741 1.29413 -1.68444e-16)
(-1.12451 0.127956 2.93539e-16)
(-0.382539 1.20813 -2.71454e-16)
(0.643098 -0.117187 1.23652e-16)
(0.925467 -0.110049 0)
(-0.128112 -0.913328 -1.11573e-17)
(-1.94945 0.941204 -2.86155e-16)
(-0.0526765 0.186381 -1.74942e-20)
(-0.0419242 5.96473 2.72757e-17)
(0.212865 5.59691 -2.73227e-18)
(-0.138782 5.27518 -1.09298e-16)
(0.156692 5.88486 3.14864e-17)
(2.01621 4.62749 -1.40241e-16)
(7.17924 0.348201 7.01951e-17)
(0.0302395 0.777879 0)
(10.363 0.969556 0)
(-1.55914 0.0246512 3.69056e-16)
(-1.30769 0.0361203 5.28016e-16)
(-0.0186837 6.50812 1.41077e-16)
(-0.0417163 6.97488 -1.24892e-16)
(0.856571 -0.0506796 1.28865e-16)
(1.21221 5.6498 -4.04274e-17)
(0.970442 -0.224476 4.89075e-17)
(-0.700827 -0.213772 2.39393e-17)
(0.385174 -0.0594198 1.56469e-19)
(0.397343 0.265197 -6.74845e-17)
(-0.794526 -0.0947359 -9.86693e-18)
(0.657485 2.24608 -5.1657e-17)
(3.54222 -0.0720635 -4.00367e-16)
(0.584919 4.12974 6.51556e-18)
(0.164126 0.0729271 1.72908e-16)
(0.525868 0.261965 0)
(0.830519 -0.277259 0)
(0.174245 2.84854 0)
(0.799854 6.20451 2.24379e-16)
(1.17432 8.38969 2.44226e-16)
(-0.171987 6.92711 2.22573e-16)
(0.824679 0.0382418 3.79318e-17)
(5.88959 3.28788 -3.83824e-17)
(0.336318 0.109614 0)
(-0.158702 -0.121192 1.04095e-16)
(-0.307683 -0.747034 3.32162e-17)
(10.5414 0.0562865 -7.50831e-18)
(0.157157 0.00267645 -1.14598e-16)
(-1.5132 0.176187 3.22799e-18)
(-0.633898 -0.0327597 -1.65413e-16)
(8.98974 0.37477 -2.02232e-17)
(0.849869 1.70919 0)
(3.4929 1.20641 -3.48957e-16)
(3.28541 0.830372 2.14886e-16)
(0.665411 -0.235679 0)
(0.0424872 0.17995 7.88554e-17)
(1.29456 2.3292 -2.57293e-16)
(8.68431 0.160592 0)
(1.74851 5.92583 -4.53952e-16)
(-0.159862 6.20179 -1.25604e-16)
(0.374071 3.15414 0)
(1.18526 0.560412 0)
(11.3947 0.282047 4.3621e-17)
(10.3695 0.349827 3.36878e-17)
(8.94228 1.20294 1.81982e-18)
(5.3927 2.18181 -6.39632e-21)
(0.426376 2.42946 0)
(1.3616 0.627222 2.04487e-16)
(2.27597 7.11064 -2.9761e-17)
(4.66158 -0.0568954 0)
(0.160293 0.0213594 -4.87575e-16)
(3.97277 2.11456 2.02718e-17)
(0.157838 0.895337 -1.26403e-16)
(9.37324 0.914296 -5.19144e-17)
(10.8787 0.0434223 7.82046e-17)
(1.65591 1.87265 -1.83288e-16)
(9.94268 0.415646 -1.55439e-17)
(-0.0542378 6.6201 1.56374e-16)
(0.790957 8.69022 4.21338e-17)
(0.603811 6.92599 -1.00613e-16)
(6.78265 3.62573 0)
(0.781418 0.0778764 1.50088e-16)
(-0.194112 -1.0336 -1.78709e-16)
(2.2935 0.0927669 2.71747e-17)
(-0.0340488 0.0772258 1.36892e-16)
(0.0477995 6.49504 3.58794e-21)
(-0.0675613 7.46613 2.29842e-19)
(0.546435 6.016 7.3723e-17)
(0.165401 0.270496 0)
(0.174541 -0.24327 0)
(0.0118127 -0.00565794 1.13231e-16)
(0.46898 0.301582 1.69378e-16)
(-0.0880114 5.43046 -1.03877e-16)
(-0.0327427 5.85473 -3.52428e-18)
(-0.238398 2.42266 0)
(-0.210385 0.554226 -4.5737e-17)
(10.099 0.109511 8.59613e-17)
(-0.849926 -0.579556 0)
(1.82792 1.41216 -3.44515e-16)
(0.264114 0.233219 7.65263e-17)
(0.986988 -0.0594133 2.43943e-16)
(-0.0286479 6.52655 6.35307e-17)
(-0.15149 7.28686 1.36094e-16)
(9.6221 0.918223 0)
(0.263798 7.41741 -3.5297e-17)
(-0.04791 6.54087 -3.19229e-17)
(9.50881 1.13566 -9.58883e-17)
(1.88711 0.14625 -2.84249e-20)
(7.37842 1.64651 6.28173e-18)
(-0.169404 6.65994 2.41274e-19)
(-0.0418662 6.0664 0)
(0.0110871 5.60226 2.85809e-18)
(-0.146187 5.10974 -9.56741e-17)
(0.259653 5.76657 -3.8778e-17)
(3.59358 4.16119 1.41686e-16)
(0.346389 1.80569 3.70526e-17)
(-0.141542 7.02172 2.02987e-16)
(0.0275238 6.60624 0)
(-0.277989 5.4606 -1.3959e-16)
(1.05865 1.319 2.89677e-17)
(0.0465943 0.159069 -1.5781e-16)
(0.637024 0.179149 8.59105e-17)
(0.105361 0.173709 4.65285e-18)
(-0.590086 -0.277543 1.32605e-16)
(0.496761 -0.0837043 0)
(1.22877 3.45286 1.13436e-17)
(-0.127858 -1.61061 -2.15283e-17)
(0.57278 0.00737847 -1.24327e-16)
(8.84238 0.815061 -7.27984e-19)
(-0.148024 0.91951 -4.44741e-17)
(0.148589 -0.93534 -2.43077e-16)
(-0.088828 0.674608 -2.09399e-16)
(-0.148619 6.47101 -2.05045e-16)
(0.0919699 6.3936 0)
(0.583284 0.161469 2.47415e-16)
(-0.161081 6.54888 8.81467e-17)
(0.0702054 6.34979 2.37307e-17)
(-0.610291 -0.0576387 -7.42023e-17)
(3.51581 3.63552 -1.49487e-16)
(-0.872266 -1.376 4.84382e-16)
(-0.614458 -0.970525 5.93996e-16)
(0.81773 0.749278 -2.5986e-16)
(0.127659 6.04316 2.40593e-16)
(-0.00319779 0.563546 -4.12105e-16)
(-0.966247 -0.331951 -1.88237e-16)
(0.0216115 -0.989248 -1.2171e-16)
(1.20289 8.90008 0)
(9.87917 0.102186 0)
(0.0395343 0.0755464 -3.00108e-16)
(0.0357835 -0.94383 1.70585e-16)
(0.130608 0.161781 -8.07396e-17)
(-0.781826 -0.510567 0)
(0.721718 0.210942 1.17172e-16)
(0.539593 -0.0284827 -3.43128e-20)
(0.686412 0.388731 -6.19656e-16)
(4.16608 0.0907814 2.21102e-16)
(1.04084 5.06352 1.12508e-16)
(-0.235844 6.65782 -2.78499e-16)
(1.95042 -0.316332 3.71671e-16)
(1.0054 0.868866 -1.56957e-16)
(9.78008 0.901966 -1.34202e-17)
(0.508187 3.26676 2.00986e-16)
(0.192692 -0.233153 1.96751e-16)
(0.66823 0.0809749 0)
(-0.933005 0.782069 5.41063e-17)
(2.0786 1.37759 -7.36647e-16)
(0.0240604 0.933923 -2.48851e-17)
(0.238649 -1.19033 2.74212e-16)
(0.0686944 2.35846 2.66452e-17)
(8.63037 0.555611 -1.1414e-16)
(9.88763 0.293692 -2.07045e-19)
(-0.384563 0.0175417 1.92136e-16)
(11.0712 0.0488263 0)
(0.638678 0.293458 -5.03837e-18)
(0.55463 -0.335426 2.94328e-18)
(0.887858 -0.0829047 -1.89371e-17)
(-0.00998161 6.5396 4.11367e-17)
(-0.115693 6.63467 3.84851e-17)
(0.0165698 5.08314 1.75148e-17)
(10.5254 0.0372291 1.42403e-17)
(0.0805262 0.0481984 -1.71614e-21)
(-0.529176 7.77566 -4.51797e-17)
(0.598379 -0.365025 -1.55195e-21)
(-0.0721752 1.03986 0)
(9.15407 1.68283 -4.32342e-18)
(0.725626 -0.566102 0)
(-0.301538 -0.00905997 1.01056e-16)
(0.711623 0.134159 9.74825e-17)
(0.183278 1.02202 4.77351e-18)
(0.630953 0.270269 2.43792e-16)
(-1.10922 0.0404528 2.78259e-16)
(9.38025 0.611019 -1.76641e-17)
(-0.240615 -0.108235 2.69912e-16)
(1.71241 -0.547173 2.9112e-16)
(9.53446 1.07029 9.81646e-17)
(9.75379 0.299373 4.08915e-17)
(6.11249 2.64326 2.51242e-17)
(0.0131055 6.44452 -4.63725e-17)
(-0.0406652 6.63947 2.3738e-17)
(0.019471 2.79156 1.21056e-16)
(0.219804 1.87057 0)
(4.21426 0.734646 4.65871e-17)
(5.72642 3.11423 8.49769e-17)
(9.22876 -0.132207 -1.99218e-17)
(0.501959 0.727952 1.12569e-16)
(0.109284 -0.161071 2.63888e-16)
(0.0971846 0.101231 0)
(8.8974 1.69347 0)
(0.722439 2.13706 0)
(1.37701 2.16101 2.76711e-16)
(0.381962 -0.00852785 1.03027e-16)
(2.37905 4.41063 2.05337e-16)
(-0.147443 5.51203 2.75066e-17)
(1.43204 7.27028 -5.76239e-17)
(0.157363 0.19989 0)
(0.13226 0.210681 9.82543e-17)
(-0.23583 6.06389 -1.23538e-16)
(-1.14644 -0.0472178 -6.23324e-16)
(11.2594 0.114843 9.54386e-17)
(5.81214 1.19938 0)
(0.208158 -1.59999 1.69836e-16)
(1.06298 5.48317 0)
(0.605902 0.311326 1.64281e-16)
(0.281602 0.0829189 -2.50094e-17)
(0.956567 9.60095 6.27534e-17)
(9.91716 1.07823 -1.33849e-17)
(9.87893 0.679563 1.01594e-16)
(-1.12017 0.135338 0)
(0.723819 2.23449 -5.58282e-17)
(-0.412752 -0.0316042 0)
(8.61528 0.336264 0)
(1.06572 0.260221 -1.32248e-16)
(0.157335 0.0708223 2.47539e-17)
(-2.77924 4.40578 -1.31464e-16)
(2.92847 0.812831 -1.22342e-16)
(0.817948 2.64039 1.38332e-16)
(10.2841 0.104868 -2.32526e-20)
(5.98596 3.58038 -7.71464e-17)
(0.959934 -1.36304 -3.38348e-19)
(-0.0384234 6.31748 5.63144e-17)
(-0.0405261 6.2469 -5.18669e-17)
(0.616564 2.25926 -1.15288e-16)
(1.19098 6.08106 -2.44107e-16)
(1.6127 1.48153 -1.24599e-17)
(0.102479 -1.04823 -3.42621e-16)
(-0.0451592 0.413951 -2.26533e-16)
(0.937205 0.833003 6.34887e-17)
(0.790404 -0.0335631 2.11975e-16)
(0.605669 -0.114944 -3.08407e-16)
(0.105517 0.928403 -5.36695e-16)
(0.432121 -1.33354 -3.68102e-16)
(6.9694 4.22831 3.37185e-18)
(0.343643 1.05966 5.62149e-16)
(10.079 0.0419077 -6.28593e-17)
(0.760852 -0.0472354 0)
(-0.277698 2.37525 3.59972e-20)
(3.8973 -0.778 -1.02287e-16)
(-0.51257 2.59076 0)
(10.0918 0.412951 3.94752e-17)
(-0.478942 0.0430394 3.0661e-16)
(0.387972 0.00270288 -2.75617e-16)
(9.0113 1.7401 0)
(-0.0279051 6.34143 2.97926e-20)
(-0.26585 7.79109 0)
(10.0359 0.0836023 0)
(0.812376 0.0173299 -5.22386e-17)
(9.4427 1.23976 -5.28959e-17)
(8.99546 3.98214 -1.80467e-16)
(1.17151 6.6167 2.36758e-17)
(7.36626 2.1088 -1.05199e-16)
(-0.0454043 3.93158 -7.12258e-17)
(-0.00195015 4.18744 9.65021e-21)
(-0.0366571 4.552 -7.0866e-17)
(-0.817869 -0.900164 0)
(-0.0949841 2.41626 1.10879e-16)
(-0.012622 -0.558655 0)
(0.244169 0.387022 0)
(0.0661859 0.225599 0)
(-0.0378818 0.18377 -2.11036e-16)
(0.351612 -0.259096 0)
(0.073494 0.481938 1.36171e-16)
(2.85193 2.60006 -2.77541e-16)
(0.112132 3.46241 0)
(-0.489048 5.35495 1.52865e-16)
(-0.19817 6.44623 -2.41278e-17)
(0.00952021 6.3419 8.73199e-17)
(-0.151213 7.31103 -3.75023e-17)
(0.488009 1.83813 2.21311e-16)
(9.37753 1.01675 -2.70877e-17)
(0.0482349 0.971348 2.12647e-17)
(0.371511 -1.38997 -7.40736e-17)
(0.964778 0.639795 0)
(0.84038 -0.0340261 6.96466e-21)
(5.13467 1.72607 0)
(0.569507 -0.0661508 1.92392e-21)
(3.83533 0.131164 -4.51262e-16)
(10.0546 0.0510695 3.45586e-17)
(-0.488519 7.86191 1.12258e-16)
(-2.4505 2.48668 -2.93917e-16)
(-0.0100427 0.423513 0)
(-0.0110991 -1.01169 9.26156e-16)