/*--------------------------------*- C++ -*----------------------------------*\
| =========                 |                                                 |
| \\      /  F ield         | OpenFOAM: The Open Source CFD Toolbox           |
|  \\    /   O peration     | Version:  v1912                                 |
|   \\  /    A nd           | Website:  www.openfoam.com                      |
|    \\/     M anipulation  |                                                 |
\*---------------------------------------------------------------------------*/
FoamFile
{
    version     2.0;
    format      ascii;
    class       volScalarField;
    location    "0.73";
    object      k;
}
// * * * * * * * * * * * * * * * * * * * * * * * * * * * * * * * * * * * * * //

dimensions      [0 2 -2 0 0 0 0];


internalField   nonuniform List<scalar> 
1466
(
0.061599
0.0487575
0.0396513
0.0459845
0.232555
0.268118
0.152948
0.196653
0.467385
0.0963865
0.297512
0.124786
0.0105843
0.0660754
0.057416
0.0901806
0.0464311
0.0430618
0.33555
0.0547321
0.0969108
0.233724
0.0496463
0.077667
0.0704386
0.184745
0.289827
0.107224
0.101086
0.127643
0.209013
0.288983
0.223125
0.151857
0.0363096
0.054877
0.0409769
0.0457884
0.462739
0.210889
0.123132
0.10488
0.346143
0.212046
0.112797
0.207275
0.0537348
0.0393505
0.0957763
0.0972119
0.0471042
0.086837
0.176923
0.234324
0.117959
0.166642
0.0407232
0.0946975
0.0825391
0.164483
0.0823952
0.110181
0.203687
0.25999
0.0494674
0.0475161
0.156978
0.0885094
0.0486701
0.183398
0.111318
0.0497308
0.0405113
0.0613247
0.0312076
0.122864
0.0616221
0.0473819
0.137407
0.168044
0.0622636
0.0600673
0.0537556
0.0846254
0.0425271
0.0823196
0.0451272
0.0467311
0.0518954
0.0368517
0.0472987
0.0458067
0.149787
0.046573
0.0412998
0.0800712
0.0588946
0.0949589
0.0419974
0.0458039
0.125999
0.119862
0.0278134
0.0377191
0.0539182
0.327481
0.0759169
0.0543166
0.0675336
0.0750511
0.0608063
0.0572196
0.0531912
0.0460245
0.0119899
0.783819
0.0483057
0.0574268
0.0375373
0.108437
0.0714621
0.0474576
0.0320704
0.045238
0.0530866
0.142465
0.0380433
0.027742
0.152043
0.644382
0.0608671
0.0572114
0.0286478
0.140064
0.0664553
0.156278
0.110976
0.0438729
0.0999431
0.0322282
0.0749041
0.0427608
0.161382
0.136755
0.10476
0.046339
0.0319096
0.0293955
0.118678
0.0413572
0.148126
0.057501
0.0362157
0.0681791
0.0554206
0.307717
0.0484732
0.815981
0.062257
0.028152
0.115488
0.0454414
0.0456247
0.0793791
0.122468
0.139416
0.572682
0.0211779
0.057465
0.333317
0.07841
0.0782638
0.0471979
0.0941957
0.224531
0.0575548
0.123567
0.16036
0.0635806
0.157848
0.0455014
0.0662557
0.0659683
0.0488793
0.0492863
0.0561729
0.0675639
0.712928
0.0590121
0.0288446
0.0377907
0.052756
0.0456331
0.0479662
0.0614954
0.0514282
0.0949171
0.0772245
0.0646868
0.0629731
0.363792
0.0913548
0.0545516
0.0542859
0.0704863
0.107948
0.0684412
0.145423
0.0545888
0.0813775
0.0854058
0.475739
0.0764673
0.0450395
0.0394767
0.0641979
0.0255047
0.0211462
0.0589112
0.0533725
0.677625
0.0481892
0.0676922
0.0535406
0.0832444
0.0568711
0.0544468
0.095561
0.0397458
0.515345
0.0433778
0.048086
0.0583617
0.0546478
0.0542137
0.0842317
0.0503356
0.148672
0.0512211
0.081534
0.477186
0.0561923
0.0492802
0.113459
0.123818
0.0245783
0.0701857
0.0398454
0.0205348
0.0309683
0.0599184
0.23788
0.0928797
0.0449017
0.0548824
0.218244
0.0550181
0.567208
0.790644
0.123438
0.0444415
0.045743
0.255617
0.0283459
0.296007
0.0626415
0.484894
0.203571
0.0881609
0.0520642
0.192789
0.0455296
0.0454088
0.0527421
0.0454146
0.0880981
0.0401392
0.054778
0.0321938
0.118546
0.0833153
0.0180442
0.0360667
0.0322146
0.105774
0.0467999
0.123079
0.05539
0.652965
0.0432074
0.0571941
0.511425
0.102349
0.115447
0.0849006
0.132439
0.676034
1.15002
0.09458
0.047143
0.0559374
0.596742
0.0493271
0.106233
0.0775702
0.0678466
0.0467997
0.0597384
0.0203714
1.15957
0.591958
0.0346103
0.115076
0.0935964
0.076072
0.0698423
0.159704
0.154312
0.106513
0.0477495
0.0673252
0.142304
0.0665455
0.042494
0.0255852
0.042716
0.0356672
0.0570238
0.128783
0.0345924
0.0378555
0.0422235
0.0561226
0.0224116
0.0314524
0.0424449
0.0304631
0.0998276
0.0283166
0.0385019
0.0409458
0.0457262
0.0229389
0.0205425
0.0506299
0.0538548
0.0353318
0.04022
0.0665591
0.750302
0.106751
0.0447155
0.125446
0.0735457
0.064352
0.0699043
0.289845
0.0384773
0.896569
0.141763
0.564339
0.161739
0.12163
0.0186133
0.0354177
0.0560265
0.0246137
0.0862101
0.0434972
0.0382764
0.044616
0.0364614
0.0326676
0.0420487
0.0277267
0.0356628
0.033049
1.05507
0.0440428
0.0363147
0.0472181
0.0699314
0.104189
0.0427208
0.0627362
0.120785
0.0666079
0.10424
0.0473398
0.0863552
0.114738
0.465072
0.0770234
1.07726
0.0271805
0.0580231
0.0918975
0.119052
0.0526505
0.0245397
0.0406377
0.159013
0.0801392
0.0450511
0.117508
0.112023
0.161791
0.772991
0.100411
0.064325
0.102617
0.0779305
0.0307446
0.0372585
0.916194
0.154797
0.169779
0.197937
0.0992831
0.127906
0.141364
0.0471887
0.232148
0.205649
0.215444
0.209379
0.205594
0.223677
0.198155
0.198668
0.113719
0.090382
0.165001
1.01772
0.508605
1.11662
0.956785
0.209179
0.387347
0.549473
0.428759
0.0702229
0.843519
0.21678
0.448666
0.909337
0.678795
0.702045
1.25933
0.200417
1.27975
0.847767
0.195686
0.122686
0.97492
0.348453
0.723488
0.825199
0.161584
0.187227
0.912481
0.146093
0.121666
0.139829
0.853342
0.406424
1.13333
0.0959826
0.0806264
0.0700789
1.03844
0.298116
0.138807
0.271641
0.264346
0.223762
0.113723
0.0881079
0.271564
0.301449
0.0733942
0.103228
0.251415
0.109168
0.226825
0.0652051
0.10069
0.0624813
0.218841
0.104412
0.197385
0.0704509
0.10922
0.076849
0.0861692
0.252014
0.323461
0.94492
0.396584
0.41112
0.0604895
0.096692
0.0438416
0.0626389
0.0959027
0.0953962
0.114372
0.242628
0.341155
0.339405
0.646583
0.190097
0.580313
0.170724
0.140897
0.485823
0.0633528
0.0945473
0.11155
0.106488
0.104435
0.955345
0.765452
0.399202
0.288584
0.0959618
0.821117
0.710669
0.0439286
0.0939097
0.108182
0.107557
0.269622
0.294709
0.154789
0.861197
0.130187
1.00789
0.0900291
0.0789279
0.931718
1.0367
0.712129
1.01353
0.37718
0.104934
0.0200503
0.910508
1.01454
0.0586427
0.0928265
0.0479189
1.08441
0.167347
0.126951
0.757019
0.0876107
0.0728303
0.158837
0.64434
0.0901549
0.0689488
0.146071
0.815832
0.116279
0.149181
0.0709338
0.0870406
0.404963
0.954341
0.0470303
0.486642
0.440175
0.11936
0.0275769
0.406255
0.190382
0.121155
0.496284
0.482882
0.0737609
0.0799685
0.163901
0.0899659
0.0529772
1.33759
0.210227
0.0759143
1.12281
0.490235
0.020026
0.0433057
0.110536
0.0350943
0.0593089
0.0851054
0.143208
0.135591
1.01931
0.101303
1.22694
0.0568165
0.0858156
0.0270415
0.151631
0.232435
0.166192
0.106059
0.85213
0.908689
0.149321
0.484302
0.515909
0.715367
0.0356885
0.154527
0.859873
0.0740338
0.570678
0.0532737
0.0637844
0.0737894
0.314154
0.101665
0.0639187
0.274719
0.0657085
0.084609
0.0806459
1.1676
0.267954
0.855008
0.0375419
0.0162422
0.119058
0.141908
0.101808
1.09335
0.0577179
0.0750398
0.0828818
0.810004
0.0423944
0.512856
0.21797
0.134887
0.0335755
0.711815
0.645719
0.0834763
0.0731841
1.20429
0.125151
0.855273
0.0984471
0.270279
0.378213
0.106676
0.0825221
0.0351441
0.0907265
1.07305
0.12516
0.250138
0.434963
1.12795
0.365446
0.0542963
1.16147
0.0815711
0.0772362
0.0408376
0.0393106
0.0298996
0.0206371
0.0425227
0.448565
1.1303
0.05467
0.0959414
0.0610222
0.0557622
0.0298947
0.0293446
0.084279
0.11477
0.163478
0.11746
0.0247803
0.0482559
0.0551984
0.0673683
0.420928
0.0789081
0.911029
0.0535966
0.136706
0.0522656
0.0708261
0.169264
0.564136
0.0267653
0.127241
0.883862
0.155849
0.0504737
0.172564
1.18845
0.516417
0.0581355
0.0651835
0.0158585
0.0737085
0.055061
0.0757585
0.0485524
0.146977
0.994018
0.0576729
0.355607
0.122721
0.138697
0.0907518
0.15817
0.843004
0.0564741
0.142277
0.0879335
0.690233
0.095258
0.524172
0.0353247
0.121326
0.0279209
0.0208719
0.661508
0.0353372
0.0157428
0.14519
1.25947
0.0161153
0.0425537
0.0119018
0.0339575
0.0280071
0.131345
0.0385386
0.0259313
0.523589
0.138653
0.0290412
0.0577569
0.0381722
0.119723
0.151377
0.0407787
0.926027
0.563618
0.0258995
0.0533114
0.0580838
0.0248878
0.0825257
0.0346761
0.0501642
0.481375
0.200964
0.0587731
0.0271126
0.0312086
0.167198
0.383228
0.233187
0.0276608
0.10056
0.0625925
0.0640204
0.140304
0.06496
0.315004
0.523518
0.805451
0.015473
0.0346789
0.119201
0.0717017
0.0611599
0.078548
0.453374
0.047632
0.0501964
0.0552553
0.0423809
0.058422
0.0451965
0.498629
0.689786
0.0922677
0.227216
0.0370062
0.0254763
0.109773
0.0732262
0.0315334
0.025415
0.026105
0.697987
0.0459864
0.0517167
0.242976
0.737675
0.0145629
0.0597009
0.678745
0.0634305
0.243498
0.0502726
0.0230511
0.0654482
0.339268
0.660235
0.0478775
0.179983
0.163946
0.0362851
0.0377506
0.103238
0.0562751
0.080503
0.0527623
0.0574421
0.137548
0.0402348
0.188225
0.0660392
0.035894
0.281888
0.0984144
0.051236
0.233579
0.0215553
0.0724235
0.114971
0.609301
0.0318189
0.12924
0.155812
0.154508
0.305287
0.14499
0.83982
0.0817091
0.125969
0.788063
0.032217
0.0733874
0.0963863
0.0578208
0.0309252
0.0565516
0.301313
0.0299066
0.915368
0.0637024
0.0800134
0.0526353
0.0525564
0.0484796
0.153249
0.032348
0.087973
0.0497111
0.634146
0.203708
0.0316999
0.0704732
0.058667
0.0511256
0.646736
0.188347
0.0576615
0.0355273
0.388898
0.103595
0.0587002
0.0315887
0.0668155
0.272946
0.227145
0.250557
0.0644182
0.0755659
0.0458187
0.0602526
0.0847427
0.654319
0.189678
0.228559
0.410749
0.0906507
0.0539113
0.108548
0.0842216
0.111301
0.162942
0.0527894
0.0845607
0.0517495
0.147453
0.0266614
0.0973041
0.0929699
0.437765
0.041213
0.10221
0.0226081
0.11072
0.0538996
0.048255
0.0754634
0.0491918
0.0545012
0.612407
0.716663
0.788944
0.0596357
0.0848797
0.0668811
0.116906
0.250144
0.0564049
0.0515543
0.0752554
0.355163
0.0206393
0.622772
0.0906092
0.302219
0.0623833
0.0225986
0.0211007
0.0222647
0.0205349
0.025205
0.0243658
0.0256832
0.0267572
0.025682
0.0289818
0.0338522
0.0272651
0.027855
0.027636
0.057381
0.0263844
0.0247495
0.122943
0.0162949
0.129722
0.0334934
0.040803
1.09864
0.0938375
0.0957856
0.0555836
0.0270031
0.734368
0.0475195
0.0509147
0.0859395
0.0533371
0.106449
0.0391044
0.0727671
0.0996331
0.0514447
0.0875693
0.0569061
0.0497267
0.0875357
0.738749
0.409825
0.699855
0.668247
0.0889371
0.0397969
0.0867225
0.0535541
0.0664723
0.0916368
0.0860169
0.0660677
0.0557607
0.0597293
0.607265
0.0886524
0.0411233
1.2433
0.678992
0.566051
0.0606678
0.0644957
0.211625
0.0843615
0.139937
0.0740584
0.0790318
0.428419
0.0969056
0.0311587
0.065274
0.0463532
0.0419894
0.136464
0.0419779
0.0792928
0.0904599
0.0589424
0.0553538
0.370281
0.0467561
0.045622
0.197982
0.164743
0.175087
0.108515
0.185334
0.1047
0.250006
0.314188
0.0923198
0.0258184
0.753802
0.0540901
0.0451153
0.328804
0.547449
0.0206294
0.053121
0.370412
0.606098
0.0150711
0.0782695
0.0686126
0.0968089
0.124328
0.0489527
0.0112695
0.188251
0.0914404
0.059558
0.0539294
0.151978
0.71741
0.0537985
0.107799
1.10585
0.0876999
0.0376608
0.476971
0.612785
0.0459013
0.035804
0.0200544
0.0832069
0.0605847
0.0444526
0.873446
0.0932865
0.12836
0.0462345
0.0467044
0.0804131
0.058426
0.777388
0.0756121
0.101402
0.162275
0.0303174
0.201653
0.17272
0.0460869
0.0571608
0.554754
0.0260034
0.124202
0.703031
0.119644
0.0307084
0.0687554
0.470024
0.180493
0.0825232
0.727358
0.0284711
0.0406826
0.293204
0.318627
0.101224
0.0881672
0.0416688
0.0512138
0.0793224
0.557676
0.131914
0.0378808
0.0167374
0.0567104
0.0863989
0.0496434
0.285682
0.136686
0.061104
0.0483378
0.467409
0.0440775
0.0472954
0.038727
0.0378488
0.0813695
0.0329379
0.0212555
0.155964
0.0446735
0.0344004
0.0369815
0.033321
0.0811345
0.0416187
0.381416
0.0324472
0.0886212
0.0468602
0.264596
0.0349024
0.0404532
0.11721
0.0428125
1.20876
0.146648
0.0477537
0.0905459
0.0728021
0.0791168
0.0801423
0.231121
0.0133903
0.0925324
0.172257
0.057
0.0658976
0.0454515
0.0398415
0.0703062
0.0450028
0.0946074
0.047471
0.0317354
0.251275
0.0557052
0.0324795
0.511973
0.569323
0.0440864
0.150614
0.0286756
0.0346945
0.0867253
0.0416454
0.0746792
0.0414571
0.087256
0.628001
0.0482357
0.0453443
0.232146
0.287748
0.073337
0.0756499
0.124614
0.0582517
0.109965
0.0463006
0.0699791
0.0405686
0.0245908
0.0933228
0.0652027
0.575577
0.0740441
0.106375
0.0455951
0.0892121
0.0434147
0.055975
0.949575
0.605172
0.434066
0.0213288
0.23181
0.0463696
0.247994
0.277323
0.0727375
0.0529645
0.0566511
0.0392735
1.00711
0.196283
0.679166
0.0768204
0.102308
0.115819
0.0952068
0.757515
0.0494269
0.151234
0.205622
0.161229
0.0308292
0.126837
0.0603899
0.081593
0.0487735
0.184707
0.045811
0.0421605
1.27581
0.685576
0.0523838
0.0660446
0.0576813
0.0201228
0.0286472
0.0506549
0.125256
0.0612691
0.138332
0.0550011
0.0335445
0.187413
0.0583694
0.784869
1.14435
0.444621
0.976496
0.0493842
0.0607365
0.043078
0.0613778
0.440923
0.666629
0.0821958
0.975384
0.145189
0.091838
0.0551502
0.524988
0.137957
0.290256
0.190058
0.0494112
0.0868963
0.109678
0.185924
0.0810969
0.066502
0.23598
0.0227906
0.026744
0.0736863
0.523159
0.106674
0.0374197
1.30355
0.682075
0.568055
0.0722092
0.0479882
0.081715
0.058076
0.445858
0.183596
0.651197
0.0624547
0.0425977
0.173509
0.128675
0.0780932
0.045476
0.0830464
1.15693
0.621539
0.033749
0.743475
0.761673
0.174405
0.0109023
0.203493
0.0320247
0.574752
0.959802
0.0245773
0.0399028
0.240817
0.206723
0.107208
0.821939
0.00999366
0.0798019
0.133383
0.0447117
0.0410889
0.0446094
0.0426158
0.171436
0.0243617
0.269989
0.050352
0.731342
0.0512559
0.126645
0.204005
0.0558321
0.104802
0.108333
0.0260133
0.183717
0.0530541
0.659977
0.0428693
0.725368
0.0549191
0.0483186
0.214005
0.0489398
0.0591079
0.0712729
0.05775
0.0497821
0.0818718
0.403353
0.0410336
0.0721959
0.0562914
0.0352327
0.0458986
0.0580637
0.0685562
0.051847
0.187896
0.0623359
0.400164
0.0693775
0.0581628
0.357412
0.103626
0.198527
0.120134
0.0936982
0.0567961
0.0486338
0.0504877
0.0300564
0.0418203
0.10205
0.0512761
0.139051
1.20032
0.0114164
0.0553232
0.0688681
0.08725
0.0663238
0.0338596
0.0660481
0.0449603
0.24368
0.0550654
0.0353984
0.0402253
0.0703981
0.096451
0.0781553
0.201
0.082695
0.0516414
0.104247
0.0467749
0.094487
0.0502841
0.052685
0.0242953
0.30621
0.0695724
0.030225
0.0514383
0.0409038
0.197618
0.0365488
0.117038
0.0909451
0.711537
0.0714893
0.0573711
0.201194
0.0220357
0.116201
0.0455016
0.0961935
0.0860102
0.0520515
0.061607
0.0675073
0.0545154
0.0906879
0.0894215
0.126638
1.15142
0.644978
0.3062
0.0522507
0.0499256
0.0496324
0.0536141
0.214676
0.258503
0.0779078
0.0537897
0.0521401
0.0568206
0.0716269
0.0620811
0.0542313
0.0418382
0.0849106
0.0498678
0.0504454
0.092319
0.0474008
0.0654245
0.0695272
0.0607399
0.197474
0.186117
0.0459633
0.0765433
0.0869691
0.0725772
0.0422046
0.583438
0.0200876
0.111345
0.646085
0.639685
0.0509499
0.10615
0.560634
0.0483254
0.384964
0.0958108
0.120772
0.29901
0.136579
0.126058
0.061618
)
;

boundaryField
{
    frontAndBack
    {
        type            empty;
    }
    wallOuter
    {
        type            kqRWallFunction;
        value           nonuniform List<scalar> 
102
(
0.0105843
0.0105843
0.0496463
0.0312076
0.0119899
0.0203714
0.0271805
0.0298947
0.0279209
0.0208719
0.0353372
0.0157428
0.0425537
0.0119018
0.0339575
0.0280071
0.0385386
0.0577569
0.0580838
0.0587731
0.0276608
0.015473
0.0346789
0.0370062
0.0254763
0.0362851
0.0377506
0.032217
0.0565516
0.041213
0.0226081
0.0225986
0.0211007
0.0222647
0.0205349
0.025205
0.0243658
0.0256832
0.0267572
0.025682
0.0289818
0.0338522
0.0272651
0.027855
0.027636
0.0263844
0.0247495
0.0334934
0.040803
0.0533371
0.0391044
0.0514447
0.0497267
0.0557607
0.0597293
0.0411233
0.0606678
0.0644957
0.0463532
0.0419894
0.0540901
0.0206294
0.0150711
0.0112695
0.0537985
0.0200544
0.0467044
0.0460869
0.0571608
0.0406826
0.0416688
0.0512138
0.0167374
0.0567104
0.0496434
0.0440775
0.0329379
0.0344004
0.0416187
0.0428125
0.0477537
0.0133903
0.0450028
0.047471
0.0440864
0.0414571
0.0453443
0.0405686
0.0434147
0.0421605
0.0227906
0.026744
0.0109023
0.0245773
0.00999366
0.0446094
0.0489398
0.0410336
0.0352327
0.0114164
0.0338596
0.0449603
)
;
    }
    inlet
    {
        type            fixedValue;
        value           nonuniform 0();
    }
    outlet
    {
        type            zeroGradient;
    }
    wallInner
    {
        type            kqRWallFunction;
        value           nonuniform List<scalar> 
138
(
0.297512
0.0464311
0.101086
0.127643
0.086837
0.176923
0.234324
0.117959
0.110181
0.0458067
0.125999
0.0377191
0.0320704
0.0749041
0.0427608
0.046339
0.0319096
0.0211779
0.0288446
0.0377907
0.052756
0.0211462
0.0492802
0.0245783
0.0701857
0.0398454
0.0205348
0.0309683
0.296007
0.0180442
0.0360667
0.05539
0.042494
0.0255852
0.042716
0.0356672
0.0570238
0.128783
0.0345924
0.0378555
0.0422235
0.0561226
0.0224116
0.0314524
0.0424449
0.0304631
0.0998276
0.0283166
0.0385019
0.0409458
0.0457262
0.0229389
0.0205425
0.0506299
0.0538548
0.0353318
0.04022
0.0384773
0.0186133
0.0354177
0.0560265
0.0246137
0.0862101
0.0434972
0.0382764
0.044616
0.0364614
0.0326676
0.0420487
0.0277267
0.0356628
0.033049
0.0363147
0.0245397
0.0406377
0.0307446
0.0372585
0.0471887
0.508605
0.428759
0.161584
0.406424
0.0700789
0.113723
0.0881079
0.0861692
0.396584
0.41112
0.0438416
0.399202
0.288584
0.0439286
0.0200503
0.190382
0.020026
0.0433057
0.314154
0.0162422
0.250138
0.0206371
0.0425227
0.0247803
0.0158585
0.14519
0.0161153
0.233187
0.047632
0.026105
0.0145629
0.0230511
0.188225
0.233579
0.0215553
0.0578208
0.0497111
0.0527894
0.0206393
0.0162949
0.0270031
0.0311587
0.197982
0.164743
0.0451153
0.201653
0.0284711
0.0212555
0.057
0.0454515
0.0346945
0.0582517
0.0308292
0.116201
0.384964
0.0958108
0.29901
0.136579
0.126058
0.061618
)
;
    }
    procBoundary2to0
    {
        type            processor;
        value           nonuniform List<scalar> 
42
(
1.34048
1.34048
0.0491348
0.0424696
0.3787
1.15521
0.0511157
0.0511157
0.226202
0.0981231
0.714944
0.714944
0.546683
0.822791
0.95076
0.88471
1.19382
0.085034
0.138653
0.256646
0.202358
0.0737621
0.0737621
0.256011
0.202358
0.0739134
0.460495
0.0651901
0.460495
1.39396
1.28947
0.0591391
0.0567082
0.0571902
0.0614925
0.0424696
1.19382
0.0227994
0.771983
0.0573302
0.0573302
0.0657745
)
;
    }
    procBoundary2to1
    {
        type            processor;
        value           uniform 0.321516;
    }
    procBoundary2to3
    {
        type            processor;
        value           nonuniform List<scalar> 
29
(
0.166064
0.1934
0.0759376
0.0794749
0.213923
0.127222
0.0982476
0.191853
0.211293
0.20251
0.177267
0.251681
0.115365
0.123055
0.0899865
0.142884
0.174226
0.174226
0.1934
0.123055
0.105493
0.162467
0.0395084
0.196117
0.0673933
0.117643
0.211293
0.297765
0.251681
)
;
    }
}


// ************************************************************************* //
