/*--------------------------------*- C++ -*----------------------------------*\
| =========                 |                                                 |
| \\      /  F ield         | OpenFOAM: The Open Source CFD Toolbox           |
|  \\    /   O peration     | Version:  v1912                                 |
|   \\  /    A nd           | Website:  www.openfoam.com                      |
|    \\/     M anipulation  |                                                 |
\*---------------------------------------------------------------------------*/
FoamFile
{
    version     2.0;
    format      ascii;
    class       volScalarField;
    location    "0.17";
    object      epsilon;
}
// * * * * * * * * * * * * * * * * * * * * * * * * * * * * * * * * * * * * * //

dimensions      [0 2 -3 0 0 0 0];


internalField   nonuniform List<scalar> 
1466
(
2.14124
1.85129
1.02445
2.26417
2.04472
1.8262
7.24047
1.5537
3.37914
5.51021
0.706919
3.01246
0.155842
0.997643
0.471342
1.69258
0.410198
1.97135
2.2629
1.35013
0.312251
3.24091
3.82796
1.94294
0.909956
0.357486
0.691048
2.18319
4.44525
1.99611
1.43615
1.51477
3.33634
1.35395
1.97669
0.476699
0.50493
0.260198
3.47034
3.44636
3.14906
1.42187
2.87033
1.25104
2.71636
3.05221
0.267831
2.74261
1.29621
0.293604
0.73448
2.0863
2.42163
1.3279
4.35847
1.22741
0.284858
2.33639
0.535778
1.35968
1.9949
1.57878
1.81159
1.56579
1.56323
2.04634
1.15668
0.34026
2.11028
3.67032
0.278531
1.79507
0.257575
1.52859
0.392027
6.16759
1.56503
1.66652
4.21838
1.18544
0.313705
1.70017
0.375091
1.13874
0.257148
0.276287
0.256627
1.51935
1.33568
2.22833
1.97465
0.416806
1.20979
2.1619
0.600715
0.292214
1.93027
0.949962
2.37003
2.15933
3.85058
2.28715
0.947452
2.30545
0.293514
3.4077
0.377273
0.339656
1.64431
0.768758
0.344543
0.311889
6.03388
0.259586
0.202618
7.62313
1.49752
1.19907
2.35082
2.39537
0.341242
1.53522
0.619428
1.43973
1.33798
1.09823
0.58352
2.16613
1.45857
1.50821
0.733438
1.65367
1.54078
1.32368
0.334809
1.03875
1.58401
0.26312
2.39449
2.53114
2.80727
0.438547
1.60111
0.861719
2.55055
2.31005
2.21056
2.0803
1.05902
0.256824
1.52358
0.691373
2.07478
1.65553
1.62382
0.512968
1.78511
24.1452
0.443494
2.00131
2.4227
2.25598
1.64058
0.311333
2.07318
0.954293
1.30343
2.76847
1.53272
1.36118
0.275318
0.273217
0.674485
0.813665
0.50513
1.52459
1.88756
1.38962
0.541653
1.28129
1.48402
0.304843
0.917189
1.54076
1.48031
1.05593
0.360922
7.36679
0.436721
2.42858
3.42752
2.97582
2.12929
1.58744
0.285373
1.68275
2.23654
0.716542
0.666607
0.720947
11.5531
0.289406
0.312768
1.63951
0.761743
1.49492
0.329403
2.37191
0.525028
0.625237
0.687453
29.3517
0.30378
0.266298
2.40214
0.397758
0.623136
0.48459
1.23729
1.60785
9.42265
1.4973
1.30139
0.266673
0.687897
0.270421
0.71003
1.18161
0.4846
2.03578
0.267428
1.56354
1.38506
0.398133
0.419431
0.82139
0.397456
1.61987
0.458585
0.880572
2.65419
0.558841
0.40081
1.75103
1.71283
0.580065
0.324349
0.469661
0.565873
0.545231
1.56938
0.603486
1.35122
1.24124
1.29319
0.605887
0.588054
1.04079
6.48177
6.94882
0.268237
0.263149
0.798774
1.84
2.47309
0.404781
4.24708
4.32046
0.286711
1.66758
1.12259
1.4779
0.26993
0.556798
0.260244
0.647067
1.23558
1.59298
2.10959
1.60153
0.790887
0.596318
0.505002
0.478048
0.33856
0.270453
0.760998
0.380294
4.38441
2.27419
0.270854
5.50599
1.934
7.87998
1.3347
0.316108
7.6408
6.88121
0.370037
0.810033
0.524715
27.4489
0.733299
1.59782
0.531668
0.819111
0.831073
0.59965
0.499352
6.43247
2.56609
0.490146
0.289612
1.9314
1.09742
0.28456
9.27507
0.338675
2.51781
0.592481
0.276458
0.845104
0.964201
2.0283
1.44104
0.72492
0.333126
0.387133
0.355013
0.492191
0.396775
1.04921
0.317415
1.47267
1.03887
1.8516
0.445093
0.413024
13.7473
0.312657
0.432749
0.597083
0.802108
0.432162
0.537713
0.291713
2.20919
0.417702
0.646755
6.21285
1.49162
0.270891
1.53546
0.58079
0.544836
0.287185
19.0094
2.62792
6.03033
0.442869
3.26494
1.00425
0.768512
1.57911
3.14193
0.408769
0.366808
0.315791
0.43721
0.725257
0.287725
0.383888
5.16713
1.5163
1.38688
0.497022
0.810635
8.65345
0.261588
0.547468
0.266471
1.38167
1.94413
0.379127
0.98499
0.959147
0.331783
0.286819
0.338906
0.495852
0.681333
0.783104
0.661288
9.82322
0.651893
0.586471
0.664409
0.284909
0.280986
0.383197
18.8365
0.278199
0.663104
0.274492
2.82475
0.424044
1.12449
5.61969
0.853184
0.430098
0.30037
0.873355
0.511099
3.37619
8.63226
1.56708
1.11852
1.03257
0.642563
1.08487
1.24146
0.468839
2.47434
4.50568
2.40873
3.14418
4.42235
3.19413
6.13167
6.06474
2.44089
0.297624
1.59889
20.7987
7.42017
12.6472
9.55902
1.45578
2.51763
1.98621
46.0478
0.430127
26.6385
2.70236
2.0171
7.89644
1.95384
2.23057
7.82538
1.3838
6.95829
6.14132
2.16371
1.17976
11.1874
2.56203
2.68624
5.1297
2.47114
1.91168
9.53439
1.64581
1.44869
1.63382
26.8254
9.61917
13.6651
0.32977
1.37221
0.849393
20.8015
2.70294
2.10945
2.55186
1.43583
1.78405
1.21789
0.833898
1.33736
2.43668
0.929243
0.401345
1.59828
0.5587
1.13171
0.598306
0.681941
0.566624
1.46829
2.38493
1.30393
0.388965
0.772864
0.370245
2.99652
1.41565
2.56628
12.9027
17.6233
29.6088
0.393351
0.910213
3.1501
0.898734
0.301366
0.671359
2.47622
2.34445
0.961889
2.17075
1.64076
1.79313
1.60928
2.4867
1.94487
1.61531
0.383197
0.840601
1.54564
1.99482
1.87347
9.82656
18.8293
5.85527
5.09643
0.748808
23.6572
13.8713
0.560618
0.300682
0.42435
0.744704
1.76396
1.30747
2.64346
14.3319
2.37446
19.9404
0.282421
0.852077
17.5361
12.7434
2.45324
14.7705
1.6599
1.96261
0.541518
9.47931
11.2354
0.510182
0.876534
0.29431
15.4594
1.4935
0.91508
3.40937
4.79143
0.2947
1.1157
2.15892
0.284412
0.889029
1.17352
8.88175
2.63287
1.49692
0.281367
0.825117
1.32547
9.47358
0.377173
2.5891
1.08857
2.71131
1.0943
0.88427
1.73965
0.281967
1.37076
0.982053
0.916801
0.554111
0.812262
0.677524
0.27024
7.43776
2.59055
0.738966
8.94091
0.914073
1.76288
2.1006
2.66337
0.851196
0.516605
0.807656
0.910014
1.49585
10.2416
0.739329
7.58969
0.715973
0.796227
0.601315
0.29641
1.33425
0.826271
0.284525
7.2641
8.53374
1.47976
6.2091
1.07248
6.13226
0.633346
0.280688
8.76027
1.23329
4.51524
0.739215
0.623208
0.290165
2.74146
1.55447
0.631351
0.836204
0.407179
0.742746
0.310731
11.3032
0.702983
8.92626
0.897939
2.29923
0.740754
1.53272
0.672773
13.3873
0.687152
0.702984
0.336493
11.9917
0.30775
2.3643
0.296184
2.04988
0.753429
3.95379
7.82871
0.366797
0.663385
9.35339
1.58566
6.51965
0.648929
0.929601
2.29425
0.810126
0.397069
0.779229
1.54351
11.9141
2.59612
1.76995
1.72652
13.04
0.669067
0.326507
10.3906
1.46173
0.421044
1.04626
0.284456
0.642379
1.62109
2.0822
1.11153
11.8332
0.510508
1.02996
0.7757
0.480647
0.378826
0.660566
0.832875
0.278049
2.03712
0.280036
0.664811
1.9381
1.60401
0.438046
2.25028
0.541248
20.7969
0.502536
1.55093
0.280862
1.07522
1.68978
1.37686
0.601343
1.55364
11.193
1.50115
1.53374
1.53962
10.3937
1.20869
0.762716
0.560335
0.729642
2.08277
0.807801
0.68905
1.83503
1.4915
8.98602
0.458759
1.23721
0.702972
1.12979
0.776321
1.46946
7.76179
0.271069
0.737246
0.857121
7.45742
2.33033
0.874913
1.92714
0.805129
0.500866
0.441931
3.89234
0.577085
0.382682
0.772111
7.08483
2.01223
0.689707
0.426236
1.52665
3.08382
0.364743
0.834605
0.669143
6.21315
1.73915
0.647919
2.52974
0.46756
1.32726
1.15179
2.25819
6.24377
1.74003
1.06083
0.599228
1.69907
1.18627
1.36796
0.923721
1.4097
1.30358
6.98115
2.12418
0.656619
0.581452
1.06305
3.70687
2.78905
0.352784
1.57197
0.407421
0.750641
1.59392
0.657325
1.77073
4.02397
9.99448
0.307263
0.753791
1.55706
0.882036
0.687076
0.281144
3.11809
2.2898
1.80246
0.922616
0.739502
1.62545
1.7185
1.2918
6.58276
0.275841
2.60811
1.369
2.40831
0.743197
0.711036
0.581648
0.972683
0.639317
2.55069
0.271384
0.599703
1.02071
5.12187
0.646992
0.383099
2.84984
1.35006
2.13875
2.17715
0.680534
1.82497
1.90953
4.93095
0.47882
0.65708
1.77699
0.499023
0.55713
1.90856
0.271692
0.289787
0.931902
0.459929
1.02701
0.515907
0.379396
0.555647
1.2257
1.48175
1.5055
0.810505
27.778
0.396589
0.292599
2.87278
1.27211
0.283339
1.94404
1.42972
1.41248
0.6661
1.88026
8.09895
1.38091
0.895498
5.16554
0.3856
0.355429
1.37441
0.371987
1.05237
1.34661
2.34943
0.293524
12.9783
1.57649
0.87252
0.931131
2.24109
0.434775
0.686364
0.580735
0.496367
0.515485
3.15354
1.1346
0.566834
0.275047
1.51524
1.75242
4.65017
0.841003
1.66329
0.704345
1.54554
0.343314
2.20237
0.614704
1.75231
1.11208
0.66256
1.81266
0.646611
0.277708
0.591156
0.679377
0.624728
7.49079
0.297511
0.346466
2.01305
2.03472
1.57021
0.540914
1.19849
2.65225
0.641284
0.358437
0.284035
0.334542
1.56178
0.666189
0.907085
0.271202
0.824573
0.727493
1.28221
0.62855
3.02007
1.47321
1.746
0.759753
1.09346
1.31238
1.35608
24.2652
4.22514
1.41899
0.369517
0.408999
0.98661
0.814374
1.38282
1.31935
0.796279
0.760529
0.434756
6.72996
0.294638
0.664976
0.449747
0.906481
0.804251
0.960784
0.777996
3.14605
3.46216
2.99621
3.08414
1.00419
3.15569
3.01768
1.01355
0.973107
0.889608
1.59552
0.796695
0.716799
3.04001
0.607435
2.59022
0.397529
2.7988
9.82565
1.27573
1.06878
2.25837
0.656015
2.98925
2.13637
0.850212
0.416434
2.3466
0.68228
1.65223
0.371417
2.33055
2.41454
0.929115
0.774203
2.58766
1.2955
3.43792
1.59624
5.01004
3.09024
0.338728
0.840117
7.29619
0.963208
0.608566
2.7049
1.65882
2.89409
2.30719
2.44572
2.49205
0.294894
2.0082
6.8495
1.87707
7.07229
2.31365
2.34041
1.76437
0.398385
2.22755
1.14334
1.28874
4.64437
1.00377
2.84279
0.417592
2.46868
2.05264
1.19225
0.294906
2.17424
0.958694
0.493975
0.362115
0.930801
0.280331
2.23231
3.93229
2.44634
1.43169
2.45166
5.0191
1.21207
2.40151
2.3522
0.312865
0.597567
4.79545
3.24947
2.11266
0.804253
7.14761
0.490012
0.385152
2.13437
4.41302
0.472721
0.328117
2.37366
0.893367
0.711446
2.09506
0.233667
0.654302
0.960041
0.412523
0.483962
0.279683
3.09681
1.06484
1.19567
12.1216
0.295154
0.38477
32.713
8.05682
2.32391
0.539507
0.529424
0.509426
1.02079
0.337535
7.81076
2.2787
2.92809
0.31209
3.66646
0.887447
0.587449
7.68227
0.38922
2.40926
1.42062
0.719601
2.59559
5.35756
0.654744
3.33916
2.68756
0.875134
3.01831
7.61095
3.03883
0.626798
0.425206
2.72123
1.623
0.300303
8.38851
4.0032
1.83002
2.5325
0.586767
2.77818
0.302659
1.77891
3.65543
0.271602
1.14091
0.287894
0.295795
0.428329
2.96508
2.28949
2.42963
0.544603
0.712615
0.274347
1.51147
2.35371
2.15541
2.29783
2.37541
0.512123
2.30001
0.385137
0.648786
0.792427
0.514504
0.425658
0.315732
9.45162
0.287493
3.67819
1.9688
0.277463
18.1007
0.274793
0.622596
0.286605
12.4658
1.83678
1.99855
8.1603
0.282971
2.44109
0.717482
0.533482
0.297392
0.420707
1.18375
0.340733
1.91468
0.606197
0.350135
2.09664
2.27901
0.269051
0.946369
0.911316
2.33513
1.13424
0.294315
28.06
0.658017
0.684443
0.881019
5.18789
3.61066
0.855283
1.63342
2.82362
1.84006
0.598653
0.273814
1.93174
0.401331
6.23145
0.661804
2.43429
1.16687
1.75202
1.65809
2.13932
2.58932
0.358597
2.01011
1.50486
2.32857
0.809162
0.526137
2.10054
1.97737
1.02346
1.66254
0.68793
0.27981
1.09289
2.01356
0.470627
6.78252
1.45146
0.77145
0.415717
3.28479
0.286691
0.339288
3.83226
0.271511
1.38988
1.14144
0.256858
7.81322
0.292068
8.42887
0.527706
0.302164
0.280487
1.93016
8.89245
0.312478
0.800784
0.645996
1.1045
4.04733
4.9014
1.7176
1.64934
0.290971
0.285247
2.26137
1.98435
7.15371
2.11533
1.76535
0.33666
3.71278
0.321668
1.66767
1.43568
1.67978
0.588387
1.72231
1.969
1.01324
6.47033
1.55136
8.20727
7.56711
0.735939
7.16583
0.800506
0.85062
0.954952
0.302468
1.65574
5.28495
0.732288
16.2304
0.975642
0.949102
0.320412
28.6726
0.909942
0.421738
4.07577
0.303246
0.336766
1.72751
1.37022
0.838728
0.462107
3.06557
4.23615
1.49026
0.402636
0.858755
8.98103
0.323833
6.7567
2.61626
3.22956
0.422355
0.268225
0.61018
0.505018
1.78532
3.49272
5.97265
1.17716
1.00843
1.34981
0.992677
2.01541
0.901899
2.27493
6.53301
2.13091
1.34686
5.91936
3.9815
0.819502
0.255843
0.647903
2.34572
1.0449
16.0246
0.491762
1.92034
0.32025
1.82019
0.953694
20.9334
0.580609
0.671319
2.71834
1.98409
1.75385
2.3181
0.278959
0.625804
0.926517
23.8062
0.287342
6.6104
0.277321
14.2407
1.94279
0.362865
2.60601
2.07508
0.86921
4.20348
0.399401
27.3517
1.67655
7.23564
0.362608
3.7275
3.62998
0.845261
0.632705
1.16208
0.781233
1.86632
1.66235
1.77797
1.90753
0.983542
0.377245
0.450188
0.31965
0.314413
1.1695
1.06135
0.734624
2.41097
0.746815
1.09939
0.444402
2.22649
2.11638
4.77219
0.28285
0.954546
0.44486
2.08683
1.55102
1.16806
0.272087
1.89931
0.434239
1.69859
9.61655
0.284755
0.283808
8.38743
0.41005
1.35792
0.408339
0.443681
0.785398
0.723552
1.23689
0.892106
0.258801
0.635506
1.51985
0.270187
5.54842
1.22062
1.89224
2.27831
0.294829
1.81053
0.432418
1.51845
1.00086
1.59963
0.271528
0.315862
1.21618
0.863123
1.76135
0.286393
3.03062
2.0824
7.67405
0.400859
2.12148
2.52407
0.332987
4.91089
2.34783
1.20265
1.36831
1.40363
1.62206
0.27274
1.93688
1.26113
0.276281
1.7988
6.85553
1.77332
1.30563
1.23906
0.926766
1.39198
0.516923
1.76529
2.24008
1.08064
0.789566
0.756863
1.99501
2.05302
0.459474
2.3817
2.15733
1.96649
1.60287
2.20511
1.26004
1.66258
1.72085
2.02268
0.827763
1.68388
1.56599
1.15408
0.499503
2.22559
0.462794
0.340201
29.7104
0.38193
2.19066
4.8684
5.72217
1.54668
1.42094
4.12195
0.861514
6.18257
1.18858
2.51512
2.86732
6.26731
3.14471
2.81941
)
;

boundaryField
{
    frontAndBack
    {
        type            empty;
    }
    wallOuter
    {
        lowReCorrection 0;
        type            epsilonWallFunction;
        value           nonuniform List<scalar> 
102
(
0.155842
0.155842
3.82796
0.392027
0.202618
0.499352
0.651893
0.378826
0.500866
0.441931
0.577085
0.382682
0.689707
0.426236
1.52665
3.08382
0.834605
2.52974
1.69907
2.12418
0.352784
0.307263
0.753791
1.369
2.40831
0.499023
0.55713
0.3856
1.34661
0.727493
0.62855
0.906481
0.804251
0.960784
0.777996
3.14605
3.46216
2.99621
3.08414
1.00419
3.15569
3.01768
1.01355
0.973107
0.889608
0.796695
0.716799
0.397529
2.7988
2.3466
1.65223
2.41454
2.58766
2.30719
2.44572
2.0082
2.31365
2.34041
2.46868
2.05264
3.24947
0.490012
0.472721
0.233667
1.06484
0.529424
3.66646
0.654744
3.33916
1.83002
1.77891
3.65543
0.428329
2.96508
2.42963
2.15541
0.385137
0.425658
3.67819
1.99855
2.44109
0.340733
0.911316
1.13424
3.61066
1.93174
2.43429
0.809162
2.01356
1.98435
4.23615
1.49026
0.255843
0.491762
0.580609
2.3181
0.845261
1.90753
0.450188
0.284755
0.408339
0.785398
)
;
    }
    inlet
    {
        type            fixedValue;
        value           nonuniform 0();
    }
    outlet
    {
        type            zeroGradient;
    }
    wallInner
    {
        lowReCorrection 0;
        type            epsilonWallFunction;
        value           nonuniform List<scalar> 
138
(
0.706919
0.410198
4.44525
1.99611
2.0863
2.42163
1.3279
4.35847
1.57878
0.416806
3.85058
2.30545
0.619428
2.80727
0.438547
2.31005
2.21056
2.76847
2.42858
3.42752
2.97582
0.48459
0.40081
0.580065
0.324349
0.469661
0.565873
0.545231
2.47309
0.596318
0.505002
0.380294
2.0283
1.44104
0.72492
0.333126
0.387133
0.355013
0.492191
0.396775
1.04921
0.317415
1.47267
1.03887
1.8516
0.445093
0.413024
13.7473
0.312657
0.432749
0.597083
0.802108
0.432162
0.537713
0.291713
2.20919
0.417702
2.62792
1.57911
3.14193
0.408769
0.366808
0.315791
0.43721
0.725257
0.287725
0.383888
5.16713
1.5163
1.38688
0.497022
0.810635
0.547468
0.383197
18.8365
0.511099
3.37619
0.468839
7.42017
46.0478
2.47114
9.61917
0.849393
1.21789
0.833898
2.99652
17.6233
29.6088
3.1501
5.85527
5.09643
0.560618
0.541518
1.73965
1.76288
2.1006
2.74146
2.29923
1.76995
1.62109
2.0822
0.664811
0.729642
0.772111
2.01223
2.78905
2.2898
0.639317
0.646992
0.680534
0.379396
27.778
0.396589
0.371987
0.515485
0.358437
0.434756
0.607435
0.656015
2.84279
3.93229
2.44634
2.11266
2.59559
4.0032
0.648786
0.350135
2.27901
2.82362
0.358597
4.04733
4.91089
6.18257
1.18858
2.86732
6.26731
3.14471
2.81941
)
;
    }
    procBoundary2to0
    {
        type            processor;
        value           nonuniform List<scalar> 
42
(
6.80716
6.80716
1.97726
1.68992
10.1839
6.50481
2.05158
2.05158
2.72569
0.828548
24.4773
24.4773
29.293
13.4059
9.10451
5.8022
7.47558
0.611604
1.32788
1.54527
1.48591
0.507077
0.507077
1.90129
1.48591
0.354168
2.96238
0.386589
2.96238
7.35315
7.8653
0.510325
0.65651
0.735561
0.79282
1.68992
7.47558
2.49162
4.41823
1.5928
1.5928
0.919247
)
;
    }
    procBoundary2to1
    {
        type            processor;
        value           uniform 1.37052;
    }
    procBoundary2to3
    {
        type            processor;
        value           nonuniform List<scalar> 
29
(
1.54105
1.89434
5.01165
4.78094
0.796698
1.85937
2.03004
1.3699
3.56293
3.2888
1.61165
1.20348
1.95813
4.05563
1.95308
8.66977
7.84899
7.84899
1.89434
4.05563
2.2628
6.33497
3.73568
4.09866
2.03502
5.31217
3.56293
0.964674
1.20348
)
;
    }
}


// ************************************************************************* //
