/*--------------------------------*- C++ -*----------------------------------*\
| =========                 |                                                 |
| \\      /  F ield         | OpenFOAM: The Open Source CFD Toolbox           |
|  \\    /   O peration     | Version:  v1912                                 |
|   \\  /    A nd           | Website:  www.openfoam.com                      |
|    \\/     M anipulation  |                                                 |
\*---------------------------------------------------------------------------*/
FoamFile
{
    version     2.0;
    format      ascii;
    class       volScalarField;
    location    "0.17";
    object      nut;
}
// * * * * * * * * * * * * * * * * * * * * * * * * * * * * * * * * * * * * * //

dimensions      [0 2 -1 0 0 0 0];


internalField   nonuniform List<scalar> 
1466
(
0.000853463
0.000688888
0.000649143
0.00079924
0.000677083
0.000528865
0.00107774
0.00107927
0.00138445
0.00126228
0.000301434
0.0013288
0.000118205
0.000445365
0.00076684
0.000709546
0.00013551
0.000857426
0.000942725
0.000565134
0.000823334
0.000911272
0.000420641
0.000727121
0.000468779
0.000826192
0.00107259
0.00177839
0.000634591
0.000481603
0.0010068
0.000664681
0.000998163
0.000671692
0.000963518
0.000724271
0.000675101
0.000631338
0.00144357
0.00083082
0.00138683
0.00145738
0.00118266
0.000980418
0.00183213
0.000993163
0.000752435
0.000542063
0.00137859
0.00081245
0.000879084
0.00049942
0.000506869
0.000357801
0.000648145
0.00133829
0.00039966
0.00148009
0.000814143
0.0013858
0.000686823
0.000478071
0.000672353
0.000532037
0.000962039
0.00078654
0.001323
0.000834337
0.000842072
0.00088715
0.000763954
0.000756138
0.00051196
0.000707079
0.000159572
0.00143806
0.000695422
0.000754581
0.000991041
0.00129976
0.000512685
0.000612179
0.000764457
0.00128969
0.000600445
0.000801491
0.000604254
0.00104524
0.000694349
0.000945769
0.000753417
0.000253088
0.00127923
0.000774762
0.000948277
0.000685833
0.000915051
0.00107818
0.000918766
0.000753014
0.000713791
0.00180182
0.000845696
0.00046254
0.000721503
0.00125258
0.000838854
0.000749678
0.000911871
0.000580208
0.000611523
0.00060239
0.000887122
0.000678835
0.000143581
0.00245669
0.000329827
0.000404792
0.000949837
0.00165459
0.000730047
0.000898318
0.000306871
0.00105723
0.000719055
0.00121429
0.000628586
0.000453001
0.00138599
0.00098136
0.00107151
0.000689298
0.000854124
0.00138476
0.000865215
0.00121868
0.0015425
0.000673538
0.00179177
0.000427779
0.000587472
0.000250256
0.00142468
0.00110131
0.00182315
0.000399
0.000403387
0.00068317
0.00126679
0.000553169
0.00141356
0.00070322
0.000937976
0.00102494
0.000724829
0.000797249
0.000777123
0.00162552
0.00091142
0.000762081
0.00184923
0.000777126
0.000906418
0.000704061
0.00173625
0.00116494
0.000902465
0.000381104
0.000753138
0.00126765
0.000685202
0.000798914
0.000614318
0.00114142
0.000914984
0.000993796
0.00166964
0.00138498
0.000758121
0.00132639
0.000869995
0.000792004
0.00113086
0.000742587
0.00103713
0.0004095
0.00080261
0.00238521
0.000765636
0.000393994
0.00035574
0.000347442
0.000788706
0.000955456
0.00077364
0.000742409
0.00174545
0.000707931
0.000589479
0.00048567
0.00135935
0.00084651
0.000734933
0.000759742
0.00066089
0.0014546
0.000801297
0.000710787
0.000675407
0.000542217
0.000777685
0.00165923
0.000859887
0.00077986
0.000939944
0.000792325
0.000977957
0.000240694
0.000493784
0.000753783
0.00134281
0.0009068
0.000671267
0.000766159
0.00106295
0.000797508
0.00042305
0.000659892
0.00078178
0.00107457
0.000763687
0.00104736
0.000639236
0.000898941
0.000772712
0.000676428
0.000917746
0.0007132
0.000944173
0.000524005
0.00122065
0.00096219
0.000264973
0.00161972
0.00158451
0.000260637
0.000279392
0.000250336
0.000255445
0.000256161
0.000644434
0.000854468
0.00137255
0.00102839
0.000651392
0.000872172
0.00048469
0.000844823
0.00237766
0.00156715
0.000794497
0.000749064
0.000789558
0.000808234
0.000493117
0.00062778
0.00156874
0.00105815
0.00083014
0.000750891
0.000733007
0.000888558
0.00077239
0.000427736
0.000713835
0.00106408
0.00102701
0.00073146
0.000571495
0.00151903
0.000689015
0.000262186
0.000253361
0.000575831
0.000854892
0.00069118
0.00100033
0.000304189
0.00130776
0.000515285
0.000810004
0.00181842
0.00136855
0.00142675
0.00133046
0.000869108
0.00220014
0.00237612
0.000917586
0.000392979
0.000498151
0.00146497
0.000484823
0.00127554
0.000746894
0.000665986
0.000625435
0.0010252
0.000173291
0.00237183
0.00119179
0.000871056
0.000849063
0.00130915
0.00124333
0.000787498
0.00133348
0.000617723
0.00160768
0.000659588
0.000818452
0.0011325
0.0011246
0.000365535
0.000320235
0.000301458
0.000234118
0.000259226
0.000261396
0.000317473
0.000207967
0.000302492
0.000245711
0.000444463
0.000282362
0.000348044
0.000171717
0.000353142
0.000644192
0.000251076
0.000302644
0.000339265
0.00029236
0.000243561
0.000348786
0.000261666
0.000504309
0.00024766
0.000655554
0.00144092
0.00142439
0.000805333
0.00146586
0.00103559
0.00100776
0.000812311
0.00159142
0.000443028
0.00227308
0.000887439
0.00132049
0.001224
0.00108119
0.00047134
0.000434306
0.000335363
0.000232371
0.000252693
0.000327056
0.00041583
0.000249504
0.000237985
0.000679304
0.000325185
0.000307397
0.000222754
0.000296535
0.00215005
0.000722045
0.000237384
0.00067852
0.00115549
0.00145459
0.000803981
0.00103024
0.00100617
0.000374188
0.000839235
0.00087858
0.000555144
0.000908419
0.000802484
0.00103447
0.00226774
0.000187794
0.000625607
0.0010293
0.000629742
0.000709211
0.000194812
0.000836646
0.000730084
0.00102262
0.000812719
0.0012086
0.000876344
0.00121262
0.0022285
0.000796467
0.000686675
0.000842048
0.000993766
0.000214446
0.000422507
0.00202998
0.00139032
0.00120785
0.00112196
0.000953431
0.00121144
0.00123476
0.000286329
0.000841121
0.000987373
0.000683417
0.000684577
0.00114197
0.000908436
0.00114427
0.000984781
0.000861412
0.000819344
0.00138297
0.0018652
0.000747105
0.00193654
0.00198328
0.00110285
0.00166514
0.00134177
0.00106888
0.000594358
0.00208568
0.00167997
0.00143193
0.00179698
0.00114166
0.00113046
0.00218458
0.001285
0.00225773
0.0016817
0.00127182
0.00121622
0.00197258
0.00161394
0.00120164
0.00151583
0.000373213
0.00149092
0.0018281
0.0013939
0.00132296
0.00139734
0.00195921
0.000771713
0.00202918
0.000813622
0.000746394
0.000251887
0.00199684
0.0017067
0.00156436
0.00142094
0.000767704
0.00119038
0.00029834
0.000266603
0.000897887
0.00120513
0.000727961
0.000824377
0.000905337
0.000889714
0.000988726
0.000696469
0.000861828
0.000787135
0.0010095
0.00150245
0.000886984
0.000764133
0.000910376
0.000802752
0.000549208
0.000828077
0.00135898
0.00193144
0.000907077
0.00101994
0.000714035
0.000788349
0.000465829
0.00099373
0.00081193
0.0010152
0.00136334
0.00161611
0.00103644
0.00153496
0.00108185
0.000800668
0.00119073
0.00166871
0.00120557
0.00126659
0.000793106
0.000885478
0.00136456
0.00152901
0.00147106
0.00218706
0.00166637
0.000755973
0.000554988
0.000761622
0.001829
0.00149714
0.000304314
0.000845963
0.000921995
0.00106007
0.00141476
0.00122683
0.0016416
0.00180417
0.00170882
0.00202523
0.00080531
0.00072137
0.00193987
0.00209049
0.00120073
0.00204024
0.0013379
0.00115923
0.000266375
0.00231391
0.00214285
0.000692431
0.000740216
0.000592973
0.00209502
0.00136473
0.0011357
0.00130536
0.0010481
0.000761236
0.00120337
0.00127703
0.000667477
0.000827483
0.00124889
0.00234067
0.00129381
0.00143238
0.000818923
0.00061473
0.00119016
0.00234864
0.000350328
0.00137233
0.00105589
0.0018136
0.000882868
0.000938749
0.000544051
0.000820471
0.00115829
0.00094836
0.000938918
0.000551428
0.00108179
0.0010274
0.000723636
0.00238819
0.000908953
0.000928508
0.00226091
0.000776778
0.000380643
0.000404579
0.00161114
0.000865478
0.000787662
0.000837471
0.00119535
0.00141217
0.00226969
0.00105121
0.00223033
0.000632384
0.000715978
0.000964018
0.000780087
0.000645157
0.00108194
0.000806181
0.00191912
0.00241819
0.00141075
0.00184558
0.00080235
0.00224905
0.000475088
0.000838076
0.00219654
0.000552295
0.00115837
0.000719032
0.000681267
0.000816905
0.000439079
0.00141349
0.000874862
0.000989331
0.00087563
0.000772413
0.000827629
0.00209191
0.000792495
0.00241021
0.000893399
0.000382187
0.0010953
0.00143675
0.00104464
0.00214365
0.000744916
0.00079521
0.000829064
0.00172076
0.000379733
0.00147424
0.000728531
0.00164853
0.000933073
0.00134498
0.00225173
0.000817752
0.000701484
0.00216787
0.00144525
0.00161061
0.00102123
0.000701535
0.00108356
0.000992912
0.000787162
0.000923618
0.00070867
0.00220766
0.0017723
0.000547314
0.000962336
0.00211275
0.000816878
0.000817368
0.00218849
0.00132638
0.000732561
0.000776269
0.000485611
0.000971168
0.000348364
0.00038356
0.000766544
0.00218189
0.000832386
0.000921317
0.000884273
0.0007401
0.000188919
0.000938006
0.00118949
0.000720608
0.000792466
0.00079677
0.00029005
0.00102937
0.000712321
0.00065828
0.0015454
0.000939287
0.00172727
0.000516329
0.00149291
0.000803183
0.00112609
0.00143651
0.00109686
0.000956514
0.00144846
0.00183059
0.00137007
0.00091471
0.00136989
0.00204803
0.00106216
0.000749143
0.000759772
0.000286962
0.00151599
0.000616392
0.000702395
0.000677682
0.00144436
0.00234728
0.000579063
0.00116675
0.00101691
0.00119613
0.000978721
0.00137179
0.0020476
0.000813321
0.00104801
0.00059499
0.00138274
0.00179754
0.000814593
0.000934995
0.000971833
0.000176426
0.000182612
0.00143916
0.000178261
0.000203251
0.000403414
0.00224786
0.000397229
0.000186702
0.000178656
0.000228076
0.000279728
0.000751955
0.000169745
0.000961807
0.000744728
0.00159859
0.000938178
0.000307712
0.000594428
0.00130052
0.0012294
0.000902878
0.00236966
0.0010055
0.000943181
0.000429742
0.000260905
0.000895091
0.00122324
0.000952725
0.000721027
0.000851939
0.000833146
0.000286789
0.000980708
0.000915892
0.000799657
0.000628933
0.00044174
0.000236595
0.00139059
0.000800824
0.000598705
0.00153122
0.000703063
0.000816925
0.00168786
0.00168839
0.00014652
0.00018904
0.00141819
0.00116133
0.00100561
0.000678341
0.000632388
0.000342118
0.000677724
0.000651006
0.000892827
0.000737508
0.000847936
0.000799985
0.00208818
0.000640709
0.000966237
0.000319236
0.000372392
0.00104703
0.00103912
0.000911231
0.000947601
0.000282382
0.00126065
0.000604387
0.00095185
0.000740886
0.00207357
0.000285544
0.000758188
0.00131573
0.000717409
0.000844622
0.000864262
0.000293742
0.000910407
0.000889814
0.00183446
0.000794466
0.000961698
0.00144948
0.000157164
0.000166901
0.000771421
0.000809315
0.000562812
0.000596712
0.000460961
0.00117262
0.000816175
0.000302468
0.00094029
0.000714724
0.000530161
0.00131613
0.000395379
0.00109911
0.000234282
0.000663047
0.00160291
0.00091943
0.000447826
0.00148188
0.00143487
0.00144563
0.000865616
0.00147021
0.00165907
0.00113266
0.00112002
0.00144246
0.000153019
0.000865546
0.00123836
0.000230847
0.00072299
0.000240138
0.00100227
0.000415919
0.00180765
0.00101178
0.000654023
0.000555492
0.000861749
0.000780127
0.0010034
0.000704895
0.000969056
0.000225618
0.00135022
0.000846876
0.000858437
0.000825558
0.000643029
0.00104384
0.00189125
0.00103139
0.000652683
0.00095481
0.000719126
0.000864893
0.000851975
0.000748852
0.000977871
0.000615274
0.000916981
0.000862968
0.000922503
0.000828077
0.000478053
0.00038877
0.00101698
0.00229448
0.000848577
0.000900487
0.00137166
0.00150873
0.000917473
0.000972608
0.000973536
0.00160926
0.000947306
0.000176424
0.000831316
0.000611974
0.00150497
0.000946905
0.000581458
0.000626539
0.000769339
0.000168155
0.00114961
0.000174249
0.000976136
0.000700307
0.00104555
0.000745496
0.00101359
0.000650036
0.00100269
0.00153548
0.00138951
0.000717094
0.000829293
0.000933974
0.00105887
0.000996702
0.000642333
0.00103264
0.00114384
0.000888091
0.000237052
0.00205164
0.000835006
0.000803868
0.000784122
0.000203648
0.000185563
0.000165141
0.000173476
0.000277488
0.000249968
0.000280558
0.000260755
0.000218672
0.000242837
0.000251703
0.000223503
0.00021914
0.000207229
0.000918148
0.000191385
0.000181241
0.0014275
0.000288677
0.0013297
0.00014902
0.00026952
0.00200881
0.001247
0.000644028
0.000855323
0.000286519
0.00126847
0.000806737
0.000751368
0.000730672
0.000286302
0.00101444
0.000306643
0.00067966
0.00157375
0.000290777
0.000633855
0.000548945
0.000284486
0.000705282
0.0013188
0.000819406
0.00202795
0.00128946
0.000841225
0.000866684
0.000998426
0.000529489
0.000614114
0.00166426
0.000889797
0.00052817
0.000288888
0.000291755
0.00137052
0.000730922
0.000271871
0.00231301
0.00106339
0.00210728
0.000290788
0.000293282
0.000698071
0.000795145
0.00152009
0.000476856
0.000690174
0.00150498
0.000555532
0.000399704
0.000826152
0.000290881
0.00037919
0.00126678
0.000736985
0.00160678
0.000635755
0.000586268
0.000829846
0.000748287
0.000593543
0.000769015
0.000389386
0.000391634
0.000869422
0.00185954
0.00124122
0.00137494
0.000618359
0.000669488
0.000840524
0.000966202
0.00155259
0.000417633
0.000267818
0.000764015
0.00205202
0.000173338
0.000873814
0.000882575
0.00155435
0.000162618
0.000732331
0.000768181
0.00122143
0.000975883
0.000892848
0.000147765
0.000897631
0.000689599
0.000604234
0.000476461
0.000838358
0.0012616
0.00022098
0.00125607
0.00186896
0.000831964
0.000339269
0.00213672
0.00229235
0.000815573
0.000826054
0.000168758
0.000701356
0.00062881
0.000364981
0.00247073
0.00168922
0.00163944
0.000765481
0.000453462
0.00066855
0.000584132
0.00246509
0.000466868
0.0018404
0.000689591
0.000915664
0.000357655
0.00167648
0.00021592
0.000390221
0.00141338
0.000931864
0.00167856
0.00241331
0.00158671
0.000988392
0.000538696
0.00113829
0.000996596
0.000475631
0.00232589
0.000371277
0.000323315
0.00130149
0.000964171
0.00097701
0.000703602
0.000387074
0.000392456
0.000708505
0.0009692
0.000782536
0.000418956
0.00016125
0.000332199
0.00164905
0.000297735
0.00101454
0.000960217
0.000783696
0.000897564
0.00146942
0.000306327
0.000528379
0.000538461
0.000745514
0.00159588
0.000153487
0.000288065
0.00103224
0.000901006
0.000147651
0.000328569
0.000819067
0.000713949
0.000431882
0.0014528
0.00050994
0.00178522
0.000787422
0.000854259
0.000437479
0.00143107
0.00143724
0.000282375
0.00212308
0.000812549
0.000296837
0.000948111
0.000654013
0.000536996
0.000638501
0.00101542
0.000153957
0.00074598
0.000976547
0.000201333
0.00085737
0.000298375
0.000424303
0.000559656
0.000188282
0.00160407
0.000181734
0.000606857
0.00209406
0.000981557
0.000978489
0.000856925
0.00175046
0.000449579
0.00108349
0.000830845
0.000463958
0.000702705
0.000911698
0.000575723
0.000236218
0.00085498
0.00194885
0.000966597
0.000289757
0.000930892
0.000682304
0.000905303
0.000662666
0.00169417
0.000216317
0.00171462
0.000900102
0.000643535
0.000138594
0.00048121
0.00141739
0.000704199
0.00086594
0.000849219
0.000984543
0.00082229
0.000527925
0.000305509
0.00048753
0.00243626
0.000945389
0.000849438
0.000480431
0.00058637
0.000811895
0.000900646
0.00117605
0.000742755
0.000647361
0.001031
0.000477282
0.00237153
0.000861013
0.00238677
0.000977768
0.000826267
0.00082015
0.000787979
0.00244264
0.000599352
0.000893752
0.000929259
0.000904575
0.000448083
0.00150678
0.000883242
0.000878789
0.000824011
0.000835624
0.000782756
0.000256342
0.00241396
0.00109603
0.000691135
0.000655322
0.000755936
0.000430546
0.000876777
0.000450892
0.00140458
0.000629658
0.000773945
0.000566826
0.000396575
0.00142411
0.000713661
0.00221107
0.00230799
0.000827599
0.00244162
0.00069093
0.00101149
0.00075286
0.00074138
0.000833998
0.00166014
0.00108939
0.00168413
0.00111621
0.00062235
0.000834541
0.00177508
0.0010977
0.000677572
0.000710628
0.000537952
0.000762849
0.00160369
0.000697514
0.000602675
0.000705238
0.00091901
0.00019929
0.000144003
0.000299164
0.000839314
0.00133121
0.000349575
0.00238947
0.00118669
0.00133745
0.000705432
0.000654205
0.000775787
0.000886441
0.000842357
0.000463211
0.0010889
0.000642896
0.000549632
0.000813116
0.000982426
0.000823023
0.000708909
0.00165274
0.00241024
0.00109378
0.000531333
0.00177972
0.00139785
0.000837936
0.000148256
0.00087959
0.00094837
0.00088027
0.00163151
0.000168266
0.000862023
0.000847857
0.000614364
0.000928492
0.00147121
0.000112809
0.00106444
0.00157388
0.000653321
0.000940742
0.000295203
0.000704622
0.000968278
0.000850525
0.00185875
0.000752874
0.00193375
0.00069244
0.00161802
0.000606566
0.000624179
0.000869773
0.00152516
0.000932244
0.000981937
0.000690211
0.00198442
0.000929534
0.00209621
0.000549371
0.000684421
0.000679464
0.00020176
0.000960755
0.000527646
0.000451174
0.000779105
0.000897602
0.00116463
0.000237232
0.000570708
0.000457611
0.000152916
0.000854216
0.000743243
0.00056595
0.000484396
0.00098137
0.000608767
0.000784115
0.000524557
0.000434005
0.00153611
0.00149494
0.00123757
0.000836726
0.00126658
0.000557618
0.00057097
0.000523663
0.000579272
0.000476665
0.000761126
0.00091397
0.00141581
0.00203562
0.00015026
0.000645123
0.00128265
0.000725665
0.000686256
0.000145758
0.000419265
0.000190857
0.000941164
0.000707627
0.000800685
0.000478939
0.000736873
0.00133543
0.000706292
0.000562219
0.000657845
0.000774248
0.00180566
0.00083984
0.00144967
0.000339981
0.000981437
0.00087561
0.00127049
0.000795129
0.000285622
0.000654613
0.000975665
0.000882171
0.000457776
0.00114562
0.00168818
0.00218955
0.000653222
0.000646494
0.00107194
0.000310452
0.000606643
0.00077987
0.00119853
0.000690891
0.000656984
0.000916341
0.000812251
0.000659488
0.000658417
0.000594762
0.00110252
0.00242481
0.00102127
0.000705191
0.000638219
0.000981086
0.000731299
0.000331153
0.00059794
0.000498429
0.000613981
0.000656008
0.000901585
0.000674739
0.000842362
0.000600224
0.000571335
0.000600412
0.000804145
0.00100383
0.000415982
0.000916463
0.00087815
0.000803388
0.00141124
0.000510313
0.0007308
0.000699904
0.000579186
0.000537261
0.00152327
0.000624362
0.000750498
0.00194234
0.000260728
0.00154304
0.00164387
0.00181801
0.000627735
0.0014662
0.00153181
0.00048349
0.000557954
0.000467184
0.000487758
0.000426767
0.000509169
0.000651514
0.000519621
)
;

boundaryField
{
    frontAndBack
    {
        type            empty;
    }
    wallOuter
    {
        type            nutkWallFunction;
        Cmu             0.09;
        kappa           0.41;
        E               9.8;
        value           nonuniform List<scalar> 
102
(
1.1326e-05
1.1326e-05
4.95323e-05
1.72181e-05
1.50594e-05
1.88899e-05
2.07322e-05
2.13627e-05
1.97843e-05
2.06164e-05
2.00657e-05
2.34458e-05
2.12495e-05
1.99925e-05
2.61757e-05
3.40305e-05
1.80818e-05
3.62897e-05
3.07384e-05
3.38522e-05
2.7915e-05
1.53774e-05
2.0782e-05
3.80843e-05
4.61662e-05
1.65521e-05
1.78358e-05
1.62677e-05
2.82126e-05
1.79091e-05
1.89425e-05
2.30797e-05
2.07117e-05
1.75807e-05
1.87957e-05
3.36142e-05
2.9989e-05
3.39392e-05
3.1224e-05
2.49003e-05
2.87309e-05
2.98295e-05
2.54597e-05
2.48511e-05
2.32508e-05
2.1193e-05
1.98602e-05
1.56557e-05
3.21376e-05
3.46426e-05
3.65165e-05
3.53016e-05
3.40616e-05
3.48661e-05
3.50114e-05
3.21057e-05
3.50274e-05
3.52444e-05
3.51258e-05
4.58677e-05
4.93488e-05
1.92089e-05
1.76911e-05
1.56171e-05
2.58125e-05
1.82279e-05
5.34577e-05
2.43723e-05
4.61157e-05
3.8687e-05
4.67918e-05
4.62122e-05
1.72484e-05
3.91573e-05
3.62021e-05
3.67445e-05
1.63179e-05
1.53599e-05
5.09758e-05
3.34031e-05
3.60021e-05
1.63271e-05
2.05711e-05
1.96579e-05
5.30517e-05
2.72182e-05
3.48747e-05
1.38055e-05
3.65111e-05
2.99157e-05
2.30806e-05
1.46341e-05
1.5663e-05
1.84929e-05
1.04676e-05
3.54688e-05
2.32927e-05
2.74476e-05
1.60357e-05
1.59085e-05
1.51494e-05
2.0946e-05
)
;
    }
    inlet
    {
        type            calculated;
        value           nonuniform 0();
    }
    outlet
    {
        type            calculated;
        value           nonuniform 0();
    }
    wallInner
    {
        type            nutkWallFunction;
        Cmu             0.09;
        kappa           0.41;
        E               9.8;
        value           nonuniform List<scalar> 
138
(
3.63438e-05
1.39279e-05
7.59246e-05
5.87728e-05
6.03599e-05
6.19116e-05
4.58414e-05
7.85303e-05
5.83916e-05
2.99275e-05
8.55816e-05
5.73711e-05
3.64224e-05
7.15764e-05
2.94863e-05
4.84433e-05
4.93402e-05
4.66986e-05
4.87995e-05
4.3554e-05
4.17724e-05
2.81799e-05
3.15679e-05
3.06577e-05
3.33546e-05
2.94383e-05
3.00597e-05
3.01228e-05
6.17534e-05
3.08759e-05
2.97894e-05
3.67783e-05
4.40999e-05
3.89208e-05
3.58919e-05
2.75377e-05
3.09067e-05
3.10775e-05
3.8394e-05
2.42015e-05
3.54414e-05
2.91341e-05
5.46817e-05
3.37153e-05
4.16602e-05
1.90914e-05
4.20126e-05
6.98977e-05
3.00916e-05
3.60899e-05
4.05623e-05
3.50198e-05
2.86872e-05
4.20458e-05
3.13399e-05
5.50425e-05
2.92386e-05
5.48256e-05
5.81544e-05
5.23714e-05
4.03673e-05
2.72472e-05
3.0059e-05
3.9263e-05
4.77508e-05
2.98155e-05
2.80955e-05
7.29635e-05
3.84817e-05
3.69975e-05
2.53604e-05
3.54219e-05
2.80939e-05
2.23953e-05
9.20334e-05
2.49885e-05
5.09405e-05
3.45856e-05
8.85624e-05
0.000122219
4.52573e-05
8.24301e-05
2.96225e-05
3.60063e-05
3.14214e-05
6.66172e-05
9.7576e-05
0.000112495
5.6325e-05
8.46362e-05
6.35106e-05
3.65362e-05
3.16927e-05
6.55141e-05
4.65564e-05
4.9208e-05
5.20897e-05
4.69242e-05
6.54248e-05
4.255e-05
4.65124e-05
3.50319e-05
3.43023e-05
4.73011e-05
4.88804e-05
5.39539e-05
4.08814e-05
3.40399e-05
3.41512e-05
3.55052e-05
3.63187e-05
0.000123143
2.79121e-05
2.718e-05
2.63596e-05
1.97937e-05
2.7686e-05
3.45393e-05
3.45976e-05
4.8615e-05
4.59308e-05
4.72351e-05
3.11816e-05
4.17341e-05
4.51368e-05
3.46169e-05
2.32205e-05
3.52435e-05
5.65236e-05
2.52478e-05
5.47063e-05
7.39079e-05
6.81693e-05
5.71664e-05
5.19028e-05
6.23807e-05
7.93063e-05
6.27499e-05
)
;
    }
    procBoundary2to0
    {
        type            processor;
        value           nonuniform List<scalar> 
42
(
0.00241808
0.00241808
0.00102104
0.000848169
0.00115001
0.00221973
0.00103064
0.00103064
0.000880466
0.00078397
0.00140098
0.00140098
0.00135494
0.00177188
0.00212037
0.00204481
0.00221681
0.00079901
0.000785856
0.000941339
0.000890877
0.000787051
0.000787051
0.00119257
0.000890877
0.000844084
0.00147055
0.00086145
0.00147055
0.002446
0.0023506
0.000874518
0.000871066
0.000909045
0.00101149
0.000848169
0.00221681
0.000340703
0.00174034
0.00104199
0.00104199
0.00105214
)
;
    }
    procBoundary2to1
    {
        type            processor;
        value           uniform 0.000810614;
    }
    procBoundary2to3
    {
        type            processor;
        value           nonuniform List<scalar> 
29
(
0.00102125
0.00114517
0.000750776
0.000564951
0.000405257
0.000577075
0.00061173
0.000892123
0.00106312
0.00090881
0.000666478
0.000589181
0.000568099
0.00134627
0.00162081
0.00185459
0.00176245
0.00176245
0.00114517
0.00134627
0.00148546
0.00186404
0.000415443
0.00117519
0.00126435
0.00160064
0.00106312
0.000743245
0.000589181
)
;
    }
}


// ************************************************************************* //
