/*--------------------------------*- C++ -*----------------------------------*\
| =========                 |                                                 |
| \\      /  F ield         | OpenFOAM: The Open Source CFD Toolbox           |
|  \\    /   O peration     | Version:  v1912                                 |
|   \\  /    A nd           | Website:  www.openfoam.com                      |
|    \\/     M anipulation  |                                                 |
\*---------------------------------------------------------------------------*/
FoamFile
{
    version     2.0;
    format      ascii;
    class       volScalarField;
    location    "0.99";
    object      epsilon;
}
// * * * * * * * * * * * * * * * * * * * * * * * * * * * * * * * * * * * * * //

dimensions      [0 2 -3 0 0 0 0];


internalField   nonuniform List<scalar> 
1431
(
110
42.2044
4.23363
0.145083
6.04137
39.4635
0.231155
384.202
53.1878
0.24072
115.706
285.784
39.5978
11.8596
27.9448
0.231175
25.8241
9.97925
22.4892
15.9091
240.986
14.99
56.5614
331.352
57.1108
22.023
76.4107
15.4172
67.7417
33.6111
23.933
35.4014
21.647
7.34118
44.6867
4.82588
90.9664
0.364245
0.217663
28.3589
80.4726
84.2474
32.4702
0.188895
62.7044
6.57218
28.9599
63.2147
0.228666
0.316013
28.3469
0.217705
33.8346
318.317
31.4802
19.5204
6.74161
314.733
44.7422
19.2501
19.3526
0.247873
0.396213
0.37281
0.298923
0.257071
10.6141
0.982888
2.82889
20.9687
327.967
9.81099
0.135198
6.52564
14.7152
9.14408
6.69124
0.38168
0.295981
5.74407
31.3091
3.43479
168.759
36.7021
170.604
0.160657
0.152652
27.1668
204.163
229.765
39.4443
7.74819
0.571833
0.243932
30.1929
36.5751
323.744
126.733
0.189516
12.6268
27.4867
0.200265
31.8257
9.6971
1.1274
39.7265
48.439
122.767
49.7251
36.0013
14.8855
47.4395
2.91034
81.2214
41.686
7.08767
13.048
0.168335
0.20682
0.408046
28.3726
42.425
395.938
17.6095
272.285
0.489348
4.69756
15.8366
4.12828
4.61609
30.0128
14.5035
4.50911
23.0509
27.0174
0.35001
1.12563
0.216662
175.541
0.686909
0.434418
20.0848
42.5585
6.66565
66.377
21.7854
0.536311
30.4476
0.261092
10.9594
0.367472
3.66306
30.8635
0.25758
40.9116
0.666353
166.532
66.9849
210.164
0.138261
201.403
47.8917
0.182329
0.140676
265.233
94.8207
87.5196
41.0303
0.325524
88.6015
205.638
35.9128
24.528
180.141
54.6784
165.585
1.48731
46.5675
33.2617
44.0349
0.316235
0.324243
24.3975
506.129
43.3951
94.3697
142.016
71.2493
26.2667
201.503
21.2522
29.1283
29.0625
159.341
0.17952
81.2561
121.633
37.3701
2.20093
72.437
31.5434
0.170109
83.4105
0.251144
41.2305
23.1199
41.369
2.43724
209.267
36.008
186.523
0.211206
45.3551
41.1029
192.24
23.4739
32.0444
37.9875
23.6499
73.2607
40.8497
24.4368
75.2505
0.153582
44.0799
269.348
107.959
106.824
41.051
44.5314
330.008
22.8829
38.4593
27.2855
36.6471
204.007
41.7129
39.5045
20.5289
22.9274
2.31069
37.0794
233.386
30.626
28.0909
39.6891
35.0535
86.3875
43.3514
0.402608
10.4849
168.119
0.138671
0.147955
22.0523
70.7401
0.1447
324.103
175.201
31.281
40.6272
173.916
24.0279
0.368054
49.2515
97.4472
55.6065
241.676
59.5943
6.7202
54.7845
37.6433
33.1914
16.767
193.143
24.6036
183.306
43.3404
53.8286
59.4594
41.4118
80.6141
21.7602
21.6564
15.9908
152.85
74.4244
149.877
188.168
41.4968
2.1032
58.2862
105.171
34.5374
30.7568
42.8541
176.689
109.118
22.2637
61.8106
34.5757
6.75661
25.701
29.4524
52.2815
0.150317
52.5631
30.9058
85.4735
70.9602
93.0291
2.06479
0.273533
101.171
51.5208
112.904
38.3939
23.1519
1.45561
773.702
48.6977
98.09
6.1876
29.65
39.3591
3.52975
9.2499
60.3378
308.382
0.151238
88.1399
2.8828
58.5503
18.661
0.60183
29.7761
59.1875
193.093
39.8146
103.305
2.64985
30.5733
76.0309
76.2434
49.9403
28.9069
34.4906
179.065
73.8691
33.7893
41.7164
3.49062
30.3249
51.8007
8.95632
20.0577
184.038
144.389
158.982
77.05
17.6864
76.8752
73.3954
18.7025
2.02993
143.684
57.9304
616.208
44.4648
20.1122
106.256
7.63668
219.315
33.1789
71.0099
376.571
58.5952
16.0056
16.5493
458.441
55.6086
40.2685
21.4957
11.8002
794.108
45.015
38.7956
50.6392
35.545
33.2532
6.20711
41.3802
41.6319
0.153941
193.671
32.2005
56.3976
58.9788
62.0573
41.6086
56.7168
66.191
144.139
67.3304
10.0008
53.5681
40.3361
23.1341
9.7427
52.2846
67.5674
39.536
51.1718
34.0476
47.9551
4.85996
42.4558
29.9232
39.9812
50.237
53.3653
40.1211
22.2911
46.3957
49.4659
10.4756
7.65717
29.3871
2.7974
263.36
63.9804
69.554
74.6791
76.032
75.935
70.4614
66.4657
71.8789
65.5253
69.7544
10.5107
172.18
6.64756
2.54014
2.87893
1.72245
1.14446
1.23742
33.5817
16.0803
16.7957
0.350491
0.227156
7.46047
0.234083
0.223382
20.0216
278.346
8.23521
5.05325
17.2894
0.43514
267.036
0.215979
4.78577
0.454758
8.1169
260.356
0.410952
252.381
0.202155
0.203118
4.88721
28.6871
176.371
163.095
0.428642
0.719499
1.37808
0.252331
25.6172
1.43931
181.36
2.25352
4.06645
26.724
4.43365
2.71582
3.38274
2.10212
197.16
0.800415
3.09831
2.90146
29.8072
4.2647
2.87318
203.779
2.01401
34.7179
19.9163
9.29901
21.9739
27.8164
197.753
168.172
6.06656
5.3177
4.55215
14.228
3.57091
33.2713
2.20046
2.49012
27.3407
0.149782
16.9067
5.42492
41.2992
176.605
51.7644
8.95374
35.0262
0.155316
11.67
0.152921
191.1
27.9395
12.014
20.3073
37.6338
21.8171
22.4597
84.7504
67.47
3.93757
20.5761
166.841
12.4507
18.7709
50.3443
40.1878
84.879
15.9584
56.8357
19.6514
28.6264
146.093
53.5231
73.7481
37.7136
31.7342
62.2824
47.7208
0.379262
83.8587
0.148446
22.7027
149.886
327.873
75.4286
176.285
115.073
28.906
555.645
29.2196
20.6823
0.146384
27.7435
63.4721
45.4174
91.0332
62.0682
11.0832
46.5604
35.4005
0.155633
167.794
51.9002
63.1625
46.1234
65.5643
61.7559
43.0832
48.5239
35.6128
27.1871
20.1355
64.4209
21.9853
37.5161
247.777
27.5113
28.9779
47.3639
59.7837
25.1748
39.1941
90.1146
192.285
166.24
21.0791
51.0944
19.4401
44.5738
40.4211
103.173
58.7721
5.23204
2.20421
0.155458
25.1986
41.5493
50.47
69.6435
59.6331
227.272
0.188184
20.8967
43.2064
54.873
40.7433
37.609
45.2587
27.9004
43.2234
63.9163
8.40764
58.1684
20.5016
31.063
27.5074
0.329397
58.836
44.987
41.0673
326.804
12.0264
73.911
28.6731
64.3889
133.138
3.4255
50.426
190.956
25.1098
37.875
37.2182
242.09
45.6548
25.6598
79.9871
142.526
47.6104
4.61206
38.064
53.5088
48.0805
10.5714
200.335
202.636
60.9762
28.4639
34.1044
26.3043
44.9941
17.5551
5.85495
30.8723
4.7144
48.4011
54.6459
295.151
67.1946
23.5358
29.1506
305.101
20.3646
51.7729
21.5921
28.4818
18.1771
42.6293
299.933
0.501257
6.57729
38.5375
60.748
9.33532
88.9353
104.206
43.2606
80.413
62.3665
24.5199
78.7012
314.336
54.0045
13.6101
103.357
207.453
40.1038
47.0991
41.4985
151.939
322.301
121.156
259.465
33.5392
46.6245
63.2716
22.2367
35.8715
44.9922
2.70098
87.1603
30.4611
74.1849
9.9586
71.8991
88.0214
24.251
165.15
40.5724
8.86122
59.4201
75.0837
33.5667
116.391
165.208
0.435495
108.346
27.126
8.21889
134.218
40.1725
75.2267
372.103
309.814
0.143831
38.8381
54.6603
14.5958
59.4566
52.2832
39.6776
30.2682
9.7573
65.5304
0.205844
14.4641
23.906
21.3769
0.200931
412.534
61.1027
58.0294
4.57865
42.6192
42.6993
400.66
136.277
42.5018
0.233078
4.39393
50.8692
0.218636
0.224529
51.892
18.6886
29.1473
39.2164
59.233
67.9787
61.3736
29.2872
2.62552
27.534
58.3588
25.5412
40.0904
1.7493
40.1923
0.373655
121.29
174.356
42.9912
34.8355
25.3987
34.1465
70.5247
11.4613
39.9514
60.6898
35.7183
6.59811
0.151955
36.7568
0.156141
39.4945
29.1801
22.3831
10.6321
56.2554
53.0803
721.231
34.8283
43.1586
28.4526
44.5666
537.772
0.862453
28.8132
177.9
73.5561
296.576
36.8708
9.19547
84.5533
64.4786
1.87275
90.5813
38.1068
61.7892
160.116
39.9975
64.778
19.6463
8.1268
0.788849
75.1906
418.562
336.877
26.9982
38.2442
299.901
48.9857
84.983
48.4348
16.755
40.9992
1.39921
0.960726
40.4513
44.1801
207.901
2.58511
343.66
26.6944
172.621
45.0879
19.8826
21.2708
21.3603
8.3702
0.716177
8.65478
58.6222
4.54027
0.70667
21.1364
40.2077
57.4786
28.5948
47.2946
51.9194
45.3611
0.451275
174.61
50.0068
62.5149
587.169
60.8805
115.048
35.3495
14.4783
0.23311
118.924
47.9369
88.2965
257.438
0.16876
78.1417
188.511
511.966
314.871
408.414
66.4111
54.9233
59.6293
66.9856
63.4826
72.9457
52.2183
44.1857
40.1819
42.8235
43.0082
55.5729
79.824
39.158
42.5783
46.7841
36.4616
51.9032
51.5586
35.4602
50.9276
49.4833
35.5271
47.0821
40.3787
143.781
0.352241
9.16745
40.5751
13.8085
12.1134
239.121
44.9001
20.2338
12.7607
32.5916
10.1295
330.413
25.4643
1.88127
163.671
56.0216
49.6513
23.0282
0.16017
326.484
5.43172
44.4737
42.6575
36.5061
8.52915
7.44914
156.603
32.541
28.896
39.4894
59.5392
29.2924
33.0302
170.761
0.51034
0.190295
8.85079
0.156032
39.9701
66.5021
33.2746
12.5473
33.8599
6.48643
26.7275
11.5044
9.83382
33.9381
169.742
51.9371
38.1047
93.5008
5.80037
30.6458
1.00983
44.405
9.93957
0.0993044
37.1808
34.293
383.632
1.65038
27.4985
7.15476
35.6932
0.222891
851.412
52.8527
37.4758
0.963481
344.844
54.8356
175.362
0.213984
1.40741
0.15193
6.42435
3.26954
45.7958
37.3352
377.582
219.534
44.1084
53.9765
0.15284
44.2524
19.1433
48.1014
31.8244
21.656
50.5644
67.8652
49.0388
91.263
85.3492
0.181497
0.354832
22.1932
68.0197
60.677
5.68701
44.6439
39.6677
36.0688
13.7325
41.3535
36.6754
184.674
418.112
0.237354
69.2011
35.1436
0.139868
57.2786
340.202
33.2894
45.2646
22.0038
191.358
165.334
4.31614
12.6573
38.4952
42.1659
460.056
183.989
76.6488
38.1491
0.104915
124.898
0.172938
61.4482
28.7832
414.465
89.5885
312.868
183.339
60.2331
4.92605
49.3517
0.161218
1.59859
0.180802
0.272925
0.160922
43.4993
84.0573
41.8963
33.5906
76.8291
195.157
0.414565
5.37857
53.9359
441.765
50.851
418.575
89.4709
55.0793
474.721
43.2807
503.232
501.714
518.243
384.901
388.057
362.184
517.301
325.064
0.332758
0.292474
0.396938
0.338823
0.396636
0.405905
40.6013
41.6915
76.5341
50.6213
62.9064
34.203
0.154227
42.6998
0.339339
0.231038
39.4114
0.357692
32.3055
32.0551
0.144659
18.3814
5.01518
97.5829
57.4145
42.6912
46.2376
40.5857
12.021
38.7184
679.168
33.5725
6.92304
30.7869
70.6785
1.56215
23.2728
172.65
1.55128
55.3485
0.18265
11.9576
0.152807
37.2596
26.0977
10.4153
0.170409
27.4769
5.99776
3.81701
88.6649
83.6183
4.15443
16.9853
25.9717
172.798
0.361671
177.023
259.649
14.2614
208.242
34.8093
17.6832
47.4757
167.62
0.166373
46.7272
57.3785
112.973
74.2777
36.4247
41.9346
6.69602
0.387202
71.4537
24.1904
42.3692
150.021
220.195
215.68
129.948
24.9508
34.3494
55.3262
0.409175
4.10231
4.34862
28.357
6.17969
240.738
46.5099
2.39463
157.555
38.0795
13.2609
70.983
4.44673
50.6831
159.629
54.7199
47.0062
0.381996
62.4413
61.8326
204.06
79.2754
389.536
0.214242
6.36993
26.2699
307.534
191.559
97.0248
66.1659
55.4713
0.146252
333.498
5.51345
45.1201
24.6023
24.8572
8.57215
69.728
0.157005
52.4563
43.6426
210.501
9.11957
55.3784
27.6372
17.9416
0.153195
3.95295
0.656806
144.176
25.7845
66.2893
166.275
49.3024
44.0711
38.455
25.5217
0.139705
24.4525
12.3039
45.9751
485.551
39.3524
688.275
41.207
14.3642
38.9706
175.388
38.8759
0.233318
15.586
26.2095
113.792
22.632
83.4925
116.867
64.8828
12.472
33.9944
10.1566
0.158694
41.81
224.31
65.9787
235.085
47.2685
19.0282
41.0423
44.1496
28.601
11.9097
8.24618
11.3631
0.160282
38.3423
449.251
40.2013
40.9178
0.556224
6.59847
28.0914
38.8643
21.8064
496.226
62.9917
81.1214
156.841
7.55394
41.6231
49.4277
40.2582
155.553
50.6095
69.2063
38.2486
57.9854
19.4406
72.3213
25.5313
38.1088
336.388
35.7216
5.64107
29.5051
55.1617
89.1226
26.8488
48.5782
14.3454
295.942
16.6043
4.65956
0.378453
577.071
40.5333
62.9473
0.533739
5.01152
268.132
22.1644
297.632
1.50133
0.245278
4.94452
427.86
0.225128
406.779
223.051
3.51109
53.473
183.729
299.858
85.6739
360.694
8.68953
6.46878
44.319
49.3827
5.1827
172.504
0.156213
77.3851
492.711
372.644
27.4384
28.8143
0.131477
192.401
1.4649
39.1426
23.0238
290.256
0.234908
2.47369
6.10617
120.065
68.7303
40.7297
4.97828
0.152586
2.48655
235.031
368.501
0.751787
42.3651
5.96717
0.621896
26.0485
32.3073
11.0236
49.719
0.152565
25.9902
25.0305
34.4131
232.073
33.5172
0.226977
43.6467
28.7826
0.149492
0.429192
51.9112
14.4064
0.154964
20.9129
23.986
32.1774
0.199877
0.28463
232.475
201.846
79.1212
16.2772
0.152605
3.84903
0.530654
41.1482
0.700744
0.917104
6.99729
8.28133
6.22643
0.159162
201.77
45.6717
20.8367
48.9497
72.7885
182.205
40.9813
0.155113
8.12493
96.6853
62.2419
192.34
2.74135
9.43282
4.40782
22.4983
2.43082
16.9928
11.9784
14.2465
2.25759
158.659
242.878
56.5839
105.207
10.5181
94.1008
30.6813
49.4316
118.291
11.901
16.05
44.9812
137.178
9.26008
0.505895
64.2088
65.734
35.2744
8.30128
)
;

boundaryField
{
    frontAndBack
    {
        type            empty;
    }
    wallOuter
    {
        lowReCorrection 0;
        type            epsilonWallFunction;
        value           nonuniform List<scalar> 
96
(
67.7417
33.6111
36.5751
295.151
305.101
299.933
88.9353
62.3665
24.5199
314.336
13.6101
207.453
41.4985
322.301
259.465
372.103
309.814
38.8381
2.62552
121.29
6.59811
160.116
39.9975
418.562
336.877
66.4111
54.9233
59.6293
66.9856
63.4826
72.9457
52.2183
44.1857
40.1819
42.8235
43.0082
55.5729
79.824
39.158
42.5783
46.7841
36.4616
51.9032
51.5586
35.4602
50.9276
49.4833
35.5271
47.0821
44.4737
66.5021
33.2746
44.405
0.0993044
383.632
44.1084
91.263
69.2011
35.1436
33.2894
460.056
0.104915
0.172938
414.465
441.765
418.575
474.721
43.2807
503.232
501.714
518.243
384.901
388.057
362.184
517.301
325.064
0.332758
0.292474
0.396938
0.338823
0.396636
0.405905
34.203
0.144659
37.2596
36.4247
389.536
0.656806
485.551
496.226
69.2063
38.2486
0.225128
360.694
492.711
0.131477
)
;
    }
    inlet
    {
        type            fixedValue;
        value           nonuniform 0();
    }
    outlet
    {
        type            zeroGradient;
    }
    wallInner
    {
        lowReCorrection 0;
        type            epsilonWallFunction;
        value           nonuniform List<scalar> 
126
(
44.7422
19.2501
19.3526
0.247873
0.396213
0.37281
0.298923
0.257071
10.6141
0.982888
2.82889
20.9687
327.967
9.81099
0.135198
6.52564
14.7152
9.14408
6.69124
0.38168
0.295981
5.74407
31.3091
3.43479
12.6268
7.08767
13.048
0.168335
0.20682
0.408046
28.3726
42.425
395.938
17.6095
272.285
0.489348
4.69756
30.0128
14.5035
0.686909
0.434418
42.5585
6.66565
0.536311
10.9594
3.66306
0.25758
265.233
0.316235
94.3697
142.016
0.17952
186.523
6.7202
53.8286
59.4594
2.1032
176.689
109.118
61.8106
6.75661
2.06479
0.273533
101.171
3.52975
9.2499
88.1399
103.305
2.64985
144.389
76.8752
73.3954
23.1341
29.9232
27.8164
27.3407
20.3073
166.841
40.1878
146.093
31.7342
149.886
46.5604
167.794
64.4209
247.777
166.24
37.609
0.329397
190.956
142.526
151.939
121.156
42.6993
115.048
118.924
33.9381
220.195
27.4384
28.8143
96.6853
62.2419
2.74135
4.40782
22.4983
2.43082
11.9784
2.25759
158.659
242.878
56.5839
105.207
10.5181
30.6813
49.4316
118.291
11.901
16.05
44.9812
137.178
9.26008
0.505895
64.2088
65.734
35.2744
8.30128
)
;
    }
    procBoundary3to1
    {
        type            processor;
        value           nonuniform List<scalar> 
48
(
93.0957
86.9442
82.0597
91.6616
55.8272
94.048
86.9442
13.1941
70.9815
5.24476
5.24476
6.54486
6.54486
4.67945
3.45212
6.14365
3.94751
4.26413
3.94751
3.06523
2.76242
2.66921
3.06523
45.2305
4.1391
1.98716
2.46532
2.66921
3.61419
14.0403
14.0403
7.36927
7.36927
70.9815
1.69193
55.1497
22.6411
4.1391
90.8679
46.5201
4.67945
37.7149
52.2032
3.06523
3.38948
66.9076
52.1326
3.20562
)
;
    }
    procBoundary3to2
    {
        type            processor;
        value           nonuniform List<scalar> 
29
(
0.385518
0.385518
0.426178
0.315014
16.1833
1.82164
0.123754
0.729383
0.240715
0.246124
1.30664
10.8517
0.400693
0.151323
0.146407
0.129716
0.245756
0.235447
0.448793
0.149467
0.145522
0.245756
0.339536
0.235447
0.17002
0.271501
0.235447
5.35656
5.35656
)
;
    }
}


// ************************************************************************* //
