/*--------------------------------*- C++ -*----------------------------------*\
| =========                 |                                                 |
| \\      /  F ield         | OpenFOAM: The Open Source CFD Toolbox           |
|  \\    /   O peration     | Version:  v1912                                 |
|   \\  /    A nd           | Website:  www.openfoam.com                      |
|    \\/     M anipulation  |                                                 |
\*---------------------------------------------------------------------------*/
FoamFile
{
    version     2.0;
    format      ascii;
    class       volScalarField;
    location    "0.86";
    object      epsilon;
}
// * * * * * * * * * * * * * * * * * * * * * * * * * * * * * * * * * * * * * //

dimensions      [0 2 -3 0 0 0 0];


internalField   nonuniform List<scalar> 
1431
(
115.552
39.3328
1.37913
0.328015
4.99729
38.4974
0.53483
359.809
52.934
0.498683
109.169
267.821
43.2092
12.4205
23.2727
0.467679
23.882
11.1725
20.9455
16.3175
230.877
15.1641
56.3598
305.863
57.1267
26.5138
71.4518
11.9506
70.2721
31.8173
24.674
36.9404
22.3172
7.69367
45.0654
6.87933
88.1462
0.567941
0.27157
29.8367
81.7272
84.2358
36.6404
0.336028
59.4487
4.77217
26.1665
58.8217
0.542381
0.41373
34.5623
0.351205
39.9054
300.815
26.1184
25.8242
5.87529
295.392
41.6732
14.4377
14.6765
0.363063
0.581483
0.491646
0.28148
0.605808
7.5384
0.987077
2.9866
21.5214
307.569
10.3522
0.305613
6.80013
15.6042
6.76245
3.37862
1.4761
0.538215
7.43279
29.0548
4.45761
149.848
32.7512
160.411
0.368497
0.360519
24.7679
186.73
207.029
35.2784
6.53412
1.3782
0.412019
23.1808
34.9854
307.063
117.079
0.343864
16.0167
34.1099
0.330425
29.2429
6.59706
3.93218
37.743
49.8909
116.634
48.6268
33.2774
8.98198
50.3684
5.75239
83.6279
36.4
5.56219
13.8232
0.374761
0.576425
0.527315
27.9406
35.5502
382.73
18.4886
248.881
0.422185
1.75811
13.6039
2.41831
2.23359
27.9248
16.3916
2.0714
22.0186
27.9097
0.640899
3.29398
0.443275
162.44
1.44788
0.743002
20.0886
39.5577
4.6147
64.6862
22.3613
0.906974
36.9259
0.444219
6.64487
0.57606
3.6857
32.3654
0.648201
42.201
1.64858
154.707
67.4602
188.636
0.311178
186.654
50.7071
0.339046
0.297822
251.06
100.015
91.0126
33.4449
0.413759
81.3873
187.11
42.684
25.7076
166.281
52.4026
153.824
0.829652
45.6436
39.286
45.5803
0.709761
0.628023
28.9273
467.096
42.2309
97.6089
137.078
68.8892
26.0567
186.639
20.2537
29.2614
29.6955
151.916
0.507875
81.4983
115.061
37.6218
2.39952
75.2744
32.7193
0.307879
76.7253
0.554319
45.2511
22.0981
42.2968
2.75818
193.524
39.1642
187.981
0.403282
46.6679
39.2982
178.528
27.4923
32.9002
38.0669
29.4698
66.6171
42.2731
27.9002
70.725
0.27561
45.452
249.447
100.61
98.1779
42.6982
40.9739
304.056
23.6218
35.585
28.0367
38.1981
185.316
42.8536
38.0303
19.742
22.7689
0.96026
42.0776
216.039
29.7143
27.8361
38.185
34.0038
80.2088
44.7942
0.693187
9.13434
155.769
0.276915
0.280423
20.9975
70.3758
0.260085
300.124
162.419
31.9579
42.6453
160.745
29.2958
0.50176
50.6812
88.2014
55.439
232.023
55.2845
5.99522
52.407
38.6642
29.6885
14.6071
179.654
25.7379
170.626
37.8968
54.4629
61.5588
47.6413
78.2725
22.338
27.9904
11.0275
138.56
74.2725
138.96
176.778
40.9773
2.35634
57.4414
99.1404
42.4433
28.3994
44.6223
170.542
112.603
24.054
62.376
40.8026
16.893
21.8217
34.9328
47.6185
0.258138
53.0866
31.3176
84.5667
65.1349
92.5118
1.37043
0.354836
95.913
50.8703
109.054
39.0786
17.867
1.58307
732.952
51.3969
96.396
9.11701
38.2639
38.1998
1.82827
12.7952
59.8293
290.585
0.285191
88.0662
2.38047
57.9044
18.2531
0.475357
34.6093
58.7868
175.519
38.4491
99.2068
7.85275
35.1802
75.5129
78.0833
49.7093
26.4641
33.0308
165.755
74.4228
41.2185
40.8788
3.50118
38.3809
55.1672
5.0168
25.8937
175.385
134.116
147.326
77.54
17.5827
79.6426
73.7247
14.5067
1.895
144.348
57.6697
571.618
45.998
19.5378
99.8464
6.29691
199.529
38.4073
72.4803
351.278
61.0734
16.0739
16.5452
427.247
57.3689
38.8036
26.5081
6.9611
744.53
44.3892
43.3486
50.5944
34.5815
38.7245
2.97168
45.9636
46.3396
0.264563
178.913
39.5788
58.0007
59.995
62.0499
40.3309
58.9838
67.4267
136.461
66.7845
15.7933
55.6009
39.7822
26.4914
5.58254
54.81
69.3418
39.0881
54.1537
38.1217
47.9903
6.66786
45.9162
36.7047
38.4627
53.6767
54.8985
43.7366
28.4937
49.9616
53.3789
8.71873
7.84109
28.2921
3.56337
243.85
61.1188
66.0009
71.3766
72.1098
72.8594
68.3092
64.0738
70.3986
64.4113
68.8343
7.27922
160.408
3.68873
2.43877
3.89872
2.12011
1.42501
1.42026
30.9269
15.7092
16.1534
0.479445
0.509326
7.78601
0.52331
0.497564
19.292
259.026
10.1703
3.08309
16.9047
0.475776
248.429
0.45985
2.94615
0.610465
6.42882
242.051
0.601079
234.843
0.380302
0.352423
4.96623
26.6729
163.477
151.539
0.754439
1.84831
1.62743
0.391194
24.1144
2.10326
168.414
3.43485
5.70318
24.8402
4.39891
4.14929
1.95963
5.42384
183.668
1.23793
1.67066
6.6186
27.4724
3.98854
2.13663
190.722
4.01996
32.3703
26.8325
13.7389
24.1503
42.1057
185.761
156.781
3.76265
9.17357
8.62672
12.6705
7.24405
33.178
2.56119
2.16996
48.4131
0.276446
23.0788
9.95055
40.9293
165.158
46.0835
14.0631
33.1488
0.273554
16.4565
0.265688
180.629
29.4756
8.80855
21.0493
38.6526
27.8344
27.2981
84.9091
67.1564
4.85726
24.2949
161.028
17.8556
15.7821
53.6061
50.4555
87.6394
21.925
55.1408
22.1498
33.7307
142.051
55.8943
72.2606
41.8758
43.0177
63.3737
51.1488
0.519081
82.9835
0.26812
29.2468
144.422
315.195
73.721
167.389
112.637
37.651
533.881
39.9421
25.9733
0.2772
31.8797
62.6431
50.8681
90.3996
61.833
16.3054
67.3718
34.3457
0.274607
161.209
51.7345
59.5095
51.2108
65.0734
56.8732
45.0197
50.711
36.7444
26.5251
26.3298
93.7197
19.833
39.3397
253.899
33.779
34.946
48.8538
60.9032
24.7334
43.1749
85.8147
177.634
165.596
26.1997
53.0446
25.558
43.6879
38.8107
97.268
59.461
2.74792
2.06149
0.269455
34.4418
46.4445
51.2037
69.231
59.4317
213.279
0.363688
21.5482
44.9194
49.5702
43.53
54.5914
48.6733
35.9718
42.3493
64.0455
7.17783
57.5458
22.6165
37.1011
33.8662
0.334562
59.4374
50.7206
41.2232
308.493
7.73606
73.0162
30.4208
64.7547
128.232
1.31967
52.7463
194.516
32.532
36.8274
36.3483
229.867
49.5471
29.08
78.2448
134.995
48.0438
3.20563
36.6523
53.5763
47.2929
10.8158
182.459
186.926
61.3493
32.7192
41.9401
32.2926
46.4017
17.9372
7.78454
37.1385
4.75691
52.8278
46.4495
280.998
66.9369
25.6198
28.4604
290.111
19.7472
49.7314
19.228
26.823
24.0478
46.9918
285.434
0.473155
4.36872
41.0438
60.3285
6.48348
64.2228
96.6788
43.7762
83.04
41.1653
13.1883
75.9868
274.796
48.2215
6.11685
102.132
173.835
41.8683
51.6653
24.6097
153.734
305.623
113.269
222.786
38.2288
45.5847
62.7388
28.416
31.8308
46.4966
5.07073
90.602
34.7612
70.8434
6.55517
72.3356
90.9903
23.3456
152.964
46.6301
19.2711
47.4346
69.6959
37.9472
109.958
157.185
0.861027
96.6746
25.0245
4.51991
130.152
40.5644
77.6976
329.825
294.545
0.282233
38.7638
54.4874
10.9315
54.9256
50.3905
38.6618
27.8566
7.12023
65.6508
0.420764
20.645
25.7605
15.0923
0.398001
380.97
61.4653
58.407
5.22939
42.4571
56.3725
370.698
138.491
42.9734
0.508829
5.24377
52.3842
0.419449
0.486465
53.4897
18.6064
34.3221
36.7973
58.9706
70.0001
62.4564
35.3612
1.45028
36.9572
57.9667
28.4143
43.3764
5.03086
46.7742
0.625507
93.6103
166.793
41.3302
40.3602
26.6115
39.5868
71.869
11.6567
40.9573
60.6289
36.1673
2.89567
0.316496
34.008
0.286962
43.9114
30.6404
21.3451
11.1091
53.2405
52.0148
689.911
34.8473
42.3028
38.7473
42.7475
504.355
0.789498
31.9651
165.278
71.8399
276.453
37.5538
6.80268
81.6745
64.4577
1.92477
79.9278
45.2352
62.6583
129.591
40.0964
64.0878
19.5852
6.30403
1.69501
73.137
374.542
319.742
28.2457
42.9486
284.089
45.7608
81.4861
52.3918
22.752
46.3926
3.60365
2.55966
41.1994
49.1102
188.947
6.85681
324.481
34.9144
163.099
46.5558
19.561
26.9525
24.9884
5.80309
0.679603
4.66265
53.8389
2.73172
2.20279
25.6563
44.646
53.7025
34.2398
49.9776
51.5288
47.714
0.455303
161.479
49.8283
63.0918
559.685
60.1696
106.2
32.3394
12.1012
0.584272
119.312
47.0312
87.8658
240.028
0.392485
79.0914
192.61
483.326
293.465
375.806
61.7565
56.5297
61.5014
69.2988
65.579
67.8499
53.6727
43.2669
39.8864
42.2415
42.1436
51.8049
74.3601
38.3029
39.9528
43.7691
35.4713
53.2677
52.8249
34.2851
52.0851
50.5162
34.1568
47.9709
43.1705
139.479
0.416671
12.0383
39.2106
14.0738
11.8716
224.486
46.5461
19.5252
13.0696
35.0667
14.6962
311.302
24.3732
1.92774
156.649
51
51.0441
21.2498
0.436498
304.642
4.47879
45.1492
42.4046
41.5084
6.46145
13.2667
145.174
34.4978
26.6858
42.9805
60.3644
38.1823
39.7761
167.412
0.773877
0.294757
6.79167
0.289505
46.8381
68.9671
31.5815
16.5962
39.6953
11.8859
24.8372
12.6465
17.2264
48.9167
157.699
54.6004
43.5193
90.3491
5.67397
28.1415
0.525909
44.7773
8.5577
0.399126
42.925
31.1967
363.406
1.84883
25.2084
7.67518
34.8408
0.48356
804.059
54.1184
37.0555
2.19126
328.48
55.5552
159.425
0.439804
1.50651
0.312034
5.63572
2.20746
50.9593
34.1665
361.467
203.655
44.6709
54.9053
0.285265
41.8772
18.7391
49.669
28.7873
18.9404
52.0755
60.214
45.8711
85.2488
83.8437
0.346917
0.546656
22.1428
62.0127
60.949
7.6561
46.8584
43.6979
41.0655
14.9126
44.6504
41.4276
172.907
403.803
0.596946
71.7731
33.1689
0.338846
57.8068
318.699
31.6612
45.2428
22.7492
180.157
153.171
1.70928
12.4812
40.0721
43.8346
414.342
170.929
74.9295
42.1985
0.311479
124.4
0.270229
60.4633
33.0832
388.51
86.7411
294.643
175.434
59.3207
10.2828
49.6597
0.400485
3.63255
0.324289
0.366491
0.286629
46.5226
81.7199
40.8019
31.7783
74.8401
183.551
0.836589
3.42526
55.5066
407.894
50.5515
387.735
85.7212
57.059
437.076
43.5936
457.444
457.852
474.02
357.436
361.411
338.31
474.781
304.576
0.629626
0.423597
0.606115
0.622487
0.703953
0.670233
45.3341
36.6225
74.6167
49.9642
61.7134
32.6093
0.280743
39.5775
0.444833
0.545823
45.3487
0.576472
33.2793
22.5754
0.547329
20.5224
4.16333
82.9933
53.857
44.1595
45.3572
35.7714
9.69833
43.0259
638.405
34.6485
8.86922
28.0709
61.6467
4.11672
29.3995
162.121
4.36379
54.6357
0.344818
10.1944
0.2976
35.5029
24.3329
9.96051
0.331979
25.2663
6.06485
1.84467
78.3611
81.7008
10.0866
17.0562
32.1389
165.479
0.45126
166.402
240.76
8.958
192.583
32.1489
17.4868
43.2423
162.622
0.30862
48.1561
59.0287
109.557
72.3772
34.756
42.7059
6.04424
0.49213
69.7393
31.4321
48.7156
149.127
202.573
200.919
116.999
24.9004
37.0837
57.297
0.560069
4.92232
2.27006
26.0111
6.91173
223.863
50.4847
5.18572
154.198
43.657
13.4644
69.5286
8.27048
51.9376
145.97
50.5482
46.9227
0.698908
61.4457
61.3306
191.551
77.1598
365.965
0.301624
6.48425
24.4243
289.204
171.283
100.945
64.7685
54.7644
0.274584
314.921
4.51882
40.8644
23.1606
22.9377
8.8694
68.0118
0.280448
52.5839
42.6528
191.977
9.45811
57.373
32.4944
17.7031
0.277875
4.63148
0.813666
126.663
24.7862
65.4892
154.532
50.8569
47.5341
43.4841
26.6523
0.273937
22.6527
12.8115
44.9029
439.17
42.4743
638.605
42.2239
8.26547
42.1139
172.571
40.6423
0.46127
21.1538
32.3736
112.995
32.8877
81.0728
120.753
61.1214
11.8264
37.8141
10.2902
0.282354
41.5035
212.781
64.6657
222.811
46.8372
25.8859
40.8323
46.9453
26.5011
14.2646
17.028
11.5277
0.281734
41.7424
429.477
42.1247
43.8282
0.61028
4.12107
25.7104
41.0545
23.6853
450.035
62.0272
77.4817
145.346
7.73859
45.4619
49.4694
47.1995
142.861
51.5189
71.7346
36.0333
57.5366
17.0684
75.5969
24.7656
39.3137
316.01
43.4022
5.95652
27.122
56.5086
83.2142
24.626
48.6393
11.7667
280.436
21.5244
2.75285
0.594931
537.406
39.3452
62.559
0.771996
3.19477
251.712
14.2369
281.913
0.746463
0.414657
2.34929
402.206
0.319894
381.729
200.624
7.93342
54.6061
174.218
282.713
82.7225
340.258
4.41563
7.23925
33.5469
51.4118
4.26412
169.794
0.318122
64.1976
465.359
350.895
29.4814
26.8357
0.268134
178.494
0.611641
36.3926
24.234
274.341
0.582505
1.30681
9.96977
103.996
59.9251
41.6142
4.29988
0.283933
0.903283
213.139
347.331
0.491689
41.2248
5.00142
0.871873
27.9158
33.896
11.4476
48.9689
0.280829
27.2598
25.8575
35.9688
209.456
35.1263
0.406858
45.3831
26.4973
0.277283
0.407426
51.3983
14.6333
0.334724
20.9189
24.1498
33.2264
0.359261
0.48723
210.524
185.095
73.4451
23.544
0.303518
2.24844
1.37594
42.6226
0.872953
1.0691
4.7619
6.04825
5.17678
0.286033
183.643
47.4637
20.0589
52.2501
65.3866
167.896
42.3592
0.282743
8.37906
90.4481
61.7427
199.974
5.60891
14.1026
16.3191
42.7239
4.64973
25.7714
16.1217
19.5686
1.41963
162.669
228.011
59.9239
101.085
10.24
85.3454
31.3531
51.9961
111.176
11.0214
17.0833
46.0228
141.784
5.62631
0.429676
59.829
57.2788
31.8341
7.0896
)
;

boundaryField
{
    frontAndBack
    {
        type            empty;
    }
    wallOuter
    {
        lowReCorrection 0;
        type            epsilonWallFunction;
        value           nonuniform List<scalar> 
96
(
70.2721
31.8173
34.9854
280.998
290.111
285.434
64.2228
41.1653
13.1883
274.796
6.11685
173.835
24.6097
305.623
222.786
329.825
294.545
38.7638
1.45028
93.6103
2.89567
129.591
40.0964
374.542
319.742
61.7565
56.5297
61.5014
69.2988
65.579
67.8499
53.6727
43.2669
39.8864
42.2415
42.1436
51.8049
74.3601
38.3029
39.9528
43.7691
35.4713
53.2677
52.8249
34.2851
52.0851
50.5162
34.1568
47.9709
45.1492
68.9671
31.5815
44.7773
0.399126
363.406
44.6709
85.2488
71.7731
33.1689
31.6612
414.342
0.311479
0.270229
388.51
407.894
387.735
437.076
43.5936
457.444
457.852
474.02
357.436
361.411
338.31
474.781
304.576
0.629626
0.423597
0.606115
0.622487
0.703953
0.670233
32.6093
0.547329
35.5029
34.756
365.965
0.813666
439.17
450.035
71.7346
36.0333
0.319894
340.258
465.359
0.268134
)
;
    }
    inlet
    {
        type            fixedValue;
        value           nonuniform 0();
    }
    outlet
    {
        type            zeroGradient;
    }
    wallInner
    {
        lowReCorrection 0;
        type            epsilonWallFunction;
        value           nonuniform List<scalar> 
126
(
41.6732
14.4377
14.6765
0.363063
0.581483
0.491646
0.28148
0.605808
7.5384
0.987077
2.9866
21.5214
307.569
10.3522
0.305613
6.80013
15.6042
6.76245
3.37862
1.4761
0.538215
7.43279
29.0548
4.45761
16.0167
5.56219
13.8232
0.374761
0.576425
0.527315
27.9406
35.5502
382.73
18.4886
248.881
0.422185
1.75811
27.9248
16.3916
1.44788
0.743002
39.5577
4.6147
0.906974
6.64487
3.6857
0.648201
251.06
0.709761
97.6089
137.078
0.507875
187.981
5.99522
54.4629
61.5588
2.35634
170.542
112.603
62.376
16.893
1.37043
0.354836
95.913
1.82827
12.7952
88.0662
99.2068
7.85275
134.116
79.6426
73.7247
26.4914
36.7047
42.1057
48.4131
21.0493
161.028
50.4555
142.051
43.0177
144.422
67.3718
161.209
93.7197
253.899
165.596
54.5914
0.334562
194.516
134.995
153.734
113.269
56.3725
106.2
119.312
48.9167
202.573
29.4814
26.8357
90.4481
61.7427
5.60891
16.3191
42.7239
4.64973
16.1217
1.41963
162.669
228.011
59.9239
101.085
10.24
31.3531
51.9961
111.176
11.0214
17.0833
46.0228
141.784
5.62631
0.429676
59.829
57.2788
31.8341
7.0896
)
;
    }
    procBoundary3to1
    {
        type            processor;
        value           nonuniform List<scalar> 
48
(
90.4801
89.1961
83.5722
90.5163
57.3834
98.5193
89.1961
11.9899
67.242
5.37968
5.37968
5.63837
5.63837
2.73641
2.20238
4.9375
4.02397
4.2234
4.02397
2.79752
1.61596
1.52867
2.79752
50.1309
3.99847
2.40915
2.28809
1.52867
3.38395
14.1741
14.1741
7.19244
7.19244
67.242
2.00853
56.1507
20.6484
3.99847
87.1442
47.9559
2.73641
34.8718
48.8185
2.79752
2.24333
69.3527
53.7851
1.85647
)
;
    }
    procBoundary3to2
    {
        type            processor;
        value           nonuniform List<scalar> 
29
(
0.703494
0.703494
0.590711
0.672269
12.1644
1.83194
0.327869
0.917636
0.612741
0.627221
1.33415
8.32463
0.741113
0.279427
0.27802
0.268137
0.536227
0.550435
0.716322
0.277645
0.273401
0.536227
0.65585
0.550435
0.324818
0.503168
0.550435
3.7633
3.7633
)
;
    }
}


// ************************************************************************* //
