/*--------------------------------*- C++ -*----------------------------------*\
| =========                 |                                                 |
| \\      /  F ield         | OpenFOAM: The Open Source CFD Toolbox           |
|  \\    /   O peration     | Version:  v1912                                 |
|   \\  /    A nd           | Website:  www.openfoam.com                      |
|    \\/     M anipulation  |                                                 |
\*---------------------------------------------------------------------------*/
FoamFile
{
    version     2.0;
    format      ascii;
    class       volScalarField;
    location    "0.86";
    object      k;
}
// * * * * * * * * * * * * * * * * * * * * * * * * * * * * * * * * * * * * * //

dimensions      [0 2 -2 0 0 0 0];


internalField   nonuniform List<scalar> 
1431
(
2.52069
2.61205
0.101945
0.0508173
0.268045
1.81169
0.102968
6.33101
2.00514
0.0851498
2.1095
6.33509
2.52563
0.54428
0.647907
0.0948603
0.699401
0.364494
0.644929
0.516969
3.52853
0.921269
1.85078
7.24861
1.90769
1.67815
1.60871
0.449623
0.841946
0.510556
0.7607
1.03781
0.70463
0.322568
2.44059
0.554221
3.49372
0.078689
0.0496567
0.883195
2.39019
2.85087
2.16054
0.0711828
1.53582
0.284858
0.957968
1.41836
0.109035
0.0674244
2.32305
0.076194
2.51041
6.4814
1.88349
1.50412
0.229245
6.78218
0.880914
0.431906
0.484008
0.0393925
0.0498291
0.0482942
0.026612
0.0432702
0.279668
0.0718476
0.147924
0.528232
3.55485
0.360078
0.0319088
0.250827
0.494281
0.242522
0.157877
0.093823
0.0524047
0.284671
0.719212
0.18935
4.71899
1.16414
3.48939
0.0715169
0.0449869
0.881896
4.71023
5.59192
0.759438
0.304665
0.18622
0.0878486
1.63811
0.52089
6.50921
5.40374
0.0683841
0.477861
2.01943
0.0572512
0.894947
0.283989
0.195395
1.03071
1.31169
1.97249
1.51725
0.884658
0.337551
2.82171
0.492782
2.18707
2.42402
0.254206
0.45094
0.0393297
0.0476015
0.0442659
0.614463
0.802467
3.26572
0.492164
2.66846
0.0400042
0.111836
0.60084
0.150418
0.268018
0.615756
0.431494
0.265369
0.587861
0.725152
0.090121
0.259973
0.081068
5.0983
0.0855563
0.0607343
0.673764
0.784623
0.177959
1.97341
0.686365
0.0662944
2.28961
0.083713
0.257614
0.0770021
0.18534
0.947978
0.0536276
1.27941
0.227866
4.25459
3.86463
5.43336
0.0582866
6.47263
2.8338
0.0512155
0.0479254
2.76985
2.27573
2.08568
2.14728
0.0723063
4.27819
6.2864
2.60319
0.803996
5.13951
3.22875
4.11043
0.130552
1.66422
2.51013
2.56477
0.0498519
0.107309
1.98632
9.67457
1.65241
1.20582
1.50855
3.91704
0.857214
3.98767
0.729851
0.918364
0.946815
2.35722
0.0438129
4.32598
5.42826
2.21312
0.135269
1.24851
2.25642
0.0506221
1.75754
0.0691906
2.67586
0.783033
1.08412
0.131212
5.74765
1.11148
2.08538
0.048747
1.26759
1.05451
5.01086
0.664776
1.02967
2.25911
2.06231
1.5999
1.24522
1.91144
1.37421
0.0463437
1.35393
6.81986
2.09331
4.83385
1.16975
1.11273
4.62759
0.744092
1.00259
0.90359
1.08264
6.52358
1.21484
1.08713
0.706097
1.63663
0.15014
2.74163
6.20704
0.938128
0.897492
1.24887
1.03009
1.7511
1.31719
0.1099
0.476073
5.10508
0.0546242
0.0699289
0.756592
2.56206
0.0544778
7.61357
6.42744
0.993578
0.892828
5.0033
2.03275
0.0805078
1.47444
1.98478
2.58459
3.1934
1.36393
0.19275
1.61924
1.14876
2.09826
1.0945
6.12484
0.772476
5.78935
1.0963
0.798457
1.02854
2.81378
3.36414
0.685586
1.95414
0.955874
5.63121
2.60246
5.96912
3.41514
2.70637
0.110658
2.4405
4.96575
2.61124
0.877839
1.14317
1.83975
1.37139
0.742608
0.872556
2.51672
0.425936
1.63851
2.28735
1.21174
0.0570243
3.27471
0.951707
3.0329
3.68264
4.47928
0.0849813
0.0343823
1.1654
2.14402
5.24402
2.281
1.40039
0.135624
10.1949
3.20442
4.84383
0.303426
2.29451
2.00788
0.103511
0.359132
2.24032
6.26596
0.0666181
1.08958
0.178619
2.21838
1.06618
0.0872066
2.25077
2.29856
6.40209
1.93297
1.19441
0.259609
2.23719
3.56629
2.24107
2.00027
0.845458
2.27913
5.58239
3.84603
2.56028
1.70802
0.192292
2.31483
3.3183
0.257071
1.74518
4.08836
1.67021
4.58885
2.51342
1.0197
1.08982
0.96818
1.17281
0.156333
2.96057
2.02889
10.5108
1.17122
0.668321
1.97096
0.34452
5.17249
2.5693
2.22194
8.47349
3.59118
0.947994
1.34619
9.33892
3.06074
1.80629
1.31412
0.307927
11.5704
1.95389
2.67002
1.95982
1.91437
2.5721
0.33735
2.7342
2.74092
0.0608602
6.66567
2.43182
2.97412
2.99603
2.04398
2.00499
3.39333
2.17228
5.92033
2.50898
1.12092
2.86011
1.77915
0.498768
0.561015
2.86536
3.83719
2.17527
2.87625
2.31788
1.90094
0.260418
2.85029
0.615134
1.98243
2.89077
1.5249
2.54341
2.00398
3.06239
2.91112
0.400633
0.360511
0.988688
0.363208
6.28324
3.09556
3.20807
3.34241
3.35383
3.38865
3.28485
3.19124
3.31764
3.2143
3.30744
0.343668
5.15508
0.218488
0.16061
0.209091
0.15072
0.131876
0.128572
1.18121
0.88812
0.846796
0.0721573
0.106913
0.333238
0.108219
0.104883
1.07597
6.94844
0.386895
0.202282
0.968072
0.0610841
6.68611
0.0969764
0.221967
0.0737945
0.296896
6.48513
0.0787629
6.25594
0.0821471
0.0775181
0.248318
1.3076
5.14537
4.96449
0.0961195
0.188404
0.144191
0.0855839
1.2505
0.164434
5.24569
0.376822
0.281492
1.2247
0.246993
0.233815
0.140508
0.50902
5.43827
0.187879
0.136514
0.665509
1.13446
0.249808
0.191042
5.43492
0.430369
0.871591
1.5134
1.05429
0.681867
0.674552
5.31203
5.1355
0.235819
0.797473
0.728359
0.482025
0.70398
1.25525
0.18456
0.227507
0.685609
0.0735119
1.42575
0.906799
1.42584
5.22103
1.37107
1.07853
1.03411
0.063992
1.28878
0.0648022
5.09617
0.872249
0.380734
0.424657
2.58268
1.82876
1.84575
2.21708
3.2072
0.525648
1.22621
1.74532
1.40066
0.529715
2.92088
0.868346
2.30736
1.54359
1.47931
1.14107
2.31504
1.56346
2.9509
3.25956
2.63043
0.717577
2.12245
2.82444
0.0803726
1.74977
0.0622283
1.59766
1.60172
4.43215
3.30757
5.00908
5.12632
2.29165
6.98389
1.91704
1.71011
0.0459239
2.04231
2.46396
2.91208
3.36303
3.1708
1.24434
0.941615
1.91773
0.0709624
1.7442
2.87119
3.0332
2.90614
2.52308
1.5966
2.72671
3.01196
1.16216
0.865452
1.82674
1.19354
0.751201
2.43552
2.21545
2.25197
2.38446
1.42332
3.08254
1.10169
2.65258
4.53029
5.40067
1.74772
1.84546
2.77091
1.61116
2.3669
1.7387
1.35474
3.26117
0.241749
0.152946
0.0681754
1.99282
2.73567
2.87101
1.92014
2.26914
3.45784
0.0669031
1.61476
2.5699
3.03873
2.83101
0.816992
2.75212
2.26673
1.74736
3.10258
0.385069
2.92347
1.47902
2.38425
2.13882
0.0300809
3.12589
2.91773
2.43569
6.18808
0.704922
1.85537
2.11457
2.03701
5.62596
0.183153
2.79754
1.95435
2.11827
2.05089
1.97774
3.27839
3.10806
1.93539
3.08568
1.51388
2.76703
0.219565
1.81029
1.94243
1.93708
0.99749
5.68981
6.71551
2.99102
2.06405
2.5894
1.72457
1.41546
0.643722
0.753103
2.35767
0.218782
2.92558
2.71591
2.3189
3.28655
1.79979
0.983937
2.37317
1.1432
1.57103
1.4485
1.92021
1.66977
2.97216
2.33342
0.0523612
0.205958
2.50585
1.77857
0.333364
0.839872
2.20159
1.16047
2.21144
0.626108
0.284364
3.41285
2.16688
1.47392
0.163997
4.21183
1.5865
2.55051
2.90119
0.441277
1.77085
2.47951
1.33555
1.87308
2.56449
2.21627
2.00366
1.43873
0.958442
1.34117
0.267152
2.27919
2.15982
1.55734
0.551383
1.95046
2.40582
0.807747
4.95806
2.7761
0.739272
2.19679
1.57228
2.22412
1.9548
2.64463
0.108645
4.45965
1.78001
0.441248
2.91898
1.15363
2.14386
2.47616
2.35699
0.061917
0.588877
2.0082
0.896799
1.62746
2.77713
1.71913
1.23359
0.312719
1.85144
0.0830276
1.5177
1.79062
1.18403
0.0831164
8.1958
1.78221
2.14678
0.236718
1.80169
0.820947
8.53372
2.97917
1.26643
0.101271
0.263192
1.34797
0.090632
0.101588
2.74662
1.29034
1.93639
1.01897
1.6565
2.08704
2.09304
2.38643
0.0643323
1.77933
2.65894
0.856242
2.70349
0.305992
2.79401
0.0880178
1.0752
5.19497
1.64167
2.59127
0.841149
2.58961
2.0693
0.426934
1.09558
2.85437
1.02262
0.0977877
0.0698107
0.942493
0.0689333
2.64052
0.916178
1.17228
0.431387
2.85796
2.85259
9.07229
1.01716
1.9392
1.84806
1.63061
9.46473
0.100388
2.20103
4.66563
2.92438
7.30217
2.35631
0.345717
3.48295
1.93725
0.143219
1.88681
2.73468
3.15779
1.31979
0.603468
2.47253
0.664024
0.345248
0.22486
3.3343
2.72895
2.40451
0.872515
2.79927
6.44472
1.17495
3.53352
2.90613
1.63717
2.75341
0.425919
0.28961
1.07966
2.82551
6.4712
0.459382
7.81996
1.70171
6.26642
1.23718
0.665748
1.89671
1.60072
0.243059
0.0620963
0.478789
1.74691
0.157218
0.153895
1.66316
2.83943
1.86978
2.34949
2.82561
2.4255
2.75788
0.0835496
5.35724
2.47385
3.21015
7.72475
2.69741
1.19441
1.14741
0.426843
0.107221
1.66192
2.22792
1.87119
6.17065
0.0746585
1.91582
3.11336
7.62077
7.01697
5.61147
0.73728
0.752312
0.768049
0.758966
0.761762
0.828048
0.728547
0.544374
0.573587
0.557265
0.559108
0.627258
0.906605
0.565281
0.536532
0.560175
0.556709
0.705215
0.682603
0.544622
0.66187
0.654052
0.532888
0.64765
2.58622
5.19777
0.0600669
1.03218
1.71024
0.84408
0.576302
4.80374
1.12473
0.671122
0.723848
0.807062
1.09601
7.50654
1.11876
0.169788
5.82087
1.58509
2.87353
0.922654
0.0539225
7.79242
0.23618
0.631852
2.30893
2.69058
0.33527
0.908855
4.30451
0.802823
1.14733
2.54575
2.10873
2.29313
2.50068
4.92835
0.0903675
0.0612226
0.357291
0.0654466
2.80541
0.877652
0.510442
1.27566
2.5486
1.0022
1.10381
0.438419
1.11379
0.715136
4.41493
2.95733
2.67141
1.44094
0.26889
1.26519
0.0984694
0.60184
0.433559
0.0289535
2.61843
0.931581
2.41652
0.141432
0.950089
0.306015
2.24127
0.0990511
11.285
2.72964
1.0774
0.232798
6.4141
2.71559
6.10622
0.0944879
0.195489
0.0651935
0.348924
0.160504
2.90108
0.984157
4.87187
5.5523
0.615263
2.71905
0.064014
1.0343
1.00861
1.41545
0.882704
0.738396
1.48819
1.49624
2.61226
1.0148
3.14407
0.0736929
0.083809
1.01805
1.34627
1.15755
0.276375
2.63351
2.84267
2.62233
0.396929
2.65982
2.65471
4.05097
5.29033
0.0983144
0.804248
0.509059
0.0530155
2.79477
7.23479
0.51103
1.84583
0.726363
6.34582
4.7188
0.209664
0.671223
1.128
2.53966
2.93884
3.66314
3.00655
2.66413
0.0242658
2.38956
0.021887
2.53181
2.26947
3.03304
3.49168
6.36503
5.6498
2.48012
0.734341
2.56055
0.0621864
0.373101
0.036264
0.0741524
0.0485093
2.69106
3.35371
1.9492
2.08864
3.1909
6.33592
0.0735092
0.177733
3.01815
3.02198
2.44755
3.13126
3.59355
3.02697
3.0983
0.610035
3.06973
2.97465
2.98742
2.99513
2.83155
2.67344
3.1115
2.54764
0.0392501
0.0278137
0.0328016
0.0367149
0.033369
0.0353985
2.69955
1.07178
3.33104
1.22661
2.5649
0.515248
0.0656196
2.37731
0.072824
0.112352
2.71195
0.111054
1.06319
1.31042
0.036074
0.700325
0.278494
3.18283
2.85648
1.26641
2.31762
1.05708
0.692774
2.73524
10.1686
1.1095
0.369631
1.00695
3.30676
0.460967
2.06317
3.70253
0.378392
2.39532
0.05196
0.502804
0.0685681
0.510436
1.11937
0.384615
0.0573562
1.02768
0.299135
0.132402
3.8834
3.21556
0.57663
0.88882
2.12161
2.40679
0.0733998
3.43137
5.3994
0.792868
4.21485
1.07388
0.525313
1.46505
3.7573
0.0368259
2.61974
1.55782
2.08564
3.09333
0.515524
1.13471
0.381115
0.0989377
2.86452
1.57125
2.8643
3.59699
2.07489
4.6674
5.05673
0.814198
2.49618
1.02967
0.0635375
0.253608
0.161657
0.888432
0.293346
6.03555
2.86
0.479247
3.22601
2.66227
0.78243
3.12243
0.546475
1.50219
2.95051
1.28803
2.46386
0.0773666
1.61729
2.04355
3.4467
3.27558
2.40211
0.0540159
0.326696
0.889004
5.67185
5.15088
2.44977
2.84595
2.18961
0.0748558
7.6516
0.261454
1.39076
1.16049
0.785082
0.3686
2.88985
0.0730413
0.848054
1.19616
4.9444
0.523487
3.0163
1.77713
1.01992
0.0728391
0.230919
0.0463589
4.21646
0.952817
3.02996
3.88774
2.69754
2.73889
2.67503
0.752842
0.0597141
0.677443
0.449712
2.24003
3.07142
2.59096
11.3456
1.0637
0.623123
2.6166
4.90336
2.46716
0.0784187
1.50133
1.31841
1.65958
1.63447
2.0023
2.56532
1.99861
0.494277
2.54143
0.645612
0.0701837
2.289
3.93788
2.63301
3.52267
1.97475
1.76554
2.27979
2.6815
1.10511
0.471935
0.894049
0.709961
0.0718508
2.59629
6.48183
2.49898
2.6178
0.0674783
0.22347
0.819578
2.48699
0.694925
3.09837
2.76858
3.45279
4.42603
0.433646
2.69872
2.51182
2.82092
2.9508
1.41455
0.769909
0.513755
0.990713
0.701907
1.39033
0.833646
1.22023
7.43807
2.65559
0.268223
1.25675
2.84152
1.76466
0.807095
1.25846
0.452586
6.53715
1.3022
0.17279
0.0638622
10.2851
2.01209
2.92922
0.0844521
0.233997
3.37747
0.937166
5.71017
0.0929747
0.0787666
0.228873
8.70257
0.023989
5.86518
5.5802
0.703633
1.53305
3.45564
5.95444
3.47211
2.70737
0.384167
0.271227
1.73374
0.985533
0.274481
4.71304
0.0394391
2.69452
2.38727
6.85998
0.54687
0.511946
0.0219281
3.8118
0.10878
1.08585
0.633986
6.29251
0.114749
0.151824
0.750618
3.69348
1.24725
1.06795
0.310676
0.0755375
0.131742
5.07618
8.10736
0.0897131
2.11899
0.329417
0.09515
0.729421
0.966567
0.576255
2.26215
0.0717262
0.762103
0.774208
1.00221
5.4765
0.979955
0.0394269
1.15264
0.835944
0.0738201
0.0830357
2.33247
0.832696
0.0677027
0.688705
0.785001
1.07268
0.0373996
0.0384725
5.27439
4.53191
1.37204
1.08487
0.0653325
0.149716
0.119522
1.20286
0.0838846
0.0937251
0.237275
0.267247
0.233449
0.0720176
6.01598
1.12271
0.68292
2.90239
1.55942
4.64016
2.46673
0.0742211
0.501586
1.11932
0.89799
3.33696
0.226889
0.767447
0.385974
0.726894
0.172255
0.701317
0.408641
1.10477
0.0688399
2.08322
2.66577
1.08412
1.44669
0.285896
1.09522
0.56811
0.823308
1.39559
0.282199
0.392889
0.924325
1.66633
0.202251
0.0360638
0.957554
1.03686
0.643817
0.230884
)
;

boundaryField
{
    frontAndBack
    {
        type            empty;
    }
    wallOuter
    {
        type            kqRWallFunction;
        value           nonuniform List<scalar> 
96
(
0.841946
0.510556
0.52089
2.3189
2.37317
2.33342
0.839872
0.626108
0.284364
2.16688
0.163997
1.5865
0.441277
2.47951
1.87308
2.47616
2.35699
0.588877
0.0643323
1.0752
0.0977877
1.31979
0.603468
2.72895
2.40451
0.73728
0.752312
0.768049
0.758966
0.761762
0.828048
0.728547
0.544374
0.573587
0.557265
0.559108
0.627258
0.906605
0.565281
0.536532
0.560175
0.556709
0.705215
0.682603
0.544622
0.66187
0.654052
0.532888
0.64765
0.631852
0.877652
0.510442
0.60184
0.0289535
2.41652
0.615263
1.0148
0.804248
0.509059
0.51103
2.93884
0.0242658
0.021887
3.03304
3.02198
3.13126
3.0983
0.610035
3.06973
2.97465
2.98742
2.99513
2.83155
2.67344
3.1115
2.54764
0.0392501
0.0278137
0.0328016
0.0367149
0.033369
0.0353985
0.515248
0.036074
0.510436
0.515524
2.40211
0.0463589
3.07142
3.09837
0.769909
0.513755
0.023989
2.70737
2.38727
0.0219281
)
;
    }
    inlet
    {
        type            fixedValue;
        value           nonuniform 0();
    }
    outlet
    {
        type            zeroGradient;
    }
    wallInner
    {
        type            kqRWallFunction;
        value           nonuniform List<scalar> 
126
(
0.880914
0.431906
0.484008
0.0393925
0.0498291
0.0482942
0.026612
0.0432702
0.279668
0.0718476
0.147924
0.528232
3.55485
0.360078
0.0319088
0.250827
0.494281
0.242522
0.157877
0.093823
0.0524047
0.284671
0.719212
0.18935
0.477861
0.254206
0.45094
0.0393297
0.0476015
0.0442659
0.614463
0.802467
3.26572
0.492164
2.66846
0.0400042
0.111836
0.615756
0.431494
0.0855563
0.0607343
0.784623
0.177959
0.0662944
0.257614
0.18534
0.0536276
2.76985
0.0498519
1.20582
1.50855
0.0438129
2.08538
0.19275
0.798457
1.02854
0.110658
1.83975
1.37139
0.872556
0.425936
0.0849813
0.0343823
1.1654
0.103511
0.359132
1.08958
1.19441
0.259609
1.67021
1.08982
0.96818
0.498768
0.615134
0.674552
0.685609
0.424657
1.74532
0.868346
1.56346
0.717577
1.60172
0.941615
1.7442
1.19354
2.21545
1.74772
0.816992
0.0300809
1.95435
1.51388
1.77085
1.33555
0.820947
1.19441
1.66192
0.715136
2.07489
0.54687
0.511946
1.11932
0.89799
0.226889
0.385974
0.726894
0.172255
0.408641
0.0688399
2.08322
2.66577
1.08412
1.44669
0.285896
0.56811
0.823308
1.39559
0.282199
0.392889
0.924325
1.66633
0.202251
0.0360638
0.957554
1.03686
0.643817
0.230884
)
;
    }
    procBoundary3to1
    {
        type            processor;
        value           nonuniform List<scalar> 
48
(
3.48211
2.21834
2.46574
3.24617
1.5417
2.02261
2.21834
1.06319
3.21302
0.268478
0.268478
0.278238
0.278238
0.19577
0.205157
0.256787
0.232094
0.230319
0.232094
0.201433
0.134442
0.146877
0.201433
1.13614
0.226716
0.172079
0.259982
0.146877
0.394381
0.427792
0.427792
0.731769
0.731769
3.21302
0.167527
1.38188
1.55167
0.226716
3.58794
1.32013
0.19577
2.1851
2.69085
0.201433
0.215281
0.910316
1.49523
0.149842
)
;
    }
    procBoundary3to2
    {
        type            processor;
        value           nonuniform List<scalar> 
29
(
0.0969542
0.0969542
0.0453956
0.0504843
0.333492
0.0970185
0.0308798
0.105217
0.116262
0.100186
0.107993
0.313299
0.0801023
0.0698387
0.0716978
0.0555891
0.106587
0.114522
0.10261
0.0761893
0.0755236
0.106587
0.0411727
0.114522
0.0612315
0.07903
0.114522
0.25067
0.25067
)
;
    }
}


// ************************************************************************* //
