/*--------------------------------*- C++ -*----------------------------------*\
| =========                 |                                                 |
| \\      /  F ield         | OpenFOAM: The Open Source CFD Toolbox           |
|  \\    /   O peration     | Version:  v1912                                 |
|   \\  /    A nd           | Website:  www.openfoam.com                      |
|    \\/     M anipulation  |                                                 |
\*---------------------------------------------------------------------------*/
FoamFile
{
    version     2.0;
    format      ascii;
    class       volScalarField;
    location    "0.3";
    object      nut;
}
// * * * * * * * * * * * * * * * * * * * * * * * * * * * * * * * * * * * * * //

dimensions      [0 2 -1 0 0 0 0];


internalField   nonuniform List<scalar> 
1431
(
0.00177738
0.00500196
0.00183606
0.00169229
0.000862265
0.00239044
0.00226324
0.00465682
0.000992397
0.00129347
0.00410129
0.00485744
0.00409644
0.00139039
0.000681685
0.00234572
0.0012149
0.00118935
0.00164577
0.00160001
0.00524266
0.00340679
0.00111647
0.0056969
0.000867834
0.00366207
0.00370267
0.000816285
0.000896094
0.000762635
0.00275722
0.00261632
0.00279137
0.000880625
0.0021461
0.00232879
0.00468239
0.000624659
0.00319882
0.00272984
0.0038932
0.00405011
0.00411357
0.00366265
0.00216138
0.00107282
0.00210528
0.00355215
0.00252138
0.00082522
0.00294593
0.00412621
0.00175677
0.00691246
0.00365919
0.00167674
0.000533604
0.00590237
0.000903961
0.000782283
0.000694513
0.00117788
0.000506505
0.000545086
0.00109404
0.000600327
0.00144883
0.000729599
0.000562661
0.000959796
0.00258387
0.000734835
0.000965442
0.00056086
0.00105337
0.000548452
0.00149372
0.00143844
0.00107018
0.00114378
0.000936878
0.00121211
0.00289234
0.00210343
0.00281339
0.00431606
0.00128575
0.00117125
0.00396679
0.00374131
0.000636042
0.00080824
0.000736417
0.00312579
0.00244557
0.000697735
0.00575241
0.00499008
0.00285919
0.0017081
0.00176454
0.0014741
0.0014124
0.00130704
0.00158347
0.00244965
0.00292126
0.00304479
0.00109202
0.00112432
0.0012296
0.00388142
0.00356314
0.00364006
0.00393245
0.000709264
0.000906113
0.00120139
0.00109641
0.0004421
0.00105297
0.00054565
0.00178376
0.00092732
0.00167582
0.000848369
0.00178432
0.00109083
0.00228033
0.0017604
0.000789451
0.00106727
0.00258689
0.00126822
0.00164875
0.00082855
0.00189638
0.00157976
0.00435291
0.000447338
0.0013919
0.0026382
0.000782009
0.000837411
0.00137643
0.00270806
0.000539705
0.00176665
0.00202245
0.00094146
0.000765252
0.000696305
0.00272439
0.00122323
0.00318669
0.000962523
0.00381865
0.00481052
0.00342704
0.0030225
0.00548755
0.00426258
0.00200738
0.00217226
0.00201489
0.00281383
0.00320861
0.00263641
0.000782405
0.00455685
0.0051169
0.00210026
0.00278812
0.00442195
0.0051111
0.00371154
0.0023486
0.00231138
0.0018565
0.00195368
0.000696694
0.00396343
0.00286122
0.00808943
0.00238271
0.00134549
0.00136974
0.00514037
0.00272549
0.00327561
0.00287148
0.00264503
0.00268577
0.00352475
0.00106372
0.00435585
0.00535675
0.00198462
0.000614514
0.000516342
0.00485821
0.00214116
0.00406475
0.00130162
0.00359874
0.00289709
0.00229155
0.000612131
0.00484397
0.000721118
0.00136253
0.00169574
0.00288371
0.00249851
0.00431554
0.00175611
0.0027407
0.00214061
0.00325246
0.00399766
0.00305245
0.00320264
0.00102474
0.00220331
0.00332275
0.00576324
0.00408052
0.00474933
0.00277843
0.00323906
0.0028632
0.00280332
0.00233661
0.0027467
0.00270362
0.00499612
0.00284753
0.00268687
0.00284218
0.00483375
0.00343385
0.00290649
0.00522243
0.00274098
0.00269274
0.0033532
0.00271782
0.00376092
0.00322203
0.000827542
0.00130493
0.00474291
0.00297481
0.00304921
0.00290308
0.00439175
0.00292589
0.00645996
0.00533015
0.00266693
0.00180893
0.0043274
0.00290354
0.0022352
0.00355939
0.00445925
0.00160344
0.00443042
0.00354342
0.000380303
0.0013366
0.00281676
0.00479946
0.00504213
0.00535308
0.00268175
0.00519202
0.00290461
0.00108687
0.00155325
0.00213906
0.00422227
0.00265161
0.00402122
0.00316971
0.00430757
0.00432025
0.0052029
0.00259033
0.00535916
0.000420584
0.00157102
0.00539937
0.00265533
0.00286992
0.00257565
0.00166566
0.00150703
0.00233745
0.00111648
0.00174654
0.00172544
0.00458052
0.00339739
0.00251461
0.00287347
0.00507571
0.00256627
0.00404985
0.00440227
0.00381152
0.000709799
0.000794394
0.00124893
0.00118609
0.00509998
0.00188166
0.00341236
0.000992595
0.0101664
0.00425285
0.00480273
0.00137894
0.00257597
0.00203483
0.00175095
0.00130872
0.00152285
0.00807864
0.00286235
0.00118681
0.000994597
0.00130535
0.00408741
0.00322049
0.00353846
0.00240774
0.00482351
0.00214319
0.00115739
0.00157591
0.00365942
0.00305879
0.00385083
0.00132792
0.00242843
0.00537785
0.00507293
0.00316451
0.0029126
0.00243977
0.00149138
0.00235894
0.00315321
0.00115467
0.00295349
0.00313627
0.0012956
0.0042653
0.00410461
0.00307477
0.00134914
0.00114243
0.00434732
0.000985697
0.00235871
0.000956286
0.00885567
0.00255236
0.00241798
0.00378093
0.00106531
0.00408125
0.0029783
0.00400825
0.00828342
0.00389285
0.00291228
0.00500976
0.00918915
0.00419721
0.00231502
0.00172796
0.00107131
0.0106259
0.00175125
0.00183772
0.00157034
0.00203354
0.00296045
0.00372182
0.00181022
0.00185014
0.00282196
0.0054656
0.00224191
0.00268723
0.0027832
0.00106574
0.00226949
0.00290857
0.00371834
0.00531428
0.0041862
0.00337326
0.00207881
0.0022049
0.00043973
0.00289987
0.00198586
0.00348211
0.00191305
0.00195324
0.00527903
0.00160931
0.00144172
0.00270702
0.000570982
0.00234123
0.00195947
0.00368502
0.00462606
0.00409617
0.00281753
0.00198524
0.000787821
0.00176365
0.0035074
0.00382723
0.00509562
0.00481026
0.00499984
0.00473662
0.0051581
0.00459701
0.00449426
0.00466184
0.00424368
0.00444767
0.00425814
0.000782837
0.00436836
0.00091629
0.00116243
0.00181229
0.00141461
0.00119335
0.000964025
0.00202343
0.00222599
0.00214332
0.000698385
0.00205546
0.00133005
0.00176519
0.00249224
0.00270601
0.00614847
0.0010409
0.00473373
0.00236656
0.00100096
0.00576067
0.00231644
0.00470519
0.000810257
0.00152865
0.00543555
0.00067162
0.0051305
0.00373031
0.00394593
0.00157241
0.00371131
0.0043483
0.00443364
0.000828364
0.00147352
0.00160776
0.00389251
0.00418464
0.00166025
0.00436281
0.0034616
0.00197509
0.00392796
0.00179411
0.00198441
0.00430338
0.0023973
0.0043264
0.00417532
0.00402644
0.00298807
0.00369515
0.00182237
0.0038524
0.0042175
0.00501393
0.000803115
0.0055189
0.00330988
0.000549924
0.00145334
0.00410805
0.00448279
0.000871908
0.00511195
0.00442604
0.00115594
0.00308472
0.00481031
0.00165559
0.0038827
0.00134051
0.00249216
0.00552417
0.00319347
0.00443585
0.0043436
0.00213681
0.00456188
0.00110834
0.00277535
0.00333254
0.00337299
0.003967
0.00271654
0.000860174
0.000498956
0.00510145
0.0022105
0.00368549
0.0047377
0.0039685
0.00435092
0.00160936
0.00084782
0.00339674
0.000720208
0.0026146
0.00179664
0.00207777
0.00385851
0.000792805
0.00172092
0.00300813
0.000892362
0.00263863
0.00431399
0.00238887
0.00155924
0.00309878
0.00202675
0.000890453
0.00287443
0.00355051
0.00553762
0.00086461
0.00598316
0.0043443
0.00416093
0.0043888
0.00290177
0.00780886
0.00242738
0.0024808
0.00218878
0.00563743
0.00361338
0.00217473
0.00326558
0.00436977
0.00508287
0.00131619
0.00219054
0.00292113
0.000495969
0.00471594
0.00511533
0.00223654
0.00294839
0.00221616
0.00249436
0.00263467
0.0029964
0.0027777
0.00355062
0.00143168
0.00132992
0.00509255
0.000947412
0.00256748
0.00321024
0.00349289
0.00350256
0.00419185
0.00189825
0.00533184
0.0045881
0.000982997
0.00357715
0.00194817
0.00198181
0.00248458
0.00218446
0.00184453
0.0027155
0.00432686
0.00096939
0.00316237
0.00294901
0.00189753
0.00463698
0.00122693
0.00174359
0.00232546
0.00309627
0.00527896
0.00188968
0.00419771
0.00438264
0.00123247
0.00198778
0.00307088
0.00256589
0.00347033
0.00136186
0.0027228
0.00302795
0.00323607
0.00186743
0.000992947
0.00433097
0.00215393
0.00229329
0.00444217
0.00405041
0.000751258
0.00444217
0.00115274
0.00490097
0.00436211
0.00200817
0.000657207
0.0032309
0.00233892
0.0019492
0.0021394
0.00339363
0.00563645
0.00436415
0.000438345
0.00245449
0.00104404
0.00209147
0.00119121
0.00266985
0.00468361
0.00481963
0.00558623
0.00293236
0.00378665
0.0027849
0.00547867
0.00437153
0.00190974
0.00461553
0.00181325
0.00131348
0.00201546
0.00285893
0.0010674
0.00422987
0.00550374
0.00274336
0.00108481
0.00372449
0.00233222
0.00511416
0.00528807
0.00368009
0.00295688
0.00105439
0.00111678
0.00212011
0.00501892
0.000806417
0.000828895
0.000482728
0.00431019
0.0026949
0.00138503
0.000477945
0.000450511
0.00447607
0.000549239
0.0021368
0.000425973
0.00353743
0.000496567
0.00236159
0.00232636
0.000469687
0.000424435
0.00112219
0.000436648
0.000518381
0.00320099
0.00191011
0.00136138
0.00202073
0.00251595
0.00325994
0.00201344
0.00348241
0.00550977
0.000694736
0.00501671
0.000868576
0.00282929
0.00286854
0.00468878
0.00275107
0.0031698
0.00177743
0.00285563
0.00500204
0.00313666
0.00438749
0.00112263
0.00359939
0.00500958
0.00463712
0.00598474
0.00271345
0.000966824
0.000593971
0.00103103
0.00368819
0.000780526
0.00149548
0.00490245
0.00218025
0.00494028
0.00224384
0.00250659
0.00141941
0.00130058
0.00205571
0.00348589
0.00394052
0.0022816
0.00314293
0.00639352
0.00150775
0.00217229
0.00121913
0.00196168
0.000842887
0.0071915
0.00598275
0.00299548
0.00154262
0.00096958
0.00295798
0.00336295
0.00274582
0.0018593
0.004283
0.00529577
0.00239837
0.0017148
0.000901431
0.0011759
0.00321116
0.000462137
0.00203007
0.00185624
0.000961045
0.00264377
0.0019961
0.00261899
0.000719716
0.000488406
0.00453151
0.00221564
0.00234163
0.002853
0.00290408
0.00580238
0.00145957
0.00244138
0.00235923
0.00244214
0.000419125
0.00449331
0.00216135
0.00429615
0.00347035
0.00276416
0.0031864
0.000717027
0.00498631
0.00479371
0.008982
0.00251437
0.00191801
0.00221365
0.00228686
0.0104632
0.0012466
0.00381246
0.00409393
0.004303
0.00668753
0.00512952
0.000812698
0.00447452
0.000825727
0.000905573
0.00404812
0.00234254
0.00393665
0.000489307
0.000791168
0.00386127
0.00254322
0.00107665
0.00452112
0.00423684
0.00063992
0.000973688
0.00277262
0.0030871
0.00733169
0.00118017
0.00469911
0.00246112
0.00472096
0.00292724
0.0017134
0.00150789
0.00235875
0.00201639
0.00509147
0.00243155
0.00856156
0.00177963
0.00520778
0.00278038
0.00245232
0.0034864
0.00241909
0.00158241
0.000818554
0.00197572
0.00204895
0.00221474
0.00156582
0.00232733
0.00282401
0.00216885
0.00305325
0.0045061
0.00152337
0.00471168
0.00184723
0.00498181
0.00187174
0.00418871
0.00864777
0.00213474
0.000411266
0.00168271
0.00138765
0.00214522
0.000453432
0.0017086
0.000716738
0.00478235
0.00436027
0.000860155
0.0028164
0.00889067
0.00597288
0.00351857
0.000857759
0.000872699
0.000843585
0.000732877
0.000779906
0.000984748
0.000855879
0.000598666
0.000719201
0.000640136
0.000675222
0.000735217
0.00107384
0.000771972
0.00068233
0.000684576
0.000806132
0.000801969
0.000752121
0.000791333
0.000712923
0.000712432
0.000753528
0.000734198
0.00492934
0.00415089
0.000892324
0.00489251
0.0021502
0.00343314
0.00188629
0.00333224
0.00236001
0.00245472
0.00190781
0.000535456
0.00344901
0.00758383
0.00439957
0.00169127
0.00473014
0.00215175
0.0046058
0.00210529
0.0012868
0.00739805
0.000745164
0.000745143
0.00213585
0.00286832
0.00240741
0.00250526
0.00404406
0.00187051
0.00214615
0.00492915
0.00248501
0.00274873
0.00305783
0.00421779
0.000762599
0.00365298
0.00107256
0.00388224
0.00251223
0.0009956
0.000767678
0.00540815
0.00205619
0.00331931
0.00209545
0.00108741
0.0037154
0.00105437
0.00392879
0.00332248
0.00172232
0.000520314
0.00137835
0.00280431
0.00411062
0.000693213
0.000853771
0.000551529
0.00172502
0.0023001
0.00085094
0.000936131
0.00218893
0.00139455
0.00514872
0.00181226
0.0106063
0.00177632
0.00255306
0.00309801
0.00545721
0.00177215
0.00460193
0.00319142
0.0018726
0.00380938
0.00111862
0.00221081
0.00205627
0.00231235
0.00621699
0.004653
0.00071888
0.00173836
0.00340479
0.00204666
0.00427389
0.00342829
0.00235002
0.00114224
0.00363901
0.00315692
0.00510907
0.00116871
0.00410965
0.00455875
0.000737745
0.00383733
0.00097863
0.00173175
0.00147161
0.00199486
0.003592
0.00240031
0.00112786
0.00180153
0.00276288
0.00329605
0.00602066
0.00169782
0.000797854
0.000728453
0.00216693
0.00202555
0.00679248
0.000767031
0.00172603
0.00282771
0.00532657
0.00430818
0.00488588
0.00204113
0.0027802
0.00185969
0.000683162
0.00315134
0.00439988
0.00269048
0.00055158
0.00185041
0.000560582
0.00226195
0.00326125
0.00131227
0.00455878
0.00477957
0.00485632
0.00185304
0.0032514
0.00210446
0.00217216
0.0016099
0.00125168
0.00394529
0.00219705
0.00186168
0.00419336
0.00210266
0.00510785
0.00437873
0.0054623
0.00134864
0.00215363
0.00436665
0.000932908
0.00169459
0.0010841
0.0050758
0.00394092
0.00088807
0.000746687
0.000728156
0.000705228
0.000707017
0.00110445
0.00100622
0.00098693
0.000796205
0.00102432
0.000559178
0.000531025
0.000487528
0.000507393
0.000383261
0.000482338
0.0031698
0.00186864
0.00430048
0.00258906
0.00285728
0.000757872
0.00277414
0.00509596
0.00073396
0.00228821
0.00197278
0.00440223
0.00284364
0.00158926
0.00054842
0.00051498
0.00116102
0.00209305
0.00514579
0.00304644
0.00218376
0.00300838
0.00448124
0.00278248
0.0105399
0.00291094
0.00199516
0.00132373
0.00310104
0.00208177
0.00376582
0.00302451
0.00214443
0.00139216
0.00218597
0.000917267
0.00442427
0.000663593
0.00217999
0.00139232
0.0026311
0.00292829
0.00174387
0.00239635
0.00332287
0.00413645
0.00272033
0.00359173
0.00221948
0.00338044
0.000871585
0.00270188
0.00415667
0.00213385
0.00341706
0.00145177
0.00098481
0.00201762
0.00302211
0.00127764
0.00209761
0.0035227
0.0033453
0.00427767
0.000707648
0.00250553
0.0011959
0.00315887
0.00414765
0.00173193
0.00224371
0.00284792
0.00124912
0.00370224
0.00395016
0.0027393
0.00430683
0.00165037
0.00223656
0.00169118
0.0047663
0.00167481
0.00128234
0.00474508
0.00307442
0.00370498
0.00256501
0.0017055
0.00210694
0.00402895
0.00178755
0.00364437
0.00566143
0.00350113
0.00220008
0.00117072
0.00174603
0.00142536
0.00248988
0.0043524
0.00077816
0.00248496
0.00181069
0.00295418
0.00389538
0.00319722
0.00288023
0.00324071
0.0011528
0.00252208
0.00805103
0.000917042
0.00211887
0.00429384
0.00197716
0.00167143
0.0038619
0.0031991
0.00119691
0.00269871
0.00404289
0.00138014
0.00345144
0.00376273
0.00426587
0.00269332
0.00143886
0.000523582
0.00258827
0.00297578
0.00339073
0.00353488
0.0020777
0.00374437
0.00177072
0.00256376
0.00281227
0.00155462
0.00159927
0.00207634
0.000720729
0.00194511
0.0105139
0.00223757
0.00144562
0.0025381
0.00407953
0.00218538
0.00131902
0.00391815
0.00286234
0.000538446
0.00287001
0.00107246
0.00202995
0.00221099
0.00141429
0.00372152
0.00205745
0.00400319
0.00204019
0.00476811
0.00365901
0.00521269
0.00156582
0.00342631
0.00195688
0.0019131
0.00203284
0.000820703
0.00250096
0.00207093
0.00364395
0.00242418
0.0046164
0.00183402
0.00180957
0.000932829
0.00337855
0.00233447
0.0020263
0.00206932
0.000733946
0.00258813
0.00501312
0.00415263
0.00151156
0.00180961
0.00200794
0.00243315
0.00557325
0.0033406
0.000729445
0.000687305
0.00138997
0.00129205
0.00204824
0.00282957
0.00309231
0.00722614
0.00251818
0.00150171
0.00329233
0.00211818
0.00363236
0.00243324
0.0028005
0.000733457
0.00774159
0.00342136
0.00438899
0.0012295
0.00988093
0.00234451
0.00280803
0.000727457
0.00437387
0.00199481
0.0015204
0.00600855
0.00389724
0.00455297
0.00125722
0.0100221
0.000551936
0.00402225
0.00361536
0.002974
0.00364118
0.00630376
0.006171
0.00451642
0.00119412
0.00136753
0.00109694
0.0016813
0.00174858
0.00106655
0.00384492
0.00127274
0.00193585
0.000632856
0.00890995
0.000910314
0.000608177
0.000558326
0.0032094
0.00474254
0.0012898
0.000670578
0.00780304
0.00232411
0.00117964
0.00313103
0.00231722
0.00140464
0.00230922
0.00132299
0.00260977
0.0048969
0.00359079
0.00919963
0.00475665
0.00229519
0.0012669
0.000803168
0.00195201
0.00265506
0.00138005
0.00150575
0.00302212
0.0025628
0.00267826
0.00256688
0.003771
0.00257237
0.00110384
0.00254663
0.00273849
0.0025219
0.00464667
0.00137503
0.00347284
0.00428263
0.00268375
0.0027931
0.00286414
0.00121184
0.000800871
0.00365674
0.00388608
0.00160736
0.00143403
0.00417309
0.00411675
0.00138471
0.00285701
0.000752057
0.000731934
0.00274555
0.00240365
0.000646454
0.00340294
0.0050281
0.00232128
0.00248119
0.00318072
0.0019615
0.0042208
0.00184897
0.00294571
0.00155979
0.000653521
0.000330721
0.00314459
0.000933022
0.00277097
0.00162698
0.00148397
0.000879209
0.00110696
0.000676689
0.00180309
0.000681875
0.00142521
0.00224193
0.00165737
0.000944073
0.000426544
0.000719584
0.000886931
0.00125875
0.000465222
0.000326626
0.000878858
0.00160302
0.000881168
0.00124083
0.000981914
0.000738294
0.000546938
0.000376184
0.000454105
)
;

boundaryField
{
    frontAndBack
    {
        type            empty;
    }
    wallOuter
    {
        type            nutkWallFunction;
        Cmu             0.09;
        kappa           0.41;
        E               9.8;
        value           nonuniform List<scalar> 
96
(
0.000104604
8.95553e-05
8.28576e-05
0.000124984
0.000126948
0.000123523
5.77617e-05
5.72595e-05
5.40907e-05
6.54583e-05
5.11765e-05
5.92555e-05
5.6335e-05
0.000131136
6.1818e-05
7.07272e-05
0.000120919
9.42101e-05
5.57618e-05
5.83785e-05
5.04206e-05
5.84373e-05
9.57579e-05
7.61347e-05
0.000114532
0.000101968
0.000101239
9.82774e-05
8.5948e-05
9.11911e-05
0.000116624
9.94964e-05
7.22465e-05
8.6775e-05
7.72433e-05
8.12604e-05
8.73863e-05
0.00012675
9.23097e-05
8.062e-05
8.10769e-05
9.60469e-05
9.36964e-05
8.84546e-05
9.42229e-05
8.45242e-05
8.5446e-05
8.95434e-05
8.88241e-05
9.04143e-05
0.000115645
9.01845e-05
8.45364e-05
6.67792e-05
0.000100735
8.74997e-05
0.000137382
9.35526e-05
8.56668e-05
9.02485e-05
8.121e-05
6.68566e-05
6.8075e-05
0.000152301
0.000109763
0.000126507
0.000104749
9.08552e-05
8.65304e-05
8.39034e-05
8.41202e-05
0.000128751
0.000117937
0.000115807
9.43592e-05
0.00011995
6.79777e-05
6.46146e-05
5.93498e-05
6.17605e-05
4.64606e-05
5.87675e-05
8.93563e-05
6.63273e-05
7.88902e-05
8.38004e-05
9.23453e-05
6.3269e-05
8.56024e-05
8.71667e-05
8.57447e-05
8.09586e-05
6.70941e-05
0.000139171
7.56526e-05
6.77507e-05
)
;
    }
    inlet
    {
        type            calculated;
        value           nonuniform 0();
    }
    outlet
    {
        type            calculated;
        value           nonuniform List<scalar> 9(0.00885567 0.0106259 0.00184453 0.00639352 0.008982 0.00602066 0.00131227 0.00338044 0.00415667);
    }
    wallInner
    {
        type            nutkWallFunction;
        Cmu             0.09;
        kappa           0.41;
        E               9.8;
        value           nonuniform List<scalar> 
126
(
0.000106934
9.91994e-05
7.95011e-05
0.000137004
6.11871e-05
6.44584e-05
0.000125584
7.26707e-05
0.000169253
7.57088e-05
6.7011e-05
0.000114244
0.000286818
8.79215e-05
0.000114782
6.71903e-05
0.000124924
6.75027e-05
0.000173881
0.000150321
0.000127352
0.000137443
0.000111982
0.000134956
0.000198441
8.60685e-05
0.000108087
0.000141027
0.00012905
5.27041e-05
0.000125087
6.72991e-05
0.000201654
0.000110652
0.000194752
0.000102411
0.000204584
9.57352e-05
0.000128065
5.36482e-05
0.000160093
9.38353e-05
0.00010297
6.54169e-05
0.000102266
8.16837e-05
0.000142843
0.000226648
8.40276e-05
0.000155658
0.000158126
0.000125496
0.00015931
4.61222e-05
0.000128011
0.000178078
5.06109e-05
0.000189781
0.000172585
0.000131656
0.000185293
8.65264e-05
9.47685e-05
0.000147119
0.000200339
0.000152925
0.000139618
0.000135171
0.000168593
0.000149723
0.000156268
0.00013471
5.11828e-05
5.96128e-05
0.000169895
0.00015676
5.83488e-05
0.00010218
0.000204506
0.000104345
0.000180773
0.000102452
0.000145929
6.04426e-05
0.000158099
8.82155e-05
0.000114005
0.000137041
0.000115466
6.14937e-05
5.46225e-05
4.50743e-05
5.60298e-05
8.90695e-05
5.30454e-05
5.48205e-05
0.000118293
0.000147664
0.000109616
7.44804e-05
7.83616e-05
3.69805e-05
0.000109328
0.000186312
0.000163642
0.00010135
8.08559e-05
8.10524e-05
0.000162689
0.000250602
0.000184001
0.00011407
5.19739e-05
0.000103654
0.000148637
5.75169e-05
3.9197e-05
0.000105832
0.00018347
7.93093e-05
0.000146504
0.000100314
8.78292e-05
6.69003e-05
4.66631e-05
5.52533e-05
)
;
    }
    procBoundary3to1
    {
        type            processor;
        value           nonuniform List<scalar> 
48
(
0.00491659
0.00366914
0.00371577
0.00472737
0.00365429
0.00273765
0.00366914
0.00464424
0.00525341
0.00126993
0.00126993
0.00156973
0.00156973
0.00514114
0.00539611
0.00164908
0.00197273
0.00163323
0.00197273
0.00180169
0.00434338
0.00394581
0.00180169
0.00138142
0.000819237
0.0016028
0.00362009
0.00394581
0.00393261
0.00138009
0.00138009
0.00439292
0.00439292
0.00525341
0.00166064
0.00310556
0.00490393
0.000819237
0.00524879
0.00304267
0.00514114
0.0050195
0.00506169
0.00180169
0.00539979
0.00106894
0.00357168
0.00467372
)
;
    }
    procBoundary3to2
    {
        type            processor;
        value           nonuniform List<scalar> 
29
(
0.000932832
0.000932832
0.000526169
0.000719257
0.00110888
0.000483954
0.000760078
0.000984858
0.0021521
0.00160265
0.00080459
0.00231857
0.000754798
0.00252511
0.0031857
0.00246754
0.00148968
0.0020637
0.00109565
0.00220751
0.00247102
0.00148968
0.000578956
0.0020637
0.00280323
0.00128167
0.0020637
0.00408629
0.00408629
)
;
    }
}


// ************************************************************************* //
