/*--------------------------------*- C++ -*----------------------------------*\
| =========                 |                                                 |
| \\      /  F ield         | OpenFOAM: The Open Source CFD Toolbox           |
|  \\    /   O peration     | Version:  v1912                                 |
|   \\  /    A nd           | Website:  www.openfoam.com                      |
|    \\/     M anipulation  |                                                 |
\*---------------------------------------------------------------------------*/
FoamFile
{
    version     2.0;
    format      ascii;
    class       surfaceScalarField;
    location    "0.3";
    object      phi;
}
// * * * * * * * * * * * * * * * * * * * * * * * * * * * * * * * * * * * * * //

dimensions      [0 3 -1 0 0 0 0];
oriented        oriented;


internalField   nonuniform List<scalar> 
2708
(
-0.000136744
5.35718e-05
2.37934e-05
5.9379e-05
7.09133e-05
0.000329787
-0.000295729
-0.000104971
0.000951206
0.000191282
-0.000901882
-0.000240606
0.000230611
-0.000224498
1.86609e-05
-2.47738e-05
-0.000206614
-0.000169041
0.000173549
0.000202107
0.000148149
-0.000247362
0.000179609
-8.0395e-05
0.000242005
-0.000159744
5.51926e-05
-0.000137453
-8.62074e-05
0.000268758
-4.69543e-05
-0.000135597
-0.000203244
0.000219592
0.000139957
-0.000156305
0.000127731
0.000447463
-0.000333189
0.000892539
-0.000923268
0.000291081
-0.000260352
0.000252129
-0.000336484
0.000889586
-0.000805231
-0.000525081
0.000440112
-0.000883149
0.000968118
-3.85314e-05
-0.000211485
0.000178943
7.1074e-05
-1.52265e-05
-9.04597e-05
2.32901e-05
8.23961e-05
0.000249893
5.28306e-05
-0.000174993
-0.000569501
0.000490796
-0.000172792
0.000251497
0.000510448
-0.000499932
0.000238715
-0.000249231
0.000304259
7.73078e-05
-0.00036638
-1.5186e-05
-0.000155028
-0.000165018
0.000259902
6.01448e-05
-0.000388563
0.000743447
0.000537656
1.97474e-05
7.43717e-06
-6.57159e-05
-0.000141082
-0.000149984
0.000121539
0.000169528
-0.000268653
-0.00132428
0.00135642
0.000236507
-0.000142019
-0.000202307
-0.00072568
0.000537279
0.000738191
-0.000549789
-0.000889275
-0.000174859
0.000140867
-6.09055e-05
-0.000201968
0.000143129
0.000119744
6.20577e-05
-0.000492052
0.000429994
-3.09315e-05
-0.000387285
0.000418216
0.000447202
3.20108e-05
-3.91555e-05
-0.000440057
-0.00062837
7.54075e-05
-3.54861e-05
0.000588449
0.000425822
2.65114e-05
-8.59399e-06
-0.00044374
-0.000126873
0.000137475
2.10677e-05
-3.167e-05
0.000453933
0.000190543
-0.000524502
-0.000119974
-5.60159e-06
0.00016629
-0.000162123
1.43466e-06
-8.31535e-05
0.00122842
0.000121973
-0.000157042
9.46901e-05
0.000132429
-7.0077e-05
0.000221461
-1.51196e-05
-0.000262686
5.63448e-05
0.000121994
0.000463636
-0.000557563
-2.80667e-05
-0.000323539
0.000230746
0.000909665
0.0013785
-0.000763263
-0.000487498
0.000159877
1.29602e-05
-0.000100533
-7.23037e-05
-4.10822e-05
0.000110969
-7.18234e-05
1.93632e-06
1.2245e-05
0.000133447
-8.6741e-05
-5.89511e-05
2.23496e-06
-5.4556e-05
1.16617e-05
4.06594e-05
-0.000829713
0.000113484
-0.000173046
-4.2133e-05
-2.18177e-05
-9.57931e-05
0.0001115
-7.82762e-05
-0.000100845
6.76211e-05
-2.41892e-05
-0.00068029
0.000676691
2.77873e-05
-5.71804e-05
4.25748e-05
0.000226454
-0.000211849
0.000814882
-0.000556933
-0.000343143
8.51946e-05
-8.19389e-06
0.000292436
-0.00013807
-0.000146172
4.93786e-05
0.000390133
-5.21125e-05
-0.000387399
-0.000473346
0.000758003
0.000188
-0.000472657
0.000134618
-0.000139087
-5.57451e-05
6.02138e-05
-0.000518973
-0.000385879
0.000590582
0.00031427
0.000510605
-0.000125723
-0.000384882
-4.13914e-05
9.98217e-05
-5.84303e-05
-7.6132e-05
-0.000292035
0.000162167
0.000129868
1.24192e-05
5.57443e-05
-6.81635e-05
-7.75158e-05
-7.95264e-05
0.00014681
7.46507e-05
0.000183406
7.48224e-05
-0.000800153
0.000255506
-0.000214236
8.25206e-05
-0.000157051
0.000189206
-3.21548e-05
-9.22531e-05
0.000141638
-4.93845e-05
-0.000121234
9.8384e-05
2.28504e-05
-0.000127646
7.72808e-07
-0.000198978
4.66071e-05
9.10995e-06
0.000128365
-0.000174794
-3.66913e-05
8.43509e-05
-7.21059e-05
-0.000770016
0.000124557
0.000645459
-0.00053795
0.000231727
0.000306224
0.000318535
0.000128928
0.000250083
0.000260364
-0.000459328
-0.000110174
0.000160163
-0.000302764
0.000142601
-0.000101435
5.61368e-05
0.000585866
-0.000540567
-0.000138587
0.000196721
-5.58982e-05
-8.57401e-05
5.52451e-05
0.00125493
-0.00122444
2.33195e-05
-7.30888e-06
-3.23502e-05
1.63395e-05
0.000382028
-3.77523e-06
1.53727e-06
-0.00037979
4.87512e-05
-5.47421e-05
1.13138e-05
-5.32289e-06
1.47616e-05
2.70487e-05
-0.000939567
0.000897757
-7.2814e-05
2.24461e-05
-0.000734547
0.000784915
-2.03554e-05
0.000151489
3.48443e-06
0.000191199
-0.000181842
-2.97119e-05
-1.06699e-05
-3.36366e-06
0.000108724
-9.34595e-05
8.30515e-05
-6.13744e-05
7.17824e-05
0.000420919
-0.000407868
3.63283e-05
1.43171e-05
-0.000279586
0.000265269
-0.000388078
-0.000182189
-0.000442962
0.000495558
0.000129593
0.000194951
0.000117353
-0.000152427
-0.000546885
0.000540086
6.79883e-06
0.000927259
-0.000623947
-0.000776658
-0.000279529
0.000182445
-0.000343434
2.95824e-05
-6.74498e-05
0.000381302
0.000103044
-0.00011402
0.000316926
-0.00030595
-0.000484174
-0.000315696
0.000261919
-0.000658004
6.92903e-06
0.000669536
-1.84604e-05
1.88957e-05
0.000689666
-0.000664654
-4.39071e-05
-0.00013763
0.000624457
-0.000682297
0.00019547
0.000143194
-0.000164653
-0.000128526
0.000429745
-0.000262574
-0.000136064
0.000197717
-0.000827606
0.000188277
0.00107944
0.000205969
-0.000398495
0.000578588
-0.000386062
-0.000462401
0.000422988
0.000270159
5.13864e-05
0.00040966
-0.000122263
5.1297e-05
3.16324e-05
-0.000184094
0.000207414
-6.50966e-05
-4.26087e-05
-4.96444e-05
-2.58363e-06
-8.78761e-05
8.23448e-05
-9.05387e-05
-3.31564e-05
-7.91873e-06
0.000106303
0.000214955
0.00010358
0.000181189
1.3184e-05
-6.33305e-05
7.34367e-05
6.39817e-06
0.000685574
-0.00050069
-0.000188657
0.000353501
5.5778e-05
-0.000220622
0.000154987
0.000335809
-0.000152517
-0.000347415
-0.000486264
-9.32018e-05
0.000390809
2.94945e-05
-0.000320623
0.000595388
-0.000199235
0.000287271
-0.000243064
9.45197e-05
-3.51813e-05
-0.000159658
0.000155514
-0.000206756
0.000285947
-0.000234705
-0.000180024
0.00017064
0.000171551
0.00129382
9.16537e-05
-0.00125522
-0.000130249
0.000121759
-0.000144049
0.000128929
0.000445793
2.89027e-05
3.59337e-05
-0.000510629
-6.89901e-05
0.000114783
7.57463e-05
6.8061e-05
0.000372078
-0.000139736
-0.000551823
0.000639027
0.000840055
0.000285362
8.40306e-05
-0.000119173
-2.36038e-05
-5.33944e-05
0.000567619
6.19524e-06
-0.00052042
-2.45435e-05
-0.000159551
-0.000588823
1.50334e-06
-9.14423e-05
0.000678762
-9.90916e-05
7.73758e-05
1.83521e-05
-0.00121797
-0.000150799
0.00119352
0.000175252
0.000278204
0.00045777
-0.000354508
-0.000381466
-9.44797e-05
5.39801e-05
-0.00065019
0.000690689
-0.000386817
0.000374597
1.97206e-05
-7.49991e-06
0.000966511
-0.000841339
0.000142006
-0.000267177
-0.000840379
-0.000416635
0.000373865
0.000409533
-0.000369963
-0.000215179
0.00017561
4.3048e-06
-0.000420067
0.000417589
-1.82697e-06
-4.6652e-05
0.000128997
-0.000335068
0.000162412
3.5911e-05
0.000429801
4.25038e-05
5.35992e-05
-2.16254e-05
0.000455216
-0.000468182
-4.36004e-05
5.65658e-05
-8.76285e-05
-0.000854653
2.60058e-05
0.000916276
-0.000436608
-0.00074454
0.000629326
7.04502e-05
0.000478537
-3.16688e-05
-0.000517318
0.000301142
-0.00160756
6.34137e-06
0.00130007
0.000410146
-0.000171479
9.11196e-05
0.000319733
-0.00123656
-5.56597e-05
-0.00042411
-6.49405e-06
0.000232314
-0.000125248
1.06762e-05
0.000736693
6.75123e-05
0.00044147
7.80928e-06
-0.000361656
-8.76231e-05
-0.000149784
-0.000264549
-5.53171e-05
0.000224373
-0.000315146
0.000192433
-0.000101659
0.0011887
-0.00118982
-0.000267535
0.000151725
-6.77342e-05
0.000148324
-0.000498626
0.000517522
-0.00027282
0.00013519
9.10263e-05
0.000597324
-0.0007526
0.00040609
-0.000116655
0.000463165
-4.35586e-05
-4.54059e-05
-0.00103522
0.00112419
0.000514063
-0.000581086
0.000135084
0.000670641
-0.000573377
-6.13202e-05
-3.59442e-05
0.000557247
-0.000854529
0.000419275
0.000538408
-6.97896e-05
0.000155838
-1.7084e-05
0.000313486
0.000686899
-0.000542615
-0.000312168
-0.000277528
0.000407508
0.000589528
-0.000623381
0.000203025
-0.000169173
0.000125308
-1.19559e-05
7.58536e-05
-3.74297e-05
4.76813e-05
8.13123e-05
-9.1564e-05
0.000164236
-0.000116429
-3.13361e-06
-4.46735e-05
-0.000117587
0.000415892
0.000111228
-0.000571349
-0.000409709
0.00072088
0.000260178
-1.00438e-05
0.000397132
-0.000384812
-2.27628e-06
0.000110314
0.000656567
-0.000788589
2.17079e-05
5.93433e-06
0.000585231
-0.000587859
-3.3062e-06
0.000126455
-0.000753243
0.000797785
-0.000170997
-0.000136816
-1.0344e-05
0.000108113
3.90469e-05
0.00118954
-0.0012135
-8.00726e-05
0.000104031
-1.63604e-05
3.25026e-05
-3.81111e-05
3.56394e-05
2.47171e-06
-7.55431e-05
0.000124841
-0.000419262
0.000716851
7.0154e-05
-9.73394e-05
-0.000582692
-2.60168e-05
-4.92955e-05
-0.00010782
-0.00121575
0.00123783
-0.000222197
-3.14751e-05
-0.000293212
0.00070946
-0.000174734
-0.000588121
0.000298504
0.000563953
-0.000272928
0.000395127
-0.000170778
0.000228151
-0.000452499
0.000221031
-0.000570449
-0.00022193
0.000509336
0.000332648
-0.000677571
-0.000164412
-3.26238e-05
0.000135324
0.000121672
0.00024814
-0.000113665
0.000328058
-0.000462533
-1.98756e-05
0.000428845
1.59872e-05
-0.000424956
-0.000684916
0.000605429
-0.00117102
0.00118861
-0.000125414
-0.000549564
0.00068137
-0.000541516
-6.89141e-05
8.11683e-05
-0.000449635
2.96435e-05
0.000752639
-0.000433606
6.76795e-05
0.000586957
-5.85557e-06
-0.000332528
0.000446966
-0.000108582
-1.45095e-05
1.14544e-05
0.000450257
-3.12321e-06
-0.000666613
0.00067567
0.000429384
-0.00013543
0.000263292
-2.66029e-05
-0.000658509
5.67413e-05
-0.000730431
-0.000144246
0.00078546
8.9217e-05
0.000709332
0.00018716
-0.00017964
-4.49554e-05
-0.000423362
-0.000114375
-8.00858e-05
0.000332642
0.000261507
-6.57136e-05
5.2766e-05
9.43944e-05
-8.14467e-05
-0.000360079
0.000356233
-5.18136e-05
-0.000311091
0.000329251
0.000329148
-0.000347308
0.00011868
-0.000100159
-0.000337315
0.000489595
-0.000197235
-1.15085e-05
-0.000104178
-6.74495e-05
8.00425e-05
9.15845e-05
-0.000354587
0.000217667
-0.000298448
0.000801661
0.000346373
-0.000584688
-0.000439256
-0.000115569
5.5636e-06
3.23198e-05
-2.46994e-05
-0.00036735
0.00115894
-0.000776831
-0.000404332
2.18196e-05
0.000419457
1.96436e-05
-6.03019e-05
3.06565e-05
-0.000997002
-0.000152999
0.000619031
0.00053097
-0.000417355
1.17782e-05
1.24492e-06
-0.000178614
0.00119859
0.000168635
-0.000614497
0.000741267
-0.000313739
0.000186969
-1.86134e-05
0.000403878
0.000164599
-0.000101501
-0.000466976
6.04362e-05
-0.000374177
-0.000164085
0.000244065
-2.60398e-05
-0.000408114
4.73094e-05
-0.000385853
-0.000537973
-0.00058204
0.000247033
-0.000228599
-0.000248135
0.000229701
-4.11899e-05
0.000165836
0.000413762
0.000116415
-0.000728461
-4.86506e-05
-9.04364e-05
5.74148e-05
1.67894e-05
0.000722151
0.000187008
-0.000199827
-0.000302471
-4.53701e-05
-9.10662e-05
5.43561e-05
-2.90035e-05
0.00114283
-0.000263949
-3.84081e-05
0.00040029
0.00141366
-0.00018135
-8.94748e-05
-0.000634443
-0.000136769
2.85915e-05
0.000742621
-0.000579191
0.000576068
-0.000587676
0.000774836
-0.000561457
0.000535383
-0.000410533
-0.000192418
0.000694587
-0.000978387
0.000476218
6.19463e-06
0.000285798
0.000545076
-0.000336682
-9.59738e-05
-0.000112421
0.000387412
-6.34277e-05
-0.000385368
6.13829e-05
-0.000171988
0.000597594
-0.000527042
-0.000955685
-0.000100046
5.87284e-05
-0.000290927
6.80227e-05
-9.75222e-05
0.00119067
-0.00116117
0.000255581
-0.000161858
-0.000198694
-1.15078e-05
-0.00017651
0.000221327
-0.000230595
0.000185778
7.13435e-05
-0.000452426
4.56013e-05
-0.000632477
-4.51168e-05
0.000631993
3.29564e-05
-0.000688492
2.81324e-05
-0.00064218
0.000299375
-0.000572194
5.77215e-05
-0.000556347
0.000108645
-0.000311266
-1.95764e-05
-0.000572283
-6.90732e-06
0.000545201
0.000543062
-0.000449236
0.000589195
-0.000415732
-0.000173463
5.06904e-05
-0.000322505
-3.06569e-05
-0.000740725
0.0008055
-0.000161138
9.63619e-05
-0.000294859
-0.000535446
0.000154124
0.00067618
-0.000425058
-1.21726e-05
-0.000270406
-0.0007001
0.000556108
9.55138e-05
0.00119983
-0.000443789
6.66337e-05
-0.000628731
0.000690505
0.000251712
4.34891e-05
0.000171466
9.23496e-05
-6.53999e-05
2.42099e-05
0.000147248
-0.000183619
0.000255963
-0.000508608
0.000302423
1.40073e-05
-0.000636526
-8.61566e-07
5.07037e-05
-2.00374e-05
-6.34545e-05
0.000224436
-0.000140944
-0.000578648
0.000568401
0.000699954
-0.000689707
0.000350026
-0.000333864
-0.000286568
0.000279588
-0.000101298
-0.000315036
0.000115898
-0.000103626
0.000797509
-1.9317e-05
-0.000732591
-0.000241315
7.76605e-05
0.000389936
-0.000226281
-0.000740871
-0.000161011
0.00022505
0.000154826
-0.000140814
-0.000198955
0.000184943
0.000320873
-0.000344014
6.20267e-05
-3.88857e-05
0.000528247
-1.51658e-05
-9.36245e-05
0.000565354
-0.000591371
0.000160332
-6.50528e-05
-0.000127434
0.000153828
-0.00014269
-0.000187648
5.45878e-06
-4.30004e-06
1.25318e-05
-1.36905e-05
-0.000364886
-2.1233e-05
-0.000815675
0.000185265
-0.000242866
0.000119179
0.000264348
-0.000140661
-0.00015474
-0.00067017
-0.000228456
0.000288033
-0.000300892
0.000105021
0.000158828
-0.000750428
-0.000224075
-0.000317486
0.000388087
-0.000614834
0.000544233
-4.94938e-05
0.000630767
-0.000158285
-0.000190028
7.85431e-05
0.000258733
-0.000850422
0.000537723
0.00064534
-7.46342e-06
-0.000199765
0.000726085
-0.000493809
0.00118138
-0.00035083
-0.000595386
4.89817e-05
0.000624608
-6.82121e-05
-0.000605377
0.000206364
-0.000297203
0.000419322
-0.000328483
0.00020587
0.000195646
-0.000222123
-0.000179393
0.00101353
-5.17109e-05
-0.00016431
0.0004066
0.000374289
-0.000421635
-0.000359254
-0.000172802
0.000209055
0.000169617
0.000330293
-0.000274563
-0.000138403
8.26727e-05
0.000354363
-3.24407e-05
0.0011417
-0.00146362
-0.000108213
0.000102357
6.91847e-05
-0.00130617
0.00119342
-9.71276e-06
2.73378e-05
2.12234e-06
-0.000328512
-5.7421e-05
0.000128338
-0.000796992
0.00118702
1.72995e-05
-0.000407324
-0.000167306
0.000179116
-0.000535089
0.000427332
0.000133575
-0.000695135
0.000623617
-7.01613e-05
-0.000505961
0.00054519
0.000805064
-0.000824085
-0.000136999
6.92297e-06
-3.89655e-05
-0.000529801
8.51257e-05
0.00103307
-0.0005884
-0.000356019
-0.000265361
0.000310289
0.00048559
4.51317e-05
0.000973061
-0.000984007
-0.000114468
0.00037516
-3.4064e-05
-3.51191e-05
6.16978e-05
7.48535e-06
5.98782e-05
4.23802e-05
-0.00050171
0.000399452
-0.000179431
0.000973878
0.00035296
-0.000323355
-0.000869984
-0.000302481
0.00022575
-6.03143e-05
0.000148067
0.000135857
-0.000223609
-0.000290739
-0.000894264
-0.00072305
-4.12648e-05
0.000213135
3.65401e-05
-0.00020841
0.000655323
3.91951e-05
-3.15494e-05
-0.000662969
0.000156081
-3.14397e-05
-0.000119231
-5.41066e-06
0.000532015
-0.000709728
0.000380738
-0.000394973
-0.000330375
0.000369329
0.000336092
-7.30608e-05
-0.000483843
-1.98335e-05
0.000117154
0.000386522
-0.000666391
3.44501e-05
0.000148098
-0.000431657
-5.14864e-05
5.80849e-05
0.00080027
-0.000213744
-0.000354958
-0.00060312
0.000499631
-0.000101707
0.000205197
-0.00035585
-0.000124449
-0.000122821
-0.00011511
0.000127245
9.99443e-06
-0.000257435
-5.46199e-05
0.000302061
0.000518286
-0.000523448
0.000379451
-4.2559e-05
0.00037515
-0.000472889
0.000589469
-0.000130514
0.000452811
0.000296734
0.000115268
0.000184337
-0.000134512
-0.000165093
0.000391013
-5.76872e-05
-5.09331e-05
-0.000282392
-0.000170476
-6.68923e-05
5.1253e-06
1.10496e-06
-6.23026e-06
-8.56394e-05
9.10806e-05
0.000414803
7.97902e-06
-3.17692e-05
0.000586596
-0.000306308
-0.000202628
0.00040766
1.62985e-05
-9.15619e-06
-0.000373815
0.00043523
-0.00041091
0.000349495
-4.4283e-05
0.0001591
7.16879e-05
0.00032753
-0.00028332
0.000437246
0.000337348
-0.000444092
-0.000330502
-5.51889e-05
5.35524e-05
-0.000423768
0.000409716
-3.2965e-06
1.24129e-06
-0.000121823
0.000630206
0.000211866
-0.000413934
-0.000765964
3.97941e-05
0.000481093
0.000368348
-0.000352737
-3.17368e-05
1.84862e-05
0.000422966
8.04522e-05
-6.1606e-05
-0.000155845
-0.000276486
-0.000100646
0.000212113
0.000102141
0.000232366
-0.000257199
0.000412236
0.000162008
-0.000368275
-0.000223626
-0.00126261
0.00016196
-0.000592095
0.000499788
0.000341438
-0.000249132
0.000433382
-0.000401926
0.000571632
-0.000603088
0.000657791
-0.000816503
0.000494477
-0.000318219
0.000363324
0.000639593
0.000322376
-0.000304178
-0.000427447
0.000999749
-0.000730444
0.000158143
0.000711934
9.36796e-05
0.000714328
-0.000571933
-0.000236075
0.000800407
0.000293022
-0.000316586
0.000218318
0.000812597
-3.67086e-05
-0.000203661
0.000130336
0.000110033
0.00111965
0.000541023
-0.000372504
-0.00128817
-2.26757e-05
0.000195022
-1.35906e-06
0.000174329
7.44125e-05
-0.000224848
9.59889e-06
-0.000146609
1.25516e-05
7.50511e-05
5.90067e-05
0.000127501
-4.96738e-05
9.28471e-05
-5.41361e-05
-0.00029254
0.000253829
-0.000114477
8.79729e-05
3.78505e-05
-1.13469e-05
-0.000148783
-7.32916e-06
4.16355e-05
-7.62239e-06
-0.000207692
0.000147641
6.76738e-05
1.19237e-05
3.69178e-05
-0.000143228
9.43867e-05
-7.90077e-05
-0.000176672
-0.000115559
-9.92811e-05
9.4066e-05
-8.75035e-05
6.7414e-05
1.03768e-05
-0.00111843
6.42241e-05
0.00103901
1.52004e-05
4.99198e-05
-7.29624e-05
-5.59651e-05
0.000324612
0.000288076
-0.000467104
2.37553e-05
-2.3286e-05
0.000167301
0.000125445
5.93032e-06
-0.000298677
-0.00120498
9.28902e-05
-0.000143728
6.58061e-05
-2.13595e-05
-0.000130022
0.000377879
0.000232371
-0.000150472
8.54022e-05
-0.000510695
-0.000115357
-0.0013278
0.000183254
0.000187762
3.6986e-05
-0.000412417
-0.000823727
-6.66305e-05
9.57021e-05
-1.61115e-05
-0.000124589
-0.000156758
-0.000132164
4.99679e-05
-6.03562e-05
-4.79478e-05
5.83361e-05
-0.00144766
0.000261628
0.000835367
-0.000609031
0.000893314
-3.69812e-05
-0.00023726
0.000149047
-9.05427e-05
9.70096e-05
-1.62988e-05
3.84494e-05
1.67297e-05
-5.82671e-05
4.35967e-05
1.183e-05
9.43372e-05
-3.55849e-05
-0.00105507
0.000442769
6.99345e-05
7.82609e-05
-0.000153797
0.000348295
-0.000247159
6.4354e-05
9.40872e-05
-0.000114845
-6.49742e-05
8.10136e-05
0.000161896
-0.000464372
0.00048311
0.000142455
-0.000134769
0.00016246
-0.000170146
-0.000850528
3.24498e-05
0.000167511
-0.000130026
-0.00037058
0.000129215
-0.000260146
-0.000108216
8.07303e-05
0.000287631
8.80589e-05
-0.000152495
7.79604e-05
-1.35248e-05
-0.000163204
0.000175848
4.22358e-05
-0.000154478
0.000196134
-0.00135331
0.000130276
-0.000135708
-5.23877e-05
0.000220545
2.57781e-05
0.000203446
-3.80258e-05
0.000191752
-1.55928e-05
0.000134571
-0.000310731
0.000428923
0.000662333
-0.000553976
1.05355e-05
7.9141e-06
0.000114387
7.73656e-05
-0.000328745
-0.000955722
-6.88409e-05
-0.00121833
-0.000437188
0.000182705
-7.44248e-05
-7.03048e-05
1.2858e-05
-5.12364e-05
0.000114116
0.000128878
4.11929e-06
-0.000107219
0.000254509
-8.57316e-05
0.00010858
3.45959e-05
-4.10351e-05
1.35567e-05
-5.57698e-05
-0.000235379
0.000349766
0.000312888
0.000173761
-0.000345219
9.42472e-05
-0.000303558
0.000449851
-9.85892e-05
0.000102992
-0.000820991
-7.28066e-05
3.1836e-05
-1.35854e-05
6.27957e-05
-8.54131e-05
4.96381e-05
-0.00010264
-0.000446604
-0.000313631
0.000672405
0.000343673
-0.0003581
2.25352e-06
-0.00150486
-0.000271854
0.000338637
-1.04304e-05
0.000109085
-1.84942e-05
1.95991e-05
-4.19213e-05
0.000406321
-0.000493081
-0.000395562
0.000482323
0.000801078
-0.000955881
-0.000129081
3.3946e-05
-3.45453e-06
0.000728059
-0.000364701
-0.000726891
0.000363533
-5.59354e-05
6.80011e-05
7.38354e-05
0.000264472
-5.81079e-05
-0.000251401
0.000647372
0.000276435
7.91935e-05
0.000122947
-0.000472337
0.000601725
-0.000187075
-0.000257807
-0.000231209
0.000489017
-2.27842e-05
0.000188281
-0.000208056
0.000193539
0.000275577
-8.95521e-05
0.000207586
1.5443e-05
-0.000364347
0.000291419
-0.000432313
0.00064176
-0.000209447
0.000138804
-0.00011151
-0.000660241
0.00036488
-0.000394989
0.000690351
-0.000601174
0.000243356
-0.00012857
0.000486387
-0.000180442
-4.76789e-05
0.000292315
0.000407295
-0.000461747
0.000418022
-0.00036357
-1.95907e-05
-6.51925e-05
1.66197e-05
0.000151049
-0.000347579
0.000327947
2.75043e-05
-0.000307262
0.000261392
-0.000167841
-0.000710548
0.000548568
-0.000226583
-0.000397639
-0.000579188
-0.00133297
-0.000353236
0.000645918
0.000324175
-2.84e-05
-0.000617406
0.000694787
-0.000500314
0.000665112
-0.000105851
-0.000677125
0.000754575
0.000295371
1.00227e-05
-0.000376005
-0.000269205
0.000337948
2.13313e-05
-0.000327832
7.75613e-05
0.000228939
-0.000466201
0.000439376
-4.91204e-06
-0.000688904
0.000207046
0.000869946
0.000237821
0.000780904
0.000132489
7.39082e-05
-0.000585797
0.00054067
4.51277e-05
0.000533316
0.000379792
-0.000410915
-7.15171e-05
3.42588e-05
6.33038e-05
-9.75626e-05
0.000400534
0.000676617
-0.00078413
0.000514438
-0.000421887
-0.000480225
1.0727e-05
0.000331684
-0.000382837
-0.000637751
-0.000131305
0.000114658
-5.61598e-05
0.000529133
0.000338022
-0.000529806
0.000374033
0.000669664
-0.000691596
0.000663969
-0.000223669
0.000218802
-0.000279907
-0.000691648
-3.22985e-05
5.1388e-05
3.05486e-05
0.000498985
-0.000474456
8.01865e-05
-0.000102971
-0.000765587
-0.00070799
0.000485484
0.000450657
-0.000611884
-0.000255969
0.000283165
-0.000556867
0.000212981
-0.000289507
0.000633393
-8.58612e-05
4.46458e-05
0.000144207
0.000123307
0.000592991
-6.09755e-05
0.000973444
0.000734942
0.000360423
-0.000355941
1.40045e-05
0.00013041
0.000618596
-0.000576317
-0.000354974
0.000312696
0.000207736
0.000183503
-0.000103206
-0.00109823
0.00102144
0.000379074
-0.000595009
8.51023e-07
-1.31163e-05
3.34782e-05
-2.12129e-05
-3.16676e-05
-2.97943e-05
1.81369e-05
-0.000452578
-0.000242684
-0.000331977
0.000248953
-0.000583368
0.000318735
0.000595704
-0.000117947
0.000107923
0.000160259
-0.000183023
0.000221354
-0.00019859
0.000141109
0.00109705
-0.000918429
2.30137e-06
7.40972e-06
0.000112878
0.000403942
-0.000456942
0.000552592
-0.000265053
0.000153931
5.69906e-05
-0.000191413
-0.000184373
6.05752e-05
0.000480094
-0.0005394
0.000535354
-0.000327931
-0.000427188
-0.00017208
-0.000283022
0.000534503
-0.00033777
-0.000505726
0.000286629
-2.26156e-05
5.11627e-05
-0.000118906
0.00043242
0.000599994
-0.000226914
0.000574903
-0.000132719
-8.99188e-05
8.26071e-05
0.000788215
0.000134698
0.00031667
-1.19916e-05
0.000326023
0.000575951
0.000802193
-0.000957242
-7.80591e-05
-0.000160058
-9.28033e-05
0.000163309
-0.000134757
7.10944e-05
0.000116743
-9.72986e-05
0.000475452
0.000240093
-0.000249839
-4.20674e-05
-2.70177e-05
2.22682e-05
0.000365172
3.00133e-05
5.01732e-05
-0.000447346
-0.000109124
-1.22687e-05
-0.000428473
-0.00033445
-0.000311371
-0.00019173
-0.000388205
0.000866312
0.000205761
-0.000541103
3.93129e-05
2.39909e-05
0.000488548
0.000119457
0.000332325
-0.000136296
-0.000887314
-0.000185316
0.000224766
-0.000367635
-3.06693e-05
2.28e-05
-0.000343029
0.000373211
0.000232618
2.92428e-05
-7.67066e-05
-0.000223175
-0.000122106
0.000563171
0.000530646
3.53947e-05
0.000451397
0.000963887
-0.000908642
0.00108756
-0.000424071
-5.56327e-05
3.74183e-05
9.82568e-05
0.00105262
-8.87293e-05
-5.72191e-05
0.000127988
0.000233556
-0.000196582
0.000173651
-0.00040842
-0.000319705
-0.000367482
-0.000839451
-6.91914e-05
0.000144636
-0.000350035
0.000294387
-8.89877e-05
0.000513203
-0.00090042
0.000431966
-4.47493e-05
0.000378896
0.000438823
-0.000123248
-5.80518e-05
0.000113963
-0.000288158
0.000313041
-2.48831e-05
-0.000339131
0.000120067
0.00025301
0.00022222
0.000274017
0.000170615
-0.00026748
-2.06781e-05
-0.000221052
0.000243899
-2.28465e-05
-0.000600487
-0.00043577
0.000480062
-4.42914e-05
-0.000109536
2.78493e-06
-0.00020461
-1.64419e-05
0.00100299
0.000395463
-0.000362233
-3.32302e-05
-0.00027538
-0.000527355
4.38494e-05
-0.000507775
-2.35816e-05
1.62933e-05
3.38799e-05
-0.000100537
0.00115315
2.39048e-05
1.54081e-05
-4.03076e-05
0.000269752
-0.000203845
0.000244382
-3.44478e-05
1.94142e-05
-0.000263181
0.000278215
-8.19374e-05
-6.74493e-05
-0.00018836
-0.000599476
-0.000105128
-0.000712366
0.000190979
0.000654962
0.000576957
-0.000739239
0.000274286
-4.65943e-05
5.3253e-05
-0.000136481
-7.83856e-06
-9.11698e-05
-0.000168674
5.75015e-06
3.98442e-06
-0.000606353
-1.58207e-05
0.000565732
0.000555659
-0.000580022
-0.000418148
0.000154597
-0.000152181
2.67412e-05
-0.000413876
0.00042253
-0.000482941
-0.000403025
-0.000607488
0.000596579
-4.47987e-05
-0.000471869
0.000482331
7.07061e-05
0.000261811
-0.000419565
0.000220285
0.000129858
-6.03842e-05
5.05931e-05
0.000277736
-1.40913e-05
-4.14242e-05
0.000166553
2.03554e-05
0.000536199
-0.000771428
3.87362e-05
0.000311031
-0.000309088
0.000277419
-0.000122625
-0.000181357
0.000186478
-0.000607676
0.000520531
0.000428583
-0.000317762
0.000370018
-3.75327e-05
-0.000263313
0.000233396
1.48285e-05
-0.000208597
8.49481e-05
4.69655e-05
-0.000141306
-0.00015337
0.000291246
0.000509496
-8.68973e-06
6.25672e-05
-0.000400677
4.35127e-05
7.17491e-05
0.000313147
4.87881e-05
6.00649e-05
3.47755e-05
-0.000256311
7.93328e-05
0.000157529
-0.000109362
-0.000158923
3.72358e-05
-0.000243549
-0.000214855
0.000198872
0.000163604
-9.14813e-05
0.000292511
-9.32175e-05
-0.000126776
-3.24757e-05
-2.46552e-05
-2.57344e-05
-8.84306e-06
-0.000345857
1.34695e-05
0.000405417
-3.91663e-05
3.23388e-05
0.000196699
4.63002e-06
0.000132854
7.99676e-05
-0.000111267
0.000211916
-0.000245092
3.3176e-05
-0.000784699
0.000825958
-0.000354784
0.000352945
0.000223166
3.00861e-05
-0.000305694
-0.000413778
-0.00041743
0.000535717
-8.87726e-06
0.000339783
-0.00124256
-0.000250532
0.000252678
-0.000746666
0.000865829
8.48971e-07
-0.000579487
-0.000387962
0.000478474
-0.000205826
-0.000254467
-0.000452739
0.000171914
7.30572e-06
4.29144e-05
0.000165535
-0.000169713
-0.000409934
0.000154151
-0.000279662
0.000174559
-0.000184965
1.26597e-05
0.000452997
4.24328e-05
-8.55657e-06
-3.18052e-05
7.24364e-06
-0.000285176
0.000448335
8.40602e-05
-0.000647428
-0.000209046
0.00072921
-4.71417e-05
0.000225828
1.50035e-05
-0.000198427
0.000627103
-0.000608108
-2.83996e-05
0.000419038
-0.000209246
0.000137056
-0.00120003
0.000102956
-0.000181339
-0.000561612
0.00034589
0.000397061
-4.58184e-05
0.00100475
-0.000414326
0.000132434
8.91748e-05
-0.00099384
0.000192684
-0.000550766
0.000471837
-5.78398e-05
-0.000306149
-0.000610266
0.000743248
-2.245e-05
-0.000308239
-5.63595e-05
0.000461398
2.05033e-05
-3.6109e-05
1.7094e-05
2.76084e-05
-7.16126e-05
0.000280797
0.000586267
-5.00688e-05
-0.000660296
-0.000111132
2.24416e-05
0.000279298
-9.6935e-05
0.000342719
0.000340505
4.82667e-07
-0.000540563
-0.000547926
0.000271985
0.000101929
0.00023887
0.000177464
-0.000655557
-0.000130231
0.000121875
-6.78366e-05
-4.35398e-06
0.000630218
-0.000774395
-6.48695e-05
0.000403278
7.65986e-05
-0.000351574
-0.000672731
-2.66084e-05
0.000653521
-0.000137799
0.000912045
-0.000732337
0.00100807
-6.54565e-05
0.000126744
2.97386e-05
-7.4301e-05
0.000677933
-0.000205121
0.00031376
-0.00060071
0.000147635
-0.000217236
0.00038473
5.98513e-05
-0.000308479
0.000222018
3.12405e-05
5.52206e-05
0.000787325
7.94376e-05
0.000333915
0.000213951
-0.000368835
-0.000423463
1.95817e-05
9.54031e-05
-0.000317408
-0.000771911
-7.3325e-06
0.000284807
-2.12355e-05
-0.000256239
-0.000239858
-0.000466366
0.000575401
0.000130824
0.000272431
0.00011651
-3.26387e-05
-0.000299208
0.000309779
-0.000147128
-0.000356162
0.000404416
-0.000230231
-0.000254831
-2.37581e-05
0.000111698
-7.05244e-05
-0.000303747
0.000229768
-1.72226e-05
0.000212415
-0.000108728
3.851e-05
2.64606e-05
-0.000253102
-6.70206e-05
-7.07435e-05
0.000946476
1.1062e-05
-3.14647e-05
-6.10284e-05
0.000125275
-0.00027567
-0.000278919
0.000562544
-0.000384378
0.000353497
0.000727464
-0.00060879
-0.000118674
-0.000428944
0.000431632
-2.68833e-06
-0.000399301
0.000371168
-0.000355433
-1.57351e-05
0.000843878
0.00040503
-0.000205498
0.000205528
-3.0516e-08
0.000239011
3.35135e-05
0.000241504
-3.59758e-05
-0.000541111
0.000957362
0.000273515
0.000508154
-0.000465941
-4.22135e-05
0.000284969
0.000369543
0.000339914
2.96292e-05
0.00028818
-3.21108e-06
0.00032217
1.77439e-05
0.000326656
-4.4855e-06
0.000332851
-0.000211945
0.000786968
0.000540197
-0.000183092
-0.000125771
0.000403117
-8.98755e-05
-8.42894e-06
2.10127e-05
-9.22071e-07
0.000966201
-0.00017774
-5.77824e-05
0.000159301
0.000522098
2.15896e-05
0.000552192
2.59125e-05
4.72839e-05
-3.07835e-05
7.25287e-05
5.9361e-06
0.0001346
0.000105599
0.000704092
-0.000708137
-3.88375e-05
0.000530084
0.000208845
-6.1985e-06
-2.28365e-06
-5.00746e-07
-7.94146e-05
-6.39502e-05
-0.000173637
0.000324294
0.000515294
-0.00032498
0.000347
8.21479e-05
0.000123916
-0.000101009
-0.00010927
0.00088962
-0.00115453
9.28358e-05
0.000390375
-0.000141239
0.000817205
-3.77394e-05
0.000330334
-0.0011098
-0.000137679
-6.25947e-05
0.000210495
-9.87583e-06
1.44374e-05
1.40993e-05
0.000485688
-0.000357546
0.000372419
1.78143e-05
0.000473332
0.000252954
0.000188008
7.94738e-05
-0.000229631
6.2262e-05
-0.000121321
-1.39038e-05
0.00034643
0.000342296
-0.000698849
-6.67767e-05
0.000663919
-0.000568517
0.000616196
-1.97903e-05
-4.74688e-05
-0.000262533
-0.000102823
5.37114e-05
0.000131737
-0.000269123
-1.94898e-06
-0.000296228
0.000285797
0.000105553
-9.09719e-05
-7.6187e-05
-0.000278051
0.000275768
0.000448872
-0.000701941
-1.33972e-05
-0.000519187
0.000132666
0.000227275
-0.000324839
-7.52285e-05
-0.000223377
0.000308118
0.000153974
-0.000409814
-0.00011025
-0.000342953
-1.20604e-05
-0.000125804
0.000843505
-0.000166419
-3.29465e-05
-0.000127238
0.000382054
-0.000185955
0.000114393
4.08622e-05
0.000289889
-4.34754e-05
0.000110063
0.00061208
-0.000341634
4.38554e-06
-8.84911e-05
0.000143858
3.75862e-05
-1.58297e-05
-0.000355152
5.6873e-05
-4.1725e-05
2.94979e-05
-0.000519653
-1.7163e-05
0.000209302
2.0286e-05
0.000604946
-0.000375683
6.41151e-05
0.00119444
4.58158e-05
0.000160581
8.79061e-05
1.36925e-05
-1.34353e-05
-2.23489e-05
9.3199e-05
-0.000510932
-0.000191799
0.000364242
-0.000223486
7.81959e-05
0.000147065
-0.000117148
6.5614e-05
0.000537218
-0.000634381
0.00039685