/*--------------------------------*- C++ -*----------------------------------*\
| =========                 |                                                 |
| \\      /  F ield         | OpenFOAM: The Open Source CFD Toolbox           |
|  \\    /   O peration     | Version:  v1912                                 |
|   \\  /    A nd           | Website:  www.openfoam.com                      |
|    \\/     M anipulation  |                                                 |
\*---------------------------------------------------------------------------*/
FoamFile
{
    version     2.0;
    format      ascii;
    class       volScalarField;
    location    "0.97";
    object      p;
}
// * * * * * * * * * * * * * * * * * * * * * * * * * * * * * * * * * * * * * //

dimensions      [0 2 -2 0 0 0 0];


internalField   nonuniform List<scalar> 
5794
(
92.9798
93.6225
90.8387
94.5862
93.4238
91.9224
89.3346
91.9421
89.6465
94.1716
125.342
88.6884
87.6977
90.4228
93.8805
93.4408
38.5203
92.3626
93.8624
93.9659
92.2533
92.6869
88.3941
92.9719
90.3984
45.5044
45.0587
93.0278
92.8292
94.0141
92.5313
84.9028
105.762
92.8368
89.4913
88.2409
98.5164
89.3992
88.2225
92.0841
92.2362
92.9036
116.789
90.8407
93.8438
107.058
86.4743
92.2434
94.2029
91.2104
92.8823
84.4153
90.4997
94.221
94.1508
109.282
88.3436
91.0827
116.953
40.5285
104.286
94.0889
92.2167
84.7244
105.325
94.0084
90.6887
91.1177
92.6908
94.1083
83.4978
91.1223
20.2073
91.4853
92.0809
93.0459
92.2852
51.5926
91.0652
93.696
92.6836
93.7415
92.4154
89.1505
90.622
92.8463
84.826
111.088
92.8739
90.4144
114.233
87.6433
91.7194
93.7585
92.1233
83.2529
109.998
92.4994
87.9575
105.203
80.664
85.5942
116.951
92.1611
93.6911
91.9544
94.0596
126.538
82.7105
91.4437
93.0674
93.7738
73.723
93.8346
91.5936
92.3375
93.9756
92.0765
103.42
91.9146
92.0773
94.2321
91.3695
93.0461
93.8146
123.451
87.7236
92.3218
86.3548
125.151
91.9538
92.1475
86.143
55.7213
92.3578
93.8966
116.848
94.0979
93.0669
93.0693
92.0464
93.385
93.7855
93.4277
92.9029
53.1805
91.9946
114.78
94.0286
93.8981
121.598
94.1964
92.3534
89.911
48.3585
85.2028
90.4209
92.0431
106.612
90.924
93.8775
89.7326
93.118
88.0634
82.69
84.4151
88.6462
91.3417
93.1182
93.7999
93.9628
84.02
88.7885
90.1438
92.8355
88.2445
93.9077
89.8648
93.0069
86.3399
91.7881
86.9467
91.6547
107.65
92.1138
47.3011
85.3116
106.613
94.179
85.7201
125.09
85.1997
105.78
93.1336
92.2223
92.1138
90.6775
93.111
93.8452
115.215
88.4174
83.5591
92.9236
92.1771
85.9371
106.683
91.8872
126.815
87.1344
89.3192
92.8396
97.568
87.9511
89.5733
92.7871
89.7958
88.4208
86.6026
125.719
98.3285
97.6667
86.8032
112.788
91.8509
111.687
40.3816
90.8231
94.1752
94.2478
93.9388
89.0735
90.4743
92.7555
83.3731
88.6957
52.4954
70.409
119.496
89.3559
92.709
93.6973
126.945
92.5366
90.7141
89.4085
93.0441
93.8059
94.221
111.026
92.8798
87.94
93.9839
44.8635
94.0248
119.936
86.9757
115.914
115.78
126.87
93.8298
117.292
88.024
90.0878
93.9179
91.3219
90.9751
93.8774
122.941
93.8577
106.127
85.2805
92.8873
93.1192
82.8324
99.0005
93.9254
94.217
91.9542
94.1866
88.1983
93.1109
105.431
92.176
93.0274
91.59
92.1618
87.2608
92.1989
89.6487
92.3258
88.5229
89.9041
92.7264
94.2095
112.837
55.9105
91.2174
92.913
89.8628
93.9142
93.774
80.5606
92.6893
91.2324
90.9231
121.396
94.1975
90.5493
105.446
84.7053
92.9256
106.035
92.1418
93.8716
98.4258
100.507
126.492
92.9406
82.5999
93.8205
92.1319
90.5208
91.6298
93.7244
93.3694
85.5429
91.2763
90.2122
89.6941
125.588
84.3907
118.067
92.5298
106.165
85.0454
94.1709
94.1766
93.1372
94.1914
106.866
93.0012
90.3759
88.3974
88.1515
93.9419
91.4433
109.744
88.2869
85.1799
88.964
87.7374
55.0661
106.259
85.8621
92.3957
43.5346
93.8178
85.5966
88.77
91.3758
126.718
87.4459
117.885
88.4189
91.3468
94.273
83.5105
107.847
87.1472
91.776
94.2294
93.8671
94.2726
94.2205
126.438
82.6531
109.577
88.1179
92.0378
94.1743
92.2319
94.2273
98.8448
88.1628
89.4446
92.9443
92.685
88.2628
91.2385
89.2554
92.1809
90.773
94.0799
93.0041
89.0293
90.3744
92.7957
90.6343
93.8912
88.7547
92.8993
89.9642
50.0431
93.0848
93.7711
120.81
90.7478
91.8992
94.0565
110.607
91.7932
86.8447
124.549
84.2087
106.369
85.4825
93.0597
94.9763
82.9233
110.204
87.8706
92.4923
126.082
94.2299
88.3319
89.6848
92.9818
93.8182
93.753
92.7731
83.9756
98.8473
93.7641
75.1258
93.8197
93.9861
91.7339
91.7679
88.1472
89.5488
93.0247
98.4505
92.6553
92.4094
91.831
92.0809
91.5581
93.1806
90.6527
91.4042
94.1931
93.8956
82.1941
92.7363
92.4136
93.9702
108.498
86.6676
91.5755
94.2279
92.3456
94.0283
90.4514
92.9762
106.146
125.015
48.9989
91.3626
124.832
91.4505
93.9868
79.5713
124.525
94.229
94.1892
107.757
63.4569
92.9144
92.0836
93.981
91.0045
92.4964
94.1931
94.2294
126.452
124.858
97.2902
91.7505
54.5805
92.7546
93.7939
92.5105
91.0792
94.0409
90.7336
93.0895
93.9654
94.2271
93.2923
120.215
90.9982
62.7456
100.672
84.99
93.6458
94.0479
92.0827
114.744
124.56
93.8943
82.4752
94.2026
92.2706
94.0422
93.9848
90.2729
91.8902
94.0826
97.4487
50.7405
91.9077
94.0393
92.7678
92.6586
124.77
93.5396
93.1265
97.1695
94.0693
92.4861
91.0265
93.9487
48.5247
94.2289
94.2647
90.3233
98.5665
114.988
124.844
116.711
92.6837
76.5785
93.8506
89.0847
91.1456
93.3695
99.0373
93.5138
93.9012
91.8344
92.4229
94.1703
93.8763
91.2528
93.0656
93.762
90.7776
92.376
94.0938
93.872
23.5283
93.9934
122.152
94.1977
90.0016
91.4189
93.5179
90.7859
91.3965
93.8212
107.048
84.4485
84.5274
91.4618
51.1918
95.8961
91.4554
90.6953
92.7452
91.809
92.5064
90.0363
124.364
51.1892
85.8869
109.905
93.8244
92.419
87.8513
109.58
93.8527
93.2127
94.1108
91.3687
90.5363
101.916
94.1805
98.1406
94.2012
90.0873
92.186
107.879
91.5755
92.2324
93.9632
124.502
58.3814
94.1732
94.1416
92.4457
88.356
85.6871
91.3356
90.7063
91.6037
91.8239
119.804
125.291
114.124
91.7344
94.0414
124.492
123.837
126.652
94.072
93.4465
94.2061
94.0189
127.678
93.8313
92.9105
93.6592
94.0053
91.9454
94.0161
94.1952
66.6893
98.2658
94.2604
92.9602
90.9999
117.412
125.924
87.8268
116.007
92.2212
92.0164
105.436
94.25
94.0948
92.3987
92.6867
94.2337
91.8884
91.9151
120.564
50.2863
91.0311
37.5643
93.5157
94.1893
94.1933
92.7724
91.8507
93.9042
92.1242
91.7445
92.2413
87.4444
105.583
119.58
90.6671
42.2772
91.6184
91.5069
91.5431
91.8344
91.2905
90.5418
92.852
93.6659
127.08
94.2274
93.3081
93.4494
115.555
95.5607
94.2262
94.1808
94.103
92.7935
101.027
70.7856
91.9663
94.2073
96.1759
126.621
93.8599
92.8293
97.5676
94.2112
88.3795
93.9024
115.897
94.0261
118.132
91.3581
94.2069
94.2415
126.115
117.136
95.108
91.6187
89.2866
124.491
96.4206
100.122
45.6993
122.691
91.4749
126.764
67.7261
115.452
94.1947
89.2957
90.7301
114.314
99.1255
126.082
101.624
91.7602
68.8383
98.9879
121.068
94.2093
90.2039
35.6845
124.609
87.7806
92.092
111.54
94.039
91.9564
90.6482
90.9222
92.6202
87.8581
107.654
90.6894
98.4548
93.2755
91.7334
94.2327
94.0034
91.4778
92.1388
99.8221
95.0127
92.0607
109.156
91.4981
72.1305
92.7515
92.1108
92.4893
92.5853
88.5566
112.477
90.8155
92.4236
88.1912
110.529
94.1752
94.2381
94.2671
94.1048
93.6079
93.2289
92.9607
91.8068
126.473
48.6098
90.5309
92.2054
94.0814
92.8683
88.8322
126.673
91.7647
90.3965
92.8988
120.645
109.168
87.4144
91.2975
89.2336
93.8274
73.0963
92.7323
61.2655
96.6776
126.582
92.3199
94.2655
93.4276
94.2038
126.057
127.376
119.52
105.62
92.4066
92.0028
92.8569
107.768
97.1624
93.0297
87.2049
106.895
126.295
94.0973
92.0592
90.6357
113.634
51.0551
93.8565
99.341
94.1919
94.2125
94.1896
87.8542
92.5046
108.938
98.0784
94.2249
92.5269
94.1989
93.758
40.8646
90.3986
93.6188
90.0732
94.0582
124.56
92.8838
100.004
94.0097
92.083
105.754
98.4246
79.3557
91.4553
91.7506
91.8646
91.6542
122.628
122.998
51.3682
91.0672
94.032
94.0924
105.954
93.6586
91.7167
94.2611
102.966
91.9402
74.8985
124.513
94.2323
92.621
92.9619
97.8381
121.956
91.8713
59.4967
94.1875
94.2269
60.5239
108.825
97.51
89.3522
91.3346
125.45
115.482
94.0667
94.2281
87.6084
123.419
91.9289
98.4225
122.944
91.8599
91.9266
92.4557
91.0418
98.5411
93.8928
92.7699
93.7491
94.2813
93.8047
94.1941
94.04
91.9219
120.463
94.0843
98.2553
93.83
91.8475
91.5854
92.722
95.5703
124.589
124.793
58.3202
90.042
92.3077
98.5764
93.9238
54.0775
105.423
84.0202
118.362
92.8685
87.8733
92.1669
90.8498
91.9872
106.428
90.8182
90.7305
90.5511
91.4795
94.0074
118.096
93.4169
92.4164
110.846
87.787
92.5255
93.381
112.745
94.069
92.0266
94.2581
93.825
85.2787
126.121
110.397
98.4874
92.3419
76.7449
93.8624
92.7924
83.6804
46.9078
98.8567
90.7191
102.494
96.112
94.2013
93.1077
94.1347
91.8554
91.6912
94.0947
94.0898
92.1221
94.2089
93.8273
94.0555
94.0991
98.2507
92.4991
99.133
94.205
93.8071
110.594
98.7692
91.137
92.8258
89.6012
94.0354
125.464
100.762
91.4102
94.223
91.0036
124.453
94.1859
98.4705
92.1903
94.2337
98.4753
70.6574
97.7365
88.0455
102.277
94.0777
99.1443
93.1508
93.3537
111.648
72.214
91.6931
102.374
93.2966
92.0527
93.87
93.5158
103.494
107.555
50.4472
81.8109
91.9507
94.0172
91.3503
92.5747
87.1927
104.982
115.104
94.0695
92.5775
93.9951
91.7007
98.7284
93.5303
96.8806
92.4958
98.1853
98.85
99.8869
92.9707
93.6182
93.0819
94.1287
92.8607
124.586
94.082
98.4008
89.1938
93.9706
94.1891
94.2264
90.0779
126.386
94.0032
126.751
94.0759
100.303
126.52
94.1152
92.7662
111.029
93.9202
93.2899
92.2657
94.1116
90.9699
90.6678
91.9512
94.0519
90.621
94.1767
93.9479
97.7296
94.1202
94.1813
92.8296
89.8788
88.5235
98.2915
106.651
104.478
91.6893
91.1218
94.1826
94.1049
92.2908
93.0523
92.3748
92.3531
94.1846
118.669
94.0004
92.3243
94.1795
124.336
94.1929
84.8673
92.0599
93.9273
99.359
91.944
93.1257
90.0906
93.6658
98.1801
98.7071
93.8734
99.1938
94.0087
93.887
90.6492
94.0766
92.0316
92.6104
94.0968
125.556
93.9172
58.0185
94.206
91.9227
94.0098
98.4199
92.2828
102.587
94.0951
93.5253
97.3546
104.648
86.5628
91.8638
94.073
94.0279
92.3107
92.5805
94.1872
98.546
95.4777
96.0254
121.145
114.714
94.1498
103.443
102.439
94.1873
90.9899
91.1793
94.0986
32.07
98.8355
94.0374
94.0853
124.511
124.767
95.5084
93.5268
92.9036
92.0292
91.4572
94.0245
92.4269
91.5646
92.0698
92.7755
91.7535
92.0818
94.1821
90.0583
91.2616
92.385
95.5135
93.9443
89.7199
92.7159
88.2058
92.1318
91.7682
104.376
105.466
99.6114
96.3223
98.3947
104.25
94.0799
92.0512
93.4887
105.986
101.058
93.7074
92.82
117.042
92.2303
119.092
92.1753
90.0945
103.9
90.1313
117.467
107.373
91.3729
91.9296
98.567
113.304
94.1399
91.8732
94.0652
57.2626
94.0127
94.1796
90.6751
91.9482
93.9971
100.091
94.1874
117.701
93.0408
91.0334
102.196
92.4143
85.8876
94.1987
94.1395
91.5745
91.8696
124.308
125.771
90.3117
98.5618
93.9725
92.1816
91.8031
85.0454
105.52
127.124
116.624
99.0687
94.2593
93.8671
92.9037
92.194
98.412
92.2219
91.6002
91.8526
94.1033
92.4508
76.9725
91.6537
56.1976
92.1128
94.1007
115.725
99.3811
93.0379
94.1534
97.8919
91.2706
94.2494
94.0409
92.5325
92.3362
93.9648
90.3711
90.4832
92.8388
94.0463
92.7564
92.3328
91.6704
79.5212
90.0806
120.13
97.7776
91.7752
94.2218
91.757
110.615
88.5887
92.2703
92.2733
93.8504
125.975
52.2463
90.2432
94.2015
94.2077
85.2282
94.2226
92.1595
93.1173
92.8506
90.1058
92.1767
92.3835
92.316
93.0443
94.251
94.0437
98.3478
92.2998
94.2131
92.2207
112.157
99.0907
125.742
125.188
90.848
94.1112
94.0941
94.2365
126.528
91.2087
91.6229
91.3634
94.126
93.624
93.8196
90.5932
91.8205
91.0167
94.1913
91.5319
93.3482
41.4599
90.0506
36.6676
50.4023
91.963
98.1836
94.13
92.4042
93.0073
92.3097
92.2142
92.0825
93.3797
84.5602
105.239
104.42
92.2617
91.7258
89.5958
85.9239
94.2331
94.1811
92.0935
125.782
94.2292
92.5623
94.1997
94.2183
92.1283
114.398
93.0064
92.0071
90.5087
91.338
91.5476
90.665
94.1964
94.1159
98.4426
92.3433
131.404
125.383
93.9504
40.7904
126.061
92.0381
90.574
94.2264
103.51
94.2088
93.8588
91.9456
90.6521
11.2617
99.0912
92.4144
85.2903
111.41
56.9111
115.742
90.5461
92.1919
93.9906
92.2193
93.3015
90.4205
91.5053
94.0967
91.6192
93.1142
93.3381
91.6713
90.5787
92.2027
93.9636
93.2531
90.3269
91.527
93.4914
90.6661
91.592
92.0122
93.8566
94.2424
92.9927
90.0656
92.0037
92.2644
93.2777
92.2637
90.445
91.7545
94.0478
91.9908
93.9228
92.2314
93.3731
90.5303
94.0369
93.1583
92.2889
94.1768
91.8837
90.2251
88.3185
87.0051
56.3526
94.2294
92.4299
103.436
94.5676
93.3903
94.2134
94.1276
96.3277
94.2156
91.3496
92.6024
50.2173
91.0784
92.7343
91.2423
94.1829
94.1914
94.2446
92.1605
91.4958
92.5171
94.2206
90.5931
90.0694
92.6246
124.686
94.2209
92.2257
92.1028
91.9766
46.2868
94.2286
89.4215
92.1459
107.403
92.7572
91.7553
91.0306
90.8755
120.801
93.5309
91.0727
91.7103
91.9014
97.7775
96.994
12.0161
94.223
91.6225
93.5458
92.391
92.9742
94.2406
140.753
91.7167
94.0738
93.3406
91.3138
90.4958
92.2394
91.6032
93.1922
94.1252
92.2927
93.2089
90.3219
91.8226
94.207
90.1412
92.2562
90.6468
91.5978
93.8949
93.4504
92.1074
92.1112
90.5482
93.9421
101.333
90.2955
126.97
110.317
92.3712
97.7622
91.5005
94.0614
120.694
93.3094
94.2704
130.489
92.8836
92.2703
94.2297
92.9139
119.036
94.1833
74.1428
94.0357
93.7875
94.1282
92.8433
99.9624
94.2422
93.1823
99.7564
95.3363
94.2382
91.1739
93.3525
91.7403
94.2328
91.5035
88.9927
94.2302
93.5603
94.0559
93.6743
92.0553
94.1269
94.1774
92.6359
94.261
94.257
94.1563
94.2178
94.5884
98.7861
91.4909
88.8779
92.2836
92.1708
82.175
94.1434
98.5185
108.392
92.4926
123.388
90.0716
94.0683
93.7938
91.2219
93.0183
98.7223
94.2159
93.1088
91.9456
91.3526
93.8326
90.6989
93.7496
94.2853
92.2901
93.0783
95.8403
95.251
94.2748
97.7008
93.1627
92.9192
88.7504
92.4095
92.9361
92.5925
94.2061
91.5607
94.1543
90.1068
94.2038
92.0278
117.466
91.5611
92.0474
91.4744
93.4338
92.1495
94.0841
94.2115
91.0636
90.895
93.0089
114.065
92.3964
95.6662
92.9318
91.1522
120.022
119.406
93.3477
93.4135
91.1626
101.026
93.0686
109.051
96.2161
143.224
91.5613
88.2322
105.928
116.528
87.0339
88.4218
92.133
131.54
90.6469
109.696
89.0024
133.175
92.1527
89.8032
30.1256
90.981
92.2953
92.7038
93.9704
92.1555
90.3566
97.2822
92.0663
94.1083
90.0759
92.1357
92.1735
91.7695
91.6036
92.2165
91.6834
91.9765
94.1996
91.9601
92.254
91.6482
91.5838
92.0826
91.5482
92.6047
92.5226
92.5606
90.7528
90.4139
90.4475
47.9235
91.542
91.3134
91.0829
91.37
94.2073
94.2646
91.7896
92.1261
92.2777
94.2469
94.1927
91.4567
92.006
91.0944
90.7948
91.0641
90.9591
90.8028
92.1409
92.3121
90.1432
121.911
92.144
90.9181
94.1339
90.2664
94.2588
90.8827
94.2564
91.0133
94.1535
94.274
92.2063
90.6521
90.7454
90.9888
90.94
93.9864
108.966
93.9765
86.2717
84.9186
88.8057
106.546
82.847
93.9941
108.713
107.045
85.2877
83.8568
93.0295
93.9028
82.5047
105.357
111.257
94.0075
89.0234
108.937
82.5213
107.913
93.9225
93.9459
93.8837
84.7333
90.3684
52.9583
93.967
88.3238
89.3543
93.9918
84.6212
93.0632
90.1181
106.839
105.46
88.0099
53.0168
82.0991
93.8733
82.2707
94.0094
89.1503
87.8777
92.9897
108.593
91.1723
52.7023
88.0089
89.2107
92.9574
82.2531
49.7485
93.8212
147.573
82.9311
90.7724
88.1007
89.2857
93.806
91.6501
105.412
84.9143
83.1865
49.2802
48.9496
90.0988
90.7853
91.3848
92.8867
92.2757
92.8052
93.0033
85.9503
92.0822
90.0499
94.1568
125.278
90.9269
90.7245
92.1172
91.085
92.1809
94.2078
92.2804
92.7665
90.1445
90.6069
92.2885
92.2969
92.7771
88.3128
89.5766
93.7932
93.7888
92.0547
91.8348
93.7434
93.2988
89.8057
90.9991
92.303
92.1391
94.2657
91.371
85.1686
105.58
92.3101
90.6653
90.7024
92.152
94.3238
93.7406
89.9748
92.3119
93.0279
92.9827
89.5061
92.4438
92.3491
48.6023
94.1588
92.3469
92.3822
94.5075
92.307
92.2877
91.4122
94.1568
92.2936
93.8612
92.7874
92.4216
92.2433
92.3501
94.6662
92.1478
94.201
92.3237
94.1939
94.1705
92.3411
92.2837
92.2475
93.6956
94.1762
92.2715
92.1276
92.3117
90.8343
92.2471
94.1372
90.0693
92.1202
94.4595
85.3435
90.9299
105.659
91.2611
90.8137
92.2516
94.1936
94.2059
125.532
85.8424
88.0425
90.705
94.44
92.1696
89.9002
92.7632
88.5014
94.7232
92.8817
94.6878
47.1438
117.52
92.809
91.187
89.1235
93.736
90.1075
92.162
94.1019
125.76
88.3702
91.4302
90.2356
92.9018
90.1808
92.1617
94.0534
106.627
86.3688
90.4363
125.977
86.9027
89.1216
91.943
91.2011
45.282
117.393
92.7482
88.8407
91.8158
91.3543
93.7085
89.6586
92.0255
85.5927
88.2306
93.0403
90.2329
92.167
94.0279
89.3197
91.281
92.1731
125.818
87.5917
93.3364
45.4339
49.7025
91.4849
117.404
91.8241
91.5861
91.5037
90.4543
93.6508
93.7184
88.1109
86.3479
92.9681
90.6495
88.4789
108.861
90.4837
114.976
89.0374
91.9023
91.9581
94.1841
94.1879
91.4904
91.3099
91.2162
91.4379
92.7369
89.084
91.2054
91.9365
86.7086
92.9141
90.3153
92.1376
93.9407
87.9544
108.71
90.7285
125.998
90.2893
89.8817
91.0078
89.2957
92.0251
92.1393
92.1475
93.298
47.9441
91.5611
101.306
92.4518
96.7345
117.351
96.1243
94.1813
92.7609
90.5825
91.1538
89.1821
92.2213
86.5263
95.305
93.6543
88.7695
101.422
94.1802
92.2963
92.1953
89.8702
89.7693
92.1693
92.1856
92.2615
92.9599
90.4528
92.0827
93.8858
90.0423
92.096
94.1781
94.2187
95.2364
95.7551
120.336
94.22
94.5402
89.9087
92.0994
92.1565
93.2537
44.3191
91.6495
94.1863
94.1911
96.845
98.1214
89.9288
91.0729
96.4936
92.4104
91.375
90.3092
87.9474
93.9595
98.8456
94.2241
94.1113
94.0861
93.3189
91.6056
91.7328
90.6185
92.6942
89.1839
92.0796
93.776
92.3486
91.6108
93.7443
93.4826
126.782
94.2528
94.4692
85.4964
91.3736
91.7547
91.662
87.9618
93.1565
91.9668
90.7081
90.7399
89.8476
93.8007
90.4253
92.0471
93.8721
94.1711
94.1871
94.1873
89.704
110.766
91.0436
92.6817
92.2838
92.2612
92.2614
92.1856
92.8024
92.7407
92.6387
93.0731
89.7927
99.5983
91.6402
91.2
98.4967
94.2493
119.573
92.2427
92.3385
92.2029
126.125
91.9583
90.3381
92.1891
93.794
86.1968
92.166
90.1629
94.2526
93.2618
90.0479
89.9501
92.1674
90.5691
92.1825
94.0539
124.977
91.5296
92.1386
94.6185
94.2176
92.1898
94.1719
94.1534
91.2012
91.4076
94.9209
92.8765
94.3326
92.3059
92.1977
91.5422
94.2051
92.1929
89.9619
92.2222
91.3683
91.5141
93.9244
117.342
118.21
94.242
90.3008
92.2388
90.1141
117.654
92.2566
92.2093
92.8184
92.169
118.649
91.6921
92.25
86.7205
88.5193
91.1198
92.2229
92.8554
94.0589
91.6557
92.6553
91.2993
96.8378
90.7175
94.9184
125.816
90.7816
94.3533
91.9734
91.0945
91.1442
91.2014
93.4005
93.3822
92.3192
92.2481
91.826
91.3313
91.2258
98.357
92.6054
93.7085
89.8497
94.0313
92.2561
92.2364
90.5434
91.9766
93.8259
93.6764
81.5526
91.427
90.3652
93.8507
94.1415
91.0405
83.1787
95.1112
92.8596
92.2944
92.7575
90.9866
97.7123
92.1684
92.239
91.9651
91.9632
94.2301
91.2557
103.451
92.4151
128.88
90.048
91.5514
92.3184
92.9394
91.3234
93.0902
91.3717
91.3021
90.9687
120.441
88.6399
110.163
91.7175
94.2214
92.6048
91.2645
91.5777
94.1854
107.25
91.7876
96.7031
102.168
108.011
92.2456
94.5774
92.2784
90.3543
92.1253
94.1885
126.238
87.2173
91.4164
88.2237
92.2012
54.3094
94.1749
90.9274
92.1777
91.7809
93.0158
90.8292
83.4839
92.0803
93.9767
92.1437
94.2185
94.2271
92.1204
92.3704
92.0039
91.7673
47.4738
92.9106
92.3702
112.139
93.1337
83.8086
93.096
38.2796
103.563
94.196
93.1278
94.8725
93.5333
125.681
91.5266
90.6793
94.2248
133.467
94.2174
90.5693
92.1869
93.8861
92.1638
94.0995
92.7333
94.0567
92.7559
92.3265
92.2098
118.674
91.1264
91.7826
90.2259
93.9441
93.7664
92.7223
94.0292
94.209
93.3461
91.4871
137.581
93.2039
92.112
92.1319
92.0839
92.8148
91.9135
124.572
94.1012
90.4912
94.1253
93.2077
71.2416
125.137
93.8901
94.0279
92.5456
93.6218
100.324
93.3069
91.725
91.7661
98.4202
91.1595
91.2688
90.2218
94.2097
94.1742
101.894
92.009
90.8187
92.0871
87.8223
90.2011
90.8037
93.8816
91.2027
94.2044
92.1892
94.176
94.2028
90.4472
96.6762
92.1071
91.895
92.1996
91.74
93.8675
92.4022
101.713
92.0842
91.7804
92.843
91.1825
89.8936
93.0828
95.965
97.2179
98.2944
90.5875
91.8833
93.8301
77.7027
92.5409
92.3311
94.1864
91.6168
113.885
92.1279
91.3818
91.5924
102.512
87.5116
91.5763
90.6336
91.9421
93.9713
90.3586
112.338
89.5495
91.227
91.1357
91.677
91.9652
94.2012
92.1543
93.052
91.9986
88.4343
110.855
93.4827
93.6148
93.0977
90.5222
91.9155
93.8167
88.1665
94.2305
91.4484
95.5499
94.2338
92.1702
91.6209
92.2862
92.1863
90.0013
90.7169
93.0781
94.2085
93.4014
95.8521
93.28
92.3314
90.581
91.8613
93.7896
133.572
109.112
92.2575
91.82
102.066
109.889
109.498
92.5848
92.8656
93.5012
92.7256
93.1256
94.0678
96.1152
125.358
92.1009
94.1529
90.5934
86.8705
107.306
94.0428
92.0553
92.8242
91.7178
92.3314
92.2718
92.3775
89.7136
50.7997
71.5942
94.231
91.1113
93.761
90.3562
92.9717
92.8227
101.528
93.648
117.148
91.7304
92.9615
92.1373
94.0578
92.7994
94.1018
92.0301
92.1938
90.5468
100.297
93.1673
92.3394
91.5913
124.596
94.0867
90.1305
85.1637
91.1426
124.715
125.648
92.5988
91.451
91.7532
93.8126
90.5687
91.2043
20.9587
93.838
120.155
86.0895
94.2071
94.2149
94.2033
123.963
90.0334
90.5395
91.7348
93.8032
94.1504
115.859
91.2719
91.543
94.1845
94.1751
94.174
93.8017
92.2774
92.1073
98.2851
124.973
104.615
94.0976
93.0032
92.354
92.2624
91.3003
93.4463
93.6362
91.3153
94.2282
93.3157
94.2276
92.4025
91.1127
118.572
91.4839
94.2235
98.2753
90.1582
45.8309
92.1745
92.2529
90.5576
91.7806
93.7859
105.884
93.7984
91.8181
91.1122
94.2455
92.3988
93.8771
93.1562
93.0754
94.8366
94.2042
92.9116
92.0463
92.3967
94.2862
93.4576
91.1684
91.1125
92.1315
92.5268
96.1658
92.5748
92.3299
93.817
98.3186
94.2105
92.3276
92.119
118.481
120.253
90.7772
94.2228
92.3649
94.2591
94.1105
91.329
93.1805
93.2745
93.5437
92.9533
102.195
92.9415
90.8414
92.178
93.1794
92.4881
94.1631
86.9235
92.7293
91.9931
111.843
93.8547
91.1462
93.4292
94.1137
91.5849
87.3844
90.3504
92.2441
91.9341
94.2071
94.1449
82.421
100.718
95.4293
94.1773
93.0156
92.3011
93.451
92.2369
92.1399
98.5961
98.197
94.139
91.9226
93.8834
94.1776
92.2866
92.1355
94.2129
90.6051
93.9089
91.8688
93.9421
94.1774
93.8415
93.4586
91.4101
91.8172
98.8663
90.6354
91.9195
93.9014
92.5792
93.3569
94.4846
92.2752
94.1936
92.1581
92.2415
93.302
125.135
89.1544
41.0374
94.2647
90.6895
92.5397
93.0572
91.081
91.664
93.8102
94.2411
91.7037
93.823
98.4976
93.7874
116.04
94.0193
93.4972
91.4167
90.7163
117.202
91.395
94.1915
93.2227
94.6159
116.501
89.3322
91.0289
92.7035
90.5372
126.58
97.251
91.8333
94.0624
107.655
82.3764
94.2555
90.6776
92.5124
93.4141
90.938
90.6179
92.08
94.0894
91.497
93.9711
91.6075
90.1297
92.1222
93.3998
94.2748
92.2973
90.5182
93.247
94.0545
94.2139
94.1575
90.9916
91.0052
92.0812
92.9223
87.8868
94.2077
115.491
90.6406
92.1116
91.9204
35.6444
92.9495
122.021
94.2381
90.9585
92.3113
92.0256
93.7098
93.5422
92.142
94.2201
91.7524
92.3597
94.2456
118.03
90.189
87.5333
93.5942
93.1125
127.048
91.6951
91.9968
94.2221
92.3013
92.111
96.7225
93.8616
92.222
90.5524
91.7115
93.7872
91.9602
90.5356
93.9278
92.4493
94.2084
82.5502
91.7848
91.4389
92.1065
56.7068
98.6038
107.461
92.5452
91.2694
125.13
68.6082
111.759
95.9206
90.5784
91.7823
93.7848
92.729
102.598
90.5406
92.911
93.8287
94.224
92.978
119.207
129.914
90.8669
111.376
96.842
124.427
94.4683
92.1522
92.3704
92.681
89.7876
93.2207
110.361
92.503
94.0239
92.8299
94.1764
124.999
91.9773
112.018
90.6493
91.3635
92.112
90.9393
93.6644
94.1622
92.0432
90.5191
93.8831
94.234
92.2603
92.3386
92.2612
91.8506
92.3185
93.2205
93.6593
99.1715
39.985
124.595
94.0841
94.1848
94.1103
92.7594
92.4558
91.958
90.9633
94.2203
94.1539
92.1396
93.38
109.578
92.1035
86.9594
108.856
93.1489
93.6681
94.2503
98.9967
34.7311
91.7325
84.7693
105.299
88.7299
94.181
100.078
98.1805
94.1285
90.7226
93.3182
90.5065
126.834
94.175
92.277
94.1739
99.6095
43.8402
92.3943
92.6451
92.3297
93.1089
89.6838
88.0868
94.1766
108.658
92.0575
94.1735
92.6146
116.795
93.9141
92.3407
92.3763
92.1982
93.5931
91.2605
94.1764
94.1707
94.1118
92.0897
108.092
90.8669
107.463
90.9395
90.9349
95.0847
91.5043
126.396
94.1387
94.2362
101.605
112.433
91.0002
91.475
91.4078
93.6121
92.0605
90.6316
123.878
92.1559
94.936
92.5308
93.179
94.5298
123.221
124.403
92.2558
91.504
94.2046
94.8133
93.3948
91.4093
87.0609
94.3821
94.2072
94.0405
94.2348
94.2214
92.6953
79.4735
90.772
124.245
94.2741
92.5012
93.563
92.1905
91.1358
118.765
95.7816
93.4426
117.022
94.0619
113.912
107.581
94.1844
123.72
93.0134
124.458
94.7341
93.6643
91.8248
100.936
92.2682
104.994
90.0669
99.6493
27.8252
94.2175
122.882
91.9548
103.327
92.0217
104.429
90.3645
123.511
124.334
93.1885
108.828
93.4828
90.6281
91.9137
93.9511
92.2271
93.7528
104.948
94.0275
106.786
105.205
94.1948
93.455
91.9419
125.603
91.719
90.9447
93.4123
98.2542
92.4482
98.655
99.033
94.0905
108.642
93.4178
92.9003
91.0336
91.787
94.0536
106.838
124.762
91.1781
111.945
103.546
90.7805
94.2215
94.2118
94.0977
94.2096
94.1528
124.503
98.0847
91.7873
93.3394
91.0804
112.263
86.9442
92.5631
92.2879
90.8231
91.1729
92.9614
92.5207
90.5007
96.6783
92.5109
93.0872
92.3928
90.6803
92.382
110.418
100.486
94.2919
94.1358
94.1793
92.0512
106.025
91.3348
91.2423
92.0558
94.2282
93.5878
87.6541
92.1091
50.094
95.0096
94.1975
99.0085
91.9164
90.5507
93.8609
124.216
93.0135
117.175
93.9562
92.7061
83.3559
91.5128
94.0446
92.9856
94.3442
102.367
90.25
111.838
91.877
91.8975
93.9936
91.118
92.9282
92.127
57.4548
55.7737
92.2014
93.0365
92.0873
93.042
93.8671
91.8238
90.5977
94.0102
91.956
90.7355
90.3659
91.3315
91.0867
92.0346
92.1435
126.796
92.5182
91.974
89.3303
91.5622
104.373
93.8572
93.0488
92.9963
94.2613
113.459
91.5896
91.8944
92.5717
89.1167
45.7439
92.0906
93.9091
106.557
125.235
93.9986
94.1974
94.1226
92.0965
90.6646
92.8412
91.308
94.2562
94.1868
92.6985
92.0884
90.539
93.9085
91.0703
93.401
88.8017
109.363
92.33
88.845
96.1888
93.5239
92.5727
92.4028
93.0127
105.267
84.6355
92.2085
91.8517
91.0081
93.8666
90.6056
89.3817
88.1852
100.658
92.8308
111.737
121.685
141.479
94.11
94.2904
127.041
91.1082
93.3313
93.8419
121.522
92.7934
97.592
10.0315
98.6755
93.4414
90.4942
93.8537
91.7521
93.8391
90.5396
92.6919
93.509
88.4245
94.0741
92.6281
97.8382
92.2037
126.482
90.8289
111.828
91.0302
91.0853
90.5279
92.2329
93.9254
93.8335
88.9965
91.0594
90.1973
93.1315
33.9036
113.886
91.0649
93.2917
93.9189
94.9977
88.1684
92.7012
92.2379
88.791
93.83
93.8647
94.0686
92.8789
94.2437
92.3953
91.5631
92.867
90.2629
118.15
93.7077
92.8279
93.4306
91.5595
99.1344
106.191
92.7914
97.9572
92.4537
87.6313
89.9334
92.8149
90.819
91.9357
93.2098
92.196
91.6406
93.4374
126.625
91.6843
93.8516
126.108
94.1102
94.2659
94.2324
80.2857
99.859
99.6325
93.946
97.0713
93.9634
97.1739
97.2992
100.546
98.6949
93.5746
92.6348
89.9735
93.1211
91.79
103.516
94.1257
92.9784
94.1482
91.1232
90.2582
99.2892
93.1472
92.933
90.6831
95.09
93.379
91.0268
94.0543
94.254
96.9744
50.7318
90.5135
91.7436
93.8926
91.5209
92.98
92.2265
90.4927
93.9945
92.1012
90.4298
93.9525
123.128
94.0654
94.2273
92.6154
90.224
92.173
98.0766
90.0849
92.1758
93.1177
91.538
90.3533
94.0728
93.2646
114.452
111.586
90.6126
90.9167
92.3393
94.3271
94.1722
91.907
92.0442
125.157
99.8277
90.7688
115.708
94.2055
90.5538
88.0722
92.4573
93.8348
82.0695
94.1793
100.313
91.3192
90.9482
94.297
97.0298
94.1856
87.2586
128.723
88.1857
94.1712
94.2106
94.2254
94.2236
113.934
124.014
94.1086
92.8325
91.4862
109.281
92.0811
90.8646
94.2215
92.36
90.4203
92.0542
91.5368
91.2622
90.4218
95.7982
91.6367
84.6583
105.274
94.2237
94.2128
88.3749
92.4179
91.8072
101.345
92.0837
91.7262
92.3176
90.5909
92.4348
93.9599
98.3674
91.1058
17.4826
96.9315
90.5331
91.9438
91.2566
90.1538
93.3016
90.732
94.2465
92.1732
94.0776
92.0853
93.3423
122.574
89.9247
124.961
93.2609
90.9906
94.1775
93.0376
91.7697
90.9596
53.0506
117.414
98.4558
94.1746
92.3476
92.1913
84.1489
85.3884
94.2654
91.7515
98.6209
98.2642
92.1209
93.8644
45.6652
93.7989
90.604
91.8612
92.2024
91.1395
91.4131
92.4471
90.1452
52.9105
92.1056
92.4547
92.3594
93.6771
92.8775
89.5354
88.9774
93.865
96.9842
109.183
95.7269
92.4869
91.3025
91.3671
91.5099
87.4873
94.1511
127.024
117.992
93.5537
82.113
93.3008
91.838
90.4718
93.9301
92.7826
117.046
94.8595
99.748
91.7518
90.4901
91.9191
92.5192
98.8058
90.7802
111.751
91.9731
86.6587
92.2512
93.9875
126.656
94.0199
89.8227
89.2258
93.7457
92.3704
85.9942
44.9382
107.841
92.324
92.6329
88.8849
90.3741
92.7044
91.7432
90.9638
93.4041
94.0262
94.0375
91.8824
126.14
93.3117
93.5173
93.0083
94.1179
54.0536
91.6306
86.9477
109.702
92.0215
93.0633
93.6117
98.5257
91.8769
94.0077
91.8736
90.5349
93.3941
91.0891
91.1139
124.203
92.7845
92.9377
94.067
92.1441
89.3511
87.9311
92.9444
92.9465
91.4458
91.2992
93.2368
98.843
92.9515
93.6399
116.094
67.3668
92.9338
55.0804
93.356
90.9257
85.4173
83.9906
91.8968
93.8762
76.5099
94.0911
118.119
92.3677
86.3137
112.063
123.296
116.101
92.9729
94.1082
94.0034
93.1079
90.7905
83.0597
88.2011
89.7438
93.0995
106.592
106.167
100.363
89.2464
92.8512
88.8652
98.7506
94.2006
93.9741
94.285
94.0539
92.4009
124.136
90.7379
90.7528
90.9208
94.8223
91.5134
92.4312
88.672
94.218
92.1798
90.4601
93.9538
90.7794
88.2753
93.0741
92.0351
92.5924
87.5535
90.6709
91.91
91.8531
93.774
107.372
93.0796
92.2561
92.2181
93.0182
112.866
121.248
92.8216
94.2029
115.102
92.3951
100.466
93.5548
93.0595
92.1884
94.0017
92.1582
94.2311
94.2799
92.3404
94.1302
93.9425
125.654
93.2867
93.8996
93.4931
93.9189
92.6589
94.2199
87.0102
91.6425
93.5641
98.1851
120.218
92.0394
91.053
92.1532
91.6803
92.746
91.8833
92.9035
92.5754
93.7779
94.1044
92.2903
93.1817
52.2578
90.942
124.678
94.1492
92.7255
92.5296
122.787
91.3172
52.4784
98.918
94.0905
94.2335
94.1159
94.2202
94.0725
91.9564
90.6927
94.1354
90.6353
91.9096
93.9639
92.0922
93.6236
98.985
125.305
92.4838
90.1229
92.2921
92.4854
94.0622
90.9349
105.854
84.8757
91.5826
98.3433
92.8115
97.1103
92.2498
98.3709
117.639
93.816
93.9097
94.2616
91.8416
126.71
90.4658
94.2419
89.1258
91.0836
93.6983
92.8724
92.5003
125.242
100.357
93.9984
91.874
90.5815
98.7542
94.198
92.1261
91.5524
94.1577
94.045
90.8646
47.901
92.5795
92.3378
109.479
126.522
92.4822
94.1827
93.8497
124.687
91.514
96.7063
92.0566
37.2855
58.2065
94.111
50.3201
93.9087
36.3554
91.4393
109.631
90.8437
92.0719
94.0863
94.08
94.0862
94.0791
92.1136
92.1675
92.0307
92.0418
94.0977
92.1622
62.5738
91.9637
91.6446
91.4104
91.4647
56.6089
92.343
92.1709
88.5089
90.5213
89.5622
87.8481
67.6892
49.5929
87.5898
76.219
71.9827
87.936
92.3966
90.874
91.2471
90.9969
90.8707
91.3441
92.3218
91.5755
92.9771
94.11
92.1283
91.0981
93.0137
91.3442
91.9279
95.6727
111.488
112.751
92.0702
97.1797
94.7092
88.4031
93.7757
99.2338
111.188
115.507