# vtk DataFile Version 2.0
track0
ASCII
DATASET POLYDATA
POINTS 12764 double
1.66533e-17 0.5 -5.37764e-17
0.391304 0.5 0
0.393043 0.492532 0
0.395233 0.485184 0
0.397851 0.477977 5.55112e-17
0.4 0.473003 8.32667e-17
0.407048 0.458403 8.32667e-17
0.415977 0.444871 5.55112e-17
0.426615 0.432636 5.55112e-17
0.438749 0.421883 6.93889e-17
0.470592 0.4 0
0.476473 0.398077 5.55112e-17
0.482435 0.396416 0
0.488464 0.395021 -5.55112e-17
0.494548 0.393893 -5.55112e-17
0.5 0.393127 -5.55112e-17
0.52 0.391093 -4.16334e-17
0.540084 0.391969 -5.55112e-17
0.559797 0.39591 0
0.570852 0.4 0
0.576681 0.402801 5.55112e-17
0.582366 0.405886 1.11022e-16
0.587892 0.409247 5.55112e-17
0.593248 0.412872 0
0.6 0.417976 8.32667e-17
0.618788 0.434381 1.11022e-16
0.634034 0.454121 1.31839e-16
0.645559 0.476241 1.11022e-16
0.653353 0.499934 1.249e-16
0.653364 0.5 1.11022e-16
0.656681 0.52 1.11022e-16
0.657674 0.540249 9.71445e-17
0.656411 0.560483 1.249e-16
0.653086 0.580481 1.11022e-16
0.647407 0.6 4.51028e-17
0.638734 0.62 4.16334e-17
0.627125 0.638451 1.38778e-17
0.612779 0.654865 0
0.6 0.665458 1.11022e-16
0.589159 0.672366 0
0.577731 0.678253 -5.55112e-17
0.56583 0.683115 -2.77556e-17
0.553601 0.68708 -1.04083e-16
0.501097 0.7 -5.55112e-17
0.501097 0.7 -5.55112e-17
0.501097 0.7 -5.55112e-17
0.501097 0.7 -5.55112e-17
0.501097 0.7 -5.55112e-17
0.501097 0.7 -5.37764e-17
0.500877 0.699992 -9.88792e-17
0.500658 0.699983 -1.09288e-16
0.500439 0.699974 -1.05818e-16
0.500219 0.699965 -1.29237e-16
0.5 0.699956 -2.22045e-16
0.48 0.699096 -1.11022e-16
0.460144 0.696552 -1.52656e-16
0.440582 0.692301 -1.11022e-16
0.421474 0.686331 -1.249e-16
0.4 0.677409 -1.11022e-16
0.38 0.666117 -1.11022e-16
0.361543 0.652448 -9.71445e-17
0.344946 0.636572 -1.52656e-16
0.330598 0.618638 -1.38778e-16
0.319634 0.6 -1.38778e-16
0.315707 0.590508 -1.249e-16
0.312391 0.580787 -1.11022e-16
0.309646 0.570888 -1.11022e-16
0.307441 0.560856 -1.52656e-16
0.3 0.515554 -2.22045e-16
0.3 0.515554 -2.22045e-16
0.3 0.515554 -2.22045e-16
0.3 0.515554 -2.22045e-16
0.3 0.515554 -2.22045e-16
0.3 0.515554 -2.22045e-16
0.300207 0.512443 -2.08167e-16
0.300459 0.509335 -1.94289e-16
0.300756 0.506232 -1.66533e-16
0.301098 0.503133 -1.70003e-16
0.30149 0.5 -1.96024e-16
0.304301 0.48 -1.66533e-16
0.30882 0.460315 -2.22045e-16
0.315028 0.441097 -2.22045e-16
0.32291 0.422502 -2.22045e-16
0.334917 0.4 -2.77556e-16
0.347934 0.381407 -2.77556e-16
0.362815 0.364269 -3.33067e-16
0.379372 0.348745 -2.7929e-16
0.397402 0.334958 -2.498e-16
0.4 0.333373 -1.66533e-16
0.411308 0.326699 -1.38778e-16
0.423026 0.320774 -1.66533e-16
0.43509 0.315589 -1.66533e-16
0.447421 0.311078 -1.42247e-16
0.483817 0.3 -1.11022e-16
0.487054 0.299552 -1.66533e-16
0.490296 0.299146 -1.11022e-16
0.493543 0.298783 -1.11022e-16
0.496794 0.298461 -1.11022e-16
0.5 0.298184 -1.66533e-16
0.52 0.296702 -1.66533e-16
0.540054 0.296825 -1.11022e-16
0.560029 0.298621 -4.16334e-17
0.567812 0.3 0
0.57425 0.30137 -5.55112e-17
0.580646 0.302921 -5.55112e-17
0.586996 0.304652 -5.55112e-17
0.593295 0.30656 -5.55112e-17
0.6 0.308799 -6.93889e-17
0.62 0.316354 -5.55112e-17
0.639035 0.326088 -8.32667e-17
0.656881 0.337859 -4.16334e-17
0.673349 0.351493 2.77556e-17
0.7 0.379708 1.11022e-16
0.702446 0.383766 5.55112e-17
0.704804 0.387877 5.55112e-17
0.707073 0.392037 0
0.709257 0.396243 3.46945e-17
0.71111 0.4 5.55112e-17
0.72053 0.42 5.55112e-17
0.728215 0.440729 2.77556e-17
0.734186 0.462015 6.93889e-17
0.73854 0.48369 5.55112e-17
0.74077 0.5 2.77556e-17
0.742593 0.52 -2.77556e-17
0.743372 0.540068 -5.55112e-17
0.743155 0.56015 -6.245e-17
0.741788 0.580186 0
0.739366 0.6 -1.38778e-17
0.73573 0.62 0
0.730797 0.63972 -5.55112e-17
0.724451 0.659032 0
0.716469 0.677727 0
0.704351 0.7 0
0.703481 0.701196 0
0.702601 0.702386 -5.55112e-17
0.701711 0.703568 -3.46945e-18
0.700812 0.704743 1.38778e-17
0.7 0.705788 1.11022e-16
0.685129 0.72463 5.55112e-17
0.66775 0.741188 2.77556e-17
0.648177 0.755082 0
0.626945 0.76628 2.77556e-17
0.6 0.776986 0
0.581971 0.781589 0
0.563641 0.78479 0
0.54517 0.787035 -5.55112e-17
0.526609 0.788352 -5.55112e-17
0.5 0.78895 -5.55112e-17
0.48 0.787945 -1.11022e-16
0.460076 0.785936 -6.93889e-17
0.440255 0.783081 -5.55112e-17
0.420577 0.779366 0
0.4 0.774525 0
0.38 0.768409 -5.55112e-17
0.360389 0.761141 -1.11022e-16
0.341231 0.752753 -7.97973e-17
0.322628 0.743195 -2.77556e-17
0.3 0.729014 -5.55112e-17
0.292871 0.723211 -5.55112e-17
0.285951 0.717161 -5.55112e-17
0.279249 0.710871 -5.55112e-17
0.272809 0.704311 -5.55112e-17
0.268933 0.7 2.77556e-17
0.255146 0.683765 0
0.243224 0.666116 -5.55112e-17
0.233221 0.647312 -5.55112e-17
0.224983 0.627671 -4.85723e-17
0.216044 0.6 -8.32667e-17
0.212835 0.583262 -1.66533e-16
0.210733 0.566349 -1.11022e-16
0.20946 0.549353 0
0.209005 0.532316 -2.77556e-17
0.209659 0.5 4.16334e-17
0.211925 0.48 5.55112e-17
0.215294 0.460156 2.77556e-17
0.219602 0.440494 0
0.224865 0.421067 -5.55112e-17
0.231755 0.4 0
0.239931 0.38 0
0.249324 0.360542 2.77556e-17
0.259879 0.341688 2.77556e-17
0.271658 0.323575 5.55112e-17
0.28963 0.3 5.55112e-17
0.291704 0.297836 5.55112e-17
0.293797 0.29569 5.55112e-17
0.295909 0.293563 5.55112e-17
0.29804 0.291455 5.55112e-17
0.3 0.289555 5.55112e-17
0.318803 0.271644 2.77556e-17
0.33932 0.255726 3.46945e-17
0.361309 0.241912 5.55112e-17
0.384437 0.230105 2.77556e-17
0.4 0.223817 1.11022e-16
0.414105 0.219053 1.59595e-16
0.428442 0.215042 1.94289e-16
0.442936 0.211641 1.38778e-16
0.457552 0.20881 1.11022e-16
0.5 0.202264 7.28584e-17
0.510164 0.201811 5.55112e-17
0.520336 0.201614 0
0.53051 0.201662 0
0.54068 0.201957 -2.77556e-17
0.6 0.205138 -2.08167e-17
0.62 0.209282 -5.55112e-17
0.639699 0.214678 -6.93889e-17
0.659012 0.221327 -1.66533e-16
0.677838 0.229249 -1.66533e-16
0.7 0.240666 -1.66533e-16
0.717011 0.252533 -1.66533e-16
0.732826 0.265953 -1.38778e-16
0.747376 0.280735 -1.11022e-16
0.76018 0.297052 -1.38778e-16
0.762022 0.3 -2.22045e-16
0.769617 0.31263 -2.77556e-16
0.776434 0.325697 -2.498e-16
0.782535 0.339113 -2.498e-16
0.787954 0.352819 -2.22045e-16
0.8 0.387876 -1.66533e-16
0.800574 0.390301 -1.66533e-16
0.801136 0.392729 -1.11022e-16
0.801685 0.395159 -1.11022e-16
0.802221 0.397593 -1.11022e-16
0.802739 0.4 -5.55112e-17
0.806968 0.42 -1.11022e-16
0.810467 0.440141 -1.11022e-16
0.813256 0.460392 -1.249e-16
0.815382 0.480723 -1.11022e-16
0.816803 0.5 -5.55112e-17
0.817914 0.52 -5.20417e-17
0.818673 0.540016 -1.11022e-16
0.818865 0.560046 -1.249e-16
0.818479 0.580073 -1.11022e-16
0.817506 0.6 -1.11022e-16
0.816104 0.62 -1.8735e-16
0.814241 0.639962 -1.66533e-16
0.811648 0.659843 -6.93889e-17
0.808245 0.679601 -5.55112e-17
0.803765 0.7 -5.55112e-17
0.803012 0.702736 -1.11022e-16
0.802241 0.705466 -7.63278e-17
0.801448 0.708191 -5.55112e-17
0.800631 0.710908 -1.38778e-17
0.8 0.712943 0
0.794472 0.730354 -2.77556e-17
0.787844 0.747378 -2.77556e-17
0.779971 0.763862 0
0.770724 0.779617 -5.55112e-17
0.756027 0.8 -5.55112e-17
0.744821 0.811609 -1.04083e-16
0.732498 0.822023 -1.11022e-16
0.719193 0.83115 -9.71445e-17
0.705227 0.83923 0
0.7 0.841847 2.77556e-17
0.68 0.85132 5.55112e-17
0.659033 0.858401 5.55112e-17
0.637482 0.863428 5.55112e-17
0.615735 0.867532 2.77556e-17
0.6 0.86979 0
0.58 0.871989 0
0.559908 0.873053 0
0.539791 0.87347 0
0.519671 0.873456 -5.55112e-17
0.5 0.872972 0
0.48 0.871857 0
0.46005 0.870054 1.38778e-17
0.440149 0.867779 2.77556e-17
0.420291 0.865152 8.32667e-17
0.4 0.86189 0
0.38 0.857863 0
0.360112 0.853316 0
0.34034 0.848286 0
0.320751 0.842585 5.55112e-17
0.3 0.835312 0
0.283615 0.82825 -2.77556e-17
0.267428 0.820742 -5.55112e-17
0.251581 0.812542 -5.55112e-17
0.236292 0.803345 -5.55112e-17
0.231523 0.8 0
0.225219 0.795345 0
0.219079 0.790475 -1.38778e-17
0.213112 0.785394 0
0.207332 0.780102 5.55112e-17
0.2 0.772794 0
0.186987 0.758236 0
0.175347 0.742557 2.77556e-17
0.165118 0.725923 -2.77556e-17
0.156167 0.708569 -5.55112e-17
0.152393 0.7 -5.55112e-17
0.144281 0.68 0
0.138189 0.659295 5.55112e-17
0.133751 0.638174 1.38778e-17
0.130157 0.616893 0
0.128074 0.6 5.55112e-17
0.126385 0.58 2.77556e-17
0.12589 0.559935 0
0.126062 0.539864 0
0.126723 0.519804 0
0.127932 0.5 0
0.129928 0.48 5.55112e-17
0.132724 0.460096 0
0.13612 0.440286 -2.77556e-17
0.139955 0.420555 5.55112e-17
0.144734 0.4 5.55112e-17
0.150416 0.38 1.04951e-16
0.156709 0.360183 8.32667e-17
0.163576 0.340559 1.11022e-16
0.171352 0.321276 1.11022e-16
0.18132 0.3 1.11022e-16
0.185056 0.293319 1.66533e-16
0.188864 0.286678 1.66533e-16
0.192755 0.280085 1.11022e-16
0.196775 0.273571 5.55112e-17
0.2 0.268576 -5.55112e-17
0.209176 0.254861 6.93889e-18
0.219104 0.241681 -2.77556e-17
0.229781 0.229099 -5.55112e-17
0.241181 0.217168 -1.11022e-16
0.259889 0.2 -4.16334e-17
0.267911 0.194073 -2.77556e-17
0.276117 0.188404 -5.55112e-17
0.284494 0.182991 -1.11022e-16
0.293027 0.177826 -1.11022e-16
0.3 0.173829 -1.11022e-16
0.32 0.162869 -8.32667e-17
0.340876 0.153687 -4.85723e-17
0.362402 0.146152 -4.16334e-17
0.384311 0.139816 -4.16334e-17
0.4 0.13604 -5.55112e-17
0.42 0.131917 -1.66533e-16
0.440203 0.128944 -1.38778e-16
0.460505 0.126746 -1.66533e-16
0.480855 0.125054 -1.66533e-16
0.5 0.124005 -1.66533e-16
0.52 0.123636 -1.38778e-16
0.539999 0.124058 -8.32667e-17
0.559982 0.124963 -5.55112e-17
0.579941 0.1263 -2.77556e-17
0.6 0.128212 -5.55112e-17
0.62 0.131111 -4.16334e-17
0.639884 0.134719 -5.55112e-17
0.659642 0.138964 -1.38778e-17
0.679266 0.143792 -6.93889e-18
0.7 0.150478 -1.56125e-17
0.72 0.159056 -1.38778e-17
0.739486 0.168747 2.77556e-17
0.758217 0.179826 -4.16334e-17
0.775431 0.193139 -5.55112e-17
0.78227 0.2 -1.11022e-16
0.785816 0.20398 -1.11022e-16
0.789256 0.208052 -1.66533e-16
0.792591 0.21221 -1.66533e-16
0.795798 0.216468 -2.22045e-16
0.8 0.222449 -1.66533e-16
0.80992 0.237959 -1.66533e-16
0.818397 0.254302 -1.52656e-16
0.825621 0.271237 -1.38778e-16
0.831782 0.288586 -1.11022e-16
0.835151 0.3 -1.38778e-16
0.840395 0.32 -1.66533e-16
0.844804 0.3402 -1.8735e-16
0.848561 0.360532 -2.08167e-16
0.851697 0.380969 -1.8735e-16
0.854129 0.4 -1.11022e-16
[...]
POINT_DATA 12764
 FIELD attributes 1
U 3 12764 float
2.37594e-19 	-4.40128e-18 	-2.34383e-36
0.00242437 	-0.0104102 	0 0.00309115 	-0.0103769 	3.95304e-24 0.00369338 	-0.0101631 	7.76938e-23 0.00428123 	-0.00991063 	1.5366e-22 0.00468498 	-0.00970534 	2.08727e-22 0.00601474 	-0.00911519 	2.67121e-22 0.00728393 	-0.00837745 	3.02709e-22 0.00847073 	-0.00750632 	3.15056e-22 0.00938398 	-0.00644893 	3.81834e-22 0.0111537 	-0.00364742 	5.51565e-22 0.0113452 	-0.0031596 	5.80062e-22 0.0115151 	-0.00266446 	6.01883e-22 0.0116629 	-0.00216301 	6.17018e-22 0.0117751 	-0.00165549 	6.12399e-22 0.011738 	-0.00119366 	4.89893e-22 0.0119463 	0.000521142 	3.26492e-22 0.0117523 	0.00234952 	2.3828e-22 0.0112985 	0.00418036 	1.65847e-22 0.0108833 	0.00522917 	1.33863e-22 0.0106416 	0.00577606 	9.42267e-23 0.0103798 	0.00631173 	5.39524e-23 0.0100986 	0.00683497 	1.31412e-23 0.00974769 	0.00736829 	0 0.00923125 	0.00806025 	0 0.00788495 	0.0102092 	0 0.00626353 	0.0120218 	0 0.00439499 	0.0133612 	2.37574e-22 0.0023738 	0.0142775 	5.80719e-22 0.00236819 	0.014279 	5.81558e-22 0.000723838 	0.0147497 	3.99746e-22 -0.000935935 	0.0149896 	1.89904e-22 -0.00245479 	0.0147626 	-3.64392e-23 -0.00412184 	0.0141671 	-7.24027e-23 -0.00578972 	0.0133515 	-1.02255e-22 -0.00772227 	0.0122733 	-4.04087e-23 -0.00951418 	0.0108866 	0 -0.0110816 	0.00918488 	0 -0.0121362 	0.00773365 	0 -0.013007 	0.00670065 	0 -0.0138008 	0.00563735 	0 -0.0143384 	0.00464992 	0 -0.014815 	0.00364552 	0 -0.0165591 	-0.000626214 	0 -0.0165591 	-0.000626214 	0 -0.0165591 	-0.000626214 	0 -0.0165591 	-0.000626214 	0 -0.0165591 	-0.000626214 	0 -0.0165591 	-0.000626214 	0 -0.0165618 	-0.000643444 	0 -0.0165644 	-0.000660671 	0 -0.0165671 	-0.000677895 	0 -0.0165698 	-0.000695116 	0 -0.0165716 	-0.000712709 	0 -0.0163987 	-0.00210071 	-4.3223e-22 -0.0161027 	-0.0034996 	-8.24091e-22 -0.0156835 	-0.00489995 	-1.17063e-21 -0.0151412 	-0.0062909 	-1.468e-21 -0.0140243 	-0.0079181 	-1.75211e-21 -0.012989 	-0.0096194 	-1.04384e-21 -0.0117464 	-0.0112359 	-3.16679e-22 -0.0100888 	-0.0126114 	0 -0.00808658 	-0.0137464 	0 -0.00606088 	-0.0146497 	0 -0.00517589 	-0.0151743 	0 -0.00431694 	-0.0155659 	0 -0.00348267 	-0.0158401 	0 -0.00264195 	-0.0160858 	0 0.00113326 	-0.0170545 	0 0.00113326 	-0.0170545 	0 0.00113326 	-0.0170545 	0 0.00113326 	-0.0170545 	0 0.00113326 	-0.0170545 	0 0.00113326 	-0.0170545 	0 0.00138644 	-0.017081 	0 0.00163897 	-0.0171048 	0 0.00189079 	-0.0171261 	0 0.00214186 	-0.0171448 	0 0.00240816 	-0.0171329 	0 0.00386572 	-0.0168397 	4.92813e-23 0.00530673 	-0.0164267 	9.68888e-23 0.00675242 	-0.0159306 	1.37729e-22 0.00818922 	-0.0153472 	1.74519e-22 0.00977793 	-0.0139672 	4.7427e-22 0.0113342 	-0.0130525 	7.98861e-22 0.0128137 	-0.0120142 	1.11128e-21 0.0136851 	-0.0104648 	1.307e-21 0.0144331 	-0.0088032 	1.48081e-21 0.0145184 	-0.00856974 	1.50146e-21 0.0152666 	-0.0077195 	1.69141e-21 0.0159397 	-0.00685057 	1.83246e-21 0.0162711 	-0.00595244 	1.6697e-21 0.0165822 	-0.00504701 	1.51045e-21 0.0174217 	-0.00241047 	1.06063e-21 0.0174862 	-0.00218843 	1.03308e-21 0.0175485 	-0.00196633 	1.00514e-21 0.0176086 	-0.00174421 	9.76826e-22 0.0176664 	-0.00152211 	9.48135e-22 0.0176635 	-0.00130895 	8.96742e-22 0.0176598 	0.000107773 	6.94217e-22 0.0174913 	0.00157324 	5.13816e-22 0.0172227 	0.00305083 	3.49293e-22 0.0170773 	0.00363392 	2.91324e-22 0.0169724 	0.00411542 	2.20661e-22 0.0168608 	0.00459544 	1.48732e-22 0.0167427 	0.00507359 	7.55945e-23 0.016618 	0.00554949 	1.30948e-24 0.0162812 	0.00614967 	0 0.0156667 	0.00801196 	5.98978e-23 0.0147586 	0.00973413 	2.12674e-22 0.0138218 	0.0114432 	3.12482e-22 0.0124582 	0.0131892 	7.40936e-22 0.00981106 	0.0162758 	1.55871e-21 0.00955106 	0.0166558 	1.65133e-21 0.00929077 	0.0170295 	1.74037e-21 0.00903031 	0.0173972 	1.82588e-21 0.00872129 	0.0176836 	1.79728e-21 0.00844157 	0.0179211 	1.75383e-21 0.00729254 	0.0196721 	1.96425e-21 0.00587009 	0.0209244 	2.06902e-21 0.00441549 	0.0219822 	2.12487e-21 0.00305144 	0.022321 	1.82911e-21 0.00204362 	0.0224163 	1.5549e-21 0.000893568 	0.0230305 	1.62378e-21 -0.000254581 	0.0235573 	1.6809e-21 -0.00159735 	0.023414 	1.38527e-21 -0.00275678 	0.0225545 	6.42272e-22 -0.0039299 	0.0216176 	-9.57414e-23 -0.00528948 	0.0211445 	-1.13876e-21 -0.00669419 	0.0203729 	-1.75059e-21 -0.00816562 	0.019123 	-1.55672e-21 -0.00964203 	0.0177232 	-1.2879e-21 -0.0113697 	0.0156322 	-6.60796e-22 -0.0114856 	0.0155241 	-6.44983e-22 -0.0116016 	0.0154156 	-6.29265e-22 -0.0116932 	0.0152843 	-6.08173e-22 -0.0117821 	0.01515 	-5.86535e-22 -0.0118616 	0.0150295 	-5.6726e-22 -0.0137751 	0.0131246 	-3.06541e-22 -0.0157622 	0.0111888 	-9.01303e-23 -0.0176052 	0.00928436 	3.11371e-23 -0.0185387 	0.00736612 	0 -0.0193773 	0.00494706 	0 -0.0205799 	0.00359492 	0 -0.0209583 	0.00254722 	0 -0.021306 	0.00151187 	0 -0.0216366 	0.000486123 	0 -0.0216726 	-0.00108941 	0 -0.0218996 	-0.00220848 	-2.80734e-22 -0.021624 	-0.00311392 	-9.13755e-22 -0.0213389 	-0.00402858 	-1.51327e-21 -0.0210423 	-0.00495124 	-2.07858e-21 -0.0197714 	-0.00604596 	-3.20994e-21 -0.0196089 	-0.00726682 	-5.59439e-21 -0.0193506 	-0.00847235 	-7.84957e-21 -0.0183568 	-0.00943192 	-8.5483e-21 -0.016609 	-0.0104086 	-7.11742e-21 -0.0143844 	-0.0117089 	-5.31737e-21 -0.0140113 	-0.0122503 	-5.71072e-21 -0.0136331 	-0.0127941 	-6.08284e-21 -0.0129924 	-0.0132345 	-5.64515e-21 -0.0122654 	-0.0136428 	-4.93296e-21 -0.0118044 	-0.0139007 	-4.46686e-21 -0.0103721 	-0.0153537 	-2.97349e-21 -0.00895915 	-0.0168426 	-1.36729e-21 -0.00749653 	-0.0178726 	-1.18564e-21 -0.00604005 	-0.0186983 	-1.59538e-21 -0.00370053 	-0.0193028 	-2.63454e-21 -0.00249856 	-0.0200999 	-2.26608e-21 -0.00152081 	-0.0203024 	-2.07461e-21 -0.00054755 	-0.0205041 	-1.8438e-21 0.000419038 	-0.0207047 	-1.57486e-21 0.00234861 	-0.020729 	-1.2984e-21 0.00353277 	-0.0208079 	-9.92545e-22 0.00448139 	-0.0204538 	-6.87802e-22 0.00544793 	-0.0201102 	-3.70224e-22 0.00642413 	-0.0196413 	-8.28609e-23 0.00747431 	-0.0182835 	-1.99519e-23 0.00870985 	-0.0180446 	-7.67476e-24 0.00994898 	-0.0177711 	1.13031e-23 0.0109922 	-0.0169021 	2.04624e-22 0.0117583 	-0.0154242 	5.2462e-22 0.0128135 	-0.0133704 	9.7691e-22 0.0129545 	-0.0132813 	1.00249e-21 0.013096 	-0.0131924 	1.02828e-21 0.0132016 	-0.0130546 	1.05302e-21 0.0132785 	-0.0128772 	1.07697e-21 0.0133489 	-0.012716 	1.09898e-21 0.014704 	-0.0114074 	1.65966e-21 0.016161 	-0.0101526 	2.2711e-21 0.0171016 	-0.00873105 	2.31745e-21 0.0174289 	-0.00704171 	1.7883e-21 0.0176222 	-0.00595115 	1.44148e-21 0.018415 	-0.00515313 	1.47017e-21 0.0187812 	-0.00440576 	1.33584e-21 0.0190025 	-0.00368165 	1.14917e-21 0.019235 	-0.00296628 	9.7174e-22 0.0198495 	-0.000884131 	4.56227e-22 0.0198491 	-0.000384432 	3.92444e-22 0.0197686 	9.28359e-05 	3.47971e-22 0.0196915 	0.000571747 	3.02399e-22 0.0196179 	0.00105204 	2.55742e-22 0.0190176 	0.00394077 	0 0.0185528 	0.00508158 	8.03912e-23 0.0179155 	0.00616775 	1.87681e-22 0.0173132 	0.00728571 	2.8267e-22 0.0165085 	0.00850445 	4.80868e-22 0.0147358 	0.0102794 	1.11308e-21 0.0140052 	0.0118853 	1.83275e-21 0.0132843 	0.013496 	2.52311e-21 0.0118472 	0.0150966 	2.73732e-21 0.0104105 	0.0166681 	2.88636e-21 0.0101778 	0.0169237 	2.90368e-21 0.00952711 	0.018263 	3.28829e-21 0.00889428 	0.019557 	3.62213e-21 0.00814263 	0.0205952 	3.59798e-21 0.00742814 	0.0216181 	3.57313e-21 0.00571962 	0.0241506 	3.5092e-21 0.0056263 	0.0243286 	3.51459e-21 0.00553356 	0.0245059 	3.51976e-21 0.00544141 	0.0246825 	3.5247e-21 0.00534982 	0.0248583 	3.52943e-21 0.00527179 	0.0249313 	3.47483e-21 0.00451083 	0.0259673 	3.3028e-21 0.00369123 	0.0268016 	3.08391e-21 0.00288324 	0.0275767 	2.85673e-21 0.00208695 	0.028296 	2.62211e-21 0.00156008 	0.0281036 	1.95158e-21 0.00109584 	0.0288782 	1.82344e-21 0.000275669 	0.0287637 	1.39568e-21 -0.000551633 	0.0285982 	9.66949e-22 -0.00138552 	0.0283811 	5.37599e-22 -0.00190458 	0.0271759 	1.03411e-22 -0.00251475 	0.0269453 	3.11396e-23 -0.00338065 	0.0259121 	-1.29194e-22 -0.00427495 	0.0248242 	-2.93092e-22 -0.00519943 	0.0236771 	-4.60698e-22 -0.00611846 	0.0222259 	-6.19454e-22 -0.00623669 	0.0220857 	-6.21603e-22 -0.00636299 	0.0218467 	-5.50569e-22 -0.00649119 	0.0215984 	-4.73135e-22 -0.00662072 	0.0213493 	-3.956e-22 -0.00671903 	0.0211615 	-3.373e-22 -0.00766427 	0.0196843 	3.27632e-23 -0.0086903 	0.018197 	3.80169e-22 -0.00980498 	0.0167057 	6.99459e-22 -0.0108969 	0.015112 	1.01052e-21 -0.0122276 	0.012668 	1.45019e-21 -0.0134398 	0.0113578 	1.91412e-21 -0.0146867 	0.010075 	2.31025e-21 -0.0153681 	0.00889009 	2.05549e-21 -0.0155623 	0.00779314 	1.25493e-21 -0.0156399 	0.00740798 	9.55345e-22 -0.0176299 	0.00595373 	5.73207e-22 -0.0197514 	0.0046071 	1.72597e-22 -0.0201661 	0.00380613 	8.68639e-24 -0.0196106 	0.00281428 	0 -0.0191842 	0.00210934 	0 -0.0208756 	0.00110538 	0 -0.0215525 	0.000447137 	0 -0.0216569 	-1.52253e-05 	0 -0.0213202 	-0.000525335 	0 -0.0200911 	-0.00111986 	0 -0.0213111 	-0.00192613 	0 -0.0217712 	-0.00248836 	-1.27048e-22 -0.0216499 	-0.0028642 	-3.50915e-22 -0.0205219 	-0.00329892 	-1.08413e-21 -0.0188083 	-0.00378761 	-2.13264e-21 -0.0194686 	-0.00445042 	-3.29516e-21 -0.0201448 	-0.00512465 	-4.46345e-21 -0.0195913 	-0.00570187 	-5.07653e-21 -0.0177753 	-0.00623022 	-5.17252e-21 -0.0158945 	-0.00685081 	-5.33148e-21 -0.0159904 	-0.00741677 	-5.5235e-21 -0.0155045 	-0.00802238 	-5.41788e-21 -0.0144272 	-0.00867861 	-5.01674e-21 -0.0133675 	-0.00937743 	-4.65463e-21 -0.0130295 	-0.00961972 	-4.55093e-21 -0.0126538 	-0.010036 	-4.72931e-21 -0.012288 	-0.0104646 	-4.93204e-21 -0.0118937 	-0.0108893 	-5.03998e-21 -0.0112607 	-0.0112237 	-4.40868e-21 -0.0104425 	-0.0116827 	-3.6117e-21 -0.00946326 	-0.0127467 	-2.72708e-21 -0.00851886 	-0.0138537 	-1.95286e-21 -0.00755233 	-0.0146415 	-1.92355e-21 -0.00650451 	-0.0147692 	-3.21996e-21 -0.00602167 	-0.0148471 	-3.86298e-21 -0.00486157 	-0.0165214 	-5.00658e-21 -0.00381386 	-0.0181527 	-6.13286e-21 -0.00311536 	-0.0184428 	-6.66781e-21 -0.00223179 	-0.0181048 	-6.32688e-21 -0.00149256 	-0.0176742 	-5.78757e-21 -0.00047246 	-0.0191484 	-6.1574e-21 0.000167814 	-0.0196202 	-5.75235e-21 0.00064905 	-0.0196913 	-5.02728e-21 0.00118222 	-0.0193667 	-4.08575e-21 0.00181565 	-0.0181879 	-2.70511e-21 0.0026902 	-0.0191543 	-1.74324e-21 0.00336972 	-0.0196533 	-9.09503e-22 0.00379658 	-0.0195356 	-2.4668e-22 0.0042401 	-0.018238 	-2.24046e-22 0.00473009 	-0.0166473 	-3.4438e-22 0.0054096 	-0.0170353 	-4.76176e-22 0.00610596 	-0.0174503 	-6.04737e-22 0.00674083 	-0.0167155 	-5.33864e-22 0.00724201 	-0.0154573 	-3.74972e-22 0.00777688 	-0.0139084 	-1.6281e-22 0.00797172 	-0.0139027 	-1.17137e-22 0.00816182 	-0.0138295 	-7.38298e-23 0.00832437 	-0.0134889 	-4.00343e-23 0.00849328 	-0.0131542 	-5.95993e-24 0.00862951 	-0.0128991 	2.0718e-23 0.00923024 	-0.0122527 	1.46545e-22 0.00988558 	-0.0116494 	2.7798e-22 0.0105848 	-0.0110786 	4.14428e-22 0.0109867 	-0.0100821 	5.43729e-22 0.0116912 	-0.00863712 	7.50365e-22 0.0120645 	-0.00833584 	7.95176e-22 0.0124508 	-0.00804505 	8.42787e-22 0.012812 	-0.00775394 	8.88108e-22 0.0128817 	-0.00738503 	8.9552e-22 0.0129467 	-0.00709503 	9.03322e-22 0.0141056 	-0.00620372 	8.75708e-22 0.0153965 	-0.00538973 	8.64595e-22 0.0158088 	-0.00457145 	7.95379e-22 0.015539 	-0.00374006 	6.82237e-22 0.0153771 	-0.00316987 	6.09529e-22 0.0165982 	-0.00244261 	2.59612e-22 0.0172842 	-0.00187171 	6.65104e-23 0.0174135 	-0.00144763 	2.74845e-23 0.0172922 	-0.00094758 	2.63443e-23 0.0165945 	-0.000306136 	1.07021e-22 0.0175745 	0.000370658 	1.62098e-23 0.017683 	0.000801368 	0 0.0176334 	0.00118068 	0 0.0172688 	0.00164606 	0 0.0160574 	0.00232754 	0 0.0165777 	0.00300795 	0 0.0168644 	0.0036237 	0 0.016652 	0.00409681 	0 0.0151909 	0.00489844 	1.72957e-22 0.0136221 	0.00584296 	3.78627e-22 0.013556 	0.00674158 	2.92957e-22 0.0131505 	0.00777828 	3.57001e-22 0.0117875 	0.0091162 	7.9755e-22 0.0105018 	0.0105359 	1.27823e-21 0.00997449 	0.0111953 	1.50722e-21 0.00981139 	0.011615 	1.68235e-21 0.00965704 	0.0120377 	1.8598e-21 0.00938627 	0.0124628 	1.96375e-21 0.00905661 	0.0128905 	2.02816e-21 0.00862157 	0.0134806 	2.1206e-21 0.00781426 	0.0150646 	2.63165e-21 0.00710044 	0.0166461 	3.13033e-21 0.00646895 	0.0182155 	3.61559e-21 0.00573643 	0.019431 	3.76209e-21 0.00529027 	0.0201773 	3.82256e-21 0.00487556 	0.022337 	4.07114e-21 0.00452565 	0.0244938 	4.3185e-21 0.0039566 	0.0257827 	4.21021e-21 0.00336103 	0.0263 	3.71787e-21 0.00282963 	0.0267643 	3.26143e-21 0.00250036 	0.0283988 	3.27893e-21 0.00218736 	0.0300234 	3.29793e-21 0.00212291 	0.0306494 	2.79468e-21 0.00162725 	0.0302473 	1.99158e-21 0.00113987 	0.0298377 	1.20235e-21 0.000722452 	0.0307055 	1.11706e-21 0.00036507 	0.0313928 	1.03548e-21 0.000319475 	0.0311578 	9.51684e-22 -6.98777e-05 	0.0300842 	5.7602e-22 -0.000536025 	0.0288326 	1.41256e-22 -0.00106279 	0.0288097 	8.89033e-23 -0.00155024 	0.028651 	4.90802e-23 -0.00170973 	0.02765 	9.56186e-23 -0.00214526 	0.0257837 	4.42543e-23 -0.00262949 	0.0238332 	-1.89734e-23 -0.00328337 	0.0229053 	1.53586e-24 -0.00397651 	0.021962 	1.47407e-23 -0.00454479 	0.0203213 	2.66281e-22 -0.0050772 	0.0180058 	8.42695e-22 -0.00574048 	0.0155467 	1.46027e-21 -0.00672349 	0.0138403 	2.39963e-21 -0.00749829 	0.0119997 	2.6145e-21 -0.0081348 	0.0100763 	2.23165e-21 -0.00880792 	0.00846915 	1.83857e-21 -0.0094397 	0.00781321 	2.07262e-21 -0.0101188 	0.00718619 	2.32275e-21 -0.0105395 	0.00662101 	2.28944e-21 -0.0107383 	0.00610753 	2.01701e-21 -0.011208 	0.00508848 	1.48036e-21 -0.0117853 	0.00442573 	1.22456e-21 -0.0124082 	0.00381555 	9.88357e-22 -0.0130702 	0.00325559 	7.70915e-22 -0.0129585 	0.00298996 	6.95843e-22 -0.0120362 	0.00304803 	7.70674e-22 -0.0139444 	0.00217412 	5.31219e-22 -0.014943 	0.00146137 	3.06108e-22 -0.0155819 	0.000833713 	9.0759e-23 -0.0146451 	0.000662264 	0 -0.0126981 	0.000801081 	0 -0.014873 	0.000299871 	0 -0.0164361 	-0.000181989 	0 -0.016598 	-0.000636665 	0 -0.0153186 	-0.000784801 	0 -0.0132631 	-0.000766575 	0 -0.0152662 	-0.000984638 	0 -0.0160841 	-0.00126979 	-1.43028e-22 -0.0158501 	-0.00161793 	-4.16695e-22 -0.0152096 	-0.00192176 	-6.95649e-22 -0.0134915 	-0.00210822 	-9.83283e-22 -0.0150371 	-0.00213044 	-7.81699e-22 -0.0145166 	-0.00243171 	-1.09611e-21 -0.0140415 	-0.00275248 	-1.42786e-21 -0.0136162 	-0.00309435 	-1.77834e-21 -0.0129859 	-0.00348274 	-2.21707e-21 -0.0131853 	-0.00347008 	-2.15605e-21 -0.0130886 	-0.00352819 	-2.13972e-21 -0.0129757 	-0.00359178 	-2.12695e-21 -0.0128647 	-0.00365663 	-2.11508e-21 -0.0127633 	-0.00371822 	-2.10488e-21 -0.0123057 	-0.00405833 	-2.1396e-21 -0.0119003 	-0.00443188 	-2.2058e-21 -0.011552 	-0.00484108 	-2.30596e-21 -0.0110067 	-0.00529628 	-2.30417e-21 -0.00944139 	-0.00590558 	-1.80336e-21 -0.00897686 	-0.00662891 	-1.20169e-21 -0.00858922 	-0.00744587 	-6.81779e-22 -0.00744763 	-0.0079448 	-5.66407e-22 -0.0063247 	-0.00850997 	-6.03425e-22 -0.00582706 	-0.00885086 	-6.87343e-22 -0.00552646 	-0.00933757 	-3.4107e-22 -0.00524414 	-0.00984391 	-1.47325e-24 -0.00491094 	-0.00998424 	-3.58167e-22 -0.00459178 	-0.0101415 	-7.11156e-22 -0.00401602 	-0.0104698 	-1.36996e-21 -0.00359357 	-0.0109021 	-1.648e-21 -0.00320159 	-0.011371 	-1.95558e-21 -0.00283839 	-0.0118723 	-2.28967e-21 -0.00260163 	-0.0119954 	-2.6472e-21 -0.00263902 	-0.0111744 	-2.96869e-21 -0.00191507 	-0.0127361 	-5.15154e-21 -0.00129662 	-0.0134232 	-6.19531e-21 -0.000726268 	-0.0139533 	-6.94694e-21 -0.000479875 	-0.013409 	-6.45136e-21 -0.000553607 	-0.0118224 	-4.80231e-21 -0.000103619 	-0.0135921 	-6.18892e-21 0.00035792 	-0.0146213 	-6.61574e-21 0.000834944 	-0.0147107 	-5.87024e-21 0.00110619 	-0.0139716 	-4.43997e-21 0.00116859 	-0.0123698 	-2.31791e-21 0.00135914 	-0.0138988 	-1.739e-21 0.00167484 	-0.0140481 	-1.24109e-21 0.00204234 	-0.0137586 	-7.86919e-22 0.00242219 	-0.01352 	-3.55841e-22 0.00270512 	-0.0124439 	-4.10506e-22 0.0027239 	-0.0130363 	-6.57446e-22 0.00290867 	-0.0127025 	-6.3043e-22 0.00310437 	-0.0123928 	-5.99762e-22 0.00331163 	-0.0121086 	-5.65219e-22 0.00346047 	-0.0119343 	-5.39015e-22 0.00361088 	-0.0118256 	-5.5326e-22 0.00376682 	-0.011728 	-5.67839e-22 0.00392835 	-0.0116418 	-5.82757e-22 0.00409015 	-0.0114846 	-5.84213e-22 0.00423744 	-0.0108951 	-5.12843e-22 0.00464523 	-0.0107238 	-3.93046e-22 0.0050281 	-0.010366 	-2.62061e-22 0.00546043 	-0.0100796 	-1.29373e-22 0.0058454 	-0.00902633 	-2.52878e-23 0.00640575 	-0.00773328 	9.92971e-23 0.00662338 	-0.00759963 	1.11235e-22 0.00685691 	-0.00748098 	1.24108e-22 0.00702532 	-0.00719593 	1.40048e-22 0.00718445 	-0.00686517 	1.57905e-22 0.00731427 	-0.00664232 	1.71659e-22 0.00791058 	-0.00607243 	2.29919e-22 0.00860139 	-0.00556971 	2.94424e-22 0.00901629 	-0.00502979 	3.16101e-22 0.00927149 	-0.00448197 	3.11692e-22 0.0100512 	-0.00329701 	3.13112e-22 0.0100824 	-0.00327971 	3.13889e-22 0.0101137 	-0.00326253 	3.1468e-22 0.0101452 	-0.00324547 	3.15484e-22 0.0101596 	-0.00323299 	3.1665e-22 0.0101158 	-0.00323565 	3.18984e-22 0.0105142 	-0.00270722 	2.58952e-22 0.0109251 	-0.00223201 	2.08515e-22 0.0114079 	-0.00179464 	1.63396e-22 0.0117639 	-0.00144133 	1.31157e-22 0.0106903 	-0.00152086 	1.65866e-22 0.0119777 	-0.00108932 	1.16617e-22 0.0125792 	-0.000678926 	6.93034e-23 0.0128356 	-0.000283954 	2.34711e-23 0.0123174 	-8.44496e-05 	0 0.0109779 	-8.94682e-05 	0 0.0124035 	0.000141544 	0 0.0130414 	0.000447729 	0 0.012953 	0.000824281 	0 0.0123775 	0.00111912 	0 0.0110512 	0.00129293 	0 0.0123449 	0.00135296 	0 0.0121339 	0.00170129 	0 0.0117153 	0.00211753 	0 0.0113557 	0.0025574 	0 0.010574 	0.00302601 	0 0.0109171 	0.00302589 	0 0.010715 	0.00320024 	0 0.0104534 	0.0034044 	0 0.0102033 	0.00361751 	0 0.0100342 	0.0037756 	0 0.0096874 	0.00424641 	0 0.0094049 	0.00475638 	0 0.00918985 	0.00530535 	0 0.00861233 	0.00599758 	1.51802e-22 0.00732861 	0.00713407 	5.85203e-22 0.00679062 	0.00823286 	5.79284e-22 0.00637681 	0.00941307 	6.21334e-22 0.00571181 	0.0107148 	9.54685e-22 0.00485885 	0.0121241 	1.55121e-21 0.0046286 	0.0126038 	1.75821e-21 0.00421682 	0.0147554 	2.53876e-21 0.00394053 	0.0169247 	3.32879e-21 0.00354674 	0.0186867 	3.72438e-21 0.00296974 	0.0200912 	3.89016e-21 0.00247699 	0.021184 	3.97366e-21 0.00228807 	0.023263 	4.21011e-21 0.00219602 	0.0247627 	4.10702e-21 0.0021456 	0.0260348 	3.87105e-21 0.00207668 	0.0272612 	3.62296e-21 0.0015715 	0.0277085 	3.15149e-21 0.00131105 	0.029223 	3.1273e-21 0.001307 	0.0297915 	2.59948e-21 0.00130363 	0.0303603 	2.07224e-21 0.00130091 	0.0309294 	1.54556e-21 0.00092301 	0.0307326 	8.15685e-22 0.000612545 	0.0312831 	7.31023e-22 0.000568371 	0.0310458 	6.44567e-22 0.000523972 	0.0308088 	5.58541e-22 0.000479342 	0.0305722 	4.72954e-22 0.000167551 	0.0296843 	1.60712e-22 -0.000194235 	0.0293088 	1.47368e-22 -0.00030623 	0.0282928 	1.99743e-22 -0.000422437 	0.027278 	2.51605e-22 -0.000543322 	0.0262646 	3.02897e-22 -0.000855588 	0.0246504 	2.86329e-22 -0.00130187 	0.0235457 	3.35837e-22 -0.00150851 	0.0219013 	4.10389e-22 -0.00173769 	0.0202611 	4.81297e-22 -0.00199478 	0.0186264 	5.47667e-22 -0.00233546 	0.0163475 	1.08168e-21 -0.00292945 	0.0147326 	1.97778e-21 -0.00342705 	0.0128592 	2.34425e-21 -0.00399649 	0.0109405 	2.61996e-21 -0.0043414 	0.00889977 	2.20461e-21 -0.00474626 	0.00645412 	1.36361e-21 -0.00539821 	0.00512104 	1.09058e-21 -0.00624613 	0.00394724 	8.92504e-22 -0.00569316 	0.003647 	9.66216e-22 -0.00497714 	0.00343216 	1.05482e-21 -0.00595527 	0.00213904 	5.37928e-22 -0.0076187 	0.00103672 	6.25667e-23 -0.00746266 	0.000848979 	-2.28055e-36 -0.00644163 	0.000937327 	9.38826e-23 -0.00455509 	0.00115353 	2.91662e-22 -0.00646333 	0.00027962 	5.22068e-23 -0.00693938 	8.9865e-05 	0 -0.00686394 	8.8888e-05 	0 -0.00621539 	0.000135432 	0 -0.00438415 	0.000276582 	0 -0.00655908 	-0.000224628 	0 -0.00705577 	-0.000291221 	0 -0.00730855 	-0.000301654 	0 -0.00701881 	-0.000304961 	0 -0.00493072 	-0.000284985 	0 -0.0069339 	-0.000503048 	0 -0.00794251 	-0.000603238 	0 -0.00836994 	-0.000635702 	0 -0.00759814 	-0.000733255 	-1.41722e-22 -0.00577898 	-0.000903042 	-