/*--------------------------------*- C++ -*----------------------------------*\
| =========                 |                                                 |
| \\      /  F ield         | OpenFOAM: The Open Source CFD Toolbox           |
|  \\    /   O peration     | Version:  v1912                                 |
|   \\  /    A nd           | Website:  www.openfoam.com                      |
|    \\/     M anipulation  |                                                 |
\*---------------------------------------------------------------------------*/
FoamFile
{
    version     2.0;
    format      ascii;
    class       volScalarField;
    location    "0.35";
    object      epsilon;
}
// * * * * * * * * * * * * * * * * * * * * * * * * * * * * * * * * * * * * * //

dimensions      [0 2 -3 0 0 0 0];


internalField   nonuniform List<scalar> 
1431
(
135.721
44.2029
24.3982
12.5122
1.98223
4.12271
4.3851
74.9792
40.3977
4.16325
75.7379
53.6849
34.1288
4.70865
1.23408
3.80654
4.05166
12.6018
4.69813
18.4096
161.417
5.2061
18.823
86.8194
36.4704
33.83
49.5379
7.50758
75.6888
33.5842
30.2316
41.0494
29.2756
2.37184
13.1252
37.1856
58.7177
1.46792
16.154
33.8663
86.3474
76.7636
33.7566
5.46878
2.63817
4.18958
2.03414
40.6242
4.91473
7.47329
25.6972
7.43885
23.6574
104.539
27.5299
59.0679
1.32586
83.0881
6.15157
3.51328
2.74773
8.87695
5.90399
1.95902
27.1805
4.69795
17.8572
27.9393
3.43492
10.9487
57.7547
3.31184
10.2087
1.85324
6.36373
2.94172
22.8004
47.0056
4.11531
9.80956
4.75368
13.2443
22.1927
2.12824
34.3893
15.3727
4.66666
1.14696
23.3873
24.737
9.33622
1.65513
2.15941
3.53533
15.4812
34.3047
88.9771
38.7243
7.60638
20.1909
39.9545
11.0262
4.70628
9.39555
47.4693
36.5239
58.4186
82.6891
11.383
5.18169
6.36951
34.9637
15.9572
99.9086
31.9769
1.94323
4.74608
12.3589
16.8207
3.89741
14.5866
1.14925
113.626
8.56009
34.0824
4.11476
22.9886
0.99123
20.8922
6.53495
4.99808
18.6619
9.54733
9.22048
30.875
13.8028
29.9116
6.66571
25.095
1.46049
22.5396
26.6444
6.31517
7.68043
9.16217
29.6144
7.69904
31.3213
3.63724
8.73094
7.59868
3.74967
36.4662
18.91
48.8038
5.58452
25.3897
33.7627
24.5611
8.86215
31.9796
33.9442
5.69106
5.08616
79.7006
129.201
114.743
18.6337
3.78188
37.6575
29.4381
25.5946
30.1039
26.3055
43.6593
24.5352
7.01094
2.917
21.6683
13.9242
5.61555
15.0609
46.8481
171.894
2.97774
110.79
110.021
40.5774
28.4063
26.7329
21.8994
32.426
34.201
104.821
15.1858
25.7369
38.0997
7.7005
3.10807
76.8996
46.8087
5.55347
46.8309
4.17612
34.143
22.9741
48.2483
3.15155
37.8092
45.2685
35.7351
6.29245
54.8052
38.3535
34.9004
30.3427
38.2444
7.6433
40.0066
40.1979
47.8374
48.4971
6.5252
5.27771
52.4495
63.4154
64.2655
38.617
47.2888
31.278
34.6331
29.728
32.9817
32.2368
42.4033
31.6198
50.4234
37.791
22.5218
49.7862
13.7863
18.7761
47.936
30.677
30.1899
24.3952
34.501
50.8536
50.7589
3.37115
0.787132
24.9471
8.33586
4.88742
22.0796
63.6884
7.90659
88.5886
35.2758
36.9579
42.0922
24.705
43.8433
5.74647
58.6069
49.0621
48.3063
158.842
38.2608
1.50908
6.18456
45.3995
41.4161
43.2552
30.3459
30.2711
28.7146
25.3835
59.1181
69.737
24.8926
47.7012
30.1719
43.7882
18.2573
32.0386
68.0473
37.2204
35.8907
47.567
2.79116
58.5546
42.2547
31.0612
26.3158
48.6136
132.154
130.177
22.1956
66.7784
25.5231
82.9465
36.2793
35.0273
40.5916
7.47727
41.0441
35.1599
70.1443
36.6945
18.637
14.3267
5.87488
69.4653
41.6261
32.1791
8.5645
22.8246
3.20548
449.902
31.297
29.2432
15.962
37.6908
5.62548
30.9502
20.8243
69.7016
136.673
5.08901
91.6931
4.11075
64.0822
5.63214
11.1343
34.309
67.8143
32.2052
5.10531
82.0301
68.2454
34.3009
12.7068
91.5439
26.2815
25.6269
49.7335
27.1031
14.1841
34.6725
5.29704
6.70714
33.4006
17.4402
7.37389
60.171
24.2332
30.5992
22.6261
76.277
5.46394
89.7064
77.7711
29.9979
3.47747
23.0811
55.3162
250.244
49.0981
24.8865
66.1882
2.7599
24.6784
24.2641
84.9213
135.586
24.1378
40.3682
12.9569
183.598
34.7576
3.79913
74.2796
9.20893
406.381
15.7732
15.6365
11.9273
4.89706
20.4024
17.665
18.0184
18.8646
7.02836
34.4976
29.2242
40.7325
42.8605
68.1353
8.28555
13.6894
80.5806
33.3261
61.5523
79.2725
42.8617
3.76621
34.0734
13.7506
40.2663
18.0926
6.9368
37.3491
30.2805
8.23005
10.0592
12.7211
59.0435
5.09946
34.2393
60.7129
32.3019
40.0395
14.154
31.3127
4.25185
11.2258
10.7063
10.4382
61.2946
26.9845
27.5745
33.325
29.516
34.72
34.17
29.6646
39.5226
33.171
39.2245
6.20435
25.4757
6.1183
5.18984
5.46989
3.15423
2.92699
2.89013
3.76491
4.19991
3.58153
10.9683
5.00442
4.35322
4.28839
5.06419
5.09156
71.1823
6.92543
28.9469
4.71672
20.2414
63.236
5.74569
29.3188
20.6661
6.41952
58.7471
17.5154
54.9033
4.25967
4.58606
5.79392
6.12282
25.3527
24.207
15.975
18.0876
3.00243
4.18663
6.25036
4.02264
26.1696
17.6354
7.53223
5.58616
4.81013
6.10809
22.0247
24.6148
28.2109
10.2636
17.4936
24.8541
5.62689
5.68027
14.7494
29.1342
28.8943
8.6772
37.6789
30.4593
32.0938
66.1962
28.5214
25.4256
5.78479
63.2512
73.4209
2.35814
26.4654
18.5766
6.66054
13.2291
79.7179
10.3694
35.8045
27.3636
25.6899
26.2751
1.99334
78.9586
5.98662
6.43438
30.3164
12.5033
27.6343
33.7838
6.91076
22.5193
45.2729
47.1105
32.2696
72.6596
40.3788
7.62894
64.9399
11.8652
30.6024
4.85399
37.1905
60.7653
114.103
66.4062
19.1882
51.7579
33.2925
17.026
38.8967
44.0664
13.7485
61.586
79.0367
23.0768
6.62033
79.9702
13.0683
37.797
13.282
218.09
44.5356
25.5169
22.4686
41.5674
363.03
58.5543
61.4041
5.15235
28.5394
58.745
30.0754
16.9863
32.6849
71.9447
133.52
5.44993
10.1572
5.85732
25.8389
21.6145
32.1756
14.4351
2.532
10.4189
11.515
42.6627
28.0106
49.7861
155.603
2.04327
24.5342
266.539
29.4171
23.6113
55.3062
38.345
11.7697
14.1485
41.9969
30.9653
24.8823
32.5956
30.0597
59.1111
8.26705
3.80513
75.2147
11.2853
22.4137
4.2322
11.4194
49.115
19.9862
26.6797
6.03579
74.463
40.9732
9.73734
16.308
12.7605
35.1483
37.1717
115.235
19.1793
40.639
6.78536
40.751
0.952754
10.5783
52.0379
35.2845
34.1033
19.0356
32.1702
28.5275
8.27702
53.4282
23.2147
44.6342
46.221
77.9099
26.7956
20.7648
27.6289
189.614
40.4369
6.56615
5.31082
29.2134
22.4498
25.7439
57.4273
3.87078
9.47442
4.89065
4.22937
23.8325
9.00906
9.89921
26.3714
33.69
43.3309
32.9937
33.1662
37.151
41.3942
21.4297
9.43902
27.5036
9.78592
28.3516
21.7356
65.4987
38.6093
21.2852
20.7942
68.3426
5.51285
2.77122
42.9074
48.9013
62.4233
17.6377
64.3215
30.6886
16.9834
26.1812
29.0109
5.51728
11.8326
72.9741
47.8632
113.456
10.1397
8.01223
40.6636
26.0804
1.98151
7.24282
16.2702
19.119
9.95086
34.278
8.98127
134.226
71.8813
2.80887
22.5215
29.2296
22.1874
9.12059
77.3992
25.5473
51.0518
30.9375
114.21
29.8701
29.8571
29.0139
68.6941
112.705
24.2984
24.3813
32.7139
65.9733
11.5434
60.6619
32.9236
75.598
107.18
11.114
28.4286
15.9327
25.0311
105.237
44.5072
111.264
30.0709
63.9116
13.4455
40.7434
15.1515
33.4315
2.34913
22.8718
3.79763
5.61997
7.80731
4.09013
7.21558
34.1883
49.986
12.6153
5.60996
129.539
2.9665
75.3031
5.53463
4.25295
102.144
125.268
139.804
47.2631
4.95534
4.45069
60.9696
3.96681
4.42725
33.6192
48.9723
35.0764
34.8794
2.41364
102.839
89.6988
22.4353
6.16046
54.1355
52.0814
39.4696
12.203
38.0355
31.0647
15.3701
13.8091
25.8665
2.92286
17.2699
30.9528
17.7108
58.337
14.5441
47.5296
48.6681
40.4213
6.52847
16.2742
32.6813
17.3828
34.0784
34.6093
5.51211
9.20577
21.6536
25.157
451.325
37.1242
11.6212
58.1174
3.02771
272.325
4.12262
42.9618
30.0001
53.2085
85.178
22.3037
4.92782
47.3785
52.398
3.12797
46.3749
26.6141
37.7931
16.0243
42.661
59.7446
26.3909
3.88029
19.0739
41.4535
33.0824
66.0936
32.6482
22.4886
111.834
5.24248
42.3379
35.9518
64.8487
33.7878
14.395
14.6095
41.8185
22.5388
30.6662
36.7729
145.585
52.0214
29.1282
49.4666
25.7411
34.4676
56.9915
17.2052
35.4175
8.1664
3.12596
19.7095
32.7213
60.8517
15.2755
2.88538
28.0648
31.2725
36.9022
28.1344
5.07215
26.0077
27.4977
36.5836
364.831
54.1507
2.55848
5.36106
6.38066
4.91952
89.4217
27.8469
62.0389
47.6398
15.0904
83.2192
36.8863
290.847
79.3946
44.0149
52.7236
62.5337
67.7191
75.3765
71.6771
55.4177
59.5626
43.1375
41.2667
42.9079
42.6101
47.7481
59.3248
38.955
40.1259
42.762
35.6181
59.2478
58.838
34.0492
58.0343
56.1825
33.6422
53.1843
27.5653
19.8255
14.2976
13.6654
3.22407
5.36465
1.99427
30.3136
49.89
24.5231
4.37206
37.9741
71.5551
117.119
7.97293
4.89023
23.3982
2.18442
27.5245
2.8718
4.37419
105.493
1.05662
49.7032
9.76092
16.5418
20.1764
71.5261
22.2912
31.7177
5.27431
29.9354
77.935
40.4524
35.3044
24.2713
18.2877
8.7646
4.99993
15.1349
29.3154
74.0012
33.5113
23.3451
19.495
28.3638
4.881
7.14167
39.0747
108.987
26.9471
35.5079
19.0417
39.0442
6.52166
5.70063
17.5288
48.7553
3.42123
6.3694
22.2583
29.3361
71.8046
3.08158
4.26326
8.39104
19.2292
5.53126
476.593
37.8197
38.0591
25.4476
86.0927
45.3523
32.4253
4.72149
11.4158
14.0669
2.02721
23.2122
26.2603
31.2853
243.276
44.6864
48.9667
42.1203
13.5101
41.7952
6.708
54.1205
26.1191
0.893497
58.3527
42.5747
17.9392
66.9022
64.5262
16.5048
9.66183
12.5018
2.82773
66.3297
10.6734
16.0387
28.417
15.4707
14.9012
14.0959
15.1275
39.4208
286.242
4.40325
77.5577
34.6381
5.0955
47.7057
94.6419
33.4359
5.67644
29.4099
29.5648
23.4545
23.6851
2.54555
44.4419
11.4443
36.0701
26.2796
54.966
13.614
6.88461
21.1263
8.06482
62.0358
38.2689
87.9381
56.1907
56.7243
26.8464
61.3231
22.1038
21.4601
5.22133
10.3455
5.84685
15.3548
5.44284
15.0792
53.2277
9.13747
16.7779
48.6253
29.5791
31.9892
18.4883
31.395
46.5051
32.0632
45.9866
46.903
36.1109
47.0724
47.1638
40.9545
43.2357
46.2518
45.0497
49.076
49.5369
48.3687
48.0655
8.6161
10.377
12.7759
8.90491
10.7851
11.8893
33.7196
1.94415
44.5716
50.217
58.2957
34.2677
5.64396
15.6899
6.98964
4.80336
22.7578
7.8827
38.7193
8.19785
6.00545
22.0725
0.906603
15.6014
17.9728
48.6838
15.6055
24.9963
33.1238
14.1739
369.073
40.1999
9.31835
1.70158
24.4652
19.0963
38.0687
35.7162
26.2137
51.7984
5.38596
2.54695
16.7877
35.1146
5.22721
5.28394
5.25089
4.5012
6.91589
20.9163
26.3966
58.7319
42.4537
8.16759
34.3415
123.169
4.76923
34.7468
64.5656
10.1865
26.8592
4.90389
9.3887
3.29748
23.6799
5.37866
17.4311
67.8246
88.9591
47.9704
35.7651
42.0199
1.38434
4.61123
52.2672
56.9063
27.1633
23.2186
48.2342
48.6769
30.6308
27.598
41.143
64.0522
16.2223
5.10089
30.3216
4.26261
8.14942
44.1467
34.0036
42.7737
22.993
20.4949
4.17594
44.2579
61.4025
58.8509
81.3826
35.6564
16.0158
17.0236
2.32836
12.5944
37.7139
49.2846
62.1115
11.6532
9.60159
5.00417
44.3317
23.7948
122.882
50.101
54.7818
5.67671
130.822
1.30609
2.51524
5.93701
3.9784
10.3742
49.4911
14.0919
55.9406
42.3964
23.8705
2.95993
36.7906
36.2626
5.9322
8.71588
4.889
5.86735
20.0734
15.1167
44.4236
24.2284
23.0287
34.5734
17.3408
31.5791
10.9707
4.12144
14.0943
17.8501
38.1384
12.404
300.069
46.5712
6.01677
12.168
24.3997
10.0333
5.62785
75.1348
42.9213
72.1372
58.2571
6.99077
140.162
4.12208
1.79969
35.1777
2.92401
17.1647
8.70998
83.6215
54.9424
124.724
21.1755
38.1313
8.18698
15.5789
4.36651
12.5753
42.019
3.50068
16.4505
12.4984
72.0115
10.8422
13.1354
25.9712
23.7659
25.1714
10.7623
21.4924
39.4363
53.0587
37.8762
22.2636
2.05936
15.7325
23.7384
27.9892
88.4455
56.9336
77.7314
37.1812
62.335
1.02137
79.9615
25.9847
45.6052
106.492
28.7046
6.34788
5.63832
44.9624
54.339
24.4497
46.6062
5.36928
119.795
35.5937
27.6435
22.769
254.101
6.19736
46.9231
21.0495
25.6615
47.2922
6.98693
84.4014
17.9954
15.7379
4.73273
203.865
8.99956
52.0596
24.8653
27.7014
60.9049
114.935
76.3543
49.1019
78.2662
5.32813
7.57989
9.81437
54.8874
1.09005
24.4771
5.00716
13.7152
87.162
184.431
32.7437
5.46002
7.37965
26.6193
20.1817
4.98314
21.0931
121.564
4.79108
4.21849
31.1119
17.7943
2.58637
43.8281
0.995054
10.7221
20.604
23.9917
165.845
17.6773
8.96767
1.40316
19.2304
24.9812
37.9711
3.75733
34.3113
14.5165
33.132
31.1327
40.0235
24.2451
39.168
7.20177
49.3727
25.0755
7.33015
17.8958
40.9832
6.23314
15.7727
26.9258
27.5031
38.5017
6.42178
8.75807
24.2154
23.3677
2.34451
76.0598
15.7156
24.2083
21.8206
46.9375
26.4272
24.1704
19.3747
16.7796
1.32172
17.1379
27.8546
51.0704
24.7981
34.6038
2.64901
23.6422
10.3532
13.2627
2.45447
9.91648
48.553
50.9135
6.79436
32.4573
54.0258
112.017
21.4844
90.3122
55.9686
69.6581
25.9692
26.8266
88.151
73.1346
8.58644
1.40464
2.21691
27.3126
54.6658
3.82908
2.71712
18.6599
50.3542
145.79
22.3134
46.4909
7.89581
1.91442
14.7209
2.02217
)
;

boundaryField
{
    frontAndBack
    {
        type            empty;
    }
    wallOuter
    {
        lowReCorrection 0;
        type            epsilonWallFunction;
        value           nonuniform List<scalar> 
96
(
75.6888
33.5842
34.3047
65.4987
68.3426
64.3215
11.8326
10.1397
8.01223
26.0804
7.24282
19.119
8.98127
71.8813
22.5215
30.0709
63.9116
40.7434
6.16046
13.8091
6.52847
16.0243
42.661
33.0824
66.0936
52.7236
62.5337
67.7191
75.3765
71.6771
55.4177
59.5626
43.1375
41.2667
42.9079
42.6101
47.7481
59.3248
38.955
40.1259
42.762
35.6181
59.2478
58.838
34.0492
58.0343
56.1825
33.6422
53.1843
49.7032
74.0012
33.5113
48.7553
6.3694
71.8046
48.9667
66.9022
77.5577
34.6381
33.4359
36.0701
6.88461
8.06482
87.9381
46.5051
45.9866
47.0724
47.1638
40.9545
43.2357
46.2518
45.0497
49.076
49.5369
48.3687
48.0655
8.6161
10.377
12.7759
8.90491
10.7851
11.8893
34.2677
6.00545
35.1146
35.7651
62.1115
5.86735
38.1384
39.4363
77.7314
37.1812
8.99956
78.2662
87.162
7.37965
)
;
    }
    inlet
    {
        type            fixedValue;
        value           nonuniform 0();
    }
    outlet
    {
        type            zeroGradient;
    }
    wallInner
    {
        lowReCorrection 0;
        type            epsilonWallFunction;
        value           nonuniform List<scalar> 
126
(
6.15157
3.51328
2.74773
8.87695
5.90399
1.95902
27.1805
4.69795
17.8572
27.9393
3.43492
10.9487
57.7547
3.31184
10.2087
1.85324
6.36373
2.94172
22.8004
47.0056
4.11531
9.80956
4.75368
13.2443
20.1909
1.94323
4.74608
12.3589
16.8207
3.89741
14.5866
1.14925
113.626
8.56009
34.0824
4.11476
22.9886
4.99808
18.6619
1.46049
22.5396
6.31517
7.68043
7.69904
8.73094
3.74967
18.91
79.7006
5.61555
110.79
110.021
15.1858
35.7351
1.50908
59.1181
69.737
2.79116
132.154
130.177
66.7784
82.9465
14.3267
5.87488
69.4653
30.9502
20.8243
91.6931
82.0301
68.2454
30.5992
89.7064
77.7711
34.0734
59.0435
66.1962
79.7179
22.5193
11.8652
60.7653
17.026
61.586
13.282
133.52
5.85732
155.603
266.539
24.8823
115.235
19.0356
189.614
3.87078
134.226
2.80887
102.144
2.55848
89.4217
108.987
48.2342
32.7437
5.46002
9.91648
48.553
6.79436
54.0258
112.017
21.4844
55.9686
25.9692
26.8266
88.151
73.1346
8.58644
1.40464
27.3126
54.6658
3.82908
2.71712
18.6599
50.3542
145.79
22.3134
46.4909
7.89581
1.91442
14.7209
2.02217
)
;
    }
    procBoundary3to1
    {
        type            processor;
        value           nonuniform List<scalar> 
48
(
64.1548
101.195
85.5935
75.9844
62.4888
127.886
101.195
12.496
27.043
3.20499
3.20499
4.91613
4.91613
31.892
34.506
5.65171
5.13734
5.03125
5.13734
4.05774
19.6316
15.3136
4.05774
80.9337
3.41014
6.48434
9.79379
15.3136
7.7534
16.9669
16.9669
7.67037
7.67037
27.043
5.14901
60.8527
17.7347
3.41014
49.7333
50.6676
31.892
14.9159
14.6837
4.05774
30.3206
74.096
58.0272
23.9791
)
;
    }
    procBoundary3to2
    {
        type            processor;
        value           nonuniform List<scalar> 
29
(
14.4895
14.4895
2.27572
4.98441
17.7625
20.2561
8.2864
18.5916
4.17783
4.0289
23.8046
16.4092
9.94571
11.4284
4.99959
9.12957
4.02785
4.29282
13.1926
7.61815
5.58601
4.02785
8.75205
4.29282
5.36578
4.52976
4.29282
22.4552
22.4552
)
;
    }
}


// ************************************************************************* //
