/*--------------------------------*- C++ -*----------------------------------*\
| =========                 |                                                 |
| \\      /  F ield         | OpenFOAM: The Open Source CFD Toolbox           |
|  \\    /   O peration     | Version:  v1912                                 |
|   \\  /    A nd           | Website:  www.openfoam.com                      |
|    \\/     M anipulation  |                                                 |
\*---------------------------------------------------------------------------*/
FoamFile
{
    version     2.0;
    format      ascii;
    class       volScalarField;
    location    "0.35";
    object      nut;
}
// * * * * * * * * * * * * * * * * * * * * * * * * * * * * * * * * * * * * * //

dimensions      [0 2 -1 0 0 0 0];


internalField   nonuniform List<scalar> 
1431
(
0.00480212
0.00611973
0.00153826
0.00171199
0.00094142
0.00158291
0.00202647
0.00329488
0.00399767
0.00108476
0.00296018
0.00404652
0.00698749
0.00142954
0.000704845
0.00168011
0.00100689
0.00120319
0.00114063
0.00173554
0.0037867
0.00324773
0.0021614
0.00558073
0.00342484
0.00571125
0.00268679
0.00116033
0.000925853
0.000743378
0.00225158
0.00275859
0.00223353
0.000805186
0.00308793
0.00318932
0.00872897
0.00071084
0.00317417
0.00247556
0.00544154
0.00737834
0.00640981
0.00268088
0.00122527
0.00106075
0.00176415
0.00256461
0.00222486
0.00181764
0.00338943
0.00267938
0.0040395
0.0051402
0.00563671
0.00290915
0.000508539
0.00462401
0.000875304
0.000777454
0.000796282
0.00108911
0.000962934
0.000758959
0.000981693
0.000548242
0.0011672
0.00146227
0.000720205
0.000911674
0.00199668
0.000770406
0.00100209
0.000527167
0.00103755
0.000615347
0.00115258
0.00166236
0.000887036
0.00108818
0.000870474
0.000990124
0.00439639
0.00197475
0.00285132
0.00457385
0.00134908
0.000892369
0.00411561
0.00449694
0.000727313
0.000652183
0.000890458
0.00165052
0.00441234
0.000696217
0.00441144
0.00596977
0.00239421
0.0013371
0.00421609
0.00124515
0.00126482
0.00125345
0.00200146
0.00260875
0.00336596
0.00242172
0.00140678
0.00112724
0.00106252
0.00684798
0.00347614
0.00470586
0.00581231
0.00075987
0.000924852
0.00122766
0.00113275
0.000754537
0.000950701
0.000522378
0.00159243
0.000900654
0.00130161
0.000753019
0.00137813
0.000976872
0.00258739
0.00269456
0.000672372
0.00109059
0.00391568
0.00115554
0.00184551
0.00199485
0.00376821
0.00141315
0.00443507
0.000478275
0.00134524
0.00228953
0.000758686
0.00073281
0.001394
0.00216942
0.00105283
0.00436344
0.00132557
0.000934089
0.00128185
0.000874213
0.00263912
0.00128258
0.00375636
0.00172494
0.00395553
0.00456756
0.00454989
0.00384124
0.00535332
0.00720949
0.00190794
0.0024426
0.00180093
0.00462066
0.00424835
0.0047155
0.00116818
0.00601943
0.00550408
0.00511419
0.00238326
0.00449804
0.00586415
0.00383252
0.00333537
0.00139066
0.00390168
0.00344612
0.00062153
0.00328703
0.00408675
0.00729174
0.00154221
0.00140258
0.00138315
0.00555534
0.00262927
0.00325891
0.00242722
0.00274012
0.00291193
0.00261749
0.00109816
0.00397218
0.00547752
0.00280458
0.000730053
0.00180777
0.00502992
0.00211937
0.00280099
0.00149461
0.00667363
0.00252954
0.0026974
0.000586154
0.00477238
0.0029056
0.00115226
0.00151547
0.0033608
0.0026481
0.00444716
0.00138993
0.00312269
0.00276464
0.00375202
0.00271185
0.00350124
0.0042976
0.00100243
0.00230843
0.0039084
0.00549648
0.00299435
0.00607421
0.0030167
0.00242924
0.00223085
0.00227665
0.00254083
0.00279074
0.00290189
0.0056362
0.00335786
0.00286406
0.00238105
0.00519504
0.00497799
0.00316124
0.00506679
0.00271499
0.00271536
0.00321057
0.00286051
0.00268298
0.00370262
0.00124781
0.00104738
0.00486024
0.00365514
0.00278399
0.00249164
0.00599989
0.0034927
0.00603885
0.00555759
0.00299513
0.00165038
0.00443914
0.00391518
0.0029396
0.00417899
0.00291169
0.00530902
0.00308738
0.00254854
0.000351009
0.00105906
0.00332145
0.00620915
0.00542807
0.00521811
0.00219958
0.00514925
0.00234174
0.00107789
0.0016136
0.00494872
0.00755123
0.00218492
0.00366769
0.00501786
0.00567325
0.00611383
0.00574929
0.00256187
0.00564709
0.000521263
0.00542327
0.00585197
0.00583982
0.00233136
0.00271548
0.00163134
0.00158231
0.00192867
0.00112024
0.0043974
0.00161285
0.00606217
0.0067703
0.00232622
0.00332899
0.00507066
0.00277084
0.00755518
0.00592081
0.00342983
0.00111426
0.000763187
0.00113213
0.00440812
0.00480078
0.00291302
0.005357
0.0012098
0.00816692
0.00406733
0.00442651
0.00104818
0.00627136
0.00226152
0.00131062
0.0010246
0.00524433
0.00619928
0.00274048
0.00122879
0.00125917
0.00520762
0.00362752
0.00446733
0.0067488
0.0055975
0.00566123
0.00209407
0.0012155
0.00155699
0.0067264
0.00301268
0.00499107
0.00320666
0.00237517
0.00602712
0.00512576
0.00303807
0.00623031
0.00234985
0.00132682
0.00585474
0.00315086
0.00127747
0.00425377
0.00305539
0.00110979
0.00444714
0.00587706
0.00318111
0.00139951
0.00116253
0.00587236
0.0011701
0.00238096
0.00458918
0.00781939
0.00270489
0.00227121
0.00272834
0.000979847
0.00434064
0.00334795
0.00510853
0.00724948
0.00365263
0.00352001
0.00455267
0.00795525
0.00717408
0.00177394
0.00380207
0.00115759
0.00897683
0.00255053
0.00379349
0.00199086
0.00236404
0.0032323
0.00552082
0.00418579
0.00428115
0.00315399
0.00554454
0.00549233
0.00574931
0.00580195
0.00485357
0.00207886
0.00295319
0.00516403
0.00504885
0.00585262
0.00380218
0.00541301
0.00142347
0.000982804
0.00458377
0.00529431
0.0032725
0.00254242
0.00515422
0.00717009
0.001671
0.00113203
0.00296444
0.00114187
0.00192588
0.00499491
0.00406483
0.00722463
0.00364086
0.00296919
0.00484801
0.00110218
0.0019734
0.0022602
0.00390339
0.00509605
0.00659648
0.00658393
0.00716204
0.0068759
0.00735522
0.0072879
0.00696906
0.00729894
0.00728055
0.00720425
0.00130214
0.00448947
0.00133691
0.00139119
0.00148382
0.00132224
0.00117904
0.00112146
0.00234348
0.00270084
0.00251805
0.00220531
0.00181241
0.000847578
0.00156274
0.00219513
0.00303084
0.00540618
0.000704644
0.00539487
0.00285834
0.00279242
0.00503273
0.00203459
0.0052267
0.00254898
0.0013029
0.00473761
0.00243429
0.00445928
0.0025162
0.00229596
0.0013628
0.003312
0.00442272
0.00459716
0.00212414
0.00325312
0.00131558
0.0018668
0.00357043
0.00132901
0.00441746
0.00257322
0.00144008
0.00318107
0.00173349
0.00144428
0.00509073
0.00471583
0.00426798
0.00228743
0.00456535
0.00493738
0.00250464
0.00188187
0.00396643
0.00407752
0.00352085
0.000943096
0.00527671
0.00486187
0.00183682
0.00107714
0.00400824
0.00462469
0.00138513
0.00436504
0.00433315
0.000688178
0.00468268
0.0032128
0.00171736
0.00434284
0.000971026
0.00306293
0.00521899
0.00543708
0.0032977
0.00445336
0.00155684
0.00422069
0.0008956
0.0029763
0.00578097
0.00421865
0.00383846
0.00243601
0.00127486
0.000855894
0.00510954
0.00331256
0.00651329
0.00383231
0.00657195
0.00362173
0.00360541
0.00068789
0.00621136
0.00101327
0.00562931
0.00136635
0.00494444
0.0039317
0.00177922
0.00339452
0.00364756
0.000744209
0.00570353
0.00677392
0.00339455
0.00115907
0.00521676
0.00430161
0.00138062
0.00275797
0.00446327
0.00544286
0.000698424
0.00424098
0.00702176
0.00400854
0.00384633
0.00674085
0.00593844
0.00643316
0.00426374
0.00237497
0.00673196
0.00580345
0.00509196
0.00316304
0.00729007
0.00449696
0.00148981
0.00248792
0.00351424
0.000714348
0.00688161
0.00585762
0.00521291
0.00297349
0.00153164
0.00288772
0.00286313
0.00355981
0.00259443
0.00370331
0.00161466
0.000779012
0.0068255
0.00179251
0.00345893
0.00328691
0.00398286
0.00632295
0.00313601
0.0036408
0.00577447
0.00459054
0.000870441
0.00661896
0.00450474
0.00302821
0.00274209
0.00192293
0.00150545
0.00284706
0.00453424
0.0013192
0.00388393
0.00702272
0.00438678
0.00708596
0.0012315
0.00540107
0.00224446
0.00410537
0.00533151
0.00338781
0.00589045
0.00432933
0.00142199
0.00409357
0.00683652
0.00247951
0.00623268
0.00102955
0.00288603
0.00427578
0.00665954
0.00395202
0.000894727
0.00731283
0.00502573
0.00275524
0.00346829
0.00583308
0.0032052
0.00476541
0.0048459
0.00432651
0.0060707
0.00437542
0.00180621
0.00695725
0.00261506
0.00234266
0.00167734
0.00341326
0.00641501
0.00698726
0.000553516
0.00277362
0.0013192
0.00210088
0.00276984
0.00264981
0.00376134
0.00508138
0.00552769
0.0059042
0.00651532
0.00604534
0.00567793
0.00367936
0.00240644
0.00394421
0.00401757
0.00111411
0.00473195
0.00496421
0.00104404
0.00706967
0.00595438
0.00270963
0.00106239
0.00355372
0.00150703
0.00577842
0.00599951
0.00435295
0.00311943
0.00102963
0.00223983
0.00240699
0.00709214
0.0026608
0.00130962
0.000588482
0.00329271
0.00308345
0.00481331
0.000551743
0.000463109
0.00764002
0.000766446
0.00172001
0.000411042
0.0032695
0.000677481
0.00296968
0.0053585
0.000513062
0.00184592
0.00110016
0.000457528
0.00072019
0.00360322
0.00337113
0.00158454
0.00399543
0.00228977
0.00361818
0.00164732
0.00486098
0.00696143
0.0020566
0.00592062
0.00427653
0.0052161
0.0025539
0.00481258
0.00573796
0.00277491
0.00335204
0.00258583
0.00680656
0.00250002
0.00310498
0.00228987
0.00550471
0.00453559
0.00633392
0.00454073
0.00328442
0.00485147
0.0008215
0.00100643
0.00466703
0.000829012
0.00219169
0.00605932
0.00168718
0.00623018
0.00223374
0.00265914
0.00134456
0.00104946
0.00171942
0.00654397
0.00465623
0.00405557
0.00258137
0.00608394
0.000985597
0.00543108
0.000983131
0.00136712
0.00136687
0.0066043
0.0052139
0.00366849
0.00142857
0.000782073
0.00338071
0.00219461
0.00228175
0.00469634
0.00469394
0.00618447
0.00257749
0.00099212
0.0049826
0.00517452
0.00330139
0.000408932
0.00560568
0.00554338
0.00253786
0.00304361
0.00322605
0.0055558
0.00227838
0.000624172
0.00420015
0.00181618
0.00362978
0.00253615
0.00326752
0.00458791
0.00178027
0.00285803
0.00566942
0.00277734
0.000380594
0.00524764
0.00216138
0.00494073
0.00659791
0.00260409
0.00327789
0.00128674
0.00594314
0.00663375
0.00731803
0.00279342
0.00223525
0.00602428
0.00168106
0.00858456
0.00154075
0.0043312
0.00423967
0.0064061
0.00590133
0.00642868
0.00122697
0.00801055
0.00401956
0.000960832
0.00277731
0.00529892
0.00670127
0.000648194
0.000843356
0.00580203
0.00229349
0.00116097
0.00324717
0.00737887
0.000866026
0.000950981
0.0025655
0.00332913
0.00575708
0.00139355
0.00786819
0.0055087
0.00428265
0.00596342
0.00300502
0.00315058
0.00259348
0.00455507
0.00557706
0.00376914
0.00712898
0.00455208
0.00468607
0.00297887
0.00228396
0.00676926
0.00420415
0.00148768
0.0016329
0.00322401
0.00199083
0.0024801
0.00296685
0.00425236
0.00304209
0.00206381
0.00341826
0.0074159
0.00452783
0.00734509
0.00135728
0.00504149
0.00402641
0.00708003
0.00654176
0.00560226
0.000366721
0.00202097
0.00107586
0.00210895
0.00206171
0.00376006
0.00331737
0.00419867
0.00473218
0.00411478
0.00170611
0.00677224
0.00478668
0.00252231
0.000736175
0.000925371
0.00088484
0.000764156
0.000814374
0.000830542
0.000915377
0.000626723
0.000762042
0.00067639
0.000678244
0.000654166
0.000899809
0.000761463
0.000641784
0.000631693
0.000793366
0.000865407
0.000818692
0.000782134
0.000781614
0.000788112
0.000748658
0.000814686
0.00726828
0.00358008
0.00249238
0.00459347
0.0020116
0.003119
0.00151328
0.00306953
0.0024688
0.00225236
0.00217512
0.00140334
0.00464879
0.00610645
0.00303892
0.00173138
0.00401218
0.00182374
0.00723767
0.00228961
0.00139721
0.00652119
0.000741774
0.000823932
0.00270411
0.00314196
0.00235869
0.00342202
0.00422702
0.00159408
0.0024828
0.00735117
0.00530347
0.00654924
0.00641461
0.00368688
0.0022149
0.00297342
0.00129228
0.00375123
0.00540741
0.00102403
0.000750299
0.00522853
0.00377294
0.00584412
0.00267333
0.000734241
0.00572919
0.00123522
0.00407598
0.00626146
0.00410238
0.00157085
0.00128006
0.00276597
0.00562019
0.00075308
0.000993507
0.000475899
0.00430351
0.00239907
0.000835073
0.000959566
0.001672
0.0013403
0.00586068
0.00163313
0.00877181
0.00493122
0.00289702
0.00344932
0.00397064
0.00533091
0.00566965
0.002632
0.00173745
0.00489848
0.000879579
0.00214702
0.00476598
0.00252106
0.00434495
0.00473393
0.000789501
0.0051665
0.00322262
0.00209468
0.00334637
0.0037667
0.0022668
0.000925316
0.00408705
0.00252533
0.00530612
0.000976928
0.00761236
0.00546483
0.00175718
0.00325051
0.0009063
0.00189305
0.00113083
0.00368591
0.00369787
0.00351793
0.000920018
0.00370921
0.00322926
0.00337896
0.0047493
0.00168505
0.000827766
0.000707051
0.00254726
0.00554113
0.0050106
0.000749599
0.00144859
0.00228121
0.00480942
0.00447687
0.00621394
0.00203262
0.00299788
0.00326259
0.000898831
0.00318188
0.00666647
0.00317894
0.000474166
0.00181441
0.000482358
0.00559391
0.00394638
0.00127851
0.00854329
0.00379401
0.00434671
0.00546968
0.00336419
0.00369315
0.00268779
0.00203786
0.00124033
0.00521262
0.00224207
0.00375022
0.00765539
0.00206468
0.00520729
0.00680491
0.00487015
0.00245549
0.00250182
0.00736197
0.00100799
0.00428184
0.00114537
0.00829263
0.00682235
0.000975505
0.000794474
0.00088245
0.00083865
0.000821296
0.00115537
0.00104254
0.00101392
0.000894932
0.00104399
0.000522156
0.000462336
0.000428987
0.000466843
0.000347124
0.000428303
0.00632105
0.00132532
0.00720295
0.00282287
0.00579551
0.000739304
0.00281178
0.00457522
0.00161696
0.00197843
0.00475224
0.00236105
0.00328418
0.00283622
0.000477099
0.00203795
0.000967616
0.00381316
0.00515556
0.00339709
0.00299392
0.00236603
0.00454978
0.00308389
0.00855942
0.00343634
0.00136471
0.000911682
0.00517378
0.00402173
0.00364564
0.00309169
0.00414805
0.00521474
0.00196611
0.000881743
0.00510677
0.000658434
0.00273032
0.000974452
0.00235581
0.0020483
0.00174904
0.00258744
0.00534676
0.00761554
0.00348552
0.00308139
0.00352687
0.00264198
0.0012029
0.00270643
0.00420724
0.00366278
0.00339494
0.00181042
0.000796444
0.00211491
0.00294892
0.00128582
0.00360093
0.00403308
0.00308797
0.00653071
0.000691311
0.00271675
0.000856969
0.00158333
0.00625617
0.00378611
0.00509413
0.00266739
0.00114399
0.00378612
0.00562706
0.0024748
0.0044524
0.00174032
0.0023436
0.00115679
0.00564436
0.00138442
0.00124145
0.00427447
0.0061576
0.00391732
0.00258668
0.00420808
0.00239912
0.00644014
0.00280731
0.00424481
0.00365616
0.0025275
0.00320068
0.00273191
0.00102505
0.00181811
0.00243306
0.00711618
0.000789357
0.00213276
0.001951
0.00170856
0.00310939
0.00451458
0.00505357
0.00598608
0.00497913
0.00263746
0.00664509
0.00090385
0.00206368
0.00324875
0.00132268
0.00174212
0.0061968
0.0038004
0.00121156
0.00305882
0.00424315
0.00155842
0.00632643
0.00506886
0.00355413
0.00316936
0.00104051
0.000459271
0.00423105
0.00290642
0.00612039
0.00362703
0.00397316
0.00679287
0.00395625
0.0020349
0.00273576
0.00102435
0.00169061
0.00307586
0.000920406
0.00342785
0.00897556
0.00256031
0.00228254
0.0031577
0.0035163
0.00308205
0.00124163
0.00467362
0.00302407
0.00206306
0.00609255
0.00121198
0.0047964
0.00209792
0.000984406
0.00399318
0.0021415
0.00465923
0.00265748
0.00341867
0.00597341
0.00339653
0.00293351
0.0068269
0.00266288
0.00374849
0.00253555
0.000882789
0.00257771
0.00230114
0.00425399
0.00327342
0.00286943
0.00325325
0.00358628
0.00237381
0.00387527
0.00228417
0.00320738
0.00172163
0.000911975
0.005735
0.00759031
0.0043364
0.00126253
0.00390153
0.00381319
0.00530372
0.0037631
0.00382317
0.000759379
0.000659401
0.00149015
0.000920857
0.00229126
0.00257174
0.00366944
0.00559059
0.00559436
0.00137966
0.0029063
0.00551204
0.0026342
0.00235601
0.00289482
0.00115992
0.00620155
0.00455172
0.00517606
0.00293671
0.00845489
0.00197958
0.00583891
0.00218
0.00465068
0.00190449
0.00256609
0.00425925
0.00420751
0.00510582
0.00171532
0.00829116
0.000477105
0.0025972
0.00454663
0.00533508
0.00421024
0.00444321
0.00390071
0.008162
0.00116938
0.00201142
0.000916526
0.00311298
0.00173805
0.000902828
0.00341034
0.00130557
0.00361038
0.000628658
0.00678818
0.000969978
0.000499293
0.000479938
0.00321356
0.00604908
0.00162041
0.00110706
0.00609297
0.00206102
0.00148939
0.00373861
0.00403027
0.0010283
0.00256166
0.000957693
0.00319791
0.00587722
0.00395124
0.00765565
0.00557137
0.00228204
0.00088525
0.00192589
0.00160554
0.00261194
0.00159695
0.0041833
0.0034721
0.00204635
0.00221091
0.00264093
0.00438337
0.00258435
0.00106193
0.00270397
0.00229693
0.00286841
0.00577535
0.00466736
0.00304019
0.00446462
0.00226686
0.00238326
0.0033438
0.00118547
0.000741776
0.00409389
0.0039924
0.000799766
0.0021609
0.00435202
0.00508637
0.00310094
0.00317105
0.00196717
0.00179129
0.0030069
0.00243006
0.000672416
0.00375027
0.00533927
0.00241919
0.00224666
0.00619362
0.001328
0.00433151
0.00313907
0.00356267
0.00157515
0.000573262
0.0011355
0.00229941
0.000852301
0.00286196
0.00118148
0.00156365
0.000957894
0.0013053
0.00145181
0.00426683
0.000811009
0.00130553
0.00195194
0.0018582
0.000773384
0.000357392
0.00041739
0.000868985
0.00117667
0.000641435
0.000481031
0.000836297
0.0017478
0.00181889
0.000956342
0.00128572
0.000684281
0.000568678
0.00100016
0.000450897
)
;

boundaryField
{
    frontAndBack
    {
        type            empty;
    }
    wallOuter
    {
        type            nutkWallFunction;
        Cmu             0.09;
        kappa           0.41;
        E               9.8;
        value           nonuniform List<scalar> 
96
(
0.000110648
8.975e-05
8.34137e-05
0.000124677
0.000126774
0.000123006
6.81786e-05
6.47516e-05
5.58242e-05
8.59011e-05
5.01787e-05
7.64855e-05
6.10097e-05
0.000131009
8.09259e-05
9.19891e-05
0.00012029
9.81509e-05
5.09703e-05
7.15174e-05
4.7011e-05
7.36567e-05
9.9936e-05
9.70771e-05
0.000113873
8.9775e-05
0.000110664
0.000106097
9.21971e-05
9.80238e-05
0.000101021
0.000109483
7.45863e-05
9.03734e-05
8.04012e-05
8.08836e-05
7.98001e-05
0.00010919
9.07044e-05
7.79807e-05
7.6898e-05
9.44055e-05
0.000103731
9.83063e-05
9.31548e-05
9.39514e-05
9.45557e-05
8.93811e-05
9.74503e-05
9.83246e-05
0.000121707
9.05193e-05
8.9994e-05
5.96123e-05
0.000100404
9.42871e-05
0.000118158
9.94703e-05
8.54591e-05
9.03825e-05
0.000100995
5.94035e-05
6.03187e-05
0.000150769
0.000116597
0.0001322
0.000112583
9.46208e-05
0.000100437
9.60141e-05
9.45091e-05
0.000133678
0.000121732
0.000118934
0.000103226
0.000122656
6.41672e-05
5.75768e-05
5.32373e-05
5.74996e-05
4.25172e-05
5.30407e-05
8.91345e-05
5.97265e-05
7.92067e-05
8.33851e-05
9.42059e-05
5.74159e-05
0.00010374
0.00010324
9.15971e-05
7.99525e-05
5.95527e-05
0.000138718
7.60228e-05
6.00501e-05
)
;
    }
    inlet
    {
        type            calculated;
        value           nonuniform 0();
    }
    outlet
    {
        type            calculated;
        value           nonuniform List<scalar> 9(0.00781939 0.00897683 0.00150545 0.00608394 0.00731803 0.0047493 0.00127851 0.00264198 0.00420724);
    }
    wallInner
    {
        type            nutkWallFunction;
        Cmu             0.09;
        kappa           0.41;
        E               9.8;
        value           nonuniform List<scalar> 
126
(
0.000105352
8.784e-05
9.70907e-05
0.000131775
0.000104021
8.39298e-05
0.000121191
6.76678e-05
0.000141988
0.000167944
8.44653e-05
0.000110626
0.000234812
9.27272e-05
0.000117926
6.50879e-05
0.000123757
7.25841e-05
0.000141466
0.000193091
0.000109004
0.000128175
0.000104525
0.00012179
0.000160211
8.94478e-05
0.00011058
0.00014313
0.000132507
8.16939e-05
0.000115707
6.26565e-05
0.000189419
0.000108687
0.000153657
8.84829e-05
0.000167128
8.26522e-05
0.00012722
5.65252e-05
0.000160262
9.12631e-05
8.87087e-05
0.000111606
0.000114526
0.000102177
0.000148347
0.00021101
7.67815e-05
0.000162528
0.000161062
0.000128706
0.000139029
4.24134e-05
0.000127496
0.00018534
6.10277e-05
0.000188023
0.00018178
0.000132077
0.000189613
0.000117687
9.28958e-05
0.000134282
0.000160532
0.000125245
0.000143776
0.000142237
0.000183299
0.000133327
0.000162274
0.000136636
0.000110414
0.000129034
0.00013309
0.000121862
9.57011e-05
8.50784e-05
0.000165498
9.10913e-05
0.00014215
8.60837e-05
0.000173113
7.20729e-05
0.000187136
0.000202296
0.000105004
0.000165081
0.000110508
0.000201332
5.89366e-05
0.000202493
5.11103e-05
0.000153864
4.23181e-05
0.000218846
0.000144951
0.000137736
0.000113433
6.22228e-05
7.13966e-05
0.000128832
0.000106078
0.000146638
0.000180021
0.000114495
0.000161588
9.54813e-05
0.000153313
0.00022814
0.00021386
9.66543e-05
4.41715e-05
0.000105211
0.000139589
6.54856e-05
5.13948e-05
0.000100273
0.0001977
0.000203755
0.000118671
0.000151462
8.39976e-05
6.62884e-05
0.000109771
5.42433e-05
)
;
    }
    procBoundary3to1
    {
        type            processor;
        value           nonuniform List<scalar> 
48
(
0.00898083
0.00463211
0.00600582
0.00892223
0.00395596
0.00385742
0.00463211
0.00366352
0.00653466
0.000886677
0.000886677
0.00119203
0.00119203
0.00555657
0.00540875
0.00137218
0.00171292
0.00139093
0.00171292
0.00183189
0.0048582
0.00466002
0.00183189
0.00278141
0.000828922
0.00157056
0.00376098
0.00466002
0.00333302
0.00152925
0.00152925
0.00328671
0.00328671
0.00653466
0.00161826
0.00334455
0.00412396
0.000828922
0.00847778
0.00329063
0.00555657
0.00392516
0.00437991
0.00183189
0.00538395
0.00109422
0.00387297
0.00489587
)
;
    }
    procBoundary3to2
    {
        type            processor;
        value           nonuniform List<scalar> 
29
(
0.00198534
0.00198534
0.000497488
0.000666064
0.000868573
0.00108404
0.000799659
0.00182938
0.0021201
0.00176115
0.00177906
0.00224531
0.00153118
0.00287267
0.0028293
0.00241741
0.00139909
0.00176191
0.00186522
0.00255662
0.00250252
0.00139909
0.000549479
0.00176191
0.00251423
0.00123945
0.00176191
0.00410936
0.00410936
)
;
    }
}


// ************************************************************************* //
