/*--------------------------------*- C++ -*----------------------------------*\
| =========                 |                                                 |
| \\      /  F ield         | OpenFOAM: The Open Source CFD Toolbox           |
|  \\    /   O peration     | Version:  v1912                                 |
|   \\  /    A nd           | Website:  www.openfoam.com                      |
|    \\/     M anipulation  |                                                 |
\*---------------------------------------------------------------------------*/
FoamFile
{
    version     2.0;
    format      ascii;
    class       surfaceScalarField;
    location    "0.35";
    object      phi;
}
// * * * * * * * * * * * * * * * * * * * * * * * * * * * * * * * * * * * * * //

dimensions      [0 3 -1 0 0 0 0];
oriented        oriented;


internalField   nonuniform List<scalar> 
2708
(
-0.000502391
5.0796e-06
0.000218914
0.000278397
0.000152776
0.00031906
-0.000233081
-0.000238755
0.000463007
6.88782e-05
-0.000423203
-0.000108682
0.000334491
-0.000306824
4.66195e-05
-7.42865e-05
7.94443e-06
-0.000135951
3.37585e-05
9.42481e-05
0.000246382
-0.000318858
0.000174545
-0.000102069
0.000136518
-0.000106523
6.25255e-05
-9.25208e-05
-0.000136578
0.000423984
-1.73127e-05
-0.000270093
-0.000360471
0.000452731
0.000265348
-0.000357607
0.000139399
0.000213482
-0.000216363
0.000839063
-0.000863243
0.000309464
-0.000285284
0.000258996
-0.00031316
0.000919495
-0.000865331
-0.000328837
0.000326271
-0.00063751
0.000640076
-5.98305e-05
-0.000232448
0.000210387
8.18921e-05
3.68478e-05
-0.000110524
4.27499e-06
6.94012e-05
0.000109465
0.000122488
-9.25546e-05
-0.000391274
0.000277679
-7.68056e-05
0.000190401
0.000359684
-0.000399881
0.000225386
-0.000185189
0.000136112
8.63772e-05
-0.00019742
-2.50689e-05
-0.000158215
-0.000117306
0.00024141
3.41112e-05
-0.000430698
0.0007015
0.000568262
2.78315e-05
-2.1138e-05
-6.6524e-05
-0.000256313
-0.000158599
0.000186958
0.000227955
-0.000275749
-0.00130643
0.0013451
0.00023708
-0.000343007
-0.000273777
-0.000375306
0.000255808
0.000372223
-0.000252725
-0.000830756
-0.000177361
0.000144874
-8.67905e-05
-0.000234556
0.000189954
0.000131392
6.20264e-05
-0.000523682
0.000461655
-1.02095e-05
-0.000467764
0.000477973
0.000631676
4.14376e-05
-3.66761e-05
-0.000636438
-0.000652191
5.56952e-05
-2.67252e-05
0.000623221
0.000588426
5.03059e-05
-2.36297e-05
-0.000615102
-0.000129333
6.05377e-05
5.54264e-05
1.33684e-05
0.000398952
0.00023146
-0.000492969
-0.000137442
5.27532e-05
-7.40614e-05
3.04949e-05
-9.18674e-06
0.000257785
0.000955848
-0.000181727
-0.000260139
0.000117201
0.000136324
6.61387e-06
0.000162513
3.99146e-05
-0.000171668
-3.07604e-05
0.000108821
0.000564871
-0.000647067
-2.66244e-05
-0.000563939
0.000507655
0.00102842
0.00113165
-0.000433873
-0.00027027
0.00011501
-4.50116e-05
-8.93079e-05
1.93092e-05
-0.000135913
0.000178181
-0.000130729
8.84617e-05
-0.000157415
0.000338192
-2.98329e-05
-0.000150944
8.96188e-05
-3.51072e-05
-5.6919e-05
2.40738e-06
-0.000782231
0.000107576
-0.000156101
-2.75529e-05
-5.39737e-06
-7.35725e-05
-2.46705e-05
2.94171e-05
8.28283e-05
-8.75748e-05
0.000153815
-0.00087484
0.00089495
-0.000173924
8.42085e-05
-7.30476e-05
0.000165984
-0.000177144
0.000931568
-0.000501802
-0.000436478
6.71318e-06
-1.2542e-05
0.000394324
-0.000135098
-0.000246685
8.19383e-05
0.000257323
-0.000117358
-0.000221903
-0.000510151
0.000909244
0.000163004
-0.000562097
4.37232e-05
-8.6583e-05
-4.39078e-05
8.67677e-05
-0.000660949
-0.000379274
0.000670519
0.000369704
0.000457387
-9.96987e-05
-0.000357688
1.21279e-05
6.13029e-05
-7.34308e-05
-4.99426e-05
-0.000255043
0.000140338
0.000114705
0.000285652
-0.000379228
9.3576e-05
-0.00025295
-7.18963e-06
0.000125386
3.71273e-05
0.000118692
4.19836e-05
-0.000390297
0.000152217
-0.000532276
0.000251779
-0.000320904
0.000324673
-3.76895e-06
-5.25857e-05
0.000126428
-7.38426e-05
-0.000149852
-0.000156961
0.000306812
-0.000147504
1.81711e-05
-0.000279401
5.86907e-05
5.26163e-05
7.92139e-06
-0.000178733
-5.37154e-05
-9.37314e-05
-6.36835e-05
-0.000394547
5.56313e-05
0.000338916
-0.000784096
0.000209997
0.000574099
6.03807e-05
0.000153101
0.000146782
0.000212902
-0.000346341
-4.4933e-05
0.000194085
-0.000335205
0.00014112
-0.000108058
5.59941e-05
0.000568695
-0.000516631
-7.36952e-05
8.17101e-05
8.16039e-05
-9.55318e-05
5.82091e-05
0.00121125
-0.00117393
2.72724e-05
-0.000128268
-3.68111e-05
0.000137807
0.000241663
8.91664e-08
5.63282e-07
-0.000242315
5.94047e-05
-6.66335e-05
1.67962e-05
-9.56731e-06
2.2136e-05
2.16863e-05
-0.000871751
0.000827928
-5.65279e-05
1.4151e-05
-0.000712846
0.000755223
1.4445e-05
9.44538e-05
-6.51756e-05
8.53257e-05
-6.79465e-05
-2.93424e-06
-2.32979e-05
4.04393e-05
0.00010006
-0.000179577
0.000161042
-2.04789e-05
3.90141e-05
0.000286718
-0.000259501
5.47216e-05
2.97728e-05
-0.000403626
0.000373853
-0.000551805
-0.000224251
-0.000466825
0.000535073
0.000156004
0.000151393
4.21186e-05
-7.85013e-05
-0.00034131
0.000408552
-6.72419e-05
0.000902438
-0.000723837
-0.000688753
-0.000238544
0.000134894
-0.000287633
4.3084e-07
-7.90477e-06
0.000295107
3.72383e-05
-8.64163e-05
0.000228933
-0.000179755
-0.000588312
-0.000398365
0.000202581
-0.000629942
1.01959e-05
0.000645113
-2.53666e-05
5.81172e-06
0.000633377
-0.000615392
-2.37975e-05
-0.000110898
0.000651307
-0.000705765
0.000165356
0.000197098
-0.000139634
-0.000216063
0.000345911
-0.000176157
-6.03658e-05
0.000109732
-0.000818031
0.000134168
0.00101013
-1.97611e-05
-0.000139005
0.000239565
-8.0799e-05
-0.000765286
0.000682824
0.000590117
9.40441e-05
0.000316054
-8.5787e-05
6.2883e-05
5.50897e-05
-0.000250494
0.000277766
3.27019e-05
-5.38436e-05
1.25788e-06
1.29153e-07
-0.000110653
0.000229995
-0.000242537
-5.23045e-05
-1.50505e-05
-0.00014191
-5.20285e-05
0.000112409
6.84595e-05
1.03638e-05
-7.76897e-05
7.16009e-05
-2.0431e-05
0.000270365
-0.000181056
-0.000122352
0.000210396
4.33131e-05
-0.000131357
0.00012129
0.000156389
-0.000106537
-0.000293344
-0.000260748
-5.47211e-05
0.000193116
2.26865e-05
-0.00013132
0.000244745
-0.000169906
0.000259233
-0.000247542
7.84932e-06
0.000157583
-5.09316e-05
5.56679e-05
-0.000158586
0.000409657
-0.000306739
-0.000144669
0.000143547
0.00014146
0.00120445
5.53059e-05
-0.00115834
-0.000101418
0.000113026
-8.29531e-05
0.000122868
0.000581182
2.72757e-05
7.33472e-05
-0.000681805
-8.75962e-05
0.000164769
0.000109785
0.000104249
0.00051395
0.000313675
-0.000686741
0.000626075
0.000963104
8.29899e-05
0.000144142
9.20307e-05
1.72877e-05
-8.00608e-05
0.000641014
1.91223e-05
-0.000580075
-2.38127e-05
-0.000226681
-0.00056486
-1.10023e-05
-7.08811e-05
0.000646743
-0.000107166
1.87318e-05
0.000128873
-0.00113498
-0.000169918
0.00112456
0.000180345
0.000459745
0.000625787
-0.000501055
-0.000584477
-8.70606e-05
4.84477e-05
-0.000635632
0.000674245
-0.000200395
0.000186354
2.60528e-05
-1.20116e-05
0.000950487
-0.000852257
0.000111606
-0.000209836
-0.000648647
-0.000328241
0.000339379
0.00027034
-0.00025099
-0.000135201
0.00011585
1.11081e-05
-0.000255915
0.000249474
-4.66687e-06
-4.03674e-05
0.000270362
-0.000832492
0.000410216
-8.01153e-05
0.000318235
6.2527e-05
0.000184394
-0.000216254
0.00046885
-0.000463245
-0.000101669
9.60642e-05
-5.13823e-05
-0.000838536
9.2446e-06
0.000880674
-0.000600612
-0.000734263
0.000648135
6.03215e-05
0.000642458
-3.83141e-05
-0.000664465
0.000310919
-0.0015061
-3.56153e-05
0.00123079
0.000470579
-0.000336556
0.000185037
0.000311853
-0.00113592
-2.99604e-05
-0.000235793
5.0059e-06
0.000286704
-0.000176235
0.000212629
0.00079502
-7.6082e-05
0.000415348
-5.31587e-05
-0.000333372
-2.88164e-05
-9.76706e-05
-0.000166107
7.86484e-05
0.000468685
-0.000556988
0.000245126
-0.000156823
0.00119946
-0.00120163
-0.000273576
0.00017263
-3.78358e-05
0.000151909
-0.000456483
0.000462295
-0.000383603
0.000272705
0.000179857
0.000750468
-0.000820349
0.000397575
-0.00013109
0.000553864
-4.54661e-05
-3.72678e-05
-0.000948129
0.00103086
0.000631578
-0.000693732
0.000166403
0.000694571
-0.000586781
-3.72736e-05
-7.05167e-05
0.000598187
-0.000846579
0.000357213
0.000573735
-7.98796e-05
0.000157452
-2.9058e-05
0.000413173
0.000904548
-0.000691934
-0.000362891
-0.000336389
0.000475029
0.000460699
-0.000459348
1.95779e-05
-2.09296e-05
0.000190422
1.62288e-05
0.000118022
-0.000119606
0.000161743
0.000209089
-0.000251225
0.00030585
-0.000321479
0.000173274
-0.000157646
-6.84127e-05
0.000268313
7.04402e-05
-0.000611199
-0.000337576
0.00073289
0.000215885
-8.2878e-06
0.000248878
-0.000242029
1.43901e-06
0.000235558
0.000667432
-0.0007698
-0.00013319
1.82188e-05
0.000689157
-0.000687811
-1.9565e-05
0.000164056
-0.000652341
0.000655935
-0.000167651
-0.000183842
3.2818e-05
0.000117282
3.37418e-05
0.0011553
-0.00116399
-0.000117648
0.000126335
-0.00013685
2.23236e-05
-0.000244628
7.5617e-05
0.000169011
-5.20987e-05
8.36325e-05
-0.000282523
0.000654052
5.00116e-05
-7.06859e-05
-0.000554957
-2.51244e-05
-4.9861e-05
-0.000128228
-0.00116991
0.0012026
-0.000137758
-4.58626e-05
-0.00015769
0.000689549
-0.000194862
-0.000574748
0.000131072
0.000465954
-0.000136327
0.000650128
-9.74828e-05
0.000169989
-0.000722634
0.000195118
-0.000541094
-0.000265223
0.000476659
0.000341525
-0.000661931
-0.000156253
-0.000126563
0.000379828
0.00021542
0.000163142
-0.000133109
0.000263994
-0.000294027
-3.63953e-06
0.000266242
6.08792e-06
-0.000268691
-0.000651482
0.000563282
-0.00115109
0.0011812
-0.000158337
-0.000656192
0.000722726
-0.000404109
-0.00011028
0.000112305
-0.000460349
4.02023e-05
0.000761671
-0.000433739
4.79566e-05
0.0005809
2.33368e-05
-0.000431974
0.000577288
-0.00016865
-3.73986e-06
7.27107e-06
0.000628145
2.61093e-06
-0.000647666
0.000663274
0.000416116
-0.000144833
0.000326904
-1.4339e-05
-0.000675086
3.72343e-05
-0.000738002
-0.000121743
0.000783458
7.62865e-05
0.000660785
0.000140896
-0.000147629
-3.3483e-05
-0.000401917
-0.000119557
-0.000119335
0.000423217
0.000327696
-4.81309e-05
9.85214e-05
0.000249629
-0.000300019
-0.000157801
0.000139243
-1.14024e-05
-0.00037
0.000528116
0.000367142
-0.000525257
0.000140145
-0.000135935
-0.000356687
0.000538752
-0.000215548
-6.54563e-05
-0.000161436
2.59489e-05
8.89399e-05
4.65474e-05
-0.000361028
0.000180687
-0.000233431
0.000785635
0.000322218
-0.000563515
-0.000420634
8.38421e-05
-1.44241e-06
5.16914e-05
-3.98852e-05
-0.000321702
0.00105726
-0.000713419
-0.000216502
2.72151e-05
0.000268303
1.43508e-05
-3.9402e-05
4.57311e-05
-0.00132321
-4.93488e-05
0.00103537
0.000337191
-0.00022976
2.12654e-05
-8.00787e-06
-0.000206781
0.00120312
0.000184866
-0.000671184
0.00079629
-0.00031643
0.000191324
7.0265e-06
0.000302144
0.000161046
-0.00010928
-0.00035391
2.09545e-05
-0.0003226
-0.000156618
0.000249758
-1.09238e-05
-0.000233157
3.85433e-05
-0.000367808
-0.000663948
-0.000533339
0.000705974
-0.000399382
-0.000709639
0.000403047
-8.38417e-05
0.000201636
0.000455941
9.91003e-05
-0.000700645
-3.39738e-05
-5.26092e-05
8.44752e-05
2.50264e-05
0.000641471
0.000196733
-0.000177419
-0.000189989
-0.00016045
2.58955e-05
9.27036e-05
-0.00016673
0.0010835
-0.0001844
-5.59356e-05
0.000567304
0.00129705
-9.67371e-05
-0.000116804
-0.000726189
-3.67625e-05
-3.27555e-05
0.000795707
-0.000488791
0.000491402
-0.000512306
0.000653202
-0.000601175
0.000580258
-0.000579695
-0.000319951
0.000440892
-0.000726192
0.000605251
1.38528e-06
0.00039323
0.000883976
-0.000517303
-0.000272571
-9.41024e-05
0.000197965
-7.80584e-05
-0.000185458
6.55513e-05
-0.000191663
0.000606127
-0.000522522
-0.00112023
8.87796e-05
-0.000291765
-0.000327775
7.25847e-05
-0.000108061
0.0011338
-0.00109832
0.000313558
-0.000176274
-0.000376039
6.58053e-06
-0.000659486
0.000741239
-0.00054469
0.000462936
7.45096e-05
-0.000547681
0.000206141
-0.00066032
-0.000212866
0.000667046
1.31765e-05
-0.000712138
3.76107e-05
-0.000654212
0.00021647
-0.000600073
6.31122e-05
-0.000519595
3.89724e-05
-0.000204567
2.78368e-05
-0.000477214
-1.1577e-05
0.000683199
0.000536997
-0.000594121
0.000664083
-0.000511705
-0.000152378
9.54649e-05
-0.000151542
-0.000133913
-0.000555098
0.00059421
-0.000326417
0.000287304
-0.000322778
-0.000623531
0.000134044
0.000812264
-0.000240752
7.35308e-06
-0.000524053
-0.000663992
0.000493327
0.00037781
0.00101163
-0.000396515
0.000113126
-0.000687532
0.000782749
0.000317955
7.8849e-05
-0.000130878
8.52177e-05
-0.000192825
0.000108983
0.000264009
-0.000377958
0.00056668
-0.000638221
0.000376342
-0.00014114
-0.000438504
0.000120296
7.15271e-05
-0.000112836
8.45283e-05
0.000206912
-0.000178604
-0.000552015
0.000588276
0.000697644
-0.000733905
0.000516106
-0.000556922
-0.000483237
0.000367445
-0.000101118
-0.000290457
6.17819e-05
-0.00010653
0.000731372
0.000119742
-0.000644972
-0.00024663
0.000130649
0.000236517
-0.000120536
-0.000341733
-8.14701e-05
0.000118095
0.000499884
-0.000656653
-0.000562001
0.00071877
0.000374106
-0.00039352
0.000114563
-9.51483e-05
0.000333829
-1.11112e-05
-5.44153e-05
0.000467018
-0.000492143
0.000237815
-3.98144e-05
-0.00020177
0.00043448
-0.000582493
-0.000511474
-1.82359e-05
-8.15533e-06
3.65481e-05
-1.01569e-05
-0.000172418
3.69304e-06
-0.000580019
0.00026048
-0.000781667
0.000406025
0.000760142
-0.0003845
-0.000142064
-0.000682998
-0.000254944
0.000176317
-0.000168003
7.57709e-05
0.000158492
-0.00045059
-0.000287922
-0.00035598
0.000386618
-0.000547259
0.000516621
-0.000286
0.00116415
-0.000195327
-0.000292367
0.000142167
0.000414209
-0.000907689
0.00059354
0.000737365
-0.000111701
-0.000225023
0.000698756
-0.00048387
0.00108216
-0.000434066
-0.000609445
0.000245289
0.000623552
-0.000310207
-0.000558635
9.37476e-05
-0.00012775
0.000340067
-0.000306065
0.000179768
0.00010058
-0.000154357
-0.000125991
0.000950049
9.54946e-05
-0.000314172
0.000573657
0.000461057
-0.000551223
-0.00048349
-0.000214974
0.000214425
0.000180318
0.000501511
-0.000391569
-5.35665e-05
-5.63757e-05
0.000212167
4.62066e-06
0.00107629
-0.00129307
-0.000277503
0.000300839
4.91587e-05
-0.0011862
0.00109158
-7.41216e-06
2.76589e-06
3.24778e-05
-0.000113156
-0.000116444
0.000141208
-0.00073185
0.00101781
-7.11133e-05
-0.000214845
-0.000424529
0.000516003
-0.000517382
0.000418635
0.000128749
-0.000696179
0.000629456
-2.47904e-05
-0.000616751
0.000631332
0.00077498
-0.00079489
-0.000129975
8.56525e-05
-9.16283e-05
-0.000489405
7.47351e-05
0.00096799
-0.00055332
-0.000585515
-0.000325036
0.000540552
0.00101851
0.000234426
0.00100261
-0.00100213
-0.000158811
0.000505286
-0.000191296
4.63828e-05
2.89756e-05
0.000115938
0.000202568
-0.000149501
-0.000221214
0.000168147
-0.000217165
0.00101299
0.000379603
-0.000313373
-0.000714878
-0.000253928
0.000171615
-3.70391e-05
0.000307736
7.85316e-05
-0.000349229
-0.000305388
-0.000871363
-0.000736329
-1.84946e-05
0.000292118
3.49993e-05
-0.000308623
0.000567083
0.000218966
-0.000169388
-0.00061666
0.000235674
-2.75957e-05
-0.000176732
-3.13456e-05
0.000420667
-0.000507406
0.000106317
-0.000616733
-0.000360361
0.000391579
0.000113718
-2.91964e-05
-0.000509484
9.01138e-05
4.61908e-05
0.000373179
-0.000702997
0.000136807
5.67057e-05
-0.000252676
-1.65558e-05
2.84792e-05
0.00083231
-0.000178084
-0.000508051
-0.00113858
0.000934435
-3.35677e-06
0.000207498
-0.000677449
-0.000380832
-8.02946e-05
-0.000488454
0.000405846
6.82399e-05
-0.00029359
-8.42166e-05
0.000309566
0.000620715
-0.000580079
0.000420422
7.14389e-06
0.000962013
-0.000535502
0.000682756
-0.000107945
0.000915274
0.000228042
6.98482e-05
0.000343192
-9.11936e-05
-0.000321846
0.000732903
0.000110983
-0.000242907
-0.000600979
-0.000260679
1.00607e-05
-0.000107486
7.49249e-05
3.25616e-05
-6.34669e-05
7.11255e-05
0.000728071
0.000244913
-0.000240081
0.000418452
-0.000251464
-3.63384e-05
0.000661308
0.000241283
-0.000174521
-0.000275942
0.000188163
-0.000180314
0.000268093
-2.522e-05
0.000242399
-2.0856e-05
0.000290259
-0.000207621
0.000526952
0.000291911
-0.000487595
-0.000331267
-0.000144526
9.73122e-05
-0.000389076
0.000613261
0.000169961
-0.000121913
-0.000122025
0.000615036
0.00022352
-0.000291665
-0.000470449
0.000282525
0.000755266
0.000394041
-0.000418313
8.94723e-05
-6.84149e-05
0.000592203
0.000107658
-6.98505e-05
-0.000167783
-0.000201667
-0.000122215
0.000206576
0.000156809
8.8622e-05
-0.000159054
8.64492e-05
-3.68149e-05
-6.93954e-05
-0.000234704
-0.00123725
0.000165524
-0.000276343
0.000470608
0.000107748
-0.000302013
0.000471735
-0.000466118
0.000309174
-0.000314792
0.000607513
-0.000412121
0.000257354
-7.06565e-05
0.000386662
0.000296033
0.000345618
-3.41378e-05
-0.000497602
0.000631231
-0.000419397
0.000285768
0.000269039
-0.000102166
0.000578162
-0.000402291
-7.37044e-05
0.000567019
-3.79541e-05
-0.000123084
-2.86969e-07
0.000701533
-7.71691e-06
-0.000249959
0.000149427
0.000108248
0.00100597
0.000499378
-0.000331455
-0.00117389
2.72787e-05
0.00017943
2.51261e-05
0.000102732
-5.31775e-05
-0.000122036
5.64769e-05
-0.000226553
8.13536e-05
0.000108899
3.63008e-05
0.000110971
-0.000130612
0.000114685
-0.000117509
-0.000129904
0.000132727
-3.85559e-05
3.41158e-05
4.50687e-05
-4.06285e-05
-4.61177e-05
-6.47706e-05
7.23323e-05
8.82178e-05
-8.36347e-05
-1.57258e-05
1.11427e-05
9.12469e-06
2.55115e-05
-0.000120657
8.60207e-05
-0.000106134
-0.000151089
-0.000106558
-5.95008e-05
5.74594e-05
-3.97025e-05
3.70225e-05
-4.73211e-06
-0.00111081
0.000103111
0.00103893
-3.12389e-05
9.89093e-05
-8.84501e-05
-0.000116593
7.677e-05
9.54924e-05
-0.000130315
1.66928e-05
-2.22796e-05
0.000310614
-0.000131814
0.000196748
-0.000375548
-0.00119141
4.49846e-05
-9.2906e-05
5.10368e-05
-1.76316e-05
-4.32541e-05
0.000113507
0.000210846
-0.000186878
0.000286647
-0.000396232
-0.000106291
-0.00130398
0.00013353
0.00015283
0.000146233
-0.000446357
-0.000802319
6.23401e-06
6.05296e-05
-0.000111775
-0.000156121
-0.000173722
-0.000147399
5.5147e-05
-1.33844e-05
-6.15849e-05
1.98224e-05
-0.00133215
0.000222967
0.000755783
-0.000558928
0.000809113
-1.17949e-05
-0.000399035
2.97476e-05
-0.000216599
0.00024252
5.11097e-06
0.00013272
0.000119341
-0.000114421
-2.49956e-06
3.94107e-05
0.000126007
-1.19975e-05
-0.000978371
0.000402003
0.000128934
8.27235e-06
-8.44536e-05
0.000185372
-0.000126607
2.93545e-06
9.94859e-05
-0.000104921
-0.000107917
4.33102e-05
0.000196055
-3.31512e-05
9.20661e-05
0.000145914
-0.000125177
0.000191834
-0.000212571
-0.000792153
0.000104005
0.000169812
-0.000144883
-4.979e-05
5.96629e-05
-0.000151188
-0.000129019
0.000122382
0.000157824
0.000116402
-0.000137691
-6.7189e-06
2.80084e-05
-0.000112276
0.000132254
-1.93808e-05
-5.46857e-05
9.13449e-05
-0.00125516
0.000131553
-5.53588e-06
-1.24648e-06
0.000110788
6.68894e-05
0.000126832
-0.000108396
6.72839e-05
-0.000122412
0.000157252
-0.000102124
0.000232332
0.000265043
-0.000241568
0.000266487
-1.32702e-05
-8.88637e-06
7.61703e-05
-0.0003288
-0.000884461
-4.18992e-05
-0.00108237
-0.000413226
0.000300169
-0.000150572
-0.000151675
0.000154411
0.000108199
-3.95969e-05
8.73385e-05
2.77373e-05
-4.81864e-05
8.518e-05
-4.03528e-06
0.000169582
-3.43631e-06
-9.33695e-06
-2.38329e-05
-2.04883e-06
-8.88984e-05
8.0012e-05
0.000132784
-7.85329e-06
-0.000131901
-7.94088e-05
-0.000233822
0.000189983
-4.27286e-05
5.08745e-05
-0.000712411
-6.22451e-05
0.000126084
-9.89462e-05
0.000299715
-0.000143749
9.14533e-05
-4.92395e-05
-0.000271849
-0.00027821
0.000309432
0.00014118
-0.000155586
2.17588e-05
-0.00138103
-0.000215838
0.000423429
-3.39117e-06
0.000120313
2.01364e-05
5.47885e-05
-0.00018189
0.000566971
-0.000670236
-0.000511171
0.000614437
0.000441991
-0.000561709
-9.41591e-05
7.14314e-05
-2.00009e-05
0.000857107
-0.000474074
-0.000963623
0.00058059
8.50561e-05
0.000252521
8.77769e-05
0.000222136
-0.000128388
-0.000284048
0.000294863
0.000298617
7.48749e-05
0.000125919
-0.000836573
0.000972417
-2.48609e-05
-0.000135019
-8.3717e-05
0.000218736
-1.36727e-05
0.000762509
-0.000741692
0.000394079
0.000472607
-0.000210004
0.000193087
8.13611e-05
-0.000617896
0.000537986
-0.000316543
0.000472737
-0.000156194
7.46322e-05
2.32289e-05
-0.000749947
0.000198874
-0.000426693
0.000977765
-0.000515881
0.000357021
-0.000239678
0.000398538
-5.88487e-05
-2.52713e-05
0.00087934
0.000538508
-0.000499613
0.000425834
-0.000464728
-0.000166408
9.21514e-05
0.000167833
0.000199756
-0.000267966
0.000128641
3.38044e-05
-9.99924e-05
0.000198396
-9.44072e-05
-0.000691332
0.000542783
-0.000282149
-0.000281868
-0.000591163
-0.00121902
-0.000258752
0.000737427
0.000412767
0.000145043
-0.000476644
0.000576891
-0.000546062
0.000695547
7.39028e-05
-0.000445979
0.000517118
0.00048256
2.31899e-06
-0.000111656
-0.000259355
0.000271018
0.000118908
-0.000756085
0.000106429
0.000530748
-0.000657592
0.000602196
0.000144868
-0.000555408
0.000137828
0.000804198
5.26067e-06
0.000561471
0.00023846
0.00031003
-0.000411078
0.000471447
-6.03695e-05
0.00042399
0.000177308
-0.000205872
-2.0676e-05
3.81174e-05
0.000157871
-0.000195989
9.38495e-05
0.000484987
-0.000616791
0.000278396
-0.000487159
-0.000702827
0.000215196
0.000285363
-0.000345811
-0.00049496
-0.000130431
0.000197169
-0.000128984
0.000536266
0.000247417
-0.000491772
0.000350228
0.000645189
-0.00066018
0.000767723
-0.000278832
0.000416102
-0.000460798
-0.000337175
-1.98801e-05
7.00885e-05
4.12449e-05
0.000378021
-0.000395827
0.000530153
-0.000543825
-0.000934782
-0.00102993
0.000471423
0.0007285
-0.000589676
-0.000242505
0.000268666
-0.000850808
0.000277995
-0.00031384
0.000886653
-0.00013912
1.94867e-05
0.000170508
0.00027462
0.000471913
-0.000179451
0.0007581
0.000418422
0.000478794
-0.000522132
-2.50778e-05
0.000147814
0.000518528
-0.000463871
-0.000292402
0.000237744
0.000240307
8.22976e-05
-0.000146287
-0.001005
0.000931232
0.000374541
-0.000563565
-1.60772e-05
-9.19831e-05
0.000110027
-1.96644e-06
-0.000115686
5.16594e-06
-0.000129234
-0.000372995
5.62512e-05
-0.000460793
0.000365485
-0.000607688
7.53293e-05
0.000414919
-0.000210076
0.000222973
0.000552459
-0.000749961
0.000765361
-0.000567858
0.000141304
0.00103196
-0.000861409
-4.69576e-06
1.86321e-05
0.000227872
0.000173125
-0.000198429
0.000504263
-0.000141931
5.30161e-05
0.000104576
-0.000389147
-0.000349665
-3.4304e-05
0.000505751
-0.000565091
0.000505033
-0.000400735
-0.000258201
-0.000347677
-0.00016775
0.00041341
-0.000444218
-0.00087703
0.00047044
6.41481e-06
0.000258077
-0.000338257
0.00054909
0.000483255
-0.000438135
0.000599747
-0.000113158
6.61937e-05
-5.90614e-05
0.000554339
8.05213e-05
0.000447514
7.41607e-05
0.000207631
0.000505739
0.00087665
-0.00105513
-6.2905e-05
-0.000191175
-0.000334264
0.000315436
-0.000364666
0.000141709
0.000468057
-0.000572252
0.000578267
3.8311e-05
-6.34253e-05
1.3712e-05
4.93548e-05
2.65324e-06
0.000426786
1.3432e-05
0.000516721
-8.21061e-05
-0.000230095
-0.000131624
-0.000577853
-0.000510938
-0.00045579
-0.000245338
-0.000116141
0.00103963
-4.68227e-05
-0.000655613
0.000149077
8.79463e-06
0.000246729
0.000200935
0.000115239
-0.000136689
-0.000836586
-0.000141691
0.000385254
-0.000784708
-0.000235454
0.000198687
-0.000126343
0.000241022
6.3984e-05
4.73245e-05
-9.82757e-05
-0.000193845
6.12904e-05
0.000781143
0.000722079
5.85849e-05
0.000364226
0.000957328
-0.000899119
0.000966601
-0.000149368
-9.88104e-05
9.60386e-05
9.17116e-05
0.00104689
-8.9567e-05
-4.26777e-05
0.000199659
0.000185661
-5.24761e-05
0.000360914
-0.000469957
-0.000408781
-0.00052047
-0.000826174
-7.29449e-05
0.00036868
-0.000699594
0.000421115
-9.02007e-05
0.000237522
-0.000396587
0.0001847
-2.56351e-05
0.000131267
0.000322083
-0.000296753
-9.62508e-05
9.51063e-05
-0.000253952
0.000287079
-3.31267e-05
-0.000403723
0.000164502
0.000310652
0.000231432
0.000269928
0.00075067
-0.00022469
-2.92624e-05
-0.000167718
0.000194639
-2.69217e-05
-0.00039373
-0.000433633
0.000479726
-4.60938e-05
-3.49637e-05
8.73526e-05
-0.000148313
-1.94042e-05
0.000972404
0.000390105
-0.000351825
-3.82807e-05
-0.000176084
-0.000452014
0.000304781
-0.000766325
-3.00504e-05
1.19308e-06
0.000515528
-9.95215e-05
0.00114642
3.67679e-06
0.0001454
-4.35271e-05
0.000366763
-0.000298216
0.000472004
-1.33738e-05
3.76932e-05
-0.000381997
0.000357678
-0.000142173
-9.54985e-05
-4.18812e-05
-0.000705229
-4.57507e-05
-0.00069452
0.000184457
0.000638811
0.0002202
-0.000322367
0.000805006
-0.000205117
1.35629e-05
4.55307e-05
-3.31981e-05
-0.000354661
-0.000529735
2.24684e-05
1.41298e-05
-0.00070568
-1.75727e-05
0.000515901
0.000680162
-0.000685588
-0.000419541
0.000293309
-0.000385472
3.47067e-05
-0.00033149
0.000355368
-0.000526745
-0.000261749
-0.000313886
0.00028397
0.000143007
-0.000433315
0.00046186
8.37605e-05
0.000353915
-0.000192417
2.26775e-05
0.000174161
-2.38873e-05
1.42289e-05
0.000277362
8.68676e-06
-5.46173e-05
0.000772408
-2.05449e-05
0.00053572
-0.000753589
4.05865e-05
0.00011527
-0.00048897
0.000450655
-0.000176738
-7.53842e-06
0.000169744
-0.00044173
0.000468519
8.09591e-05
-0.000349267
0.000149519
2.88934e-06
-0.000170366
0.000159572
-2.53618e-05
-0.000141937
0.000223199
8.5682e-06
-0.000102681
-0.000243141
0.00040111
0.000136895
-8.21039e-05
0.000161913
-0.000243115
5.51408e-05
-3.28237e-08
0.000307187
-3.44587e-06
0.000230322
0.00016644
-0.000829199
8.08819e-05
0.00016576
-0.000135671
-0.000245655
-1.84695e-05
-0.000186407
-0.000233216
4.34698e-05
0.000194675
-0.000112296
0.000291383
-7.39269e-05
-0.000118233
-3.92251e-05
-9.76586e-06
2.74303e-05
-7.79894e-05
-0.000566056
9.24314e-06
0.000167436
-1.51878e-05
0.000255571
0.000921611
1.72367e-05
0.000577674
-0.000158728
2.37445e-05
0.000147162
-0.00016291
1.57479e-05
-0.000587354
0.000672791
-0.000731429
0.0010064
0.000466266
4.95216e-05
-0.000249657
-0.000414022
-0.00048118
0.000659904
9.01033e-05
0.000321786
-0.00119125
-0.000224987
0.000299746
-0.000783295
0.000843533
1.15582e-05
-0.000713297
-0.000602272
0.000456962
-0.000205731
-0.000727007
-0.000411409
0.00010463
-1.15157e-06
4.2855e-05
6.94306e-07
-2.96282e-06
-0.000445701
0.000158921
-0.000336751
5.96952e-06
-1.41566e-05
2.99459e-05
0.000437078
-9.60624e-05
9.72632e-07
-4.19203e-05
-1.0575e-05
-0.000434568
0.000120766
4.0189e-05
-0.000583248
-0.000221888
0.000644698
-5.31244e-06
0.000284057
-0.000130605
-0.000239765
0.000684003
-0.000661404
-1.34721e-05
0.000267356
-0.00045519
0.000252437
-0.00114283
0.000113072
-0.000188786
-0.000844019
0.000319527
0.000713278
-9.10721e-05
0.00101236
-0.000391202
0.000119656
0.000261621
-0.000689489
0.000265811
-0.000667013
0.000606917
2.33332e-05
-0.000464744
-0.000644483
0.000792492
-3.00391e-05
-0.000477411
-2.95967e-05
0.000584629
1.00933e-05
-1.35405e-05
0.000119521
-0.000112008
5.66885e-05
0.000324369
0.000583237
-4.75168e-05
-0.000639609
-0.00011398
3.70362e-05
0.000486098
-6.70852e-05
0.000421042
0.000252704
2.51234e-05
-0.000203337
-0.000592903
0.00038412
0.000451005
0.00056046
0.000423057
-0.00065764
-0.000118665
0.000133362
-0.000130567
4.28406e-05
0.000467158
-0.000608591
-8.04552e-05
0.000553674
7.20646e-05
-0.000407331
-0.000710768
-7.081e-05
0.000690506
-7.30684e-05
0.000841354
-0.00073254
0.00109887
-6.59938e-05
0.00012331
1.60362e-05
-4.81579e-05
0.000462585
-0.000413719
0.000160506
-0.000313281
0.000320301
-0.000483898
0.00022818
5.33418e-05
-0.000153356
0.000108941
-5.05326e-05
9.49476e-05
0.000333259
5.56532e-06
0.000528621
8.3617e-05
-0.000484595
-0.000197208
-0.000134096
0.000177948
-0.000275205
-0.000508616
0.000118247
0.00050634
-7.95558e-05
-0.00054503
-0.000204961
-0.000292665
0.000320998
0.000176628
-2.48904e-05
0.000220289
-4.44854e-05
-0.000467551
0.000427255
-0.000222351
-0.00041684
0.00041356
-0.000759371
-0.000512326
0.000130212
8.97538e-05
-4.03137e-05
-0.000225597
0.000157241
-7.28713e-05
0.000148208
-9.19206e-05
0.000532764
7.23835e-05
-0.000419381
-0.000379159
-0.000180619
0.000942224
-0.000109226
-0.000373737
-0.000114236
0.000170447
-0.000315044
-0.00034156
0.000587035
-0.000362873
0.000467673
0.000653445
-0.000557304
-9.61404e-05
-0.000490385
0.000506089
-1.57044e-05
-0.000450183
0.000412572
-0.000391693
-2.08794e-05
0.000752545
0.00049175
-0.00034107
0.000337639
3.43055e-06
0.00039472
5.36498e-05
0.000385069
-4.74299e-05
-0.000509348
0.000860121
0.000426507
0.000496171
-0.000474689
-2.14819e-05
0.000433778
0.000465025
0.000443169
2.18564e-05
0.000427255
6.52269e-06
0.00043375
9.41852e-06
0.000450296
-1.65457e-05
0.000469418
-6.31924e-05
0.000781724
0.000603447
-0.00013262
6.37139e-05
0.000165724
-8.36913e-05
4.54781e-05
-1.4541e-05
-8.78561e-05
0.000976909
-0.000159376
-5.69873e-05
0.000153566
0.000532878
-5.32529e-06
0.000603902
4.80918e-05
6.62781e-05
-2.99249e-05
0.000249003
-5.73354e-05
7.81827e-05
0.000157786
0.000750661
-0.000772762
-3.20557e-05
0.000627452
0.000123001
-8.19164e-05
-6.67271e-07
3.01056e-07
-0.000125712
-3.93673e-05
-7.24869e-05
0.000470391
0.000443105
-0.000468817
0.000335138
6.76868e-05
3.51609e-05
-0.000194003
-9.13744e-05
0.00083244
-0.00106366
9.83883e-05
0.000284637
-8.53443e-05
0.000713331
-9.52657e-05
0.00040082
-0.00101889
-0.000245655
-7.14652e-06
0.000154532
0.000148545
-1.11499e-05
-9.07756e-05
0.000591906
-0.000451728
0.00015743
-0.000162198
0.000167454
0.000321146
0.000108965
6.24184e-05
-0.000126315
0.000100139
-0.000127256
-6.13325e-05
0.000149022
0.000432683
-0.000940527
4.75884e-05
0.000889582
-0.000609523
0.000623555
-0.000194087
-5.17077e-05
-0.000242597
-7.30614e-05
-1.22577e-06
9.92127e-05
-8.20688e-05
2.23365e-05
-0.000443766
0.000440375
9.63926e-05
-8.7795e-05
-7.84481e-05
-0.00017561
0.000174943
0.000466003
-0.000706952
-3.43341e-05
-0.000498305
0.000168017
0.000186257
-0.000248949
-1.41141e-05
-0.000161216
0.000209451
0.000177151
-0.00045961
-0.000133529
-0.000629404
-0.000111172
-0.000144138
0.00072338
-5.22525e-05
4.79478e-05
-0.000142871
0.000751239
-0.000288172
0.000114454
4.235e-05
9.89729e-05
-6.64841e-05
7.12484e-05
0.000230074
-0.000357229
2.05323e-06
-0.000141252
0.000150217
0.000168255
3.53801e-05
-0.000378906
9.05012e-05
-9.54386e-05
2.44241e-05
-0.000619342
-1.81559e-05
0.000209818
9.95005e-05
0.000304125
-0.000460297
-0.000207635
0.0009275
4.5414e-05
-2.36975e-06
6.56594e-05
5.10051e-05
-2.84814e-05
-7.26398e-06
0.000120221
-0.000463153
-0.000183719
0.000403121
-0.000358839
7.69341e-05
0.000128893
-8.85453e-05
-7.69486e-05
0.000460706
-0.000553145
0.000345166
-0.0012719
0.0013379