/*--------------------------------*- C++ -*----------------------------------*\
| =========                 |                                                 |
| \\      /  F ield         | OpenFOAM: The Open Source CFD Toolbox           |
|  \\    /   O peration     | Version:  v1912                                 |
|   \\  /    A nd           | Website:  www.openfoam.com                      |
|    \\/     M anipulation  |                                                 |
\*---------------------------------------------------------------------------*/
FoamFile
{
    version     2.0;
    format      ascii;
    class       volScalarField;
    location    "0.88";
    object      nut;
}
// * * * * * * * * * * * * * * * * * * * * * * * * * * * * * * * * * * * * * //

dimensions      [0 2 -1 0 0 0 0];


internalField   nonuniform List<scalar> 
5794
(
0.000506366
0.00074935
0.00417742
0.00495819
0.0161508
0.000969761
0.00119155
0.000702196
0.00226647
0.000721029
0.00203449
0.00128418
0.00140502
0.00769622
0.00171808
0.00192134
0.0101128
0.00685852
0.0012739
0.000451562
0.00149271
0.000475637
0.00166042
0.000852932
0.00108885
0.00366846
0.013589
0.0130113
0.00401877
0.0008654
0.00146583
0.00212275
0.00242405
0.00114489
0.00138833
0.00184707
0.000786222
0.001651
0.00193639
0.00756876
0.00634733
0.0024061
0.00074293
0.00117475
0.0016897
0.00231789
0.00183371
0.00105523
0.000601671
0.000475012
0.000674919
0.00298025
0.000674637
0.00182414
0.000100401
0.00231089
0.00175976
0.00145815
0.000731411
0.00484048
0.00132583
0.000446386
0.00124339
0.00496567
0.00575251
0.000808212
0.00522202
0.000689839
0.00548138
0.000348317
0.00619921
0.00474185
0.0155764
0.000926004
0.00574384
0.00923611
0.000282995
0.00326095
0.00105569
0.000273408
0.000371294
0.000353372
0.00720673
0.00180269
0.00154557
0.000906192
0.000742864
0.00102298
0.00165382
0.00314965
0.00502677
0.00211447
0.00344537
0.00542408
0.0026231
0.00808938
0.00397004
0.00320495
0.00200237
0.00142397
0.00142642
0.00120992
0.000754829
0.0118744
0.00404828
0.0124904
0.000446603
0.00414563
0.00513519
0.0009192
0.000909833
0.000819533
0.00137109
0.0017146
0.00234914
0.00408788
0.00147142
0.00632597
0.00123523
0.00100948
0.00872663
0.000224803
0.00077712
0.01119
0.00137591
0.00356854
0.00353704
0.00123998
0.00342816
0.00392302
0.00150935
0.00183115
0.00310551
0.00307934
0.0111331
0.00189743
0.00292902
0.00049168
0.00411662
0.00093587
0.00110191
0.0138884
0.00155221
0.0139989
0.00509927
0.0126655
0.00197094
0.00146259
0.012844
0.00767835
0.000726363
0.00144617
0.0120946
0.000799682
0.0141392
0.00168125
0.00175681
0.00119976
0.00213353
0.00146794
0.000375384
0.000643801
0.000374033
0.000768104
0.00195063
0.00188009
0.000716813
0.000552114
0.000424138
0.000228423
0.000303343
0.00194938
0.000533573
0.000456799
0.000368436
0.00133752
0.00026183
0.000961709
0.000464131
0.00190218
0.000652132
0.00115596
0.000630939
0.00153967
0.000711753
0.00371421
0.00111923
0.00111916
0.000283885
0.000828888
0.00165236
0.00139521
0.00171583
0.000885797
0.000962034
0.000784632
0.00070071
0.000524058
0.000437415
0.0010088
0.00104928
0.00209951
0.000961485
0.000862709
0.00160316
0.00200332
0.000714805
0.00579428
0.0135183
0.00198288
0.000761362
0.000858027
0.00217599
0.00129249
0.00109648
0.00144929
0.00199744
0.00367548
0.00355998
0.00557646
0.000856851
0.00230431
0.0083723
0.00372334
0.00234385
0.00687516
0.000659829
0.00120305
0.00046054
0.00188322
0.00079239
0.00065492
0.000884564
0.00366132
0.0028678
0.0107448
0.0136935
0.00201774
0.000987942
0.000546659
0.000428809
0.00765401
0.00234887
0.00148583
0.00126134
0.0020444
0.0016764
0.0109331
0.00114313
0.000952544
0.000702685
0.000914794
0.012514
0.00050791
0.000811182
0.0227478
0.000905828
0.000886326
0.00381477
0.00122826
0.0024959
0.00208328
0.00122108
0.000686033
0.00111836
0.0012643
0.0105049
0.00364831
0.000878254
0.00290368
0.00244581
0.00110089
0.00306517
0.00508092
0.000868937
0.00134232
0.00180104
0.00104016
0.000821458
0.0013231
0.000862366
0.00324525
0.00457224
0.00148007
0.00540005
0.00526481
0.00255289
0.00310484
0.00533975
0.0089382
0.00149406
0.000994289
0.00130892
0.0018597
0.000771735
0.00301224
0.0024444
0.00101192
0.00279653
0.00100168
0.000277593
0.000991138
0.000349063
0.00325251
0.000823281
0.003083
0.000698828
0.00428345
0.00250258
0.00211052
0.00118718
0.00280486
0.00229605
0.0017658
0.000782967
0.000903805
0.00510684
0.0139937
0.00460709
0.00415886
0.00343449
0.00106292
0.00516824
0.0150958
0.00302915
0.00202521
0.000997487
0.00104696
0.00122575
0.00186758
0.00180087
0.00082152
0.000827827
0.00150469
0.0013129
0.000351942
0.000329624
0.000330954
0.000245484
0.000917263
0.000453101
0.000843606
0.00233117
0.00118913
0.000322547
0.000580539
0.0017089
0.00120809
0.00219229
0.00165749
0.00203318
0.00251417
0.00148456
0.00116725
0.000696702
0.00259249
0.000360243
0.00187921
0.00113774
0.0006894
0.00577357
0.00241972
0.00292897
0.00169897
0.000869714
0.00301546
0.00174143
0.00155053
0.00121988
0.00101014
0.00188377
0.000428437
0.00323482
0.00409628
0.00657444
0.00301537
0.0016713
0.00139166
0.00168695
0.000589065
0.00375702
0.00181153
0.000750178
0.00147417
0.00112112
0.00108452
0.00664794
0.00210811
0.00113981
0.00078119
0.000556178
0.00170385
0.00032752
0.00177528
0.00049383
0.000421885
0.000363361
0.000771617
0.00134119
0.00170013
0.00078087
0.00109013
0.0144944
0.000436216
0.000440159
0.00255439
0.00131468
0.00087667
0.000699892
0.00409467
0.0033902
0.00204195
0.00441391
0.00117704
0.00174466
0.00140291
0.000610982
0.00544017
0.00194569
0.00349862
0.00189402
0.0029418
0.00534017
0.0019576
0.000685627
0.000582356
0.000421557
0.00161926
0.000514101
0.000503599
0.00296928
0.000784359
0.0125229
0.00203706
0.00137032
0.000997203
0.000928624
0.00130505
0.00100442
0.000812355
0.000939517
0.000805506
0.000918548
0.000830314
0.000990506
0.00462219
0.00249649
0.00363287
0.000412389
0.00279994
0.000373603
0.000567254
0.00197795
0.000513406
0.00496604
0.000511304
0.00453364
0.00807336
0.00349661
0.00721734
0.000655864
0.000857107
0.00075605
0.00260442
0.00152998
0.00395849
0.0105863
0.020174
0.00530976
0.000996502
0.000160339
0.0142051
0.00443751
0.000940723
0.00152654
0.00312367
0.0202983
0.0140154
0.00111594
0.00075481
0.00100911
0.000655638
0.000711012
0.000664667
0.00542569
0.00345584
0.000861491
0.000959961
0.00275817
0.000532287
0.000623816
0.0046646
0.00430691
0.0128893
0.00123866
0.00108174
0.000981756
0.00205187
0.00191776
0.00232913
0.0206357
0.0191211
0.000728693
0.00182171
0.0140451
0.000930215
0.000699719
0.00110599
0.00484663
0.000915649
0.00809116
0.000638204
0.00486064
0.000632734
0.0017645
0.00226275
0.00378787
0.000639499
0.000805393
0.0143937
0.000876382
0.000886433
0.0183552
0.0069336
0.00450475
0.00119592
0.00117758
0.00211259
0.000642578
0.000594376
0.00110658
0.00029459
0.0099323
0.00225668
0.00176355
0.000839801
0.000785489
0.00296715
0.0039347
0.00207233
0.00047243
0.00229524
0.000388248
0.00543704
0.00123245
0.00286944
0.000755236
0.014234
0.00140369
0.000923681
0.0129289
0.000752743
0.000299756
0.000872125
0.00181555
0.00171557
0.00112595
0.000585242
0.000633608
0.0123837
0.0181478
0.000380604
0.00327381
0.00160088
0.00579146
0.000852701
0.00119781
0.00573075
0.000357238
0.00088501
0.00164624
0.00280824
0.00147414
0.00133792
0.00149695
0.000859047
0.0204153
0.0042866
0.00141812
0.00391526
0.00490238
0.00255694
0.00785317
0.00769645
0.00327585
0.00137344
0.00146041
0.00449592
0.00239149
0.00488165
0.000928262
0.00172233
0.000591606
0.00535886
0.00260968
0.0031404
0.000424158
0.000831173
0.000562437
0.00162168
0.000794315
0.0017799
0.00272734
0.00558164
0.000772902
0.00280021
0.00329606
0.000316163
0.000116361
0.00566306
0.0208036
0.0233138
0.0116157
0.000842621
0.000677033
0.000801866
0.00214138
0.0010436
0.000864507
0.00187953
0.000256781
0.00324922
0.00405725
0.00556125
0.000353455
0.00147491
0.00470141
0.0143882
0.00617075
0.00130067
0.000589847
0.000556721
0.000216075
0.000973079
0.000857226
0.000771483
0.00362724
0.000809345
0.000676391
0.0139619
0.00126068
0.000838329
0.00400882
0.00252296
0.00281163
0.00534819
0.00251179
0.00101076
0.00193164
0.000653656
0.000763651
0.000962867
0.00223501
0.000580752
0.000549034
0.00300069
0.0154783
0.00285522
0.0020862
0.00306671
0.000775749
0.000532332
0.000643647
0.00111655
0.000679322
0.00310244
0.00561927
0.00548186
0.00256268
0.00277123
0.0020049
0.000878628
0.0127471
0.00141885
0.00143834
0.00290878
0.00585697
0.00140721
0.0119574
0.000926614
0.0007911
0.00510884
0.0019805
0.00338392
0.0129899
0.00277045
0.00393691
0.00216885
0.00098874
0.000733579
0.0066875
0.00815867
0.00346273
0.0033061
0.00176233
0.00190945
0.00630013
0.000455454
0.000792054
0.000769649
0.000274194
0.00070112
0.000283537
0.000944065
0.0119695
0.00327038
0.00240501
0.000709196
0.0022142
0.00697258
0.00110301
0.00777462
0.00363529
0.0030741
0.00440678
0.000775311
0.000733517
0.0169099
0.00304785
0.00638526
0.00768579
0.00392696
0.00307222
0.00258345
0.0217731
0.000982857
0.000803142
0.000818834
0.00812548
0.000955331
0.00288519
0.00272662
0.00639417
0.00219063
0.00180832
0.00180221
0.006364
0.0044861
0.00211286
0.00342732
0.00461389
0.000225105
0.000290572
0.000161485
0.000440733
0.00489701
0.00257288
0.00463242
0.000780531
0.000802962
0.00179839
0.000826343
0.00196316
0.000564794
0.00262874
0.00518252
0.000756075
0.00592161
0.00276197
0.00070903
0.000937271
0.0208206
0.00496341
0.00310625
0.00587308
0.00590745
0.00281717
0.00344958
0.00126905
0.00410857
0.00229336
0.00460954
0.0110524
0.00214365
0.00213402
0.000805053
0.000932796
0.00112086
0.0160686
0.000986998
0.00649658
0.0161736
0.00100834
0.000682157
0.000829668
0.0051331
0.00268876
0.00670339
0.00527431
0.00262371
0.00506634
0.00575785
0.00694956
0.00361984
0.000910862
0.00283191
0.000590036
0.00278213
0.000521482
0.00344702
0.000863071
0.00560274
0.00203931
0.00207264
0.00159073
0.00168534
0.00646167
0.00564375
0.00304499
0.00876324
0.00349046
0.00107936
0.000963633
0.00107245
0.00982071
0.00147575
0.00223917
0.00304967
0.00815257
0.000690963
0.000637711
0.00123583
0.00136177
0.0151232
0.00137346
0.000768793
0.00145728
0.000966601
0.00157118
0.00247967
0.004825
0.00479009
0.000771427
0.00222033
0.00846416
0.0010492
0.00241666
0.0175109
0.000275784
0.00015317
0.000423152
0.000584945
0.00456558
0.00506788
0.00087541
0.00144031
0.00115072
0.000712355
0.000839324
0.0230801
0.00279029
0.00578479
0.00167089
0.00238591
0.00351168
0.00291299
0.0141058
0.00498942
0.00174316
0.000705127
0.000754065
0.0127513
0.000909566
0.00102743
0.00762976
0.00386527
0.00402635
0.00392177
0.0018108
0.0108574
0.00402084
0.000773118
0.00302299
0.00101468
0.0039479
0.00127562
0.0020228
0.00303004
0.000812043
0.000753007
0.00055463
0.00453416
0.00386474
0.000893924
0.000754258
0.00217577
0.00113884
0.00388982
0.000801682
0.000799334
0.00265652
0.00140614
0.00307961
0.00595012
0.00431867
0.00604144
0.0139581
0.000530334
0.00060867
0.00794452
0.00113204
0.00104676
0.00078094
0.00100249
0.00204732
0.000380187
0.000790231
0.00114567
0.00812946
0.00309207
0.00478449
0.000845845
0.00302744
0.00559566
0.018873
0.00208513
0.00329832
0.000784905
0.00102252
0.0177526
0.00104232
0.00288949
0.000841389
0.00135388
0.00105547
0.00154426
0.000354781
0.00194928
0.00126259
0.00046585
0.000327919
0.000264746
0.000254804
0.000184289
0.000660628
0.0147447
0.0130065
0.00323572
0.0018916
0.00281421
0.0121311
0.000752777
0.000731385
0.000710994
0.00806695
0.00107205
0.020833
0.00626482
0.00228211
0.000785784
0.00826957
0.00170491
0.000662882
0.000529242
0.0233205
0.00596912
0.000834236
0.0013093
0.00087871
0.0034713
0.00170637
0.0165351
0.00068842
0.000506275
0.00046194
0.000605257
0.000509066
0.000998458
0.00220393
0.000915421
0.000643083
0.000818155
0.000789441
0.00937862
0.000782772
0.000846806
0.00115387
0.00163637
0.000831632
0.000888957
0.000558425
0.00108374
0.000794934
0.000941229
0.000756912
0.00122928
0.000759879
0.00193855
0.00472458
0.000825368
0.000833718
0.000949963
0.00233093
0.000830279
0.00212067
0.000776949
0.0227074
0.00212542
0.00112707
0.000825638
0.000875058
0.014157
0.000972208
0.0024541
0.00263511
0.00532233
0.00172655
0.000855583
0.00110343
0.00159568
0.000829911
0.00120117
0.00178825
0.00168244
0.0015003
0.000150883
0.00203444
0.00143528
0.00110069
0.00108895
0.00159375
0.000407034
0.000557286
0.000694863
0.00118749
0.000746879
0.0137413
0.000796493
0.00532891
0.00079016
0.000783425
0.000736484
0.00092394
0.000753919
0.000762173
0.0117312
0.0131234
0.00426609
0.000436286
0.000826806
0.00282034
0.00109345
0.00117081
0.00161728
0.00190051
0.00516298
0.00127731
0.00693029
0.000455094
0.000841891
0.00618212
0.000588311
0.0185156
0.000724478
0.000713669
0.00224402
0.00816526
0.000964039
0.00344819
0.000760152
0.000764304
0.000961828
0.000707046
0.000480397
0.000871448
0.000830324
0.000785811
0.000562597
0.000746207
0.000708039
0.000864079
0.00415425
0.000974693
0.000723479
0.00546699
0.00261635
0.000769942
0.000579464
0.00807731
0.00230591
0.00652076
0.00984135
0.000998448
0.00115581
0.000313651
0.0191792
0.00115338
0.00427887
0.00109139
0.0195257
0.00256958
0.000222257
0.00109256
0.000314208
0.000740842
0.00167798
0.000561483
0.00112818
0.00110198
0.000270477
0.00108072
0.000173463
0.000241099
0.000739114
0.000913498
0.000714239
0.00679597
0.00406347
0.00606384
0.000289614
0.00127652
0.000807726
0.000760682
0.000986256
0.000789778
0.00816657
0.00080987
0.00390358
0.00102924
0.00074655
0.000992146
0.0229107
0.0118897
0.000592099
0.00270643
0.00741692
0.00537729
0.0105203
0.000744789
0.00589129
0.0049509
0.00307591
0.000941823
0.00873442
0.000726495
0.000726527
0.00100238
0.00101064
0.00117841
0.0011917
0.0127542
0.00106997
0.000979922
0.00347562
0.00467199
0.00476988
0.000764993
0.00131287
0.00121083
0.00108419
0.00128468
0.00075248
0.0181885
0.0013744
0.00614528
0.0024878
0.00661452
0.00109423
0.00195273
0.0021527
0.00261014
0.000960094
0.00102613
0.000651141
0.00122366
0.000531755
0.0220923
0.000763647
0.000897283
0.000754879
0.000907226
0.000832466
0.000776394
0.000868705
0.000748112
0.00317504
0.00121657
0.0120672
0.000731683
0.000745123
0.000542184
0.000541838
0.00169125
0.00946414
0.00169484
0.00050766
0.000944046
0.00076876
0.001967
0.000783534
0.000704911
0.000892642
0.000660919
0.000843996
0.00101247
0.000867381
0.00760812
0.00059688
0.0122306
0.000861744
0.0007099
0.000700074
0.000657149
0.000924628
0.00325222
0.00142495
0.000740342
0.00176566
0.000774255
0.00103436
0.00159779
0.00121637
0.000942304
0.000715163
0.00117582
0.00144515
0.00440236
0.00613917
0.00251568
0.00082853
0.000199183
0.00769703
0.00117479
0.00551222
0.006706
0.000487341
0.000856144
0.00109991
0.00132738
0.000257594
0.0128253
0.00657426
0.00111013
0.00818132
0.00312577
0.00164057
0.000497316
0.00817332
0.0211917
0.00872192
0.00129839
0.00119375
0.00164736
0.00280009
0.000836072
0.000739963
0.000569255
0.000783601
0.00313039
0.00328103
0.000364889
0.0060753
0.000775762
0.000681417
0.000431772
0.00291825
0.0124573
0.00141754
0.00248205
0.00602734
0.0089687
0.0150495
0.0022122
0.00217952
0.000795064
0.00582382
0.00396607
0.00726435
0.00559531
0.00246435
0.0040366
0.0023291
0.0146809
0.00452028
0.0169957
0.00235092
0.00128454
0.00108285
0.0178423
0.0025174
0.00155939
0.00523515
0.00386513
0.00232298
0.00621336
0.00704176
0.00360351
0.0139805
0.00262218
0.000320707
0.000806616
0.00462909
0.00106637
0.00144806
0.00175651
0.00083093
0.00420873
0.00345139
0.00634275
0.000569449
0.009457
0.00370504
0.00273104
0.00355727
0.00118026
0.000943178
0.000805186
0.0122589
0.00133008
0.00139672
0.000754629
0.0180052
0.000583792
0.00120419
0.010613
0.00855411
0.00197191
0.00188525
0.012924
0.00134172
0.000786109
0.000151514
0.00665198
0.00286587
0.00830242
0.00738313
0.001046
0.00209687
0.00526139
0.00587341
0.000959735
0.00151426
0.00133948
0.00151769
0.00114682
0.00921025
0.00231318
0.00122106
0.00585399
0.00159437
0.00701828
0.000794511
0.00161041
0.000914261
0.00150294
0.00274594
0.00101647
0.000942751
0.00112454
0.00131759
0.000261621
0.00186593
0.000678563
0.000822499
0.0050326
0.00271694
0.00550542
0.00146243
0.00541925
0.00528664
0.00644936
0.000935608
0.00213825
0.00182412
0.00126946
0.000244171
0.000186655
0.000240935
0.0174847
0.00082621
0.00268311
0.00207039
0.00391894
0.00350869
0.00158617
0.000194422
0.000196915
0.000303491
0.000319993
0.000427151
0.000488374
0.000359721
0.00034957
0.000410895
0.000548622
0.000521918
0.000337752
0.000293377
0.000225331
0.000234651
0.000470885
0.000545997
0.000387611
0.000402009
0.000258429
0.000358195
0.000197167
0.000237698
0.00011379
0.000895688
0.000250738
0.000318806
0.000172762
0.000535703
0.00030277
0.000392359
0.000327861
0.000300296
0.000249049
0.000254636
0.000261691
0.000380045
0.000223581
0.000384945
0.000668618
0.000248813
0.000231132
0.000314744
0.000350005
0.00168958
0.00190795
0.0121353
0.00102649
0.00629839
0.00289958
0.00537672
0.0154921
0.00109169
0.00122131
0.000842155
0.00112208
0.00283154
0.00617544
0.0185256
0.0191385
0.00553818
0.00275304
0.000591285
0.00053004
0.00194848
0.000815426
0.000297565
0.0055483
0.00282736
0.0035817
0.00169599
0.00587033
0.00478618
0.00524251
0.00230644
0.00949551
0.00395483
0.0184797
0.00208463
0.0017977
0.00176302
0.000761112
0.014496
0.00118225
0.00161153
0.00755597
0.00232032
0.0059486
0.0045372
0.00173852
0.00125829
0.000842005
0.000848846
0.016219
0.00212701
0.000410448
0.000361951
0.00777615
0.0146606
0.000203461
0.00354809
0.00684641
0.000418265
0.000397775
0.000380508
0.000325081
0.000344308
0.000402489
0.000516368
0.000305168
0.000310601
0.000594669
0.000430608
0.000319886
0.000203065
0.0003524
0.00024309
0.000271909
0.000349964
0.000230868
0.000345218
0.000208413
0.000216949
0.00020938
0.000276107
0.00341294
0.00278255
0.000440772
0.000887392
0.00562848
0.000848692
0.00945184
0.000863114
0.00291878
0.0153372
0.00381803
0.0028061
0.0144932
0.00335887
0.000195289
0.0144387
0.00206751
0.00130044
0.0225028
0.00493086
0.0131712
0.00066955
0.0136244
0.00169435
0.0012691
0.0133893
0.000897549
0.00343532
0.0035386
0.00148496
0.00225426
0.00608836
0.00103587
0.00901736
0.0175465
0.00339142
0.00736196
0.000577935
0.0102613
0.00125378
0.00207698
0.000808893
0.00635314
0.00116326
0.00163728
0.00332374
0.00152705
0.00722512
0.00083464
0.00305883
0.000633161
0.00726637
0.00543149
0.0233046
0.0001743
0.000771973
0.00101776
0.00856287
0.00281664
0.000263588
0.000682599
0.0069917
0.00446332
0.013157
0.000832681
0.00191651
0.00266487
0.00099095
0.003787
0.000852196
0.00718292
0.000854669
0.000137066
0.00018554
0.0094735
0.00647797
0.000790122
0.005548
0.00495934
0.00333635
0.0133868
0.0191557
0.010848
0.0136363
0.0124187
0.00163674
0.00863933
0.00111394
0.00200777
0.00168925
0.00679441
0.000724209
0.000902464
0.00108998
0.0158593
0.000932924
0.0010361
0.00156149
0.00268899
0.0034827
0.00921979
0.0138857
0.00944901
0.0038097
0.000830778
0.0130502
0.000553064
0.00207241
0.00198876
0.00117392
0.0125764
0.016871
0.00320033
0.0141542
0.00279334
0.00790091
0.00142609
0.00144836
0.00215584
0.00272026
0.00101388
0.00180856
0.00167396
0.0129118
0.00103881
0.00146461
0.00384434
0.00302314
0.00142415
0.00287495
0.00152702
0.0146812
0.0052605
0.00735573
0.00495429
0.00158372
0.000817501
0.00147346
0.00353571
0.00128409
0.00184157
0.00234028
0.0139842
0.0139478
0.0106753
0.0101436
0.0140174
0.0111265
0.0139808
0.00115092
0.0141156
0.0141169
0.011507
0.0110956
0.0141795
0.010648
0.0139861
0.0142898
0.0142033
0.00179579
0.00183308
0.0014812
0.0149903
0.00165029
0.00116959
0.000941007
0.00119745
0.000201051
0.000223549
0.005188
0.011203
0.00654364
0.00228321
0.00305713
0.00917031
0.0107812
0.00752643
0.00363975
0.000978519
0.00115061
0.000937894
0.0021795
0.00698934
0.00167285
0.00146437
0.00146607
0.00545583
0.00461061
0.00248743
0.00175459
0.00677949
0.0021074
0.000613818
0.00468664
0.00025293
0.00527689
0.00129728
0.00104749
0.00117484
0.00100541
0.00210414
0.00273341
0.00225018
0.00400517
0.00446741
0.00127372
0.00287181
0.0113237
0.00238121
0.00268465
0.00307129
0.00393371
0.00938779
0.000920211
0.00197526
0.00958421
0.00488625
0.00299716
0.00243011
0.00134914
0.00315338
0.0106837
0.00331968
0.00197754
0.00211823
0.00194013
0.00533614
0.00129043
0.016916
0.00215286
0.00138426
0.0012387
0.00215035
0.00493899
0.000691891
0.00131248
0.0030587
0.00574776
0.00249105
0.016333
0.00970043
0.00181642
0.0104505
0.00196451
0.00155248
0.00284947
0.000778826
0.00290737
0.0012787
0.0157726
0.0029905
0.00174486
0.000883417
0.00791358
0.0151285
0.00160482
0.00146095
0.0061035
0.0054873
0.0027081
0.00187129
0.00156803
0.00110315
0.00672652
0.00568476
0.00534258
0.0146681
0.0147125
0.00118615
0.00524198
0.000551357
0.00163794
0.00310433
0.0010548
0.00167758
0.00170163
0.00117024
0.00232067
0.00165427
0.00492511
0.000518431
0.00577981
0.0029545
0.001243
0.00330664
0.00308813
0.00422585
0.00121682
0.00147588
0.00111819
0.00574914
0.00674224
0.00128208
0.0021141
0.00153739
0.00172935
0.00134335
0.00255374
0.00214948
0.00521355
0.00460924
0.000318445
0.000701364
0.000539312
0.00367177
0.00134773
0.00117438
0.00574326
0.00702935
0.00258838
0.00158911
0.00110737
0.00474954
0.00473664
0.00488996
0.000965066
0.00649284
0.00398964
0.00371509
0.000360133
0.0047203
0.00735694
0.0147963
0.00467431
0.00752687
0.0059444
0.00350368
0.00374323
0.00629053
0.000700157
0.00444073
0.00684307
0.00467959
0.00401913
0.00575851
0.00447724
0.00720979
0.000675857
0.00260238
0.00482287
0.00667045
0.00353505
0.00418106
0.00720122
0.00621442
0.00530484
0.00387176
0.00475472
0.00297
0.000738898
0.00680384
0.00120217
0.00623353
0.00143022
0.00227431
0.00116307
0.000500583
0.00534474
0.00121201
0.00662224
0.00132216
0.00114349
0.00513691
0.00500937
0.00480038
0.00568086
0.00300509
0.00237686
0.000921171
0.00388822
0.000413239
0.00140111
0.00133767
0.00198956
0.000608201
0.00400153
0.000558906
0.0145803
0.0012869
0.00164754
0.00191803
0.00182995
0.00271952
0.00205913
0.0010596
0.00135272
0.00531504
0.00199001
0.000936832
0.00120295
0.00559085
0.00166667
0.000928582
0.00151813
0.00537252
0.00412512
0.00137012
0.00556113
0.00295417
0.00158638
0.0012957
0.000563454
0.0140151
0.000869388
0.00163412
0.00143879
0.00837113
0.00068435
0.00422994
0.00213154
0.00748771
0.00163081
0.00158855
0.00686585
0.00166495
0.000876488
0.00146314
0.00174745
0.000621937
0.000938298
0.00595036
0.00260758
0.00316534
0.0137369
0.0152115
0.000915333
0.000740444
0.00178097
0.00131818
0.00498927
0.000895309
0.00626594
0.00547002
0.00164524
0.00147128
0.00569572
0.00231597
0.00414766
0.00529324
0.0011669
0.00108253
0.00169242
0.00178573
0.000837982
0.00172213
0.00183857
0.00991665
0.00429534
0.00283065
0.00923975
0.00150773
0.00118895
0.00349967
0.00768887
0.00174744
0.00695704
0.00116307
0.000712208
0.0016798
0.00437196
0.00645598
0.00107538
0.00636792
0.00262784
0.00257802
0.0039664
0.00166902
0.00229358
0.00030961
0.00165166
0.00348332
0.0149225
0.000916219
0.00109215
0.00823145
0.000800052
0.000827778
0.011179
0.000318264
0.00156416
0.000943767
0.00188667
0.00169397
0.00622777
0.00363691
0.00635271
0.00733176
0.00293329
0.00310392
0.00138003
0.00661228
0.00394522
0.00025699
0.00025
0.000360861
0.000658181
0.000600226
0.00862644
0.00133995
0.000776552
0.00173204
0.00373757
0.00498121
0.00145644
0.000225287
0.0107862
0.00933121
0.00194162
0.00094076
0.0031047
0.00157736
0.00376028
0.00031199
0.00380762
0.0129815
0.000920298
0.00200806
0.00183371
0.00882839
0.00532782
0.00126049
0.00134659
0.0101236
0.00391248
0.0023184
0.00150394
0.00180198
0.000783899
0.000837181
0.00495408
0.00416892
0.00498951
0.00375096
0.0106224
0.00555061
0.00133742
0.00115802
0.00163207
0.0124419
0.0159093
0.0134259
0.0115807
0.0105944
0.00401642
0.00364619
0.00484752
0.00318272
0.00151049
0.0101079
0.0118505
0.0119268
0.00231732
0.010839
0.00570169
0.00619629
0.00492872
0.000582104
0.00430873
0.00107536
0.000689779
0.00177307
0.00461011
0.00469925
0.00441217
0.00516609
0.00764858
0.00115213
0.0137192
0.00680168
0.00661306
0.00374089
0.00156949
0.00130468
0.00113128
0.00120204
0.000841715
0.000722199
0.000743855
0.0097069
0.00240122
0.000792381
0.00129825
0.00331018
0.00349463
0.00406192
0.00180585
0.00630159
0.00344129
0.00151313
0.00465029
0.00564456
0.0013874
0.00159849
0.00166686
0.00022893
0.00393718
0.000564509
0.00109378
0.0133894
0.000860721
0.000900148
0.00157143
0.00578354
0.00105037
0.0035081
0.00862596
0.00215038
0.00170789
0.00474296
0.00445078
0.00398359
0.00749523
0.00164346
0.00944461
0.00446679
0.00585483
0.0136805
0.00947844
0.00171755
0.00281015
0.000910576
0.00564708
0.00687267
0.00217684
0.00178039
0.000810891
0.000741465
0.00104583
0.00158887
0.00572382
0.000825499
0.000856886
0.00700326
0.00505058
0.0042184
0.00268178
0.00130288
0.00783671
0.00666201
0.00187566
0.00162804
0.00230713
0.00336093
0.0141525
0.00456742
0.0122476
0.00130992
0.00334369
0.0022116
0.00637658
0.010759
0.0022357
0.00359563
0.00295851
0.00549316
0.00504817
0.00204376
0.000415736
0.000370104
0.00822062
0.00667611
0.00660753
0.00362973
0.00760426
0.00483992
0.000795904
0.00456544
0.00961505
0.00359344
0.00534968
0.00700116
0.00598939
0.00137383
0.000852928
0.00172855
0.014365
0.00155184
0.00855235
0.00143357
0.00070002
0.0104879
0.0013739
0.0017012
0.00904477
0.0138861
0.0132195
0.0147561
0.000443084
0.00107729
0.0037367
0.00672622
0.0119465
0.0126014
0.00244506
0.00585757
0.00242884
0.00104454
0.00347862
0.00218462
0.00777256
0.00645564
0.0139301
0.00368566
0.00107151
0.00860628
0.00411782
0.00502874
0.00183538
0.00333339
0.00813825
0.00122903
0.00228004
0.0047768
0.00813108
0.00944325
0.00132663
0.00247253
0.0102154
0.0010383
0.000757973
0.0017868
0.00767549
0.00895123
0.00373217
0.00243907
0.00101363
0.00123081
0.00667496
0.00160371
0.0085572
0.00783519
0.00412185
0.00559161
0.00354479
0.00182063
0.00632016
0.0121001
0.00440768
0.00168499
0.00250051
0.0010942
0.00105925
0.00265975
0.00144471
0.00232921
0.0137515
0.0133348
0.0136452
0.00989581
0.0135172
0.00194288
0.00619275
0.00148245
0.0103776
0.0210572
0.0121988
0.00819317
0.000740307
0.00178122
0.00791996
0.0106259
0.0102036
0.00603503
0.00269557
0.00462052
0.00176118
0.00275205
0.00067492
0.000270315
0.011495
0.00143732
0.00590902
0.000800088
0.00880831
0.0041648
0.00255425
0.0068364
0.00625237
0.00115656
0.00809979
0.0113245
0.00291508
0.000481162
0.010792
0.00569
0.00387264
0.00184499
0.00183185
0.000808312
0.00358061
0.0147966
0.0121587
0.00220871
0.00721986
0.0108207
0.00113193
0.00455644
0.00385011
0.00336918
0.000572047
0.00418187
0.0111483
0.0040802
0.00387018
0.00359206
0.014458
0.0084891
0.00100514
0.00115692
0.000928497
0.00301378
0.000797892
0.00634952
0.00333856
0.00954508
0.00156884
0.00166234
0.000921004
0.012764
0.0060982
0.0130409
0.00387406
0.000921245
0.00247653
0.00552396
0.00441072
0.000763149
0.0121057
0.00307539
0.00200285
0.00170679
0.000789836
0.0132136
0.00101059
0.0141143
0.00913341
0.000885678
0.00750262
0.000796017
0.0138101
0.0106343
0.000874295
0.00227157
0.00297415
0.0146398
0.000848185
0.000779892
0.000769795
0.00258825
0.000783509
0.00158365
0.00869664
0.00522788
0.00726534
0.00296027
0.00654486
0.00101756
0.0128504
0.00891426
0.00147898
0.000739088
0.00399547
0.00881882
0.000193148
0.000168448
0.000251679
0.0147688
0.00209528
0.0160323
0.00473219
0.00432679
0.0091373
0.0129103
0.00188653
0.00331539
0.00663534
0.00500482
0.00256234
0.00460178
0.00184883
0.0112314
0.00133597
0.00114052
0.000810698
0.0017359
0.00258198
0.00208607
0.00394909
0.00294997
0.00207793
0.0132777
0.00604064
0.00709887
0.00581569
0.00174033
0.00131248
0.00314567
0.00224731
0.0133139
0.00550284
0.0145736
0.00745594
0.00146743
0.000918244
0.00161408
0.00343899
0.00127204
0.00666416
0.00208188
0.00114325
0.0025458
0.00953871
0.0037348
0.0139255
0.00172452
0.00955562
0.0039875
0.00302607
0.00172298
0.00594696
0.00406417
0.00347953
0.00122511
0.00430536
0.00613027
0.00171467
0.00133
0.0145441
0.0116907
0.00608769
0.00584957
0.00647395
0.0218679
0.0148835
0.00165972
0.00215406
0.00368225
0.00194059
0.00376925
0.0112938
0.012974
0.000744203
0.00892695
0.00185531
0.00276639
0.00184205
0.00422148
0.00260983
0.00466735
0.000516592
0.00761693
0.00563554
0.00113744
0.00227461
0.00462294
0.00637552
0.00360606
0.00260263
0.000448418
0.00214275
0.0114209
0.00695831
0.0038889
0.00218151
0.00581615
0.000940255
0.00069759
0.00131562
0.00150324
0.00106698
0.00169616
0.00136667
0.00180736
0.0160134
0.000463929
0.00141808
0.00221492
0.000934685
0.00642309
0.00135331
0.000881503
0.00139274
0.00432386
0.00237918
0.00099987
0.0012573
0.000511896
0.00157936
0.000847841
0.00140256
0.00702725
0.00399125
0.000804499
0.00595357
0.00141349
0.00365979
0.0100214
0.00637827
0.00642617
0.000932523
0.00235668
0.000197378
0.000352717
0.0020479
0.0143369
0.00199806
0.0142421
0.00478945
0.00182435
0.00787219
0.00194859
0.000805333
0.00225818
0.00506979
0.00477305
0.00711525
0.00131026
0.000894932
0.00157903
0.000732513
0.00138611
0.0125706
0.0018288
0.00101589
0.00615926
0.000443044
0.00506893
0.00343185
0.00109011
0.00160776
0.00983042
0.0105357
0.0131665
0.0105066
0.00226773
0.000937696
0.00420173
0.0129083
0.00584376
0.00766299
0.00450397
0.00707822
0.0013379
0.000806462
0.000783853
0.00741222
0.00476531
0.0018458
0.00188566
0.000767417
0.00173232
0.00627838
0.00306644
0.00274518
0.00780667
0.0172668
0.0168158
0.00107411
0.0138936
0.00121231
0.0124887
0.00432227
0.00658117
0.00149823
0.00523076
0.00182869
0.00640482
0.0134641
0.0125265
0.00123161
0.00125275
0.000961288
0.0025136
0.00038855
0.00141193
0.00183917
0.00272672
0.00719528
0.00618529
0.00179639
0.000593499
0.0132464
0.00076627
0.00113208
0.0089153
0.0134377
0.00713235
0.00162005
0.00689404
0.00445543
0.000820406
0.000841094
0.00379799
0.00170654
0.0119133
0.00120615
0.00738003
0.00483334
0.00143882
0.00659639
0.00113873
0.000748478
0.000812889
0.000328681
0.00024393
0.0020805
0.000957119
0.00108238
0.000827555
0.000219178
0.00017296
0.000249724
0.0145941
0.0148976
0.000848097
0.00692931
0.00240904
0.00525331
0.00726192
0.00602115
0.00476069
0.0128408
0.0112274
0.00639804
0.00424689
0.0041542
0.00927755
0.00296466
0.000843415
0.00118605
0.0014368
0.00069188