/*--------------------------------*- C++ -*----------------------------------*\
| =========                 |                                                 |
| \\      /  F ield         | OpenFOAM: The Open Source CFD Toolbox           |
|  \\    /   O peration     | Version:  v1912                                 |
|   \\  /    A nd           | Website:  www.openfoam.com                      |
|    \\/     M anipulation  |                                                 |
\*---------------------------------------------------------------------------*/
FoamFile
{
    version     2.0;
    format      ascii;
    class       volScalarField;
    location    "0.46";
    object      epsilon;
}
// * * * * * * * * * * * * * * * * * * * * * * * * * * * * * * * * * * * * * //

dimensions      [0 2 -3 0 0 0 0];


internalField   nonuniform List<scalar> 
1466
(
21.2235
35.2069
14.6958
89.5032
7.15881
21.6962
21.0048
55.2995
9.18337
45.1921
59.4267
41.8216
5.82381
6.52263
25.7103
79.4633
34.7497
95.9768
108.034
66.9178
105.47
64.7436
80.3948
56.5997
7.26369
9.90237
43.5178
82.1369
7.93987
49.4529
68.7502
11.0351
17.9856
90.1664
121.732
75.6397
77.9654
45.1342
76.2131
8.90647
22.394
60.4394
74.502
27.3445
8.15781
31.3159
79.9804
4.69203
49.7215
8.65688
16.5213
44.5658
28.276
5.45602
24.8364
6.68066
28.0832
64.3417
15.3177
53.6072
20.3329
26.6607
5.63229
29.0353
72.8086
40.7585
150.384
64.375
32.8017
15.627
57.4427
143.891
95.4982
6.82315
16.7
79.1525
25.7565
4.90622
7.66947
69.57
55.0082
73.9335
15.6849
79.3134
96.4956
136.264
90.7606
72.8261
61.3101
40.6579
12.9564
45.9767
117.231
18.4163
25.3944
18.1049
32.9834
72.3931
8.47487
6.11145
22.6093
11.0426
4.26128
77.8659
85.2679
78.9842
37.0119
5.23836
77.9021
23.915
15.9981
96.3221
22.2113
65.7665
54.2956
22.0198
49.9753
40.1025
21.0076
10.6396
98.7695
29.7358
3.72254
31.948
8.02798
71.9799
42.3681
77.0933
55.7897
30.9242
71.0234
54.3387
79.2531
55.8909
14.9771
24.3242
8.84555
33.7653
20.3062
8.18132
13.0804
89.8116
73.3711
73.2172
69.6532
153.993
10.9343
16.8209
48.8002
88.4417
14.9548
32.2364
37.5688
15.7814
37.6548
62.8871
73.4986
85.2893
11.3115
44.207
10.2666
56.1827
120.264
83.1374
102.615
83.5438
66.4652
86.9896
92.6504
37.1513
99.7687
7.91811
5.77104
34.021
29.7396
7.37464
41.2972
59.6764
13.8783
75.1443
8.72784
27.8568
123.242
3.84756
75.1177
138.16
99.3213
46.6525
34.7085
19.4796
109.313
26.293
122.544
163.924
40.6818
18.4473
15.2472
149.32
112.837
174.505
77.8037
39.4497
45.6355
31.933
43.3829
93.179
122.49
26.9092
10.9787
62.6538
94.4057
90.8338
123.139
91.7198
110.089
80.8987
137.486
99.4314
52.9002
61.7111
83.0358
23.4474
85.0588
22.4357
88.581
78.968
58.5816
4.55228
13.9087
22.5145
44.2683
80.0879
178.023
136.007
14.0874
71.5828
70.5087
80.4925
19.5649
106.772
49.2199
68.2788
37.8822
186.748
15.7704
51.4158
10.8507
6.80769
69.5548
33.0419
125.665
78.9318
24.0411
49.813
7.76553
15.447
73.5282
11.4941
112.15
114.452
89.8099
77.653
55.4921
22.2122
61.4739
5.37002
38.4264
42.3345
96.5672
11.2422
147.26
133.295
56.2298
11.4672
14.0818
26.8699
17.9897
55.6305
98.352
54.1889
19.31
59.484
74.2129
62.5304
66.0912
6.08408
53.8858
50.126
4.75057
19.0782
22.4062
23.6555
7.41151
3.38858
43.8087
36.8824
215.507
11.4687
55.5189
19.3395
4.27674
33.2977
7.16365
8.11276
89.1156
6.00939
28.1327
22.0937
36.0436
123.128
30.2662
105.18
66.7417
33.6356
48.4612
41.9433
104.262
31.139
16.0334
28.2325
36.5811
164.221
105.975
16.8492
89.3654
15.9948
6.60914
31.9929
14.0935
31.767
72.2735
17.2793
16.3344
34.1063
88.7107
15.5914
98.5931
18.116
26.8442
25.5699
4.77333
30.0006
31.3224
65.7315
38.3599
8.24573
60.525
39.5615
38.6311
88.7035
29.6741
12.6251
59.5443
111.32
79.2352
105.647
100.832
19.4539
7.81451
38.8577
86.3954
92.539
66.2715
47.7432
17.9948
180.683
26.6609
25.7511
65.3756
37.2881
33.0537
108.893
99.8681
29.4535
18.7276
74.6936
51.4379
102.539
23.8774
54.9909
76.5256
51.6271
77.8526
75.2473
41.6063
46.8068
24.2595
23.4769
19.9402
13.526
14.4318
26.8203
48.452
27.883
34.1754
17.2384
6.84843
100.711
24.7477
41.3149
4.08416
3.87694
66.5874
10.5519
44.935
99.478
80.8231
27.5484
121.727
109.524
24.7804
94.2762
114.575
107.824
68.4695
11.5157
8.80877
46.2235
32.1312
31.4242
79.8404
81.8023
31.9065
121.994
33.5334
7.37258
55.9448
94.5754
29.0873
10.0463
52.6556
17.3044
90.572
209.542
31.876
23.9639
7.57286
12.641
4.44529
47.1358
4.59594
10.5028
51.9114
4.72823
27.8607
35.8732
26.0978
33.7658
30.4784
59.071
34.3651
25.2266
5.89201
11.1723
20.8648
10.0903
17.452
36.3835
7.28782
30.2594
19.3975
10.927
18.7103
70.2563
51.6882
29.8983
21.3265
8.47385
12.3269
23.1858
8.46794
29.6138
51.8537
2.75716
29.8079
27.5304
3.99793
59.5799
123.252
59.1727
34.0676
105.768
89.3382
113.447
87.7249
21.9539
25.2992
4.21272
120.874
70.768
98.0182
79.6282
25.056
21.5221
31.6381
31.7762
55.0935
37.7991
41.2204
64.5178
70.5664
96.7778
58.3361
83.7119
12.2372
72.2946
62.6217
35.303
26.1648
39.9458
25.796
75.7824
37.304
163.354
53.8793
55.6185
11.1027
9.98431
19.5728
39.9323
63.6443
14.444
134.215
26.1218
65.4831
11.8756
11.7543
63.7044
12.5873
104.721
11.7387
190.309
114.02
28.8166
36.7762
9.92276
32.6279
70.7578
15.7561
99.0409
20.4912
90.9567
22.3861
37.0377
16.1575
29.3475
22.6479
22.6878
117.776
32.6037
84.5313
26.3814
4.71447
36.1925
173.928
45.187
41.1067
59.97
56.0044
16.6536
99.1555
96.6726
23.5701
36.5918
15.0369
35.4893
24.2832
132.357
73.9989
94.3707
93.3624
131.079
25.1174
49.9117
20.1908
108.338
12.3817
75.3124
38.4619
71.035
46.166
92.7144
54.2149
63.0046
77.3094
36.244
101.714
8.4464
32.4894
46.7292
91.2946
24.9374
54.7043
54.3662
124.508
78.099
71.1027
53.6483
28.8803
63.8925
40.4478
13.5537
14.6123
28.4646
196.537
63.1972
27.5737
2.42743
38.9284
95.9182
16.8526
113.43
21.4629
35.0495
112.038
30.8449
51.1889
26.1603
24.1757
104.037
27.7664
11.8436
23.4305
18.906
38.6742
57.2193
233.295
62.0011
76.3228
75.7957
72.6801
21.9811
24.8407
15.805
78.0471
11.5518
93.3831
74.278
47.0459
83.1274
124.769
78.9312
55.2592
24.1268
111.276
13.7053
62.5193
104.841
55.9564
27.1467
84.0203
10.9808
32.5181
16.9253
120.009
109.057
24.6147
189.695
14.3379
5.97593
137.9
89.9909
13.3081
13.71
101.835
28.4624
110.387
35.3227
53.8298
19.999
25.8731
16.4012
58.6306
8.13511
54.3924
5.10302
35.2695
7.18184
24.9889
18.3751
77.8712
22.933
10.9215
145.193
17.4969
112.969
24.7225
7.75064
41.8615
10.8369
116.171
17.8825
15.3455
59.3337
18.629
7.35491
49.0629
76.2107
26.6814
58.8481
118.532
21.7748
8.91706
14.3512
93.2515
75.9144
26.7299
13.2623
7.54227
86.6991
18.9856
129.741
19.5744
64.0455
127.414
97.0507
47.2669
79.3651
76.7614
56.3208
68.6019
99.7783
148.481
58.435
211.611
108.324
80.9357
13.2614
42.9621
9.1902
66.8741
119.726
66.4938
8.55905
128.92
79.7318
118.128
82.2174
8.06555
109.921
77.3561
52.904
97.6159
5.82727
11.4382
24.8415
31.3989
22.583
26.2375
47.0367
78.7488
66.4034
10.9147
6.58629
114.376
106.534
149.711
84.0911
13.7667
103.389
93.7496
9.10569
29.3096
43.5959
141.732
44.6513
75.7064
113.09
69.7753
128.809
26.0632
11.575
3.6943
35.9682
58.8346
110.363
39.003
15.6198
26.0783
110.233
22.2352
23.0473
84.7642
34.3485
94.0496
9.63382
38.2872
65.882
81.6192
35.7979
53.1152
100.662
100.407
10.2385
31.7682
15.6653
108.829
59.7995
15.05
6.5752
25.7227
62.684
101.761
19.0715
37.6332
5.07306
14.3882
13.6208
62.1689
85.6384
121.39
53.5476
74.7315
52.1908
34.5177
17.7235
82.202
80.6899
14.3118
90.7667
94.4623
83.3893
15.3899
60.1019
4.83117
41.067
89.8527
12.3559
17.3265
73.0467
70.1954
84.7703
16.9152
120.616
26.4408
24.7995
15.1828
13.1962
13.1422
17.9201
24.6784
111.486
97.8075
22.5193
81.8622
76.6147
32.771
97.5885
35.5769
63.7669
89.2737
59.1728
95.8928
21.6484
52.0061
24.1021
66.6666
22.6196
61.0969
96.3094
128.878
91.8649
10.0444
28.076
9.88326
38.211
104.487
264.224
30.4988
33.1209
56.5289
9.40874
54.5911
11.2023
130.57
15.2159
99.6498
101.486
111.413
96.4126
127.709
123.841
121.949
128.343
157.754
163.674
183.304
162.366
159.198
159.871
160.384
149.895
208.362
126.828
142.316
234.889
251.692
164.083
228.724
158.949
154.614
146.749
94.0044
94.083
6.16389
9.77844
58.1168
13.5826
12.1195
18.824
5.20911
25.1381
120.638
72.5099
110.714
20.7829
30.081
11.6269
46.9244
16.7455
55.1931
25.6692
116.435
34.9612
43.6354
129.814
73.9642
137.526
24.2827
4.68938
7.99874
9.16315
7.54495
38.4651
48.3519
53.7734
98.124
17.2768
9.40981
29.0539
20.6798
12.3289
24.3585
106.651
28.3185
6.73994
30.0848
94.556
40.6931
14.9817
52.6257
43.1416
66.3508
80.3355
119.32
68.0837
9.65626
55.5347
98.5287
44.7483
129.553
34.9145
135.632
34.4302
82.0131
123.112
3.43683
50.5511
28.0084
61.0236
6.59599
99.0863
70.3437
98.3536
29.4263
28.8063
30.3565
79.3129
32.0331
12.9119
19.4615
85.511
125.079
96.7422
20.356
135.805
115.38
27.5916
127.352
71.8913
11.4293
3.00469
34.3437
53.1485
122.856
200.443
61.0878
65.0836
5.9133
13.9759
69.9372
50.8071
82.3598
12.7724
67.6506
29.5894
8.2471
2.89791
37.1663
7.76324
42.4315
78.9835
4.9638
10.7276
132.656
11.1071
78.7063
20.1468
52.7009
116.726
99.6488
133.989
82.0981
98.3827
98.2434
96.6159
80.3964
85.153
58.8665
3.95612
38.2052
116.832
34.6739
9.3174
23.0687
64.2327
33.2519
12.85
64.2583
7.42649
36.9691
38.9781
24.6632
6.12976
37.3486
15.1644
25.2393
14.6926
47.0373
124.191
27.5124
3.97653
10.6266
91.568
38.3833
18.043
26.7069
118.918
13.8938
24.5582
13.06
7.40987
28.4245
39.932
7.42116
104.309
97.6004
32.2508
3.70087
2.97868
57.8703
49.9834
12.6277
9.07566
12.8073
23.1025
6.80836
13.1368
12.9752
24.8643
4.43375
8.13081
131.92
13.5521
13.7566
13.6977
13.9316
40.2732
44.3046
10.8213
11.2054
12.4045
12.924
64.2456
95.1462
59.601
27.6361
20.0518
99.2366
116.062
33.1484
109.891
88.3197
60.058
34.8695
6.07753
12.556
110.02
60.6651
129.611
64.2143
8.16189
129.762
41.4376
47.1031
60.2025
118.467
95.359
116.558
8.86021
87.9776
33.6324
104.328
97.3892
138.792
6.80919
21.5498
14.4972
61.6663
41.7768
61.7987
70.8528
52.9883
21.0001
10.3668
38.2763
37.462
81.0561
92.4857
117.099
111.742
13.6956
3.36544
30.2218
51.7202
43.6969
21.6773
14.4285
20.9509
39.2142
99.2236
47.6019
56.4524
102.736
7.62853
13.6637
22.4705
60.5471
35.1749
114.633
22.2057
83.4943
126.503
95.9144
87.2211
128.977
35.5724
90.8589
88.5595
4.88673
37.6484
43.4726
23.7238
29.9921
5.84405
75.4323
64.6702
75.7654
102.436
110.098
132.604
38.0611
30.8448
79.0197
70.5404
98.0913
110.2
23.5587
8.70171
46.0296
60.3588
8.77094
92.4785
35.2056
43.4934
50.089
42.714
20.2318
16.1934
11.0254
53.7236
8.19079
18.9201
39.4246
35.3551
23.0335
222.241
6.63648
12.3286
21.2326
15.9119
8.37635
38.7132
24.4282
4.24898
6.18638
51.2478
64.4194
121.03
105.201
104.364
13.3621
64.835
6.64501
77.9131
50.3667
3.21161
47.3381
46.1321
79.3571
78.2133
63.8312
67.796
97.0415
22.1752
6.89697
102.306
16.0946
4.00849
32.4581
6.95892
89.5197
12.2223
114.291
8.79474
131.977
49.2853
3.81342
123.535
28.9965
7.0362
89.3315
83.7172
38.2323
74.1564
40.1595
103.039
45.5163
85.9203
9.3681
35.3293
31.5732
106.224
40.4892
116.288
141.641
60.228
156.332
161.074
146.872
7.16548
29.8877
50.1988
10.3573
110.961
16.1351
66.5513
98.1011
29.0843
115.832
61.5251
6.14303
37.7444
30.6078
7.76471
38.4384
22.8438
16.9779
29.2796
203.678
118.245
71.7115
80.7519
9.87665
23.2099
108.05
69.9519
67.5126
63.9207
69.1866
75.7959
136.397
55.5255
49.8064
108.77
6.44095
66.7907
115.776
90.1075
24.2373
24.0555
4.69149
24.654
4.71912
33.8797
22.2201
92.3306
8.52394
13.4849
46.1674
27.9619
74.2013
104.863
89.172
5.76496
87.2193
42.2155
6.69483
7.69717
11.7795
10.2109
193.619
11.8934
100.745
12.9402
34.4174
12.8052
6.82409
96.5467
7.17047
10.8662
69.2383
11.0967
93.5123
84.3618
112.978
58.0222
40.6435
24.5142
22.448
53.3692
14.5538
30.9995
97.0882
5.57082
57.6013
70.9325
30.7911
64.2868
50.2565
121.073
22.0887
45.3462
12.8739
49.8064
103.109
36.625
9.52202
8.85048
16.1461
12.0337
95.3374
76.1301
40.4785
47.7117
145.536
25.2548
96.7591
56.1011
63.7931
57.9078
24.1133
67.7976
94.4543
13.2621
34.5339
93.3583
17.8032
137.285
38.7079
72.4599
125.388
71.3666
101.455
97.2819
92.7712
94.1211
4.99077
21.9452
10.53
4.37573
26.6087
9.44407
62.7824
31.1798
75.1956
55.9199
109.798
75.2991
110.847
11.0655
119.269
93.4991
36.0737
14.8672
123.642
42.0021
25.208
24.8983
68.8748
33.9769
162.58
30.6814
22.4462
10.5804
10.2505
64.9089
73.7914
56.9007
13.7175
174.91
70.2816
46.8171
136.145
7.75563
49.5462
80.3238
66.0713
10.0273
23.8944
50.5553
10.3115
51.4525
150.315
36.732
12.5914
45.0287
154.289
61.7585
64.9675
36.1916
69.2237
10.3279
7.67647
6.89237
24.0614
34.6827
8.2685
109.128
7.35051
5.96019
112.56
19.4846
64.5053
29.5006
22.9423
)
;

boundaryField
{
    frontAndBack
    {
        type            empty;
    }
    wallOuter
    {
        lowReCorrection 0;
        type            epsilonWallFunction;
        value           nonuniform List<scalar> 
108
(
95.9768
143.891
95.4982
7.16365
8.24573
17.4969
24.7225
7.75064
10.8369
18.629
7.35491
26.6814
21.7748
8.91706
7.54227
9.1902
118.128
31.3989
22.583
15.6198
14.3882
121.39
13.1962
32.771
101.486
111.413
96.4126
127.709
123.841
121.949
128.343
157.754
163.674
183.304
162.366
159.198
159.871
160.384
149.895
208.362
126.828
142.316
234.889
251.692
164.083
228.724
158.949
154.614
146.749
94.0044
9.77844
30.081
137.526
9.16315
94.556
135.632
34.4302
135.805
67.6506
10.7276
99.6488
96.6159
80.3964
38.9781
37.3486
14.6926
38.3833
28.4245
39.932
97.6004
2.97868
2.97868
12.6277
12.8073
13.1368
12.9752
131.92
13.5521
13.7566
13.6977
13.9316
40.2732
44.3046
10.8213
11.2054
12.4045
12.924
64.2456
109.891
88.3197
8.16189
60.2025
97.3892
138.792
47.6019
56.4524
126.503
95.9144
64.4194
10.3573
108.05
63.9207
13.4849
42.2155
11.8934
8.85048
16.1461
145.536
)
;
    }
    inlet
    {
        type            fixedValue;
        value           nonuniform 0();
    }
    outlet
    {
        type            zeroGradient;
    }
    wallInner
    {
        lowReCorrection 0;
        type            epsilonWallFunction;
        value           nonuniform List<scalar> 
126
(
45.1342
76.2131
8.90647
22.394
60.4394
74.502
27.3445
8.15781
31.3159
79.9804
4.69203
49.7215
8.65688
16.5213
44.5658
28.276
5.45602
24.8364
6.68066
28.0832
64.3417
15.3177
53.6072
7.66947
18.1049
32.9834
72.3931
8.47487
6.11145
22.6093
11.0426
4.26128
77.8659
85.2679
78.9842
37.0119
5.23836
77.9021
23.915
65.7665
54.2956
31.948
8.02798
71.0234
54.3387
24.3242
8.84555
33.7653
13.0804
120.264
29.7396
15.2472
112.15
114.452
89.8099
5.37002
38.4264
147.26
133.295
56.2298
23.6555
3.38858
36.8824
215.507
36.5811
164.221
105.975
19.4539
65.3756
99.8681
102.539
100.711
41.3149
94.5754
90.572
209.542
23.9639
12.641
10.5028
5.89201
10.0903
7.28782
163.354
190.309
173.928
233.295
189.695
211.611
38.211
264.224
133.989
84.3618
53.3692
174.91
46.8171
136.145
7.75563
49.5462
80.3238
10.0273
23.8944
50.5553
10.3115
51.4525
150.315
36.732
12.5914
45.0287
154.289
61.7585
64.9675
36.1916
69.2237
10.3279
7.67647
6.89237
24.0614
34.6827
8.2685
109.128
7.35051
5.96019
112.56
19.4846
64.5053
29.5006
)
;
    }
    procBoundary1to0
    {
        type            processor;
        value           nonuniform List<scalar> 
29
(
12.438
12.438
18.2435
18.5841
42.8819
38.8223
124.716
41.2759
78.0119
21.1027
27.8979
38.8223
18.2435
9.97943
65.3127
21.4292
42.8819
52.6313
18.5841
13.7575
10.7178
6.14303
62.1938
10.645
10.645
62.1938
7.27725
76.3071
7.27725
)
;
    }
    procBoundary1to2
    {
        type            processor;
        value           uniform 11.1251;
    }
    procBoundary1to3
    {
        type            processor;
        value           nonuniform List<scalar> 
48
(
72.2266
83.666
87.0755
87.0755
63.3878
93.7533
93.7533
5.05384
47.2623
15.9777
10.2846
15.9777
13.3638
5.51136
7.13935
13.3638
5.9367
5.9367
4.42226
4.42226
3.51779
3.65215
3.56733
40.52
40.52
2.59775
3.91744
3.91744
4.22813
43.0358
9.43336
4.22813
5.05384
35.049
2.40772
43.0358
10.4823
10.2846
62.8659
50.9559
3.9682
22.7182
35.049
2.40772
8.94372
80.9298
57.7855
3.9682
)
;
    }
}


// ************************************************************************* //
