/*--------------------------------*- C++ -*----------------------------------*\
| =========                 |                                                 |
| \\      /  F ield         | OpenFOAM: The Open Source CFD Toolbox           |
|  \\    /   O peration     | Version:  v1912                                 |
|   \\  /    A nd           | Website:  www.openfoam.com                      |
|    \\/     M anipulation  |                                                 |
\*---------------------------------------------------------------------------*/
FoamFile
{
    version     2.0;
    format      ascii;
    class       volScalarField;
    location    "0.57";
    object      nut;
}
// * * * * * * * * * * * * * * * * * * * * * * * * * * * * * * * * * * * * * //

dimensions      [0 2 -1 0 0 0 0];


internalField   nonuniform List<scalar> 
1466
(
0.00122869
0.00202519
0.00153509
0.00357793
0.00143897
0.00234096
0.00348434
0.00179778
0.000748083
0.00224481
0.00292431
0.00220981
0.000743451
0.00183955
0.00555144
0.00605197
0.00172952
0.00100494
0.00495368
0.00317682
0.00523783
0.0080167
0.0039101
0.00298348
0.000769434
0.00414283
0.00506725
0.00387221
0.000949689
0.00378546
0.00331941
0.00385124
0.00208379
0.0112569
0.00309706
0.00206852
0.0128277
0.00158471
0.00211391
0.00118103
0.00126433
0.00191703
0.00183547
0.00110295
0.000855037
0.00113335
0.00187726
0.000685722
0.00146661
0.000791269
0.00107979
0.00165331
0.00164261
0.00106983
0.000993617
0.00101461
0.000961525
0.00207512
0.000803623
0.00196442
0.00579758
0.00426697
0.00377445
0.00350497
0.00544584
0.00214696
0.00815698
0.00349886
0.00224043
0.00107391
0.00760615
0.00112138
0.000881633
0.000922854
0.00379091
0.00275289
0.00394927
0.00352102
0.00127844
0.00382006
0.0028065
0.00493474
0.00149309
0.00320857
0.00501228
0.00520758
0.0084927
0.00320892
0.00245475
0.00273801
0.00510677
0.00454318
0.00381652
0.00226108
0.00204442
0.00128429
0.00185744
0.00177956
0.00082501
0.000988895
0.00144727
0.000889697
0.000597545
0.00162796
0.0021332
0.00182901
0.00141689
0.000847786
0.00185531
0.00105359
0.00579623
0.00313838
0.00320036
0.00170588
0.00151008
0.0065734
0.00297095
0.0016047
0.00279503
0.00310124
0.00591822
0.00353494
0.00318105
0.00117599
0.000813529
0.00162309
0.00280853
0.0040383
0.00316465
0.00442771
0.00171763
0.00191714
0.00344704
0.00275744
0.005316
0.00116868
0.00116299
0.00110905
0.00178843
0.00198174
0.00101932
0.00443574
0.00460143
0.00448187
0.00773417
0.00702365
0.00388436
0.00525556
0.00450012
0.00306173
0.00541391
0.00341458
0.00257662
0.00210237
0.00489092
0.00801205
0.00353007
0.0063144
0.00442936
0.00210616
0.00385948
0.00352624
0.00143527
0.00454114
0.00778998
0.00318966
0.004156
0.00481776
0.00504945
0.00317745
0.00533074
0.0027576
0.000873784
0.00237746
0.00102782
0.000876465
0.00346882
0.00424509
0.00558816
0.00609929
0.000878889
0.00394419
0.00514332
0.000640785
0.00314536
0.00546631
0.00523722
0.0027468
0.00222451
0.00155788
0.00564992
0.00508624
0.00344349
0.00792304
0.00190862
0.00632981
0.000758629
0.00327331
0.00688319
0.00756472
0.00262448
0.00444759
0.00327502
0.00624842
0.00766483
0.00805079
0.00620733
0.00237991
0.00441357
0.00316149
0.00454533
0.00458477
0.00456104
0.0049185
0.00573094
0.00459006
0.00569881
0.00564955
0.00342436
0.00380897
0.00454929
0.00648568
0.00474175
0.00672794
0.00492158
0.00571911
0.00662902
0.000951703
0.00562321
0.00643647
0.00559855
0.00321615
0.00851126
0.00932702
0.0029702
0.008103
0.00446073
0.00473102
0.00455072
0.00555707
0.00240419
0.00370046
0.00312354
0.00743182
0.00389463
0.00328134
0.00380138
0.000915731
0.00402557
0.00286214
0.00576237
0.00587737
0.00222136
0.00285463
0.00296034
0.00552216
0.00306219
0.00109592
0.00129446
0.00189764
0.00123133
0.00318988
0.00264985
0.00622922
0.00339542
0.000558038
0.0009297
0.00477678
0.00517259
0.00128205
0.00163518
0.00137425
0.0010647
0.00420517
0.00513916
0.00693975
0.00619631
0.0040704
0.00520245
0.00438018
0.00597606
0.00514967
0.0047966
0.0033007
0.00785885
0.00154155
0.00479179
0.00488323
0.000863358
0.00183232
0.00187344
0.000886483
0.000810865
0.000806827
0.00321341
0.00102019
0.00154088
0.0017366
0.0045327
0.00608925
0.00167308
0.00643339
0.000492069
0.000897936
0.00644726
0.00608985
0.00725646
0.00146189
0.00292277
0.00818401
0.00239682
0.00550852
0.0037395
0.00462495
0.00440375
0.00367809
0.00892673
0.00294226
0.00125439
0.00567267
0.000939593
0.00145372
0.00148145
0.00579548
0.00609923
0.00161131
0.00163801
0.00292213
0.00542644
0.00523428
0.00385324
0.00171045
0.00202424
0.00290744
0.00518234
0.000855002
0.00533662
0.00475634
0.00837759
0.0031713
0.00262078
0.00251998
0.00169038
0.00375093
0.00343052
0.000445043
0.00314512
0.0029801
0.00229411
0.00476717
0.00171461
0.000925515
0.00317109
0.00701326
0.00956998
0.00690112
0.00311978
0.000629647
0.00106541
0.00296493
0.00892027
0.00622967
0.00484398
0.0085204
0.0011559
0.00917772
0.0022563
0.00217647
0.00113404
0.00320071
0.00289189
0.00756577
0.0014554
0.00277535
0.0018306
0.014032
0.00363708
0.00145178
0.00221566
0.00346365
0.0120462
0.012746
0.012433
0.0128652
0.0138673
0.0133021
0.00178439
0.00181876
0.00161171
0.0013451
0.0074701
0.0133872
0.00975806
0.0134886
0.00942315
0.00471333
0.00138644
0.001491
0.0084943
0.000892
0.00173807
0.00158607
0.00277234
0.00192885
0.00289699
0.0111422
0.00272219
0.00298342
0.00913679
0.0094439
0.00473699
0.00302821
0.0031429
0.0105224
0.00329706
0.00204894
0.00176495
0.00300396
0.00553549
0.00534847
0.00956729
0.0103205
0.00566622
0.00290354
0.00592759
0.0039454
0.00781071
0.001492
0.0051427
0.00416385
0.00641767
0.00676618
0.00157516
0.0017037
0.0048369
0.000755323
0.00149238
0.000891932
0.00156138
0.0067163
0.00203695
0.000852307
0.00630847
0.00156062
0.00558034
0.00432648
0.00141511
0.00521645
0.00308107
0.00507761
0.00547218
0.00200417
0.00104741
0.000916163
0.0111894
0.000947763
0.00194408
0.00156605
0.000981071
0.00585799
0.00190359
0.0075095
0.00172353
0.00225807
0.00500696
0.00226372
0.0137457
0.00738182
0.00735208
0.0131654
0.00719738
0.00177308
0.0061327
0.00126301
0.0062939
0.00263593
0.00251077
0.00778315
0.0103687
0.00561086
0.00312678
0.00375709
0.00501524
0.0100366
0.00848029
0.00210079
0.00324982
0.00263284
0.00842623
0.00520313
0.00916183
0.0036838
0.00177391
0.0142627
0.00531515
0.0150284
0.0152697
0.0144697
0.00386978
0.0101928
0.0133041
0.0123121
0.00202428
0.00731623
0.00135156
0.0093319
0.00345797
0.00622451
0.00330139
0.0156907
0.00574577
0.00792158
0.00739209
0.00163669
0.0155447
0.00942105
0.0109446
0.00090175
0.0014352
0.0017803
0.0140315
0.0085565
0.0101308
0.0024051
0.00766008
0.0123197
0.0100969
0.00446682
0.0128432
0.00982356
0.00143912
0.00170089
0.00856428
0.0149104
0.0153249
0.0105835
0.00243789
0.00364977
0.0111756
0.00413278
0.00197257
0.00781393
0.00129234
0.00864508
0.0132299
0.0025057
0.013463
0.00184164
0.00847607
0.00662638
0.00735641
0.00519616
0.0034364
0.0149661
0.00168185
0.0157169
0.0157804
0.0105516
0.00192795
0.0015716
0.00979174
0.00995826
0.00594667
0.00294549
0.00126338
0.00931883
0.0146597
0.0101847
0.00377181
0.0124105
0.00627486
0.0102312
0.00455402
0.00428522
0.00282426
0.00576684
0.00095024
0.0138676
0.0155557
0.00371142
0.00497672
0.0123708
0.0151757
0.00876756
0.0112723
0.00484696
0.00586221
0.00108686
0.0151008
0.0101821
0.00844669
0.00216218
0.00840825
0.0149336
0.0064469
0.00464349
0.00455559
0.00290616
0.00279528
0.00528381
0.00364507
0.00135338
0.0011918
0.00261299
0.00925982
0.00889168
0.00587937
0.00133336
0.00582229
0.0120322
0.00377899
0.00344866
0.00195913
0.00227508
0.0036102
0.00280683
0.00410067
0.00232687
0.00199649
0.00579602
0.00246867
0.00153749
0.00589407
0.00146671
0.00203217
0.0145518
0.00172512
0.00906861
0.00970831
0.0139713
0.00670799
0.00200694
0.00208142
0.00126076
0.0135152
0.00131824
0.00567152
0.00572099
0.00487466
0.00367213
0.00876602
0.00331266
0.00293011
0.0067814
0.011022
0.0013277
0.0087083
0.0100882
0.00286713
0.00236774
0.0130199
0.00103843
0.00406637
0.00195361
0.0105677
0.0110311
0.00648967
0.00154426
0.00548696
0.000931311
0.010077
0.00337013
0.00146477
0.00141684
0.00956586
0.00392007
0.00262324
0.0048884
0.00378819
0.00427944
0.00132713
0.00496397
0.00499557
0.000999031
0.00550015
0.00176
0.00661416
0.00246351
0.00264314
0.00175372
0.00382621
0.00198259
0.00299371
0.00916425
0.000619284
0.00757524
0.000705502
0.000451804
0.00341163
0.000478289
0.0100382
0.00171204
0.00157872
0.00252726
0.000673644
0.000455214
0.00271296
0.00727278
0.000703398
0.00821238
0.00959074
0.000712139
0.00045776
0.00541251
0.0117235
0.0105644
0.00489465
0.00367439
0.000469106
0.0114555
0.00547725
0.00696625
0.00129091
0.00300016
0.0089131
0.00425012
0.00182917
0.00984681
0.00931072
0.00409597
0.0025017
0.00773581
0.00903462
0.00296231
0.00159534
0.0106202
0.00365621
0.0115829
0.010324
0.00046187
0.00701742
0.00267283
0.00828033
0.00179046
0.00785876
0.00717766
0.00105775
0.00613673
0.0015773
0.0081103
0.0133764
0.0050501
0.0121522
0.00101367
0.00376918
0.00520311
0.000748419
0.000518287
0.00721713
0.00304382
0.00373985
0.00414922
0.0037007
0.00146999
0.00309436
0.00611653
0.00542851
0.00378333
0.0013774
0.00388341
0.00478999
0.00236878
0.00712776
0.00455301
0.00975431
0.00334425
0.00395655
0.00373524
0.00580961
0.00532769
0.00543268
0.00531995
0.00314543
0.00450478
0.00838486
0.00535397
0.00402112
0.000564912
0.0124854
0.00254162
0.0108816
0.00794229
0.00424439
0.00146857
0.0100759
0.00191134
0.00618895
0.0146921
0.0102013
0.00324961
0.0121464
0.00966306
0.00541302
0.00432979
0.00428965
0.0015207
0.00765899
0.00312875
0.00199471
0.00601747
0.00697102
0.00678532
0.0103427
0.00192449
0.00168859
0.00131145
0.000410583
0.00125372
0.00841276
0.00393907
0.00109428
0.00484453
0.00409947
0.00306233
0.00739733
0.00216012
0.00509374
0.00405548
0.00518865
0.00649525
0.0030846
0.0096454
0.00305571
0.0043159
0.00311426
0.00579763
0.00503072
0.00130773
0.00159333
0.00391903
0.00393194
0.00493171
0.00670617
0.0103208
0.001581
0.0033338
0.00326044
0.000516657
0.00613829
0.00735392
0.00815474
0.00974457
0.00988873
0.00317481
0.00877208
0.00193784
0.000762293
0.00974559
0.00281845
0.00422391
0.00711342
0.00297916
0.00340398
0.0133904
0.0106641
0.00526975
0.00316466
0.00272528
0.00360501
0.00358109
0.00891082
0.0119763
0.000961896
0.0101851
0.00443629
0.00107845
0.00325934
0.00185239
0.00472703
0.0151995
0.010753
0.00239946
0.00740029
0.00453791
0.0106533
0.0103147
0.0100075
0.00101285
0.000968386
0.000998139
0.000839365
0.000859517
0.00095424
0.000782121
0.00125845
0.00128894
0.00131492
0.00126512
0.00119433
0.00113251
0.00117512
0.00122982
0.00130608
0.000909314
0.00102183
0.00126036
0.00117463
0.00130672
0.00111575
0.00108199
0.00108763
0.00111873
0.00095913
0.00322443
0.000742655
0.000529049
0.0080138
0.00203185
0.00208623
0.00593924
0.00180498
0.00519803
0.00841907
0.00383567
0.0106775
0.00363687
0.000727271
0.0013194
0.00551676
0.0080433
0.00828134
0.00596049
0.00309306
0.00445842
0.00259305
0.0101942
0.00741104
0.00112584
0.00321275
0.00298701
0.000935932
0.000474958
0.000898856
0.00261438
0.00425932
0.0079034
0.0081225
0.00137524
0.00383068
0.00573297
0.00220544
0.00399449
0.00152143
0.00855332
0.00468172
0.00404326
0.00485253
0.0011132
0.00230286
0.00152233
0.00750974
0.00372934
0.00409528
0.00812761
0.00261212
0.00686113
0.00387302
0.00548058
0.00746989
0.00364033
0.00998546
0.00160634
0.00101597
0.000769242
0.00363767
0.0060646
0.00131898
0.00371881
0.0115762
0.00832689
0.00139682
0.00579056
0.00812988
0.00562195
0.00452135
0.00191989
0.00693999
0.00470227
0.00205433
0.00476636
0.00167286
0.00412817
0.00531694
0.0122669
0.00133664
0.00107263
0.00985328
0.00358685
0.00739416
0.00316608
0.00256725
0.00140258
0.00609987
0.00325067
0.00666632
0.00945956
0.00410908
0.00811056
0.0011739
0.00208908
0.0116605
0.00387489
0.00910261
0.00126857
0.00105437
0.00503228
0.00420614
0.00138709
0.00525637
0.000748448
0.00135668
0.00709864
0.00129133
0.000390321
0.00221043
0.000982027
0.00728464
0.00598658
0.00200094
0.00791556
0.000902995
0.00137265
0.0101054
0.00329584
0.00654714
0.00119623
0.000992428
0.00426996
0.00312564
0.00337796
0.00518138
0.00603275
0.00662731
0.00274041
0.00190625
0.00653639
0.00487413
0.00448006
0.00567112
0.000833999
0.0062947
0.000837692
0.00258048
0.00220892
0.000754005
0.00188649
0.00261271
0.000608493
0.00217586
0.00928841
0.00302725
0.0027375
0.00354921
0.00465176
0.000941054
0.00334033
0.00518791
0.00765508
0.00539128
0.00144396
0.00154346
0.000941691
0.000717377
0.00076041
0.00290817
0.00698999
0.00103543
0.0030778
0.00253627
0.000254348
0.00482301
0.0113905
0.000560959
0.00241382
0.0005776
0.00297279
0.000972776
0.000563669
0.000581477
0.00323089
0.00259565
0.000735699
0.00105382
0.000467915
0.000509095
0.000491873
0.000467357
0.00100462
0.00102807
0.00053176
0.000591849
0.000610364
0.000594923
0.000919493
0.00964058
0.00652565
0.00500424
0.00611259
0.00514662
0.00935264
0.00474544
0.00116307
0.00095936
0.0111881
0.00574846
0.00397055
0.00188215
0.00580772
0.00375551
0.00895597
0.0110643
0.000474151
0.00696705
0.00247042
0.00404722
0.000665438
0.00311304
0.00297894
0.00621043
0.00212725
0.00536004
0.00683172
0.00336225
0.000809448
0.00101794
0.000922695
0.00202831
0.00545759
0.00320278
0.00416431
0.00290872
0.00318679
0.00448066
0.00226081
0.00982641
0.00958612
0.00399892
0.00492018
0.00759034
0.00949169
0.0108299
0.00210539
0.00150358
0.00500919
0.00427247
0.00395658
0.00401318
0.00719345
0.00640523
0.00300745
0.0120764
0.00105431
0.00106151
0.00840331
0.00286881
0.00139203
0.00238849
0.0032121
0.00409306
0.00906729
0.0013225
0.00349725
0.00103858
0.000844521
0.00529773
0.0107008
0.00271799
0.00888827
0.00652831
0.00371354
0.00545496
0.0101022
0.0133225
0.00258911
0.00202581
0.00900246
0.00343964
0.00744467
0.00758837
0.0101329
0.0107417
0.00177898
0.00456366
0.00400465
0.00359667
0.00233558
0.00870989
0.00689187
0.00646222
0.00325149
0.00480582
0.00250059
0.00945862
0.00703642
0.00545804
0.00310866
0.0030412
0.00140413
0.00288389
0.00492512
0.0037777
0.00299361
0.00370545
0.00286881
0.00277479
0.00623042
0.00908847
0.000961971
0.00180166
0.00387662
0.00242627
0.00337767
0.00452979
0.00313315
0.00300483
0.000929774
0.00369628
0.000907235
0.00288047
0.0105617
0.0109128
0.00172011
0.00292846
0.000931126
0.0072757
0.00219582
0.0013705
0.00629573
0.00299759
0.00903996
0.00739176
0.00412072
0.00355516
0.00146218
0.0048301
0.00333377
0.00715487
0.00173681
0.00158052
0.00631525
0.00187664
0.00977589
0.00346641
0.00212265
0.00293849
0.00634176
0.00543295
0.000892451
0.00814045
0.00158054
0.000903214
0.0106056
0.00587277
0.00339297
0.00271122
0.00218639
0.00987166
0.00228872
0.00597035
0.00376717
0.00248134
0.00521335
0.00481962
0.00714742
0.0105873
0.00998679
0.00213873
0.00202967
0.0017397
0.00374292
0.000796032
0.00308981
0.00336446
0.000487204
0.00991442
0.00504251
0.00356774
0.00974295
0.00440309
0.00629508
0.00348021
0.000949049
0.00366612
0.0045086
0.00203965
0.00190041
0.0020377
0.0104154
0.00864358
0.00972758
0.00979214
0.00445774
0.00191735
0.00270743
0.00370957
0.000849751
0.00139659
0.00556257
0.000991962
0.00433454
0.00466072
0.00668771
0.00586021
0.00399532
0.00839197
0.000923357
0.00360068
0.00644921
0.00556709
0.00182052
0.00487375
0.00349189
0.00359989
0.00324798
0.00484818
0.00612386
0.010706
0.00106698
0.00040925
0.00301679
0.00535749
0.00319566
0.00958818
0.00676453
0.000688616
0.00338836
0.000516125
0.000908061
0.00152867
0.00212134
0.00318124
0.00894609
0.000411462
0.0102915
0.0100635
0.00911431
0.00184581
0.00153966
0.00713614
0.00120012
0.00384478
0.00237403
0.00385064
0.00689717
0.00128203
0.00353038
0.00331663
0.0031805
0.00166781
0.00297462
0.00109772
0.00544753
0.0030604
0.00599067
0.00118384
0.00380063
0.0030476
0.00381947
0.00317026
0.00330877
0.00808552
0.00275908
0.00313857
0.00258863
0.00337585
0.0076661
0.00225896
0.0014947
0.000249812
0.000390437
0.00279475
0.00486354
0.00307524
0.00602787
0.00440253
0.0011239
0.00206942
0.00921527
0.00627366
0.00451034
0.00354119
0.00484013
0.00573143
0.010809
0.00210804
0.00304924
0.00446177
0.00243312
0.00611822
0.00259759
0.0026842
0.00552792
0.00312258
0.00480677
0.00452899
0.0033217
0.00504395
0.00276436
0.0043762
0.00307914
0.00173586
0.00500319
0.00333647
0.00449338
0.00424871
0.00350157
0.0029657
0.00675803
0.00376457
0.00599217
0.00322095
0.0080716
0.0102308
0.00467845
0.00122967
0.00667137
0.00220605
0.00372209
0.00299417
0.00317845
0.00323655
0.00410427
0.00485434
0.00313118
0.00328976
0.00074783
0.00395274
0.00394411
0.00268978
0.00517693
0.00170507
0.00204843
0.000908989
0.00157155
0.000891321
0.000882234
0.00155487
0.00206184
0.000606164
0.000917072
0.00122135
0.00071996
0.00152286
0.00166448
0.00110954
0.000773089
0.0016255
0.002381
0.0015167
0.00129836
0.000974466
0.0017627
0.000730444
0.000845539
0.000973406
0.00112446
0.000886387
0.000977979
0.00201645
0.000690276
0.000637616
0.00180749
0.000866329
0.00131065
0.00116467
0.00231747
)
;

boundaryField
{
    frontAndBack
    {
        type            empty;
    }
    wallOuter
    {
        type            nutkWallFunction;
        Cmu             0.09;
        kappa           0.41;
        E               9.8;
        value           nonuniform List<scalar> 
108
(
0.000119087
0.00013207
0.000105259
5.97549e-05
5.39956e-05
7.47704e-05
8.48616e-05
5.46457e-05
5.78592e-05
8.1145e-05
5.5082e-05
8.4614e-05
8.56356e-05
5.53605e-05
5.67958e-05
5.6057e-05
0.000124724
8.98343e-05
6.29042e-05
6.83066e-05
4.97081e-05
0.00012876
6.25076e-05
9.14367e-05
0.000119941
0.000114912
0.000118332
0.000100203
0.000102569
0.000113179
9.36895e-05
0.0001468
0.000150475
0.00015331
0.000147537
0.000139782
0.000132977
0.000137724
0.00014401
0.000152358
0.000108214
0.000120806
0.000147389
0.000138006
0.000152523
0.000131528
0.000127385
0.000128003
0.000131439
0.000113988
6.42145e-05
8.73858e-05
0.00013222
5.75332e-05
0.00013115
0.000120033
9.22388e-05
0.000126333
0.000124721
4.71864e-05
0.000107593
0.000140314
0.000117924
0.000100106
9.04825e-05
7.36952e-05
0.000111831
8.62382e-05
9.12324e-05
0.000122725
2.97514e-05
2.97514e-05
6.80385e-05
6.99577e-05
6.83084e-05
7.04002e-05
0.000124264
5.67648e-05
6.17646e-05
5.96865e-05
5.66905e-05
0.000118976
0.000121606
6.44322e-05
7.16243e-05
7.3821e-05
7.19928e-05
0.00010943
0.000136669
0.000114156
5.74244e-05
8.04155e-05
9.70483e-05
0.000120564
0.000124535
0.000125344
0.000122869
0.000101087
0.00010805
5.9033e-05
0.000101506
0.000117588
4.95419e-05
6.26341e-05
4.98062e-05
2.91481e-05
4.72071e-05
0.000132433
)
;
    }
    inlet
    {
        type            calculated;
        value           nonuniform 0();
    }
    outlet
    {
        type            calculated;
        value           nonuniform 0();
    }
    wallInner
    {
        type            nutkWallFunction;
        Cmu             0.09;
        kappa           0.41;
        E               9.8;
        value           nonuniform List<scalar> 
126
(
0.000184112
0.000237465
0.000139281
0.000150681
0.000217324
0.000208749
0.000132829
0.000101694
0.000135255
0.000213184
8.20954e-05
0.000169728
9.61189e-05
0.0001276
0.000189426
0.000188689
0.000126282
0.000120267
0.000120144
0.000116442
0.000233691
9.51371e-05
0.000221839
0.00014772
0.000152299
0.000211009
0.000202872
9.87145e-05
0.00011773
0.000167799
0.000106223
7.19657e-05
0.000186895
0.000239722
0.00020954
0.000164453
0.000101006
0.000210668
0.000127363
0.000195115
0.000173925
0.000140709
9.6308e-05
0.000196012
0.00021738
0.000139678
0.000138351
0.000132963
0.000122252
0.000166175
0.000121684
9.21321e-05
0.000150819
0.000214971
0.000144121
6.83187e-05
0.000110609
0.000187562
0.000159499
0.000125773
0.000108571
9.49182e-05
0.000120778
0.000177434
0.000111775
0.000168084
0.000171112
7.60066e-05
0.00013341
0.000168145
0.000167758
0.000171969
0.000109026
0.000172074
0.000181238
0.000194885
9.27784e-05
0.000107793
9.69387e-05
0.000119052
0.000108311
0.000112135
0.000187756
0.000194579
0.000192553
0.000197351
0.000178327
0.000183689
0.000126562
0.00021065
0.000159532
0.000149446
0.000129095
0.000194884
0.000108248
0.000180877
0.000106235
0.000108729
0.000178654
7.16808e-05
0.000103845
0.00014366
8.62969e-05
0.000174977
0.000191206
0.000131286
9.28781e-05
0.000186274
0.000265296
0.000174765
0.000151533
0.000115734
0.000200885
8.78267e-05
0.000101045
0.000115503
0.000135175
0.000107505
0.000116213
0.000228955
8.35236e-05
7.74752e-05
0.000205611
0.000104708
0.000152624
0.000136831
)
;
    }
    procBoundary1to0
    {
        type            processor;
        value           nonuniform List<scalar> 
29
(
0.00362786
0.00362786
0.00154768
0.00399688
0.00601295
0.00246157
0.00298175
0.000959123
0.00229589
0.00401519
0.00238352
0.00246157
0.00154768
0.00171205
0.00229828
0.00119949
0.00601295
0.00526308
0.00399688
0.00365268
0.000864448
0.00075113
0.00298254
0.00071159
0.00071159
0.00298254
0.000731398
0.000908953
0.000731398
)
;
    }
    procBoundary1to2
    {
        type            processor;
        value           uniform 0.00300572;
    }
    procBoundary1to3
    {
        type            processor;
        value           nonuniform List<scalar> 
48
(
0.0134541
0.00648096
0.00881963
0.00881963
0.00359528
0.00436575
0.00436575
0.00399832
0.0157792
0.00232087
0.00194545
0.00232087
0.00204172
0.00260113
0.00320307
0.00204172
0.00167735
0.00167735
0.00146698
0.00146698
0.00232752
0.00214665
0.00136108
0.0018184
0.0018184
0.00139107
0.00231177
0.00231177
0.00232982
0.00278394
0.00170355
0.00232982
0.00399832
0.0153042
0.00132806
0.00278394
0.0102083
0.00194545
0.0150455
0.00278702
0.0028352
0.0136553
0.0153042
0.00132806
0.00314361
0.000926928
0.00339293
0.0028352
)
;
    }
}


// ************************************************************************* //
