/*--------------------------------*- C++ -*----------------------------------*\
| =========                 |                                                 |
| \\      /  F ield         | OpenFOAM: The Open Source CFD Toolbox           |
|  \\    /   O peration     | Version:  v1912                                 |
|   \\  /    A nd           | Website:  www.openfoam.com                      |
|    \\/     M anipulation  |                                                 |
\*---------------------------------------------------------------------------*/
FoamFile
{
    version     2.0;
    format      ascii;
    class       volScalarField;
    location    "0.47";
    object      k;
}
// * * * * * * * * * * * * * * * * * * * * * * * * * * * * * * * * * * * * * //

dimensions      [0 2 -2 0 0 0 0];


internalField   nonuniform List<scalar> 
1431
(
2.89047
2.85843
0.170112
0.383302
0.196578
1.62446
0.122061
5.42156
1.90968
0.129531
1.50839
5.44554
1.24152
0.200583
0.692643
0.195303
0.297427
0.30468
0.193582
0.416875
2.35627
0.326343
1.96133
5.76535
1.91196
0.67962
1.21353
0.294575
0.923151
0.640784
0.929625
1.14816
0.86483
0.126813
1.85266
0.6812
3.18414
0.32661
0.230556
0.998144
2.59646
3.09991
0.975741
0.253795
1.60712
0.223104
0.7063
1.10643
0.128534
0.416612
1.66793
0.297095
1.73497
5.93593
2.80453
0.905244
0.159043
6.19364
0.659694
0.784464
0.377019
0.137742
0.307104
0.324949
0.169642
0.0838291
0.393332
0.155258
0.169433
0.184396
3.51002
0.140165
0.290835
0.102292
0.178452
0.152287
0.184639
0.284299
0.234702
0.228529
0.363034
0.29566
5.23049
0.973982
2.62501
0.532803
0.983408
1.15238
4.15379
5.4485
1.01948
0.303294
0.311433
0.354016
2.91534
0.66084
5.77831
5.22165
0.210304
0.513032
1.36509
0.197415
0.499904
0.451284
0.336116
1.31721
1.52456
1.68634
1.82653
0.586111
0.655885
1.51133
0.319842
2.32713
3.16915
0.148956
0.169486
0.318779
0.308346
0.313149
0.212491
0.924002
2.10019
0.175439
2.57788
0.34549
0.151435
0.749304
0.233411
1.85015
0.221121
0.339674
1.73759
0.2542
0.627096
0.330587
0.431259
0.147289
3.97216
0.293749
0.199235
0.855546
0.47169
0.31095
2.23511
0.846082
0.242807
1.53706
0.360952
0.216454
0.311269
0.190251
1.06565
0.299217
1.499
0.407156
3.22857
3.08313
5.55325
1.00475
4.90402
1.42434
0.366629
0.94602
2.23268
2.45526
2.19989
3.30873
0.398909
4.51277
5.48978
1.66359
0.94735
4.01857
3.1887
3.15792
1.55242
1.60005
1.76627
1.88145
0.0823597
0.27806
1.74048
8.29292
1.55248
1.2704
1.50311
3.54983
1.09431
3.28049
0.941298
1.16897
1.18565
1.89418
0.303198
3.115
4.67087
1.65784
0.16084
1.74205
2.09268
0.493577
1.33747
1.29738
1.38584
1.01027
1.35486
0.16331
4.55675
1.63536
1.80519
0.265013
1.50591
1.33554
3.77151
0.693095
1.26685
1.64761
1.67352
1.22622
1.43511
1.73202
1.24061
0.690849
1.57937
5.60657
1.66524
4.93971
1.28933
0.979165
4.31045
0.910132
1.31721
1.114
1.1973
5.93369
1.47933
1.37207
0.904116
1.72312
1.37668
2.11248
4.99982
1.19701
1.15069
0.571778
1.3039
1.36031
1.52005
0.410265
0.660034
3.96211
0.899647
0.235191
0.977704
2.68749
0.794712
6.38335
5.41377
1.24445
0.89902
3.88965
1.72357
1.377
1.71471
1.46376
2.04376
2.34749
1.0837
0.125506
2.03203
1.40578
2.57889
1.43144
4.50695
0.912752
4.25968
1.04928
0.982608
1.13964
1.77759
2.68188
0.850151
1.32942
2.18068
5.71416
2.75058
5.38097
2.66729
2.57761
0.141365
2.14775
4.51652
1.36883
0.882035
1.22468
1.75496
1.4347
0.71781
1.06967
1.70111
0.376655
2.2689
0.982156
1.32542
0.69105
2.83273
1.20247
3.12471
4.01505
2.85077
0.455414
0.0995287
1.12608
1.93768
4.1286
1.71805
2.47258
0.141458
8.16799
2.53283
3.64818
0.373691
1.13479
1.60231
0.178896
0.430377
2.187
5.99065
0.294795
1.3236
0.170497
2.10339
0.349244
1.23827
0.973319
2.37073
5.96591
1.58847
1.26123
0.313796
0.976362
2.04451
2.38992
1.87776
1.11753
2.39259
4.30237
2.40944
1.21666
1.57196
0.225907
1.29721
2.39775
0.227323
1.47765
2.80467
1.4627
3.573
2.7166
0.37331
1.16751
1.18095
1.9636
0.155435
1.67152
1.96889
8.98012
1.24471
0.828665
1.51284
0.244664
4.69721
2.04341
2.37256
7.60771
2.6687
1.10753
0.396313
8.39462
1.65109
1.57386
1.32888
0.263948
9.81983
1.79692
1.94745
1.89446
1.51228
2.00385
1.53312
1.93939
1.91519
0.591376
5.4301
1.4824
1.92662
1.99777
2.02799
1.73859
2.30977
2.3293
4.69267
2.62189
0.495367
1.90465
1.64143
0.566392
1.94343
1.88719
2.63523
1.67587
1.88101
0.795586
1.82582
0.294871
2.07883
0.64602
1.65859
1.88066
1.66402
1.1292
1.45621
2.2116
1.88883
0.290474
0.279203
0.296229
0.306372
4.89256
1.93234
2.25393
2.39743
2.52379
2.42315
2.19335
2.024
2.23145
1.95356
2.14759
0.207965
3.90654
0.192703
0.180968
0.216278
0.138082
0.147146
0.142187
0.911153
0.380714
0.402986
0.378766
0.127142
0.585948
0.113456
0.133151
0.427619
6.00283
0.66478
0.465255
0.396652
0.374442
5.7151
0.144258
0.567779
0.358363
0.540793
5.53778
0.349957
5.33039
0.228179
0.291053
0.298523
0.408602
3.9986
3.79188
0.295735
0.444226
0.148892
0.364102
0.376475
0.175624
4.07107
0.527491
0.267993
0.341525
0.24232
0.22629
0.274411
0.42158
4.21647
0.421707
0.261983
0.381981
0.281134
0.231932
0.275689
4.13662
0.375838
1.2969
0.414234
0.343732
0.993436
0.237109
3.91354
3.8436
0.203188
0.496067
0.355881
0.701242
0.363553
0.408704
0.190129
0.293763
0.27377
0.301201
0.394422
0.368591
0.515353
3.8646
1.32394
0.494404
1.49913
0.49603
0.375911
0.632762
3.5239
0.986805
0.237264
0.513044
2.33535
1.16477
0.686668
1.47744
2.20769
0.323728
1.272
1.76786
0.42087
0.484434
1.77126
0.267874
2.40656
0.870864
1.82079
1.19546
1.91303
1.48995
1.84674
2.46655
1.95899
0.217717
2.28039
1.93626
0.39107
1.53543
0.711839
0.461952
1.5986
3.06156
2.47823
3.28125
3.3979
0.939123
4.89219
0.725837
1.53158
0.812139
0.576379
2.54249
1.7654
1.87114
1.82287
0.76009
0.459571
1.47884
0.460577
1.89722
1.44053
2.08487
1.75269
1.61961
1.69479
1.93229
2.08298
1.37782
1.10236
1.15417
0.516968
1.08439
0.896666
2.47547
1.55836
1.83658
1.6271
1.95143
0.295604
1.95604
4.09941
4.23934
1.46407
0.666095
1.95759
0.967829
1.57047
1.53007
1.07386
2.07373
0.588161
0.164607
0.547965
0.733501
1.87719
1.39236
1.93983
2.27389
2.79879
1.11358
0.440744
1.8868
3.57353
2.34819
0.429324
1.92603
0.898066
1.5223
2.14003
0.464773
1.76823
1.47033
1.07357
1.43742
0.131286
1.70707
1.78495
1.7009
5.13904
1.72441
1.96917
1.95762
2.07292
4.01532
1.17144
1.9647
2.21374
0.813188
1.48691
1.56049
3.02272
2.36029
0.519697
2.8762
1.6783
1.83592
0.189972
1.51372
1.91489
1.50373
0.356162
4.99504
5.33849
2.08997
0.908874
1.27779
0.539594
0.905922
0.497194
0.343528
1.61431
0.279497
1.89517
3.74662
1.87343
2.05941
0.478475
0.51795
1.89102
0.377006
1.607
1.78798
2.12714
1.33427
2.23007
1.9062
0.327683
0.329832
0.946445
1.92112
0.2046
1.58012
1.76085
1.11964
2.28906
1.43132
1.15449
2.54528
2.64645
1.4934
1.0364
2.29705
2.19254
1.84567
1.75044
1.28863
2.02163
1.9495
1.49545
2.42154
2.08035
1.87828
2.01777
1.35183
1.06103
1.49962
0.263345
2.38108
0.66119
1.83621
1.13282
1.98465
2.52331
1.03837
3.86656
1.51587
0.546938
3.40779
1.58837
0.873068
1.64973
1.90752
0.454571
5.07793
0.627764
1.31442
2.16858
1.04325
2.19641
2.87104
1.9497
0.784072
0.737039
1.97924
1.52718
1.81394
1.4505
1.60269
0.496154
0.569122
1.86614
0.169138
0.508293
1.71776
2.57997
0.169736
6.66875
1.79521
2.28143
0.219524
1.69625
0.782101
7.21976
2.67336
1.25281
0.114994
0.439005
1.55201
0.224123
0.135647
1.95874
1.42712
0.6736
1.32008
1.67829
2.12821
2.15055
1.77806
0.938789
0.887545
2.12624
1.19184
1.99074
0.437103
1.5432
0.339924
1.76733
3.18984
1.60873
1.90611
0.988317
1.97164
1.2253
0.362917
1.36114
2.14916
1.29539
0.968009
0.653979
1.16283
0.562654
1.36625
1.03339
0.413607
0.764011
1.69648
1.47918
6.78265
1.2696
1.76274
0.784173
1.55304
8.55024
1.46043
1.93874
3.49927
2.74082
6.37803
0.863488
0.220278
2.78204
1.95031
0.156884
1.54421
1.63705
1.95066
1.98206
0.751175
2.57078
0.84702
0.227005
0.324946
2.40958
3.03137
2.01541
1.02433
2.18115
5.83301
0.970834
2.78098
1.75642
1.08178
1.49462
0.366602
0.427162
1.23524
1.88189
5.74259
0.45257
7.22799
1.0044
4.46488
1.31253
0.843343
0.701854
1.51993
0.357521
0.252363
2.05204
1.68835
0.237149
0.373606
1.54452
2.12695
1.93823
1.88057
1.3146
1.96835
1.21173
0.455285
4.17848
1.94281
1.90069
5.93098
2.22145
1.34267
0.701363
0.789192
0.128447
1.89505
1.90103
1.99803
5.25062
0.540965
1.98972
1.96
6.45653
6.45227
4.97293
0.731802
0.881632
0.889049
0.863522
0.873709
0.777888
0.86303
0.689379
0.721587
0.704298
0.705601
0.677021
0.819975
0.712492
0.639122
0.646073
0.702456
0.843736
0.823943
0.688712
0.804858
0.79659
0.675008
0.790534
1.01021
2.9666
0.402501
0.368442
1.60082
0.291114
0.259224
3.69981
1.19305
0.811809
0.277171
1.24515
0.847947
6.82447
0.281362
0.194611
3.68104
1.70006
1.36835
0.574162
1.1391
6.90879
0.158707
0.775999
1.77988
2.0518
0.50848
0.400832
3.32331
0.754138
0.580904
1.01308
2.25996
1.01591
1.16617
2.5172
0.302777
0.270124
0.247335
0.422404
1.58484
0.952501
0.646384
0.389938
1.83195
0.41725
0.647524
0.751635
0.546633
0.407246
3.31911
1.72085
1.89105
1.73884
0.366153
0.437973
1.04187
0.747149
0.393623
0.708731
1.79443
1.25788
2.06365
0.161118
0.353708
0.282629
0.841931
0.137179
9.20987
1.96735
1.33974
0.252042
5.4672
1.99113
5.88357
0.148448
0.536315
0.851841
0.32331
0.258957
1.85902
1.31527
3.63714
4.24244
0.760203
1.9843
0.390327
1.2554
0.282286
1.56202
1.06285
0.937938
1.66913
1.42308
1.47234
0.881711
3.07111
0.682951
0.375647
0.325694
1.6994
1.29103
0.298981
1.89983
2.25767
1.94577
0.389131
1.93814
1.99997
2.98087
3.57114
0.111363
0.892198
0.635263
1.08291
2.04037
6.89167
0.649885
1.759
0.889168
4.32994
3.70078
0.995885
0.294458
1.24579
1.87206
3.15456
2.97
2.80175
1.98994
0.631511
1.54773
0.473833
2.35191
1.92933
2.33388
3.09473
5.45525
3.39596
2.24048
0.340091
1.94668
1.22531
0.303271
0.600674
0.931928
0.584063
1.94024
2.85045
1.73981
0.795391
2.67894
4.26919
0.324183
0.267401
1.53628
2.86114
1.9526
2.90018
2.99464
1.7152
2.9609
0.756655
3.11171
2.9816
2.95504
2.76137
2.60058
2.4415
3.01128
2.30172
0.0767467
0.304104
0.232198
0.0983047
0.148318
0.21595
1.45154
0.89861
2.48981
1.48394
2.46762
0.655936
0.380473
1.28267
0.397201
0.127031
1.79897
0.354921
1.2855
2.66337
0.790212
1.13118
0.255288
4.18712
1.9574
1.42745
1.879
0.992609
1.05562
2.04843
8.76193
1.32229
0.322549
1.37258
4.19483
0.393078
1.5924
2.74514
0.430571
2.05477
0.20922
0.549043
0.615012
0.648555
0.596859
0.683826
0.173908
0.305963
0.266898
0.223699
4.65298
2.96033
0.47069
0.279943
1.42524
1.67297
0.399103
2.63035
4.0675
2.29303
3.49635
0.734291
0.903194
1.31922
2.33915
0.710998
1.91842
1.6087
1.97145
2.65954
0.655671
1.26745
0.466944
0.424183
2.69929
1.00936
1.73547
1.91925
2.03756
3.4501
5.44149
1.02902
2.15552
1.17056
0.329951
0.227791
0.358679
0.416759
0.308552
5.06561
1.61504
0.29903
2.04991
1.8544
0.292036
2.48287
0.298291
1.68307
2.10377
1.05332
1.90627
0.412813
1.68298
2.12661
2.73862
2.7002
2.1647
0.248502
0.261312
0.233111
4.50441
5.44727
2.62122
2.45996
2.02079
0.253616
6.96612
0.200156
1.32348
0.304243
0.262669
0.305184
2.60858
0.357912
1.02512
1.47079
4.41659
0.198373
1.80485
0.745121
0.320331
0.368773
0.208786
0.878906
4.93101
0.413161
2.32172
3.04369
1.95376
1.44614
1.92408
0.892381
0.371779
0.209793
0.36125
1.86837
3.21359
1.92322
10.0857
1.28757
2.1047
1.93486
2.46856
1.8212
0.112548
1.13844
0.49791
1.92809
0.579457
2.12771
2.82606
2.03176
0.246434
2.1133
0.244361
0.498403
1.75982
3.8521
2.58795
2.80112
1.83564
0.63243
1.74751
1.92497
0.734175
0.79829
0.317235
0.267843
0.421383
1.92799
4.301
1.85762
1.92773
0.350886
0.463124
1.04623
1.84905
0.636203
3.18373
2.32219
2.7014
3.43039
0.164172
1.94034
1.93888
1.63566
2.1453
1.46912
0.864643
0.632535
1.24014
0.944271
1.1799
1.06646
1.4373
6.86299
1.49349
0.276408
0.387649
1.9556
1.38592
1.05622
1.40008
0.338253
6.01032
0.451112
0.368689
0.353742
9.07425
1.69094
2.22272
0.3118
0.653303
2.80113
2.36617
4.5839
0.41206
0.5357
1.6905
8.09588
0.389139
5.06798
5.55521
0.430883
1.67227
2.59878
5.41756
2.89549
2.09932
1.87877
0.265316
3.00257
1.07211
0.205471
2.43026
0.841162
3.80096
2.09486
6.21315
0.439863
0.156361
0.553671
3.112
0.847202
0.825769
1.03744
5.96782
0.130394
1.63193
0.325023
4.5712
1.22214
1.25065
0.328704
0.275847
0.668801
4.78244
7.58064
0.553736
1.76616
0.266561
0.274811
0.664905
1.07252
0.225064
1.93229
0.329043
0.90637
0.943916
1.10745
5.25589
1.08072
0.459469
1.23904
0.871403
0.302169
0.733769
1.96438
0.276196
0.50611
0.869352
0.980909
1.28063
0.51045
0.301476
5.01419
3.95257
1.498
0.596018
0.473412
0.31181
0.397571
1.34846
0.299081
0.225205
0.528498
0.601745
0.160144
0.342729
5.2635
1.18455
0.808711
1.65841
1.62051
3.83544
1.8323
0.322
0.18316
0.975923
1.34103
2.53531
0.247008
0.295045
0.222238
0.390615
0.176868
0.390218
0.628922
0.975801
0.233192
1.37872
1.98658
1.19203
1.39417
0.195046
1.22733
0.371823
0.9209
1.63987
0.257789
0.400295
0.90076
2.01832
0.258192
0.215804
0.78683
1.28162
1.04635
0.151372
)
;

boundaryField
{
    frontAndBack
    {
        type            empty;
    }
    wallOuter
    {
        type            kqRWallFunction;
        value           nonuniform List<scalar> 
96
(
0.923151
0.640784
0.66084
1.87343
1.89102
1.9062
1.58012
1.43132
1.15449
2.64645
1.0364
2.19254
1.28863
1.9495
2.42154
2.87104
1.9497
0.737039
0.938789
1.76733
0.968009
1.98206
0.751175
3.03137
2.01541
0.731802
0.881632
0.889049
0.863522
0.873709
0.777888
0.86303
0.689379
0.721587
0.704298
0.705601
0.677021
0.819975
0.712492
0.639122
0.646073
0.702456
0.843736
0.823943
0.688712
0.804858
0.79659
0.675008
0.790534
0.775999
0.952501
0.646384
0.747149
0.708731
2.06365
0.760203
0.881711
0.892198
0.635263
0.649885
3.15456
0.631511
0.473833
2.33388
2.86114
2.90018
2.9609
0.756655
3.11171
2.9816
2.95504
2.76137
2.60058
2.4415
3.01128
2.30172
0.0767467
0.304104
0.232198
0.0983047
0.148318
0.21595
0.655936
0.790212
0.648555
0.655671
2.1647
0.878906
3.21359
3.18373
0.864643
0.632535
0.389139
2.09932
2.09486
0.553671
)
;
    }
    inlet
    {
        type            fixedValue;
        value           nonuniform 0();
    }
    outlet
    {
        type            zeroGradient;
    }
    wallInner
    {
        type            kqRWallFunction;
        value           nonuniform List<scalar> 
126
(
0.659694
0.784464
0.377019
0.137742
0.307104
0.324949
0.169642
0.0838291
0.393332
0.155258
0.169433
0.184396
3.51002
0.140165
0.290835
0.102292
0.178452
0.152287
0.184639
0.284299
0.234702
0.228529
0.363034
0.29566
0.513032
0.148956
0.169486
0.318779
0.308346
0.313149
0.212491
0.924002
2.10019
0.175439
2.57788
0.34549
0.151435
0.221121
0.339674
0.293749
0.199235
0.47169
0.31095
0.242807
0.216454
0.190251
0.299217
2.23268
0.0823597
1.2704
1.50311
0.303198
1.80519
0.125506
0.982608
1.13964
0.141365
1.75496
1.4347
1.06967
0.376655
0.455414
0.0995287
1.12608
0.178896
0.430377
1.3236
1.26123
0.313796
1.4627
1.16751
1.18095
0.566392
0.64602
0.237109
0.27377
0.513044
1.76786
0.267874
1.48995
0.217717
1.5986
0.459571
1.89722
0.516968
2.47547
1.46407
0.429324
0.131286
2.21374
1.6783
2.02163
1.49545
0.782101
1.34267
1.89505
0.407246
2.03756
0.439863
0.156361
0.975923
1.34103
0.247008
0.222238
0.390615
0.176868
0.628922
0.233192
1.37872
1.98658
1.19203
1.39417
0.195046
0.371823
0.9209
1.63987
0.257789
0.400295
0.90076
2.01832
0.258192
0.215804
0.78683
1.28162
1.04635
0.151372
)
;
    }
    procBoundary3to1
    {
        type            processor;
        value           nonuniform List<scalar> 
48
(
3.31205
2.35785
2.75843
3.40858
1.64589
2.17585
2.35785
0.367107
2.44067
0.451469
0.451469
0.493401
0.493401
0.430291
0.566558
0.446728
0.247857
0.276392
0.247857
0.21389
0.311819
0.284833
0.21389
1.43966
0.378489
0.188876
0.306263
0.284833
0.312986
0.392072
0.392072
0.335112
0.335112
2.44067
0.185415
1.39797
0.566607
0.378489
3.08048
1.39521
0.430291
1.16823
1.83924
0.21389
0.639197
0.979405
1.62653
0.355011
)
;
    }
    procBoundary3to2
    {
        type            processor;
        value           nonuniform List<scalar> 
29
(
0.279166
0.279166
0.0660059
0.0961004
0.499801
0.130327
0.273553
0.234197
0.133624
0.125096
0.19271
0.681273
0.230613
0.341714
0.212544
0.374851
0.107836
0.119814
0.244134
0.280168
0.241302
0.107836
0.0727356
0.119814
0.160731
0.105179
0.119814
0.747546
0.747546
)
;
    }
}


// ************************************************************************* //
