/*--------------------------------*- C++ -*----------------------------------*\
| =========                 |                                                 |
| \\      /  F ield         | OpenFOAM: The Open Source CFD Toolbox           |
|  \\    /   O peration     | Version:  v1912                                 |
|   \\  /    A nd           | Website:  www.openfoam.com                      |
|    \\/     M anipulation  |                                                 |
\*---------------------------------------------------------------------------*/
FoamFile
{
    version     2.0;
    format      ascii;
    class       volScalarField;
    location    "0.13";
    object      k;
}
// * * * * * * * * * * * * * * * * * * * * * * * * * * * * * * * * * * * * * //

dimensions      [0 2 -2 0 0 0 0];


internalField   nonuniform List<scalar> 
1466
(
0.175383
0.175006
0.105644
0.135294
0.144946
0.128557
0.337953
0.152039
0.0879898
0.199341
0.0592218
0.19298
0.0210051
0.0630319
0.0687369
0.0811666
0.0356238
0.136858
0.178847
0.0822569
0.0634112
0.200937
0.102723
0.199953
0.0657715
0.0686607
0.093178
0.145106
0.147651
0.114081
0.12047
0.122314
0.179806
0.108314
0.145365
0.0726394
0.0681396
0.0564038
0.15347
0.17327
0.197075
0.13327
0.0985854
0.121684
0.161681
0.131868
0.0613676
0.134555
0.130921
0.0628221
0.0910177
0.123918
0.14092
0.118825
0.170631
0.0962427
0.0461899
0.192401
0.0858316
0.0976407
0.0892601
0.10084
0.139221
0.121062
0.179238
0.10765
0.100924
0.0645114
0.144761
0.195151
0.0630425
0.122131
0.0511839
0.104426
0.0342313
0.219853
0.105829
0.118988
0.185674
0.0938499
0.0557288
0.101832
0.0641036
0.127331
0.055085
0.0625553
0.0551757
0.168635
0.0964176
0.155109
0.118415
0.042802
0.0968466
0.138968
0.0870433
0.057616
0.173052
0.105039
0.170926
0.119247
0.155245
0.151676
0.12291
0.151296
0.0605851
0.105791
0.0662129
0.0624885
0.149636
0.0783446
0.0681393
0.0571722
0.0870518
0.0583584
0.0256884
0.15389
0.0641876
0.0632571
0.162413
0.164067
0.0595155
0.133407
0.0483799
0.166429
0.104969
0.139658
0.0663202
0.144818
0.110072
0.0825781
0.119026
0.109812
0.143481
0.120479
0.0680048
0.0904132
0.136783
0.0588858
0.148493
0.117659
0.136073
0.0426744
0.128976
0.0864221
0.153843
0.11154
0.136053
0.158017
0.113109
0.053028
0.125509
0.0743858
0.147341
0.17188
0.106061
0.0739836
0.124851
0.281046
0.105367
0.157856
0.154376
0.115853
0.193408
0.058198
0.145281
0.0880036
0.0778987
0.139235
0.0929082
0.133102
0.0581515
0.0625617
0.0692908
0.0991718
0.0800195
0.169667
0.138603
0.100671
0.0722694
0.0988057
0.120896
0.0633655
0.128808
0.101525
0.170336
0.060657
0.0658815
0.151214
0.0701868
0.143174
0.159975
0.10933
0.111523
0.183276
0.0623279
0.117376
0.142373
0.080599
0.0780448
0.0698461
0.171319
0.0682969
0.0613789
0.0973529
0.0765743
0.125751
0.0644288
0.155969
0.0751971
0.0580827
0.0758609
0.290814
0.0735041
0.0623898
0.168029
0.0678464
0.0925152
0.0432959
0.0712607
0.113333
0.213911
0.131357
0.0814381
0.0618662
0.0890402
0.0629187
0.0607637
0.0694542
0.0679865
0.0807522
0.062467
0.164417
0.0937467
0.0869511
0.0662164
0.0807945
0.0890261
0.12794
0.0993757
0.0719207
0.0839999
0.111778
0.0437018
0.140923
0.131519
0.0466086
0.0421186
0.0431119
0.046388
0.0452888
0.0996806
0.0800548
0.126423
0.14815
0.0991307
0.082675
0.0693505
0.0770638
0.196482
0.240119
0.0630563
0.0611745
0.0954333
0.152689
0.137976
0.0572811
0.092881
0.115805
0.0654669
0.116041
0.112147
0.124142
0.0634988
0.059373
0.0597658
0.102545
0.152324
0.13081
0.153085
0.127399
0.0818394
0.047361
0.0440223
0.058966
0.0649263
0.0614471
0.116508
0.0461615
0.189847
0.116135
0.0633494
0.0980608
0.175213
0.240263
0.126232
0.0735499
0.149424
0.263732
0.0860909
0.0540811
0.0859311
0.314471
0.0597813
0.162177
0.0669645
0.0971933
0.109176
0.108479
0.0355126
0.370691
0.0783412
0.0794442
0.0675929
0.168214
0.126188
0.0647492
0.134678
0.0616594
0.163017
0.0660892
0.0635772
0.0856357
0.131563
0.0860609
0.10345
0.050815
0.0388447
0.0441026
0.0417173
0.0502428
0.0403484
0.0498325
0.0396824
0.0972478
0.0817248
0.0736172
0.0406206
0.0469619
0.100863
0.0425451
0.0422934
0.0470627
0.0587851
0.0422756
0.0511087
0.0410805
0.0484794
0.0430786
0.107055
0.174798
0.11853
0.0638521
0.113547
0.103062
0.102089
0.0677731
0.202565
0.157979
0.306342
0.087942
0.189298
0.0905762
0.0830161
0.112928
0.114653
0.0473833
0.03937
0.0403684
0.0452249
0.0441206
0.0407452
0.0427305
0.064749
0.0605165
0.0710439
0.0491189
0.0561798
0.457511
0.0602873
0.0479266
0.0598379
0.138906
0.153812
0.0685603
0.109161
0.127977
0.048016
0.0649695
0.0816379
0.0821282
0.12452
0.0764183
0.0861941
0.153663
0.0392027
0.0773422
0.0817611
0.0590256
0.0599068
0.0415854
0.132831
0.0604038
0.0858219
0.0650884
0.170215
0.0665686
0.0918249
0.218945
0.0769761
0.0696009
0.0644164
0.104019
0.0479189
0.120208
0.102219
0.147021
0.0921824
0.0960433
0.129474
0.152156
0.104558
0.0560731
0.180581
0.177194
0.140796
0.136133
0.184585
0.172621
0.225149
0.248799
0.0884574
0.0644306
0.107937
0.240153
0.151431
0.23595
0.112713
0.124921
0.195006
0.145582
0.213175
0.0881351
0.255344
0.19786
0.15156
0.112903
0.107805
0.0943331
0.298263
0.112855
0.36502
0.0973534
0.167085
0.10002
0.132595
0.192489
0.0968301
0.105807
0.110422
0.139633
0.135779
0.111702
0.1082
0.122824
0.257677
0.119148
0.203342
0.0643875
0.0748565
0.0577504
0.217188
0.200068
0.146813
0.180658
0.121551
0.13308
0.0768048
0.0566554
0.123792
0.126216
0.0681957
0.0655585
0.111143
0.0693681
0.119629
0.0651855
0.0725639
0.0783387
0.108236
0.157383
0.132374
0.0698969
0.0790044
0.0691845
0.130064
0.129886
0.133811
0.160861
0.139605
0.168367
0.0826496
0.0861026
0.119193
0.10293
0.065605
0.0861596
0.160193
0.167969
0.0911614
0.160125
0.0999847
0.145494
0.117729
0.173948
0.164978
0.124239
0.0826744
0.0863547
0.115844
0.138566
0.129359
0.112787
0.23555
0.141193
0.133798
0.0971
0.250218
0.222731
0.0508979
0.0661588
0.0677673
0.0826625
0.133272
0.109228
0.195273
0.201081
0.152958
0.208078
0.0625953
0.120801
0.204985
0.137221
0.112134
0.163504
0.128268
0.178923
0.048537
0.120932
0.12148
0.100443
0.0916394
0.0553614
0.169231
0.106396
0.0868248
0.105751
0.0986955
0.0630943
0.0935527
0.137951
0.0576318
0.144393
0.0948467
0.116873
0.164651
0.103217
0.063646
0.0749139
0.109215
0.142155
0.0453393
0.176486
0.0957011
0.163211
0.124221
0.083789
0.119948
0.0645973
0.109201
0.0854724
0.136785
0.0560921
0.0857673
0.0831152
0.0602575
0.457397
0.131974
0.0907156
0.186847
0.0829708
0.120816
0.106475
0.169901
0.120441
0.100404
0.0909066
0.0934901
0.121667
0.129258
0.0835416
0.260129
0.110587
0.0930779
0.0935888
0.0637015
0.117111
0.0863315
0.0630627
0.0944078
0.163889
0.10999
0.12289
0.0846224
0.169368
0.0581203
0.0647727
0.104923
0.0709868
0.197705
0.106831
0.0845792
0.0637605
0.126162
0.119633
0.0888723
0.0859832
0.0843946
0.0782683
0.0645684
0.192938
0.0866379
0.136464
0.122821
0.129801
0.0859619
0.110155
0.0820952
0.147212
0.110778
0.089937
0.0656362
0.199258
0.0457107
0.176727
0.0621623
0.140422
0.105467
0.164129
0.107006
0.0671482
0.0671402
0.205217
0.112681
0.12474
0.115885
0.0967997
0.0921324
0.10085
0.069009
0.110916
0.0766362
0.135807
0.160565
0.117419
0.0872848
0.179317
0.0764698
0.079364
0.170507
0.131841
0.0707226
0.0929575
0.0562491
0.0955627
0.113861
0.0966133
0.0987013
0.157123
0.0806518
0.116896
0.10672
0.0769008
0.0369967
0.10289
0.1174
0.0600837
0.15449
0.0639079
0.0606918
0.199579
0.103545
0.0716648
0.18081
0.120551
0.266409
0.0705624
0.112828
0.0661659
0.135044
0.125438
0.103982
0.095705
0.109179
0.162101
0.147138
0.133845
0.105808
0.223284
0.0985993
0.110449
0.0836495
0.0569487
0.124731
0.110236
0.0896763
0.118128
0.103338
0.169795
0.0715528
0.112591
0.0865599
0.096114
0.0866862
0.109036
0.0968382
0.0634971
0.0851954
0.0780625
0.20219
0.142111
0.0764953
0.140799
0.122314
0.0439264
0.0416837
0.0821277
0.0470672
0.040375
0.0548292
0.418394
0.123148
0.0513574
0.039221
0.0609695
0.136723
0.0716306
0.0392344
0.105138
0.134585
0.12656
0.0924873
0.0828676
0.0617126
0.130112
0.0930126
0.171497
0.272976
0.0789571
0.124005
0.0550607
0.072287
0.135065
0.138917
0.127217
0.13132
0.0861147
0.24294
0.078136
0.0938547
0.0951667
0.113583
0.147867
0.145251
0.0402925
0.125705
0.0915246
0.0694764
0.116726
0.0687029
0.127249
0.169808
0.179557
0.0291789
0.0402682
0.121872
0.120698
0.0916954
0.057603
0.126067
0.0893977
0.111703
0.0979002
0.112181
0.120696
0.168875
0.103011
0.163512
0.0571818
0.204653
0.0678321
0.142883
0.0849826
0.0865532
0.0909196
0.119066
0.0586762
0.132623
0.0554495
0.08982
0.108499
0.232026
0.0536756
0.0617201
0.153164
0.0860332
0.127034
0.152481
0.0613748
0.1838
0.0975726
0.221781
0.0714299
0.081682
0.123706
0.0334618
0.0348292
0.196243
0.0635973
0.0558001
0.0845606
0.0611117
0.146878
0.0726562
0.0456431
0.0730824
0.0929723
0.110687
0.135636
0.0556922
0.175316
0.0486541
0.0629062
0.179077
0.0792241
0.0529863
0.126916
0.102503
0.107322
0.0777011
0.124894
0.151518
0.150051
0.0865323
0.144693
0.0329075
0.069456
0.156602
0.0418831
0.115853
0.0669862
0.101709
0.0512875
0.413361
0.170058
0.096904
0.108941
0.159547
0.0648328
0.0867798
0.0720073
0.0716738
0.0461927
0.176981
0.112353
0.09125
0.0637064
0.0968382
0.170965
0.18467
0.087738
0.101319
0.0984425
0.0969919
0.0647114
0.170289
0.0856221
0.176191
0.103231
0.0802185
0.132106
0.120665
0.0637689
0.0600803
0.0511388
0.0789399
0.136109
0.0659258
0.0708397
0.157997
0.130678
0.137673
0.0727069
0.142741
0.201569
0.0873013
0.0375871
0.06388
0.0561518
0.121853
0.106265
0.0711306
0.0578228
0.0822574
0.0377716
0.13363
0.0388356
0.171165
0.098178
0.183024
0.0784555
0.133283
0.0967792
0.0903904
0.301658
0.121096
0.0898896
0.0672001
0.0964583
0.123103
0.0989285
0.0938322
0.142771
0.117186
0.0792938
0.040477
0.0968339
0.0641345
0.0808579
0.0694284
0.0493097
0.0478749
0.0445534
0.0451983
0.124616
0.129488
0.116498
0.108675
0.049971
0.101964
0.10171
0.049457
0.0478515
0.0455222
0.141559
0.043596
0.0414561
0.192409
0.0516679
0.174439
0.0324158
0.105194
0.36647
0.156955
0.0672215
0.165624
0.059201
0.120851
0.141277
0.0932586
0.069579
0.111585
0.0859663
0.0733217
0.0652391
0.164146
0.11097
0.0944245
0.105733
0.108211
0.0761926
0.138606
0.0990876
0.182839
0.0800444
0.0657217
0.10332
0.188484
0.0614014
0.060662
0.187763
0.162357
0.128882
0.112517
0.110874
0.164204
0.0630116
0.0792102
0.315571
0.088415
0.10872
0.112973
0.111645
0.151725
0.0687904
0.150427
0.0647859
0.0783646
0.116932
0.0676901
0.1212
0.0682102
0.100256
0.0904543
0.133734
0.0688356
0.129819
0.0889053
0.0932939
0.0797349
0.093329
0.0552605
0.139918
0.12808
0.122847
0.138142
0.151961
0.301672
0.123777
0.156301
0.130053
0.0647119
0.0935542
0.0876189
0.0965585
0.0709207
0.0888275
0.130167
0.0405062
0.0909592
0.16519
0.173584
0.0384524
0.0622563
0.0793443
0.115279
0.093687
0.170971
0.0271961
0.0896144
0.0842289
0.0761831
0.0599068
0.0644841
0.0887978
0.0618364
0.156445
0.285413
0.0649979
0.0579535
0.281739
0.121055
0.135468
0.0799095
0.0358149
0.0637814
0.0643687
0.0454656
0.178035
0.138062
0.178485
0.0717312
0.10451
0.0712208
0.0643906
0.168293
0.0665505
0.147305
0.116173
0.111254
0.0809769
0.23479
0.040115
0.0956054
0.18305
0.115269
0.181579
0.136761
0.185562
0.0962276
0.0651097
0.16025
0.152167
0.051712
0.111849
0.14221
0.079099
0.16661
0.0820152
0.177713
0.0587899
0.0849293
0.0986352
0.0591766
0.0877441
0.065531
0.0503411
0.0327466
0.0881518
0.135207
0.108193
0.0828902
0.0921078
0.063561
0.133179
0.182156
0.0846047
0.097158
0.172929
0.0695524
0.132695
0.0326975
0.0564749
0.0860478
0.080855
0.032162
0.045269
0.089797
0.0599616
0.105598
0.172461
0.0548381
0.161658
0.0651568
0.0783614
0.0503411
0.125231
0.149803
0.0746133
0.343841
0.0642331
0.104432
0.0964424
0.0972368
0.0557147
0.0684273
0.128128
0.0303513
0.200249
0.082603
0.0390743
0.181275
0.080721
0.0472164
0.0617638
0.042195
0.15901
0.0457542
0.064302
0.22267
0.0824795
0.103194
0.0774679
0.0865284
0.105066
0.087823
0.145168
0.128551
0.0853905
0.0885212
0.0560419
0.0685785
0.065034
0.0920691
0.0895815
0.0955634
0.118701
0.121109
0.153772
0.092913
0.17882
0.0403679
0.142658
0.12901
0.098114
0.0370126
0.0557306
0.179379
0.196363
0.077679
0.168319
0.0788222
0.0667726
0.0659336
0.0791691
0.0577245
0.236794
0.0781806
0.0768407
0.0521314
0.141075
0.0685261
0.0702235
0.12534
0.0610693
0.0964196
0.126022
0.0495847
0.197977
0.0661112
0.120613
0.0959525
0.063294
0.063704
0.193258
0.128256
0.0556645
0.0993361
0.0805601
0.121227
0.153523
0.335144
0.178124
0.165937
0.0697598
0.0649151
0.137606
0.071003
0.341344
0.0834304
0.115235
0.0595224
0.0744098
0.0462568
0.155163
0.0761425
0.116968
0.0723489
0.142191
0.108008
0.0670432
0.236908
0.104562
0.104129
0.226736
0.0759064
0.21454
0.0824049
0.109815
0.108209
0.06962
0.115392
0.172113
0.133691
0.291458
0.0931625
0.0670239
0.079273
0.277645
0.0899362
0.0648114
0.180556
0.0614869
0.0610232
0.13781
0.123338
0.0681765
0.0682278
0.188024
0.1317
0.049571
0.0486813
0.0765864
0.237699
0.0472477
0.39295
0.0829046
0.0800053
0.0770671
0.0574338
0.0719622
0.0775422
0.134822
0.144939
0.177216
0.109255
0.109941
0.133229
0.115266
0.18778
0.0876803
0.134485
0.332016
0.0786429
0.0938013
0.0873259
0.0929625
0.0994767
0.0280153
0.0871038
0.166891
0.0785104
0.337318
0.0399984
0.136931
0.0676323
0.128656
0.121102
0.348991
0.0357139
0.124169
0.169693
0.176866
0.136098
0.0902215
0.0641203
0.0817338
0.119658
0.218395
0.0679117
0.0904982
0.0619142
0.15235
0.126235
0.0566385
0.165499
0.138275
0.113384
0.233006
0.0954823
0.260699
0.133781
0.0969701
0.0552059
0.0681129
0.145678
0.0563475
0.120149
0.0870669
0.0953085
0.120234
0.158031
0.126274
0.072186
0.0698738
0.0604395
0.0326677
0.0760062
0.0624157
0.0977162
0.106965
0.0836813
0.101642
0.0792968
0.0777766
0.0739054
0.179927
0.162
0.183374
0.0647666
0.120987
0.0559764
0.0621218
0.0897723
0.103496
0.0507264
0.198351
0.0749864
0.147851
0.273248
0.028938
0.0589874
0.112341
0.0628822
0.0692707
0.0320154
0.0566365
0.0400558
0.0817768
0.122399
0.120267
0.0496824
0.0777417
0.121237
0.0592823
0.182425
0.0670393
0.103526
0.145619
0.0709566
0.12756
0.045759
0.173024
0.125664
0.154211
0.0626628
0.0420517
0.102087
0.121086
0.163257
0.0525785
0.176647
0.136364
0.102137
0.0601614
0.0673464
0.192758
0.0459137
0.182716
0.121386
0.112216
0.0715927
0.0928152
0.145547
0.063207
0.177763
0.0724804
0.0567216
0.155248
0.29119
0.0795341
0.131538
0.0939375
0.116573
0.101117
0.046663
0.123574
0.120911
0.0638512
0.084522
0.106219
0.187511
0.184146
0.0638229
0.100771
0.17579
0.190258
0.175353
0.100048
0.134153
0.17068
0.1718
0.120328
0.0604433
0.153892
0.135738
0.0927601
0.0540009
0.132282
0.0580045
0.0830373
0.27148
0.0442949
0.144924
0.083492
0.0872042
0.100892
0.128125
0.0824384
0.0723778
0.141456
0.0883377
0.138529
0.141106
0.193009
0.155666
0.124667
)
;

boundaryField
{
    frontAndBack
    {
        type            empty;
    }
    wallOuter
    {
        type            kqRWallFunction;
        value           nonuniform List<scalar> 
102
(
0.0210051
0.0210051
0.102723
0.0342313
0.0256884
0.0355126
0.0392027
0.0369967
0.0439264
0.0416837
0.0470672
0.040375
0.0513574
0.039221
0.0609695
0.136723
0.0392344
0.0828676
0.072287
0.078136
0.0402925
0.0291789
0.0402682
0.0678321
0.142883
0.0334618
0.0348292
0.0329075
0.0669862
0.0377716
0.0388356
0.0493097
0.0478749
0.0445534
0.0451983
0.124616
0.129488
0.116498
0.108675
0.049971
0.101964
0.10171
0.049457
0.0478515
0.0455222
0.043596
0.0414561
0.0324158
0.105194
0.111585
0.0733217
0.11097
0.108211
0.112517
0.110874
0.0792102
0.112973
0.111645
0.100256
0.0904543
0.0965585
0.0405062
0.0384524
0.0271961
0.0618364
0.0358149
0.10451
0.040115
0.0956054
0.079099
0.0849293
0.0986352
0.0327466
0.0881518
0.108193
0.0846047
0.0326975
0.032162
0.105598
0.0746133
0.104432
0.0303513
0.042195
0.0457542
0.105066
0.0685785
0.0955634
0.0370126
0.0791691
0.071003
0.1317
0.049571
0.0280153
0.0399984
0.0357139
0.0902215
0.0563475
0.072186
0.0326677
0.028938
0.0320154
0.0400558
)
;
    }
    inlet
    {
        type            fixedValue;
        value           nonuniform 0();
    }
    outlet
    {
        type            zeroGradient;
    }
    wallInner
    {
        type            kqRWallFunction;
        value           nonuniform List<scalar> 
138
(
0.0592218
0.0356238
0.147651
0.114081
0.123918
0.14092
0.118825
0.170631
0.10084
0.042802
0.155245
0.151296
0.0483799
0.136073
0.0426744
0.11154
0.136053
0.139235
0.143174
0.159975
0.10933
0.0432959
0.0437018
0.0466086
0.0421186
0.0431119
0.046388
0.0452888
0.137976
0.047361
0.0440223
0.0461615
0.0860609
0.10345
0.050815
0.0388447
0.0441026
0.0417173
0.0502428
0.0403484
0.0498325
0.0396824
0.0972478
0.0817248
0.0736172
0.0406206
0.0469619
0.100863
0.0425451
0.0422934
0.0470627
0.0587851
0.0422756
0.0511087
0.0410805
0.0484794
0.0430786
0.157979
0.112928
0.114653
0.0473833
0.03937
0.0403684
0.0452249
0.0441206
0.0407452
0.0427305
0.064749
0.0605165
0.0710439
0.0491189
0.0561798
0.0479266
0.0415854
0.132831
0.0479189
0.120208
0.0560731
0.151431
0.213175
0.110422
0.119148
0.0577504
0.0768048
0.0566554
0.130064
0.139605
0.168367
0.119193
0.141193
0.133798
0.0508979
0.048537
0.119948
0.120816
0.106475
0.126162
0.129801
0.117419
0.113861
0.0966133
0.0606918
0.0569487
0.0548292
0.123148
0.145251
0.0893977
0.0586762
0.0536756
0.0613748
0.0456431
0.175316
0.0486541
0.0418831
0.0461927
0.0375871
0.040477
0.0516679
0.059201
0.1212
0.12808
0.122847
0.0709207
0.0809769
0.14221
0.0564749
0.0390743
0.080721
0.128551
0.0403679
0.153523
0.182716
0.141456
0.0883377
0.141106
0.193009
0.155666
0.124667
)
;
    }
    procBoundary2to0
    {
        type            processor;
        value           nonuniform List<scalar> 
42
(
0.428108
0.428108
0.207804
0.200095
0.200373
0.407749
0.196763
0.196763
0.116399
0.0715867
0.388632
0.388632
0.313418
0.481859
0.564853
0.355026
0.497972
0.067475
0.0826593
0.135671
0.114782
0.0661254
0.0661254
0.129231
0.114782
0.0709012
0.168537
0.0817717
0.168537
0.484903
0.535244
0.0969522
0.107349
0.108894
0.109163
0.200095
0.497972
0.141324
0.297957
0.151365
0.151365
0.112814
)
;
    }
    procBoundary2to1
    {
        type            processor;
        value           uniform 0.14474;
    }
    procBoundary2to3
    {
        type            processor;
        value           nonuniform List<scalar> 
29
(
0.149945
0.154415
0.166063
0.159944
0.102076
0.130875
0.105556
0.125269
0.174156
0.164844
0.137143
0.120587
0.120677
0.18406
0.131889
0.268369
0.238034
0.238034
0.154415
0.18406
0.152407
0.258866
0.105971
0.175166
0.116564
0.28787
0.174156
0.135488
0.120587
)
;
    }
}


// ************************************************************************* //
