/*--------------------------------*- C++ -*----------------------------------*\
| =========                 |                                                 |
| \\      /  F ield         | OpenFOAM: The Open Source CFD Toolbox           |
|  \\    /   O peration     | Version:  v1912                                 |
|   \\  /    A nd           | Website:  www.openfoam.com                      |
|    \\/     M anipulation  |                                                 |
\*---------------------------------------------------------------------------*/
FoamFile
{
    version     2.0;
    format      ascii;
    class       volScalarField;
    location    "0.13";
    object      nut;
}
// * * * * * * * * * * * * * * * * * * * * * * * * * * * * * * * * * * * * * //

dimensions      [0 2 -1 0 0 0 0];


internalField   nonuniform List<scalar> 
1466
(
0.000876363
0.000759465
0.000789258
0.000752967
0.000689642
0.000576299
0.00112186
0.00116013
0.000802694
0.000973461
0.000337485
0.00124907
0.0001415
0.000465321
0.000822123
0.000595703
0.000161494
0.000807479
0.000964131
0.000522496
0.000820169
0.00107333
0.000363052
0.000845568
0.000520946
0.000861828
0.00103513
0.00132405
0.000583339
0.000506815
0.000816955
0.000793643
0.00102358
0.000754471
0.000857452
0.000845054
0.000681872
0.000695467
0.000921145
0.000853502
0.00128929
0.00124215
0.000661442
0.0010001
0.00139935
0.000636219
0.000800418
0.000520356
0.00121288
0.000817491
0.00095579
0.000533867
0.000550981
0.000474941
0.000645794
0.00103346
0.000482869
0.0012086
0.000846392
0.00102283
0.000587266
0.000503309
0.00069626
0.0005774
0.00103164
0.000663823
0.00107666
0.000824925
0.000776717
0.000967167
0.000809303
0.000707098
0.000577309
0.000636554
0.000180576
0.00121753
0.000620752
0.000687478
0.000873925
0.00100674
0.00058015
0.000560757
0.00080396
0.00118037
0.000659746
0.00081848
0.000661887
0.00102331
0.000658878
0.000837659
0.000692064
0.000280297
0.000999714
0.000746356
0.000972521
0.000692709
0.000939662
0.000972565
0.000859479
0.000674686
0.000678254
0.00136502
0.000871112
0.000546558
0.000777174
0.000631698
0.000830002
0.000793035
0.000873924
0.000722322
0.000709892
0.000666052
0.000654997
0.000737973
0.000170285
0.000909498
0.000312406
0.000391413
0.000850457
0.00125716
0.000705447
0.000829503
0.000310279
0.00103138
0.000726175
0.00118841
0.00064525
0.000515029
0.0010593
0.00090429
0.00110686
0.000616817
0.000797886
0.00117831
0.00086371
0.000985164
0.00127181
0.00073339
0.001337
0.000438307
0.000595243
0.000273837
0.00113281
0.000943113
0.00136126
0.000417779
0.000463232
0.000686721
0.00114206
0.000615223
0.00113245
0.000736076
0.000825371
0.0010272
0.000655882
0.000896094
0.000717857
0.00139656
0.00107045
0.000739087
0.00138372
0.000660523
0.00105969
0.000695589
0.00132824
0.0009647
0.000872561
0.000429909
0.000675452
0.001178
0.000710999
0.000819048
0.000638323
0.00106712
0.000924993
0.00101399
0.00128755
0.00102835
0.000829788
0.001019
0.000800091
0.00082779
0.00112637
0.000695321
0.00103592
0.000409036
0.000843309
0.000909047
0.000851174
0.000466417
0.000414042
0.000350635
0.000665942
0.0010422
0.000814904
0.000680306
0.00130006
0.000828172
0.000759952
0.000612062
0.00115321
0.000884207
0.000784675
0.000679229
0.000718683
0.00117394
0.000836037
0.000668216
0.000829865
0.000509932
0.000812908
0.00139828
0.000918493
0.000818559
0.00085727
0.000849456
0.000923807
0.000261349
0.000461219
0.000696771
0.00131437
0.000836375
0.000601984
0.000810429
0.00100762
0.000830029
0.000502539
0.000562902
0.000749518
0.000840227
0.000811176
0.00100907
0.000592457
0.000972923
0.000814906
0.000767289
0.000986141
0.000799904
0.00102078
0.00060602
0.000819382
0.00105055
0.000296353
0.00129986
0.00123591
0.000274977
0.000315811
0.00027061
0.000272215
0.000271986
0.000590096
0.000906795
0.00116206
0.000989885
0.000651211
0.000922604
0.000649803
0.00088034
0.00104265
0.00123452
0.000829689
0.00079564
0.000885915
0.000766549
0.000543042
0.000642281
0.000792742
0.00105383
0.000859263
0.000695776
0.000865978
0.000814809
0.00082369
0.000535445
0.000767443
0.00105961
0.000997103
0.000810324
0.00060711
0.00119873
0.00080199
0.000276551
0.000271026
0.000575663
0.000849357
0.000762033
0.000995071
0.000342612
0.00124025
0.000496836
0.000837765
0.000789926
0.00116565
0.00119052
0.00112948
0.000901018
0.000916141
0.00124871
0.000976798
0.000372151
0.000671048
0.00134547
0.000453209
0.00114035
0.000757792
0.000775292
0.000732459
0.00107661
0.000183519
0.00157849
0.000850329
0.000877804
0.000874565
0.00125594
0.00114901
0.000837959
0.0010997
0.000710915
0.00131775
0.000651484
0.000841805
0.000970842
0.0011142
0.000361763
0.00037885
0.000304709
0.000266594
0.000295483
0.000293625
0.000347372
0.000240708
0.00027536
0.00028254
0.000483477
0.000328541
0.00032981
0.000201766
0.000368205
0.000340682
0.000300275
0.000313671
0.000334388
0.000313202
0.000269212
0.000365157
0.000307264
0.000304916
0.000276081
0.000788845
0.00123719
0.00110752
0.000839204
0.00110048
0.00107002
0.00105881
0.000868992
0.00125103
0.000521778
0.00138794
0.000915699
0.00124184
0.00100287
0.000949901
0.000530768
0.000420048
0.000363304
0.000260885
0.000290858
0.000343091
0.000341757
0.00029718
0.000273319
0.000359378
0.000296297
0.000317554
0.00025145
0.000308928
0.00178357
0.000773716
0.000267245
0.000741582
0.00114404
0.00115242
0.000800957
0.00102972
0.000971744
0.000417692
0.000854348
0.000944736
0.000668555
0.00108177
0.000891052
0.000985906
0.000939569
0.00019128
0.000802184
0.000950267
0.0007082
0.000768139
0.00023287
0.000440929
0.000749376
0.000978531
0.000850962
0.00113584
0.000857148
0.000945264
0.00111462
0.000845745
0.000811232
0.000847947
0.00102624
0.000249953
0.000412881
0.000851243
0.00119262
0.000946066
0.000966607
0.00115
0.00123334
0.00101083
0.000339659
0.00105572
0.000827324
0.000781484
0.000662081
0.000981002
0.000947516
0.000892041
0.000902012
0.000954751
0.000845664
0.000985996
0.00134492
0.000584171
0.00122168
0.000941087
0.000995734
0.00141546
0.00113918
0.000574851
0.000777604
0.00149759
0.00138946
0.00118656
0.000981783
0.000978484
0.000940408
0.00135385
0.00104187
0.00154158
0.000907769
0.00105721
0.000990901
0.00104369
0.00136321
0.000946179
0.000973922
0.000388693
0.00116726
0.00109399
0.000999379
0.00100634
0.00109339
0.00149942
0.000447823
0.00115575
0.000837958
0.00089049
0.000271298
0.00132069
0.00142988
0.00119944
0.0011798
0.000934974
0.000950743
0.000327997
0.000281729
0.000783105
0.000861013
0.000853848
0.000839743
0.000884831
0.000866652
0.00087514
0.000818579
0.000863975
0.000857199
0.000927135
0.00125906
0.000897432
0.000854218
0.000904494
0.000842614
0.00054302
0.000766071
0.000883128
0.00118612
0.000477846
0.000523999
0.000831258
0.000879869
0.000452488
0.00100501
0.000841969
0.000974928
0.00120029
0.00128877
0.000930557
0.00124388
0.000952274
0.00074236
0.00102058
0.00131037
0.00101674
0.0010601
0.000891115
0.000923465
0.00105697
0.00115394
0.00108157
0.000854969
0.00141146
0.000561357
0.000451869
0.000767233
0.00147028
0.00134395
0.000325433
0.000860201
0.000860255
0.000942503
0.00112962
0.00101536
0.00133351
0.00137623
0.00133286
0.00134134
0.000817365
0.000738833
0.00136728
0.0010191
0.000991799
0.00115599
0.00109264
0.00101275
0.000292103
0.000847182
0.000928956
0.00082741
0.000874814
0.000668821
0.00112254
0.0010039
0.000950484
0.000974612
0.000949095
0.000812859
0.000954653
0.00109105
0.000684791
0.000998765
0.000976412
0.000823234
0.001172
0.0010319
0.000841968
0.000666684
0.0010033
0.000896514
0.00041406
0.00123148
0.000941768
0.00140157
0.000884267
0.000904793
0.000573834
0.000846842
0.000994183
0.000908832
0.00104544
0.000522689
0.000944271
0.000953959
0.000777636
0.00180393
0.000661846
0.000951618
0.00102562
0.000822289
0.000442018
0.00042506
0.00133654
0.000943252
0.000908547
0.00091501
0.00103453
0.00110747
0.000879836
0.000944096
0.00124095
0.000790409
0.000849232
0.000932093
0.000814608
0.000787937
0.000944359
0.000817657
0.00083912
0.000945046
0.00106596
0.000718244
0.000798442
0.000963059
0.000471126
0.000855387
0.000822453
0.000504554
0.00119152
0.000841539
0.000709489
0.000841369
0.000439534
0.00108095
0.0009053
0.000916894
0.000943208
0.000814462
0.000848213
0.00107906
0.000880464
0.000868659
0.00101064
0.000436187
0.000986771
0.00105827
0.000957757
0.00101029
0.000891855
0.000870231
0.000853206
0.0013795
0.000463174
0.00127837
0.000753924
0.00127562
0.000988094
0.00117453
0.000796945
0.000856536
0.000664334
0.00108757
0.00105517
0.0010607
0.00105058
0.000784148
0.000705437
0.00103538
0.000855092
0.00102533
0.000581418
0.000943131
0.00137923
0.000562836
0.00074971
0.00107964
0.000896413
0.000895817
0.000999445
0.00111507
0.000842821
0.000709134
0.000595191
0.000967633
0.000410909
0.000392958
0.000825611
0.000989062
0.000813935
0.000828573
0.000935908
0.000683638
0.000215032
0.000945723
0.00115389
0.000744612
0.000743644
0.000822582
0.000330665
0.001068
0.000644174
0.000814165
0.00133851
0.00113132
0.00136713
0.000709862
0.00111606
0.000845333
0.00110161
0.00109118
0.000966498
0.000912181
0.00105335
0.0012171
0.00121439
0.000844272
0.000985733
0.00115553
0.000948617
0.000884615
0.000786295
0.000310189
0.00107554
0.000771645
0.000791568
0.000622266
0.00104595
0.000970479
0.000768113
0.00108891
0.000961353
0.000965176
0.00095576
0.00103633
0.000819351
0.000839095
0.000950698
0.000696192
0.00131087
0.00128867
0.000886147
0.000821896
0.0010424
0.000208564
0.000214629
0.000847348
0.000210625
0.000236949
0.000372002
0.00169148
0.000454691
0.000218581
0.000206347
0.00022554
0.000333715
0.000781555
0.000166291
0.000883784
0.000606926
0.00121955
0.000932779
0.000289425
0.00057396
0.00110114
0.000956284
0.000870989
0.00128353
0.000858802
0.000921942
0.00045954
0.000265762
0.000861181
0.00110321
0.000952272
0.000851011
0.000773193
0.000784851
0.000279553
0.000947271
0.000967057
0.000944591
0.000668063
0.000486046
0.000270578
0.00108627
0.000908447
0.000606544
0.00115543
0.000683259
0.000718715
0.000958611
0.00130264
0.000166327
0.000187535
0.00108532
0.00113833
0.000981802
0.000696893
0.000685743
0.000335161
0.000612343
0.00072521
0.000963425
0.000755883
0.000903931
0.000824648
0.000959105
0.000675638
0.00123958
0.000315079
0.000448854
0.000949778
0.000968233
0.000945909
0.000914015
0.000322397
0.0010638
0.000680777
0.000943399
0.000857668
0.00115502
0.000309309
0.000721208
0.00113989
0.000648212
0.000672728
0.000793527
0.000334213
0.000998504
0.000666668
0.00111411
0.000702749
0.000923963
0.00106197
0.000164774
0.000171035
0.000889019
0.000835909
0.000614077
0.000716254
0.0006036
0.00121679
0.000768373
0.00033559
0.000821307
0.000655077
0.000616025
0.00109509
0.000410001
0.000579999
0.000286474
0.000727614
0.00135375
0.000892589
0.000548373
0.00105325
0.00106258
0.00110775
0.000899971
0.00105286
0.00118307
0.00108293
0.000943716
0.00112855
0.00017225
0.000876401
0.00115434
0.000267079
0.000760562
0.00025552
0.000653674
0.000509444
0.00163575
0.00102069
0.000798937
0.000667232
0.000805147
0.000739722
0.000960894
0.00070652
0.000865672
0.000254271
0.00122124
0.000902198
0.000930541
0.000843962
0.00058492
0.00100945
0.00100877
0.000934751
0.000583402
0.00101469
0.000810355
0.00083344
0.000848996
0.000788881
0.00101169
0.000698299
0.000907617
0.000748041
0.00102861
0.000844912
0.000464123
0.00035849
0.000926717
0.00087777
0.000861937
0.00090661
0.00122192
0.00111593
0.000850714
0.00089694
0.000961237
0.00129204
0.000957106
0.000209378
0.000845244
0.000662077
0.00118994
0.000906324
0.000605595
0.000688823
0.000842169
0.000167442
0.00101956
0.000181681
0.00099209
0.000638504
0.00104426
0.000789321
0.000979794
0.000629237
0.000922254
0.00138037
0.00103514
0.000651347
0.000852746
0.0010373
0.0010038
0.000966467
0.000590981
0.000988481
0.00113671
0.000899458
0.000256896
0.000784498
0.00084625
0.000891765
0.000810136
0.000211987
0.000200696
0.000166913
0.000183827
0.000317828
0.000291386
0.000314503
0.000285971
0.000218433
0.000260742
0.000267664
0.000219889
0.000214948
0.000204711
0.000858065
0.00019421
0.000186865
0.00130525
0.00031079
0.00120327
0.00016618
0.000288837
0.00154139
0.00119038
0.000549732
0.000824866
0.000325994
0.00102221
0.0007571
0.000885999
0.000821736
0.000329257
0.000965758
0.000303903
0.000749449
0.00118249
0.000331585
0.000803312
0.000678807
0.000309149
0.000604833
0.00108713
0.000715034
0.00100458
0.000858003
0.000851674
0.000977351
0.000798578
0.000665672
0.000654057
0.00126822
0.000896729
0.000543033
0.000332168
0.000323101
0.00119657
0.000781337
0.000275357
0.0014017
0.00092127
0.00081079
0.000332456
0.000329814
0.000945732
0.000846093
0.00124029
0.00045842
0.000606621
0.000605905
0.000550968
0.000415927
0.000829185
0.000314131
0.000378177
0.00115229
0.00083624
0.00114995
0.000795314
0.000710818
0.000912125
0.000833834
0.000673446
0.000752744
0.000372505
0.000419709
0.000944545
0.00136364
0.00122691
0.00119382
0.00066528
0.000735046
0.00084879
0.000898501
0.000869401
0.000365851
0.000253518
0.000864582
0.000773667
0.000197985
0.000967122
0.000882026
0.000981563
0.000185535
0.000788873
0.000861451
0.00114175
0.000997576
0.00089174
0.000172687
0.000958939
0.000812393
0.000720724
0.000547414
0.000851264
0.000914607
0.000244963
0.00122496
0.00133827
0.000840849
0.000419676
0.00149872
0.00083665
0.000760684
0.000828036
0.000177912
0.000757772
0.000771142
0.000441991
0.000982276
0.00121434
0.00136167
0.000857605
0.000391252
0.000732808
0.000714869
0.000955062
0.00058972
0.0013291
0.000808752
0.000934026
0.000308396
0.00115747
0.000213664
0.00034464
0.00126624
0.000876184
0.00138546
0.000866878
0.00135662
0.00100865
0.000691815
0.00108822
0.00117374
0.000522733
0.000803839
0.000390548
0.000320849
0.00108355
0.000966635
0.000996937
0.000699608
0.000384344
0.000342122
0.000737242
0.000914665
0.000820352
0.000490088
0.000173343
0.000302854
0.00117999
0.000333772
0.000989023
0.000976971
0.000817831
0.000832828
0.00130552
0.000309049
0.000448976
0.000638631
0.000734498
0.00114259
0.000172083
0.000319611
0.000936395
0.00085932
0.000161041
0.000366931
0.000448618
0.000729507
0.000378804
0.00131336
0.00058653
0.00108209
0.000841228
0.000902247
0.000493723
0.000836831
0.00115294
0.000275605
0.00148487
0.000839572
0.000326624
0.000920016
0.000833183
0.000575055
0.000770004
0.000993415
0.000170807
0.000867229
0.000947889
0.00023675
0.000902144
0.000288391
0.000507433
0.000448062
0.000182293
0.00118339
0.000174955
0.000710176
0.00138273
0.000888696
0.00103541
0.000897311
0.000792924
0.000391215
0.000947334
0.000778332
0.000479104
0.000597116
0.000901826
0.000635606
0.00023063
0.000783851
0.000784877
0.000924445
0.00030675
0.000797247
0.000764616
0.000882561
0.000569275
0.00131044
0.000252335
0.00130881
0.000825671
0.000551437
0.000139666
0.000488271
0.00117057
0.000813493
0.000892782
0.000871106
0.000926373
0.000865507
0.000506763
0.000302251
0.000547222
0.00116869
0.000879539
0.000898334
0.000485991
0.000603578
0.000870152
0.000904257
0.00058909
0.000774508
0.000590549
0.00100076
0.000550645
0.00104935
0.00087012
0.000824936
0.00101762
0.000819996
0.000831713
0.000894292
0.000840066
0.000665129
0.00097192
0.000913373
0.00104672
0.000466364
0.0016106
0.000979265
0.000894397
0.000875734
0.000849345
0.000749786
0.000248994
0.00148402
0.000900906
0.0006238
0.00071962
0.000674803
0.000436948
0.000851682
0.000425186
0.00102351
0.00072527
0.00087471
0.000526122
0.000420475
0.00106833
0.000647553
0.000801363
0.0011389
0.000896964
0.00109715
0.000624435
0.0010086
0.000908275
0.000814217
0.000804448
0.000983041
0.00117925
0.00136643
0.000962546
0.000553459
0.000936008
0.00143873
0.000952487
0.000748569
0.000746407
0.000649197
0.000729931
0.00127738
0.000867054
0.000573581
0.000757069
0.00104157
0.000235213
0.000143986
0.000350517
0.000894365
0.00108368
0.000401297
0.00163265
0.000889841
0.000831954
0.000780122
0.000721383
0.000798855
0.000910959
0.000880631
0.000478271
0.000986969
0.000773329
0.000606477
0.00100916
0.00107876
0.000901296
0.00062504
0.00118386
0.00146051
0.000871505
0.000594627
0.000824177
0.000919716
0.000935143
0.000171776
0.00093961
0.000914499
0.00089604
0.00144633
0.000192211
0.000816849
0.000869738
0.000775162
0.000879469
0.00143143
0.000129102
0.00112119
0.00130943
0.00074695
0.000857724
0.000305754
0.00079069
0.000934242
0.000824848
0.00136698
0.000836919
0.000802841
0.000766274
0.00115663
0.000743346
0.000654352
0.000924597
0.00109844
0.000891475
0.00101149
0.000938951
0.00147873
0.000839247
0.000789492
0.000600924
0.000542043
0.000640527
0.000231197
0.00105648
0.000650028
0.000549222
0.000722599
0.000890657
0.00105603
0.000238721
0.000635044
0.000552063
0.000163924
0.000918083
0.000749901
0.000700371
0.000557066
0.000922319
0.000523688
0.000875521
0.000624671
0.000537137
0.00132832
0.00117074
0.00100659
0.000852845
0.00118157
0.00059568
0.000584373
0.000497944
0.00066061
0.000536635
0.000880125
0.000909473
0.00116893
0.00129113
0.000171632
0.000714892
0.000926826
0.000778921
0.000819436
0.00016114
0.000410465
0.000186151
0.000908509
0.000852462
0.0008085
0.000558645
0.000844204
0.00106937
0.000739174
0.000556209
0.000502957
0.000672138
0.00132441
0.00089233
0.00110789
0.000385471
0.00101888
0.000856944
0.00119211
0.000818162
0.000329368
0.000681111
0.000981187
0.00113248
0.000545071
0.00110651
0.00125945
0.000788921
0.0007139
0.000705007
0.00128094
0.000375841
0.000618098
0.000676871
0.00101401
0.000546165
0.000617999
0.000865673
0.000832973
0.00074359
0.000569481
0.000648373
0.00120407
0.00133653
0.000888279
0.000818856
0.000608404
0.000974251
0.000711784
0.000349057
0.000736818
0.000568455
0.000469924
0.000638112
0.000944138
0.000767661
0.000901653
0.000664436
0.000487871
0.000701142
0.000898105
0.00102754
0.000409991
0.000823793
0.000941855
0.000840745
0.00099783
0.000440615
0.000993898
0.000907975
0.000690152
0.000518139
0.001109
0.000620575
0.00090575
0.00149622
0.000310023
0.00112059
0.000815418
0.00079702
0.000610086
0.00121694
0.000809323
0.000567739
0.000481463
0.000496793
0.000481121
0.00046148
0.000523834
0.000670678
0.000512216
)
;

boundaryField
{
    frontAndBack
    {
        type            empty;
    }
    wallOuter
    {
        type            nutkWallFunction;
        Cmu             0.09;
        kappa           0.41;
        E               9.8;
        value           nonuniform List<scalar> 
102
(
1.49936e-05
1.49936e-05
4.31901e-05
2.03494e-05
1.90692e-05
2.05736e-05
2.1527e-05
2.51449e-05
2.43097e-05
2.51692e-05
2.45348e-05
2.82191e-05
2.55258e-05
2.3991e-05
2.58731e-05
4.07361e-05
1.79515e-05
3.40808e-05
3.12502e-05
3.29051e-05
3.26721e-05
1.83448e-05
2.0936e-05
3.75374e-05
5.5475e-05
1.79737e-05
1.87827e-05
1.91608e-05
3.00461e-05
1.81921e-05
2.02684e-05
2.42813e-05
2.28646e-05
1.82707e-05
2.07158e-05
3.81902e-05
3.49785e-05
3.75614e-05
3.37289e-05
2.50707e-05
3.03976e-05
3.1579e-05
2.5247e-05
2.46017e-05
2.33318e-05
2.19526e-05
2.09689e-05
1.82769e-05
3.46895e-05
3.9762e-05
3.60645e-05
3.99108e-05
3.75436e-05
4.0274e-05
3.94017e-05
3.24067e-05
4.04419e-05
4.02171e-05
3.73907e-05
4.52113e-05
4.35631e-05
2.279e-05
2.10507e-05
1.93671e-05
2.87966e-05
1.97779e-05
4.67153e-05
2.4547e-05
4.08786e-05
3.81779e-05
4.60822e-05
4.06007e-05
1.92156e-05
3.57112e-05
4.00414e-05
3.65012e-05
1.91275e-05
1.75172e-05
4.52799e-05
3.23244e-05
3.90631e-05
1.89591e-05
2.01372e-05
1.91067e-05
4.67705e-05
2.6634e-05
3.63533e-05
1.42771e-05
3.56642e-05
2.89647e-05
2.76418e-05
1.47881e-05
1.92083e-05
2.19886e-05
1.2976e-05
3.61308e-05
2.71062e-05
2.77303e-05
1.79029e-05
1.91485e-05
1.75466e-05
2.07052e-05
)
;
    }
    inlet
    {
        type            calculated;
        value           nonuniform 0();
    }
    outlet
    {
        type            calculated;
        value           nonuniform 0();
    }
    wallInner
    {
        type            nutkWallFunction;
        Cmu             0.09;
        kappa           0.41;
        E               9.8;
        value           nonuniform List<scalar> 
138
(
4.03767e-05
1.77863e-05
6.94549e-05
6.17523e-05
6.47627e-05
6.79638e-05
5.89233e-05
7.71048e-05
6.12801e-05
3.38806e-05
8.08112e-05
6.76107e-05
3.74455e-05
7.17595e-05
3.29779e-05
5.09251e-05
5.78361e-05
5.3134e-05
5.76717e-05
5.13421e-05
4.22115e-05
3.12722e-05
3.6028e-05
3.29283e-05
3.88865e-05
3.24877e-05
3.26137e-05
3.25584e-05
6.71957e-05
3.31452e-05
3.24807e-05
4.20833e-05
4.28875e-05
4.72197e-05
3.64944e-05
3.21983e-05
3.60184e-05
3.58897e-05
4.24029e-05
2.8592e-05
3.21899e-05
3.43993e-05
5.84279e-05
4.09041e-05
3.86894e-05
2.34274e-05
4.55416e-05
3.91631e-05
3.67897e-05
3.81529e-05
4.03899e-05
3.77982e-05
3.23108e-05
4.46118e-05
3.78253e-05
3.56463e-05
3.34179e-05
6.46453e-05
6.4799e-05
5.04962e-05
4.47046e-05
3.13256e-05
3.55629e-05
4.19814e-05
4.14375e-05
3.64947e-05
3.3123e-05
4.14482e-05
3.45119e-05
3.76347e-05
3.07519e-05
3.70588e-05
3.20147e-05
2.78017e-05
5.22394e-05
2.99874e-05
4.97478e-05
4.22358e-05
6.96211e-05
6.71293e-05
4.73454e-05
5.32976e-05
3.25601e-05
3.98636e-05
3.37806e-05
6.53451e-05
5.67858e-05
6.17819e-05
5.43965e-05
6.78786e-05
5.51477e-05
3.97274e-05
3.52337e-05
7.07859e-05
5.5293e-05
5.15677e-05
5.44464e-05
5.39663e-05
6.95534e-05
5.13519e-05
4.71255e-05
4.05214e-05
3.75352e-05
4.56048e-05
5.60231e-05
6.01692e-05
3.9966e-05
3.93871e-05
3.7441e-05
4.09065e-05
4.14104e-05
6.91215e-05
3.51783e-05
3.22776e-05
3.04128e-05
2.4486e-05
3.06434e-05
3.76151e-05
3.9776e-05
5.05429e-05
4.5498e-05
5.16671e-05
2.92873e-05
3.69863e-05
4.75727e-05
3.8869e-05
2.82242e-05
3.38469e-05
5.83589e-05
3.03083e-05
5.69164e-05
7.40623e-05
5.79787e-05
6.06387e-05
5.71729e-05
6.31532e-05
8.05197e-05
6.20299e-05
)
;
    }
    procBoundary2to0
    {
        type            processor;
        value           nonuniform List<scalar> 
42
(
0.00173672
0.00173672
0.00110774
0.00107202
0.00105878
0.00168674
0.00101318
0.00101318
0.000927723
0.000888191
0.00146202
0.00146202
0.00123189
0.00178935
0.00205244
0.00152839
0.00190023
0.00086782
0.000910942
0.00103
0.000976931
0.000855239
0.000855239
0.000969825
0.000976931
0.000886681
0.000970655
0.000930629
0.000970655
0.00188056
0.00199942
0.000965715
0.000975783
0.000985947
0.00102661
0.00107202
0.00190023
0.000411422
0.00134199
0.00102608
0.00102608
0.00104829
)
;
    }
    procBoundary2to1
    {
        type            processor;
        value           uniform 0.000948162;
    }
    procBoundary2to3
    {
        type            processor;
        value           nonuniform List<scalar> 
29
(
0.00115686
0.00110491
0.000680574
0.000551692
0.00054642
0.000632136
0.00055374
0.000827009
0.00102007
0.000894253
0.000732356
0.000629178
0.000592239
0.00117562
0.001221
0.00137336
0.00120103
0.00120103
0.00110491
0.00117562
0.00124254
0.00131582
0.000367213
0.00102066
0.000898169
0.0015427
0.00102007
0.000853762
0.000629178
)
;
    }
}


// ************************************************************************* //
