/*--------------------------------*- C++ -*----------------------------------*\
| =========                 |                                                 |
| \\      /  F ield         | OpenFOAM: The Open Source CFD Toolbox           |
|  \\    /   O peration     | Version:  v1912                                 |
|   \\  /    A nd           | Website:  www.openfoam.com                      |
|    \\/     M anipulation  |                                                 |
\*---------------------------------------------------------------------------*/
FoamFile
{
    version     2.0;
    format      ascii;
    class       volScalarField;
    location    "0.22";
    object      p;
}
// * * * * * * * * * * * * * * * * * * * * * * * * * * * * * * * * * * * * * //

dimensions      [0 2 -2 0 0 0 0];


internalField   nonuniform List<scalar> 
1431
(
88.9672
86.317
95.227
84.669
89.6285
89.6682
86.9439
38.3572
91.0205
87.1975
41.2867
41.1707
88.353
85.3085
90.0963
86.22
85.2096
90.3576
86.1707
88.8843
37.0131
84.8113
91.3379
17.7267
90.754
88.7096
46.8617
90.1276
92.0087
83.4036
86.5858
93.7701
86.2496
86.2919
90.6184
88.9201
87.9742
89.2172
88.3936
92.9592
89.0176
89.6173
87.854
86.5017
88.029
90.9301
87.1043
51.1686
86.8248
90.3114
90.4719
87.6046
91.7405
47.1206
86.4304
92.4263
89.4197
43.1069
86.2963
90.8624
90.5561
87.1939
90.3411
89.9151
87.9438
88.8411
92.7339
90.2248
92.3572
85.5016
42.0899
86.1422
83.0663
86.3434
85.051
90.5846
88.9812
90.7978
87.9645
91.0486
85.3384
91.6071
75.2912
88.0326
35.1695
86.0716
86.5849
90.3174
49.1215
62.4713
89.3636
89.6618
89.1828
86.8487
85.9696
86.3251
40.2972
77.6012
86.483
92.5975
92.3716
86.7341
85.4884
91.0569
90.8447
85.1827
93.9757
48.9001
90.5975
85.4347
91.0411
88.643
107.234
88.8292
85.7568
89.8908
85.761
83.8106
86.0104
90.2849
86.4885
90.2393
48.0613
85.02
40.2117
88.0971
93.6572
89.7187
82.9109
86.6466
85.4499
89.8651
86.9807
85.0752
94.4706
89.7307
90.6902
86.7112
44.7671
88.7753
89.6734
85.5793
85.6899
90.9181
92.2139
86.1652
89.9176
92.5561
87.0118
91.0992
90.0412
91.7327
93.2123
86.7262
93.9307
89.7187
42.8892
84.899
69.2719
86.756
59.1995
85.8318
85.3398
86.4282
47.8537
89.3002
89.7227
85.3154
90.1857
81.8492
57.9126
92.206
91.2076
44.7824
85.5286
42.4737
86.9511
89.0585
91.569
90.6116
87.4363
88.8975
87.9418
21.4439
89.4405
93.6965
45.0736
84.0107
90.2775
46.6733
86.0332
92.0375
93.0408
50.0722
85.3001
82.364
77.4559
88.2681
92.4918
89.686
88.29
85.6042
64.2354
86.7434
91.249
86.075
93.1546
92.7992
44.3449
89.5627
38.5037
85.3378
93.9449
85.4801
37.3045
92.6591
93.0948
87.165
88.1226
69.4285
93.556
88.1758
92.0737
86.0368
93.4789
41.0589
64.9862
79.7981
93.599
66.898
38.6368
86.3686
85.9752
92.8933
93.804
64.8823
93.757
87.8425
86.3887
88.2923
87.2166
87.9522
43.2419
88.3891
91.3251
85.8534
89.471
56.7927
93.8455
89.9483
89.6981
48.2767
86.515
85.3914
86.0311
84.6096
86.254
37.1065
71.6189
93.0163
93.2169
45.2741
87.8584
86.8828
94.862
73.796
91.0625
50.9903
56.7771
89.5467
90.9674
93.47
87.0322
88.1418
55.7741
90.4582
52.3529
82.5945
85.7801
93.4148
91.8738
82.1787
86.1949
90.9041
87.0775
75.1987
85.9455
75.0228
40.9699
86.7937
92.5524
89.5525
79.6348
91.933
70.8591
93.1099
43.2325
95.1993
92.8962
85.2525
92.1185
91.3783
87.4928
92.4505
87.6734
85.9719
86.4722
92.7914
87.7989
83.575
79.4984
88.0975
88.0485
49.0035
91.2447
78.8777
88.9374
86.8684
92.56
30.0216
86.8297
81.1019
91.7721
91.9936
90.0868
109.047
91.9706
87.9371
50.5518
85.2096
82.8487
92.3053
89.2765
84.5793
87.0947
91.7997
85.0141
68.6467
90.0443
48.3357
90.9565
90.6141
76.0509
87.6101
91.4646
86.8249
87.5993
49.6399
80.5313
92.0819
87.8475
91.6192
92.0058
85.8271
90.786
88.0385
42.2834
38.8986
45.9928
87.5561
85.0679
93.4559
83.5033
87.5469
92.5326
41.7767
90.1247
9.33036
92.2238
83.973
50.5045
89.3861
51.9901
88.163
86.513
45.8602
85.4575
87.8008
94.3596
42.8244
84.0106
89.7939
87.5217
91.0098
10.1843
91.4924
90.0914
91.6674
88.9682
88.3741
87.341
90.9939
91.1991
85.6589
67.462
92.2198
90.0709
88.8415
89.0849
90.5155
84.0994
85.3852
74.836
83.9531
92.2877
91.2827
90.0553
87.5951
87.0991
91.5403
83.3709
89.8597
91.5841
84.474
91.5883
91.8424
86.848
87.6136
89.9372
91.5288
91.8658
85.5357
89.6637
86.2545
91.4908
89.4049
85.9631
86.8545
95.4439
26.6989
84.6767
86.4183
84.8555
88.3578
83.7008
82.0605
83.2937
81.2123
81.4923
81.0488
89.9092
45.3548
90.8548
91.7983
92.0485
92.3325
92.7642
92.7342
87.9733
86.2695
86.6986
90.1803
86.8106
90.9267
87.6819
86.1573
85.3807
47.0995
90.8307
78.9318
85.6622
90.4591
47.152
85.8634
83.6884
90.0006
90.9538
46.6851
89.8013
44.046
86.2396
86.7137
89.9596
84.6566
44.5687
45.7226
88.9615
90.4409
92.5152
87.419
84.4943
92.6821
44.1663
89.5744
92.5412
84.5009
88.066
92.2393
77.598
90.7053
43.78
89.1977
82.3319
90.5184
85.0159
85.8391
91.8556
43.332
90.4005
89.759
87.7351
89.1698
90.4306
80.4408
43.9144
47.5106
90.9949
90.8602
91.3384
89.7759
89.4362
86.3943
83.2303
88.6338
82.7886
83.0895
92.3606
90.5607
86.1097
47.0399
87.2803
91.8299
90.0569
85.3139
90.2027
85.9147
43.8499
92.7032
89.8421
87.6657
87.6762
92.5808
90.639
87.505
83.5382
93.8753
87.5399
88.3296
91.6019
89.6297
91.4851
89.2344
85.9785
92.2086
89.9452
87.6695
88.1268
79.1361
90.9103
81.932
88.9462
85.9298
84.8051
91.3122
90.3179
86.7586
86.2824
86.4877
83.9215
48.7842
81.3861
47.4633
77.8696
92.1704
35.3612
92.1874
87.6587
86.2232
83.9303
83.9399
91.6549
69.0201
81.2136
90.8735
91.959
87.3442
85.1167
91.9327
82.2594
87.7928
91.6802
75.6413
87.9703
86.1604
85.029
93.9544
87.2198
91.7274
92.256
90.0008
83.4978
86.4531
91.4505
88.6982
94.295
87.0633
85.2849
89.5429
81.8469
44.6773
70.1203
91.976
91.3353
92.5223
82.0383
89.9453
19.3029
81.8995
87.7193
92.0905
85.5196
92.346
91.5444
81.8997
91.7408
86.438
39.6594
86.9486
92.9513
90.4214
84.837
87.7807
91.8137
91.2221
92.1623
84.2538
85.965
89.7371
79.181
87.9818
92.545
92.6875
87.1926
81.5297
91.6647
85.4917
40.7569
87.4812
89.6134
88.4299
87.9053
75.8072
87.4469
91.2323
85.9744
92.3598
84.8345
89.4798
37.2026
87.0724
85.7498
83.6354
91.3305
83.6366
91.7494
90.0803
91.4496
80.2539
94.8508
52.5991
63.0487
87.8491
90.2681
92.0087
86.8845
87.9194
90.643
99.5645
92.2484
91.61
91.5115
84.4161
34.4989
81.3984
89.5928
85.3661
29.7008
84.688
88.8519
87.9472
88.2014
88.493
87.2259
38.0939
90.7018
86.7424
83.1082
90.3108
90.1325
84.9994
88.7333
87.9808
85.4813
85.5791
86.1616
82.6947
77.9489
88.3032
86.3013
75.1544
81.7502
87.2664
91.711
85.9521
86.0372
23.4911
90.4557
80.0133
88.225
91.2672
91.8019
87.5491
85.5248
92.7573
111.57
88.3562
83.9995
89.4622
87.9355
88.9786
86.9279
86.0125
46.7537
91.8687
91.8136
84.185
88.2725
86.1655
51.6715
49.5242
90.261
79.8323
90.6296
87.6784
88.9293
91.2874
85.4568
75.5577
39.7737
86.6048
91.2154
91.609
87.8929
89.3011
85.5197
90.326
85.0369
91.0983
91.2233
86.0182
92.2595
88.35
86.4175
85.9678
8.26732
90.3968
84.8572
92.8227
90.6185
87.2074
30.9648
88.1257
98.1919
87.5838
90.8862
93.7875
86.0094
86.1259
91.4076
88.1157
87.2731
85.7963
89.4146
85.983
86.4641
89.499
86.6629
91.9106
89.9459
89.7748
87.5217
90.872
91.8418
89.6924
84.1711
50.7975
89.8603
89.8926
91.7246
88.9202
88.0598
85.8718
93.038
89.0447
92.8218
86.461
86.6101
86.8603
85.7206
91.9874
93.0687
84.9563
90.5346
86.0809
83.52
15.9171
92.8112
91.2189
92.0285
89.6831
48.3936
86.7561
88.4661
40.2032
82.8177
47.2445
84.9416
89.5687
83.6575
89.8421
92.5755
85.3022
91.9579
84.8034
83.1058
91.5823
83.8039
85.3644
89.6894
89.6487
81.6271
72.8624
38.9303
92.3533
87.8888
47.6812
88.7563
85.6064
91.6572
90.7959
91.963
88.5397
90.2367
93.2723
91.6048
61.3045
90.933
49.1537
91.8521
70.377
91.6335
84.9784
92.8484
87.7668
90.7805
90.6685
86.7586
94.2775
82.3178
90.6972
87.6101
87.4811
92.3863
88.1933
83.8479
91.4193
83.0168
88.1297
49.1563
91.3393
82.5235
47.6713
88.5042
89.4928
85.9557
90.8573
87.8041
86.609
91.4667
88.9004
42.8675
86.5936
87.9234
38.5734
51.9073
44.9206
38.2431
59.9004
93.726
93.5328
92.9553
93.2293
53.2696
93.8581
88.5123
90.7035
89.7144
87.4192
65.625
45.8835
86.7072
74.7667
70.3951
86.6107
93.8868
93.792
86.7925
93.6189
93.4261
86.7353
93.2268
83.339
72.5528
90.3339
101.45
90.7817
84.7013
86.7222
40.2805
92.5818
81.9522
85.2737
90.2794
89.2669
47.7924
85.3361
84.3414
71.3371
90.7389
82.1218
87.1084
86.6907
47.0815
89.6553
93.0671
90.377
88.2526
87.6495
91.7347
44.4597
93.3629
85.6275
84.1824
84.6781
92.0791
92.218
56.5001
89.1398
87.1176
90.2244
84.5554
91.8031
91.6092
84.5011
98.795
90.7632
91.5196
86.4954
90.7593
92.3471
91.6079
42.1202
89.8359
91.2327
88.8531
90.2837
84.9774
87.3235
92.6228
89.3614
86.6191
91.7256
85.8139
37.0961
92.6628
84.8787
89.5009
87.2838
86.5673
25.2803
91.4989
92.444
90.1463
38.5515
91.2557
72.2092
85.8105
88.719
86.894
89.3462
98.0232
91.602
85.8811
52.1903
32.8392
92.914
91.5527
83.802
87.132
84.7336
91.9169
86.0462
89.9834
93.707
88.0102
87.7134
36.3915
85.7408
86.9939
90.1086
85.4215
91.3313
85.9807
91.9828
90.9034
87.8919
89.2329
92.5103
90.1773
88.7045
24.2325
17.7341
87.5272
92.2964
81.6253
86.6347
90.5279
45.8722
84.9997
91.2002
86.3637
65.1451
46.0428
87.5709
86.7996
93.6747
90.2045
69.9037
45.3689
82.9299
88.3846
86.5167
51.0296
86.1668
86.4475
88.2936
6.6067
86.055
40.3696
55.6782
88.123
113.853
91.1203
86.7842
87.2307
86.1082
87.1287
85.857
90.8422
83.0748
90.854
89.0807
82.0098
60.0012
90.7187
83.6943
82.5587
50.0359
91.448
49.2922
88.119
86.4
50.5584
92.134
60.7961
58.0809
55.2552
47.7969
47.5579
46.5101
52.4558
46.9806
86.3405
85.7811
85.7051
86.1148
85.3962
84.7005
92.1856
86.7037
81.4373
88.4657
84.8487
85.1639
85.1057
88.8268
90.3385
87.3565
91.9095
88.4334
93.364
85.6674
86.7322
90.0959
89.6412
81.6249
88.7315
93.2002
90.8923
77.6918
87.8854
87.9056
43.0838
93.7019
92.7389
90.4214
83.2368
90.0457
88.7461
30.4392
90.6408
90.6919
85.5111
89.4995
86.1854
85.8364
85.8086
90.8329
85.7721
84.6471
88.055
88.2168
81.708
84.4013
91.2588
85.053
92.1527
16.3424
90.3259
38.7309
7.08649
86.6852
45.3181
86.754
90.7187
91.2744
45.2225
86.2627
90.9706
98.0173
69.5769
82.4767
85.4258
93.1583
89.5115
88.1233
83.1534
91.8785
91.7694
59.246
39.3332
15.5454
77.6901
89.1334
88.3495
93.1744
87.1528
92.8783
75.444
85.3441
90.4682
44.5586
91.5809
90.7843
43.7308
91.4021
85.7236
83.0818
91.0312
96.5849
79.6628
62.6599
90.83
90.3838
88.5005
91.8257
41.4158
81.9834
42.7837
87.0603
86.5693
85.2927
38.4896
72.4561
88.0931
84.7552
90.4041
84.6743
48.6471
89.5408
90.8221
84.6766
84.439
88.6624
83.4259
84.1795
85.533
91.2328
50.3202
86.223
88.5021
88.6409
84.6776
84.7601
92.9306
86.785
77.7327
85.8108
85.1325
41.7559
91.1853
89.7673
90.7434
89.4561
82.6269
84.5764
88.5115
91.058
66.7122
89.1581
27.5986
93.1801
86.3522
88.1023
60.9794
88.1141
87.8816
88.7523
91.2918
87.8975
92.6972
91.9343
87.6652
93.0249
86.5096
88.3418
86.6638
85.2254
90.2342
49.1061
83.9054
50.4126
91.5944
92.8104
90.1372
91.0317
86.9912
90.6475
103.578
86.2425
84.7808
88.6019
38.4502
89.3639
89.7415
90.4134
84.3772
85.8957
88.7153
93.0726
63.6195
86.7057
86.9097
45.5025
86.5563
90.6959
91.2079
91.7641
88.0396
91.5078
92.5902
78.7391
85.6914
89.9425
84.9088
86.163
94.1218
46.6576
91.9047
89.3971
84.6055
90.9663
52.0285
86.2138
93.0145
89.4556
48.9706
87.0783
78.0697
90.5357
36.358
90.1998
87.2486
89.6141
87.8736
38.1201
86.0945
47.3842
87.4245
87.0597
86.5858
49.8563
85.9257
37.7855
65.8543
91.1389
95.6159
85.7598
44.3162
84.7432
14.5693
86.4972
92.682
85.0441
92.9678
89.5673
63.8662
86.4215
83.0473
38.9459
51.4495
92.8451
85.0821
86.3697
46.5785
87.5117
87.5233
90.605
49.4877
88.3042
86.6278
87.394
79.8447
85.912
93.4493
89.5614
83.7378
87.4713
54.2639
49.7756
87.3532
90.2597
89.4046
89.1411
93.2454
93.3898
85.6933
91.6105
83.149
88.5374
87.5331
93.6661
59.236
93.5196
85.4992
93.1877
74.3975
84.6767
87.2669
91.2547
84.7941
85.5634
85.8805
88.1681
93.4438
85.9171
84.9553
56.4332
47.7922
87.3933
91.7708
84.9296
76.3324
90.5138
93.2509
90.1652
89.8006
89.1709
91.6545
89.6105
83.8809
54.8405
92.7309
78.926
90.9943
86.7744
45.0522
89.8686
83.9071
86.5232
90.5225
90.0581
39.0297
86.9225
87.5621
126.783
92.4953
90.2732
91.1675
87.9972
87.8738
87.4971
22.18
50.0035
82.2513
98.5732
85.9829
87.2807
85.3888
92.9601
93.1835
89.0277
91.9804
105.195
89.0219
86.9354
90.7009
87.9494
90.7422
90.645
89.6507
)
;

boundaryField
{
    frontAndBack
    {
        type            empty;
    }
    wallOuter
    {
        type            zeroGradient;
    }
    inlet
    {
        type            zeroGradient;
    }
    outlet
    {
        type            fixedValue;
        value           uniform 0;
    }
    wallInner
    {
        type            zeroGradient;
    }
    procBoundary3to1
    {
        type            processor;
        value           nonuniform List<scalar> 
48
(
89.9607
90.1751
90.7595
90.8773
89.7891
90.5309
90.1751
91.7237
89.3481
91.0817
91.0817
90.9903
90.9903
77.42
82.9353
90.4884
88.846
90.2216
88.846
86.3537
77.7533
83.4864
86.3537
90.8152
90.9915
82.1649
89.3343
83.4864
91.081
83.2545
83.2545
93.0979
93.0979
89.3481
84.3169
86.845
90.539
90.9915
89.8686
90.769
77.42
89.564
89.607
86.3537
87.4646
91.0719
90.6973
75.8179
)
;
    }
    procBoundary3to2
    {
        type            processor;
        value           nonuniform List<scalar> 
29
(
89.2393
89.2393
88.7847
90.4111
91.3673
89.8711
82.757
88.9166
89.1637
89.2716
89.4889
92.2327
89.3627
82.4795
85.6954
82.4649
88.5229
88.1591
88.8263
84.4244
85.0502
88.5229
86.5701
88.1591
86.1649
88.7556
88.1591
91.1651
91.1651
)
;
    }
}


// ************************************************************************* //
