/*--------------------------------*- C++ -*----------------------------------*\
| =========                 |                                                 |
| \\      /  F ield         | OpenFOAM: The Open Source CFD Toolbox           |
|  \\    /   O peration     | Version:  v1912                                 |
|   \\  /    A nd           | Website:  www.openfoam.com                      |
|    \\/     M anipulation  |                                                 |
\*---------------------------------------------------------------------------*/
FoamFile
{
    version     2.0;
    format      ascii;
    class       volScalarField;
    location    "0.99";
    object      k;
}
// * * * * * * * * * * * * * * * * * * * * * * * * * * * * * * * * * * * * * //

dimensions      [0 2 -2 0 0 0 0];


internalField   nonuniform List<scalar> 
1466
(
0.342567
0.909133
0.379271
2.00619
0.309364
0.753485
0.309812
0.908049
0.278247
1.09777
1.40378
1.04636
0.219131
0.267988
1.27153
2.34841
0.679796
1.06346
2.47689
1.57053
2.57064
2.40898
1.90052
1.37257
0.249624
0.646008
1.57214
1.95608
0.240667
1.43355
1.61846
0.689277
0.434218
3.43776
2.02319
1.08781
3.54764
0.744884
1.38714
0.130593
0.22315
1.1339
1.22542
0.253343
0.138471
0.507794
1.29865
0.141843
0.903794
0.1827
0.447501
0.925144
0.722896
0.178845
0.38545
0.276638
0.383364
1.22546
0.228776
1.11414
1.11007
0.410134
0.199786
1.07412
2.1567
0.860505
3.81121
1.51414
0.889998
0.342022
2.18754
1.3652
0.932067
0.265682
0.796569
1.51546
0.395831
0.198549
0.539191
1.70989
1.36624
2.04406
0.379126
1.71275
2.38314
2.921
2.89667
1.60781
1.3452
1.15756
0.831617
1.52873
2.37061
0.277685
0.60607
0.385874
0.840449
1.20235
0.280947
0.249622
0.606732
0.332461
0.126119
1.19267
1.40871
1.11259
0.767193
0.160555
1.27859
0.354111
0.983033
1.80657
0.426718
1.11254
0.979611
1.2416
1.28546
0.872292
0.287366
0.160773
2.54714
0.437455
0.187115
0.287867
0.156534
1.06488
1.13596
1.89909
1.36706
1.25601
1.20244
1.07822
1.77112
1.299
0.918504
0.211713
0.124619
0.507209
0.240676
0.136317
0.23473
2.18223
1.94513
1.94186
2.46664
3.61195
0.691449
1.01038
1.57085
1.81374
0.923296
1.12179
1.02339
0.426199
1.44581
2.37714
1.75913
2.42394
0.756173
1.04243
0.668253
1.47162
1.44379
2.08743
3.00541
1.69409
1.7223
2.19691
2.33657
1.17281
2.51805
0.508128
0.170573
0.934571
0.586867
0.269877
1.2552
1.66848
0.897196
2.24452
0.290364
1.10992
2.76321
0.137961
1.61408
3.01523
2.47531
1.21263
0.911063
0.7912
2.72077
1.18102
2.19326
3.94584
0.950123
1.11219
0.285376
2.40822
2.93861
3.99048
1.53352
1.412
1.27848
1.32983
1.91075
2.88738
3.01133
0.840433
0.749521
1.50795
2.22084
2.15598
2.57024
2.31892
2.74552
2.06668
3.07209
2.5511
1.44448
1.58187
2.08536
1.27416
2.15239
1.27029
2.24035
2.27441
2.11227
0.169604
0.905413
1.24241
1.63019
1.68146
4.25543
3.79969
0.692419
2.54147
1.85875
2.09197
1.02074
2.66294
1.18921
1.66594
1.14067
4.08975
0.854045
1.35628
0.673889
0.264099
1.75816
1.02188
2.95193
2.33367
0.769559
1.28027
0.515964
0.986973
1.63641
0.37565
1.30602
1.62006
1.12629
1.68585
1.26566
1.2194
1.56574
0.137239
0.638701
1.5122
2.43138
0.400867
1.70097
1.47192
0.825819
0.752241
0.872442
1.41575
1.08689
1.62484
2.458
1.62592
1.13423
1.80965
2.03938
1.50105
2.35717
0.199705
1.69232
1.64863
0.245213
0.622586
0.674399
0.306593
0.257283
0.316084
1.27941
0.660829
1.9909
0.269505
1.67036
1.12525
0.218618
1.56659
0.180413
0.283692
2.43518
1.10553
0.572899
0.430817
1.09674
3.371
0.888005
2.60072
1.60961
1.31976
1.53509
1.30434
3.24187
1.00984
0.262971
1.35278
0.624663
1.68246
1.38115
1.03509
2.47613
0.537166
0.222602
1.02374
0.919349
1.34985
1.80115
0.573858
0.473993
1.07102
2.32308
0.388761
2.48938
1.00406
0.630348
0.37064
0.2243
0.911101
0.61256
1.67649
1.24388
0.184187
1.43985
1.15758
0.974624
2.23211
0.76769
0.36295
1.51753
3.0257
2.86599
2.91331
1.69701
0.372018
0.305762
1.14586
2.93201
2.5903
1.93723
1.98812
0.296246
4.43224
0.812393
0.782642
0.89906
1.17838
1.04643
3.08527
1.31283
0.970239
0.505955
3.70374
1.49371
1.3295
0.345343
1.4924
2.61205
2.26855
2.82601
2.99865
2.55318
2.43125
0.558773
0.531865
0.393593
0.229796
0.965249
2.03229
1.96349
1.94129
1.41287
0.668685
0.236417
1.33545
1.16606
0.425235
0.213307
0.177609
1.45505
0.28561
1.22931
3.54911
1.59315
1.00001
3.56287
3.42803
1.16894
1.80984
2.07771
3.58732
1.64817
0.321326
0.295355
1.30828
1.44115
0.581776
2.9371
3.08862
0.58813
2.0464
0.536895
0.291293
2.21654
1.29182
0.448237
0.267558
1.99224
0.843281
1.23669
2.03822
1.31814
0.316973
0.318342
0.274643
0.223339
1.9227
0.359453
0.39014
1.96259
0.442048
1.31763
0.55785
0.624842
1.40091
0.469202
1.88505
1.44011
0.381525
0.233614
0.333579
1.4055
0.352381
0.409077
0.70724
0.296333
1.39765
0.405269
0.883039
0.431055
1.06004
1.74445
0.396345
1.95022
0.739679
0.471217
1.79529
0.588312
0.62666
1.91351
0.147073
1.42849
0.374421
0.204292
2.08563
3.62812
1.75748
1.11195
1.96129
2.18445
3.40012
2.67767
0.717371
0.336219
0.352348
3.42269
2.07728
2.9765
1.88458
0.581437
2.10234
1.20068
2.54468
3.51264
2.6486
1.32902
2.4565
3.14765
3.5444
1.1222
2.66807
0.420368
2.65493
1.57946
1.54759
0.333023
3.10795
1.29268
2.37817
1.605
1.76762
3.54537
2.246
1.07479
0.313281
0.54877
0.766594
3.22573
0.505337
3.83563
0.840129
2.16111
1.25038
0.727443
1.77764
1.44593
3.22198
0.369345
1.94266
3.34503
2.41424
2.89043
0.887598
0.959217
1.72367
1.26199
2.1078
0.673346
2.87941
0.575714
1.64114
1.63724
0.919498
1.815
0.691189
3.35741
1.52704
2.66039
0.367747
0.68594
2.76268
1.8493
3.3285
3.17728
2.23687
1.11189
0.54315
3.13697
3.23937
1.24498
1.10407
0.452976
1.55128
2.26126
3.82062
1.78889
3.75267
2.5703
3.81952
1.15185
1.53501
0.690476
2.68636
0.364487
3.66566
3.01256
1.74296
1.43207
3.72264
3.43838
2.35524
2.63932
1.23025
2.58388
0.319302
2.66809
1.83142
2.85676
0.784437
2.2192
3.34828
3.1089
2.03981
1.93218
1.35789
0.863584
1.98481
1.28903
0.45319
0.444169
0.92249
4.65473
2.46432
1.35065
0.145791
1.61134
3.37673
0.704414
2.1974
0.689523
0.962681
2.07558
0.979964
1.5191
0.829072
0.723244
2.6182
0.883596
0.225389
1.24982
0.562437
0.912136
3.27033
2.08477
2.44395
2.80227
3.72643
2.16226
0.697608
0.749104
0.476777
3.62194
0.411568
2.47566
2.2222
1.59597
1.98225
3.51014
1.72647
1.39991
1.3249
3.65531
0.452747
2.40036
3.37787
1.38743
0.853827
3.59392
0.35293
1.22076
0.358377
3.71253
3.56905
0.368768
1.74392
0.938602
0.250342
3.89093
1.82062
0.348815
0.46511
3.12821
1.13779
1.80002
1.39641
1.55892
0.271648
0.458587
0.972913
1.80084
0.245753
1.85006
0.233238
1.63975
0.411903
0.483036
0.595968
1.93779
0.526237
0.583677
3.967
0.354949
3.16434
0.451016
0.203348
1.17931
0.248141
3.60411
0.579301
0.518299
1.31453
0.382678
0.197859
1.24061
2.50476
0.467962
2.15598
3.56613
0.425198
0.220209
0.927193
3.18573
2.72782
1.22441
0.551773
0.202475
2.93308
0.917112
3.26415
0.306189
1.53524
3.57435
2.11083
0.99906
2.84626
2.73994
1.60482
1.33955
2.97304
3.99885
1.36585
1.89134
3.624
1.94839
1.04289
1.3002
0.19909
2.27978
1.80072
2.49806
0.302247
3.45142
2.54463
1.19291
2.4106
0.246859
3.18179
3.63715
1.79361
3.60993
0.230828
0.253141
0.428594
0.522943
0.340739
1.26221
1.24769
1.93406
1.78395
0.645628
0.280978
2.04474
2.805
3.1272
2.02025
0.453758
2.16525
2.27295
0.394073
1.50463
1.48418
3.94603
1.27932
1.89002
2.23605
2.18064
2.87472
1.26442
0.671824
0.201883
0.528714
2.35567
2.6454
1.32094
0.321599
1.60543
1.81557
1.45208
0.995418
2.07652
0.742554
3.17766
0.303478
1.66111
3.68869
2.90044
1.16356
2.04698
3.15293
2.5169
0.5579
1.24525
0.509812
3.07316
1.46108
0.429653
0.947126
0.640059
2.17526
3.46119
0.49664
0.857437
0.190851
0.240161
0.430058
2.42453
2.06077
1.23314
1.7433
1.8838
1.29493
1.67034
0.507258
2.20532
1.98086
0.881458
2.59669
1.86772
2.92941
0.833576
1.69324
0.30425
0.628236
2.30218
0.420825
0.547247
1.82287
1.74388
2.21527
0.925335
3.76326
0.473551
1.00836
0.745985
0.284044
0.738764
0.948935
1.22733
3.46151
3.15976
0.439511
2.86378
1.31968
0.53879
3.25981
1.07852
1.67466
2.69684
1.38426
2.01636
2.29566
1.79214
1.20338
1.53054
0.8302
1.63514
2.02834
3.62623
3.6226
0.325375
0.982278
0.664941
0.661077
2.04295
2.31727
1.27705
2.80733
2.05024
0.47774
2.07918
0.764556
3.8164
0.773403
3.24524
1.04473
1.07678
1.00607
1.09567
1.07627
1.14707
1.05206
1.52808
1.5578
1.66285
1.55439
1.49617
1.46056
1.48781
1.45768
1.76357
1.16285
1.30562
1.83387
1.82443
1.53695
1.68549
1.42377
1.40695
1.38863
0.969207
1.81501
0.225292
0.22187
2.25336
0.470502
0.531009
0.27977
0.255621
1.21416
3.38711
1.804
3.65512
0.920519
0.504925
0.411406
1.74433
0.469043
2.2094
1.31087
2.07589
1.32342
1.14252
3.80801
2.47032
1.34785
0.362005
0.194489
0.291678
0.222445
0.273931
1.0732
1.58537
2.13526
2.96014
0.324916
0.283042
0.494611
0.54192
0.765664
0.645327
3.19469
0.434382
0.214629
1.28128
1.11002
0.999154
0.499587
2.09371
1.40322
1.73018
2.71523
1.74047
2.21031
0.60748
1.9068
2.9002
1.37064
3.78269
0.796581
1.26843
0.554375
1.78419
2.98049
0.169371
1.50498
1.33225
2.39513
0.260091
2.57394
2.52702
2.53037
1.21522
0.797982
1.50759
2.09849
0.705835
0.815803
0.333589
1.95515
2.80439
3.74413
0.540208
1.30617
3.54248
1.05742
3.35488
1.55659
0.552674
0.178955
1.54904
1.41134
3.10372
4.74437
1.66161
2.42063
0.252797
0.569891
2.33829
1.42207
2.79582
0.419275
0.879291
0.450437
0.244714
0.163221
1.48536
0.255158
0.816137
2.55646
0.35401
0.200271
1.84685
0.34742
2.5283
1.16721
1.11047
3.23387
1.02776
1.3775
3.0616
1.96867
2.68684
1.1621
0.888815
2.04504
1.4452
0.238836
0.562521
2.90034
1.57787
0.55183
0.665847
2.15471
1.35069
0.761506
1.92932
0.262047
1.59369
0.613393
0.338981
0.217443
0.57128
0.46103
0.814019
0.302324
0.964109
3.58894
0.400094
0.191872
0.636652
2.11571
0.64441
0.234116
1.25098
3.20239
0.92241
0.633305
0.412446
0.281421
0.487677
0.592004
0.459221
2.84493
1.02804
0.460602
0.186445
0.0841195
1.65369
1.72061
0.269004
0.397746
0.283179
0.458222
0.273379
0.281858
0.288169
0.35527
0.272227
0.258849
1.26861
0.257393
0.271701
0.265358
0.261374
0.680904
0.720977
0.253814
0.272072
0.290822
0.29199
0.820025
3.08294
2.02725
1.25246
1.17232
2.44507
3.47999
1.32354
1.22101
0.920961
2.02446
0.539141
0.260687
0.354593
2.77075
1.5799
3.61526
2.27419
0.210736
3.2701
1.09229
1.46707
0.640603
2.00402
1.74823
2.95116
0.615036
2.32793
1.57172
2.00128
0.897496
1.27899
0.264223
0.557241
0.940967
1.48375
1.45541
1.3976
1.58152
1.68552
0.379171
1.63944
1.20334
1.30971
2.14374
2.76128
3.5586
3.66894
0.406837
0.189571
1.3055
1.58859
1.42828
1.0128
0.936124
0.743092
1.16504
3.71218
0.756412
0.825546
3.09783
0.506082
0.338849
0.774065
1.53414
1.2694
3.4126
0.560826
1.86429
1.23544
0.905861
2.32369
3.856
1.02761
3.04108
2.59608
0.256832
0.557511
1.61929
2.14145
0.365846
0.248887
2.78997
1.56018
2.39209
2.98684
3.56916
3.8936
0.846252
1.24411
1.91396
1.70536
1.67767
3.28147
0.719103
0.883157
1.27904
1.81518
0.511297
3.16647
1.64242
0.65639
1.37225
1.2291
0.552123
0.744314
0.744422
1.4913
0.53031
0.887652
1.10995
1.03638
1.26998
4.93221
0.268155
0.420305
0.983758
0.231779
0.530337
1.39723
0.364314
0.194793
0.254387
1.50384
0.814678
1.93442
3.56747
3.42108
0.375743
1.47287
0.262391
2.3536
1.12974
0.200259
1.86605
1.28575
2.85433
2.4043
1.70661
1.67411
1.28959
0.560964
0.459974
2.89903
0.571999
0.213319
1.53048
0.338314
3.15695
0.548507
1.70518
0.542249
3.06094
1.74464
0.142277
3.35909
0.707467
0.265538
3.26764
2.33676
1.20695
1.54487
0.965493
3.41138
1.11213
2.39515
0.505017
0.969032
1.34474
2.48069
1.78352
3.74396
3.95429
1.21668
1.8215
1.81435
2.59265
0.251788
1.02733
1.43519
0.23856
3.47474
0.282196
1.61367
3.23247
0.583155
2.92749
1.46516
0.25623
1.23932
1.24968
0.388424
0.879688
0.53301
1.46771
1.12355
4.83844
3.58685
1.84858
1.34837
0.436833
0.590313
1.03799
1.062
2.08474
0.847978
1.85744
2.00554
3.31556
1.96459
1.39395
3.22802
0.258544
1.5736
2.96393
2.4454
0.594534
0.38935
0.579096
0.377582
0.196513
0.602214
1.23383
3.12638
0.317477
0.233166
1.25711
0.552695
1.61833
3.32724
2.62386
0.192055
1.79896
0.469229
0.261064
0.297191
0.349935
0.564203
4.54698
0.221586
3.30102
1.53207
1.19146
0.367182
0.246172
2.82349
0.281375
0.675486
1.42149
0.690159
2.72268
1.10645
2.14218
1.46635
1.21323
0.659878
0.888927
0.828345
0.946406
1.04782
2.53353
0.228146
1.54899
1.61323
1.14092
1.50541
1.36738
3.30858
0.829937
1.28752
0.572489
1.3552
3.00859
0.966886
0.369722
0.146153
0.25396
0.633413
2.348
1.6051
1.63932
1.57341
1.34625
0.774193
3.19659
1.98445
1.81558
1.53082
0.485277
2.1034
3.40637
0.387167
1.08597
2.23327
0.695161
3.08099
1.01844
1.51867
2.81105
1.61562
2.4167
2.29857
1.83249
2.36892
0.374526
0.403186
0.588277
0.232431
1.22437
0.59653
1.8023
1.22365
1.74019
1.33935
2.90707
1.80951
2.82632
0.612487
3.27892
3.30054
0.598718
0.338212
3.12781
1.0325
0.541329
0.54303
1.5582
1.12558
2.76967
1.29805
0.887372
0.606548
0.293598
1.67807
1.84746
1.32922
0.869359
1.8876
1.28181
0.698526
1.50029
0.280012
0.374783
1.1891
1.24852
0.18751
0.238409
0.75661
0.283223
1.11656
1.58329
0.626196
0.352816
0.927787
2.07537
1.05691
0.982871
0.628756
1.19505
0.291994
0.270645
0.275485
0.230249
0.423185
0.132048
1.40602
0.215567
0.186544
1.56057
0.336595
0.99275
0.624273
0.778768
)
;

boundaryField
{
    frontAndBack
    {
        type            empty;
    }
    wallOuter
    {
        type            kqRWallFunction;
        value           nonuniform List<scalar> 
108
(
1.06346
1.3652
0.932067
0.180413
0.184187
0.354949
0.451016
0.203348
0.248141
0.382678
0.197859
0.467962
0.425198
0.220209
0.202475
0.19909
1.19291
0.522943
0.340739
0.321599
0.240161
1.23314
0.284044
0.53879
1.04473
1.07678
1.00607
1.09567
1.07627
1.14707
1.05206
1.52808
1.5578
1.66285
1.55439
1.49617
1.46056
1.48781
1.45768
1.76357
1.16285
1.30562
1.83387
1.82443
1.53695
1.68549
1.42377
1.40695
1.38863
0.969207
0.22187
0.504925
1.34785
0.222445
1.11002
1.26843
0.554375
1.30617
0.879291
0.200271
1.02776
1.1621
0.888815
0.613393
0.57128
0.302324
0.64441
0.487677
0.592004
1.02804
0.0841195
0.0841195
0.269004
0.283179
0.281858
0.288169
1.26861
0.257393
0.271701
0.265358
0.261374
0.680904
0.720977
0.253814
0.272072
0.290822
0.29199
0.820025
1.22101
0.920961
0.210736
0.640603
0.897496
1.27899
0.756412
0.825546
1.23544
0.905861
0.814678
0.23856
1.03799
0.847978
0.233166
0.469229
0.221586
0.146153
0.25396
1.34625
)
;
    }
    inlet
    {
        type            fixedValue;
        value           nonuniform 0();
    }
    outlet
    {
        type            zeroGradient;
    }
    wallInner
    {
        type            kqRWallFunction;
        value           nonuniform List<scalar> 
126
(
0.744884
1.38714
0.130593
0.22315
1.1339
1.22542
0.253343
0.138471
0.507794
1.29865
0.141843
0.903794
0.1827
0.447501
0.925144
0.722896
0.178845
0.38545
0.276638
0.383364
1.22546
0.228776
1.11414
0.539191
0.385874
0.840449
1.20235
0.280947
0.249622
0.606732
0.332461
0.126119
1.19267
1.40871
1.11259
0.767193
0.160555
1.27859
0.354111
1.11254
0.979611
0.287867
0.156534
1.20244
1.07822
0.211713
0.124619
0.507209
0.23473
1.44379
0.586867
0.285376
1.30602
1.62006
1.12629
0.137239
0.638701
1.70097
1.47192
0.825819
0.306593
0.316084
0.660829
1.9909
0.624663
1.68246
1.38115
0.372018
0.89906
1.31283
1.3295
1.33545
0.425235
1.29182
1.23669
2.03822
0.316973
0.274643
0.39014
0.233614
0.352381
0.296333
1.76762
1.94266
1.8493
2.08477
1.74392
1.89134
0.661077
2.31727
1.3775
1.10645
0.828345
1.8876
0.698526
1.50029
0.280012
0.374783
1.1891
0.18751
0.238409
0.75661
0.283223
1.11656
1.58329
0.626196
0.352816
0.927787
2.07537
1.05691
0.982871
0.628756
1.19505
0.291994
0.270645
0.275485
0.230249
0.423185
0.132048
1.40602
0.215567
0.186544
1.56057
0.336595
0.99275
0.624273
)
;
    }
    procBoundary1to0
    {
        type            processor;
        value           nonuniform List<scalar> 
29
(
0.180825
0.180825
0.200778
0.296514
1.70065
1.03343
2.00597
0.575455
1.41938
0.425036
0.591275
1.03343
0.200778
0.118951
1.25021
0.521908
1.70065
1.77237
0.296514
0.176931
0.317112
0.225662
1.45517
0.292433
0.292433
1.45517
0.24384
0.889431
0.24384
)
;
    }
    procBoundary1to2
    {
        type            processor;
        value           uniform 0.31675;
    }
    procBoundary1to3
    {
        type            processor;
        value           nonuniform List<scalar> 
48
(
3.56919
2.37352
2.85267
2.85267
1.49722
2.03529
2.03529
0.929222
3.47125
0.344903
0.26077
0.344903
0.356081
0.30336
0.322501
0.356081
0.246659
0.246659
0.23889
0.23889
0.219566
0.198994
0.248668
0.643234
0.643234
0.161484
0.182201
0.182201
0.369903
1.1524
0.421304
0.369903
0.929222
2.97493
0.158156
1.1524
1.85609
0.26077
3.69783
1.21298
0.282518
2.49041
2.97493
0.158156
0.320816
0.856592
1.38666
0.282518
)
;
    }
}


// ************************************************************************* //
