/*--------------------------------*- C++ -*----------------------------------*\
| =========                 |                                                 |
| \\      /  F ield         | OpenFOAM: The Open Source CFD Toolbox           |
|  \\    /   O peration     | Version:  v1912                                 |
|   \\  /    A nd           | Website:  www.openfoam.com                      |
|    \\/     M anipulation  |                                                 |
\*---------------------------------------------------------------------------*/
FoamFile
{
    version     2.0;
    format      ascii;
    class       volScalarField;
    location    "0.24";
    object      p;
}
// * * * * * * * * * * * * * * * * * * * * * * * * * * * * * * * * * * * * * //

dimensions      [0 2 -2 0 0 0 0];


internalField   nonuniform List<scalar> 
1466
(
92.0773
92.4383
91.2173
92.0363
88.3168
86.5002
91.0772
88.0372
87.0779
83.657
91.4246
88.0441
92.7248
91.9914
91.6234
92.3127
91.5923
92.1676
88.5477
92.1661
92.1066
92.4473
88.4657
92.1193
92.1072
91.2583
91.0456
90.9972
90.677
88.1303
87.7042
82.4679
91.2326
87.8039
92.1265
91.2712
91.0201
92.1408
87.2347
91.2519
87.2253
92.047
87.5313
87.6124
88.627
88.0367
92.1645
92.0511
92.1343
92.1531
91.5004
83.5951
88.5425
83.5841
92.0355
92.0599
92.06
91.3699
92.0434
92.2562
92.2734
87.8789
88.21
84.2398
92.7264
92.2185
91.6657
92.0111
92.0968
93.9857
91.4846
92.0132
92.1577
91.9186
92.1542
83.285
91.9219
91.9893
91.0353
92.3029
91.6071
91.8205
91.7652
92.1863
92.1783
92.1811
92.1813
92.8826
92.1526
91.9937
91.9877
92.1973
92.3894
92.0373
91.5798
92.1743
92.0334
91.8915
91.9153
92.0433
91.1182
90.8622
91.2458
91.9808
92.0643
87.887
91.8412
91.8961
91.9813
92.1349
92.1262
91.7858
93.884
92.1652
92.7052
88.9636
91.6911
91.9845
91.989
91.2941
92.0621
92.1216
91.2196
92.8288
92.282
92.1577
92.7001
91.7129
92.3462
89.017
92.2401
91.9181
92.0836
90.8821
91.6109
92.3529
91.9372
92.1783
87.2022
91.8109
83.7593
92.1781
92.217
92.4108
87.8401
93.112
93.4091
91.9411
91.0188
92.1687
92.2863
92.7409
92.0279
92.2256
91.9773
91.5804
91.9965
94.5451
91.8873
91.9623
90.3324
92.1124
92.8093
92.1391
91.3419
92.3995
88.8242
92.5585
92.2985
90.794
92.1868
92.1813
92.666
91.5063
91.093
92.4584
91.6623
92.3726
91.7173
92.3877
92.1086
92.0649
92.2799
92.2205
92.675
91.749
91.8344
88.7433
91.4183
91.9013
91.8434
92.6513
92.1811
92.6037
92.1214
92.0372
86.6081
92.2064
91.7335
91.7607
94.5481
91.7846
91.9961
92.3266
92.6812
92.1543
91.9752
88.1144
91.275
92.6644
92.5536
94.7874
91.799
92.1815
91.9676
91.6354
91.7174
91.1909
92.1435
92.0313
91.7707
92.0717
92.305
92.1778
91.9332
92.1821
91.5347
92.4208
91.4059
87.3034
92.1847
92.8374
91.9406
92.184
91.6468
92.6618
92.2036
88.0866
92.2328
92.3215
87.0344
92.2608
92.1988
91.7903
91.9043
91.5788
91.3747
92.1206
91.1897
91.833
91.9178
91.8792
92.2189
92.9515
92.068
91.8895
91.3225
90.0503
89.433
83.389
92.1867
92.1821
92.0384
91.9568
87.0364
91.7888
87.2771
94.2887
91.7984
92.0101
92.0723
92.1457
92.1907
91.1676
92.1794
92.0688
93.1612
92.4203
91.8289
92.0512
92.4867
91.3303
92.0267
92.731
91.8212
92.1881
91.6738
92.1874
90.9042
91.8325
92.1832
87.4161
91.5642
83.3309
92.2959
91.7131
88.2248
90.8654
91.7668
91.4116
92.1006
94.7342
92.6108
91.6664
92.0624
91.1175
93.1767
92.2065
92.7642
91.8667
86.8304
91.6205
91.7504
89.4863
92.242
91.8123
94.4156
91.2195
85.9304
92.7867
92.1723
92.2337
92.3085
91.2543
93.4733
91.2982
91.6191
91.7682
91.5969
91.6623
94.0857
91.5216
91.6012
91.4999
93.6956
91.1444
91.8212
91.2248
95.1798
91.603
94.2437
91.792
91.2494
91.6483
91.492
91.466
94.3618
91.7557
92.0839
90.3377
92.2636
92.1927
92.1853
92.1447
92.1758
91.8098
94.7114
91.9566
90.9449
91.6556
91.1721
92.1273
92.3518
91.5588
91.1656
91.6572
91.6375
91.5917
91.7955
94.321
91.5414
91.777
94.4319
91.2562
91.5642
93.9324
91.1917
93.7374
92.1746
92.0727
92.1811
90.7752
91.7884
91.6348
91.5771
91.5931
92.1769
91.7831
92.2263
92.0515
92.063
91.9226
92.3416
89.4766
92.8252
91.4327
92.4314
91.3831
92.1036
91.8484
95.9066
91.5652
92.6259
92.2003
84.5566
91.7905
92.2707
89.6474
91.2509
94.02
91.8112
92.923
91.9925
89.6039
87.4766
92.0851
92.1724
91.1135
91.9997
92.0278
91.2762
92.0358
91.9369
91.3793
91.6467
91.5415
91.1288
91.4131
91.3461
91.4265
93.896
91.819
92.0419
93.2432
87.4077
92.6347
88.0234
87.581
90.6339
90.304
91.4667
91.9961
93.6436
90.942
90.5721
87.9495
89.1628
88.3403
92.252
91.0537
92.3086
87.1457
90.9891
91.5573
89.0249
90.8269
87.9785
87.6234
90.9538
91.0256
89.071
91.8797
91.6802
91.1967
92.6261
92.5314
91.9253
91.8247
93.4907
91.078
92.2109
90.7976
91.1671
90.9168
81.8772
87.5239
91.0041
91.0534
88.2648
87.1235
93.5863
91.763
85.5352
91.6677
87.8278
93.9358
91.5211
91.5915
87.9427
85.3916
88.0758
94.0535
91.1044
91.5938
93.1888
88.4412
88.384
89.9758
92.166
91.2333
93.951
90.7329
92.1851
92.3175
91.556
92.7138
84.8868
90.904
90.9423
90.7561
89.5344
88.3243
89.9279
91.0478
91.1066
90.4086
93.9137
90.6628
91.4264
91.3352
91.5529
87.8795
91.8355
87.5925
87.2397
92.0946
91.934
91.9921
92.0456
91.5716
91.7442
92.4578
90.8778
90.906
91.08
90.8603
90.5364
91.3127
92.1742
92.0833
90.903
89.3606
88.8231
90.2185
90.7007
91.2577
91.6397
88.1335
88.5585
93.8027
90.4625
92.0134
90.6578
92.24
92.428
87.955
93.9326
91.8173
91.9913
90.042
91.7819
92.206
92.3727
87.9375
84.6422
92.3448
92.1563
92.6081
90.6949
88.9062
91.9347
91.0309
90.7265
89.2314
91.8041
91.0999
93.0008
91.5172
90.4099
90.7852
92.3087
92.4508
92.2668
92.5745
92.1536
92.9025
88.2149
90.6099
90.1619
91.6806
93.3008
92.3119
86.1233
91.1556
93.7557
90.44
91.7537
92.3362
88.6381
92.5106
91.4083
93.5857
90.4943
91.5303
91.3807
91.8054
92.094
91.7749
86.9207
89.3452
92.3736
87.4352
90.2346
88.683
92.6291
91.483
87.4032
92.2505
91.5888
93.1634
91.1041
92.1378
93.208
92.3355
90.7072
91.2217
92.1407
92.7094
92.071
91.2978
92.1984
88.6629
91.1665
92.1593
91.9779
92.3855
92.2098
89.8171
93.5671
90.5362
91.9647
90.804
92.0306
90.4096
91.5728
91.1481
91.3264
89.9699
87.7802
91.7896
92.8451
91.0836
92.377
88.4116
91.749
92.6485
87.5087
93.0237
91.5338
91.3026
92.3405
89.1844
89.8636
93.3245
87.8224
90.861
91.7948
92.2385
90.373
92.3477
91.238
91.6183
92.1684
91.5052
93.3521
91.6321
92.4234
89.9789
90.9744
92.1391
93.2118
91.1604
92.1655
91.3559
92.13
91.5805
88.2049
91.731
91.6234
92.9203
92.0429
91.0054
90.7341
91.941
93.9162
91.0533
92.0555
92.2069
92.3225
92.1574
90.1298
91.5343
92.3059
90.005
92.1449
92.0497
92.1592
91.8455
90.4051
93.3569
90.8243
91.4135
87.0641
93.321
90.7591
91.9867
92.2191
89.5821
90.9374
91.0661
92.58
91.8011
90.7793
92.2991
87.0469
92.1861
92.4605
92.5051
91.5465
88.7428
91.2831
92.1033
92.1215
92.1509
92.1672
86.4529
92.1213
92.1664
90.9893
92.8385
91.8054
92.0827
92.1682
92.1104
92.6037
91.6004
92.8787
91.7376
92.5717
91.5763
91.7674
91.2687
91.0743
92.2921
92.335
91.9059
90.6345
87.7129
91.8408
91.24
91.7244
92.0653
92.3561
93.167
92.0491
88.7725
91.3773
91.5319
91.7403
91.5618
92.6467
87.41
88.4853
92.1733
92.3795
92.2508
92.6304
91.8631
92.8373
88.7705
88.2505
90.4238
92.7296
92.886
92.3714
92.2029
90.8598
92.1869
91.7909
92.4286
91.7595
91.4615
93.1322
92.5615
92.5553
90.598
88.0306
91.7348
93.3672
92.1419
92.9029
92.5236
90.9849
91.5766
91.8488
91.7043
89.5222
92.1023
90.9372
91.8484
89.9294
91.5821
91.9222
89.9516
92.2484
88.4202
92.1229
91.6001
92.0687
88.203
89.9328
91.286
91.7547
92.0704
91.9527
91.8692
92.0319
92.1907
92.1784
91.5489
90.9289
92.0857
91.4359
91.6394
91.4098
91.7211
91.6867
92.3404
91.514
96.7344
91.8933
92.1934
86.4092
89.3452
92.1755
91.8325
92.0495
91.7698
91.5492
91.9608
89.4634
92.2855
92.4249
89.163
92.1383
91.5971
91.7623
91.8043
91.7035
91.8624
87.8783
92.1851
94.1885
92.3273
90.791
93.3595
92.1283
91.6923
92.4642
91.5665
91.4884
92.1595
90.5312
87.6727
91.618
92.182
91.8628
93.0085
88.3689
91.32
91.7207
91.4959
91.7606
91.804
92.1127
91.7506
92.0645
92.2269
91.5584
88.0768
92.2862
92.1791
91.3218
92.7518
91.2629
88.4148
91.388
91.2885
90.8313
91.0187
92.0359
91.5351
92.1724
91.2485
92.4478
91.6932
92.1638
91.8566
91.3249
91.4955
92.5411
91.4696
92.2828
91.9922
92.2391
92.479
84.4757
92.0594
92.8695
92.7719
92.9877
91.8076
89.7856
94.6941
88.3777
92.3242
91.7906
91.832
92.183
90.9144
91.822
93.0003
92.175
91.4097
91.3674
87.3147
92.1385
92.0658
91.2722
92.2505
92.24
92.1689
92.213
92.4098
92.3384
92.4309
92.3463
92.2645
92.2435
92.1632
92.2847
92.3121
92.3451
92.0254
92.3828
92.4289
87.1444
91.651
89.8478
92.0811
92.1105
93.3904
91.8511
92.507
92.1229
91.5113
88.7879
92.0477
91.4363
91.1938
92.0576
92.6782
92.0993
91.6042
91.5895
92.0632
90.5986
93.6838
92.0855
92.3013
89.2388
88.8783
88.551
86.7296
91.976
91.3411
84.153
94.1836
91.7376
91.3969
92.0646
87.2394
92.0549
92.0742
90.3206
91.548
92.0136
91.5207
88.6774
87.6721
92.058
92.0622
92.5524
91.5166
90.7637
92.2366
92.287
87.2353
92.4977
91.9718
91.5831
92.1074
92.0839
92.2253
92.1848
87.6435
90.6916
93.8933
92.1572
92.8891
92.0652
92.02
86.3283
92.6961
87.9536
89.8004
91.1601
91.9251
88.3238
86.728
92.0832
91.7193
86.6677
89.8396
91.881
92.4033
87.8788
92.1794
92.2527
88.89
87.3654
92.1425
91.8119
93.4723
91.9912
93.0137
91.9751
92.6758
92.049
90.9967
94.0235
91.6379
91.5264
87.2736
91.9602
91.9437
93.0994
91.5889
91.9658
94.4396
88.0669
92.0537
91.3344
92.5259
91.6433
93.8021
91.9978
89.307
90.0675
89.0243
92.1779
87.7596
91.555
94.2108
89.1807
92.1789
89.3028
87.7956
91.2653
90.7089
90.7754
92.1821
90.4071
90.6342
91.9509
88.4052
88.6955
87.6228
91.5663
90.8341
91.5996
94.0066
92.1803
87.8696
92.0327
92.0939
90.8875
91.3855
88.1137
91.8045
92.0767
89.2065
92.1832
90.2892
91.6763
92.1634
92.5671
90.9134
89.7869
92.0811
91.1861
92.7849
92.1952
92.1347
90.6009
92.1295
92.1009
92.2668
91.1465
89.1411
92.1146
91.6105
91.6376
91.1671
92.0247
91.7926
94.4884
91.6044
86.9999
90.6601
91.8432
95.3518
92.1957
91.754
91.8157
94.7543
91.8836
92.1136
92.8119
91.4403
92.1013
91.977
92.2438
91.5707
90.9309
87.5829
92.5994
92.0802
92.1191
91.7556
92.0596
92.171
92.0926
92.5388
92.5867
91.4579
92.8075
91.8699
95.8946
91.1828
91.475
90.8354
86.9787
87.2875
91.8426
91.9921
92.101
92.2836
91.1316
91.5457
91.9959
91.699
86.9494
91.0636
92.1007
87.7637
85.5445
91.9859
92.2615
91.1715
91.7937
91.3752
92.1437
92.2678
91.924
92.65
91.4877
92.1742
90.3341
92.1796
91.2028
92.2074
92.4413
92.1436
90.9788
90.2844
88.6118
91.2889
92.6751
91.4582
92.2001
91.4141
87.7351
92.186
91.6696
93.0518
92.1413
90.0444
91.4512
88.2865
92.1001
91.8043
91.5636
92.0226
88.4941
91.9444
92.8119
91.6915
93.3251
92.1958
90.7816
92.0878
92.1115
92.2172
91.5242
92.0316
92.0504
91.8836
87.8849
92.0113
91.7669
93.5378
92.7023
92.2539
92.0441
91.7683
91.623
87.9919
91.8527
91.6813
91.2921
91.9126
87.3892
90.6201
91.6197
90.1528
91.4435
93.1301
91.2273
92.2276
89.5918
87.6869
91.9068
94.0053
91.4428
92.5682
91.8405
94.9074
91.7288
91.6099
91.8774
92.1529
91.7847
91.5713
92.2696
92.5982
91.0147
91.6519
92.4183
92.1331
92.138
91.1089
83.2086
92.1633
92.2428
87.1897
86.6308
92.0895
92.1319
92.271
91.5964
90.5349
91.643
87.3492
91.1931
93.2629
93.0415
93.4612
92.0396
91.5372
88.391
91.5166
87.3499
91.5209
86.5984
87.045
92.3562
92.648
91.9593
92.1988
90.0355
94.0009
92.2002
92.1866
91.5302
92.0097
91.5149
94.5758
92.1545
91.8318
89.8587
92.5095
92.1625
92.1055
92.1888
91.9178
91.4796
95.0809
91.8354
86.7698
91.8202
94.761
91.8758
91.7739
84.7012
91.6563
91.8773
91.207
91.9467
94.4532
92.1168
87.0113
91.7519
93.8944
91.5216
92.0309
92.279
90.8586
93.8033
92.0073
92.0262
91.3329
91.9886
91.4523
94.0703
92.0072
92.2037
91.6246
90.9048
93.5029
91.5126
92.2516
92.1058
91.1118
93.9795
90.8645
91.6776
90.5141
91.5456
92.0745
91.7295
94.021
92.3359
91.2872
92.1689
92.0553
91.6178
91.9947
92.3768
92.6238
91.7998
94.1946
91.7815
93.4724
92.0461
91.4019
92.3244
91.3636
91.577
93.1857
92.1249
91.9174
91.5796
92.183
91.0671
92.4423
92.2698
90.5848
92.2149
91.3518
91.846
92.59
91.7753
90.7483
92.188
92.1964
91.7959
93.1001
93.7253
92.1814
84.6733
86.0873
87.3763
91.7162
93.5725
94.8482
92.1793
93.501
92.097
91.7603
92.3804
92.4029
92.0039
92.1828
92.2804
92.4454
91.666
94.2397
91.1392
88.1217
76.1982
91.6194
93.0484
92.3693
91.8454
91.7912
91.3602
92.4911
91.4034
93.1112
92.2321
92.0519
90.9054
92.196
92.4528
92.0252
92.624
92.4605
91.4237
92.1209
92.1765
86.5895
92.5841
92.7983
92.4735
91.4917
92.2097
90.6059
92.0229
91.8941
95.0227
92.1469
91.7435
86.4882
86.7367
92.4901
91.7949
86.695
91.618
87.2466
87.6757
87.6104
88.8284
91.0294
96.9109
81.809
)
;

boundaryField
{
    frontAndBack
    {
        type            empty;
    }
    wallOuter
    {
        type            zeroGradient;
    }
    inlet
    {
        type            zeroGradient;
    }
    outlet
    {
        type            fixedValue;
        value           nonuniform 0();
    }
    wallInner
    {
        type            zeroGradient;
    }
    procBoundary2to0
    {
        type            processor;
        value           nonuniform List<scalar> 
42
(
92.5559
92.5559
92.9465
92.9213
94.4748
92.2122
93.0098
93.0098
94.2647
93.7852
94.6978
94.6978
94.6493
94.5065
94.2483
91.4931
93.4908
93.8234
93.9587
76.7897
85.8028
93.8735
93.8735
90.1194
85.8028
94.0329
90.055
93.9073
90.055
93.1072
93.4497
93.7571
93.5901
93.4094
93.2668
92.9213
93.4908
92.923
91.3454
93.0272
93.0272
93.1711
)
;
    }
    procBoundary2to1
    {
        type            processor;
        value           uniform 73.4634;
    }
    procBoundary2to3
    {
        type            processor;
        value           nonuniform List<scalar> 
29
(
88.6251
87.7682
90.1639
90.7633
85.6056
88.9444
83.5752
87.9923
90.5722
90.0312
88.6146
80.1217
88.8329
83.5952
85.7321
83.1757
90.1467
90.1467
87.7682
83.5952
84.9885
90.0236
86.7381
89.7557
86.1532
90.1452
90.5722
73.0667
80.1217
)
;
    }
}


// ************************************************************************* //
