/*--------------------------------*- C++ -*----------------------------------*\
| =========                 |                                                 |
| \\      /  F ield         | OpenFOAM: The Open Source CFD Toolbox           |
|  \\    /   O peration     | Version:  v1912                                 |
|   \\  /    A nd           | Website:  www.openfoam.com                      |
|    \\/     M anipulation  |                                                 |
\*---------------------------------------------------------------------------*/
FoamFile
{
    version     2.0;
    format      ascii;
    class       volScalarField;
    location    "0.6";
    object      k;
}
// * * * * * * * * * * * * * * * * * * * * * * * * * * * * * * * * * * * * * //

dimensions      [0 2 -2 0 0 0 0];


internalField   nonuniform List<scalar> 
1466
(
0.0736851
0.0959623
0.0355741
0.0557611
0.110604
0.516936
0.218262
0.155181
0.644049
0.271082
0.0583788
0.206725
0.0159609
0.0614999
0.0604841
0.0684459
0.0375349
0.0825286
0.150454
0.0562455
0.101345
0.216301
0.055903
0.0915654
0.062096
0.070962
0.087928
0.144842
0.109367
0.107855
0.152502
0.579974
0.176803
0.265014
0.0852405
0.0682218
0.0477385
0.0534103
0.671676
0.135075
0.219132
0.197301
0.616995
0.214295
0.239325
0.658623
0.056359
0.0699174
0.213944
0.090044
0.0354894
0.201117
0.0833098
0.472085
0.0870903
0.240113
0.0509633
0.0962667
0.106297
0.275
0.0665952
0.1179
0.109114
0.508553
0.102629
0.0755512
0.216899
0.108218
0.0619196
0.203763
0.0439683
0.0591358
0.0542279
0.0556706
0.0231526
0.377891
0.0598647
0.075679
0.155729
0.239629
0.0296129
0.0521586
0.0728631
0.226097
0.0600848
0.0691546
0.0541621
0.139065
0.0586421
0.0937614
0.0537346
0.062794
0.218723
0.0568533
0.038937
0.0944268
0.11475
0.104405
0.121575
0.0575266
0.166054
0.178394
0.0380763
0.0458959
0.0665113
0.727258
0.104149
0.0730297
0.115715
0.0559831
0.102419
0.0622772
0.0711081
0.0556927
0.0186795
1.12481
0.0436605
0.0530249
0.102991
0.111324
0.0976173
0.0889663
0.0337502
0.158137
0.0630378
0.350975
0.0463195
0.0495721
0.292113
0.125994
0.23091
0.0648626
0.0501181
0.203537
0.0414562
0.202404
0.185317
0.0450596
0.264326
0.0567045
0.161861
0.0625264
0.351647
0.153297
0.254723
0.0613263
0.0509116
0.0578391
0.17756
0.0578461
0.366237
0.0606617
0.0863095
0.115955
0.0541087
0.0579765
0.064839
0.45197
0.14239
0.0553295
0.177812
0.0716003
0.0689354
0.0970542
0.184718
0.180782
0.16088
0.0451456
0.0686752
0.0991955
0.0826088
0.063463
0.0496814
0.16559
0.0854949
0.129259
0.201352
0.293614
0.053165
0.252925
0.0787877
0.0734311
0.277035
0.0667956
0.151176
0.0506492
0.0811867
1.00919
0.0766969
0.0424945
0.0785266
0.0594418
0.0779629
0.093518
0.0660332
0.0653659
0.287965
0.0554678
0.0508239
0.0524512
0.188112
0.0662975
0.0704819
0.0683866
0.063637
0.25178
0.0787534
0.463618
0.056946
0.0719727
0.0664512
0.258771
0.0638671
0.0639108
0.111899
0.0805193
0.0341454
0.023557
0.0556112
0.0540845
0.136818
0.095015
0.0647355
0.0579534
0.16534
0.0595646
0.0494535
0.0778523
0.0669502
0.28678
0.0504532
0.124857
0.0516774
0.147054
0.0686634
0.066854
0.156291
0.160592
0.181823
0.064945
0.46266
0.211567
0.0617983
0.174555
0.218212
0.0465553
0.0276725
0.0604399
0.0221683
0.0533409
0.0516963
0.264801
0.263928
0.145816
0.0557378
0.273045
0.0504983
0.141277
1.08146
0.346027
0.0636848
0.0636322
0.335242
0.0519921
0.565031
0.0630054
0.791427
0.104548
0.0682561
0.0559949
0.226746
0.0826663
0.0482979
0.0509991
0.0602399
0.136065
0.11746
0.0736841
0.0581704
0.234454
0.0613677
0.0356996
0.0576283
0.0428554
0.0867111
0.0517147
0.0982408
0.0604795
0.123007
0.0576905
0.0606035
0.853856
0.123904
0.331908
0.311524
0.0689983
0.952701
1.34735
0.0682478
0.0386285
0.0690715
0.34279
0.0418941
0.151653
0.0595655
0.056687
0.0478662
0.196271
0.0289822
1.29938
0.298131
0.0430355
0.0725715
0.175726
0.259954
0.062034
0.087832
0.0683982
0.31311
0.0559771
0.0595831
0.178646
0.309573
0.0500646
0.0391116
0.0322626
0.0220658
0.0456667
0.0179663
0.0255571
0.0479119
0.0459469
0.016632
0.0302299
0.0415213
0.0474617
0.0356258
0.0392817
0.0374387
0.018143
0.0572314
0.0491886
0.0170922
0.0308182
0.0389166
0.0192156
0.0504206
0.0458988
0.0879706
0.136888
0.303892
0.0583126
0.279973
0.15851
0.171865
0.0621091
0.164678
0.0575336
1.03763
0.0719601
0.113545
0.205044
0.172036
0.0319575
0.0664375
0.0430164
0.0275308
0.0143906
0.0481589
0.054992
0.0158064
0.0424607
0.0471915
0.0459517
0.0272881
0.0444286
0.0243647
0.908499
0.0641805
0.0418692
0.038758
0.1503
0.25547
0.0445162
0.135063
0.0860421
0.0720035
0.0764034
0.13437
0.200696
0.272795
0.187476
0.14049
0.982383
0.0355666
0.0505975
0.154786
0.0498253
0.0624442
0.0257078
0.0548388
0.028937
0.13784
0.0576347
0.293145
0.0948008
0.1955
0.985474
0.0852143
0.0818462
0.0803667
0.134005
0.046405
0.103407
0.519377
0.359046
0.22343
0.142407
0.264559
0.318851
0.161448
0.069653
0.248133
0.24535
0.260836
0.273757
0.195748
0.230558
0.257339
0.270813
0.084884
0.0723254
0.285344
0.486386
0.835416
0.655097
0.401185
0.174413
0.092485
0.0986944
0.18484
0.194535
0.366454
0.104906
0.104052
0.263645
0.121084
0.140182
1.1907
0.118077
1.34823
0.318798
0.0773225
0.220448
0.316224
0.0862447
0.166467
0.220756
0.0529532
0.105503
0.219461
0.28396
0.250107
0.130571
0.345443
0.0996586
0.593859
0.0795026
0.0860075
0.034599
0.443218
0.0992595
0.107448
0.0777526
0.578593
0.172705
0.0413204
0.0358987
0.191537
0.501734
0.0892386
0.0886241
0.490542
0.0919611
0.218214
0.0847436
0.0867754
0.0343891
0.428669
0.353455
0.277464
0.0845758
0.0925242
0.0370525
0.140596
0.244197
0.473965
0.252201
0.115823
0.149737
0.0720867
0.0831268
0.0926667
0.119726
0.0412283
0.15078
0.350437
0.111734
0.1173
0.112478
0.110911
0.352412
0.103633
0.103477
0.0768555
0.105836
0.0746829
0.0801411
0.183686
0.145387
0.205316
0.677548
0.227803
0.719667
0.609724
0.183785
0.294834
0.175586
0.0544968
0.0414125
0.0899822
0.159635
0.107658
0.110218
0.0995584
0.205461
0.200528
0.372653
0.0781385
0.122291
0.28032
0.441114
0.145323
0.347994
0.109333
0.071602
0.0319531
0.945947
0.550738
0.0597608
0.0818321
0.0636246
0.468941
0.263773
0.165054
0.182703
0.0742398
0.0637438
0.248744
0.111574
0.0835404
0.151927
0.19593
1.01775
0.324709
0.322874
0.0626074
0.069534
0.107389
1.07189
0.0576221
0.105631
0.110741
0.222017
0.0392671
0.12548
0.179701
0.0453764
0.105837
0.117872
0.251212
0.068965
0.19984
0.149659
0.0573945
1.52774
0.532918
0.0628794
1.14476
0.160608
0.0389953
0.0577849
0.286862
0.0366066
0.0606314
0.0760949
0.18606
0.386513
0.831769
0.148339
1.21372
0.0495751
0.0765742
0.034094
0.0587235
0.288133
0.222416
0.0823892
0.467604
1.18767
0.325954
0.750805
0.140466
0.98069
0.0353317
0.0503474
0.802826
0.0657605
0.103775
0.0476128
0.0605336
0.0705216
0.101642
0.358666
0.0616808
0.141344
0.128055
0.0700915
0.0827279
0.754407
0.309655
1.11295
0.0384975
0.0331936
0.170662
0.357781
0.172464
0.576073
0.0492341
0.073871
0.0895236
0.160709
0.053298
0.0950472
0.0371667
0.205315
0.0353752
0.136819
0.983651
0.0902056
0.0709579
1.05602
0.373376
0.188985
0.105914
0.333482
0.453522
0.161644
0.0865137
0.0367309
0.0672037
0.700844
0.206597
0.139009
0.291165
0.601925
0.215285
0.118772
0.877449
0.367178
0.0814544
0.0649139
0.0869728
0.0337229
0.0377182
0.0535963
0.153497
0.701797
0.0608346
0.197103
0.0542982
0.0619503
0.0180433
0.0349427
0.179655
0.029057
0.440549
0.0810233
0.0281148
0.0802189
0.0564114
0.074958
0.0947683
0.217896
0.45162
0.054918
0.256995
0.0658864
0.321307
0.34724
0.106896
0.0346886
0.326707
0.191854
0.362362
0.0991383
0.276288
0.873787
0.108802
0.0464305
0.0675611
0.0209566
0.241368
0.0449094
0.0675665
0.0728585
0.28879
1.17449
0.0646174
0.0899042
0.150852
0.244117
0.0706954
0.269868
0.650671
0.0611556
0.157687
0.0662796
0.121508
0.202047
0.157447
0.0820663
0.277132
0.0486471
0.0421727
0.383902
0.0525932
0.0354966
0.0553449
1.30882
0.0324696
0.0552349
0.0203769
0.0237891
0.0397215
0.0796196
0.042027
0.0375233
0.0971363
0.219447
0.0342866
0.0468274
0.0418571
0.383937
0.184729
0.131572
1.15098
0.197836
0.0388169
0.0489558
0.0513645
0.0446141
0.35874
0.0673773
0.0714907
0.178442
0.283078
0.0491939
0.0342954
0.0361112
0.194899
0.660992
0.079285
0.015777
0.3992
0.139527
0.0562522
0.236958
0.0674904
0.231973
0.633086
0.15047
0.0230277
0.0411806
0.402529
0.221594
0.0495983
0.0900626
0.0751002
0.0501499
0.0674449
0.0573018
0.0545502
0.0643353
0.095374
0.13864
0.966845
0.0857598
0.254568
0.0282987
0.0417027
0.148147
0.0559848
0.0399018
0.0373642
0.0242683
0.135443
0.0572118
0.0472515
0.316884
0.859666
0.0251223
0.0906518
0.13009
0.0665088
0.3679
0.0649499
0.0302547
0.103232
0.327707
0.69181
0.058918
0.234504
0.342741
0.0452165
0.0452849
0.0869248
0.0588153
0.0615711
0.0347582
0.0593403
0.333145
0.0514803
0.0319288
0.0482972
0.0529245
0.42285
0.382877
0.0456603
0.151301
0.0244316
0.0625354
0.265393
0.133141
0.0745425
0.305474
0.258556
0.235255
0.191333
0.32437
0.164089
0.279385
0.153991
0.154068
0.029833
0.039351
0.18972
0.0478375
0.0365819
0.0533075
0.493439
0.0603878
0.694999
0.119776
0.0621365
0.049749
0.0666046
0.0777823
0.176778
0.0412006
0.0680147
0.0587912
0.12382
0.274449
0.0335296
0.0598741
0.052193
0.104243
0.807107
0.180404
0.0570142
0.0369575
0.0665134
0.0845876
0.0701917
0.0333795
0.107612
0.408762
0.211767
0.15568
0.230896
0.0615395
0.0387781
0.0630172
0.0654857
0.937396
0.0625947
0.0712933
0.100447
0.100711
0.104294
0.0915347
0.176457
0.0903417
0.186969
0.0437623
0.0685389
0.0675648
0.218079
0.0370813
0.0756672
0.0355965
0.204352
0.0442629
0.293443
0.0211614
0.246227
0.0577984
0.105183
0.0687188
0.113711
0.0549094
0.112674
0.411991
0.17291
0.0661382
0.100071
0.0936336
0.289341
0.0953696
0.0526372
0.121028
0.197017
0.148819
0.0176955
0.92152
0.0795364
0.267904
0.0765058
0.0239608
0.0238006
0.0198022
0.0213217
0.0505942
0.0452513
0.0536587
0.0534759
0.0246097
0.0553953
0.0585808
0.0235293
0.0222075
0.0221955
0.109349
0.0220579
0.0218568
0.235722
0.0243765
0.201305
0.0389691
0.0605889
0.868988
0.247481
0.0783546
0.0676734
0.0206282
0.155949
0.0586932
0.034332
0.080923
0.0591956
0.156037
0.0317153
0.034221
0.171238
0.0588072
0.0694211
0.0559994
0.0613362
0.0722378
0.148576
0.200999
0.91338
0.282926
0.101948
0.0353877
0.238995
0.0797401
0.0634997
0.109561
0.104553
0.15813
0.0598534
0.0614137
0.110893
0.0372266
0.0428493
1.3587
0.125834
0.897441
0.0605263
0.0608962
0.252251
0.090879
0.207693
0.0667821
0.0697728
0.691401
0.078461
0.0569818
0.0906637
0.055729
0.0432178
0.368354
0.100244
0.228363
0.074857
0.0651025
0.126074
0.215404
0.0600028
0.0552316
0.520605
0.223291
0.334129
0.182813
0.216633
0.145652
0.102366
0.548777
0.0932745
0.0345155
0.348184
0.0466159
0.0429145
0.282081
0.826092
0.0101082
0.15421
0.166447
0.884264
0.0115905
0.0674609
0.0803843
0.143616
0.170461
0.130981
0.0182215
0.230189
0.0775265
0.0745058
0.0313773
0.0409394
0.213833
0.0556158
0.293724
0.740744
0.03978
0.0757144
0.236733
0.927806
0.0568438
0.0358332
0.0195639
0.0747441
0.0811812
0.0559691
1.20096
0.130504
0.215073
0.110055
0.0648875
0.0718507
0.0829701
1.10884
0.0655593
0.192658
0.216697
0.0363241
0.0586208
0.169952
0.0469011
0.0449911
0.111161
0.0384244
0.230543
1.02306
0.247651
0.0337213
0.0684939
0.093699
0.233724
0.0689618
1.03769
0.0625534
0.0363419
0.069175
0.0743268
0.204223
0.0784509
0.0404505
0.0499219
0.0711119
0.114253
0.0788402
0.028216
0.0175581
0.044942
0.126345
0.0581421
0.0794599
0.164309
0.0593457
0.0913738
0.102301
0.0531843
0.0625738
0.0661809
0.0573986
0.139541
0.035191
0.0314901
0.217091
0.0483989
0.0432338
0.0445256
0.0467229
0.0358528
0.107451
0.101759
0.0415489
0.0744796
0.0601574
0.235489
0.043434
0.04706
0.307106
0.0505361
1.10223
0.0543272
0.0568739
0.106545
0.129509
0.0780576
0.0743175
0.210048
0.0163074
0.0895302
0.219074
0.0480959
0.077385
0.0457437
0.0499205
0.0590695
0.046294
0.158487
0.0491408
0.0429393
0.180886
0.0427857
0.0350655
0.132018
0.732942
0.0783454
0.232075
0.0490712
0.0630969
0.0679347
0.0351349
0.0291953
0.0468206
0.0694944
0.831615
0.0386404
0.0547727
0.173849
0.53307
0.114525
0.0641698
0.0990559
0.0491624
0.14829
0.086493
0.0648743
0.0455939
0.0321529
0.10189
0.0934412
0.135798
0.106317
0.0876956
0.0674389
0.0762401
0.0519307
0.0572344
1.23443
0.153145
0.144868
0.0310249
0.314967
0.083365
0.0646797
0.678889
0.0593503
0.0576967
0.0998779
0.050871
1.23706
0.0567518
1.0148
0.136672
0.0827877
0.0373227
0.0860042
1.10136
0.0664908
0.177875
0.231089
0.200918
0.0700953
0.126256
0.0969466
0.103811
0.0820477
0.0415254
0.055793
0.0488639
1.46162
0.153792
0.0682721
0.0623476
0.0767787
0.0303024
0.059389
0.049235
0.277425
0.0334162
0.333075
0.0546647
0.0336108
0.203316
0.0532007
0.906381
1.26673
0.171705
1.25833
0.0658887
0.0759191
0.0352787
0.0827442
0.162159
0.936903
0.216119
0.592957
0.195654
0.0742315
0.0671887
0.290188
0.227246
0.0483327
0.134069
0.0976976
0.0729026
0.145273
0.217859
0.06549
0.0675079
0.200732
0.0407249
0.0185585
0.0562121
0.147732
0.293324
0.0213723
1.50136
0.200313
0.433669
0.105917
0.05657
0.0614299
0.0365692
0.131655
0.277597
0.981577
0.0583364
0.0514334
0.209942
0.180055
0.08234
0.0647419
0.176926
1.35941
0.204503
0.0347364
0.518324
0.239637
0.200461
0.0170789
0.262866
0.0759237
0.1248
0.661124
0.0109446
0.0834309
0.0503369
0.260802
0.084358
0.553382
0.0108102
0.161532
0.206234
0.0854137
0.0885945
0.0539821
0.0737052
0.237984
0.0389747
0.175815
0.0601308
0.69867
0.0591621
0.0808709
0.256724
0.0662883
0.222245
0.226812
0.0362897
0.230013
0.13773
0.321644
0.0912838
0.845003
0.0592053
0.0718646
0.287981
0.0562507
0.236693
0.0598213
0.0654657
0.0542133
0.109592
0.090352
0.0445889
0.0638303
0.0795734
0.0444544
0.119223
0.0421642
0.0578589
0.0573025
0.207499
0.0649759
0.231181
0.060256
0.0732872
0.103965
0.204812
0.172066
0.0414003
0.167902
0.0577894
0.0736323
0.0541557
0.033908
0.033921
0.0881143
0.0406075
0.341995
0.978978
0.0163648
0.0613604
0.0675569
0.0748642
0.0854328
0.0415216
0.0627255
0.0461516
0.180128
0.0637092
0.0507651
0.0497591
0.0519141
0.100325
0.0651158
0.291311
0.0643608
0.0721883
0.143329
0.0900623
0.099244
0.0579282
0.123436
0.0427856
0.107061
0.0584038
0.0183023
0.0586545
0.0794581
0.243464
0.0433072
0.27154
0.317047
0.963417
0.0661019
0.0792036
0.247805
0.0385911
0.113928
0.0655797
0.102448
0.0647643
0.0618839
0.113526
0.0592882
0.0939845
0.0749372
0.0829999
0.182067
1.37682
0.154121
0.628175
0.0578064
0.088595
0.063101
0.0562065
0.264656
0.362323
0.0634934
0.060335
0.0635179
0.093903
0.0802906
0.0626354
0.0647368
0.0731226
0.0845844
0.139253
0.0553193
0.0840097
0.103332
0.106519
0.260554
0.0512349
0.238386
0.224555
0.0347466
0.0657497
0.10437
0.0613418
0.0761482
0.310184
0.024277
0.251568
0.55146
0.703779
0.0592605
0.142027
0.592184
0.0339443
0.67589
0.229657
0.444097
0.0971287
0.216242
0.133197
0.168574
)
;

boundaryField
{
    frontAndBack
    {
        type            empty;
    }
    wallOuter
    {
        type            kqRWallFunction;
        value           nonuniform List<scalar> 
102
(
0.0159609
0.0159609
0.055903
0.0231526
0.0186795
0.0289822
0.0355666
0.0180433
0.0486471
0.0421727
0.0525932
0.0354966
0.0552349
0.0203769
0.0237891
0.0397215
0.042027
0.0468274
0.0513645
0.0491939
0.015777
0.0230277
0.0411806
0.0282987
0.0417027
0.0452165
0.0452849
0.029833
0.0533075
0.0442629
0.0211614
0.0239608
0.0238006
0.0198022
0.0213217
0.0505942
0.0452513
0.0536587
0.0534759
0.0246097
0.0553953
0.0585808
0.0235293
0.0222075
0.0221955
0.0220579
0.0218568
0.0389691
0.0605889
0.0591956
0.0317153
0.0588072
0.0613362
0.0598534
0.0614137
0.0428493
0.0605263
0.0608962
0.055729
0.0432178
0.0466159
0.0101082
0.0115905
0.0182215
0.0556158
0.0195639
0.0648875
0.0469011
0.0449911
0.0363419
0.0404505
0.0499219
0.0175581
0.044942
0.0581421
0.0531843
0.035191
0.0432338
0.107451
0.0505361
0.0568739
0.0163074
0.046294
0.0491408
0.0783454
0.0468206
0.0547727
0.0455939
0.0519307
0.0488639
0.0407249
0.0185585
0.0170789
0.0109446
0.0108102
0.0539821
0.0562507
0.0445889
0.0444544
0.0163648
0.0415216
0.0461516
)
;
    }
    inlet
    {
        type            fixedValue;
        value           nonuniform 0();
    }
    outlet
    {
        type            zeroGradient;
    }
    wallInner
    {
        type            kqRWallFunction;
        value           nonuniform List<scalar> 
138
(
0.0583788
0.0375349
0.109367
0.107855
0.201117
0.0833098
0.472085
0.0870903
0.1179
0.062794
0.166054
0.0458959
0.0337502
0.161861
0.0625264
0.0613263
0.0509116
0.0451456
0.0424945
0.0785266
0.0594418
0.023557
0.0617983
0.0465553
0.0276725
0.0604399
0.0221683
0.0533409
0.565031
0.0356996
0.0576283
0.0604795
0.0500646
0.0391116
0.0322626
0.0220658
0.0456667
0.0179663
0.0255571
0.0479119
0.0459469
0.016632
0.0302299
0.0415213
0.0474617
0.0356258
0.0392817
0.0374387
0.018143
0.0572314
0.0491886
0.0170922
0.0308182
0.0389166
0.0192156
0.0504206
0.0458988
0.0575336
0.0319575
0.0664375
0.0430164
0.0275308
0.0143906
0.0481589
0.054992
0.0158064
0.0424607
0.0471915
0.0459517
0.0272881
0.0444286
0.0243647
0.0418692
0.0257078
0.0548388
0.046405
0.103407
0.069653
0.835416
0.18484
0.0529532
0.0996586
0.034599
0.0413204
0.0358987
0.140596
0.115823
0.149737
0.0926667
0.719667
0.609724
0.0544968
0.0319531
0.179701
0.0389953
0.0577849
0.101642
0.0331936
0.139009
0.0377182
0.0535963
0.0281148
0.0209566
0.0553449
0.0324696
0.079285
0.0501499
0.0242683
0.0251223
0.0302547
0.0319288
0.151301
0.0244316
0.0478375
0.0587912
0.0437623
0.0176955
0.0243765
0.0206282
0.0569818
0.520605
0.223291
0.0429145
0.0586208
0.0625534
0.0314901
0.0480959
0.0457437
0.0630969
0.0491624
0.0700953
0.113928
0.67589
0.229657
0.0971287
0.216242
0.133197
0.168574
)
;
    }
    procBoundary2to0
    {
        type            processor;
        value           nonuniform List<scalar> 
42
(
1.52878
1.52878
0.0729176
0.0591995
0.188512
1.19832
0.0873278
0.0873278
0.123509
0.0970263
0.482169
0.482169
0.309743
0.643039
0.854164
0.954855
1.20183
0.0962819
0.102112
0.568596
0.441768
0.0906386
0.0906386
0.421395
0.441768
0.0887316
0.530049
0.0766846
0.530049
1.6374
1.45094
0.0615736
0.0500342
0.0496693
0.0580044
0.0591995
1.20183
0.041517
0.776648
0.0940659
0.0940659
0.0721385
)
;
    }
    procBoundary2to1
    {
        type            processor;
        value           uniform 0.713872;
    }
    procBoundary2to3
    {
        type            processor;
        value           nonuniform List<scalar> 
29
(
0.140139
0.150716
0.0747033
0.061996
0.440068
0.0697629
0.205961
0.136711
0.156501
0.122861
0.102689
0.491733
0.113648
0.418349
0.358429
0.388874
0.150598
0.150598
0.150716
0.418349
0.395951
0.141699
0.139314
0.146762
0.284065
0.101101
0.156501
0.644066
0.491733
)
;
    }
}


// ************************************************************************* //
