/*--------------------------------*- C++ -*----------------------------------*\
| =========                 |                                                 |
| \\      /  F ield         | OpenFOAM: The Open Source CFD Toolbox           |
|  \\    /   O peration     | Version:  v1912                                 |
|   \\  /    A nd           | Website:  www.openfoam.com                      |
|    \\/     M anipulation  |                                                 |
\*---------------------------------------------------------------------------*/
FoamFile
{
    version     2.0;
    format      ascii;
    class       volScalarField;
    location    "0.43";
    object      epsilon;
}
// * * * * * * * * * * * * * * * * * * * * * * * * * * * * * * * * * * * * * //

dimensions      [0 2 -3 0 0 0 0];


internalField   nonuniform List<scalar> 
1431
(
150.41
42.3697
8.33385
9.69268
2.28602
42.2686
1.80246
151.551
57.2879
3.67588
76.0962
100.381
25.5801
2.84109
8.23246
6.10082
2.98978
12.8645
3.00096
17.2169
153.622
3.19398
71.7328
110.597
67.9325
17.5199
49.0502
4.60983
85.3571
34.8699
31.3825
44.8132
28.1087
1.69676
34.4253
22.3033
68.5572
9.67631
5.21004
37.8748
83.9673
84.9208
21.6557
5.03855
67.2009
3.77598
14.7936
39.4988
1.60369
12.8421
30.9162
5.92965
33.9866
121.05
46.2395
28.3097
2.442
118.93
7.79329
14.3824
2.48174
3.58758
18.0716
11.6812
6.2619
2.20042
3.95099
10.6431
3.82185
5.25561
85.3997
2.21685
10.8995
1.64926
3.58866
3.38028
5.35364
16.3206
9.39266
9.20105
3.64959
10.0698
103.529
20.4907
58.2142
9.37923
6.58734
22.4585
68.3534
95.2937
43.209
4.42266
7.54247
9.99837
54.4553
39.2406
130.011
74.8348
3.75475
23.816
34.8614
3.66666
3.84008
7.61911
14.5649
42.2753
61.8675
81.5921
66.2631
5.34712
7.27102
29.3805
8.72871
89.128
50.1345
2.34058
2.97352
11.247
14.4931
16.8276
7.44932
17.0714
119.086
4.41155
57.3139
21.446
7.72849
8.91713
7.47435
31.9248
3.74599
18.8323
30.1852
4.97597
30.2593
12.8099
11.345
2.47426
48.9934
7.99473
6.95361
24.1453
5.07467
5.91559
81.505
27.8763
17.8865
34.5811
12.13
5.50205
14.9072
3.89489
40.4176
15.9986
52.3434
9.39489
49.4917
41.7358
102.455
11.303
71.0624
26.6448
2.514
6.14672
75.1298
118.942
100.795
59.8464
11.1959
66.8644
75.7403
36.4139
33.2353
49.4376
45.8236
50.1269
24.0529
56.987
33.1722
33.3916
1.98242
5.2812
31.25
193.663
52.5162
116.779
106.097
49.3348
31.1353
65.9469
23.0007
35.4942
36.9217
102.642
13.2798
40.8445
63.0312
27.8327
3.48585
113.044
32.3463
2.5958
48.2887
14.358
29.2687
25.1365
53.0456
4.11928
59.9825
67.7004
54.0832
2.64338
58.288
44.3211
56.6379
39.7125
41.0413
26.3271
31.2007
42.1158
51.6212
30.532
42.7639
3.20363
56.3672
85.1074
65.0869
72.3961
50.9442
29.9962
128.566
30.049
38.4677
35.1116
46.002
84.9744
53.8756
43.418
22.7072
29.097
26.4952
30.8938
69.8292
34.3814
33.1029
17.2046
39.203
51.7744
54.9344
10.094
7.57409
52.8152
7.94224
3.18779
23.7929
68.535
5.54686
109.601
76.2325
39.728
52.6689
48.2485
31.5099
17.7722
63.1514
53.6566
44.0284
148.633
36.9529
2.41311
67.3236
48.5392
39.6711
27.0268
65.278
33.2253
60.1249
29.0076
66.9539
75.6508
37.6082
54.216
27.7707
27.5114
38.1861
88.3206
72.656
75.3553
66.5379
37.7074
3.51751
49.8369
62.3646
33.7755
24.3527
52.3112
126.028
132.796
31.4371
76.5005
35.3348
24.2423
36.6301
24.1237
43.463
4.13213
40.0629
38.4506
79.181
60.1591
38.2388
36.7873
2.99632
67.0812
49.3372
54.2332
29.0147
42.2388
1.77139
422.398
35.393
47.9897
15.4675
32.5322
33.7471
12.985
21.4825
58.4915
120.764
3.02052
106.419
2.22709
56.2567
3.26449
21.086
23.3038
57.0551
87.6652
36.3657
81.6835
19.9217
22.9718
31.4009
81.4841
53.889
28.2577
36.0115
58.6646
31.8747
30.466
44.1251
4.32907
34.2669
31.4626
4.17005
32.137
62.1605
38.0338
47.3911
78.1883
3.64107
96.6139
89.8641
33.2432
2.09579
57.8363
61.9155
267.955
52.9872
21.7715
67.4289
2.51097
77.293
31.6508
75.1092
145.649
35.6056
28.2828
7.20632
187.805
29.636
40.8977
39.1827
5.94276
402.997
46.6151
32.6958
59.2512
30.7169
31.4139
30.0287
35.5042
36.0116
3.5273
76.812
35.2955
37.4179
38.7839
66.6068
37.3278
29.5145
69.8869
63.2799
64.9427
14.7376
38.9169
46.6577
49.6112
35.0917
38.6429
33.9644
30.6697
38.4966
13.6698
57.0199
9.47453
28.0873
62.6183
34.5053
38.4974
65.3888
21.7001
28.8778
29.1432
38.6945
3.04817
8.12011
5.14225
8.18193
83.3974
34.0183
38.6288
42.7451
41.9092
43.8266
39.9305
36.0375
41.5924
35.0573
39.4047
3.13278
51.9203
2.93765
2.42883
4.2943
1.70926
2.37363
2.10363
17.4613
4.16375
5.80935
11.2815
1.688
11.854
1.72267
1.70139
3.44732
94.0926
17.8241
5.04032
3.56334
9.73599
88.7433
1.92886
4.98227
9.82979
7.5492
85.5909
9.96804
83.3724
5.00515
6.59373
5.82921
3.82241
50.0732
48.6534
8.49676
11.9592
2.64732
9.41904
3.8293
4.20182
52.7471
14.2431
8.89015
3.39137
5.12454
6.2057
7.31967
9.68836
58.5789
10.4327
7.91628
7.76758
3.47546
4.67155
8.68892
61.8772
8.76101
47.3734
9.15181
8.04171
45.0805
14.5803
60.8576
52.2726
2.97313
12.8221
9.39964
11.9045
7.07722
8.72364
3.32642
8.08802
22.8511
6.51605
8.49949
7.2041
17.4255
55.591
32.5492
13.513
46.6923
3.33673
9.93057
5.16132
60.7059
37.913
3.75296
40.9481
34.6906
28.3287
18.1848
61.091
41.6453
7.50918
35.9865
125.097
11.05
4.83647
35.3592
14.2007
96.395
21.9605
76.2087
32.2964
31.6335
96.3651
36.2555
48.4355
30.161
11.657
65.7679
38.1553
13.3566
76.7374
6.74133
10.0308
106.374
200.873
48.5489
56.4286
46.1315
28.6072
331.351
30.5398
32.8354
4.28181
9.26579
60.1397
36.895
39.2852
32.3495
19.3341
54.2958
29.1291
4.32745
161.888
24.4657
34.1802
36.4287
36.9744
54.3717
26.2773
27.1125
45.6559
31.0014
25.6718
68.228
19.2552
14.2885
313.506
30.5306
31.2474
59.8918
36.7446
6.27626
31.3979
56.8612
53.5113
92.9369
17.8814
39.5477
27.9183
26.5163
41.8548
73.1473
27.509
21.4862
2.11851
4.49526
25.1785
36.3928
23.6166
81.7009
57.8147
82.1567
15.7118
7.20054
32.044
54.8167
34.542
45.777
36.5999
26.2604
40.7771
40.6002
4.94553
27.6131
29.1889
25.9856
32.861
5.32577
30.0784
37.5063
25.3082
121.647
31.6299
89.3583
31.3025
69.7835
54.1769
26.9094
39.297
242.191
22.9508
27.4659
31.6164
95.6652
32.5104
8.18531
65.1647
131.4
25.4474
2.58583
36.8632
63.4789
37.2186
7.58824
70.4392
75.2706
40.3557
21.047
32.1777
11.6565
22.3955
18.17
7.22633
33.4533
7.5731
38.7474
65.8147
100.528
37.1549
7.52793
14.4595
101.423
3.40108
60.4946
29.8525
33.4258
30.2772
30.6776
102.546
11.6212
4.89809
15.3004
77.5413
2.90567
127.612
71.4701
47.2365
90.7952
111.362
81.7098
48.3527
197.281
35.9741
67.2799
39.8281
173.474
26.5719
35.9107
96.0933
190.983
103.526
105.689
186.971
31.9638
38.7633
74.2281
39.9633
28.4691
55.8137
9.33541
99.2274
10.9551
90.1307
25.7651
83.3552
100.641
26.7871
51.1746
33.3305
18.6043
78.213
61.8695
17.4171
74.8678
105.559
13.5915
83.5503
12.0095
27.9626
91.5308
42.5744
84.1859
205.501
106.384
9.46512
45.7942
64.1348
28.382
54.2128
25.0146
44.3756
3.77812
7.97644
80.2373
2.49487
13.5924
29.7255
48.525
2.75951
153.21
78.5194
59.3832
6.55103
50.7633
83.2905
145.211
107.163
48.3956
1.90443
11.2372
64.7695
5.94424
2.50669
40.0184
27.5777
14.0837
40.5164
76.5209
74.8987
65.297
31.1904
40.204
33.2691
45.0739
50.0608
27.9464
13.1204
34.3631
10.1421
142.345
58.1507
48.9089
32.367
34.3119
31.3681
39.2559
11.7685
51.3998
43.4923
44.3648
53.9938
10.4718
34.8098
6.26886
29.4258
38.5236
3.51357
22.5421
29.392
25.2963
419.8
41.4818
43.3859
32.1269
49.6846
250.335
20.3846
31.3263
52.0813
60.6469
104.576
13.856
2.79235
55.3718
74.9162
2.66601
54.3414
36.6608
36.0481
157.076
47.7085
62.0527
23.3502
2.97855
6.69126
46.1625
207.127
115.672
36.2499
31.627
117.636
24.5055
52.3759
35.4863
25.1124
32.2755
7.60766
9.78828
49.6019
37.8239
80.6335
12.0423
147.955
34.0105
65.121
53.3688
22.6565
18.498
31.0159
3.75677
12.9453
37.4769
43.9092
6.6273
11.5082
32.3432
29.6871
52.8163
31.4867
23.4099
43.2395
20.595
16.1341
56.2007
39.8775
33.9198
331.502
46.943
94.2521
6.59198
14.6676
1.68827
145.618
40.7547
106.262
85.5313
11.3978
91.3674
79.4982
261.964
114.126
162.912
51.8236
70.1041
76.0836
85.6711
81.0957
53.8657
66.7887
49.5671
46.6977
48.9556
48.4939
47.7401
57.259
44.0613
41.0986
43.4818
40.5642
66.44
65.9525
38.885
64.9909
62.5921
38.4918
59.0334
16.6774
51.5014
11.0812
7.04797
44.8032
2.95467
4.74596
81.2325
53.8313
21.2886
2.8243
57.7739
23.2299
133.2
3.8259
2.71139
58.3964
44.4985
23.391
10.7402
9.81812
120.642
1.44077
55.2212
32.8478
30.5121
26.0659
12.6518
46.5537
42.4216
4.5278
17.7855
62.3274
30.613
28.4725
61.6813
8.8959
5.07771
3.72808
6.60804
35.272
83.1699
35.0308
7.15752
32.7899
8.3503
7.06482
19.9766
13.0642
41.8428
49.828
33.4937
34.8153
115.32
6.59733
3.5769
23.1613
54.3344
3.56067
9.45069
35.4081
32.9525
133.647
2.92559
2.98059
8.92147
13.9459
1.94222
463.829
40.5864
43.2896
5.75046
142.763
41.6659
88.5499
2.65554
18.0468
13.2871
2.78251
8.85279
38.2121
36.3583
220.043
66.4371
54.4879
41.2454
6.72553
43.3018
3.35852
59.2102
28.2935
14.2384
63.1815
47.8919
25.8872
64.4063
73.562
14.2372
12.8893
5.71588
58.7416
65.5638
10.9253
34.8969
32.834
31.2771
19.5467
32.1418
30.3183
59.2674
259.723
1.71737
87.8471
36.0324
8.85957
41.9053
128.543
35.3823
54.1073
28.8896
68.3198
50.3065
25.6571
4.70342
47.9769
30.7754
207.876
60.6697
62.7065
29.3786
5.66441
62.7501
2.39492
52.661
31.5374
119.638
65.8556
114.603
63.2263
51.6586
9.39724
37.9742
12.6687
5.6885
2.37745
18.0845
2.73907
33.8675
60.5279
40.2109
13.9532
55.4613
67.7263
11.4065
5.72113
26.9308
153.342
41.4405
139.147
58.0314
31.9905
165.467
52.4945
194.686
193.076
193.241
129.687
133.444
126.901
183.506
115.196
3.18446
1.93043
2.1992
2.93922
2.78683
2.66044
30.7449
17.6796
48.8328
59.4769
54.5802
36.6174
3.13899
23.2602
12.9007
1.6405
36.9729
7.92724
41.5088
63.5209
15.4121
38.3124
2.07135
91.9603
31.4572
53.1365
35.9375
27.3608
25.302
29.3524
343.134
43.0922
13.481
27.3545
72.0151
8.448
30.3811
57.1439
10.7141
47.3165
2.49651
5.14379
7.82049
39.7928
5.2857
13.5561
2.54437
3.03512
6.94856
8.10537
78.3443
66.7129
12.9943
3.73657
30.0904
116.987
12.2452
61.6043
83.9953
42.8236
67.7629
9.47645
25.7225
29.7198
60.6221
3.05487
35.7275
70.3191
81.0521
55.2472
39.0709
51.563
4.33039
12.4036
59.2794
33.2176
37.1503
64.0581
47.7759
67.9333
86.9278
30.1102
33.0515
71.5208
11.5807
7.1928
6.14127
3.12745
8.18621
76.8651
33.0827
7.10985
60.2131
35.3281
3.00444
49.271
9.71529
63.3022
87.6567
34.4236
35.5238
11.9184
79.1771
75.3899
72.8279
55.7905
141.74
5.03958
7.22053
3.1152
112.8
103.71
117.1
50.6244
52.9221
4.43729
140.111
1.87375
30.7143
3.3356
2.83613
9.7362
55.1896
5.27989
63.0648
49.6181
72.1676
2.05476
34.465
18.6421
3.17444
4.30924
5.94852
24.8037
101.391
9.4939
45.3485
52.0584
38.0174
29.5063
33.9349
34.3831
6.80337
2.97159
13.6364
37.0796
204.289
29.8799
304.445
52.5387
47.3686
28.3271
65.3946
27.5972
2.25783
28.2521
15.4996
141.281
23.9677
92.819
145.517
58.0658
3.83536
32.3391
3.2186
5.53289
31.3937
75.1649
58.27
101.422
50.1078
17.4836
30.4572
34.5418
10.8471
25.2159
10.8218
2.84487
5.40109
29.1276
207.425
29.4311
30.9557
10.7146
4.64443
26.9876
28.7306
30.9653
198.654
47.9948
48.8483
46.5183
1.95861
33.8582
38.6132
36.2383
90.0543
59.3816
88.3817
38.4665
66.8825
13.5704
73.1876
28.7049
48.7884
131.393
35.3799
6.94075
3.4855
39.6561
55.3211
26.4141
59.5876
3.70657
119.564
12.51
5.65296
10.5147
252.071
36.0083
43.8593
9.65655
5.2052
98.5404
55.006
106.029
15.9048
13.7279
34.52
188.845
1.98464
171.534
99.4628
9.58544
65.5548
113.914
106.357
58.3412
109.555
40.351
9.43698
70.9193
64.56
1.66156
66.1058
4.38857
85.3283
176.906
158.575
32.8899
3.77614
3.44668
63.2914
23.0418
14.9929
39.2062
115.035
1.7116
28.1121
6.17676
97.4017
32.8346
50.7146
2.84603
5.77437
20.6997
87.0015
159.937
17.34
35.2966
2.21247
9.12254
35.3016
42.0647
2.47861
42.8994
6.50241
35.5096
33.0025
43.9673
91.3197
43.3011
2.10573
53.0912
23.5679
4.12526
18.8908
45.0063
3.08804
7.98017
25.186
29.6607
41.3416
2.13983
2.16675
89.3263
66.0316
73.416
24.6769
7.0187
6.34745
10.9313
50.9582
10.9564
10.3443
4.2538
4.56439
1.86288
6.10426
72.1739
54.8643
21.3163
33.0048
52.2134
58.1692
29.7749
5.83114
1.97489
38.0128
92.0424
87.2056
4.66531
7.27406
13.3384
32.258
7.95384
24.3995
60.8403
33.0159
14.4314
60.9846
67.6257
45.8067
67.5979
3.80488
70.0465
16.856
67.8865
114.263
8.0471
23.4277
52.3316
196.044
4.63528
15.8925
16.9665
41.347
41.6525
2.9364
)
;

boundaryField
{
    frontAndBack
    {
        type            empty;
    }
    wallOuter
    {
        lowReCorrection 0;
        type            epsilonWallFunction;
        value           nonuniform List<scalar> 
96
(
85.3571
34.8699
39.2406
100.528
101.423
102.546
127.612
111.362
81.7098
197.281
67.2799
173.474
96.0933
103.526
186.971
205.501
106.384
45.7942
40.204
142.345
53.9938
157.076
47.7085
207.127
115.672
51.8236
70.1041
76.0836
85.6711
81.0957
53.8657
66.7887
49.5671
46.6977
48.9556
48.4939
47.7401
57.259
44.0613
41.0986
43.4818
40.5642
66.44
65.9525
38.885
64.9909
62.5921
38.4918
59.0334
55.2212
83.1699
35.0308
54.3344
9.45069
133.647
54.4879
64.4063
87.8471
36.0324
35.3823
207.876
5.66441
2.39492
119.638
153.342
139.147
165.467
52.4945
194.686
193.076
193.241
129.687
133.444
126.901
183.506
115.196
3.18446
1.93043
2.1992
2.93922
2.78683
2.66044
36.6174
15.4121
39.7928
39.0709
141.74
24.8037
204.289
198.654
88.3817
38.4665
1.98464
109.555
176.906
3.44668
)
;
    }
    inlet
    {
        type            fixedValue;
        value           nonuniform 0();
    }
    outlet
    {
        type            zeroGradient;
    }
    wallInner
    {
        lowReCorrection 0;
        type            epsilonWallFunction;
        value           nonuniform List<scalar> 
126
(
7.79329
14.3824
2.48174
3.58758
18.0716
11.6812
6.2619
2.20042
3.95099
10.6431
3.82185
5.25561
85.3997
2.21685
10.8995
1.64926
3.58866
3.38028
5.35364
16.3206
9.39266
9.20105
3.64959
10.0698
23.816
2.34058
2.97352
11.247
14.4931
16.8276
7.44932
17.0714
119.086
4.41155
57.3139
21.446
7.72849
3.74599
18.8323
7.99473
6.95361
5.07467
5.91559
17.8865
5.50205
3.89489
15.9986
75.1298
1.98242
116.779
106.097
13.2798
54.0832
2.41311
66.9539
75.6508
3.51751
126.028
132.796
76.5005
24.2423
36.7873
2.99632
67.0812
12.985
21.4825
106.419
81.6835
19.9217
38.0338
96.6139
89.8641
49.6112
62.6183
14.5803
22.8511
40.9481
125.097
14.2007
96.3651
11.657
106.374
54.2958
161.888
68.228
313.506
92.9369
45.777
5.32577
242.191
131.4
190.983
105.689
83.2905
94.2521
145.618
41.8428
47.7759
32.8899
3.77614
38.0128
92.0424
4.66531
13.3384
32.258
7.95384
60.8403
14.4314
60.9846
67.6257
45.8067
67.5979
3.80488
16.856
67.8865
114.263
8.0471
23.4277
52.3316
196.044
4.63528
15.8925
16.9665
41.347
41.6525
2.9364
)
;
    }
    procBoundary3to1
    {
        type            processor;
        value           nonuniform List<scalar> 
48
(
73.9333
91.7746
88.6556
86.1002
67.1808
114.651
91.7746
8.8912
39.5291
8.28265
8.28265
7.29287
7.29287
5.44465
5.58442
5.67092
4.845
4.90796
4.845
3.39457
7.0762
7.66639
3.39457
81.1742
8.07434
3.29082
7.4799
7.66639
7.66414
14.268
14.268
7.71067
7.71067
39.5291
2.77408
62.7124
12.3251
8.07434
60.5677
54.6675
5.44465
21.8301
28.9272
3.39457
6.29677
83.0926
63.5354
6.45573
)
;
    }
    procBoundary3to2
    {
        type            processor;
        value           nonuniform List<scalar> 
29
(
10.0058
10.0058
1.87825
2.57039
7.29544
7.14485
10.6166
9.18211
1.84986
1.81034
9.87847
5.98817
13.0418
6.82821
3.42274
6.57521
1.84505
1.67068
8.15574
6.53627
4.72369
1.84505
3.44196
1.67068
2.64907
2.24216
1.67068
6.3253
6.3253
)
;
    }
}


// ************************************************************************* //
