/*--------------------------------*- C++ -*----------------------------------*\
| =========                 |                                                 |
| \\      /  F ield         | OpenFOAM: The Open Source CFD Toolbox           |
|  \\    /   O peration     | Version:  v1912                                 |
|   \\  /    A nd           | Website:  www.openfoam.com                      |
|    \\/     M anipulation  |                                                 |
\*---------------------------------------------------------------------------*/
FoamFile
{
    version     2.0;
    format      ascii;
    class       volScalarField;
    location    "0.82";
    object      nut;
}
// * * * * * * * * * * * * * * * * * * * * * * * * * * * * * * * * * * * * * //

dimensions      [0 2 -1 0 0 0 0];


internalField   nonuniform List<scalar> 
1466
(
0.000781932
0.000702019
0.00158323
0.00045879
0.000885271
0.000992886
0.000828154
0.0013749
0.00226157
0.000648095
0.000759441
0.00198752
9.74863e-05
0.000487248
0.000750339
0.000467957
0.000269914
0.000460746
0.00184787
0.00044154
0.00165701
0.00185463
0.000250618
0.000896288
0.000537649
0.00430979
0.00561298
0.00175254
0.000348997
0.000426915
0.00113509
0.00143289
0.00220284
0.0011245
0.000483936
0.000786679
0.00054283
0.000728434
0.00282646
0.00167437
0.00199368
0.00114635
0.00132657
0.00156355
0.00209026
0.000915007
0.000995732
0.000322306
0.000952637
0.00172073
0.00243142
0.000299125
0.000490552
0.000762629
0.000385688
0.00211516
0.000461543
0.00390101
0.000771629
0.00199752
0.000355397
0.000426824
0.000819708
0.00101122
0.000572862
0.000568656
0.00218097
0.00151155
0.00054716
0.0011958
0.00336516
0.000569165
0.000554013
0.000706187
0.000165971
0.00165098
0.000664247
0.000640459
0.000998789
0.00221498
0.00171311
0.000764541
0.000784506
0.000821133
0.000655387
0.00167395
0.000649448
0.000555541
0.000755507
0.000850824
0.000528334
0.000292659
0.00234378
0.000433493
0.00223731
0.0013486
0.000613129
0.000976274
0.00112575
0.000509371
0.000439226
0.00195591
0.00100335
0.00026915
0.000827351
0.00123246
0.00131703
0.000805036
0.00110675
0.000649183
0.000577587
0.000672179
0.000788967
0.000806061
0.000112299
0.00555735
0.00027249
0.000384859
0.000961509
0.00460999
0.00116399
0.000691305
0.000235661
0.000627804
0.000749868
0.00195349
0.000639019
0.000521959
0.00233371
0.00389195
0.000787512
0.000610376
0.000620911
0.00214514
0.00290777
0.00228541
0.00135446
0.000667656
0.00191011
0.000361294
0.000321292
0.000277476
0.00224993
0.00246333
0.00198154
0.000228797
0.000257406
0.00111136
0.00201907
0.000601888
0.00223836
0.000804997
0.000750867
0.000648392
0.000691944
0.00498603
0.000587575
0.00352818
0.00141976
0.00102862
0.00200023
0.000559426
0.000451949
0.00130802
0.0018458
0.00228225
0.00282666
0.00015058
0.000479495
0.00579094
0.00138419
0.00163269
0.000706025
0.00175694
0.00440156
0.000670538
0.00168107
0.00214378
0.000744387
0.00228219
0.000612277
0.00105755
0.00103877
0.000665283
0.000657962
0.000414204
0.000999613
0.00459665
0.000858706
0.00026537
0.000203679
0.000206366
0.00058977
0.000480513
0.00102667
0.00064003
0.00178993
0.000745624
0.000630954
0.000547264
0.00128351
0.0018152
0.000821071
0.000522984
0.000853251
0.00107765
0.00104308
0.000929598
0.000720549
0.000810426
0.000894094
0.00168795
0.00177797
0.0010277
0.00107273
0.000935491
0.00117337
0.000157772
0.000433591
0.000633572
0.00594973
0.000776969
0.000470199
0.00105828
0.00143934
0.00120198
0.000486277
0.000710508
0.00063878
0.00219952
0.000812263
0.000520434
0.000814186
0.000617188
0.000765132
0.000850408
0.000605258
0.000851781
0.00073055
0.000640895
0.0021575
0.000946599
0.000316783
0.00152998
0.0014679
0.000208742
0.000740292
0.000262597
0.000168928
0.00022904
0.000758094
0.00420216
0.000950189
0.000515526
0.000834339
0.00384536
0.000600192
0.00337747
0.00533938
0.00112414
0.00104637
0.000950113
0.00350492
0.000895326
0.000999939
0.000767456
0.0023887
0.00117587
0.00167002
0.000611245
0.0030954
0.000587951
0.000705408
0.000615663
0.000869153
0.000973112
0.000469701
0.000773767
0.00108991
0.00125703
0.000786341
0.000186898
0.000247718
0.000504757
0.00164415
0.000496162
0.00248842
0.000374769
0.00669118
0.000602331
0.0012936
0.0024205
0.00321635
0.00141944
0.00111712
0.00209018
0.00374045
0.00765484
0.00198967
0.00036351
0.000990194
0.00264766
0.000626759
0.00278649
0.000866816
0.0012295
0.000797095
0.000668854
0.000145123
0.00707567
0.00285679
0.00160714
0.00201244
0.00154728
0.000862424
0.00127263
0.000952296
0.00290272
0.00197575
0.000676081
0.00137702
0.00224001
0.00118907
0.000245876
0.000181915
0.000305607
0.000421148
0.000353534
0.000565129
0.000447413
0.000230937
0.000250061
0.000476608
0.00033974
0.000200897
0.000244707
0.000142647
0.000917551
0.000171587
0.000473724
0.000307573
0.000326525
0.000244447
0.000340718
0.000389302
0.000646328
0.000251649
0.000257349
0.00101433
0.00683578
0.00120455
0.00100816
0.00133066
0.000810356
0.000699113
0.00146625
0.000976179
0.000226601
0.00557263
0.00227624
0.00654715
0.00225712
0.00214508
0.000309431
0.000222744
0.000421321
0.000376822
0.000528
0.000332281
0.000314337
0.000551161
0.000234422
0.000242996
0.000242244
0.000289929
0.000213886
0.000273728
0.00728539
0.000820557
0.000205473
0.000572664
0.00115367
0.00255603
0.00185714
0.000836856
0.00278122
0.000581005
0.00187331
0.000706377
0.00110267
0.00154576
0.00408762
0.00125313
0.00747847
0.000171102
0.000663622
0.00175924
0.00262037
0.000821777
0.000142348
0.000196748
0.00312501
0.00134782
0.000891429
0.00187573
0.0016504
0.00248751
0.00486045
0.00168202
0.00101067
0.0017308
0.000891196
0.00020145
0.00023033
0.00629654
0.00203862
0.00261331
0.00504039
0.00144211
0.00177852
0.00469249
0.000256822
0.00241803
0.00238489
0.00258784
0.00253091
0.00231964
0.00242116
0.00216063
0.00185343
0.00125971
0.00151456
0.00249184
0.00586033
0.00118893
0.00740072
0.00671206
0.00149969
0.00626755
0.00596554
0.000648444
0.00102124
0.00390328
0.00521498
0.00618321
0.00656048
0.004942
0.004411
0.00850002
0.00528183
0.00854415
0.00578759
0.0037158
0.00397537
0.00709468
0.00530312
0.00450509
0.00585433
0.000684391
0.00536404
0.00697005
0.00275221
0.00344934
0.0049167
0.00418104
0.00081269
0.00756471
0.0014458
0.00132579
0.000483732
0.00655141
0.00573858
0.00502021
0.00421174
0.00157208
0.00144591
0.000595384
0.000540778
0.00189993
0.00177184
0.00134562
0.00148134
0.00118505
0.00167869
0.00188114
0.00110961
0.00167172
0.00266225
0.000936699
0.00190423
0.00183175
0.000992677
0.00181767
0.00299915
0.000386349
0.00193756
0.00177616
0.0071286
0.000745791
0.000705284
0.000900535
0.0017048
0.00026857
0.000726579
0.00337266
0.00183765
0.00194278
0.00566295
0.00528447
0.00601232
0.00483488
0.00162955
0.00534686
0.00525292
0.00331234
0.00570156
0.000807451
0.00177013
0.00423163
0.00446408
0.00371854
0.00660975
0.00451506
0.00109178
0.000788868
0.0013223
0.00441365
0.00470069
0.000248899
0.00347792
0.00163534
0.00209218
0.0056466
0.00547469
0.00473353
0.00655633
0.00206008
0.00669716
0.0017165
0.0010872
0.00656667
0.00731758
0.00492886
0.00727696
0.00578787
0.00300069
0.000310603
0.00645301
0.00703293
0.000884857
0.00160759
0.000677432
0.00750722
0.00238092
0.00229468
0.00506039
0.00105979
0.00113167
0.00289412
0.00553467
0.00104657
0.00136012
0.00238595
0.00585413
0.00193638
0.00187252
0.00136257
0.000870454
0.00549722
0.0067943
0.00047697
0.00644919
0.00522331
0.00212709
0.00113761
0.00502759
0.000638567
0.00383407
0.00533005
0.00489602
0.00145946
0.000819778
0.00271453
0.00181775
0.000883574
0.00853772
0.00106415
0.00146587
0.00772328
0.00354828
0.000171005
0.000243338
0.00204345
0.00150253
0.000787366
0.00161326
0.00221879
0.00214751
0.0070797
0.00214972
0.00833383
0.000976557
0.00145366
0.0013198
0.00400289
0.00299938
0.00300523
0.00164333
0.00574434
0.00652311
0.00224229
0.00181646
0.00313361
0.0045044
0.000533866
0.00439447
0.00601259
0.000513881
0.00632228
0.000848963
0.0011926
0.00131573
0.000547345
0.0014216
0.00123369
0.00512575
0.000712529
0.000908553
0.00133958
0.00803803
0.00386845
0.0062093
0.00184094
0.000182223
0.00209201
0.00206382
0.00188878
0.00756592
0.000953551
0.00140494
0.00130714
0.00677099
0.000463823
0.00635306
0.00325857
0.00197251
0.00169917
0.0064871
0.00403123
0.00124831
0.000824457
0.00824148
0.00176414
0.00653966
0.00220359
0.00297964
0.00141149
0.00167506
0.00117203
0.00186766
0.000533515
0.00737495
0.00211343
0.000710654
0.00171238
0.00780551
0.00450999
0.00104356
0.00799028
0.00136165
0.00107389
0.000764807
0.00040227
0.0014693
0.000166678
0.000245571
0.00278496
0.00781503
0.00105246
0.0014705
0.00095022
0.00109103
0.000192122
0.00141931
0.000890483
0.00274855
0.00135363
0.00164499
0.000239576
0.000495337
0.000710938
0.000951946
0.00636348
0.00140998
0.004415
0.000701291
0.00149537
0.00109773
0.0013623
0.00224143
0.00499029
0.00119071
0.00152989
0.00705155
0.00206246
0.000836545
0.00239277
0.00821535
0.00505217
0.00108151
0.00122158
0.000208457
0.00114927
0.00102019
0.00131315
0.000596366
0.00166861
0.00702054
0.000823269
0.00612486
0.0024448
0.00330595
0.00167079
0.00237158
0.00575052
0.00133424
0.00257268
0.000757899
0.00671804
0.00171205
0.00384319
0.000637794
0.00168453
0.000116562
0.000113817
0.00351527
0.000125806
0.000124755
0.000947547
0.00854947
0.000224377
0.000139602
0.00011444
0.000147298
0.00021537
0.00195384
0.000182464
0.000837871
0.00396749
0.0018458
0.00121596
0.000210509
0.000535734
0.00197611
0.00242904
0.000890052
0.00607089
0.00248074
0.00114356
0.000615989
0.000192953
0.000495798
0.00157371
0.000398621
0.000899345
0.00234865
0.00149623
0.000203577
0.00128963
0.00116338
0.00288647
0.00175334
0.000499545
0.000233807
0.00167277
0.00123835
0.000791316
0.00167919
0.000799283
0.00199724
0.00284537
0.00696075
0.000121973
0.000191608
0.00195472
0.00073576
0.00109926
0.00135663
0.00456794
0.000211816
0.000830414
0.00112656
0.000557497
0.000564859
0.000590199
0.0029761
0.00399566
0.000816616
0.00228807
0.000199276
0.000267852
0.00231348
0.0012957
0.00137583
0.00102116
0.000233919
0.0054157
0.000669802
0.000920984
0.00323513
0.00418848
0.000174898
0.000964304
0.00601291
0.000454035
0.00145386
0.000581164
0.000257649
0.000582428
0.00152319
0.0031036
0.000947678
0.00397278
0.0022458
0.000181889
0.000193492
0.000983076
0.00135548
0.00132763
0.00206577
0.000761265
0.00182667
0.000763043
0.000709397
0.000927761
0.000577296
0.00245824
0.0018012
0.000429767
0.000408596
0.000166625
0.00139998
0.00208916
0.0035981
0.000347069
0.00267359
0.00182365
0.00196501
0.0048066
0.00236891
0.00691045
0.00160264
0.00235885
0.0065336
0.000161706
0.00312401
0.00239692
0.000324773
0.000973599
0.000182627
0.00120098
0.000310725
0.00575575
0.00068223
0.00132168
0.000980002
0.000616496
0.000773871
0.00270468
0.000559689
0.00141061
0.000269236
0.00642364
0.00165697
0.00099275
0.00157243
0.00079467
0.0005335
0.00369377
0.00473773
0.000834663
0.00192366
0.00503845
0.00161022
0.000733639
0.000913328
0.00062319
0.00258487
0.00460298
0.00129797
0.00129285
0.0015994
0.000516397
0.000561449
0.00143328
0.00369015
0.00488852
0.00531108
0.00631804
0.00120568
0.000890615
0.00169687
0.00143629
0.00433163
0.00290764
0.000238394
0.00165018
0.000717009
0.00205405
0.00102502
0.000831226
0.00224123
0.00372264
0.000195454
0.00173816
0.000138389
0.00152369
0.000743986
0.000512073
0.000889748
0.000523334
0.000918793
0.00450542
0.00312382
0.00594791
0.000462298
0.00138632
0.00166613
0.00176716
0.00403151
0.000885708
0.000536457
0.000769182
0.00494807
0.000162898
0.0036957
0.00163609
0.00425706
0.000991621
0.000121793
0.00012247
0.000118825
0.000123253
0.000216175
0.000190989
0.000223302
0.000211444
0.00012476
0.000197642
0.000203806
0.000131695
0.00013826
0.000142202
0.000952878
0.000140824
0.000139836
0.00203177
0.000176831
0.00203397
0.000162597
0.000218596
0.00752031
0.00206109
0.000782314
0.00067669
0.000250451
0.00531065
0.000479022
0.00230643
0.00115678
0.000209906
0.00218684
0.000183433
0.00254051
0.00339085
0.000205364
0.00139699
0.000997234
0.00023232
0.000581027
0.00599711
0.00223406
0.00420285
0.00348999
0.00149674
0.00213024
0.000613212
0.000877554
0.000895782
0.00412897
0.000954078
0.000636681
0.000218537
0.00023751
0.00610777
0.00287071
0.000154171
0.00823636
0.00424187
0.00278168
0.000225903
0.000235382
0.00266292
0.00127379
0.0020896
0.000525582
0.000518423
0.00162503
0.000750581
0.000174113
0.00113175
0.000189571
0.000206051
0.00203093
0.000480791
0.00128111
0.00145094
0.000970757
0.000614132
0.00292239
0.00066729
0.000409982
0.000544053
0.000414474
0.00159995
0.00194055
0.00178974
0.00129547
0.000812464
0.00163319
0.0015859
0.00102506
0.00458506
0.000259601
0.000172699
0.00364011
0.00214244
0.000160209
0.000947244
0.00209387
0.00349655
0.000143928
0.00112723
0.00110761
0.00112084
0.00220438
0.000663127
0.000107471
0.00323047
0.00146434
0.000974414
0.00160146
0.00415252
0.0040961
0.000170638
0.00183832
0.00738597
0.00325896
0.000575491
0.000921356
0.00323156
0.000480161
0.000563413
0.000136182
0.00117716
0.00107171
0.000472764
0.00624957
0.00145534
0.00213374
0.000513307
0.000265446
0.00127673
0.000985814
0.00537072
0.0012224
0.00184667
0.00107535
0.00128468
0.000699076
0.00193884
0.000254141
0.000246105
0.00640476
0.00069993
0.0021416
0.00462029
0.00211396
0.00139066
0.000907777
0.00618402
0.00217222
0.00118987
0.00510056
0.000151638
0.000185024
0.00299496
0.00576562
0.00138486
0.00120063
0.00021524
0.000239149
0.00145465
0.00465946
0.0016768
0.000329136
0.000129879
0.000218784
0.00132534
0.000204108
0.00575106
0.00254
0.00138416
0.000743442
0.00640683
0.00018578
0.000286312
0.000398226
0.00056658
0.00120455
0.000164678
0.000283099
0.00413245
0.000807589
0.000167004
0.000275652
0.000298131
0.00239233
0.000244788
0.00602681
0.000347507
0.000381163
0.00061639
0.00453448
0.000303825
0.000310207
0.0022334
0.000167401
0.00830597
0.00416922
0.000198325
0.000877637
0.00134661
0.000713428
0.00103766
0.00173298
0.000119714
0.000941543
0.00314386
0.000273451
0.000825298
0.000183811
0.000469373
0.000668679
0.000210388
0.00392583
0.000197877
0.000492446
0.000644263
0.000771512
0.00164353
0.00450453
0.00301862
0.000259486
0.00341592
0.00075815
0.000193186
0.000403673
0.000595246
0.00191646
0.000139542
0.00132461
0.00373931
0.000663366
0.000184289
0.0014139
0.00139934
0.0010816
0.000323467
0.00483552
0.000305271
0.00169764
0.000603333
0.000306816
0.000161628
0.000441715
0.00362839
0.000826053
0.0038412
0.000874712
0.00176614
0.000769157
0.000655382
0.000182541
0.000746279
0.00645815
0.00301439
0.00475053
0.000370727
0.00237407
0.000564554
0.00532311
0.0011565
0.0014938
0.000950242
0.000581637
0.000507996
0.00704487
0.00490363
0.00443986
0.000851591
0.00162602
0.00364073
0.000950798
0.00543205
0.000695562
0.00272168
0.00431457
0.00249113
0.000154751
0.00106937
0.00063876
0.000921966
0.000926954
0.00434479
0.000431023
0.000151551
0.00816736
0.00382911
0.000598924
0.000856113
0.0009294
0.000287219
0.000456519
0.000375567
0.00305688
0.00229093
0.0010756
0.000751892
0.000594719
0.00210636
0.00070101
0.00551851
0.00776741
0.00449053
0.00677246
0.000999316
0.000713452
0.00205936
0.00122188
0.00252688
0.0038619
0.00165206
0.00537682
0.00441674
0.000832453
0.00134288
0.00174054
0.00376722
0.00361438
0.00114733
0.000482427
0.00127414
0.00153482
0.00295884
0.000841321
0.000893007
0.00212017
0.000147441
0.000101116
0.000722195
0.00420966
0.00112748
0.000314979
0.00814794
0.00364074
0.00280972
0.000673728
0.000736484
0.000873801
0.00277304
0.00145842
0.000748228
0.00284184
0.00106628
0.000729241
0.00275018
0.00191324
0.000873182
0.000912193
0.00132427
0.00731155
0.00302257
0.000871265
0.00468941
0.00476786
0.00301978
0.000104145
0.00348253
0.000213592
0.00410535
0.00580337
0.000162208
0.000390218
0.0046558
0.00272249
0.00287454
0.00437468
8.54125e-05
0.00187951
0.00211364
0.000577741
0.000396143
0.000183089
0.00045621
0.0035414
0.000729493
0.000820907
0.00101349
0.00488112
0.000800691
0.000727507
0.00276686
0.000738355
0.00137794
0.00323413
0.00086906
0.00145257
0.000919613
0.00211697
0.000570948
0.00495119
0.000611373
0.000707501
0.00243525
0.00015581
0.00109361
0.00109625
0.00090847
0.000575996
0.00099504
0.00619955
0.000138772
0.00107033
0.000882085
0.000175371
0.000560059
0.00211307
0.0010973
0.00087125
0.00446922
0.000300539
0.00406119
0.00104838
0.000887379
0.00544075
0.00293671
0.00227003
0.00382608
0.00105382
0.000662141
0.000726698
0.000436518
0.000949734
0.000459156
0.000973738
0.00256906
0.00205997
0.00826572
0.000109379
0.000729743
0.00080828
0.00123927
0.00116105
0.000162017
0.000802318
0.00022054
0.00487397
0.00100069
0.000471798
0.000515335
0.000735324
0.00113178
0.00150211
0.0011506
0.00062358
0.000555483
0.00172526
0.00071875
0.00120464
0.000475193
0.000633761
0.00058299
0.00435424
0.00156234
0.000272023
0.00101392
0.000457935
0.00256933
0.000348991
0.00175911
0.0016512
0.00486123
0.000906502
0.000973866
0.00207222
0.000215473
0.00037661
0.000527386
0.00105162
0.000578928
0.000506818
0.00103362
0.0015655
0.000761694
0.000639478
0.000680931
0.00113294
0.00749021
0.00334057
0.00155684
0.00100676
0.000520931
0.000629831
0.000441218
0.00283884
0.00237682
0.000655588
0.00108928
0.000628848
0.000777767
0.000848594
0.000818407
0.00029826
0.000457928
0.00090844
0.000667239
0.00030683
0.00284059
0.000534419
0.00082329
0.00100437
0.000665155
0.00273695
0.00285211
0.00165819
0.00079285
0.00114567
0.000811362
0.00092423
0.00187241
0.000176311
0.00280738
0.00355735
0.00365975
0.000535037
0.00138594
0.00287928
0.00151174
0.000944704
0.000431381
0.000470033
0.000537126
0.000302426
0.000469334
0.000294023
)
;

boundaryField
{
    frontAndBack
    {
        type            empty;
    }
    wallOuter
    {
        type            nutkWallFunction;
        Cmu             0.09;
        kappa           0.41;
        E               9.8;
        value           nonuniform List<scalar> 
102
(
7.88088e-06
7.88088e-06
2.94247e-05
1.78472e-05
1.00684e-05
1.47017e-05
1.83354e-05
2.14406e-05
1.10377e-05
1.0536e-05
1.2471e-05
1.19872e-05
1.45067e-05
1.03113e-05
1.53129e-05
2.39838e-05
1.99597e-05
2.42606e-05
2.19485e-05
2.33686e-05
2.70325e-05
1.14275e-05
2.1168e-05
2.25506e-05
3.06008e-05
1.98059e-05
2.13879e-05
1.72487e-05
2.05552e-05
2.16895e-05
1.39667e-05
1.15904e-05
1.15814e-05
1.10799e-05
1.16891e-05
2.44214e-05
2.09461e-05
2.54172e-05
2.38565e-05
1.21695e-05
2.20333e-05
2.28755e-05
1.32464e-05
1.41847e-05
1.47023e-05
1.444e-05
1.42297e-05
1.73116e-05
2.48792e-05
2.37001e-05
2.04296e-05
2.3103e-05
2.6703e-05
2.48597e-05
2.73815e-05
1.64303e-05
2.58365e-05
2.70929e-05
2.10933e-05
2.35862e-05
3.0693e-05
1.69413e-05
1.45854e-05
9.35478e-06
1.89072e-05
1.3609e-05
3.13343e-05
2.95591e-05
2.89621e-05
2.07113e-05
2.48567e-05
2.79366e-05
1.26729e-05
2.53325e-05
2.29863e-05
2.07048e-05
1.7643e-05
1.78113e-05
2.8534e-05
1.82263e-05
2.22514e-05
1.11807e-05
2.37668e-05
2.20901e-05
3.05197e-05
1.43272e-05
2.0405e-05
1.70398e-05
2.03015e-05
1.60172e-05
1.4838e-05
8.51737e-06
8.87516e-06
1.72687e-05
5.95207e-06
2.02902e-05
1.68238e-05
1.42403e-05
1.89313e-05
9.65883e-06
1.71804e-05
2.51072e-05
)
;
    }
    inlet
    {
        type            calculated;
        value           nonuniform 0();
    }
    outlet
    {
        type            calculated;
        value           nonuniform 0();
    }
    wallInner
    {
        type            nutkWallFunction;
        Cmu             0.09;
        kappa           0.41;
        E               9.8;
        value           nonuniform List<scalar> 
138
(
9.17308e-05
3.12364e-05
4.27544e-05
5.24465e-05
3.63381e-05
6.01395e-05
9.02906e-05
4.74519e-05
5.2485e-05
3.46432e-05
5.4221e-05
3.06728e-05
2.74498e-05
3.90395e-05
3.26246e-05
2.65596e-05
2.99812e-05
1.54626e-05
3.01791e-05
2.25901e-05
2.36881e-05
1.67394e-05
3.77988e-05
2.34109e-05
8.79725e-05
3.06772e-05
1.8124e-05
2.61724e-05
0.000117028
2.04452e-05
2.86908e-05
4.52045e-05
2.85647e-05
1.99772e-05
3.63011e-05
5.03672e-05
4.24763e-05
6.86054e-05
5.25962e-05
2.66029e-05
2.92333e-05
5.75074e-05
3.97739e-05
2.25573e-05
2.84505e-05
1.48778e-05
0.000108542
1.85027e-05
5.57166e-05
3.66063e-05
3.92299e-05
2.8115e-05
3.96258e-05
4.69395e-05
7.66673e-05
2.93387e-05
3.03055e-05
2.53985e-05
3.61214e-05
2.564e-05
5.09192e-05
4.44978e-05
6.39817e-05
3.99774e-05
3.74962e-05
6.51417e-05
2.73454e-05
2.81702e-05
2.81637e-05
3.33619e-05
2.4336e-05
3.20911e-05
2.32949e-05
1.48337e-05
2.22685e-05
2.2547e-05
2.65327e-05
3.03507e-05
0.000138998
7.97268e-05
8.21885e-05
9.79272e-05
5.79859e-05
7.14683e-05
6.49076e-05
4.72217e-05
9.0533e-05
8.61307e-05
3.18615e-05
0.000127981
9.35923e-05
2.93145e-05
3.55837e-05
7.82616e-05
1.86721e-05
2.82976e-05
6.73752e-05
1.96567e-05
8.70086e-05
1.78192e-05
2.85127e-05
2.6757e-05
2.31826e-05
0.000112286
2.52443e-05
6.14073e-05
2.43627e-05
2.62037e-05
1.86955e-05
2.88846e-05
8.56856e-05
5.18484e-05
1.79047e-05
3.88641e-05
3.18286e-05
2.74375e-05
1.75152e-05
1.91274e-05
2.84216e-05
1.87767e-05
6.4761e-05
5.09121e-05
1.89595e-05
8.40805e-05
1.5768e-05
3.20277e-05
3.22797e-05
2.05424e-05
2.15823e-05
3.64052e-05
1.62768e-05
4.63055e-05
0.000111612
5.3037e-05
6.6096e-05
3.68214e-05
5.79012e-05
3.51337e-05
)
;
    }
    procBoundary2to0
    {
        type            processor;
        value           nonuniform List<scalar> 
42
(
0.00794125
0.00794125
0.000508136
0.000440147
0.00168686
0.00679069
0.000532016
0.000532016
0.00144823
0.00145411
0.00391395
0.00391395
0.00263708
0.00529581
0.00663474
0.00515188
0.00817766
0.00139771
0.00144006
0.00168646
0.00113041
0.00127626
0.00127626
0.000958055
0.00113041
0.000944728
0.00197809
0.000698045
0.00197809
0.00840027
0.00848422
0.000681401
0.000893534
0.00111496
0.00108418
0.000440147
0.00817766
0.000228595
0.00348674
0.000595514
0.000595514
0.000898183
)
;
    }
    procBoundary2to1
    {
        type            processor;
        value           uniform 0.00200204;
    }
    procBoundary2to3
    {
        type            processor;
        value           nonuniform List<scalar> 
29
(
0.00127692
0.00128989
0.000331695
0.000307342
0.000858288
0.000497448
0.000346219
0.00100961
0.0022182
0.00196914
0.000788474
0.00102557
0.000471434
0.00180603
0.00150845
0.00123328
0.0020736
0.0020736
0.00128989
0.00180603
0.00183436
0.0018458
0.000229868
0.00221969
0.000847425
0.00113719
0.0022182
0.00160733
0.00102557
)
;
    }
}


// ************************************************************************* //
