/*--------------------------------*- C++ -*----------------------------------*\
| =========                 |                                                 |
| \\      /  F ield         | OpenFOAM: The Open Source CFD Toolbox           |
|  \\    /   O peration     | Version:  v1912                                 |
|   \\  /    A nd           | Website:  www.openfoam.com                      |
|    \\/     M anipulation  |                                                 |
\*---------------------------------------------------------------------------*/
FoamFile
{
    version     2.0;
    format      ascii;
    class       volScalarField;
    location    "0.82";
    object      p;
}
// * * * * * * * * * * * * * * * * * * * * * * * * * * * * * * * * * * * * * //

dimensions      [0 2 -2 0 0 0 0];


internalField   nonuniform List<scalar> 
1466
(
92.1647
90.0643
91.7887
92.3634
91.2448
88.652
92.6454
91.2703
91.5315
92.8451
91.5345
92.7718
92.6245
92.455
92.2541
92.4787
92.1026
92.1329
91.0841
92.4434
92.2827
92.762
92.8968
90.5152
92.4907
91.6647
91.6374
92.8449
92.7508
91.3301
91.0602
88.1422
92.7862
91.1747
92.0706
92.1618
92.229
92.3924
90.4572
92.7952
92.7836
92.7401
91.4443
91.0855
92.8327
91.5086
92.3942
92.1703
92.7318
92.3204
91.755
92.8697
91.3252
88.6711
92.8062
92.8048
92.3371
92.6488
92.7265
92.8049
92.458
91.3098
91.2048
88.3648
90.0958
92.4239
92.8004
92.2483
92.1544
92.7665
91.6862
92.3113
92.4285
92.4215
92.4489
92.8643
92.3992
92.1927
92.7298
92.7954
91.7477
92.4285
92.2345
92.7341
92.4898
92.4065
92.5266
90.0389
92.4064
91.9658
92.4178
92.3772
92.7621
92.243
91.7478
92.3273
89.9471
92.784
91.3888
92.4356
92.69
92.8245
91.8213
89.518
92.3193
91.4836
92.2185
92.2604
91.5712
92.4883
92.6936
92.5106
90.0196
92.423
92.6144
90.197
92.3631
92.4391
91.8482
92.6494
92.2374
92.1063
92.2577
89.958
92.3779
92.7303
92.5893
90.6137
92.7543
92.1049
92.7474
92.355
92.0096
92.7896
91.731
92.7827
92.7658
92.5484
92.8645
92.3206
92.8225
92.3226
92.7414
92.7353
92.8497
92.4549
90.018
91.5992
92.7977
92.4564
92.7463
92.6041
92.0361
89.889
92.4355
91.5121
92.235
89.9484
92.6996
91.7834
92.8329
92.4403
90.3375
92.2779
92.8133
92.7705
91.7943
92.0133
92.4386
91.7269
92.4325
92.4464
92.5859
92.799
91.6496
89.9384
92.7908
92.7878
92.3256
92.7734
92.148
92.3073
92.7771
92.4033
89.9808
92.4284
92.2296
90.5653
92.1593
89.0126
89.4886
92.3977
92.4121
90.2304
92.3422
92.277
92.8835
92.5144
92.3745
92.4025
89.9833
92.6596
92.2906
92.4293
92.5935
92.7573
92.2706
91.3762
92.2024
92.6935
92.6406
90.0345
92.6912
92.4873
91.6607
92.187
91.8255
92.2516
92.445
92.3946
91.0034
92.1164
92.4717
92.4238
92.7907
92.4338
92.3611
92.5306
92.2062
91.6178
92.5467
90.2737
92.4136
92.6804
92.2257
92.6066
92.7044
91.2781
92.7321
92.5372
91.5376
92.7542
92.4345
92.7957
92.7729
92.2213
91.7559
92.2796
92.2341
92.2295
92.4343
92.5419
92.7614
90.0452
92.3988
92.5858
92.2863
91.9715
90.1091
92.8797
92.5127
92.4676
92.552
91.8981
89.5396
92.316
91.5782
89.9301
92.6114
92.3661
92.6571
92.1056
92.5975
92.2738
92.4554
92.7188
89.968
92.3931
91.3227
92.7596
92.5833
92.2218
92.2481
92.5936
92.3494
92.6556
92.6902
92.4792
91.3522
92.3827
92.4555
91.4869
92.6726
92.8314
92.795
92.6779
90.9174
89.6123
92.7079
92.3323
92.728
89.9807
92.5789
92.6872
92.4802
92.276
90.1889
92.7192
92.6186
89.7454
91.6592
91.7458
92.6576
92.7764
92.7603
92.6319
89.9859
91.6776
92.8782
92.6153
92.3965
92.7919
92.7999
92.2838
90.2415
92.2536
91.7392
92.3469
91.6027
91.7446
90.2492
92.1374
91.7039
91.8256
90.2866
92.2025
92.5571
91.6935
90.105
91.7292
90.1487
92.1749
92.2974
91.7594
92.2294
91.7353
90.0496
92.3872
92.724
91.1542
92.792
92.5501
92.7859
92.6968
92.6963
92.6796
90.0241
89.525
89.9292
92.6723
91.4935
92.801
92.7795
91.8608
92.7798
92.2616
91.7578
91.6587
92.2731
90.0659
91.7198
92.4772
90.0488
92.1463
91.821
90.292
92.2752
89.7379
92.5006
92.7154
92.6046
92.7961
92.6997
91.7499
92.789
92.6801
92.5073
92.5672
92.7111
92.7035
92.7128
92.2461
92.7773
89.7716
92.6431
92.2732
92.773
91.7055
92.3429
92.6112
90.152
91.6324
92.7631
92.6037
92.8272
92.2413
92.7355
90.1973
92.0878
90.0694
92.4684
92.7632
92.7113
92.7907
90.5467
92.7242
92.7153
92.5702
92.7049
92.715
92.6188
92.6976
92.7538
92.736
92.7323
92.7056
92.7699
92.7613
92.707
92.6699
89.8878
92.5171
92.7102
89.86
91.0639
89.7402
90.5507
91.1136
92.4516
92.2587
90.2703
92.6911
90.0133
92.7073
92.4975
90.8051
92.0503
91.9282
89.559
92.5987
89.5323
91.0382
92.8186
92.6511
90.4956
92.5338
91.8085
91.2476
93.1551
92.6231
90.7364
92.6892
92.6673
92.6283
90.0909
90.9725
89.8058
92.3891
89.8763
92.7509
89.9467
92.679
92.6358
92.8659
88.1942
91.0297
92.9475
92.8818
90.9947
89.2084
89.8981
92.2396
88.5659
92.1487
90.9398
89.9746
92.1054
91.7542
88.7513
92.8925
90.9898
90.0583
92.0486
91.7363
92.7255
91.0547
89.2713
90.4969
90.674
90.423
90.1558
92.05
92.7545
92.7786
91.7105
92.7454
92.8831
92.6465
92.4964
92.6175
92.2338
91.0918
92.3284
92.6532
92.7658
92.4698
90.1718
92.0356
92.6486
92.6488
92.6653
90.2726
90.4751
91.2579
91.5675
92.7147
90.2421
90.7558
92.7102
91.7052
92.2156
92.7665
92.6001
92.5567
92.6934
90.5791
92.8064
90.0855
92.3608
92.7168
90.328
90.224
91.885
90.2504
92.565
92.709
91.7477
90.1119
90.2209
90.2312
92.0618
92.3082
90.0308
92.7401
92.7596
91.6313
89.9367
92.5428
92.6926
92.1079
92.4081
92.7474
92.7534
90.2884
92.8551
92.8017
92.3637
92.5827
92.5078
89.8842
92.3117
91.6001
92.4365
92.8239
91.634
92.4248
92.4301
91.6812
92.4372
92.3614
92.7683
92.6337
92.7158
92.7586
92.3721
89.6681
91.3184
92.0717
89.6741
92.0983
90.0954
92.4192
92.8558
91.8056
90.2559
92.0523
92.8017
92.7586
90.0004
92.7536
89.546
90.2591
92.1072
91.8098
91.6798
92.635
92.6899
92.4913
90.8247
89.8694
92.7651
91.5856
91.867
90.5231
92.5837
91.6557
90.4137
92.4737
91.3211
90.2304
92.2813
92.3426
92.1933
92.7994
92.1377
92.5337
92.6943
92.6555
92.2975
89.7481
92.4965
90.036
91.781
91.9633
92.7976
92.7803
92.7868
90.0352
90.2951
92.1082
92.2588
90.7951
92.3244
92.1444
91.5883
92.8
91.7789
91.4578
90.9031
92.2172
92.7103
89.6361
92.797
91.0574
92.712
92.4515
91.4625
92.7343
92.1735
91.7596
92.4913
89.9823
92.8141
92.2979
91.5439
89.8286
92.3821
92.7096
89.7491
92.7982
92.1434
92.3807
92.6888
91.763
90.1608
92.3603
92.1419
89.8331
92.2354
92.7267
90.3246
92.2992
92.4856
91.8117
92.7111
91.6705
91.1729
92.5644
91.6177
90.4253
92.4319
92.1341
92.2985
92.7039
89.8988
92.2078
92.7828
92.6251
92.781
92.7327
92.3529
91.8485
92.8038
90.7306
92.7291
92.1005
92.7287
89.6406
92.3528
90.3094
92.2022
92.3099
92.893
90.2533
92.1904
92.2414
92.8034
89.7861
92.1564
91.5942
92.7332
92.6728
92.0534
92.7477
90.6595
92.488
92.7291
92.5731
91.0761
92.8679
92.1433
92.0695
92.7229
92.6891
92.6834
91.4747
92.6991
92.6783
91.5711
89.6041
91.9162
92.7175
92.6786
92.441
90.3396
92.6111
92.7392
91.9096
91.193
92.7913
91.6721
92.8953
92.2573
92.7535
92.7452
90.96
89.8568
91.792
91.7607
92.3018
92.8499
91.9749
92.7837
90.0285
92.3939
91.6601
92.6318
92.8774
91.7562
91.6981
92.6981
90.6365
91.1343
92.5268
92.7919
92.7607
92.5834
92.785
92.6564
91.2623
90.1116
90.8837
92.6142
92.6837
92.7747
92.7305
92.134
92.3795
91.3561
92.483
92.4303
92.3409
90.1309
92.3847
89.9713
91.7827
90.83
92.4023
92.7553
92.4619
90.3429
92.7406
92.1012
91.7285
91.8528
91.4934
91.9118
92.349
92.2037
92.597
90.1236
92.3148
92.2138
91.7728
92.4555
91.2488
92.1263
91.6832
89.5574
91.4165
89.9017
92.3252
92.6125
92.722
92.3147
92.2897
91.4491
92.546
92.6275
91.774
92.2151
92.7223
92.3427
91.5462
92.1322
92.3595
92.5761
92.77
92.3708
90.1455
92.6527
92.6671
92.8332
92.0946
92.6921
92.6917
92.7999
92.7956
92.4559
92.7065
90.9458
92.7618
92.7484
91.2708
92.4162
91.7307
92.7002
92.416
91.4914
92.8153
91.397
92.694
89.8264
89.8266
92.1919
90.2322
92.1203
92.2055
92.712
92.3313
92.1116
92.5217
91.6147
91.032
91.6531
92.4396
92.4209
90.3752
90.7418
92.577
92.4165
91.7417
91.4561
92.3165
92.1514
91.5815
89.9766
92.5279
92.5457
91.0224
92.7712
92.4035
92.3116
92.7068
92.0974
90.9556
91.638
91.627
91.6817
92.8731
92.0405
92.113
92.7361
92.6705
92.7013
92.3993
92.3574
92.278
92.7923
91.8621
92.5734
91.7166
92.2035
92.4138
92.7465
92.531
92.773
92.4265
90.2624
92.6344
90.1335
92.3853
92.2702
89.974
91.4304
92.4471
92.2176
92.7063
92.7346
91.7048
92.4094
90.25
92.7128
92.4696
92.3114
91.0804
92.3251
92.4328
92.1885
92.4614
92.4691
92.4422
92.4634
90.2873
90.3316
90.2121
90.2102
92.4564
90.3117
90.4792
92.459
92.4682
92.4818
91.9368
92.4971
92.5148
92.8054
92.328
92.7862
92.36
90.6983
89.6446
92.7053
92.5534
92.1347
91.2099
91.7462
92.2032
91.7671
92.1648
92.0701
92.7437
92.4483
91.7453
92.6749
92.1543
92.1196
90.249
90.9657
92.4868
91.6019
91.5145
90.6712
91.6622
92.2518
91.7573
92.7808
90.0247
92.1655
92.6427
90.5211
92.7491
91.942
91.2662
91.9483
91.7194
92.3516
89.5611
92.0969
91.311
91.7662
91.5419
92.7351
92.1892
92.7916
92.4939
92.4787
91.7229
92.5671
92.2512
92.199
92.1942
92.3853
92.7411
92.6891
92.8767
92.0846
90.2306
92.6916
92.2405
92.3289
92.2906
91.662
92.5195
91.0612
92.8429
92.7226
92.7658
91.1536
89.312
92.2884
91.8781
91.3073
92.8985
92.4027
92.3482
91.213
92.6334
92.735
91.2466
91.7922
92.6286
92.4241
89.9153
92.7422
92.747
90.2548
92.5983
92.6553
92.0683
90.1677
91.7652
91.6511
91.6331
92.7786
92.7092
89.6797
91.7081
92.6726
90.2132
91.0225
92.4021
92.3138
92.5461
92.1701
89.9653
92.3173
89.9132
92.8569
92.7977
92.6906
92.8984
92.0917
90.0739
90.2077
92.7046
92.8543
91.1851
91.8246
91.6454
92.78
92.524
92.8996
91.7519
91.9567
92.8113
90.5824
92.8173
91.7093
92.174
91.4433
92.7322
92.567
90.5574
92.14
92.4401
92.5091
91.5629
92.7667
92.3777
92.4136
92.9048
92.4855
92.2625
92.6064
92.6278
92.5605
92.9034
92.8779
92.1985
91.6175
92.7248
92.5964
92.1109
91.8754
92.1494
92.4138
90.3218
92.2124
92.8835
92.3855
91.7233
92.6209
92.2829
92.3328
92.5347
90.0875
91.715
92.9542
91.9617
92.6216
90.1419
92.6417
92.494
92.5712
90.0874
92.703
92.2066
89.6313
91.6689
92.2087
92.7537
92.7414
92.4016
92.1575
90.986
92.5732
90.7842
92.6751
92.3563
92.1542
92.4408
92.3544
92.5527
92.6903
92.6667
92.762
92.6622
90.1846
92.177
91.729
92.2882
91.3192
92.9242
92.6592
91.9696
92.2118
92.4658
92.2807
91.7296
92.2739
92.2128
91.1393
92.2295
92.1705
90.9845
88.5667
91.3148
92.4573
92.6507
92.4174
92.8288
92.0902
92.4639
92.3475
92.5846
92.657
90.3389
92.0709
90.1725
92.0739
92.6434
92.5504
92.171
92.2449
89.8244
91.9011
92.3646
92.5878
92.6441
92.6707
91.5947
91.721
92.5754
92.3947
90.3082
92.3973
89.7119
91.6215
90.6991
92.706
92.4122
91.6836
91.6866
90.3313
92.2898
92.713
92.5742
92.7228
92.1067
92.7604
89.6065
90.327
92.6692
91.617
92.3257
92.2398
89.6714
91.9481
92.3221
92.4167
89.9637
92.5974
92.0228
92.4406
92.6867
91.7626
91.2443
92.4136
91.7826
92.7504
92.4306
90.5434
89.5969
92.3132
89.7656
92.3666
90.3396
91.7716
92.6755
91.6418
91.1729
92.7081
89.8427
92.6193
92.5702
92.6944
90.1204
92.657
91.5487
92.7894
92.6888
92.3066
92.8131
92.6786
92.5782
92.19
92.7856
90.2665
92.4355
92.632
92.2029
92.8035
92.5944
89.6411
91.8088
91.5446
92.706
92.3664
92.5543
91.7476
91.6844
92.5499
91.357
92.2816
90.1923
92.7131
92.7524
92.0131
92.3759
92.8743
89.6875
91.8033
91.7855
91.0754
91.4765
92.6853
92.588
92.6272
92.0726
92.2037
89.7682
92.6261
92.0916
91.5776
92.708
92.6398
89.8686
92.6569
92.7105
92.7899
90.1292
92.0684
92.1511
92.6798
92.6475
91.8603
90.123
92.6733
90.9006
92.6315
90.0731
92.6855
92.279
92.7423
92.6781
91.9161
92.6746
92.6849
90.1402
92.0989
90.8218
92.4307
90.0175
92.6758
92.7447
92.7836
92.1371
90.2668
92.4128
90.9058
91.5247
92.3117
92.1066
90.1808
92.3309
92.6885
91.7402
92.202
90.2477
92.581
92.4668
92.3033
92.1079
90.2457
92.3529
92.6849
92.7926
91.6754
92.7269
92.3148
90.0142
92.4527
91.8051
92.5604
91.1257
91.7452
92.7147
89.653
92.5818
92.565
90.0184
92.2769
89.9247
92.3408
92.4497
92.5975
92.5305
92.3483
90.1112
92.3742
92.4145
92.8411
92.5207
92.5864
92.5236
92.4302
92.8535
92.672
92.8601
92.3101
90.0525
91.9213
91.9495
92.5288
92.5928
92.3805
90.0758
92.7343
92.678
92.8058
92.9047
90.7611
92.2951
89.9657
92.7647
92.673
92.7728
92.4431
92.815
92.5053
92.4448
91.7818
92.4772
90.14
92.5313
92.3878
92.7541
89.6773
91.9395
87.9102
92.3783
90.178
92.4061
92.3401
92.6604
92.6112
92.5389
92.3457
90.2015
90.2182
92.1049
92.2079
92.4481
90.2308
91.8753
89.7913
92.4279
92.6275
89.6269
90.0904
92.9168
92.5679
92.7139
92.6991
91.7902
92.5481
92.8804
92.4458
92.6837
90.1781
92.6379
92.6842
91.2937
91.15
92.4184
92.7942
91.4444
91.7798
93.1907
91.4401
91.6281
91.0803
92.5719
92.7783
92.6599
)
;

boundaryField
{
    frontAndBack
    {
        type            empty;
    }
    wallOuter
    {
        type            zeroGradient;
    }
    inlet
    {
        type            zeroGradient;
    }
    outlet
    {
        type            fixedValue;
        value           nonuniform 0();
    }
    wallInner
    {
        type            zeroGradient;
    }
    procBoundary2to0
    {
        type            processor;
        value           nonuniform List<scalar> 
42
(
89.7392
89.7392
90.504
90.426
89.9514
89.8365
90.4496
90.4496
89.9045
89.8703
89.9238
89.9238
89.9968
89.8634
89.8045
89.9962
89.6615
89.901
89.8729
87.8958
88.4608
89.9416
89.9416
88.9034
88.4608
90.0901
89.3074
90.2131
89.3074
89.7608
89.7115
90.2964
90.3403
90.372
90.4118
90.426
89.6615
90.4096
89.6317
90.4703
90.4703
90.4532
)
;
    }
    procBoundary2to1
    {
        type            processor;
        value           uniform 87.7623;
    }
    procBoundary2to3
    {
        type            processor;
        value           nonuniform List<scalar> 
29
(
91.3695
91.2023
92.787
92.8294
88.519
91.3788
92.9237
91.2166
92.7994
92.8136
91.3395
88.2134
91.4141
92.8987
92.931
92.9176
92.7975
92.7975
91.2023
92.8987
92.9227
92.809
92.9779
92.8159
92.9435
92.798
92.7994
87.8397
88.2134
)
;
    }
}


// ************************************************************************* //
