/*--------------------------------*- C++ -*----------------------------------*\
| =========                 |                                                 |
| \\      /  F ield         | OpenFOAM: The Open Source CFD Toolbox           |
|  \\    /   O peration     | Version:  v1912                                 |
|   \\  /    A nd           | Website:  www.openfoam.com                      |
|    \\/     M anipulation  |                                                 |
\*---------------------------------------------------------------------------*/
FoamFile
{
    version     2.0;
    format      ascii;
    class       volScalarField;
    location    "1";
    object      k;
}
// * * * * * * * * * * * * * * * * * * * * * * * * * * * * * * * * * * * * * //

dimensions      [0 2 -2 0 0 0 0];


internalField   nonuniform List<scalar> 
1466
(
0.338326
0.909278
0.378324
2.00394
0.308418
0.75292
0.31711
0.904942
0.27829
1.09766
1.40448
1.0462
0.219217
0.269144
1.27068
2.34892
0.677441
1.06303
2.47569
1.56957
2.57061
2.40881
1.89965
1.37158
0.249714
0.645858
1.57178
1.95569
0.240531
1.43468
1.6193
0.688809
0.432598
3.43527
2.02397
1.08418
3.55065
0.741782
1.38733
0.134297
0.228213
1.13357
1.22516
0.256845
0.143977
0.501743
1.29997
0.141586
0.903172
0.182274
0.447128
0.925452
0.722363
0.178386
0.383944
0.27669
0.378368
1.22627
0.22694
1.11411
1.10934
0.418767
0.205225
1.07356
2.15644
0.857002
3.80985
1.51257
0.891422
0.341215
2.18578
1.3645
0.930945
0.265796
0.796183
1.51712
0.403077
0.202688
0.542183
1.71051
1.36613
2.04505
0.377983
1.712
2.38304
2.92086
2.89018
1.60823
1.34528
1.15738
0.831225
1.52834
2.36892
0.274959
0.603369
0.38463
0.840515
1.20342
0.28099
0.25077
0.606252
0.332184
0.125651
1.19191
1.40849
1.10873
0.766645
0.16044
1.27924
0.34944
0.982446
1.80773
0.422743
1.11225
0.979513
1.24037
1.2851
0.872198
0.294553
0.165384
2.54102
0.439565
0.191083
0.290757
0.165386
1.06284
1.13754
1.8982
1.3658
1.25594
1.20249
1.07784
1.7703
1.29803
0.917574
0.217309
0.128077
0.504194
0.24659
0.140281
0.233536
2.18203
1.94377
1.94098
2.46747
3.61205
0.690999
1.01012
1.57072
1.81352
0.922668
1.12151
1.02496
0.424225
1.44573
2.37689
1.75845
2.41736
0.755826
1.04265
0.667872
1.47309
1.44365
2.08622
3.00341
1.69387
1.72065
2.19572
2.3358
1.17334
2.51765
0.508095
0.170186
0.936077
0.586534
0.269973
1.25647
1.66922
0.896693
2.24284
0.29061
1.10909
2.76341
0.137792
1.61471
3.01522
2.47536
1.21227
0.912466
0.794233
2.72058
1.18021
2.18915
3.94579
0.950345
1.11137
0.284789
2.40859
2.93636
3.9906
1.53035
1.4119
1.27975
1.32249
1.90928
2.88516
3.01123
0.841636
0.749287
1.50695
2.21983
2.15493
2.56904
2.31841
2.74551
2.06546
3.07212
2.55097
1.44418
1.58032
2.08426
1.27279
2.15107
1.26931
2.2392
2.27346
2.11138
0.168949
0.90491
1.241
1.62905
1.68233
4.25511
3.79781
0.691974
2.5396
1.8572
2.09089
1.02072
2.6627
1.1898
1.66675
1.14191
4.08965
0.854079
1.35785
0.67341
0.264237
1.7584
1.02317
2.95187
2.33344
0.770695
1.28198
0.515775
0.986528
1.63567
0.375972
1.30586
1.62014
1.1257
1.68508
1.26473
1.21804
1.56561
0.137015
0.638523
1.51211
2.43106
0.401342
1.70073
1.47176
0.825348
0.752109
0.871745
1.41468
1.08604
1.6245
2.45757
1.62598
1.13331
1.81026
2.03877
1.50231
2.35575
0.199567
1.69246
1.64874
0.247517
0.623475
0.675457
0.302541
0.257461
0.318822
1.27932
0.660712
1.99103
0.268594
1.67063
1.12402
0.220343
1.56568
0.180347
0.283934
2.42998
1.13839
0.57383
0.426337
1.09776
3.36241
0.88931
2.59938
1.6079
1.32005
1.53597
1.30567
3.23955
1.01125
0.26353
1.35192
0.624295
1.68237
1.38108
1.03411
2.46836
0.537852
0.22222
1.02521
0.918631
1.34844
1.80049
0.574644
0.472585
1.07115
2.32236
0.388889
2.48883
1.00399
0.634417
0.371571
0.237427
0.912338
0.610063
1.67856
1.24444
0.184127
1.44116
1.15905
0.976075
2.23165
0.767978
0.363144
1.51727
3.02455
2.86262
2.91209
1.69313
0.372055
0.306043
1.14712
2.92934
2.58934
1.93674
1.97861
0.297812
4.43098
0.813516
0.783768
0.898622
1.17845
1.04722
3.08403
1.31421
0.970654
0.504412
3.70889
1.49356
1.33086
0.341089
1.4922
2.60465
2.27395
2.82097
2.99682
2.5663
2.44051
0.556646
0.529492
0.389514
0.229181
0.981144
2.05884
1.95628
1.96458
1.41288
0.673536
0.236838
1.33675
1.16861
0.428491
0.213269
0.177518
1.45547
0.282396
1.22985
3.5498
1.59362
0.999866
3.5645
3.42838
1.1683
1.81005
2.07814
3.58776
1.64844
0.319803
0.29354
1.30851
1.44038
0.580088
2.93702
3.08871
0.587846
2.04677
0.542773
0.2998
2.21627
1.2932
0.455326
0.274424
1.9913
0.848417
1.23604
2.0384
1.31727
0.320694
0.319564
0.278347
0.224869
1.92179
0.360111
0.402208
1.9618
0.444393
1.31653
0.555941
0.62563
1.39965
0.466214
1.88447
1.43863
0.377756
0.240853
0.33388
1.42514
0.360165
0.406953
0.705457
0.303357
1.39622
0.40191
0.897967
0.429222
1.05417
1.74417
0.392546
1.97383
0.755981
0.493613
1.81731
0.606971
0.624056
1.9129
0.147024
1.42688
0.371897
0.209666
2.07701
3.62167
1.75289
1.11218
1.95687
2.18107
3.39284
2.67093
0.718436
0.333251
0.364148
3.42122
2.07688
2.9703
1.88415
0.57951
2.12633
1.19447
2.56798
3.5257
2.66487
1.33032
2.44547
3.14916
3.53814
1.11965
2.66747
0.420682
2.64479
1.58112
1.54584
0.32859
3.12785
1.29221
2.37089
1.59648
1.76775
3.5606
2.23566
1.09825
0.313562
0.549549
0.764095
3.23149
0.529694
3.83039
0.841342
2.15322
1.28005
0.755777
1.77721
1.47383
3.21397
0.372817
1.94283
3.34327
2.4373
2.90921
0.913776
0.959394
1.72562
1.283
2.1049
0.674272
2.87845
0.575943
1.6355
1.66289
0.919782
1.83852
0.6916
3.35483
1.52526
2.66334
0.365803
0.704382
2.78077
1.84945
3.34801
3.19816
2.22776
1.11198
0.543726
3.12834
3.2358
1.2438
1.10562
0.453598
1.54945
2.28466
3.81468
1.79103
3.75038
2.56234
3.81313
1.15178
1.53597
0.688634
2.68202
0.364689
3.66984
3.03171
1.74423
1.42723
3.721
3.451
2.34526
2.62787
1.2249
2.57828
0.319688
2.69274
1.82686
2.85036
0.784929
2.21734
3.35987
3.10885
2.03865
1.93155
1.35832
0.862086
1.98457
1.29054
0.453682
0.444492
0.922985
4.65401
2.46158
1.34995
0.14634
1.61065
3.36819
0.702144
2.1957
0.690239
0.962854
2.07264
0.981303
1.52013
0.830141
0.72437
2.61327
0.88426
0.224727
1.24925
0.562823
0.913449
3.27985
2.08207
2.44097
2.79856
3.73189
2.15772
0.698614
0.750273
0.477125
3.6243
0.412082
2.47293
2.22144
1.59612
1.97932
3.50685
1.72669
1.40009
1.32369
3.6452
0.453192
2.39782
3.36902
1.38778
0.854702
3.59375
0.353328
1.22151
0.356316
3.70881
3.55781
0.369999
1.74093
0.937972
0.250466
3.88643
1.82167
0.35333
0.465681
3.12251
1.13777
1.7977
1.39639
1.5589
0.269199
0.454356
0.972763
1.8025
0.24465
1.84903
0.235108
1.6388
0.411804
0.477594
0.596812
1.93523
0.523729
0.58339
3.96638
0.354958
3.16346
0.451117
0.20331
1.17773
0.248162
3.60127
0.580178
0.519008
1.31524
0.382733
0.197783
1.24121
2.5076
0.468094
2.14631
3.55545
0.42527
0.220206
0.926454
3.17536
2.71582
1.22433
0.557356
0.202367
2.92161
0.914139
3.26309
0.30296
1.53487
3.57045
2.10694
0.999266
2.83505
2.73656
1.60471
1.34116
2.97403
3.99772
1.36527
1.88846
3.6163
1.94558
1.07226
1.302
0.199027
2.28112
1.79786
2.49969
0.30178
3.45092
2.54293
1.19245
2.40919
0.245151
3.17986
3.6411
1.79297
3.60422
0.230276
0.258008
0.432159
0.523159
0.340485
1.25795
1.24927
1.93142
1.78572
0.645361
0.281197
2.04264
2.8054
3.12704
2.01725
0.454472
2.16429
2.27239
0.398543
1.50327
1.48472
3.94359
1.2806
1.88947
2.23639
2.18037
2.87478
1.26417
0.674867
0.207976
0.531907
2.3554
2.64523
1.32208
0.321618
1.62501
1.81618
1.47464
0.998648
2.07618
0.744485
3.17378
0.303352
1.6602
3.69919
2.88852
1.16398
2.04954
3.1478
2.51668
0.563296
1.24497
0.510602
3.06976
1.4616
0.428121
0.979147
0.641146
2.17423
3.45456
0.4947
0.857666
0.190507
0.240015
0.430673
2.42425
2.05789
1.23272
1.74342
1.88296
1.29369
1.66895
0.505729
2.20493
1.98038
0.880576
2.59459
1.86804
2.91926
0.836081
1.69351
0.313309
0.631346
2.30298
0.421435
0.548123
1.82212
1.7443
2.21488
0.927143
3.76435
0.467787
1.00817
0.745436
0.284077
0.743864
0.952861
1.22764
3.45038
3.15087
0.435147
2.86672
1.32066
0.539031
3.25319
1.07878
1.67388
2.69971
1.38554
2.01458
2.32728
1.78801
1.20317
1.53058
0.829568
1.63508
2.02671
3.62459
3.62074
0.325699
0.994927
0.664751
0.66317
2.04152
2.31471
1.27707
2.83311
2.04351
0.477612
2.07741
0.764253
3.81083
0.798419
3.23626
1.0437
1.07583
1.005
1.09505
1.07542
1.14653
1.05131
1.52802
1.55696
1.66192
1.55431
1.49612
1.46052
1.48767
1.45691
1.76252
1.16259
1.30541
1.83268
1.8231
1.53564
1.68414
1.42373
1.40689
1.38853
0.968108
1.81613
0.225377
0.221792
2.25284
0.471216
0.530568
0.2806
0.257563
1.21337
3.37915
1.80344
3.64669
0.919851
0.505114
0.412011
1.74377
0.484208
2.20719
1.31004
2.07477
1.32246
1.1434
3.80133
2.47067
1.34773
0.365743
0.197846
0.291792
0.222288
0.274171
1.07402
1.585
2.13362
2.95143
0.323464
0.289442
0.49854
0.540157
0.765648
0.644905
3.18529
0.443689
0.221425
1.28139
1.10956
1.00069
0.500391
2.09207
1.40314
1.73071
2.71528
1.73578
2.20877
0.607275
1.90607
2.90052
1.37194
3.77609
0.796307
1.26825
0.554639
1.78276
2.9791
0.169229
1.50457
1.35025
2.39576
0.258779
2.57376
2.52706
2.53022
1.21411
0.797956
1.50599
2.09399
0.702665
0.815122
0.330053
1.95384
2.80301
3.74065
0.540876
1.30603
3.53112
1.05679
3.35355
1.55537
0.552169
0.180497
1.54827
1.41269
3.10254
4.74336
1.66223
2.41872
0.252758
0.569423
2.33038
1.42181
2.7922
0.419905
0.878803
0.459202
0.252069
0.163703
1.48453
0.255216
0.815879
2.55533
0.35653
0.200192
1.8463
0.347484
2.52899
1.16653
1.11118
3.22853
1.02739
1.37637
3.0617
1.96901
2.67873
1.16159
0.887588
2.04412
1.4442
0.246008
0.568398
2.90032
1.57611
0.551876
0.666411
2.15452
1.35072
0.761184
1.92822
0.262219
1.59206
0.613604
0.341738
0.229902
0.571569
0.459718
0.813539
0.302049
0.960566
3.58292
0.399804
0.19777
0.636116
2.11148
0.644624
0.231657
1.25088
3.20018
0.921914
0.632968
0.415167
0.281545
0.487838
0.592232
0.459147
2.83674
1.02682
0.458979
0.191153
0.0841105
1.65152
1.72388
0.268726
0.401092
0.282989
0.453377
0.273548
0.281645
0.288001
0.354118
0.285602
0.258896
1.26831
0.257129
0.271447
0.265077
0.261122
0.681129
0.721211
0.253625
0.271879
0.290635
0.291818
0.820137
3.07834
2.0254
1.25239
1.17151
2.44573
3.47194
1.32236
1.22046
0.919755
2.01897
0.546191
0.269435
0.353195
2.7706
1.58119
3.61096
2.26506
0.2106
3.26925
1.09275
1.46693
0.639994
2.00468
1.74932
2.95105
0.617594
2.32704
1.57056
2.0013
0.896356
1.27835
0.264465
0.554755
0.940319
1.48359
1.45513
1.39881
1.5818
1.68499
0.375268
1.67681
1.20314
1.30962
2.14559
2.75311
3.55942
3.65973
0.405412
0.190851
1.30472
1.58799
1.42876
1.01239
0.959235
0.745715
1.16601
3.70727
0.756625
0.825767
3.08874
0.50597
0.337875
0.773476
1.53422
1.27034
3.40259
0.561479
1.8639
1.23485
0.904703
2.32471
3.85183
1.02891
3.04441
2.59557
0.26518
0.564267
1.61601
2.17146
0.368274
0.27205
2.79192
1.56132
2.38917
2.98906
3.57094
3.88883
0.847279
1.24289
1.91269
1.70633
1.6778
3.27183
0.720444
0.915672
1.28015
1.81725
0.513053
3.1693
1.64079
0.657699
1.37199
1.22958
0.552859
0.744419
0.744148
1.49238
0.530065
0.887014
1.11135
1.03763
1.26916
4.93243
0.268229
0.422464
0.983791
0.237578
0.530243
1.39768
0.366413
0.199555
0.25451
1.50359
0.814808
1.93188
3.56045
3.40888
0.374664
1.47319
0.262635
2.34943
1.13109
0.202172
1.86531
1.28551
2.85598
2.4007
1.70669
1.67353
1.2891
0.561754
0.491075
2.90101
0.571675
0.214881
1.52965
0.338803
3.15879
0.549506
1.70511
0.541961
3.05869
1.74366
0.141775
3.34979
0.709192
0.265772
3.26456
2.32967
1.20618
1.54414
0.96693
3.41383
1.11198
2.38768
0.50848
0.96949
1.34335
2.48112
1.78194
3.74528
3.95077
1.21793
1.81912
1.81451
2.59012
0.251916
1.02704
1.43528
0.238385
3.46628
0.290371
1.61465
3.22227
0.577683
2.92626
1.46339
0.256373
1.23994
1.24992
0.388302
0.88086
0.530417
1.49685
1.12463
4.83742
3.57569
1.84671
1.34959
0.459975
0.591984
1.03767
1.06143
2.08373
0.848199
1.85674
2.00434
3.31557
1.96383
1.39577
3.22859
0.258669
1.57191
2.9626
2.44603
0.592532
0.388762
0.602992
0.383311
0.199695
0.599668
1.2329
3.11392
0.31785
0.233014
1.25867
0.550505
1.61886
3.31689
2.62394
0.191967
1.79997
0.468839
0.261193
0.295809
0.348435
0.564025
4.54663
0.221446
3.28874
1.56615
1.19068
0.365879
0.244355
2.82265
0.281477
0.675001
1.42184
0.689717
2.72523
1.10708
2.14239
1.46611
1.21308
0.661258
0.889034
0.828284
0.945856
1.04779
2.52695
0.227491
1.55004
1.61342
1.13993
1.50534
1.36715
3.29891
0.829439
1.28796
0.572272
1.35655
3.00722
0.968002
0.369577
0.146086
0.253614
0.63351
2.3487
1.60585
1.63784
1.57378
1.34527
0.77402
3.19965
1.983
1.81588
1.53114
0.481893
2.10327
3.40729
0.385547
1.08698
2.23312
0.694619
3.07898
1.01788
1.51801
2.80949
1.61474
2.41663
2.29847
1.83359
2.3685
0.402288
0.404354
0.587772
0.234371
1.2236
0.596193
1.80451
1.22416
1.73936
1.33826
2.9055
1.80827
2.82618
0.611995
3.26912
3.30199
0.597032
0.337352
3.12721
1.03378
0.535076
0.536342
1.55835
1.12563
2.76966
1.29788
0.886715
0.606022
0.293644
1.67911
1.84695
1.33076
0.868517
1.88793
1.28247
0.698424
1.49948
0.280109
0.375586
1.19
1.24964
0.19935
0.234828
0.755265
0.283045
1.11993
1.5799
0.625535
0.353085
0.927715
2.07544
1.0576
0.98222
0.628355
1.19598
0.292031
0.270724
0.275581
0.234463
0.417827
0.136161
1.40164
0.215999
0.186737
1.56085
0.335775
0.993244
0.624006
0.77846
)
;

boundaryField
{
    frontAndBack
    {
        type            empty;
    }
    wallOuter
    {
        type            kqRWallFunction;
        value           nonuniform List<scalar> 
108
(
1.06303
1.3645
0.930945
0.180347
0.184127
0.354958
0.451117
0.20331
0.248162
0.382733
0.197783
0.468094
0.42527
0.220206
0.202367
0.199027
1.19245
0.523159
0.340485
0.321618
0.240015
1.23272
0.284077
0.539031
1.0437
1.07583
1.005
1.09505
1.07542
1.14653
1.05131
1.52802
1.55696
1.66192
1.55431
1.49612
1.46052
1.48767
1.45691
1.76252
1.16259
1.30541
1.83268
1.8231
1.53564
1.68414
1.42373
1.40689
1.38853
0.968108
0.221792
0.505114
1.34773
0.222288
1.10956
1.26825
0.554639
1.30603
0.878803
0.200192
1.02739
1.16159
0.887588
0.613604
0.571569
0.302049
0.644624
0.487838
0.592232
1.02682
0.0841105
0.0841105
0.268726
0.282989
0.281645
0.288001
1.26831
0.257129
0.271447
0.265077
0.261122
0.681129
0.721211
0.253625
0.271879
0.290635
0.291818
0.820137
1.22046
0.919755
0.2106
0.639994
0.896356
1.27835
0.756625
0.825767
1.23485
0.904703
0.814808
0.238385
1.03767
0.848199
0.233014
0.468839
0.221446
0.146086
0.253614
1.34527
)
;
    }
    inlet
    {
        type            fixedValue;
        value           nonuniform 0();
    }
    outlet
    {
        type            zeroGradient;
    }
    wallInner
    {
        type            kqRWallFunction;
        value           nonuniform List<scalar> 
126
(
0.741782
1.38733
0.134297
0.228213
1.13357
1.22516
0.256845
0.143977
0.501743
1.29997
0.141586
0.903172
0.182274
0.447128
0.925452
0.722363
0.178386
0.383944
0.27669
0.378368
1.22627
0.22694
1.11411
0.542183
0.38463
0.840515
1.20342
0.28099
0.25077
0.606252
0.332184
0.125651
1.19191
1.40849
1.10873
0.766645
0.16044
1.27924
0.34944
1.11225
0.979513
0.290757
0.165386
1.20249
1.07784
0.217309
0.128077
0.504194
0.233536
1.44365
0.586534
0.284789
1.30586
1.62014
1.1257
0.137015
0.638523
1.70073
1.47176
0.825348
0.302541
0.318822
0.660712
1.99103
0.624295
1.68237
1.38108
0.372055
0.898622
1.31421
1.33086
1.33675
0.428491
1.2932
1.23604
2.0384
0.320694
0.278347
0.402208
0.240853
0.360165
0.303357
1.76775
1.94283
1.84945
2.08207
1.74093
1.88846
0.66317
2.31471
1.37637
1.10708
0.828284
1.88793
0.698424
1.49948
0.280109
0.375586
1.19
0.19935
0.234828
0.755265
0.283045
1.11993
1.5799
0.625535
0.353085
0.927715
2.07544
1.0576
0.98222
0.628355
1.19598
0.292031
0.270724
0.275581
0.234463
0.417827
0.136161
1.40164
0.215999
0.186737
1.56085
0.335775
0.993244
0.624006
)
;
    }
    procBoundary1to0
    {
        type            processor;
        value           nonuniform List<scalar> 
29
(
0.185399
0.185399
0.206234
0.301814
1.70031
1.03304
2.00682
0.569148
1.42102
0.420639
0.584366
1.03304
0.206234
0.122049
1.25167
0.522507
1.70031
1.77211
0.301814
0.180468
0.317359
0.225765
1.4559
0.292471
0.292471
1.4559
0.243889
0.889522
0.243889
)
;
    }
    procBoundary1to2
    {
        type            processor;
        value           uniform 0.319683;
    }
    procBoundary1to3
    {
        type            processor;
        value           nonuniform List<scalar> 
48
(
3.57507
2.37
2.84865
2.84865
1.4954
2.03165
2.03165
0.948425
3.49131
0.34071
0.257358
0.34071
0.355493
0.309581
0.32881
0.355493
0.248422
0.248422
0.240405
0.240405
0.225775
0.203725
0.250253
0.638752
0.638752
0.16188
0.186586
0.186586
0.377191
1.15235
0.421607
0.377191
0.948425
3.0008
0.16029
1.15235
1.89152
0.257358
3.71078
1.21178
0.292347
2.5224
3.0008
0.16029
0.32566
0.855345
1.38484
0.292347
)
;
    }
}


// ************************************************************************* //
