/*--------------------------------*- C++ -*----------------------------------*\
| =========                 |                                                 |
| \\      /  F ield         | OpenFOAM: The Open Source CFD Toolbox           |
|  \\    /   O peration     | Version:  v1912                                 |
|   \\  /    A nd           | Website:  www.openfoam.com                      |
|    \\/     M anipulation  |                                                 |
\*---------------------------------------------------------------------------*/
FoamFile
{
    version     2.0;
    format      ascii;
    class       volScalarField;
    location    "1";
    object      nut;
}
// * * * * * * * * * * * * * * * * * * * * * * * * * * * * * * * * * * * * * //

dimensions      [0 2 -1 0 0 0 0];


internalField   nonuniform List<scalar> 
1466
(
0.00119216
0.00203374
0.00141328
0.00385043
0.00153735
0.00240847
0.00209654
0.0018918
0.000743918
0.00230992
0.00296984
0.00230062
0.00073398
0.00132294
0.00571162
0.00616545
0.00176533
0.00102037
0.00502535
0.00341687
0.00540711
0.00803836
0.00396711
0.00318049
0.000757846
0.00416679
0.00511466
0.00405985
0.000826847
0.00362196
0.00339905
0.00390921
0.00188218
0.0110943
0.00296341
0.00194599
0.0121673
0.00171339
0.00213095
0.000715008
0.00092955
0.00193816
0.0018642
0.000863484
0.000652052
0.00127026
0.00190486
0.000604333
0.00153085
0.000714302
0.00111228
0.0016539
0.00170509
0.000834275
0.000964569
0.00100986
0.00100647
0.00209962
0.000824325
0.00199894
0.00582509
0.00288498
0.00155181
0.00354904
0.00544835
0.00221882
0.00835227
0.00369393
0.00206645
0.000996336
0.00767459
0.00114038
0.00094333
0.000909338
0.00382601
0.00254786
0.00272836
0.00148505
0.00114825
0.00369003
0.00289217
0.00504427
0.00134043
0.00324809
0.00525378
0.00531832
0.00878212
0.00311266
0.00249635
0.00279323
0.0051334
0.00458735
0.0040251
0.0011562
0.00197388
0.00122868
0.00186656
0.00180271
0.000822116
0.0008895
0.00149528
0.000912037
0.000551284
0.00169968
0.00217158
0.00198449
0.00147557
0.000669755
0.00187626
0.00110335
0.00581145
0.00297333
0.00191963
0.00172825
0.00154639
0.00660492
0.00300006
0.00166402
0.00176253
0.0011802
0.00634757
0.00287291
0.00131611
0.000935885
0.000716262
0.00167011
0.00261194
0.00409089
0.00336383
0.0044221
0.00174138
0.00193595
0.00349537
0.00292138
0.00535475
0.000824712
0.000634627
0.00126529
0.0012222
0.00087292
0.000927358
0.00459989
0.00493338
0.00453809
0.00793731
0.00719117
0.00394267
0.00529853
0.0044562
0.00311084
0.00544892
0.00344787
0.00238443
0.00183024
0.00486211
0.00805019
0.00375887
0.00673616
0.00448799
0.00210538
0.00391738
0.00333344
0.00146764
0.0048701
0.00786947
0.00324471
0.00445939
0.00488076
0.00533722
0.00312053
0.00555656
0.00279237
0.000806751
0.00219351
0.00104089
0.00086695
0.00330318
0.00410423
0.00559951
0.00617472
0.000846746
0.00399722
0.00533915
0.000581842
0.00303387
0.00559719
0.00547617
0.0027764
0.00205249
0.0014496
0.00583204
0.00512631
0.00378363
0.00813977
0.00190604
0.00634249
0.000706068
0.00327189
0.00697372
0.00774591
0.00293902
0.00442102
0.00310205
0.0059388
0.00771707
0.00813834
0.00638161
0.00223531
0.00446955
0.00339901
0.00461224
0.0048691
0.00462903
0.00515506
0.00590589
0.0049326
0.00584956
0.00590907
0.00345874
0.00407498
0.0046078
0.00652168
0.00510145
0.00674613
0.00524613
0.00577361
0.00690908
0.000829738
0.00563846
0.00647972
0.00565524
0.00308357
0.00874195
0.00948866
0.00303328
0.00817555
0.00478889
0.00479204
0.00456598
0.00576171
0.00243833
0.00355687
0.00296395
0.00759494
0.00391885
0.00308312
0.00385548
0.000898472
0.00392391
0.00270625
0.00592545
0.00589296
0.0020885
0.00300047
0.0030121
0.0055792
0.00327128
0.00105493
0.00135022
0.00194241
0.00125872
0.00323234
0.00279565
0.00627738
0.0034219
0.000503714
0.000939202
0.00474162
0.00531487
0.00121942
0.00167473
0.00143197
0.00108595
0.00425303
0.00518027
0.00696894
0.00621779
0.00407155
0.00545124
0.00430602
0.00605252
0.00553324
0.00483631
0.00312758
0.0082597
0.00122858
0.00470434
0.00480109
0.000757854
0.001724
0.0017342
0.000931177
0.000789139
0.000684282
0.00320221
0.00103351
0.00159734
0.001491
0.00443654
0.00614516
0.00117845
0.00665585
0.000491335
0.000864954
0.00648775
0.00846613
0.00344741
0.00160868
0.00282038
0.00859785
0.00222891
0.00559043
0.00400248
0.00455086
0.00425959
0.00350793
0.00913506
0.0027832
0.0011709
0.00583522
0.000957291
0.00151193
0.00151164
0.00585499
0.00673215
0.00152824
0.00136406
0.00276789
0.00549556
0.00528803
0.00391713
0.0016151
0.00190705
0.00286926
0.00525103
0.000845619
0.00543466
0.00478198
0.00355756
0.00227053
0.00186306
0.00236724
0.00170791
0.00359984
0.00338139
0.00044432
0.00297017
0.00284608
0.00211617
0.00484103
0.00169505
0.000904466
0.00333207
0.00714829
0.00981311
0.00701565
0.00301528
0.000631282
0.00102821
0.00284688
0.00913268
0.00630182
0.00485025
0.00828901
0.00108108
0.00942199
0.00211507
0.00203173
0.0011586
0.0031612
0.00280334
0.00766748
0.00143395
0.00271082
0.00178374
0.0130593
0.00382192
0.00143148
0.00188069
0.00347588
0.0110735
0.0104796
0.0114494
0.0117833
0.0114458
0.0109867
0.00176977
0.0018106
0.00164956
0.00120027
0.00563856
0.0117627
0.00941585
0.0113005
0.00844269
0.00448549
0.00119921
0.0014713
0.00758103
0.000792651
0.00139856
0.00124382
0.0027338
0.00139746
0.0028587
0.0112644
0.00268911
0.00305538
0.00931719
0.00954652
0.00485781
0.0029988
0.00315082
0.0106369
0.00331315
0.00141873
0.00144191
0.00304826
0.00571144
0.00286278
0.00966242
0.010405
0.00321454
0.00290642
0.00363815
0.00225664
0.00788275
0.00146934
0.00316851
0.00208386
0.0066797
0.00604395
0.00161352
0.00170058
0.00490683
0.000661186
0.00129413
0.000795326
0.00114054
0.00697873
0.0017141
0.000750982
0.00657699
0.00136474
0.00566252
0.00312437
0.00131232
0.00529623
0.00257948
0.00533669
0.00554804
0.00193564
0.000618411
0.000878796
0.00890512
0.000728899
0.00165451
0.00155215
0.000670705
0.00593781
0.00181691
0.00538529
0.00149157
0.00222668
0.00525632
0.00221496
0.0103291
0.00474456
0.0033464
0.00959213
0.00397063
0.00170702
0.00641159
0.000979276
0.00636507
0.00225853
0.00154095
0.00771375
0.010623
0.00582026
0.00307448
0.00367417
0.00493048
0.0102334
0.00871672
0.00197947
0.00206433
0.00312886
0.00855304
0.00520732
0.00948441
0.00388289
0.00176679
0.0110705
0.0051056
0.0128906
0.0136933
0.0119523
0.00370324
0.0100935
0.0120991
0.0119969
0.00222019
0.0076043
0.00113317
0.00924353
0.0033428
0.00629718
0.00186072
0.0137621
0.00577828
0.00804998
0.00707417
0.00164125
0.0139687
0.00926738
0.00741385
0.000865968
0.00133027
0.00183297
0.0125164
0.00366861
0.0103154
0.00227677
0.00767942
0.00803971
0.00535103
0.00452809
0.00904456
0.00995159
0.00135104
0.00169984
0.0087436
0.012396
0.0129841
0.00638651
0.00240978
0.0035192
0.00830276
0.00407113
0.00186782
0.00809946
0.00121098
0.00819457
0.00995511
0.00245926
0.0107211
0.00179265
0.00862929
0.00668437
0.00767284
0.00215839
0.00579231
0.012484
0.00168339
0.0141045
0.0140244
0.0102433
0.00194134
0.00150253
0.00986138
0.0101865
0.00602431
0.00279918
0.00117883
0.00864819
0.0117796
0.0103481
0.00362802
0.0121628
0.00691725
0.0103795
0.00456054
0.00413264
0.00273074
0.00608088
0.000928289
0.012916
0.0134159
0.00382495
0.00505322
0.0121061
0.0134917
0.00864254
0.010973
0.00478183
0.0062527
0.00103262
0.0133055
0.00957149
0.00868191
0.0021004
0.00873074
0.0131958
0.00661033
0.00497578
0.00460902
0.0029149
0.00287014
0.00534646
0.00349239
0.00129085
0.00115432
0.00254439
0.00951123
0.00914073
0.00593449
0.00113063
0.00608289
0.0117841
0.00340453
0.00365157
0.00187669
0.00225929
0.00356593
0.00265238
0.00394193
0.00221499
0.00184933
0.0061433
0.0023893
0.001287
0.00594229
0.001424
0.00186703
0.0128542
0.00180296
0.0093576
0.00999656
0.0130414
0.00705014
0.00188307
0.00192943
0.00122319
0.0126692
0.00125096
0.00594336
0.00582942
0.00479245
0.00398439
0.00893793
0.00326797
0.00302848
0.00680567
0.0112276
0.00127242
0.00905414
0.0101435
0.00291097
0.00227278
0.0123715
0.000984258
0.00397271
0.00176151
0.0108426
0.0112166
0.00199545
0.00162659
0.00555929
0.00091569
0.0102793
0.00321957
0.00133783
0.00134398
0.00992877
0.00391662
0.00278652
0.00484942
0.00395933
0.00126286
0.00152376
0.00499781
0.00533033
0.000925331
0.00572837
0.00115321
0.00684186
0.00248835
0.00167252
0.00164611
0.00405917
0.00193074
0.00303287
0.00945724
0.000624443
0.00774792
0.000707186
0.000459779
0.00359651
0.000484416
0.0102869
0.00159721
0.00148834
0.00247902
0.000677592
0.000463996
0.00266819
0.00762072
0.000703762
0.00809066
0.0100543
0.00071514
0.000464731
0.00547515
0.0115175
0.0105255
0.00489068
0.00352714
0.000478403
0.0112343
0.00489001
0.00712437
0.00112757
0.00315042
0.00910386
0.00430566
0.00183079
0.00984551
0.00968488
0.00404008
0.00230262
0.00788359
0.0093038
0.00304392
0.00167704
0.0109151
0.00392975
0.00688411
0.00707389
0.000461448
0.00739449
0.00265412
0.00861783
0.00144919
0.00813289
0.00724248
0.00110097
0.00627625
0.00131865
0.00824605
0.0126138
0.00525787
0.0119427
0.000976404
0.00194445
0.0029398
0.000745104
0.000521455
0.00664619
0.00284588
0.00398746
0.00431445
0.00374249
0.00122888
0.00328994
0.00630847
0.00554675
0.004129
0.00127858
0.00393839
0.00505308
0.00227942
0.00715885
0.00444087
0.00994372
0.0031741
0.00418159
0.00372213
0.00606271
0.00551041
0.00543784
0.00474171
0.00137633
0.00346687
0.00844868
0.00558527
0.00387101
0.000570355
0.00874853
0.00253112
0.00939008
0.00682548
0.00442702
0.0015055
0.0103734
0.00135086
0.00639998
0.013498
0.0102297
0.00318932
0.00980229
0.0100511
0.00565237
0.00407789
0.00432077
0.00141492
0.00786187
0.0031874
0.00186519
0.00774509
0.00427174
0.00694028
0.0106174
0.00186551
0.00168329
0.00114957
0.000412412
0.00116919
0.00846527
0.00428136
0.00113648
0.00487044
0.00415171
0.00324223
0.0074367
0.00201341
0.00519494
0.00426788
0.00522806
0.00666704
0.00309559
0.00963276
0.0027601
0.00421395
0.00183372
0.00355149
0.00513556
0.00122444
0.0014754
0.00397347
0.00381673
0.00502576
0.00599604
0.0104582
0.00136175
0.00342731
0.00331838
0.000522288
0.00550588
0.00658487
0.00740048
0.0100291
0.00992973
0.0018619
0.00910203
0.0019102
0.000757816
0.0100361
0.0028263
0.00433294
0.0073923
0.0028086
0.00361434
0.0126982
0.00933659
0.00528208
0.003099
0.00275325
0.0036929
0.00374649
0.00905168
0.0117574
0.000918471
0.0057751
0.004456
0.00107667
0.00341044
0.00192554
0.00471739
0.0136752
0.0101125
0.00243323
0.00762167
0.00459761
0.0109344
0.00525163
0.0100416
0.00107679
0.00102656
0.00106383
0.000879332
0.000908257
0.000996087
0.00082368
0.00128827
0.00131065
0.00133698
0.00129466
0.00122307
0.00116026
0.00120112
0.00125063
0.00132787
0.000925818
0.00104233
0.00128126
0.00119392
0.00132713
0.00113371
0.00110909
0.00111626
0.00114993
0.00102441
0.00306624
0.000733547
0.000529582
0.00837785
0.0018964
0.00212976
0.00130291
0.00136074
0.00535689
0.00873558
0.0039135
0.0109635
0.00371612
0.000725213
0.0012378
0.00578729
0.00297447
0.00854993
0.00603094
0.00318674
0.00452415
0.0025278
0.010341
0.00745145
0.00115816
0.00231238
0.00140357
0.000926828
0.000483958
0.000865352
0.00257515
0.00441601
0.0081842
0.00869574
0.00115087
0.00215937
0.00331841
0.00205678
0.00403012
0.00153799
0.00914491
0.00307215
0.00171154
0.00480628
0.00113052
0.00211523
0.00141568
0.00756656
0.00382339
0.00397011
0.00820563
0.00281078
0.00730637
0.00389977
0.00570974
0.00755965
0.00356048
0.0101477
0.00162332
0.00104785
0.000763666
0.00387588
0.0061817
0.00111129
0.00389431
0.00756077
0.00861976
0.00130053
0.00604794
0.00814917
0.00587803
0.00458086
0.00193289
0.00697991
0.0050553
0.00205003
0.00481355
0.00140931
0.00439378
0.00540289
0.0120741
0.00124736
0.00110461
0.0102045
0.00363299
0.00758728
0.00334306
0.00260218
0.00117391
0.00634106
0.00315062
0.00680105
0.00971469
0.00397644
0.00832303
0.00110765
0.00213176
0.0105729
0.00419323
0.00951841
0.00118093
0.00106729
0.00319854
0.001947
0.00115833
0.00547755
0.000741223
0.00136654
0.00733138
0.00111561
0.000390956
0.0022438
0.000938053
0.00737319
0.00605226
0.00198997
0.00819536
0.000916837
0.00140984
0.0101753
0.00329634
0.00716482
0.00121514
0.00106194
0.00433371
0.00334929
0.00165425
0.00371883
0.00620554
0.00668005
0.00276531
0.0019781
0.00671575
0.00482828
0.00450669
0.00608953
0.000810963
0.00634234
0.000832982
0.00159719
0.00170173
0.000747454
0.00178524
0.00264199
0.000614984
0.00229169
0.00948346
0.00252895
0.00138795
0.00359276
0.00467102
0.000935455
0.000860721
0.00517597
0.00774469
0.00545647
0.00146062
0.00145442
0.000929974
0.000716522
0.000755641
0.00293306
0.00752355
0.00104946
0.00273163
0.00120239
0.000254201
0.00518244
0.00872865
0.000567157
0.00222053
0.000585157
0.00175638
0.000951412
0.000570664
0.000589467
0.00228976
0.00243215
0.000729148
0.00109094
0.000473235
0.000515292
0.000497945
0.000472669
0.000997757
0.00101997
0.000540856
0.000601521
0.000619925
0.00060369
0.000916676
0.0100392
0.00672581
0.00498532
0.00619138
0.00527037
0.0095505
0.00481463
0.00118168
0.00102563
0.00987119
0.00369226
0.0020001
0.00169667
0.00597936
0.0035751
0.0091599
0.0105555
0.00048345
0.00713862
0.00246956
0.00401188
0.00067208
0.00298747
0.00281676
0.00637901
0.00186393
0.00542174
0.00687618
0.00332882
0.000867185
0.00103513
0.000887676
0.00194207
0.00552865
0.00315635
0.00429178
0.00274579
0.00310098
0.00470901
0.00164825
0.0108391
0.00685931
0.00398101
0.00508594
0.0081273
0.00960527
0.0110805
0.00189314
0.0012308
0.00519751
0.00430834
0.00392984
0.00410808
0.00655066
0.0053225
0.00291852
0.011942
0.0010471
0.00105418
0.00899584
0.00291379
0.00127378
0.00241183
0.00326587
0.00396687
0.00957693
0.00123685
0.00356003
0.00105576
0.000903644
0.00540352
0.0109737
0.00255096
0.00920325
0.00657669
0.00180611
0.00370072
0.00900029
0.0122159
0.00142691
0.00202878
0.00929167
0.00327402
0.00789832
0.00780336
0.0103377
0.0110216
0.0016466
0.00460555
0.00432217
0.00368299
0.00242717
0.00927343
0.00504274
0.00710813
0.00349252
0.00507937
0.00216353
0.00974588
0.00707946
0.00360185
0.00323204
0.00300965
0.00130587
0.00289237
0.00494009
0.00361369
0.00304719
0.00377617
0.00268732
0.00261387
0.00630417
0.00933217
0.000954194
0.00167251
0.00388731
0.000969422
0.00340047
0.0044306
0.00225344
0.00145187
0.000914734
0.00388557
0.00090328
0.00287828
0.0108451
0.0110703
0.00157189
0.00288803
0.000895494
0.0076624
0.00226976
0.00118054
0.00656511
0.00312918
0.00926061
0.00783374
0.00403684
0.0036422
0.00153853
0.00374885
0.00423808
0.00734521
0.00178128
0.00119183
0.00654306
0.0015667
0.00998351
0.00301344
0.00215505
0.002991
0.00643074
0.0056655
0.000786155
0.00863788
0.00163448
0.000869953
0.0104686
0.0064207
0.00342276
0.00289856
0.00200742
0.0101205
0.00237978
0.00656887
0.003445
0.00262529
0.00527472
0.00498597
0.00719436
0.0107481
0.0101943
0.00220048
0.00205384
0.00174002
0.0039731
0.000779294
0.00312119
0.00342083
0.000496004
0.010022
0.00148688
0.00341353
0.00983647
0.00227328
0.00640578
0.00370342
0.000930296
0.00358008
0.00447514
0.0020613
0.00175255
0.00184482
0.00981618
0.00719803
0.0100216
0.0102091
0.00458473
0.00188319
0.00284789
0.00347149
0.000863419
0.00146381
0.00570685
0.000984504
0.00438687
0.00499012
0.00684775
0.006109
0.00389056
0.00848753
0.000908313
0.00384165
0.00656772
0.00569664
0.00180503
0.00255427
0.00529092
0.00253596
0.00141701
0.00294973
0.00620423
0.0107776
0.00101458
0.000411809
0.00320371
0.00291354
0.00309082
0.00977981
0.00683907
0.000688095
0.00324163
0.00052027
0.000892043
0.00147073
0.00185471
0.0032119
0.00919981
0.000414309
0.0104352
0.0103191
0.00718239
0.00167746
0.00132394
0.00721781
0.00104558
0.00389366
0.00246006
0.00390682
0.00714027
0.00129661
0.00349694
0.00327773
0.0031628
0.00173096
0.00297602
0.00112673
0.00551623
0.00305309
0.00645109
0.00110572
0.00363716
0.00307674
0.00385206
0.00311407
0.00327819
0.00864073
0.00279057
0.00311343
0.00261891
0.00319347
0.00777842
0.00236443
0.00151046
0.000250776
0.000395974
0.00281057
0.00499013
0.00295644
0.00607252
0.00440163
0.0011407
0.00208772
0.00950283
0.00632443
0.0045952
0.00360596
0.00248869
0.00579549
0.0109425
0.00190998
0.0029479
0.0046222
0.00248486
0.00620435
0.00263569
0.00286221
0.00560669
0.00335076
0.00497047
0.00469118
0.00316679
0.00517387
0.00371244
0.00272636
0.00311541
0.00133017
0.00516884
0.00339003
0.00471106
0.00418512
0.00354765
0.00314412
0.00683509
0.00406585
0.00616491
0.00325225
0.0086547
0.0104017
0.00318671
0.00112489
0.00684426
0.00229015
0.00192931
0.00170485
0.00310276
0.00325437
0.00406592
0.00486508
0.00316529
0.00332278
0.000742774
0.00378954
0.0040339
0.00279948
0.00522086
0.0017106
0.00208465
0.00091672
0.00160762
0.000883965
0.00082264
0.00157717
0.00211512
0.000631634
0.000680891
0.00124932
0.000721914
0.00145323
0.00178882
0.00111759
0.000767313
0.00167512
0.00238179
0.00150755
0.00134459
0.000986995
0.00174643
0.000728922
0.000839015
0.000964881
0.000852424
0.000926012
0.000652605
0.0021904
0.000615703
0.000580809
0.00181706
0.000813787
0.00130666
0.00117819
0.00234168
)
;

boundaryField
{
    frontAndBack
    {
        type            empty;
    }
    wallOuter
    {
        type            nutkWallFunction;
        Cmu             0.09;
        kappa           0.41;
        E               9.8;
        value           nonuniform List<scalar> 
108
(
0.000120841
0.00013418
0.000112217
5.95185e-05
5.37732e-05
7.54427e-05
8.51398e-05
5.56652e-05
5.86672e-05
8.16875e-05
5.61844e-05
8.47395e-05
8.60665e-05
5.6268e-05
5.79456e-05
5.58737e-05
0.000129812
8.95368e-05
6.3171e-05
6.90206e-05
4.98373e-05
0.000133739
6.32536e-05
9.10058e-05
0.000127149
0.000121548
0.000125711
0.000104952
0.00010824
0.000118124
9.86088e-05
0.000150382
0.000152843
0.000155706
0.00015108
0.000143256
0.000136352
0.00014085
0.000146295
0.000154718
0.00011021
0.000123284
0.000149646
0.000140087
0.000154649
0.000133454
0.000130698
0.000131493
0.000135214
0.000121317
6.41432e-05
8.7232e-05
0.000136123
5.86253e-05
0.000133087
0.000123898
9.16806e-05
0.000130204
0.00012608
4.71642e-05
0.0001092
0.000142405
0.000125513
9.9645e-05
8.98065e-05
7.4346e-05
0.000111281
8.62234e-05
9.07561e-05
0.000124118
2.96618e-05
2.96618e-05
6.86622e-05
7.08005e-05
6.90749e-05
7.13113e-05
0.000128693
5.73255e-05
6.24297e-05
6.03323e-05
5.72553e-05
0.000118287
0.000120773
6.55045e-05
7.27451e-05
7.49234e-05
7.30002e-05
0.000109166
0.000138729
0.00012146
5.85623e-05
8.10695e-05
0.000103592
0.000122494
0.000123803
0.000124592
0.000124793
0.000107733
0.000107649
6.00897e-05
0.000103135
0.000116803
4.9763e-05
6.30295e-05
5.00727e-05
2.92138e-05
4.78039e-05
0.000134223
)
;
    }
    inlet
    {
        type            calculated;
        value           nonuniform 0();
    }
    outlet
    {
        type            calculated;
        value           nonuniform 0();
    }
    wallInner
    {
        type            nutkWallFunction;
        Cmu             0.09;
        kappa           0.41;
        E               9.8;
        value           nonuniform List<scalar> 
126
(
0.00019622
0.00023964
8.53589e-05
0.000109981
0.000219631
0.000211884
0.000102793
7.77882e-05
0.00014891
0.000216067
7.30868e-05
0.000176608
8.60346e-05
0.000131083
0.000189674
0.000195156
9.98048e-05
0.000114706
0.000119646
0.000119718
0.000236359
9.88889e-05
0.000225952
0.000134817
0.00014401
0.000212118
0.000205362
9.84074e-05
0.000106002
0.000172802
0.000108671
6.68041e-05
0.000194578
0.000243854
0.000224657
0.000170681
8.07628e-05
0.000213106
0.000130556
0.000197577
0.000178241
0.000111093
8.48016e-05
0.000198948
0.000219405
9.80188e-05
7.6031e-05
0.000148123
0.000110547
0.000169799
0.000123138
8.50701e-05
0.000157122
0.000220054
0.000147179
6.1042e-05
0.000111723
0.000191906
0.00016596
0.000128154
0.000111238
8.22646e-05
0.000122303
0.000183672
0.000113772
0.00017455
0.000174519
7.62477e-05
0.000136185
0.000166121
0.000165857
0.000170143
9.48894e-05
0.000169929
0.000185419
0.000194635
7.95496e-05
9.50111e-05
8.94017e-05
7.40565e-05
8.70992e-05
8.03258e-05
0.000188344
0.000194556
0.000192814
0.000205512
0.000186874
0.000192223
0.000126987
0.000218358
0.000163599
0.000151265
0.000132653
0.00019569
0.000109179
0.000184792
0.000105453
9.84987e-05
0.000181483
7.49029e-05
8.24502e-05
0.000146204
8.68661e-05
0.000168107
0.000204068
0.00013168
9.20959e-05
0.000191944
0.000265445
0.000174048
0.000156536
0.000117112
0.000199444
8.76686e-05
0.000100336
0.000114596
0.000101407
0.000110624
7.80523e-05
0.000245995
7.43814e-05
7.02573e-05
0.000206916
9.75305e-05
0.000152365
0.000138344
)
;
    }
    procBoundary1to0
    {
        type            processor;
        value           nonuniform List<scalar> 
29
(
0.00140832
0.00140832
0.000989353
0.00224897
0.00607764
0.00248835
0.002846
0.00113075
0.0023352
0.00201853
0.00161358
0.00248835
0.000989353
0.000725434
0.0021165
0.00112189
0.00607764
0.00532497
0.00224897
0.00151804
0.000834992
0.000742702
0.00304368
0.00070894
0.00070894
0.00304368
0.000724605
0.000907788
0.000724605
)
;
    }
    procBoundary1to2
    {
        type            processor;
        value           uniform 0.00169997;
    }
    procBoundary1to3
    {
        type            processor;
        value           nonuniform List<scalar> 
48
(
0.0126127
0.00628963
0.00867838
0.00867838
0.00377808
0.00425291
0.00425291
0.00738664
0.0143184
0.00143086
0.00139189
0.00143086
0.00140606
0.00167413
0.00199192
0.00140606
0.00112469
0.00112469
0.00116137
0.00116137
0.00132678
0.00117891
0.00130712
0.00168558
0.00168558
0.00106573
0.00121107
0.00121107
0.0031071
0.00276327
0.0013949
0.0031071
0.00738664
0.0139585
0.0011944
0.00276327
0.0115646
0.00139189
0.0137848
0.00293528
0.00171066
0.0131892
0.0139585
0.0011944
0.00187337
0.000992316
0.00359501
0.00171066
)
;
    }
}


// ************************************************************************* //
