/*--------------------------------*- C++ -*----------------------------------*\
| =========                 |                                                 |
| \\      /  F ield         | OpenFOAM: The Open Source CFD Toolbox           |
|  \\    /   O peration     | Version:  v1912                                 |
|   \\  /    A nd           | Website:  www.openfoam.com                      |
|    \\/     M anipulation  |                                                 |
\*---------------------------------------------------------------------------*/
FoamFile
{
    version     2.0;
    format      ascii;
    class       volScalarField;
    location    "0.23";
    object      k;
}
// * * * * * * * * * * * * * * * * * * * * * * * * * * * * * * * * * * * * * //

dimensions      [0 2 -2 0 0 0 0];


internalField   nonuniform List<scalar> 
1431
(
0.097893
0.520694
1.51239
0.531025
0.0942265
0.144846
0.309283
2.82573
0.307182
0.21851
2.26345
2.31535
0.6761
0.36471
0.119247
0.339674
0.322467
0.501929
0.44099
0.686138
3.77734
0.65411
0.207788
2.027
0.254257
0.928677
1.71574
0.112831
0.46663
0.213603
0.235868
0.684055
0.215946
0.164675
0.165932
0.22347
0.262519
0.0894899
0.373897
0.363017
0.11345
0.173145
0.773391
0.682392
0.142733
0.119977
0.252767
1.51932
0.40158
0.092259
0.495818
0.729717
0.41904
3.35723
0.309297
0.538135
0.0593137
2.93975
0.225007
0.0912655
0.111433
0.291682
0.0878477
0.0594403
0.314465
0.161171
1.07179
0.0908201
0.0836067
0.441757
1.67456
0.199431
0.304875
0.130566
0.364842
0.106935
1.3512
0.0400731
0.205991
0.382783
0.278226
0.0697081
0.305955
0.209276
0.800561
0.785022
0.220414
0.124823
0.599458
0.487893
0.0949493
0.096313
0.113286
0.426759
0.20962
0.193791
3.07474
0.605052
0.535912
0.0576011
0.320166
0.339996
0.326951
0.269807
0.0428562
0.452001
0.672144
1.87648
0.168547
0.254812
0.175137
0.616176
1.30023
0.113681
0.346161
0.0991921
0.283922
0.401404
0.297332
0.0697334
0.538469
0.130007
1.40112
0.390273
1.13637
0.186442
1.43858
0.130472
1.22211
0.194885
0.314516
0.576184
0.222107
0.394675
0.825918
0.119428
0.0772225
0.362874
1.08999
0.0739807
0.305136
0.234628
0.25698
0.243837
0.182317
0.210238
0.105599
0.336247
0.273844
0.0958649
0.11427
0.103235
0.457152
0.313737
0.783596
0.138502
0.818787
0.672248
0.409858
0.271661
1.09382
0.530253
0.312664
0.242496
1.31051
0.0950586
0.0946404
0.22203
0.09947
0.473481
0.820616
0.256841
0.247989
1.04622
0.584799
0.783699
0.209381
0.136055
0.455567
0.191602
0.182731
0.650452
0.327356
3.86876
0.126278
0.741177
1.1351
0.637333
0.286574
0.689366
0.303143
0.297915
0.338273
2.55891
0.290969
0.639774
0.76016
0.202339
0.0785348
0.059883
0.652263
0.301197
1.94941
0.201521
0.679804
0.324783
0.42156
0.0873706
1.2834
0.0755135
0.88508
0.321893
0.593786
0.461791
1.02032
0.2045
0.442687
0.22645
0.248513
1.83556
0.955485
0.406473
0.236387
0.271943
0.830181
1.80278
2.12154
0.518017
0.914892
1.1111
1.68132
0.230983
0.506827
0.310337
0.755021
0.739297
0.523216
0.486189
0.284607
0.622967
0.285993
0.289999
1.48995
0.398993
0.303682
1.05546
0.45451
1.85633
0.984789
0.0885
0.129873
0.952805
0.280886
0.389617
0.3161
0.182436
0.291046
2.30218
0.853178
0.38224
0.593457
1.02778
0.263691
0.210544
0.855653
2.33979
0.457578
3.71481
1.46717
0.0604687
0.1562
0.495659
0.459612
0.616868
1.12339
0.231592
1.10002
1.10185
0.30225
0.559568
0.252682
0.2102
0.209555
0.470479
0.265703
0.4934
0.163399
0.719877
0.786766
0.673427
0.0367251
0.4076
0.706231
0.385242
0.726839
1.01808
1.44488
0.830041
0.322795
0.336775
0.323166
0.113512
0.423907
0.791441
0.917235
0.302089
0.675405
0.316567
0.155061
0.443122
0.633298
0.15997
0.232647
1.12568
0.353698
0.76229
0.20031
0.285491
0.130802
8.50206
0.598715
0.713336
0.0664794
0.332353
0.139697
1.63794
0.0452008
0.33551
3.86866
0.355315
0.449835
0.161182
0.35786
0.829324
0.267227
0.797361
0.259975
0.672901
0.132713
0.853915
0.0537328
0.797491
0.547994
0.136212
0.299283
0.441384
0.618215
0.991647
0.499555
0.579168
0.146585
0.115182
0.265344
0.377838
0.111138
0.175961
1.03591
0.680544
0.865945
0.137968
0.649953
0.651907
0.388206
0.396375
0.123462
0.720194
0.310359
5.18143
1.36582
0.298581
2.07555
0.13178
0.606864
0.306913
0.152003
3.60904
0.533544
0.246745
0.874114
4.49516
0.42058
0.122197
0.190887
0.110206
7.84636
0.260045
0.331311
0.259437
0.147002
0.292835
0.318352
0.262217
0.244575
0.314188
0.951045
0.26031
0.564184
0.551813
0.306796
0.173972
0.373114
0.175279
0.849896
0.206683
0.818788
0.519173
0.159663
0.0802221
0.244638
0.467004
0.484998
0.158607
0.407442
0.541905
0.236551
0.128793
0.293379
0.0699363
0.129547
0.35042
0.98107
0.580324
0.358997
0.308531
0.302258
0.152262
0.596258
0.924277
1.15396
1.54165
0.284683
0.380548
0.25675
0.544907
0.225952
0.229786
0.251043
0.245352
0.252253
0.275719
0.147497
1.10588
0.126636
0.124004
0.126218
0.130034
0.112755
0.109516
0.202348
0.368452
0.292002
0.111078
0.541644
0.0717049
0.476889
0.532027
0.557166
2.39821
0.0632619
0.984184
0.44054
0.0960466
2.25998
0.588583
1.02763
0.102259
0.139325
2.16475
0.107627
2.09269
0.632438
0.68577
0.28105
0.880838
1.12454
1.01167
0.126573
0.0842911
0.118609
0.594509
0.984207
0.110992
1.16927
0.288177
0.0866523
0.943546
0.377558
0.104871
0.834912
0.238849
1.30887
0.420586
1.01804
0.546131
0.9637
0.477242
1.20098
1.393
0.55436
0.127695
0.93175
0.896694
0.0688372
1.40762
1.35585
1.05695
0.147838
0.400023
0.692981
0.118694
0.7539
1.28624
0.446008
1.36815
1.5412
0.412669
0.962985
0.699245
1.34413
1.12783
0.222926
0.637611
0.138417
0.324509
0.906674
0.368332
1.31988
0.33625
0.124924
0.100157
0.689071
0.745168
0.896395
1.91381
0.376209
1.15434
0.166875
0.187874
0.890826
0.12975
0.568432
1.21259
0.158139
0.617875
0.176628
0.182603
0.326668
0.210938
0.575344
0.31287
0.32892
1.31391
0.197966
0.215157
0.134009
1.27853
0.36764
0.867422
0.19102
4.80171
0.276562
1.19217
0.743382
0.551172
6.8513
0.519823
0.201677
0.256882
0.572334
0.241621
0.341421
0.707284
0.279118
0.370991
0.296637
0.170504
0.359312
0.195782
0.305755
0.5779
0.395067
0.482543
0.159819
0.297221
0.322326
0.660859
0.347322
0.601761
0.475401
0.125342
0.435636
0.101532
0.592652
0.325445
1.00305
0.497007
1.05256
0.30942
0.678612
1.14232
0.291349
0.92416
0.27052
0.71573
0.298629
0.122542
1.3501
0.398022
0.56658
0.153891
0.366337
0.672585
0.235314
0.319311
0.231254
0.300829
0.779959
0.264629
0.724676
0.200685
0.395139
0.614657
0.18157
0.204297
0.671739
0.188557
0.431375
0.121098
0.421355
0.328907
0.752498
0.512002
0.305827
0.312246
0.306723
0.267911
2.44816
0.357943
0.221963
0.590736
0.290974
0.828121
0.419
0.240599
0.11234
0.768765
0.219516
0.143052
1.18495
0.422556
0.592119
0.20676
0.177438
0.322902
0.177013
0.125634
0.258293
0.26997
1.04208
0.748332
1.02642
0.487957
0.812488
0.474872
0.796731
1.18424
0.782728
1.08574
0.470271
0.117172
0.266362
0.242452
0.657428
0.318899
0.634118
0.736056
0.679513
0.779395
0.126311
0.565758
0.595156
0.183268
0.314109
0.644135
0.0921202
1.1754
0.43621
0.214253
0.150253
0.143734
2.11299
0.825399
0.180369
0.142111
0.141609
0.206903
0.178154
0.193001
0.141779
0.73723
0.156482
0.279964
0.457289
0.14179
0.121871
0.710635
0.16585
0.165775
0.38807
0.253426
0.247068
0.169011
0.742488
1.21434
1.90164
0.120727
0.558748
0.161819
0.60554
0.262383
0.128574
0.329743
0.928893
0.519207
0.272134
0.18578
1.2688
0.651247
1.83068
2.89287
0.078978
0.338601
0.864306
0.463024
2.60323
0.850518
0.190833
0.195866
0.63012
0.364869
0.185704
0.264447
0.508843
0.14571
0.349604
0.12627
0.584801
0.206969
0.210619
0.470059
0.867835
0.509854
0.202705
0.670875
2.82111
0.187913
0.230509
0.241052
0.183879
0.123474
2.99806
2.33772
0.993107
0.384782
0.061395
0.756509
0.533245
0.449389
0.313438
0.524256
0.727114
0.474355
0.1657
0.205689
0.248442
0.398659
0.149181
0.278262
0.472063
0.0752823
0.29652
0.0643066
0.443647
0.120875
0.146417
1.18364
0.11515
0.40237
0.271451
0.322051
1.81969
0.656865
0.44496
0.503612
0.359176
0.143335
0.604583
0.568553
0.629373
0.68726
0.404951
0.690723
0.0632808
0.405091
0.301566
7.91533
0.376458
0.227108
0.380578
0.119145
6.36199
0.189651
0.512618
0.923422
0.240984
2.65083
0.451904
0.140481
0.195507
0.263996
0.0903726
2.1338
0.284893
0.422685
0.15005
0.193531
0.226523
0.236665
0.121494
0.765855
0.22282
0.215588
0.616414
0.301803
0.345275
3.44472
0.216867
0.23782
0.516889
0.36758
0.587009
0.322162
0.149447
0.495998
0.226185
0.795463
0.116938
4.13946
0.217733
1.01642
1.44682
0.261751
0.965819
0.279006
1.22418
0.100629
0.197105
0.217119
1.21103
0.0579726
0.242058
0.284612
0.160966
0.292649
0.447517
0.372525
0.395216
0.23426
0.953468
0.279161
0.352398
7.29952
0.433306
0.159946
0.335998
0.127899
0.278654
0.125953
0.297172
0.200823
2.02009
0.727122
0.244837
1.62227
6.52108
2.85115
2.33306
0.591031
0.346534
0.37472
0.375881
0.373018
0.725738
0.312587
0.177672
0.180495
0.177467
0.184689
0.419584
0.83296
0.190181
0.269491
0.310504
0.191777
0.28175
0.260379
0.192349
0.246517
0.24377
0.193092
0.236807
0.438316
0.977729
0.0920464
0.991369
0.118158
0.654847
0.260239
1.43821
1.26304
0.331139
0.387126
0.0628341
0.218273
3.64809
1.06628
0.348965
1.04267
0.162462
0.336293
0.218491
0.210951
3.03358
0.0795349
0.222919
0.155606
0.289929
0.230746
0.722402
0.805668
0.584734
0.443718
0.498241
0.214108
0.431246
0.678271
1.20462
0.112383
0.5612
0.126749
0.846851
0.377321
0.524121
0.207573
0.963728
0.44441
0.585242
0.333356
0.0708962
0.55396
0.119366
0.856773
0.605569
0.357101
0.106735
0.284116
0.676695
0.375328
0.198386
0.13955
0.171085
0.309891
0.517309
0.589795
0.0797949
0.51874
0.431074
0.515158
0.480191
8.76774
0.366776
0.438825
0.565502
3.12623
0.481557
0.592509
0.609209
0.221148
0.362298
0.133771
1.5039
0.251304
0.527924
5.28657
1.21569
0.206431
0.425451
0.74612
0.630686
0.923152
1.21019
0.560171
0.123347
1.00007
1.4434
0.605811
0.965399
0.165074
0.582285
0.132394
0.870573
0.150731
0.675405
0.100294
0.190666
0.47929
0.364559
0.325729
0.251595
0.312193
0.921184
5.17229
0.226173
0.409972
0.219779
0.229422
0.521292
3.38871
0.203663
0.210295
0.223249
1.13486
0.893377
0.598053
0.257726
0.837633
0.199708
0.238349
0.677433
0.221097
0.304719
0.180274
0.496692
0.202066
0.345885
0.419129
0.86308
0.213229
2.51183
1.21547
0.386427
1.70013
0.217918
0.217843
0.2478
0.250867
0.363882
0.287443
0.225139
0.197454
0.197141
0.650553
0.261481
1.18823
0.0712875
1.15886
0.359575
0.401995
0.324723
0.44016
0.405074
0.506654
0.385994
0.198552
0.288989
0.300304
0.319328
0.448243
0.456047
0.462706
0.359915
0.472888
0.219202
0.22862
0.244209
0.213692
0.2068
0.241396
0.641722
0.297752
0.250604
0.512081
0.300155
0.201785
0.335655
0.851733
0.113867
0.438346
0.247209
0.69386
0.507244
0.181626
0.163162
0.0660577
0.11141
0.208512
0.861295
1.18414
0.194152
1.07018
0.528845
0.290534
7.70224
0.604531
0.132952
0.131256
0.270971
0.306051
0.283426
0.84081
0.134039
0.422321
0.327935
0.140649
0.624948
0.19463
0.404665
0.092554
0.359521
0.714165
0.475387
1.29666
0.298713
0.173496
0.168018
0.758814
0.66298
2.48529
0.117656
0.79182
1.41221
0.199194
0.702459
0.254526
0.0792966
0.205106
0.940812
0.240608
0.182714
0.91586
1.61424
0.284277
0.198993
0.558029
0.13915
0.371836
0.258619
0.244578
0.293975
0.845145
0.879327
1.10238
0.40441
0.269269
0.590172
0.53896
0.515085
0.167781
0.852419
0.385952
0.341125
1.85021
0.622344
0.763609
0.799195
0.337111
0.375614
0.33042
0.504808
0.901082
3.35572
1.37229
0.179913
0.0759488
0.154398
0.229145
0.784894
0.240804
0.476392
0.420846
0.540455
0.769223
2.12507
0.361504
0.119747
0.341748
0.36274
0.313235
3.86903
0.0944518
0.178615
1.02374
0.496904
0.544611
0.295982
0.491014
0.400092
0.567445
0.602689
0.252436
0.573688
0.916111
0.87421
0.344504
0.208132
0.155891
0.261658
0.795194
0.388412
0.729263
0.210909
0.652144
0.352142
0.221527
0.749495
0.44201
0.616434
0.218788
0.259959
0.282213
6.44399
0.435312
0.185524
0.30325
1.19524
0.266326
0.303293
0.189703
1.0907
0.112996
0.731473
0.229567
0.09419
0.193868
0.291473
0.512846
0.317066
0.602246
0.15819
2.29761
0.263127
3.37271
0.289779
0.853008
0.163152
0.211158
0.249411
0.0632987
1.82607
0.319441
0.553491
0.308567
3.42727
0.2237
0.252688
0.102839
1.10974
0.451203
0.261972
0.412369
0.275841
0.39431
0.370203
0.831171
0.23477
0.249431
0.242537
0.333817
3.01163
0.883207
0.368367
0.230632
0.550672
0.131792
0.673366
0.335416
0.723266
3.53886
0.325291
0.362449
0.803005
0.532442
1.82512
0.416015
0.660823
0.144424
3.60986
1.03344
0.927234
0.0756591
5.69109
0.14089
0.436329
0.101789
1.03138
0.756222
0.183206
2.89957
0.594496
0.701648
0.188196
5.22341
0.214663
2.80254
0.454058
0.359402
0.915314
3.18
3.04442
0.194925
0.767857
0.187851
0.244594
0.182594
0.56965
0.100743
1.09861
0.229848
0.195804
0.541028
4.87457
0.695578
0.300481
0.190379
0.683965
0.568338
0.219093
0.0655602
3.62774
0.350306
0.185354
0.927708
0.23007
0.293172
0.461729
0.126592
0.379423
0.666409
0.498632
4.51502
0.676944
0.161071
0.122028
0.110083
0.515455
0.514105
0.294462
0.347703
0.556297
0.218585
0.233099
0.62282
0.500596
0.56776
0.268468
1.09201
0.656523
0.328151
0.567895
0.397473
0.688363
0.840567
0.238865
0.254578
0.56648
0.261319
0.260961
0.499161
0.600988
0.168367
0.363701
0.856564
0.841255
0.0691242
1.15408
0.105635
0.101394
1.1172
1.08682
0.0794555
0.614131
0.79476
1.17214
0.357452
0.622029
0.216288
0.74372
0.199783
0.452162
0.250971
0.221343
0.0499289
1.62565
0.157143
0.963534
1.27396
0.235456
0.234222
0.155633
0.134917
0.16429
0.203254
0.503224
1.55442
0.697624
0.184643
0.105658
0.182397
0.357219
0.307451
0.141255
0.0562685
0.204599
0.791176
0.0758263
1.23283
0.0591272
0.215778
0.141149
0.0559051
0.0796642
)
;

boundaryField
{
    frontAndBack
    {
        type            empty;
    }
    wallOuter
    {
        type            kqRWallFunction;
        value           nonuniform List<scalar> 
96
(
0.46663
0.213603
0.193791
0.657428
0.679513
0.644135
0.143734
0.142111
0.141609
0.178154
0.141779
0.156482
0.14179
0.710635
0.165775
0.195866
0.63012
0.185704
0.149181
0.146417
0.143335
0.15005
0.193531
0.215588
0.616414
0.591031
0.346534
0.37472
0.375881
0.373018
0.725738
0.312587
0.177672
0.180495
0.177467
0.184689
0.419584
0.83296
0.190181
0.269491
0.310504
0.191777
0.28175
0.260379
0.192349
0.246517
0.24377
0.193092
0.236807
0.222919
0.524121
0.207573
0.198386
0.171085
0.589795
0.206431
0.965399
0.409972
0.219779
0.203663
0.238349
0.180274
0.202066
0.86308
0.401995
0.44016
0.385994
0.198552
0.288989
0.300304
0.319328
0.448243
0.456047
0.462706
0.359915
0.472888
0.219202
0.22862
0.244209
0.213692
0.2068
0.241396
0.201785
0.163162
0.19463
0.198993
0.476392
0.155891
0.259959
0.275841
0.368367
0.230632
0.214663
0.767857
0.541028
0.190379
)
;
    }
    inlet
    {
        type            fixedValue;
        value           nonuniform 0();
    }
    outlet
    {
        type            zeroGradient;
    }
    wallInner
    {
        type            kqRWallFunction;
        value           nonuniform List<scalar> 
126
(
0.225007
0.0912655
0.111433
0.291682
0.0878477
0.0594403
0.314465
0.161171
1.07179
0.0908201
0.0836067
0.441757
1.67456
0.199431
0.304875
0.130566
0.364842
0.106935
1.3512
0.0400731
0.205991
0.382783
0.278226
0.0697081
0.0576011
0.0991921
0.283922
0.401404
0.297332
0.0697334
0.538469
0.130007
1.40112
0.390273
1.13637
0.186442
1.43858
0.314516
0.576184
0.0739807
0.305136
0.25698
0.243837
0.105599
0.0958649
0.103235
0.313737
1.31051
0.182731
0.741177
1.1351
0.290969
0.88508
0.0604687
0.30225
0.559568
0.0367251
1.44488
0.830041
0.336775
0.113512
0.15997
0.232647
1.12568
1.63794
0.0452008
0.449835
0.853915
0.0537328
0.680544
0.651907
0.388206
0.0802221
0.0699363
1.40762
1.5412
0.100157
0.187874
1.21259
0.210938
1.31391
0.19102
0.296637
0.195782
0.475401
0.101532
0.291349
0.18157
0.305827
0.11234
0.177438
0.121871
0.16585
0.123474
0.159946
0.125953
0.119366
0.879327
0.695578
0.300481
0.221343
0.0499289
0.157143
1.27396
0.235456
0.234222
0.134917
0.203254
0.503224
1.55442
0.697624
0.184643
0.105658
0.357219
0.307451
0.141255
0.0562685
0.204599
0.791176
0.0758263
1.23283
0.0591272
0.215778
0.141149
0.0559051
0.0796642
)
;
    }
    procBoundary3to1
    {
        type            processor;
        value           nonuniform List<scalar> 
48
(
0.434317
0.0983578
0.186755
0.405243
0.973349
0.0827249
0.0983578
1.04843
0.888967
0.063622
0.063622
0.0921402
0.0921402
0.990166
1.08885
0.120176
0.328256
0.209136
0.328256
0.346131
0.454227
0.9727
0.346131
0.0760005
0.0653409
0.265287
1.42675
0.9727
1.31578
0.644465
0.644465
1.09931
1.09931
0.888967
0.197152
0.871795
0.995681
0.0653409
0.597509
1.49086
0.990166
1.0082
1.03594
0.346131
1.0405
0.575752
1.17165
0.558405
)
;
    }
    procBoundary3to2
    {
        type            processor;
        value           nonuniform List<scalar> 
29
(
0.121507
0.121507
0.176071
0.163959
0.81653
0.104817
0.231109
0.120884
0.263355
0.202898
0.108113
1.08406
0.10758
0.532321
0.417205
0.606704
0.355572
0.450861
0.118852
0.299911
0.318824
0.355572
0.223308
0.450861
0.37816
0.296273
0.450861
1.00166
1.00166
)
;
    }
}


// ************************************************************************* //
