/*--------------------------------*- C++ -*----------------------------------*\
| =========                 |                                                 |
| \\      /  F ield         | OpenFOAM: The Open Source CFD Toolbox           |
|  \\    /   O peration     | Version:  v1912                                 |
|   \\  /    A nd           | Website:  www.openfoam.com                      |
|    \\/     M anipulation  |                                                 |
\*---------------------------------------------------------------------------*/
FoamFile
{
    version     2.0;
    format      ascii;
    class       volScalarField;
    location    "0.15";
    object      nut;
}
// * * * * * * * * * * * * * * * * * * * * * * * * * * * * * * * * * * * * * //

dimensions      [0 2 -1 0 0 0 0];


internalField   nonuniform List<scalar> 
5794
(
0.00109574
0.000893621
0.00221198
0.00101805
0.00134305
0.000724918
0.0009987
0.000480782
0.0018326
0.00133425
0.00130499
0.000791081
0.000590151
0.00100208
0.000843627
0.000708122
0.00382775
0.000726185
0.000694815
0.000787604
0.00187793
0.000868209
0.000595407
0.000658347
0.000548749
0.00385406
0.00342636
0.00155162
0.00112158
0.00111588
0.000726799
0.00131375
0.000657888
0.00112735
0.00108415
0.000836708
0.000787128
0.000729014
0.000558011
0.00114606
0.00237282
0.000838409
0.000773811
0.0010443
0.000842151
0.000509246
0.00117832
0.00057785
0.0011133
0.00116079
0.000322963
0.000794984
0.000930128
0.0012867
0.000127679
0.000851606
0.00129006
0.000651576
0.000793762
0.00491602
0.0013674
0.000437793
0.000875875
0.00274346
0.000850979
0.000802703
0.00455706
0.000589608
0.000761659
0.000641783
0.000758879
0.00394688
0.00356939
0.000891206
0.000706369
0.00147824
0.000304614
0.00354494
0.00116163
0.000147345
0.0011152
0.000835149
0.0022334
0.000680014
0.000789701
0.000314822
0.000459657
0.000523289
0.000900018
0.000595876
0.0017514
0.00101631
0.000740268
0.00116117
0.000790145
0.00102432
0.00153811
0.000743593
0.000959754
0.0014772
0.00152075
0.000905484
0.000866262
0.00141059
0.00078446
0.000833959
0.000535328
0.000440345
0.00124536
0.00122475
0.000684467
0.00134185
0.00167894
0.000818642
0.000774445
0.000897164
0.00099943
0.000795754
0.00126749
0.00100792
0.000815978
0.000386894
0.000525404
0.0015845
0.00156481
0.00467571
0.000608738
0.000782201
0.00100056
0.00111636
0.000851285
0.000541719
0.00087581
0.003488
0.000876245
0.000969415
0.00332437
0.000475133
0.000844574
0.00107432
0.00420787
0.00116573
0.00151216
0.00139098
0.00104829
0.00556008
0.00068014
0.0017455
0.00108421
0.00111664
0.000723841
0.0015354
0.000845724
0.000521763
0.0044752
0.000891231
0.000413623
0.000441821
0.000465818
0.000721956
0.000920034
0.0004556
0.000513944
0.000555743
0.00071813
0.000482403
0.000563142
0.000371769
0.000465762
0.000530839
0.000613529
0.000949155
0.000418492
0.000501822
0.000494156
0.00073555
0.000565703
0.000486144
0.000601291
0.00151972
0.000353015
0.000918334
0.000300783
0.000322622
0.000347883
0.00232968
0.000823321
0.000386616
0.000546891
0.000640779
0.00149842
0.00103464
0.00042052
0.00040778
0.000327703
0.000446871
0.000334331
0.00047454
0.000794076
0.00107154
0.000791812
0.00106742
0.00035467
0.000420587
0.00101076
0.000391936
0.000439352
0.000829571
0.000954008
0.00223136
0.00141265
0.00085848
0.000900588
0.000939495
0.000882807
0.00072518
0.000781879
0.00076376
0.000997154
0.00228372
0.000858103
0.000722244
0.00186452
0.00102551
0.00257896
0.00165778
0.000766982
0.0017316
0.000592065
0.00099409
0.000652848
0.000860198
0.000709327
0.00107285
0.000878958
0.0014707
0.00123192
0.00447516
0.000490167
0.000995721
0.000911063
0.00113594
0.00285412
0.000720289
0.000825675
0.000706054
0.000981612
0.000824396
0.000535919
0.000312067
0.000373937
0.00079708
0.00458616
0.000678418
0.000776717
0.00146924
0.00111352
0.000996491
0.000808572
0.00177465
0.00345287
0.000882858
0.000846793
0.000663598
0.000690816
0.000423774
0.00118387
0.00545313
0.0012969
0.000608643
0.00128774
0.000555947
0.00110627
0.000900082
0.000870655
0.000838835
0.00133597
0.0035912
0.00135957
0.00091182
0.00050392
0.00121426
0.00218047
0.000733578
0.000735391
0.00125946
0.00130067
0.00103246
0.00136411
0.000911485
0.000837889
0.0010067
0.00098752
0.00158281
0.000750144
0.00261972
0.00130908
0.000712812
0.000827679
0.000777458
0.000532626
0.00104595
0.000791781
0.00417035
0.000540328
0.00431227
0.00130982
0.000781687
0.000546359
0.00104469
0.000494087
0.000851654
0.00272267
0.000812031
0.000783594
0.000911658
0.000518222
0.00140003
0.00144039
0.00101676
0.00132263
0.00187291
0.000820101
0.00112706
0.000933134
0.000738148
0.001033
0.000606019
0.000427202
0.00135179
0.00122597
0.000860309
0.000394504
0.000436141
0.000975924
0.00076282
0.000620977
0.000411509
0.000513476
0.000376226
0.000522641
0.00043546
0.00201214
0.000546106
0.000654676
0.000295054
0.000326585
0.00100652
0.000626565
0.000690138
0.000484194
0.00159987
0.000334335
0.000882029
0.0003194
0.00150252
0.000620373
0.000579017
0.000953239
0.000392324
0.000704926
0.000966316
0.00378334
0.00120298
0.000702462
0.000690282
0.000524559
0.00042428
0.000865175
0.000287461
0.0011521
0.000439418
0.000925479
0.00134949
0.000741266
0.00136841
0.0010532
0.000951343
0.00077937
0.000849689
0.00253367
0.00116935
0.000751275
0.000794998
0.00100477
0.00108759
0.00141941
0.00123956
0.000802233
0.00073353
0.000428666
0.000704744
0.000627819
0.000711451
0.000431233
0.000502562
0.000491659
0.000899946
0.00174395
0.000715326
0.000656411
0.00054063
0.00232517
0.000316973
0.000531373
0.0053652
0.000989503
0.00101398
0.000727216
0.00139988
0.000798191
0.00106738
0.00282453
0.000623193
0.000306233
0.000823388
0.000280747
0.000897222
0.0008146
0.00137775
0.000887896
0.000717744
0.000742579
0.00117367
0.000499448
0.000526725
0.00057904
0.000826978
0.000824673
0.000923906
0.00166865
0.000785659
0.00137314
0.00222143
0.000816618
0.00094212
0.00056398
0.000375839
0.000667963
0.000717308
0.000864425
0.000806176
0.000405558
0.000450278
0.0027481
0.00102702
0.00079554
0.000787116
0.000699893
0.00331072
0.000673408
0.000737587
0.00258057
0.000982701
0.000899475
0.000544243
0.00154143
0.00252281
0.00112525
0.00145357
0.00111001
0.000672408
0.00111888
0.000917912
0.00159772
0.00119811
0.00194586
0.00166927
0.00173813
0.00120787
0.000168846
0.00111343
0.00355529
0.0011404
0.00131876
0.00138212
0.00232172
0.00142948
0.000695661
0.000658053
0.0011106
0.00111005
0.000825382
0.000859275
0.000604191
0.00122233
0.000861308
0.00169979
0.00181388
0.00119515
0.000725616
0.00091464
0.000851979
0.000859069
0.00106757
0.00103321
0.000955595
0.0011193
0.000543777
0.00511509
0.00127864
0.00181128
0.000729879
0.000872798
0.00156241
0.000585547
0.000965732
0.0012787
0.00308518
0.000788439
0.00122402
0.00125508
0.00228313
0.000630038
0.000808195
0.000856031
0.000783192
0.000632825
0.000808096
0.00233842
0.00104017
0.000669576
0.00141863
0.00100774
0.0014993
0.000902483
0.00096521
0.00231356
0.00073596
0.000955477
0.0013399
0.000264291
0.00186277
0.00109791
0.000877769
0.00165202
0.00078659
0.00329965
0.00128121
0.00280934
0.000780459
0.00271167
0.000768525
0.000891106
0.000945505
0.00097167
0.000756443
0.0013377
0.000683756
0.000944218
0.00164232
0.00104694
0.000582192
0.00112468
0.000909107
0.00150029
0.00120211
0.000963788
0.00073029
0.00115997
0.00607755
0.000702822
0.00587207
0.00154837
0.000958689
0.000778308
0.000834438
0.00449634
0.000502157
0.000750287
0.00173208
0.0010671
0.000899682
0.000578666
0.000960099
0.000857167
0.00152236
0.000632715
0.000740283
0.00166523
0.000863382
0.00123176
0.00173103
0.00153585
0.00145933
0.00150016
0.000832756
0.000875622
0.00132545
0.00161329
0.000773689
0.000905072
0.000640098
0.000944202
0.00110756
0.00233985
0.000669799
0.00083142
0.000630538
0.00134133
0.000699816
0.0018887
0.000978863
0.00100369
0.000708926
0.00170183
0.00335503
0.000678187
0.000155376
0.00175034
0.00177038
0.00176682
0.0016212
0.00105993
0.000504829
0.00056839
0.00481067
0.000407139
0.00101552
0.000667551
0.000316174
0.00410227
0.00487456
0.000604816
0.000386783
0.000914117
0.00146395
0.00157303
0.000993941
0.000711922
0.00124414
0.000869993
0.000305361
0.00104464
0.000707956
0.000878068
0.00388712
0.000810456
0.000603583
0.00154742
0.000840815
0.00124573
0.000853513
0.00137943
0.00316311
0.00106992
0.00103285
0.00102265
0.00123497
0.00063185
0.00048477
0.000921074
0.00119836
0.000619694
0.000527767
0.00420135
0.00271123
0.000954221
0.00123542
0.000875602
0.00110758
0.00070293
0.00110374
0.00107939
0.000654061
0.00105902
0.00130174
0.00125842
0.00132114
0.00109731
0.00422631
0.00082418
0.00229999
0.000814513
0.000776564
0.000997532
0.00110839
0.00113221
0.00164303
0.000804347
0.000827752
0.000919719
0.00126593
0.000866042
0.000735478
0.00297366
0.000997505
0.00106485
0.00141052
0.00070297
0.0019083
0.0013493
0.00430656
0.00096251
0.00153301
0.00215403
0.000653083
0.00043417
0.000477437
0.000770266
0.000603641
0.000306327
0.000259672
0.00113071
0.00118587
0.0017417
0.000924579
0.000886881
0.00128264
0.00138637
0.0015581
0.00154934
0.00117205
0.000961668
0.00313207
0.000776009
0.000734518
0.00353335
0.00512812
0.00196839
0.00110316
0.00319778
0.00338396
0.000992107
0.00133841
0.000739473
0.000855459
0.000820317
0.00137994
0.000966342
0.00084498
0.00351164
0.001273
0.00380521
0.00155952
0.00151308
0.00229668
0.00169168
0.00102692
0.000746957
0.00170049
0.000406711
0.000423734
0.000429133
0.000340137
0.00119631
0.00142999
0.00191756
0.00108196
0.000803554
0.000685851
0.000953154
0.00119463
0.000584009
0.00093941
0.000950399
0.000756984
0.00120893
0.000827379
0.000719734
0.00103351
0.00166036
0.000862349
0.00107893
0.00123911
0.001262
0.00154041
0.00133571
0.00104158
0.000841379
0.00127326
0.00153302
0.00150317
0.00128246
0.00114357
0.000715808
0.000889911
0.00102052
0.000990108
0.00103694
0.000760121
0.00304295
0.00117188
0.00109369
0.000695782
0.000879328
0.00151878
0.000757578
0.00091123
0.00123525
0.000844822
0.00169345
0.000803234
0.00283053
0.000811912
0.00164034
0.000753864
0.00340111
0.00101735
0.0034129
0.000861896
0.000545969
0.00202298
0.000984825
0.000752919
0.00158224
0.000777524
0.00084955
0.0041538
0.00142395
0.000999845
0.00390965
0.00114597
0.00114017
0.00233174
0.000968127
0.000996756
0.000958017
0.00140077
0.000731033
0.00100688
0.000997998
0.00154697
0.00211853
0.000693767
0.000770553
0.00149776
0.00115727
0.00139671
0.00136166
0.000900276
0.00158759
0.000772041
0.00102458
0.00074344
0.00117523
0.000804271
0.00423726
0.000358463
0.000402113
0.000503069
0.00070267
0.00225739
0.00120944
0.000877897
0.000694643
0.00409169
0.000713338
0.000839653
0.00190964
0.000997487
0.00105338
0.00102233
0.00118183
0.00550598
0.00414977
0.00226969
0.00471512
0.000807631
0.000616259
0.000742092
0.000860395
0.00130433
0.000851956
0.0017464
0.00131029
0.0047327
0.00221867
0.00109533
0.000947141
0.000914096
0.000773759
0.00576272
0.00101139
0.00454569
0.00144549
0.00117774
0.00358119
0.000847479
0.000753898
0.000338654
0.000881186
0.000968536
0.00118092
0.000802471
0.00113808
0.00134986
0.0050731
0.0013108
0.000799859
0.00382876
0.00428348
0.00105904
0.00119447
0.00443821
0.00223864
0.00129009
0.00123854
0.000839412
0.0014914
0.000812009
0.00115323
0.000708993
0.0010438
0.00343375
0.000394704
0.000791242
0.000829012
0.00247078
0.00231163
0.00160101
0.000843655
0.00153654
0.00147402
0.00240544
0.000837088
0.000716103
0.000786096
0.000819959
0.00237542
0.00181993
0.00378843
0.000806944
0.000570333
0.000562329
0.000663606
0.000429376
0.000961022
0.000626956
0.0004211
0.00037378
0.000459532
0.000379596
0.000349071
0.000669673
0.00154442
0.000888149
0.00128883
0.000878939
0.000714601
0.00113453
0.000784121
0.000734029
0.00101885
0.00101769
0.000795415
0.00129639
0.000803519
0.00244982
0.000786777
0.000755131
0.0022524
0.000715913
0.00107648
0.00168463
0.0015267
0.000834391
0.000970959
0.000881068
0.0026872
0.00149293
0.00154482
0.000771603
0.000271411
0.000265523
0.000670607
0.000530985
0.00128897
0.000863796
0.000761154
0.000709949
0.000679553
0.000790318
0.000821413
0.000784142
0.0013029
0.000822356
0.00181699
0.000831727
0.00107426
0.000682623
0.000783075
0.000763026
0.000459584
0.000757092
0.00563904
0.000521396
0.0027732
0.00331085
0.00079857
0.000833893
0.00187622
0.000885685
0.000830467
0.00254064
0.000778314
0.00161549
0.00191054
0.000799829
0.000825708
0.000878274
0.00116989
0.00105327
0.00308064
0.000751428
0.00121555
0.000915881
0.00110369
0.000829845
0.000962396
0.000853075
0.00235136
0.00115835
0.00102101
0.000646632
0.00024881
0.00121152
0.000598222
0.000582629
0.000451697
0.00200586
0.000466261
0.00105671
0.000731201
0.00133795
0.000747902
0.00152102
0.000798543
0.00131101
0.0007913
0.000784556
0.000737742
0.000321572
0.000876132
0.0012669
0.00125876
0.00149245
0.00186541
0.000624265
0.000827264
0.00320101
0.00078936
0.00119399
0.00102648
0.00189562
0.000612898
0.000814531
0.00087185
0.000443518
0.000843087
0.000654294
0.000593239
0.00159496
0.000743016
0.000762426
0.000790542
0.000775636
0.00078743
0.00395647
0.00104859
0.00103419
0.000610184
0.00106335
0.000945977
0.000800673
0.000830457
0.000714569
0.000958425
0.000752344
0.000796678
0.000607641
0.00226951
0.00102609
0.000730089
0.000983373
0.00105055
0.00098824
0.000544235
0.000847034
0.000805469
0.00231461
0.000794337
0.00101485
0.00132476
0.0002783
0.00123588
0.00146034
0.00403877
0.0013788
0.00201998
0.00311776
0.0002653
0.00109427
0.00135084
0.000291934
0.00178125
0.000509109
0.00112296
0.00109976
0.000258215
0.00108475
0.00026198
0.000261951
0.00112752
0.000616945
0.00102508
0.00101965
0.000889297
0.00101897
0.000718653
0.00157083
0.00127342
0.00101042
0.000635288
0.000790977
0.000789752
0.000827656
0.000904987
0.00102189
0.000739523
0.00104327
0.00187702
0.00161744
0.000553216
0.000813966
0.000954371
0.00191074
0.00105006
0.000738344
0.00201988
0.00239119
0.00531466
0.00104244
0.00171079
0.000730808
0.000729281
0.00138462
0.000906977
0.000880931
0.000812505
0.00958228
0.00107653
0.000773096
0.000838932
0.00397011
0.00371322
0.000763194
0.000790926
0.000804461
0.0005287
0.00373391
0.000632666
0.00158991
0.00175692
0.00206566
0.000892354
0.0017258
0.000988284
0.000844175
0.00191827
0.00266769
0.000832347
0.00101908
0.000729096
0.00149001
0.00103009
0.0018416
0.000450888
0.000471627
0.000753418
0.000946777
0.000833081
0.00077704
0.00086983
0.000746821
0.000799268
0.00383373
0.000961531
0.00074395
0.000739261
0.000856812
0.0012247
0.0031689
0.00136591
0.00417356
0.000418857
0.000952961
0.000751398
0.00184261
0.00101142
0.000710252
0.000336328
0.0004279
0.00084474
0.00111528
0.000798396
0.00073409
0.000462533
0.00732976
0.000741334
0.00108594
0.000891614
0.0010059
0.000745182
0.00228727
0.0012915
0.000757152
0.000589462
0.000973549
0.000537142
0.000649676
0.000662291
0.00133485
0.000743203
0.000864774
0.000822998
0.00423372
0.000845189
0.00196198
0.000828899
0.000266957
0.000736269
0.000855134
0.00323146
0.000854533
0.000187833
0.00139137
0.00109953
0.00112797
0.000260022
0.00156421
0.00085052
0.00110637
0.00167753
0.00190225
0.00078359
0.000572469
0.000752697
0.00155157
0.00126639
0.00119257
0.00085766
0.000850438
0.00301829
0.000836548
0.000346922
0.000725848
0.000784009
0.00394348
0.000993197
0.000320909
0.00131079
0.000697675
0.000506671
0.000935958
0.00200531
0.00158502
0.000824399
0.000979114
0.00167138
0.00184568
0.00217904
0.00201336
0.00491637
0.000796522
0.000798551
0.00126481
0.000769008
0.0016716
0.00157203
0.000877109
0.00199669
0.00147367
0.00286575
0.00218981
0.00200265
0.00129493
0.00124611
0.00187704
0.000883279
0.00157999
0.00164051
0.00144214
0.00197795
0.00106015
0.0022968
0.00238121
0.0012777
0.000943327
0.000373981
0.000807414
0.00254239
0.000580405
0.00182144
0.00199192
0.000831145
0.0039308
0.0039545
0.00126854
0.000456131
0.00230402
0.00120464
0.0035613
0.00406897
0.000828284
0.000840012
0.000754707
0.0012035
0.00068747
0.00115143
0.000657609
0.00130704
0.00106596
0.00086287
0.000573673
0.00223111
0.00159799
0.00114436
0.00198559
0.00378915
0.000786827
0.000176874
0.00225667
0.000804602
0.00109885
0.000768713
0.00363886
0.000878858
0.00292068
0.000898654
0.000467732
0.000625174
0.000577559
0.000878101
0.000617515
0.00123494
0.000860382
0.00126636
0.000889107
0.00128554
0.00118207
0.0012174
0.000811894
0.00111807
0.00255032
0.000660291
0.00332765
0.00115091
0.000821556
0.000861744
0.000409016
0.0014466
0.000653287
0.000822969
0.00257412
0.00348159
0.0010473
0.000830582
0.00177754
0.000787743
0.000694929
0.000934581
0.00102148
0.00221127
0.00114878
0.00036828
0.000341311
0.000525205
0.00716539
0.000826269
0.000716538
0.00154367
0.00113749
0.0033931
0.002827
0.000313052
0.000273953
0.000303167
0.000290965
0.000248213
0.000513797
0.00030243
0.000274945
0.000473656
0.000274177
0.000331224
0.0009716
0.000595713
0.000225138
0.00028894
0.000261518
0.000544466
0.000370113
0.000468836
0.000552843
0.000641897
0.000294379
0.000344136
0.000185546
0.000347938
0.000432587
0.00141725
0.000419252
0.000273674
0.000304238
0.000778209
0.0011119
0.000336112
0.000276561
0.00030232
0.000329866
0.000254909
0.000319084
0.000354369
0.000280785
0.000360038
0.000259271
0.00128886
0.00064042
0.00110238
0.000845173
0.00144885
0.000728552
0.001312
0.00226062
0.00258907
0.000993497
0.00125623
0.000822462
0.00108312
0.00125275
0.00333056
0.000782394
0.00634362
0.00156174
0.00312158
0.00374308
0.00107298
0.00104979
0.000838696
0.00151227
0.000478565
0.00210878
0.00089715
0.0019318
0.00161999
0.00133808
0.00212869
0.000574266
0.00176449
0.00173739
0.00187655
0.00742428
0.00108353
0.00130799
0.000710883
0.000783206
0.00125713
0.00542257
0.00259934
0.00106474
0.00414454
0.000677708
0.00384164
0.000649427
0.000764989
0.000842186
0.000848847
0.00956676
0.00098518
0.000571796
0.000501848
0.000837215
0.00145824
0.000428853
0.00407289
0.000798058
0.000343163
0.000244877
0.000314447
0.000359326
0.000349555
0.000414506
0.000268711
0.000331584
0.000355866
0.00027019
0.000796518
0.00121535
0.000253309
0.000614582
0.000449217
0.000565499
0.00080728
0.000314163
0.000317348
0.00022503
0.00027061
0.000323054
0.000302743
0.0022663
0.00244418
0.000177026
0.000942362
0.00260867
0.000848692
0.00141545
0.000748203
0.00512881
0.000923223
0.00117165
0.00340574
0.00171317
0.00226272
0.000253648
0.00174084
0.00410889
0.00121245
0.00206581
0.00302614
0.00139734
0.000708944
0.00115651
0.00213353
0.00115366
0.00109993
0.00136586
0.00265673
0.00130961
0.000897011
0.000803693
0.000677081
0.00103306
0.00100722
0.00145514
0.000980102
0.00246154
0.00039313
0.00207469
0.000871787
0.000845482
0.000912971
0.000770739
0.000607176
0.00100855
0.000835396
0.00100201
0.00235621
0.000834683
0.000781769
0.000674738
0.00184132
0.0013593
0.00203236
0.000187735
0.000772521
0.00183612
0.000737477
0.00323044
0.000453662
0.000718428
0.00125169
0.00383069
0.00121292
0.000832771
0.000971306
0.000672538
0.00283928
0.00383217
0.000739376
0.000933425
0.000378864
0.000212225
0.000564674
0.00233021
0.00231542
0.000772292
0.000978945
0.00226034
0.000736343
0.00126829
0.00161423
0.00151937
0.00132161
0.00182574
0.000993414
0.00180171
0.000832037
0.00199641
0.00117452
0.000812915
0.000729916
0.000717761
0.000644608
0.00118487
0.000338099
0.00086205
0.000865649
0.00103959
0.00408052
0.0011183
0.00137619
0.00181432
0.00108377
0.00083243
0.00161264
0.0009387
0.00409895
0.00432557
0.000903147
0.000980392
0.00118083
0.00225091
0.00143288
0.00280435
0.00230117
0.00174071
0.00129978
0.00214236
0.00241117
0.00131158
0.000852691
0.00107003
0.000975153
0.00113733
0.000933825
0.00123426
0.00219606
0.00170353
0.00117642
0.0017383
0.00297392
0.00297445
0.000918106
0.00189678
0.00083368
0.000763045
0.00205489
0.00244986
0.000794616
0.000843415
0.00199807
0.00109375
0.000992879
0.00167398
0.00160547
0.000965862
0.00157468
0.000937734
0.00101811
0.000970387
0.00102555
0.0014687
0.00138441
0.00106851
0.00149764
0.00101301
0.00108744
0.00103176
0.000790994
0.000843226
0.00102773
0.00224876
0.000845547
0.000976753
0.000937279
0.000863235
0.000230444
0.000418262
0.00147592
0.00124058
0.00117814
0.00131561
0.00104512
0.00181192
0.00125432
0.00199664
0.00262208
0.000812218
0.000904135
0.000901227
0.0023771
0.00179424
0.00326389
0.00171762
0.00286811
0.0030363
0.00103479
0.00344298
0.00106112
0.00211876
0.00124737
0.000920444
0.00111102
0.000306497
0.00307279
0.000990405
0.000962217
0.000853388
0.00092603
0.000940033
0.00272196
0.000884524
0.000905297
0.00179055
0.00099254
0.00252925
0.000952695
0.000712325
0.00260605
0.000817568
0.00128528
0.0011859
0.00114599
0.00129296
0.00113416
0.000960415
0.00280664
0.00065807
0.000943954
0.0021271
0.00101159
0.00107668
0.00142748
0.00102883
0.00114931
0.00258244
0.000992708
0.00428293
0.00090603
0.000853092
0.00082356
0.00101459
0.0021665
0.00091267
0.00101869
0.000847008
0.000900937
0.00113805
0.00395886
0.00124699
0.00140883
0.00116033
0.000946456
0.000886994
0.00106777
0.000905942
0.0023897
0.000915397
0.00368593
0.00104434
0.00101481
0.00103937
0.00129946
0.00345979
0.0013263
0.00180573
0.00108124
0.00372777
0.000945587
0.00103377
0.0014103
0.000833974
0.000821375
0.003286
0.00128218
0.00233415
0.00217419
0.00295462
0.00242555
0.000820101
0.00121527
0.0027009
0.00112155
0.00089006
0.00181153
0.00086461
0.00191909
0.000832168
0.00108084
0.000913362
0.00339986
0.00194325
0.000931867
0.0033011
0.00115724
0.00199304
0.000676209
0.0043658
0.000901592
0.00232172
0.00120513
0.0010687
0.000860036
0.000989152
0.00114601
0.000424652
0.00344155
0.00386963
0.00154011
0.00125741
0.00116856
0.00131714
0.000818699
0.00159973
0.000678513
0.000848409
0.0035427
0.000855248
0.00181973
0.00115064
0.000960004
0.0014002
0.0015407
0.00132478
0.00346953
0.00112978
0.0010313
0.000947307
0.00157145
0.00256637
0.00241649
0.00234585
0.00115405
0.00239732
0.00101683
0.00116121
0.00251241
0.00176337
0.000610392
0.00109094
0.00129531
0.00147954
0.000957165
0.00103357
0.00177314
0.00186464
0.000380966
0.00232669
0.00132746
0.00124226
0.00117696
0.00115155
0.00197857
0.00192697
0.00185424
0.000906761
0.00123735
0.00156856
0.000513633
0.00199449
0.000817792
0.00212927
0.000825677
0.00191584
0.000840555
0.000259297
0.00319476
0.000839241
0.000840368
0.000868541
0.000763361
0.00176317
0.00156765
0.00138317
0.000983835
0.0020483
0.00136678
0.000843961
0.00129588
0.00108636
0.000880506
0.00105813
0.000808449
0.000313357
0.000781085
0.000270861
0.00247117
0.00197592
0.000836661
0.000999334
0.000680131
0.00105065
0.00196889
0.000826194
0.000832585
0.000928226
0.00146054
0.000849075
0.000939165
0.000919886
0.00200457
0.00084543
0.000878727
0.000895226
0.00275292
0.000852559
0.000830111
0.00228412
0.0016357
0.000922929
0.000814795
0.00253988
0.00120053
0.000948721
0.00077899
0.00144137
0.000662167
0.00118472
0.000822203
0.00174282
0.000883506
0.000940948
0.00103522
0.00206615
0.000777086
0.000867852
0.000888935
0.000713937
0.000432168
0.00086273
0.00226944
0.000829331
0.0024642
0.00219185
0.00145693
0.000782456
0.000829071
0.00104522
0.00157014
0.00101954
0.00104791
0.00125429
0.000878416
0.000938905
0.000935333
0.000861195
0.0030528
0.00110457
0.000959606
0.00116556
0.00159587
0.000910296
0.000456685
0.00125669
0.00136927
0.00141243
0.00170154
0.00189864
0.00152367
0.000913469
0.000797007
0.00183592
0.00180455
0.000914154
0.000968441
0.00218031
0.000815165
0.000917199
0.00309442
0.000911192
0.000917136
0.000815447
0.00249841
0.00263191
0.00384498
0.00165356
0.00100401
0.00113501
0.00274674
0.000825817
0.00223913
0.00176724
0.00116873
0.00202073
0.000802489
0.00102626
0.0022892
0.00055087
0.000803969
0.00117444
0.00108463
0.000724408
0.00159929
0.000730862
0.00221872
0.00119845
0.000827308
0.00229573
0.00123082
0.0013726
0.00202762
0.00139452
0.00127971
0.00113353
0.000592461
0.000703498
0.00110742
0.00209284
0.000773189
0.000853509
0.000864149
0.000830128
0.00126557
0.000462242
0.00218566
0.00229538
0.00311517
0.00100454
0.00279851
0.00181098
0.00136478
0.00113706
0.000828633
0.00244496
0.00211981
0.000988753
0.0012771
0.00233891
0.00226884
0.00103525
0.00490175
0.00227505
0.000861302
0.00077741
0.000894678
0.000800321
0.000370504
0.000837196
0.00146075
0.000983412
0.00140003
0.000994331
0.00130737
0.00207472
0.0049311
0.000771664
0.000794546
0.00110752
0.00160922
0.000948334
0.00128177
0.00124367
0.00110782
0.00375389
0.00149967
0.00110744
0.00139015
0.00174832
0.00134914
0.00133665
0.000951733
0.00146331
0.00340853
0.00445998
0.00403484
0.00483649
0.00117011
0.00219699
0.000841447
0.000920312
0.00120203
0.00134073
0.00127173
0.00385774
0.00123875
0.000927193
0.00100369
0.00134769
0.00168837
0.00132803
0.00269212
0.000444887
0.000602671
0.00041676
0.000464732
0.00417858
0.000737909
0.00179281
0.00307598
0.000792813
0.000757979
0.00359498
0.00141075
0.00130541
0.00247237
0.000799304
0.00313239
0.00177374
0.0014781
0.00105171
0.00124296
0.00271112
0.00194161
0.000312451
0.000854959
0.00544141
0.00436118
0.00100583
0.00550958
0.00087124
0.000886377
0.00156455
0.00168013
0.00190612
0.00224437
0.000972586
0.000600801
0.00127197
0.0011155
0.00294985
0.00187466
0.00100944
0.00111087
0.001499
0.00139709
0.000921645
0.00176743
0.00147878
0.00245263
0.0048672
0.00157251
0.00158082
0.00421731
0.00080895
0.000941823
0.000740314
0.000753098
0.00475191
0.00144934
0.0052262
0.00122184
0.00142156
0.00175043
0.00104259
0.00237824
0.00263622
0.00349861
0.00147491
0.000712343
0.000830624
0.00452053
0.00188507
0.00136136
0.00121949
0.00126031
0.000499339
0.00183239
0.0025245
0.00499047
0.0020198
0.00311189
0.00441579
0.00107989
0.000877601
0.00332606
0.00125502
0.000340935
0.000277927
0.00213913
0.00150273
0.00178418
0.00376917
0.00156868
0.00174113
0.00079725
0.00230082
0.00119927
0.000788252
0.00105051
0.0013794
0.00162178
0.00208946
0.000761807
0.000817923
0.00104942
0.000601864
0.00146439
0.00492191
0.000629689
0.00207253
0.0028321
0.00162589
0.00227776
0.00124746
0.000937084
0.00130973
0.000478439
0.0010707
0.00194471
0.00165932
0.00114962
0.00110735
0.0011495
0.00166833
0.00229262
0.000420277
0.00389705
0.00160093
0.00149954
0.000763518
0.00150807
0.00354306
0.00122299
0.00360315
0.000850767
0.00362987
0.002818
0.00330375
0.00108277
0.000828453
0.00100265
0.00100962
0.00185037
0.00136959
0.00125873
0.00231879
0.00129618
0.00103162
0.000757178
0.00227468
0.00172454
0.00205635
0.00234946
0.0044839
0.000900117
0.000786425
0.00078654
0.000590747
0.00311862
0.00140842
0.00353498
0.0057992
0.00105603
0.00184933
0.00161132
0.00118813
0.00119327
0.0013454
0.00116384
0.000710981
0.000672398
0.00189484
0.000927114
0.00106711
0.000946035
0.000943435
0.000988201
0.00179135
0.00248747
0.00191638
0.0014414
0.00233259
0.00197135
0.00211908
0.00090017
0.0074187
0.00073959
0.0012312
0.000582685
0.00215775
0.000661287
0.000917242
0.00321442
0.00467159
0.00120534
0.00347599
0.000873155
0.000388196
0.00187672
0.000830991
0.00153495
0.000621997
0.000738603
0.00109688
0.00289705
0.0017497
0.00167478
0.00238501
0.00191239
0.00121716
0.00318059
0.000377292
0.00196447
0.0013415
0.00100045
0.00156976
0.000890483
0.00090026
0.00411121
0.00148742
0.00103639
0.00204243
0.00123645
0.00192664
0.00471103
0.00256588
0.000926045
0.00412672
0.000542373
0.000835128
0.00240293
0.00415567
0.00107817
0.000929406
0.00112573
0.00103703
0.00103313
0.000283781
0.00251222
0.00216433
0.000799247
0.0021372
0.00319701
0.00149608
0.00101676
0.00126907
0.0014183
0.0010419
0.00415563
0.00104504
0.00110522
0.000987738
0.00486967
0.00222993
0.00314515
0.000531748
0.000970994
0.000992466
0.000974806
0.000484992
0.000770707
0.00101147
0.00319932
0.00125427
0.00183848
0.000751414
0.00223664
0.000809721
0.0010242
0.00173319
0.000722557
0.00139515
0.000927123
0.00147869
0.000848191
0.000761827
0.000753538
0.00492876
0.000917418
0.000953755
0.00205003
0.002173
0.002075
0.000754829
0.00154647
0.0022613
0.00108497
0.00186265
0.00467691
0.000737762
0.000624838
0.000882639
0.000487042
0.000401933
0.00041438
0.00144651
0.0024156
0.00141788
0.00342834
0.00277171
0.001802
0.00108558
0.0014582
0.00107153
0.00131294
0.00087437
0.00139156
0.00161318
0.000889164
0.00120953
0.00032269
0.00221385
0.000848038
0.000886909
0.00085088
0.00109394
0.0042177
0.0025134
0.00126935
0.0016016
0.00391185
0.00157566
0.00149458
0.000464569
0.00103757
0.00216739
0.000972854
0.00124547
0.0022833
0.000899855
0.00234743
0.00201127
0.000707444
0.000775253
0.00364911
0.00224341
0.00183209
0.00229775
0.00184592
0.00249597
0.00158789
0.00108112
0.00112016
0.000956006
0.00175935
0.000798008
0.000712285
0.00197794
0.0013705
0.00144547
0.000996379
0.000887211
0.0028524
0.000866488
0.000809586
0.000722911
0.00149433
0.00144395
0.00106911
0.00265938
0.00193194
0.00157583
0.00248625
0.000697848
0.00122154
0.0021282
0.0021786
0.000941542
0.00136458
0.00128512
0.000742744
0.00118787
0.00256454
0.00233824
0.00105902
0.00107875
0.000736296
0.00167601
0.000463609
0.00304056
0.00151997
0.00187274
0.00232501
0.000847337
0.00127298
0.000839563
0.00358515
0.00051366
0.00150174
0.0018073
0.00111543
0.00445006
0.00293433
0.001218
0.000786854
0.000757547
0.000663142
0.00154447
0.00542844
0.00179081
0.000830146
0.00441205
0.00176568
0.00041963
0.00125034
0.00133182
0.000892097
0.00177946
0.00186983
0.000922437
0.000892254
0.000952754
0.0026193
0.000935126
0.000886594
0.000922911
0.00126996
0.000794804
0.000839861
0.00212643
0.0016091
0.000805748
0.00150179
0.00208337
0.000837771
0.000761282
0.00168218
0.00157363
0.000870575
0.000953914
0.000406205
0.000460107
0.00102059
0.00170727
0.00123516
0.00129631
0.000761571
0.00322616
0.000767356
0.000981228
0.000806448
0.00196126
0.00137428
0.00166118
0.00160677
0.00220782
0.000817814
0.000830579
0.000730324
0.000844948
0.00116975
0.000475366
0.00112835
0.00138959
0.000418788
0.00139896
0.0007371
0.00108125
0.00141787
0.00182344
0.0017575
0.00169654
0.00188299
0.000972282
0.000811839
0.00470778
0.000913898
0.00126087
0.00215984
0.00121593
0.0019836
0.000843569
0.000807435
0.000680978
0.00217404
0.00125295
0.00360059
0.0045484
0.00607835
0.00124202
0.00114465
0.00103438
0.000728266
0.00410958
0.00117804
0.00155995
0.000329026
0.00160525
0.00193304
0.00107387
0.00499331
0.000858673
0.000729893
0.00222103