/*--------------------------------*- C++ -*----------------------------------*\
| =========                 |                                                 |
| \\      /  F ield         | OpenFOAM: The Open Source CFD Toolbox           |
|  \\    /   O peration     | Version:  v1912                                 |
|   \\  /    A nd           | Website:  www.openfoam.com                      |
|    \\/     M anipulation  |                                                 |
\*---------------------------------------------------------------------------*/
FoamFile
{
    version     2.0;
    format      ascii;
    class       surfaceScalarField;
    location    "0.15";
    object      phi;
}
// * * * * * * * * * * * * * * * * * * * * * * * * * * * * * * * * * * * * * //

dimensions      [0 3 -1 0 0 0 0];
oriented        oriented;


internalField   nonuniform List<scalar> 
11117
(
-5.05867e-05
0.000129463
2.46377e-05
-0.000103514
1.46021e-05
0.000221867
-6.09287e-06
-0.000230377
-0.000299276
0.000476171
-0.000153445
-2.34501e-05
-0.000179376
1.27449e-05
6.62844e-05
0.000100347
8.1837e-05
0.00044162
-0.000404828
-0.000118628
-2.0962e-05
-3.42262e-06
-0.00020649
0.000230875
0.000675056
0.000137212
-0.000610865
-0.000201403
0.000129822
2.86076e-05
-0.000122352
-3.60773e-05
0.000881532
0.000344625
-0.000810195
-0.000415963
-7.24996e-05
8.60631e-05
-7.58315e-05
6.2268e-05
-0.00068874
0.000625072
0.000324972
-0.000261304
-0.00020853
-0.00010075
0.000163114
0.000146166
-0.000160142
-7.8137e-05
8.94353e-05
0.000148844
0.000636976
-0.000589189
0.00020054
-0.000248326
0.000378754
-0.000322865
0.000372238
-0.000428126
-8.83714e-06
0.000108776
-0.000103051
3.11243e-06
-9.68639e-05
0.000267176
-4.17982e-05
-0.000128514
-0.000284643
0.000292156
0.000388894
-0.000396407
0.000329609
0.000530529
-0.000481384
-3.63264e-05
1.85801e-05
0.000174667
-0.00015692
-0.000319894
0.000168942
2.57284e-05
0.000125224
-2.56502e-05
1.57014e-05
0.000143228
-0.000133279
-0.000346159
-0.000376058
0.000254549
0.000467668
0.000289923
0.000279522
-0.000180052
-0.000389393
8.52246e-05
0.000120718
-0.000202019
-3.92362e-06
0.000913626
-0.000948028
0.000272214
-0.000237813
0.000252187
-0.000342303
0.000914954
-0.000824837
-0.000196349
0.000260171
-0.000244402
0.00018058
-5.96602e-05
6.41112e-05
0.000152886
-0.000157337
-0.000105013
6.07048e-05
-2.69613e-05
7.12695e-05
-2.93774e-05
-3.0489e-05
5.95203e-05
3.4611e-07
-7.65656e-05
-0.000427208
0.000330559
0.000173214
-3.03028e-05
-8.53282e-06
4.58012e-05
-6.96563e-06
-0.000134259
0.000145744
-6.87089e-05
5.72237e-05
-0.000146305
0.000266513
-0.000189454
6.92456e-05
-0.000201905
0.000228363
-0.000217587
0.000191129
0.000604524
-0.000817126
0.000998891
-0.000786289
0.000342624
-0.000410318
-0.000131166
0.00019886
-0.000123846
7.22183e-05
7.49409e-05
-2.33128e-05
-0.00026171
0.00025444
-0.00028376
0.00029103
-0.000113081
-2.05915e-05
5.09974e-05
8.26751e-05
0.00013592
0.00028164
-0.000289935
-0.000127625
0.00110447
0.000965143
-0.000985481
-0.00108413
-0.000280561
2.94769e-05
-2.19405e-05
0.000273024
0.000437536
0.000273389
-0.000381317
2.82186e-05
-5.43518e-05
3.78178e-05
-1.16846e-05
-0.00101706
0.000860374
-0.000318578
0.000475267
1.21323e-06
-4.81586e-06
5.8491e-06
-2.24647e-06
1.28683e-05
-5.34424e-05
0.000105755
-6.51806e-05
-7.6745e-05
0.00024746
-0.000170715
-5.65565e-06
1.93376e-05
-1.3682e-05
-0.00014259
-0.000354488
0.000146182
0.000350897
-8.20454e-05
8.18105e-05
-3.2747e-05
3.29818e-05
0.000453005
-0.000433745
6.84898e-05
-8.77495e-05
2.07634e-07
-2.07633e-07
-0.00011173
4.57156e-05
9.77155e-05
-3.1701e-05
0.000553766
0.00015857
-0.000684221
-2.81149e-05
-1.86988e-05
6.98436e-06
1.66935e-05
-4.979e-06
0.000971007
9.99829e-05
-0.00150328
0.000432292
-0.000352705
0.000753546
0.000512784
0.00083294
-0.000850085
4.60322e-05
-2.88879e-05
0.000189236
-8.58263e-05
-9.80802e-05
-5.32977e-06
-1.61581e-05
-1.09679e-05
-2.25146e-06
8.75597e-05
2.31772e-05
-0.000187302
-1.39537e-05
-3.02611e-05
1.3912e-05
1.17181e-05
-0.0001241
9.82823e-05
1.40994e-05
0.000357383
-0.000247524
0.000264823
-0.000374682
7.85565e-05
-9.8902e-05
2.03455e-05
-0.000396446
-0.000173033
0.000328377
0.000241102
-5.42519e-06
9.43762e-05
5.53074e-06
-9.44817e-05
0.000183025
-5.76896e-05
-0.000267926
-0.000290685
0.000338737
0.000309332
-0.00026728
-0.0013576
0.00138675
0.000238123
0.000111024
-0.000303578
0.000256712
-6.41584e-05
-0.00041074
-0.000270349
-0.000110775
4.50999e-05
0.00013775
-7.20756e-05
-0.000151654
0.000101146
5.05077e-05
-0.000910407
-0.000170939
0.000133318
-0.000265764
-2.35705e-05
8.77427e-06
-2.46552e-05
4.76875e-06
1.98864e-05
6.63419e-05
2.51192e-05
3.67334e-06
-9.51345e-05
0.00016809
5.8792e-05
5.13259e-07
-0.000227395
0.000176514
-0.000234721
0.000130537
-7.23301e-05
2.81356e-06
-0.000118723
1.90382e-05
9.68713e-05
-0.000175998
0.0001744
0.00016817
-0.000166573
1.6867e-05
-0.000234394
0.000217527
-2.92949e-05
-0.000384724
0.000414019
7.16774e-05
-0.000391442
0.000319764
-5.64839e-05
5.82331e-05
0.000182547
-0.000184296
-0.00018005
-1.52859e-05
-0.000259383
0.000454719
0.000559471
-0.000126072
6.12309e-05
-0.000494631
0.000437171
4.09156e-05
-4.74694e-05
-0.000430617
0.000347145
-2.63404e-05
2.48096e-05
-0.000345614
-0.000464531
3.70826e-05
-1.02581e-05
0.000437707
-0.000349955
2.81371e-05
-1.63229e-05
0.000338141
2.44912e-05
-0.000108147
0.000190257
-0.000106601
0.000623814
2.31105e-05
-2.67683e-05
-0.000620156
0.000329675
1.95845e-05
-8.76576e-06
-0.000340494
0.000417537
4.00798e-05
-2.46398e-05
-0.000432977
0.000801094
6.20074e-05
-3.01615e-05
0.000402889
5.68439e-05
-0.000416105
-4.36273e-05
-0.000151459
0.000122739
3.02422e-05
-1.52185e-06
0.000361169
-0.000452222
-0.00129843
0.00138949
0.000493071
0.000104665
-0.000551639
-4.60983e-05
-0.000130683
0.000365446
-0.000268709
3.3946e-05
-0.000491145
0.000204845
0.000445418
-0.000159118
6.49149e-05
-6.04523e-05
0.000169458
-0.00017392
-0.000107371
0.000104752
-0.000123416
0.000126035
2.50146e-05
-9.8703e-05
-6.64875e-05
0.000140176
-0.000219547
3.67422e-05
-8.29601e-05
3.22429e-05
-5.14155e-06
-9.67353e-06
-1.74278e-05
0.000100793
-1.25009e-05
-2.2294e-05
-6.59976e-05
-0.000401773
0.000321261
-0.00019526
0.000275772
6.99997e-05
-6.52376e-05
1.23248e-05
-1.70869e-05
5.51879e-05
0.000311
-0.00035486
-1.13276e-05
9.35325e-05
0.000358402
-0.000424785
-2.71496e-05
-0.000244302
-0.000305101
0.000451272
9.81309e-05
-0.000250938
0.000204369
0.000315101
-0.000268531
3.97027e-05
-2.20585e-05
-0.000867729
-0.00103631
8.76252e-05
0.000956091
-7.40341e-06
0.000385305
-0.000220353
-0.00041589
0.000345817
-0.000307343
-3.84744e-05
6.24922e-05
-4.65717e-05
5.95069e-05
-7.54274e-05
-0.000165775
-0.000141349
-5.19577e-06
-0.000119343
1.6733e-05
0.000107806
-0.000325987
0.000367715
0.000651731
-0.000693459
-0.000453957
0.000476629
-0.000436123
0.000413451
6.73528e-06
0.000200188
-0.000184671
-2.22528e-05
0.000173357
-0.000347615
-1.53093e-05
0.000189567
-8.15445e-05
-4.85832e-05
3.01688e-05
9.99589e-05
8.66212e-05
-4.50927e-05
-7.62217e-05
3.46932e-05
9.6579e-05
-0.000105659
-5.02348e-05
5.93147e-05
0.000243918
-0.000275949
-8.37444e-05
0.000115775
-0.0008369
0.000114117
-0.000187624
-8.36989e-05
0.000108919
-0.000416648
0.000391427
0.000264732
-0.000331361
-0.000256236
-0.000400223
4.12544e-05
8.49293e-06
0.000350476
9.23959e-05
0.0001328
-3.59597e-05
-1.37991e-05
-8.18147e-06
8.84681e-06
1.31338e-05
5.02376e-05
-2.75151e-05
-8.08236e-05
5.81011e-05
0.000449737
-0.000190458
-0.00022709
-3.21889e-05
-0.000171691
-0.000287747
0.000344096
0.000115342
0.000137773
-0.000170777
-6.19543e-07
3.36232e-05
0.000201854
-0.000207734
-6.17961e-05
6.76761e-05
3.08542e-06
-6.88712e-07
-7.14532e-06
4.74861e-06
-1.12884e-05
0.000284289
-0.000130931
-0.00014207
9.36586e-05
-2.27418e-05
-8.4246e-06
-0.000430432
0.000957262
-0.000548272
2.14424e-05
5.58883e-05
0.000461688
-6.26792e-05
-0.000454897
3.7621e-05
8.87537e-05
-8.39049e-05
-4.24698e-05
0.000982885
0.000486916
-0.000660172
-0.000809628
-3.45406e-05
3.2912e-05
-0.000228008
0.000229637
-0.000307551
-7.89435e-05
-0.00010465
6.06326e-05
-9.46285e-05
-3.74734e-05
7.14692e-05
-0.00052889
-0.000387502
0.000606298
0.000310094
0.000898038
-0.000267536
-0.000630502
-0.000121033
4.0916e-05
2.80725e-05
-6.89885e-05
3.65179e-05
1.91164e-05
-5.56343e-05
0.000166626
-0.000289724
4.58542e-06
0.000285139
-5.45633e-05
0.000216601
-0.000162037
-9.23012e-05
0.00016093
-6.86291e-05
-7.54672e-05
0.000230312
-0.000154844
0.000144858
-0.000115529
-2.93288e-05
0.000195636
-0.000169349
-2.62867e-05
-9.71037e-05
-1.60052e-05
0.000113109
-0.000119927
-1.49802e-05
0.000134907
5.59015e-05
-2.36586e-05
0.000100971
-1.78847e-07
0.000232634
-0.000262362
2.9728e-05
0.000177292
6.78504e-05
-0.000245142
0.000277592
-0.000276969
-6.22817e-07
0.000346725
-0.00031951
-2.72155e-05
0.000187479
-0.000208709
2.12296e-05
0.000371905
-0.000518601
0.000146696
-0.000504833
0.000275677
0.000229156
-2.42385e-05
-5.26799e-05
7.69183e-05
-0.000267739
0.000252817
1.49213e-05
0.000363574
-0.00054503
0.000181456
9.82358e-06
9.94452e-06
-1.97681e-05
-0.000312276
0.000340539
-2.82629e-05
3.40393e-06
4.58681e-06
-7.99073e-06
6.38333e-05
-3.21682e-05
-3.16652e-05
6.63387e-05
-4.46591e-05
-2.16796e-05
-0.000115371
8.85054e-05
2.68658e-05
-0.000194751
4.32925e-05
-5.94209e-05
8.48154e-05
-2.53945e-05
1.01494e-05
-2.45335e-06
-7.6961e-06
1.16984e-05
0.00011104
-0.000117825
-0.000570915
-0.000364641
-6.25669e-05
1.08271e-05
-1.93599e-05
-1.48063e-05
-1.56826e-05
0.000112187
-1.56082e-05
0.000124894
-3.82731e-05
-0.000108519
1.43741e-05
9.41446e-05
6.77425e-05
1.14607e-05
-7.92032e-05
0.000322354
0.000208175
-0.00120347
0.00156464
-0.000538308
0.00010355
0.000434758
-0.00030678
-4.77087e-05
-4.33248e-06
5.54571e-06
0.000128095
-0.000147701
1.9606e-05
-0.000822929
-0.000194134
6.15492e-06
2.20637e-05
-6.9347e-05
4.0545e-05
2.8802e-05
-1.79678e-05
-0.000143662
0.000139977
2.16524e-05
-0.000104644
5.70794e-05
0.000631454
-0.00058389
-0.000798302
0.000830741
0.000541874
-0.000574314
-0.00013284
4.34003e-05
0.000150752
-6.13126e-05
-0.00117616
0.00113348
-5.03247e-05
9.30063e-05
-0.000180109
0.000174869
-7.02269e-05
-0.000114724
0.00010636
-4.61991e-05
-6.45167e-06
-3.44217e-05
-0.000126301
0.000167175
-9.01495e-05
0.000156108
-0.000110949
4.49907e-05
-0.000146182
0.000230786
0.000407743
-0.000492347
-0.000380292
0.000423311
0.000200899
-0.00012143
5.72423e-06
0.000432606
-0.0003169
0.000994194
-0.000830047
-0.000345686
0.000181539
-0.00138882
-3.37036e-05
0.00024636
-3.47876e-05
5.93966e-05
1.64709e-05
-4.10799e-05
0.000582752
-0.000115283
-7.89546e-05
-0.000388515
0.000364122
-0.000103154
-2.39498e-05
-0.000237018
-0.000346883
-0.00025782
4.88736e-05
0.000555829
-8.55173e-05
5.48729e-05
0.00128998
-0.00125934
2.64895e-06
1.44514e-05
-1.71004e-05
2.24412e-05
0.000269338
-2.81008e-05
-0.000263679
0.000390903
-1.20602e-05
6.64445e-06
-0.000385487
0.000240401
-0.000185837
-0.0004335
0.000378936
6.35803e-06
-3.16671e-05
-0.000295159
0.000320469
4.04757e-05
-4.27504e-05
-0.000315745
0.00031802
-6.03968e-05
7.67807e-05
-0.000194168
0.000177784
9.34262e-05
-4.7284e-05
-1.46263e-05
-3.15159e-05
0.00014925
-0.000174659
7.33908e-06
1.80703e-05
2.13448e-05
2.5404e-05
-0.000967328
0.000920579
-6.79741e-05
1.97857e-05
-0.000780789
0.000828977
0.000771283
-0.000774259
3.93781e-05
-3.64021e-05
0.000104364
-0.000156319
-0.000122335
0.00017429
-2.19412e-05
-0.000113525
3.07642e-05
0.000104702
-0.000299451
-2.55109e-05
0.000213422
0.000111541
0.000289919
-0.00023138
-0.00017783
0.000119291
-3.14464e-05
0.000532985
-0.000266337
-0.000235202
1.89354e-05
0.000118239
-7.65417e-05
0.000108314
-0.000102912
1.35333e-05
-2.41503e-06
-4.80618e-06
2.07967e-06
-0.000205425
0.000265729
-0.000328113
0.000267809
0.000460208
-0.000443123
3.88031e-05
5.68199e-05
-0.000540216
0.000483396
1.83049e-05
-0.000219476
0.000201171
3.28653e-05
-0.000344431
0.000311565
9.92386e-05
-0.000110176
2.26554e-05
-0.000392075
1.84154e-05
6.49109e-06
4.00416e-06
-2.89106e-05
-7.33241e-05
6.5244e-05
-0.000990853
0.000998933
-0.000184605
-0.000500943
0.000550186
0.000135361
0.00120922
-0.00053631
-0.000914279
0.000241372
-0.000668919
0.00119295
-0.000905234
0.000381205
-9.4555e-05
0.000118347
-4.17602e-05
8.18282e-05
-0.000119393
3.23694e-05
-0.000573952
-7.22256e-05
0.000270606
0.000375572
-3.27877e-05
-0.000189057
4.17354e-05
-2.37111e-05
-0.000118143
2.71303e-05
1.72434e-05
5.90092e-05
-4.70519e-05
-2.92008e-05
-0.000251176
0.000151313
9.9863e-05
8.43322e-05
-6.03661e-05
-2.39661e-05
0.000118154
-4.35458e-05
-3.69873e-05
0.000103978
-0.000301885
0.000258659
-6.07531e-05
-0.000174351
-3.35454e-05
-1.91256e-05
-1.3031e-05
3.17985e-05
3.58055e-07
-0.0006254
4.94859e-05
-0.000128483
0.000704397
-1.62554e-05
-6.15709e-06
1.06695e-05
1.1743e-05
6.54822e-05
9.40188e-05
-7.46861e-05
-8.48149e-05
-0.000169048
0.000210171
0.000105059
3.01999e-05
-0.00107368
0.00109963
-5.61469e-05
3.33694e-05
0.000499649
-0.000292618
3.32441e-05
0.000428325
-8.56398e-06
-0.000413204
-9.54816e-07
0.00040279
1.13683e-05
-0.000132739
0.0001851
-3.01751e-05
-2.21863e-05
0.000134705
6.84136e-05
-0.000112811
-9.03078e-05
4.39859e-05
3.44057e-05
-1.06491e-05
-0.000483172
-9.02185e-05
0.000465386
0.000108005
1.12903e-05
-2.89916e-05
-9.53797e-05
-0.000332177
0.000220087
0.00024801
-0.000278154
0.000161791
-0.000145348
-0.000342716
8.582e-06
0.000336105
-1.97068e-06
-0.000375436
-1.35183e-05
0.000381465
7.48938e-06
-2.64896e-06
0.000329507
-0.000320891
-5.96713e-06
1.05364e-05
0.000530645
-0.00051808
-2.31011e-05
-0.00015097
0.000443193
-0.000375922
-0.000364257
0.000229424
3.11869e-05
0.000103646
-0.000306934
0.000183959
7.70297e-05
4.59457e-05
-0.000123454
8.62663e-05
-2.75564e-05
6.47444e-05
0.000405186
-0.00035992
-4.37516e-05
-1.51444e-06
-0.000970162
6.51434e-05
0.00096974
-6.47212e-05
-0.000148014
0.000562501
-0.000635907
0.000221419
0.000208239
-0.000229955
-0.000114374
0.00013609
-5.49069e-05
-7.69493e-05
0.000323446
-0.00019159
0.00026435
-0.00031315
3.5907e-05
1.28928e-05
2.63334e-05
6.53312e-05
-1.22731e-05
-7.93914e-05
8.4533e-05
-0.000165597
0.000249154
-0.000580064
0.000581179
2.9541e-05
-4.33411e-05
8.0142e-05
0.000349355
-0.000224217
-0.000156584
-0.000148702
-0.000382338
0.000237217
0.000293823
4.87806e-05
-2.10192e-05
0.00025094
-0.000278702
-9.57008e-05
-3.46752e-05
-2.3631e-06
0.000342007
-0.000163065
-0.000351975
6.87611e-06
1.05163e-05
0.000773443
-0.000500805
1.04896e-05
1.4171e-05
6.87989e-05
-7.37675e-05
6.63898e-05
-6.14212e-05
0.000300799
-0.000631428
-0.000467672
9.92393e-06
7.34103e-05
-1.33345e-05
-0.000427084
0.000472487
0.00101328
-0.00105868
0.000842859
-0.000171397
-4.54256e-05
-0.000626036
-0.000120344
0.000106673
-9.37006e-05
-0.000308311
0.000197194
0.000371288
6.24005e-05
9.41262e-05
-0.000131512
-2.80792e-05
-8.78022e-05
5.62211e-05
6.55939e-07
-0.000118838
0.000102599
1.55829e-05
0.000105145
-0.000437047
0.000467715
-0.000135813
-0.00021262
0.000207975
0.000209013
5.65095e-05
0.000487015
5.12342e-05
-6.68358e-05
3.41486e-05
-1.85469e-05
7.0113e-05
3.8497e-05
-3.63917e-05
0.000107832
-0.000125143
0.0001854
-0.000168088
-8.36354e-05
-4.79552e-05
0.000471413
0.000153658
5.67945e-05
-9.90002e-05
5.6493e-05
3.02732e-06
-1.36197e-05
0.000135807
-6.23502e-05
0.000108276
-8.58347e-05
-3.63997e-05
1.04149e-05
-2.09632e-05
0.000105779
2.21842e-05
6.09861e-05
0.000336502
2.57464e-05
-0.000471464
-5.37737e-06
8.78129e-06
-3.00672e-05
9.39005e-05
-3.03556e-05
-0.00028192
0.000237411
-4.17748e-05
-8.5552e-05
-0.000324766
4.87689e-05
2.6172e-05
7.35094e-05
-8.47978e-05
-2.13411e-05
-2.41017e-05
-1.02195e-05
-5.19787e-06
9.37033e-05
0.000228633
9.37213e-05
6.30706e-05
0.000287826
0.000136748
2.1303e-05
-0.000149269
-1.62821e-05
2.18896e-05
-8.91058e-05
-0.000152934
0.000110873
0.000469307
-0.000501612
1.87118e-05
1.35934e-05
-2.96084e-06
0.000560611
-0.000420438
1.0194e-05
9.75941e-05
-7.91805e-05
-0.000211094
0.000374328
6.43148e-05
-0.000227549
6.11489e-06
-6.04667e-05
0.000287509
0.000572865
9.16019e-07
-5.73188e-06
-0.000153614
0.000190848
-0.000184255
0.000147021
-6.42628e-05
4.70005e-06
5.92985e-05
2.64204e-07
-0.000523205
-0.000120162
0.000432274
-9.82495e-05
6.41437e-05
6.10304e-05
-2.69246e-05
-5.86167e-05
-0.000297878
0.000157394
0.000199101
2.54667e-05
-7.85955e-05
-8.70662e-06
9.21677e-05
-0.000195191
0.000127712
-0.00054475
0.000970804
-2.15971e-05
1.07109e-05
-7.81256e-06
-2.66924e-05
9.95033e-05
-8.69227e-05
1.41118e-05
0.000220576
-0.000782785
0.000540809
2.13991e-05
-0.000164004
-0.000127064
0.000137453
-0.00062549
0.00103189
-0.000735329
0.000328927
8.53758e-05
-0.00013047
-0.000156811
9.83852e-05
-0.000102606
-0.000142085
7.39474e-05
-8.48402e-05
-0.000123366
-0.00028877
0.000253394
9.94866e-05
0.000388734
1.28856e-05
-0.000252672
-0.000148948
0.000114485
2.72964e-05
-0.000103335
-3.84461e-05
2.91891e-05
-0.000126293
6.93661e-08
-0.000119996
9.59359e-05
0.000143133
-1.01449e-05
7.89527e-06
9.36747e-05
-9.14251e-05
2.77623e-06
1.91512e-05
-6.84801e-05
4.65527e-05
0.00028395
0.000387201
0.000127083
-0.000250486
0.000116174
0.000234978
-0.000100666
-5.77691e-05
-5.44152e-05
0.00011677
-0.000496494
0.000295254
9.15551e-05
0.00133354
8.72811e-05
-0.00129102
-0.000129802
-1.20886e-05
-4.03402e-06
-8.46687e-06
-0.000587508
0.00017353
0.000518298
-0.00010432
0.000100481
0.000181585
-0.000122788
-0.000159278
7.88306e-05
-0.00025862
0.000145301
3.44878e-05
0.000103069
-0.0002067
0.000106359
-2.72758e-06
-0.000262387
0.000828755
3.58224e-05
-0.000602191
-0.000162464
0.000430473
3.35623e-05
-0.000301571
0.00039581
1.93393e-05
5.30913e-05
-0.000468241
-6.04239e-05
-1.24673e-05
8.69009e-05
-1.40097e-05
4.63853e-05
0.000130907
-7.7255e-05
0.000191906
0.000213725
0.000119593
0.000116974
0.000563659
8.31206e-05
0.000367281
6.11364e-05
0.000286844
-9.36266e-06
0.000222329
-1.13245e-05
-0.000201642
0.000254929
-0.000222998
0.000158917
-0.000227826
0.000313202
-0.000220542
0.000318927
-0.000189513
0.00026346
-6.05689e-05
1.74786e-05
-2.21472e-05
-1.13978e-05
-0.000217712
0.000240442
-1.13327e-05
-3.28472e-06
-0.000173383
0.000193379
-1.67113e-05
0.000213862
0.000496042
-0.000365279
0.0009691
5.99549e-05
-0.00101694
-1.2111e-05
-5.64874e-05
0.000145341
2.93009e-05
0.000138357
-0.000274073
-8.00104e-05
0.000215726
0.000440286
-0.000277658
0.000371919
-0.000338563
9.72794e-05
7.06231e-06
-0.000127984
-0.000106547
-0.000113422
-0.000954029
0.0009262
-0.000399255
-3.93203e-05
-3.52691e-05
9.24797e-05
-0.000396364
-9.49285e-05
0.000398813
-4.52701e-05
0.000431586
9.43761e-06
-0.000395754
-4.14746e-05
0.000351875
8.75467e-06
-0.000319155
1.18126e-05
-1.07621e-05
-9.9612e-07
-5.43317e-08
0.000282247
-0.000246864
0.000172464
-0.000207847
2.54671e-05
-0.000109662
0.000119532
-3.53368e-05
-4.97733e-05
0.000158049
-0.000213004
0.000246762
-7.96289e-05
4.58714e-05
-0.000246582
-6.79882e-05
0.000198825
0.000115746
-0.000132759
0.00017087
-7.00788e-05
3.19676e-05
0.000367248
8.2094e-06
-3.35063e-06
-0.000372107
3.18865e-06
5.80826e-05
-4.40279e-05
0.000622554
-4.05796e-05
2.76005e-05
-0.000609575
-8.48628e-06
0.000277371
-9.66838e-05
-0.000172201
-0.000299064
-1.66066e-05
-2.35571e-05
0.000339228
-0.000453874
-8.97825e-07
-5.92974e-05
0.000514069
-0.000147242
2.38451e-05
0.000161063
-3.7666e-05
-0.000285202
0.000100394
0.000264583
-7.97751e-05
-0.000170071
-1.96613e-05
0.00014126
4.84717e-05
-1.44235e-05
2.32792e-05
-1.36619e-05
0.000759264
7.90148e-05
-3.71841e-05
-5.64364e-05
3.21159e-05
-5.7224e-05
-0.00124998
-0.000157491
0.00122712
0.000180351
0.000258578
0.000468409
-0.000407994
-0.000318993
0.000244557
-0.000113402
-0.000205245
7.4089e-05
0.000117075
-0.000201715
0.000241006
-0.000156366
5.70338e-05
-5.38451e-05
-9.42125e-05
5.42226e-05
-0.000698298
0.000738287
0.000123919
-9.74565e-05
3.11611e-05
-5.76236e-05
-0.000424616
0.000416125
4.80788e-06
3.68355e-06
0.000153337
-0.000355976
0.000447675
-0.000245035
0.00017557
-0.000146245
3.94737e-05
0.00098618
-0.000866935
0.000131429
-0.000250675
-0.000274902
-0.000246769
0.000277269
-0.000104349
-0.000173287
0.00015124
0.000126396
-0.0002865
-3.60526e-05
3.73509e-05
-0.000336955
0.000222568
-5.5684e-05
-0.000135638
-1.53306e-05
3.72653e-06
0.000430316
-0.000400424
-0.000205795
0.000175902
-4.07785e-06
-0.000434543
0.000434781
3.84026e-06
-0.000201902
2.29409e-05
0.000335805
-0.000373408
0.000362576
0.00112127
-1.546e-05
2.76666e-05
-7.81656e-05
0.000126063
0.000462601
-0.000510499
-3.9817e-05
0.000113326
8.00155e-05
-0.0001652
0.000114725
0.00014734
-0.000294492
0.000231686
-0.00028038
0.000112533
-1.15289e-05
-0.000289667
-0.000203332
0.00047246
4.4257e-05
0.00024426
1.07379e-06
-0.000144853
-2.39212e-05
5.05002e-05
0.000200598
0.000154993
-0.000122957
-0.000187004
-0.000112318
0.000135318
-7.42731e-06
1.36123e-05
-1.04166e-05
4.23167e-06
-0.000714984
-9.73019e-05
0.000224778
0.000521459
-0.00054364
-3.54762e-05
5.76579e-05
-7.34644e-05
-0.000893285
1.79501e-05
0.000948799
-7.19134e-05
-0.00100566
0.00103416
4.3419e-05
-4.01381e-05
2.43653e-05
8.58858e-05
-9.02373e-05
-0.000166577
0.000200327
0.000201855
0.000166773
-0.00023432
-0.000134308
0.000136591
4.0752e-05
-0.000132467
-4.48768e-05
-0.00081736
-0.000281992
-0.000186006
-0.00011973
4.8641e-05
0.000257095
7.69644e-05
1.53707e-05
-8.48674e-05
-7.46776e-06
-0.000140185
2.70892e-06
-4.3322e-05
-5.2621e-05
2.42244e-07
-0.000510276
0.00037638
0.000354473
8.22078e-05
-6.89011e-05
-2.66793e-05
1.33726e-05
1.58409e-05
6.96662e-05
-7.4997e-05
-1.05102e-05
-2.30822e-06
0.000379101
-3.09917e-08
-0.000376761
7.02029e-05
0.00034381
-3.35917e-05
-0.000380422
1.65869e-05
5.18044e-05
1.38165e-05
3.32616e-05
-0.00108089
0.00108111
-3.34808e-05
0.000312672
-0.00165803
-1.45664e-07
0.00134551
0.000228494
0.000105306
-0.000127268
-0.000206532
0.000289927
1.78531e-05
-4.94638e-05
-0.000258317
0.000516113
-0.000173335
9.88422e-05
0.000264582
-0.000124902
-0.000290651
-5.2844e-05
-5.93317e-05
4.3516e-05
6.86596e-05
-0.000240712
0.000250144
-2.41501e-05
1.47181e-05
4.30888e-05
-2.04277e-05
-0.000183553
0.000160892
-0.00076665
0.000189628
0.000512489
6.45333e-05
0.000196694
-3.72358e-05
8.45779e-05
-0.000244036
0.000176241
-2.07434e-05
3.86891e-05
-0.000194186
0.000212365
1.15717e-05
4.0919e-05
-0.000264856
-5.09012e-06
-7.11213e-05
7.62114e-05
0.000328156
-0.00126547
-8.84983e-05
0.000103291
0.00018637
-0.000201163
-7.64416e-05
-0.000452563
5.79974e-06
-4.73145e-05
5.23274e-05
2.05678e-05
-2.55807e-05
0.00104133
-0.00146575
0.000182791
0.000241625
0.000458159
9.90684e-06
1.28921e-05
-0.000480958
-5.54257e-05
2.98751e-05
-3.08858e-05
7.65248e-05
0.000105369
-0.00090871
0.000726816
-2.81636e-05
-0.000115761
0.000162893
-1.89687e-05
3.59204e-05
0.000184195
-0.000257655
3.75392e-05
-4.37877e-05
-0.000135535
0.000190649
-1.1327e-05
0.0005645
-0.000381481
8.33886e-05
0.000144047
-0.000119604
3.37794e-05
5.02224e-05
-3.27676e-05
0.000836414
-0.000571841
5.49292e-05
-0.000319502
-0.000134923
0.000254127
8.26501e-05
-6.97736e-05
7.46074e-05
-3.16133e-05
-0.00021376
3.38288e-05
0.000211544
0.000338899
3.82395e-05
-0.000287547
-8.95925e-05
1.78751e-05
-3.41742e-05
-0.000116527
0.000132826
-0.000205707
0.000258632
-0.000101226
-0.000306108
7.14144e-06
0.000234075
-1.97448e-05
-0.000221472
2.33738e-05
9.2105e-05
8.11055e-05
-5.59338e-05
0.000187194
3.64555e-06
-2.07401e-06
0.000174669
3.6603e-05
-1.85411e-05
0.000178632
5.3948e-05
-0.000141729
0.000106006
-1.82254e-05
0.00120329
-0.00121342
-0.000257148
9.55848e-05
-0.000534314
0.000182992
0.0004553
0.000283495
-0.000279616
-3.84195e-05
0.00028673
-0.000177143
0.000454913
0.000208252
9.42345e-05
-0.000191462
5.58311e-05
1.05386e-05
-0.000124023
5.7653e-05
0.000236099
-0.000220164
-0.000280033
0.000264098
0.000142882
-0.000174496
2.11582e-05
-6.53982e-05
5.67692e-05
-1.25292e-05
0.000704359
9.73032e-05
-4.23989e-05
4.59022e-05
0.000115374
-0.000409615
0.000420152
-0.000220002
0.000217353
-0.000123685
-2.43287e-05
-0.00113061
0.00113385
9.85203e-05
-0.000101754
8.8076e-05
0.000686615
0.000236138
-0.000249942
-0.000192173
-0.000194911
0.000340509
-0.00012098
0.000302039
-0.000427901
-9.48483e-05
0.00022071
-0.000463266
0.000165085
-3.75057e-05
0.000335687
-0.000171281
0.000238083
-0.000329687
0.000262885
-4.44106e-05
-4.86656e-05
-0.00105661
0.00114968
-0.000127653
0.000356578
0.000760648
0.000170365
-0.000813187
-0.000117827
2.4437e-05
-2.89215e-05
-5.60843e-05
0.000384468
-0.000370295
4.69643e-05
0.000382369
-0.000423734
0.000124485
0.000679747
-0.000634776
7.20039e-05
1.67174e-05
7.1108e-05
-1.0861e-05
-0.000249083
4.97726e-06
0.000251247
0.000105386
-7.86867e-05
5.78598e-05
-8.45593e-05
0.000401446
-0.00034929
-6.2998e-05
1.0842e-05
0.000368606
-0.000314771
6.50256e-06
-6.03381e-05
0.000342256
0.00164466
-0.00126808
-0.000718844
-1.29839e-05
7.58736e-06
-7.36126e-05
7.90092e-05
-0.000993403
-0.000637628
0.00105505
0.000575983
1.40579e-05
-2.91585e-05
-3.41847e-05
4.92853e-05
7.14751e-05
-0.00018635
-0.000224034
0.000338909
-7.50615e-05
9.29999e-05
6.55127e-05
-8.34511e-05
0.000112115
-3.9859e-05
0.000632104
0.000322075
-0.000446601
0.000179714
0.00037714
-0.000576948
0.000293341
1.97663e-05
6.55764e-05
7.63443e-06
-1.8677e-05
9.72341e-05
-8.61916e-05
0.000456266
-3.76546e-05
0.00014389
2.2849e-07
-1.25941e-06
1.46704e-06
-0.000254941
-9.35145e-05
0.000189737
0.000158719
0.000293927
0.000647962
-0.00047348
-0.000347154
-0.0002818
0.000444349
0.000455453
-0.000433764
-1.05067e-05
-1.1182e-05
0.000248722
7.39136e-05
-0.000141051
1.19914e-05
-8.66239e-06
6.61549e-06
-1.53946e-05
-1.69789e-05
-1.22857e-05
-5.17448e-05
0.000108043
0.00034803
-0.000399394
5.13636e-05
-0.000476523
0.000321542
-0.0014589
0.00161388
-7.98327e-05
6.69586e-05
0.000107088
-9.42137e-05
0.000187225
4.52359e-05
-9.06482e-05
-0.000141813
-0.000487559
-8.85089e-05
0.00064811
-7.20429e-05
0.000224098
-0.000176261
-0.000373824
-4.72102e-05
-1.64352e-05
-8.5624e-05
0.000189145
-0.000141604
0.000139684
-1.18809e-05
-0.000238378
9.54711e-06
-0.000103638
0.000127737
0.000109351
-0.000133449
0.000234599
-0.000128343
-0.000109498
3.243e-06
0.000224371
-7.54403e-05
0.000140989
6.34902e-05
9.34231e-06
-5.53539e-05
1.91865e-05
-8.64978e-05
0.000116044
-4.87332e-05
-1.05954e-05
-0.000166189
0.000215235
-3.84497e-05
8.3667e-05
-3.84311e-05
0.000167654
-0.000105194
0.000166035
0.000103799
-2.5402e-05
0.000211531
-0.000109625
0.000431065
0.000108876
-0.000496696
-0.000484802
0.000687979
0.000293519
0.000822587
-0.00104118
0.000356465
-0.000137873
-2.16287e-05
0.000414374
-0.000397407
4.66169e-06
-3.54673e-05
0.00020916
-0.00026383
9.01378e-05
0.000182188
-0.000140961
-9.91394e-05
5.79116e-05
-0.00144651
0.00125645
-0.000299983
0.000490035
0.000275288
-0.000230357
-9.85569e-05
5.36259e-05
1.37454e-05
0.000428858
-0.000431274
-1.13295e-05
-0.000345236
2.15378e-05
6.22451e-05
-0.000527417
0.00053805
-7.28778e-05
8.32949e-05
-0.000333486
0.000326701
-7.65103e-05
-0.000102908
-0.000749844
0.000852752
-3.07796e-05
-1.7855e-05
-4.98992e-05
9.85338e-05
2.40703e-05
-3.7607e-05
2.37826e-05
-1.02459e-05
-0.000123619
0.000132715
1.67839e-05
-2.58792e-05
6.03198e-05
0.000205668
-0.000222899
-6.74876e-05
0.000164773
-0.000185783
8.54242e-06
-1.64018e-05
1.7992e-05
-1.01326e-05
-1.8622e-05
-1.47682e-05
2.4656e-05
8.73413e-06
-9.89083e-06
-5.31398e-06
0.000293276
-0.000278071
0.00123529
-0.00125909
-8.38666e-05
0.000107664
-7.74549e-05
1.03671e-05
-2.94764e-05
2.90187e-05
4.5772e-07
0.000249674
0.000211275
-0.000238651
-0.000222297
-5.48249e-05
-5.62772e-05
4.99698e-05
6.11323e-05
-8.11974e-05
0.000127482
-0.000446708
4.94916e-06
8.61195e-06
-0.000149199
-2.24837e-05
3.96068e-06
-0.000318432
9.95601e-07
2.2833e-05
-0.000310329
0.000338552
2.52171e-05
-3.42622e-05
0.000541018
4.84705e-05
-5.88441e-05
-0.00034251
2.12163e-05
-2.14222e-05
-0.000327842
-6.10258e-05
1.34319e-05
-0.000472699
-0.000204874
0.000194401
-0.000862895
-0.000132684
0.00022132
-0.000263905
5.90614e-05
-4.56422e-05
-0.000107229
-0.00125116
0.00127287
-7.25307e-05
7.261e-05
-0.000251255
-2.10601e-05
-4.50122e-05
0.000150404
0.000366622
-0.000100004
-0.000308093
0.000500298
-0.000121794
-0.000423775
-0.000109997
8.96839e-05
-6.60844e-05
8.63973e-05
8.05552e-05
0.000465235
-9.03371e-05
0.000131774
-0.000139005
6.74103e-05
-6.01797e-05
3.92987e-05
-1.22397e-05
-0.000185605
0.000158546
-5.31754e-05
6.24601e-05
0.000130693
-0.000311534
0.000165948
0.000400515
-2.21445e-05
-1.46036e-05
1.51719e-05
2.15762e-05
0.000227585
-0.000158575
0.000221917
-0.000290928
-0.000321937
-8.56987e-05
6.24e-05
-3.66403e-05
-4.21396e-06
1.27752e-05
-0.000201445
-0.000103574
0.000118016
0.00016995
-2.59694e-05
4.11198e-05
2.08583e-05
-7.65469e-05
7.86124e-05
-2.29238e-05
1.57478e-05
-0.000118304
-0.000131426
0.000233982
0.000401316
0.000251755
-0.00052455
-0.000128521
0.000225935
-0.000555687
-0.000166944
0.000227019
0.000185263
-0.000346327
-6.59555e-05
-0.000508942
0.000420683
8.16352e-05
6.62356e-06
8.33298e-05
0.000241813
-0.00109179
0.000160877
-0.000126894
-8.11931e-05
0.000215174
-3.12507e-05
-0.000182928
7.68793e-05
-5.97416e-06
-6.5956e-05
0.000900453
-2.30913e-05
-0.000767131
-0.000110231
-4.37137e-05
-9.72864e-06
-6.7525e-05
-8.87942e-05
-6.0414e-06
-6.50799e-05
-0.000115198
0.00113338
0.00017477
-3.94128e-05
3.20003e-05
6.13605e-05
-0.000124793
9.72624e-05
0.00010768
-8.01494e-05
0.000279496
-0.000313741
0.000406737
-0.000372492
-1.90818e-05
0.000441814
1.52068e-05
-0.000437939
0.000161561
-0.000148772
-9.52802e-05
8.24908e-05
-0.000345527
-2.19586e-05
0.000132729
0.000234756
-0.00111906
0.00109714
0.000127293
-0.000527889
0.000475331
-0.000358797
0.000286752
-4.86328e-05
7.88483e-05
-6.68559e-05
0.000100358
-3.68627e-05
0.000860448
-0.00102818
-0.000263032
0.000430768
-0.000222813
-0.000991401
0.00119307
2.11391e-05
-0.0012148
0.00122895
-0.000121384
-0.000477281
0.000417177
0.000341381
-0.000281278
-0.000575831
0.000578952
-0.000585502
0.000582381
-0.000225049
6.62529e-05
-7.25839e-05
-0.000418558
0.000626857
-0.000693101
0.000152214
-1.5992e-05
-0.000207275
-0.000180778
0.000172293
0.00021576
-6.41787e-05
8.46946e-05
3.09144e-05
-2.11881e-05
-0.000273631
-0.000941707