/*--------------------------------*- C++ -*----------------------------------*\
| =========                 |                                                 |
| \\      /  F ield         | OpenFOAM: The Open Source CFD Toolbox           |
|  \\    /   O peration     | Version:  v1912                                 |
|   \\  /    A nd           | Website:  www.openfoam.com                      |
|    \\/     M anipulation  |                                                 |
\*---------------------------------------------------------------------------*/
FoamFile
{
    version     2.0;
    format      ascii;
    class       surfaceScalarField;
    location    "0.85";
    object      phi;
}
// * * * * * * * * * * * * * * * * * * * * * * * * * * * * * * * * * * * * * //

dimensions      [0 3 -1 0 0 0 0];
oriented        oriented;


internalField   nonuniform List<scalar> 
11117
(
1.41634e-05
-3.70944e-05
-3.1206e-06
2.60516e-05
-3.18802e-05
3.38037e-06
1.53788e-05
1.31211e-05
-4.12284e-05
5.19405e-05
-0.000160997
0.000150285
-0.00051368
1.5071e-05
0.000206844
0.000291764
0.000167079
0.000239354
-0.000189079
-0.000217355
2.38333e-05
-2.26249e-06
0.000178019
-0.00019959
-0.000476947
-5.06192e-05
0.000380324
0.000147242
-9.93597e-05
9.79997e-06
4.23591e-05
4.72006e-05
0.00123603
0.000235869
-0.000912664
-0.000559234
-1.18362e-05
1.62441e-05
-9.30688e-06
4.89897e-06
-0.000875174
0.000946373
0.000303187
-0.000374386
-0.000329015
-0.000214621
0.000261172
0.000282465
-0.000472304
-0.000219968
0.000291003
0.000401268
0.000767857
-0.000994077
0.000486095
-0.000259875
2.06943e-05
-2.73509e-05
1.81467e-05
-1.14901e-05
0.000100112
-3.82387e-06
2.27104e-05
-0.000118999
-0.000133999
0.000227173
-1.92882e-05
-7.38862e-05
-0.000664665
0.000699293
0.000695466
-0.000730094
1.04404e-05
8.15584e-06
2.09803e-06
-5.37474e-06
4.65464e-06
2.89096e-05
-2.81895e-05
-0.00032685
0.000184506
6.1723e-05
8.06216e-05
2.01671e-05
-6.05916e-06
-9.01344e-05
7.60264e-05
0.000463351
0.000353901
-0.000242526
-0.000574726
9.63425e-05
0.000105776
-5.4809e-05
-0.00014731
0.000305383
0.000197736
-0.000356552
-0.000146567
0.000929329
-0.000961199
0.000296354
-0.000264484
0.000281167
-0.000347178
0.000753318
-0.000687307
-0.00020124
0.000258193
-0.000272697
0.000215744
0.000130805
-4.11955e-05
0.00100204
-0.00109165
6.07035e-06
-9.07939e-06
9.32462e-06
-6.31558e-06
-0.000124358
0.00010297
0.000120335
-9.89472e-05
-0.000108903
-0.000363578
0.000341081
0.0001314
-0.000119046
-0.00044985
0.000379124
0.000189771
-2.43158e-05
7.44323e-05
-4.3519e-05
-6.59758e-06
-0.000129213
6.45232e-05
-3.0191e-05
9.48805e-05
-0.000132085
6.28065e-05
-2.2919e-05
9.21973e-05
0.000602169
-0.000825474
0.00100582
-0.000782515
0.000288811
-0.000460729
-8.34222e-05
0.00025534
0.000496009
-0.000121244
-0.00066192
0.000287155
0.000194415
0.000318135
-0.000413146
-9.9403e-05
0.000159004
0.000254578
-0.000291309
-0.000122272
-3.07852e-05
0.000209757
-0.000250592
7.16201e-05
0.00100745
0.000886097
-0.000889825
-0.00100372
0.000253929
1.46128e-05
-2.23156e-05
-0.000246226
3.09552e-05
1.71522e-05
-3.7667e-05
-0.000937953
0.000743381
-0.000225364
0.000419936
-0.000700743
0.000537411
-0.000156314
0.000319647
0.0002267
-0.000319812
0.000192453
-9.93408e-05
7.46945e-06
-1.70037e-05
1.50675e-05
-5.5333e-06
-5.20767e-05
0.000149035
-9.69579e-05
-4.86356e-06
-1.29492e-05
1.78128e-05
-0.00033591
-0.00113848
0.000512824
0.000961562
1.46747e-05
-2.97424e-05
-1.80188e-05
3.30866e-05
5.78648e-05
-5.97698e-05
1.60877e-06
2.96255e-07
1.05811e-05
-1.05811e-05
0.000419682
0.000176689
-0.000550511
-4.58601e-05
0.000294718
0.000131639
-0.000390587
-3.57699e-05
-0.000149623
-7.77482e-05
0.000209771
1.76001e-05
0.000883889
0.000114761
-0.00136439
0.000365738
-0.000408873
0.000782794
0.000555409
0.000850602
-0.000865172
4.15871e-05
-2.70162e-05
0.000119915
-6.02983e-05
-5.67821e-05
-2.83488e-06
-0.000130427
-0.000116812
0.000122882
6.57824e-05
-4.13256e-05
-0.00013336
0.000116608
-3.85765e-05
-0.000197077
-2.65772e-05
-0.000116509
9.54648e-05
4.76214e-05
0.000138078
-0.000144248
6.30791e-05
-5.69097e-05
-1.58836e-07
-0.00032528
0.000325439
-0.000680358
-0.000381388
0.000538501
0.000523245
1.50975e-05
4.57369e-05
-4.60932e-06
-5.62251e-05
0.000467638
-0.000138376
-0.000665172
-0.000222812
0.000200209
0.000160682
-0.000274819
-0.00124921
0.00129119
0.000232844
-8.99575e-05
0.000249152
-0.000189549
3.03548e-05
-0.000750659
-0.000594363
-0.000113043
4.23047e-05
0.000196396
-0.000125658
7.25084e-07
-1.98442e-05
1.91191e-05
-0.00093434
-0.000166377
0.000139518
0.000253745
3.93116e-05
-3.91278e-05
1.13334e-05
1.50946e-05
-2.6428e-05
-7.94512e-05
-3.8923e-05
9.73478e-06
0.000108639
-1.75675e-05
9.24696e-07
4.36986e-07
1.62058e-05
0.000127085
-0.000108183
0.000137557
-0.000156459
-0.000273498
0.000246846
0.000259858
-0.000233206
-0.000204076
3.83828e-05
0.00024076
-7.50663e-05
5.80592e-05
-0.000502425
0.000444366
-1.75875e-05
-0.000533329
0.000550917
3.19194e-05
-0.000483585
0.000451666
2.35638e-05
1.36252e-05
7.66352e-05
-0.000113824
-4.21934e-05
7.49001e-05
0.000272248
-0.000304955
0.000527392
-0.00015651
7.92675e-05
-0.000450149
0.000657023
4.99884e-05
-4.96819e-05
-0.00065733
0.000725481
-4.81598e-05
5.55332e-05
-0.000732855
-0.000695846
3.86053e-05
-2.72973e-05
0.000684538
-0.000633577
5.43578e-05
-2.58142e-05
0.000605033
-4.02618e-07
0.000224186
-0.00032539
0.000101607
0.000590021
2.24886e-05
-2.26494e-05
-0.000589861
0.000690771
4.54496e-05
-3.0745e-05
-0.000705475
0.000624656
4.83658e-05
-2.57588e-05
-0.000647263
0.000821067
5.88215e-05
-2.92865e-05
0.000377981
7.69725e-05
-0.000406966
-4.79874e-05
-0.000239586
0.000174504
7.36749e-05
-8.59274e-06
0.000308271
-0.000381052
-0.00117157
0.00124435
0.000732676
0.000348641
-0.000756943
-0.000324374
-1.20746e-05
2.0258e-05
-1.10797e-05
2.8963e-06
-0.000869372
0.000250041
0.000778588
-0.000159257
1.58359e-05
-4.8806e-05
9.23295e-05
-5.93595e-05
1.62463e-05
1.17964e-06
2.47449e-05
-4.21709e-05
-0.00024392
3.61491e-06
0.000101577
0.000138728
0.000231706
-5.56674e-05
7.77067e-05
-7.99492e-05
4.93074e-05
7.91352e-05
-4.84935e-05
-1.38478e-05
4.8161e-05
-3.60585e-07
-3.39526e-05
-0.000414588
0.000345089
-0.000156956
0.000226455
-1.66108e-05
2.03428e-05
5.18535e-06
-8.91728e-06
0.000101598
0.000550142
-0.000629264
-2.24762e-05
0.000123484
0.000642212
-0.000726079
-3.96179e-05
-1.03706e-05
-9.75516e-06
2.14566e-05
-1.33085e-06
-0.000538996
0.000499402
0.000901693
-0.000862099
3.47247e-05
-1.95104e-05
-0.000880387
-0.00103796
8.39485e-05
0.000958521
-4.5081e-06
0.000982533
-0.00069835
-0.000823179
7.49875e-05
-6.47519e-05
-1.02355e-05
0.000151144
-0.000121568
0.0001803
-0.000209876
-0.000165778
-0.000148506
-2.57607e-05
-1.84465e-05
1.39481e-05
3.02591e-05
-0.000355197
0.000407337
0.000625948
-0.000678088
-0.000444985
0.000658445
-0.000500253
0.000286792
5.72256e-07
-0.000155797
0.000152529
2.69565e-06
0.000557906
-0.000822862
-0.00011146
0.000376416
4.52991e-05
-5.26388e-06
4.71324e-06
-4.47484e-05
7.47663e-05
6.5e-05
-0.000129345
-1.04214e-05
0.000167715
-1.52889e-05
-0.000180175
2.77493e-05
0.000148085
-9.1328e-05
-6.82519e-05
1.14946e-05
-0.000885225
0.000109062
-0.000158177
-0.000329494
0.000291524
-0.000685092
0.000723062
2.0822e-05
-1.93576e-05
-2.88152e-05
-0.000418865
3.80924e-05
9.11274e-06
0.00037166
3.48522e-05
0.000101049
-1.59864e-05
-0.000111443
1.31903e-06
0.000120234
-1.01097e-05
5.02467e-05
-6.97077e-06
-4.94374e-05
6.16151e-06
-0.00021531
0.000133679
9.56877e-05
-1.40563e-05
7.2908e-05
-0.000330607
0.00036541
-0.000107711
4.85573e-05
-3.99639e-05
-1.3508e-05
4.91463e-06
0.000440572
-0.000211012
-0.000227864
-1.69603e-06
-9.77083e-05
9.65449e-05
-4.73521e-05
4.85155e-05
3.57878e-06
0.000323173
-0.000155749
-0.000171002
0.000299669
-0.000150404
1.87926e-06
-0.000435419
0.000975668
-0.00055949
1.92397e-05
9.80101e-05
0.00018847
-0.00013366
-0.00015282
-0.000118489
0.000230011
2.17418e-05
-0.000133264
0.000929245
0.00044938
-0.000613827
-0.000764798
-1.22275e-05
1.19601e-05
-4.31957e-05
4.34631e-05
-0.000475378
-5.87946e-05
-0.000335199
0.000125844
-0.000203729
-8.87105e-05
0.000166595
-0.000449598
-0.000386225
0.000505426
0.000330398
0.000741686
-0.000165934
-0.000575752
0.000222511
0.000125422
7.69038e-05
-0.000202325
0.000955998
-0.000230475
-0.000725523
8.47349e-05
1.38065e-05
-8.43292e-06
-5.37359e-06
-7.43948e-05
0.000236765
-0.000162371
1.32987e-05
9.56651e-06
-2.28652e-05
-3.77972e-05
0.000280325
-0.000242527
-0.000481013
0.000546194
-6.51815e-05
-0.000486835
0.000481415
5.41949e-06
-0.000198075
-2.39482e-05
0.000222023
-1.67975e-06
-8.11619e-05
8.28417e-05
-3.9919e-05
-4.00302e-05
-4.29352e-06
-9.55429e-06
-1.12442e-05
6.75528e-06
4.48895e-06
0.000210871
0.000196511
-0.000407381
0.000118795
-0.000147356
2.85609e-05
0.000103455
-0.000144073
4.06177e-05
8.9321e-05
-8.46817e-05
-4.63929e-06
-0.000488291
0.000582651
-9.43609e-05
9.89833e-06
-7.33929e-06
-2.55904e-06
-0.00033078
0.000387299
-5.6519e-05
-7.47552e-05
4.73252e-05
2.743e-05
0.000928421
-0.00101411
8.56877e-05
-0.000121694
0.000161836
-4.01424e-05
-0.000131814
0.000209022
-7.72084e-05
0.000242356
-0.000232415
-9.94112e-06
-0.000272162
0.000316475
-4.43133e-05
-7.52723e-05
0.000146576
-7.13039e-05
-0.000169838
0.000114241
5.55963e-05
-0.000250406
1.08196e-05
-0.000231019
0.000149976
8.10436e-05
4.33286e-06
-4.31606e-06
-1.68003e-08
4.73681e-05
0.000127136
-0.000212243
-0.000662932
-0.000276004
-8.75736e-05
-0.000362677
-8.71728e-05
0.000183251
-8.02801e-05
0.00027506
-0.000107345
0.000161851
-8.7085e-05
0.000142063
6.14367e-05
-0.0002035
-4.35166e-05
3.39484e-05
9.56824e-06
4.09692e-07
7.74615e-06
-0.00108772
0.00139599
0.000443965
-9.69975e-06
-0.000434266
-0.000944493
-0.000193984
6.5694e-05
0.000161006
-4.99432e-05
-1.87551e-05
6.86983e-05
-0.000601122
-9.96209e-05
-0.000793855
-0.000144098
1.32284e-05
-8.95013e-05
7.62729e-05
2.58855e-05
-1.65138e-05
1.81529e-05
-2.75246e-05
-0.000158804
8.05587e-05
0.000512738
-0.000434493
-0.000877203
0.000873478
0.000675967
-0.000672242
0.000148884
-3.1374e-05
-0.000186607
6.9097e-05
-0.00118576
0.00114252
-5.22048e-05
9.54496e-05
-0.000152808
0.000130556
-1.55457e-05
-7.73472e-05
8.0437e-05
-7.74846e-05
-3.57025e-05
2.26186e-05
-4.75415e-05
6.06254e-05
0.000100111
-0.000110106
-0.000140628
0.000150623
6.19589e-05
-6.60032e-05
-0.000125872
0.000129916
-0.000186733
0.000158315
0.000176503
-0.000205588
5.05618e-05
0.000596373
-0.000441346
0.000790838
-0.000684934
-0.000186067
8.01635e-05
-0.00140008
-3.51058e-05
0.000249417
0.000222053
-0.000267597
5.46214e-05
-9.07764e-06
0.000254968
5.02633e-06
-4.53585e-05
-0.000214636
0.000711043
-0.000204276
-5.43217e-05
-0.000452446
-0.000357754
-0.000256522
4.22206e-05
0.000572056
-8.00361e-05
5.44357e-05
0.00120162
-0.00117602
0.000118217
-1.4722e-05
-0.000103495
1.45566e-05
4.74777e-05
-2.17399e-05
-4.02945e-05
3.79794e-05
1.20297e-05
-4.87743e-06
-4.51317e-05
1.02385e-05
-1.21608e-05
-2.88872e-05
3.08095e-05
-3.78781e-05
5.27969e-05
-0.000135383
0.000120464
-4.78359e-05
7.28502e-05
-0.000131515
0.000106501
-8.09258e-06
1.68644e-06
-8.17606e-05
8.81667e-05
0.000141829
-5.09457e-05
-0.000222194
0.000131311
0.000170219
-0.000186484
2.61937e-05
-9.92868e-06
2.76523e-05
2.4535e-05
-0.000995672
0.000943485
-0.000113935
4.33527e-05
-0.000748002
0.000818585
0.000870353
-0.000873117
6.88711e-05
-6.61063e-05
0.000184111
-0.00028388
-0.000151904
0.000251672
7.48769e-05
0.000142588
-0.000102149
-0.000115316
3.24928e-05
-4.03581e-05
-2.239e-05
3.02553e-05
0.000162269
-0.000144614
-6.39302e-06
-1.12625e-05
5.37864e-05
0.000678607
-0.000376027
-0.000356366
-7.64905e-06
0.0002308
-9.73066e-05
0.0002093
-0.000205121
-1.18287e-05
8.52668e-06
-3.15286e-05
7.23093e-05
-1.36219e-05
3.00411e-05
-4.23122e-05
2.58931e-05
0.000157874
-0.000120491
6.06272e-05
5.35634e-05
-0.000546804
0.000493241
5.20415e-05
-0.000546148
0.000494106
3.46677e-05
-0.000462641
0.000427974
6.08416e-05
-6.32603e-05
-2.41585e-05
-0.000338269
-1.16208e-05
3.06183e-05
-4.06736e-05
2.1676e-05
-1.72397e-05
2.7707e-05
-0.000955621
0.000945153
-0.000278171
-0.000403209
0.000468954
0.000212427
0.00105606
-0.000451121
-0.000807681
0.000202746
-0.000655835
0.00116308
-0.000870845
0.000363601
1.05833e-05
-2.83779e-05
4.36801e-05
-2.14159e-05
-2.47054e-05
2.03605e-05
-0.000630058
-7.15426e-05
0.000305439
0.000396161
-2.09761e-05
-0.000152336
2.05041e-05
-0.000115387
-4.1489e-05
7.9529e-05
2.17895e-05
8.09843e-05
-5.97024e-05
-4.30714e-05
-0.000193296
9.79245e-05
9.53713e-05
-0.000226087
0.000217781
8.30591e-06
0.000297675
-0.000220262
-0.000195901
0.000106875
-0.000390082
0.000342682
-5.94753e-05
1.06889e-05
-1.82982e-05
-0.000591136
3.30861e-05
-5.61567e-05
0.000614206
-0.000457756
1.99563e-05
-3.53175e-05
0.000473117
-3.98001e-05
-6.12732e-05
0.000144503
-4.34298e-05
-1.50785e-05
0.0002184
-0.000287578
8.42559e-05
-0.00028648
0.000467836
0.000331467
3.00525e-05
-0.00108204
0.00110848
-5.64976e-05
-3.75295e-06
2.10096e-05
-7.01816e-06
6.93889e-06
5.37057e-05
-2.7798e-06
0.00021097
-8.64175e-06
-0.000217673
1.53447e-05
-4.62172e-05
5.46049e-05
1.55734e-05
-2.39611e-05
3.98459e-05
0.000255616
-8.01543e-06
-0.000287446
-6.27409e-05
-2.65634e-05
4.57877e-05
-0.000340051
-6.36013e-05
0.000296618
0.000107035
-0.000427346
0.000268094
0.000318255
-0.000187028
0.000108776
4.74674e-05
-0.000562928
0.00032599
0.000431353
-0.000560077
1.64858e-05
0.000554772
-1.11807e-05
-0.000616108
1.59051e-06
0.000627732
-1.32151e-05
5.64141e-06
0.000635256
-0.000616827
-2.40697e-05
-3.63571e-05
0.000589278
-0.000577193
2.42716e-05
-0.000616539
0.00105122
-0.000764171
-4.64222e-05
5.26597e-05
-5.64258e-05
5.01882e-05
-3.26478e-05
4.80179e-05
-8.18761e-05
6.6506e-05
-5.81496e-05
3.70382e-05
2.03114e-05
7.99918e-07
6.98959e-05
-6.269e-05
-2.88632e-06
-4.3196e-06
-0.000969848
0.000114795
0.000952626
-9.75722e-05
-0.000116594
0.00068055
-0.000733945
0.000169989
-7.80946e-05
-8.53236e-05
0.000468194
-0.000304776
4.20946e-05
-6.42631e-05
9.17272e-05
-6.95587e-05
-0.00014274
-7.09023e-05
0.000627431
-0.000413788
2.83088e-05
7.35359e-05
-1.89648e-06
-9.99482e-05
-7.23849e-06
3.08842e-05
-4.12132e-05
-0.000568823
0.000532216
-4.66059e-05
0.000101855
-0.0001347
0.000332675
-0.000278407
-4.81019e-07
0.000116772
7.3519e-05
-7.42496e-05
-0.000116041
4.07213e-05
-1.66576e-05
0.000326606
-0.00035067
-4.19582e-05
2.14681e-05
-2.57271e-05
0.000474291
-0.000313828
-0.000541852
0.000760769
-0.000395907
0.000581166
-0.000297236
-4.42081e-06
9.00422e-05
2.89444e-05
2.32917e-05
7.79879e-05
-0.000130224
0.00046115
-0.000745531
-0.000592822
7.3705e-06
-1.24245e-05
-1.15568e-05
-0.000426738
0.000472231
0.00101189
-0.00105739
0.000847657
-0.000171091
-4.75799e-05
-0.000628985
2.74098e-06
8.79373e-06
4.71159e-06
-0.000385177
0.000186965
0.000456405
-0.000238812
6.4885e-05
-6.99922e-05
0.00023326
-0.000786107
0.000683652
7.07572e-06
1.84014e-05
-3.62013e-05
1.07241e-05
3.42382e-06
0.000180528
-0.00026212
7.81682e-05
-0.000685356
0.000614752
0.000570006
0.000116874
0.000238676
2.5163e-05
-3.14211e-05
0.000105886
-9.96275e-05
-6.17636e-05
-0.000242734
0.000183253
-2.9078e-07
3.50283e-06
-0.00025609
0.000252878
-0.000167164
-0.000197244
0.000807653
0.00013872
-1.60716e-05
-8.02688e-05
0.000145278
-2.49436e-05
0.000148105
9.06753e-05
-7.50339e-06
3.56905e-05
-2.11339e-05
-2.66203e-05
3.15339e-06
2.27167e-05
0.000127259
2.15873e-05
-2.53969e-05
0.00022192
-2.49397e-05
6.14539e-06
1.05639e-05
0.000231792
-4.05513e-05
-0.000231611
-5.5823e-05
-7.59906e-05
-0.000516584
2.97489e-05
-6.21411e-05
-0.000398588
-7.73464e-05
-0.000584573
0.000153385
-0.000149806
-4.62015e-05
-6.69824e-05
-4.9164e-05
-6.27868e-05
0.000177028
-1.1011e-05
1.14207e-05
0.000369175
0.000592387
-3.29816e-05
4.27032e-05
-9.40758e-06
-1.92099e-05
1.21037e-05
-5.68167e-05
-0.000188356
0.00016175
0.000521951
-0.000549302
2.4976e-05
2.37525e-06
5.42873e-05
-0.000330589
0.000225683
9.58052e-05
-0.000168534
8.25287e-05
-3.54763e-05
4.31665e-05
8.73791e-06
-1.64281e-05
0.000274653
0.000468728
0.000207545
0.000329866
-5.9935e-05
-0.000259877
-4.59928e-05
4.99079e-05
2.93606e-06
-6.8512e-06
-9.22467e-05
8.77729e-06
8.56793e-05
-2.20994e-06
-6.70904e-05
-3.74965e-05
6.91106e-05
-7.58078e-05
-1.62371e-06
4.50833e-05
3.23483e-05
-7.28877e-06
-8.27905e-05
2.97189e-05
6.03603e-05
0.000425963
-0.000118581
0.00013677
-0.000422868
0.00070578
5.97954e-05
-0.000294096
0.000529018
-0.000154489
0.000242277
-0.00023741
-2.23211e-06
1.11904e-05
-1.03997e-05
1.44136e-06
2.29576e-05
7.13738e-05
-4.47332e-05
-4.95982e-05
6.05343e-06
-4.13557e-05
-1.06905e-05
-0.000624454
0.00102945
-0.000734594
0.000329602
3.60321e-05
-0.000126219
-4.18984e-05
4.5507e-05
-0.000113448
-6.12716e-05
3.29273e-05
-4.72963e-06
-5.25135e-05
-0.00105441
0.000942257
7.09537e-05
-3.28638e-06
5.00063e-05
-5.00316e-05
3.31168e-06
-9.37257e-05
6.20789e-05
-3.39193e-05
6.55661e-05
-1.09755e-05
-0.0001871
-5.30652e-05
5.13855e-05
0.000379369
-0.000155412
1.15162e-05
-7.06001e-06
6.37655e-05
-6.82217e-05
4.28487e-05
-4.63944e-05
9.70401e-06
-6.15828e-06
8.0917e-05
5.56194e-05
8.12284e-05
8.35876e-05
-1.29766e-05
-7.89349e-05
8.32386e-06
4.00479e-05
-1.41352e-05
-3.43456e-05
0.00039092
9.16612e-05
0.00027245
0.00116136
0.000116948
-0.00112311
-0.000155199
8.76619e-05
-4.06047e-06
5.22215e-05
-0.000680829
0.000176408
0.000606839
-0.000102418
-0.000104536
-3.45323e-06
-2.53759e-06
0.000110527
-6.26129e-05
0.00023353
-0.000128794
-4.21238e-05
2.47715e-05
-7.68891e-05
4.47794e-05
7.33812e-06
-0.000213226
0.00071778
4.52989e-05
-0.000549852
-0.000318033
0.000898476
6.25907e-05
-0.000643034
0.000619152
3.01647e-05
7.46914e-05
-0.000724008
-6.16194e-05
6.56309e-06
8.35623e-05
-2.85059e-05
6.49511e-05
0.00014592
-0.000177816
0.000370538
0.000345779
0.000490848
0.000111543
0.000532042
0.000108685
0.000550639
0.000130023
0.000612789
-8.08948e-06
-4.0731e-06
4.60158e-06
7.561e-06
5.4946e-05
-4.68695e-06
-3.51148e-07
-0.000211765
0.000247797
-0.000206816
0.000252323
-4.34105e-05
7.63378e-05
2.39141e-05
1.0456e-06
-4.61694e-06
-4.92351e-06
-2.83872e-05
3.4833e-05
-1.52223e-06
1.86214e-05
8.63303e-05
-0.000102417
-2.53512e-06
2.13309e-05
0.000643465
-0.000428927
0.000967368
6.28709e-05
-0.00101528
-1.49629e-05
-0.000264514
0.000259044
0.000303145
0.000136868
-0.000265268
-6.90691e-05
0.000197469
2.50794e-05
-5.49418e-06
-2.33743e-06
-2.539e-06
9.79632e-05
0.000172568
-5.76592e-05
-8.34992e-05
-3.85736e-05
-0.000953623
0.00092602
-0.000399136
-9.05613e-05
-5.66941e-05
1.82102e-05
0.000223275
-1.09068e-05
-0.000230579
-8.14514e-05
0.00071917
1.94259e-05
-0.000657145
-7.98918e-05
0.000622843
2.00069e-05
-0.000562958
4.0759e-05
-4.71867e-05
0.000132753
-0.000126326
-3.95101e-05
4.31493e-05
-3.32443e-05
2.96051e-05
4.89295e-05
-0.000139063
0.000187902
-9.7768e-05
-2.39206e-05
5.96112e-05
-1.10645e-05
2.00241e-05
-1.43374e-05
5.37773e-06
-0.000277553
-6.45092e-05
0.000202435
0.000139628
9.45834e-05
-0.000111495
3.68032e-05
-1.98913e-05
0.000665829
2.05674e-05
-1.61988e-05
-0.000670198
3.50052e-06
7.92541e-05
-6.09651e-05
0.000515466
-2.63912e-05
3.1893e-05
-0.000520967
0.000222381
-0.000132916
-0.000145089
5.56243e-05
-0.000558748
-1.07029e-05
-6.88115e-05
0.000638263
-0.000557688
-9.16749e-05
1.52863e-05
0.000634076
0.000150493
-1.1769e-06
-0.000164827
1.55111e-05
-4.5378e-06
-1.76468e-05
1.88475e-05
3.33708e-06
-6.77265e-05
-3.89592e-05
6.01315e-05
4.65542e-05
-4.83939e-05
5.12044e-05
-3.43391e-05
0.000780963
7.80546e-05
-3.79505e-05
5.06222e-05
4.36356e-06
-9.68671e-06
-0.00116558
-0.000124601
0.00112819
0.000161995
0.000460379
0.000343844
-0.000299481
-0.000504743
8.51768e-05
-4.43749e-05
-3.39799e-05
-6.82203e-06
-0.000116632
0.000136111
-0.000187473
0.000167993
6.73098e-05
-6.38093e-05
-0.000151107
8.03346e-05
-0.000608252
0.000679025
0.000135098
-0.000113726
3.0661e-05
-5.20332e-05
-6.91733e-05
6.37546e-05
2.60825e-05
-2.06638e-05
1.17652e-05
-3.83923e-05
4.85994e-05
-2.19722e-05
0.00017923
-0.00014394
-6.34482e-06
0.00102649
-0.000894083
0.000199472
-0.000331879
-0.000316212
-0.000222845
0.00026636
0.000126476
0.000120676
-0.000113983
-0.000133168
8.04762e-06
4.96766e-06
-1.75531e-05
-0.000206634
0.000183886
-4.4978e-05
0.000132316
-4.64484e-06
2.28211e-05
8.9486e-05
-8.7586e-05
-3.16703e-05
2.97703e-05
2.04555e-05
-7.03761e-05
6.21799e-05
-1.22593e-05
1.62191e-06
-6.16969e-06
0.000229446
-0.000423211
0.000496952
0.00112974
-1.74499e-05
3.02271e-05
-1.89144e-06
7.05652e-06
-0.000183634
0.000178469
-5.98428e-05
0.000213228
-6.92281e-05
0.000124275
-0.000101653
4.29822e-06
-2.8735e-06
-8.6632e-06
-0.000830469
0.000364841
-4.80511e-05
-0.000952029
-0.000563797
0.000199785
7.49627e-05
-1.15358e-05
-9.23566e-05
-6.43933e-07
2.83863e-05
-1.81698e-05
-1.29021e-05
-2.29985e-05
2.46564e-05
2.19321e-06
-2.721e-05
3.10702e-05
-1.01794e-05
2.05596e-05
0.000133793
-0.000144173
-0.00081352
-9.23193e-05
0.00022501
0.000395884
-0.000375356
-0.000165091
0.000144563
-0.000123628
-0.000917579
5.353e-05
0.000987677
-6.61154e-05
-0.00100305
0.0010312
3.7965e-05
6.35052e-05
-7.89973e-05
-4.62716e-05
-0.000285572
-0.000313902
0.00033496
2.7863e-05
-1.34535e-05
-2.42436e-05
9.83414e-06
-0.000144204
-3.05915e-05
0.000147344
2.74519e-05
-0.00080588
-0.000285374
-0.000177335
-4.39175e-05
-2.08204e-05
0.000242073
8.68511e-05
-3.57379e-06
-8.87245e-05
5.44719e-06
0.000235182
-7.61773e-05
1.71559e-05
-3.61972e-05
-2.29168e-05
6.52433e-05
2.19449e-05
-6.42306e-05
0.000105909
-9.21134e-05
-2.82919e-05
1.44965e-05
8.82478e-06
-2.23859e-06
7.56085e-06
-1.4147e-05
4.38378e-05
0.000639873
-2.88813e-05
-0.000654829
9.13054e-05
0.000681787
-5.42968e-05
-0.000718795
3.17064e-05
6.10237e-05
1.31787e-05
3.02163e-05
-0.00108677
0.00108689
-3.03389e-05
0.000259127
-0.00145598
2.89337e-05
0.00116792
-0.000168364
-0.000107187
9.56181e-05
0.000179932
5.68813e-05
3.50699e-05
-4.45362e-05
-4.7415e-05
0.000344831
-0.000311472
0.000205995
0.000740935
-0.000605816
-0.000751659
2.94767e-06
1.69401e-05
6.46878e-06
-2.63565e-05
5.88643e-05
-4.49796e-05
-6.66295e-05
5.27449e-05
-6.39709e-05
1.97021e-05
0.00013093
-8.66609e-05
-0.000736345
0.000234609
0.000479388
2.23475e-05
4.08988e-05
-2.01974e-06
-1.34283e-06
-3.75363e-05
-0.000146923
4.83993e-06
-1.79409e-05
0.000160024
0.000206275
2.08243e-05
8.1727e-06
-0.000235272
-4.03215e-06
7.70649e-05
-7.30327e-05
0.00030587
-0.00121232
-8.38003e-06
9.90427e-06
2.67666e-06
-4.20089e-06
-9.98113e-06
-5.20833e-05
-5.02593e-06
4.71248e-05
-8.31426e-05
-4.72757e-05
8.32935e-05
0.00103995
-0.00146411
0.000184058
0.000240098
0.000474741
8.93486e-06
1.26141e-05
-0.000496289
-6.15326e-06
-3.05145e-06
5.98269e-05
8.82079e-05
8.76259e-05
-0.000956337
0.000780503
2.09595e-05
5.83861e-05
-8.51135e-05
5.76789e-06
-5.44522e-06
0.000170758
-0.000217395
5.20828e-05
-4.9578e-06
-2.36406e-05
3.39041e-05
-5.30564e-06
0.000960431
-0.000637559
7.0829e-06
-0.000174454
0.00016708
1.94246e-05
9.3109e-05
-8.73705e-05
0.000844945
-0.000579037
4.92549e-05
-0.000315163
0.000107355
0.000392638
-5.94215e-05
4.88599e-05
-4.55215e-05
-2.33184e-05
0.000205152
9.36032e-06
-0.000191194
0.000579676
-0.000130142
-0.000429943
-1.9591e-05
4.79159e-06
-7.85406e-06
-1.38173e-05
1.68797e-05
-5.24126e-06
-0.000219269
0.000141123
0.000194918
6.41503e-05
-0.000102383
-9.31232e-05
0.000131356
-2.01264e-06
5.02093e-05
1.13037e-06
-1.59942e-06
0.000206744
1.2873e-05
-8.316e-06
-0.00015148
-5.57624e-06
1.39123e-06
4.50838e-05
0.000214438
-0.000234545
8.82804e-05
-6.81734e-05
0.001152
-0.00112911
-0.000297714
-6.83176e-06
-0.000625596
0.000191309
0.000541163
5.5796e-05
-5.8838e-05
-9.18553e-06
0.00054302
-6.85839e-05
0.000485994
-0.000150026
-5.87799e-05
0.000118848
-1.70669e-05
3.72081e-05
7.67053e-05
-9.68464e-05
3.46214e-05
-4.7329e-06
-4.47951e-05
1.49066e-05
-8.99813e-05
6.66629e-05
2.73881e-05
-8.16316e-05
7.30205e-05
-1.87769e-05
0.000726745
9.93816e-05
-4.51636e-05
0.000171946
0.000166394
-0.000271641
0.000235284
-0.000468146
0.000473787
-0.00035182
0.000235225
-0.00113849
0.00114054
9.5935e-05
-9.79872e-05
0.000216573
0.000588637
-0.000304739
-0.000400929
8.35518e-06
-0.000153289
-0.000216858
-0.000288582
0.000501819
-0.000752266
-0.000156549
0.000406997
-0.00081206
0.000371814
-0.000114032
0.000554279
-3.91387e-05
0.000117395
-0.00034932
0.000271064
-2.37653e-05
-5.44005e-05
-0.00106241
0.00114057
8.54388e-05
-0.000379642
0.000772037
0.000179191
-0.000822789
-0.00012844
-4.33638e-06
1.83924e-06
2.64112e-05
0.000736759
-0.000682147
7.54111e-05
0.000636771
-0.000693065
0.000164979
0.000553162
-0.000514621
7.30017e-05
8.09493e-06
8.50654e-05
-6.30921e-06
0.000122945
3.93282e-05
-9.81226e-05
6.15259e-05
-8.97186e-05
7.59778e-05
-4.77851e-05
0.000644693
-0.000544619
-6.41214e-05
-3.5953e-05
0.000681652
-0.000579416
-2.28574e-05
-7.93785e-05
0.00010367
0.0015461
-0.00121334
-0.000436426
4.52617e-06
-1.96123e-06
-1.38065e-05
1.12415e-05
-0.000993116
-0.000637379
0.00105499
0.0005755
-8.80638e-06
4.94976e-06
-2.09265e-05
2.47831e-05
2.23364e-05
-3.05145e-05
-2.10889e-05
2.92669e-05
1.92024e-05
-5.24405e-05
-6.63716e-05
9.96098e-05
0.000117411
-4.4345e-05
0.000653679
0.000587662
-0.000832463
0.000346399
0.000598481
-0.000825948
0.000350951
2.31104e-05
8.61827e-05
-6.77427e-06
1.32073e-05
3.74261e-05
-4.38591e-05
0.000605006
-7.03453e-05
0.000145889
-4.88976e-06
1.80143e-05
-7.43321e-06
-0.000118679
-0.000176827
3.661e-05
0.000258896
0.000183315
0.000802911
-0.000642382
-0.000303965
-0.000348962
0.000374755
0.000671231
-0.000634853
-0.000158469
0.000122092
-6.18381e-05
1.12966e-05
4.70882e-05
0.000114582
-1.36071e-05
6.08618e-05
0.000129133
-3.27626e-05
5.02058e-05
-3.78805e-05
9.47135e-05
0.000531107
-0.000640716
0.000109609
-0.000403766
0.000288945
-0.00127464
0.00138946
-0.000178078
0.00015547
0.000272176
-0.000249568
9.20722e-05
3.43615e-05
-6.12935e-05
-6.51402e-05
-0.00044229
-3.07944e-05
0.00060622
-0.000133136
0.000223397
-0.000187671
-0.000390924
-7.54464e-06
-1.72505e-06
-1.37894e-07
0.000106503
-8.55448e-05
7.11141e-05
-7.46685e-05
7.76257e-05
5.5907e-05
-4.58974e-05
1.11834e-05
7.07979e-05
-3.60839e-05
0.000205887
-0.000213292
0.000117421
-0.000110016
4.79445e-05
2.2921e-05
9.14038e-05
-5.13457e-05
-4.85931e-07
5.28772e-05
-2.30633e-05
4.75398e-05
-6.91978e-05
4.47213e-05
1.50419e-05
-3.51964e-06
5.19063e-06
-1.67129e-05
4.36222e-05
-9.26065e-06
-0.000135187
6.23767e-05
-9.55538e-05
4.95793e-05
-3.84359e-05
4.57378e-05
-9.98395e-06
8.63443e-05
1.31257e-05
-0.00064843
-0.000386596
0.000785756
0.00024927
0.000822473
-0.00104097
0.000356498
-0.000138003
9.77427e-06
2.80252e-05
-3.13584e-05
-6.44113e-06
-1.12327e-06
0.000293005
-0.000344965
5.3084e-05
-9.12137e-05
6.23079e-05
1.87376e-05
1.01683e-05
-0.00133023
0.00116869
-0.00024865
0.000410197
0.000381802
-0.000326136
-0.000130733
7.50662e-05
1.2026e-05
0.000686556
-0.000684702
-1.38801e-05
-0.000350708
2.00511e-05
0.000137572
-0.000556869
0.000535971
-0.000116675
0.000164573
-0.000652987
0.000657073
-0.000168659
-0.000102554
-0.000755294
0.000857848
-1.19672e-05
5.62587e-06
-1.46876e-05
2.10289e-05
3.01524e-06
-4.71019e-06
2.58482e-07
1.43647e-06
0.00016035
-0.000108508
0.000123335
-0.000175177
-9.34098e-05
-0.00019755
0.000226989
-5.66795e-06
7.71596e-06
-1.0428e-05
-0.000152332
-4.85724e-06
0.000103547
5.36415e-05
-0.000124608
-1.46951e-06
9.57618e-05
3.03159e-05
-2.61767e-05
2.1707e-07
0.00035905
-0.000333091
0.00106497
-0.0010855
-6.59908e-05
8.65197e-05
-0.000180883
1.78758e-05
0.000109464
9.3168e-06
-0.000118781
8.39693e-06
0.000171124
-2.10847e-05
-0.000158436
6.95796e-06
-6.43766e-05
-3.52543e-06
6.09441e-05
-1.91778e-05
2.38828e-05
-9.2291e-05
1.68132e-05
-2.16456e-05
0.000137149
-6.55882e-06
4.96638e-05
-0.000249739
-7.71656e-06
9.42512e-07
1.48217e-05
0.000654816
5.06607e-05
-7.02211e-05
0.000602469
3.15247e-05
-4.47159e-05
-0.000551635
2.33127e-05
-3.17547e-05
-0.000544279
-3.68198e-05
-3.50087e-05
-0.000364704
-0.000190796
0.000215448
-0.000984162
-0.000170905
0.00028195
8.82432e-05
-1.77352e-06
-2.88211e-06
-0.000100994
-0.00113799
0.00115895
-5.85256e-05
4.25935e-05
-0.000177364
-0.000102201
-1.31955e-05
-0.00011069
0.000677579
-0.000193805
-0.000563666
0.0006898
-0.00018209
-0.000589162
-1.942e-05
1.80882e-06
0.000179046
-0.000161435
1.02002e-06
0.000671412
-1.20101e-06
-0.000107566
0.000132939
-1.7315e-06
-2.36422e-05
5.89982e-05
-6.60404e-05
3.42902e-05
-2.7248e-05
3.48633e-05
-2.6319e-05
9.6086e-06
-1.71179e-05
5.63534e-06
6.64286e-05
-2.1556e-05
-7.47042e-05
1.53233e-05
8.09369e-05
0.000257365
-2.31804e-05
3.69936e-05
-0.000271178
-0.000332222
-7.92836e-05
6.07973e-05
-0.000401495
0.000282923
0.000351832
2.03579e-07
-1.60063e-05
1.7996e-05
4.22972e-05
6.5767e-06
5.731e-06
4.21132e-05
-8.46803e-05
8.39749e-05
-4.14078e-05
-0.000340306
4.38447e-05
0.000315177
-1.87153e-05
0.000304682
0.000363278
-0.000588246
-7.97137e-05
0.00022389
-0.000590122
-0.000282198
0.000467687
0.000332993
-0.000649834
-0.000150847
-8.99555e-05
7.56563e-05
9.21771e-06
5.08144e-06
0.000114004
0.000163595
-0.00101394
3.61352e-05
-1.5504e-05
-2.81758e-05
-2.04656e-05
-1.79299e-05
3.0679e-05
-0.000107716
2.27653e-05
0.000101764
0.00089908
-2.32644e-05
-0.000766249
-0.000109567
-1.58903e-05
-1.11342e-06
-9.41412e-05
-0.000189738
-2.69958e-06
7.97644e-05
-0.000103836
0.00111183
0.000155084
-7.90985e-05
0.000196544
9.69924e-05
-0.000403586
0.00032636
0.000522252
-0.000445026
0.000270242
-0.000250134
0.000437409
-0.000457517
1.47075e-05
7.91375e-05
-9.94153e-06
-8.39035e-05
1.94855e-05
-1.63104e-05
-1.16476e-05
8.4725e-06
-0.000253453
4.5289e-05
4.78144e-05
0.00016035
-0.00110897
0.00110441
9.21913e-05
-0.000721887
0.000468882
-0.000652966
0.000561905
-0.000385125
-0.000182559
0.000166189
0.000111043
-3.75641e-05
0.000859989
-0.0010278
-0.000262843
0.000430659
-0.000227031
-0.00098822
0.00118966
2.55934e-05
-0.00105475
0.00108373
-0.000129969
-0.000496243
0.000440681
0.000360889
-0.000305327
-0.000274125
0.000282632
1.91377e-05
-2.76444e-05
-0.000129952
-4.04761e-05
2.58143e-05
-0.000633124
0.000739369
-0.000492842
0.000154747
-1.22288e-05
-2.50557e-05
1.19851e-05
1.57833e-05
-2.71268e-06
-0.000172323
0.000164998
-2.31282e-05
9.01408e-06
0.000102357