/*--------------------------------*- C++ -*----------------------------------*\
| =========                 |                                                 |
| \\      /  F ield         | OpenFOAM: The Open Source CFD Toolbox           |
|  \\    /   O peration     | Version:  v1912                                 |
|   \\  /    A nd           | Website:  www.openfoam.com                      |
|    \\/     M anipulation  |                                                 |
\*---------------------------------------------------------------------------*/
FoamFile
{
    version     2.0;
    format      ascii;
    class       volVectorField;
    location    "0.65";
    object      U;
}
// * * * * * * * * * * * * * * * * * * * * * * * * * * * * * * * * * * * * * //

dimensions      [0 1 -1 0 0 0 0];


internalField   nonuniform List<vector> 
5794
(
(-0.0148068 -0.431186 -3.47743e-17)
(-0.124152 1.20935 0)
(0.0854691 -0.907501 -1.43258e-16)
(0.0659877 2.58536 1.19891e-16)
(1.50965 2.02117 2.79761e-17)
(-0.0984061 0.29727 -1.46335e-16)
(0.769586 -0.221812 -2.47077e-16)
(-0.0658943 -0.204003 0)
(6.08004 0.899761 1.00935e-16)
(1.15971 -0.126046 2.13235e-16)
(4.62877 -0.110117 -3.36046e-19)
(-2.7163 0.0542128 0)
(-2.05782 -0.394571 5.51333e-16)
(0.820798 6.42333 1.87689e-16)
(0.963369 0.147336 5.03696e-16)
(-0.306448 -0.405133 -1.72656e-16)
(0.699391 0.0541731 4.71302e-17)
(0.368985 6.4657 1.33654e-16)
(0.850721 0.0905759 4.79499e-16)
(0.0910565 1.64891 1.46668e-16)
(-2.94458 1.82752 -4.85167e-17)
(-0.110076 0.0258611 -1.92936e-16)
(1.59917 0.0341765 3.28455e-16)
(0.953591 -0.00200986 -6.4752e-16)
(2.10984 0.303247 -4.00798e-16)
(2.76274 10.9398 2.08852e-17)
(5.46647 -0.578792 0)
(0.00582687 1.67875 -1.61002e-16)
(-0.243017 9.21636 -3.96194e-17)
(1.14002 -0.0817824 2.73615e-16)
(-1.75844 -0.517607 -5.90722e-16)
(-1.92225 0.0668195 -5.22371e-16)
(-2.09932 0.113569 -9.28889e-16)
(0.57123 -0.425915 4.69664e-16)
(-1.61762 0.378832 -1.96827e-16)
(-1.15396 0.194413 2.08431e-16)
(9.78865 0.619719 -2.24567e-16)
(3.33623 -0.32641 0)
(2.34846 -0.453657 1.50651e-16)
(-0.35513 4.19021 0)
(-0.448166 3.78375 -1.02018e-16)
(0.0114552 1.59629 1.40322e-16)
(7.43912 0.113639 -8.96544e-19)
(0.768204 2.92512 0)
(1.02366 0.131901 -4.46299e-16)
(4.88491 -0.167582 1.372e-16)
(4.41026 -0.148975 -2.38789e-16)
(-0.606477 -0.621869 0)
(0.338147 -0.249746 8.54457e-16)
(0.590804 -0.378419 7.19531e-17)
(-0.65056 0.202089 -1.78497e-16)
(6.29334 -0.215835 -1.81312e-16)
(-0.835428 0.71156 0)
(-0.147965 -0.256298 1.81866e-16)
(-0.0659562 -0.0612059 1.10969e-17)
(5.14335 -0.492432 0)
(4.68727 -0.348693 -1.89422e-16)
(-2.13888 -0.421541 1.57889e-16)
(8.48575 0.0695465 0)
(4.20466 10.2972 -7.19001e-19)
(9.08421 0.499673 1.97364e-18)
(0.581742 1.03462 -1.28154e-16)
(-1.03661 -1.27404 -1.58966e-16)
(-0.979903 0.0513433 2.17099e-16)
(-1.20073 0.139044 0)
(0.847608 0.261514 -2.73604e-18)
(0.284118 0.673926 -2.62681e-16)
(-0.141561 3.79326 0)
(0.516424 4.95348 -1.53295e-16)
(-0.0362106 0.534006 -4.1355e-21)
(4.91086 -0.490093 1.40696e-16)
(0.433473 2.13824 -3.29262e-16)
(11.5567 2.0382 -3.61279e-18)
(1.70171 0.157925 0)
(0.441178 6.04586 1.36567e-16)
(0.185081 0.696065 1.30097e-19)
(0.843988 -0.182693 1.36612e-16)
(1.50806 10.7855 -2.15042e-17)
(0.840722 2.60819 3.88338e-17)
(-0.413593 -0.0213825 7.67792e-17)
(-0.0719883 -0.357583 -2.36251e-17)
(-0.102057 1.18529 -1.5538e-16)
(-0.559421 2.66345 3.59007e-19)
(1.27408 -1.42952 -1.02415e-16)
(2.86426 -1.42103 -3.32896e-16)
(-0.123676 4.62108 -4.72384e-17)
(0.217802 6.32859 3.14605e-17)
(0.040928 5.20736 -2.58504e-17)
(0.949427 0.245592 -1.76174e-16)
(0.718849 0.537694 -5.45762e-17)
(0.896175 5.52009 -8.2468e-17)
(0.13071 6.85699 -8.7528e-17)
(-0.13201 7.13211 1.44998e-16)
(0.113785 7.60389 5.97654e-17)
(0.00240865 5.80013 3.85599e-17)
(-2.13475 0.0502321 5.49046e-18)
(0.0119015 6.11558 -5.77155e-17)
(-0.133792 6.83093 -1.57438e-17)
(-0.0216811 6.89358 0)
(8.79128 0.550028 -3.19567e-17)
(1.67799 3.1838 -1.31014e-16)
(-1.05611 0.159673 -4.38724e-16)
(8.35473 0.147901 7.47375e-17)
(0.812915 5.2711 -2.61115e-16)
(1.28464 0.363992 0)
(-0.651207 5.87417 0)
(-0.0262074 1.2599 0)
(-0.266424 0.0755229 -2.85197e-16)
(-1.35641 0.576869 -1.26544e-16)
(0.755608 2.09071 -1.15445e-16)
(0.365698 -0.0385828 -2.02732e-19)
(0.595657 0.0510368 0)
(-1.5524 4.6556 1.22328e-16)
(-0.0600983 -0.0780018 1.65403e-16)
(0.099071 5.82335 0)
(-0.150295 7.71123 0)
(0.366872 0.258234 -3.65718e-16)
(-0.512531 7.937 -7.42724e-20)
(9.34541 0.449364 -2.34242e-20)
(10.8521 0.590527 6.33071e-18)
(-0.705017 7.81798 1.15435e-16)
(0.671174 -0.0233869 0)
(-1.29312 0.171417 0)
(0.0303975 1.09679 -2.1414e-16)
(0.915429 0.0584589 2.32194e-16)
(4.66092 2.30992 5.21107e-17)
(1.09373 6.09353 0)
(-0.0662228 0.509126 9.092e-17)
(6.52698 -0.590879 1.1941e-16)
(-0.41926 -0.0478264 1.73082e-16)
(-1.4206 -1.01181 2.95189e-16)
(0.0660109 -0.830521 2.28905e-16)
(0.401735 1.34603 2.30976e-17)
(1.06914 10.4675 -6.48521e-17)
(-0.69111 6.77704 1.42473e-16)
(1.01464 0.190863 0)
(4.13205 -0.20517 9.65402e-17)
(0.659595 0.917838 -1.86266e-16)
(-0.565153 0.217951 1.96255e-16)
(0.747347 -0.107285 0)
(1.34349 -0.783923 -5.05417e-16)
(0.90494 2.40602 0)
(0.913619 0.106908 0)
(0.764501 2.83307 2.88791e-16)
(-0.586515 0.265333 2.16484e-16)
(1.5132 -0.187341 1.55481e-17)
(-0.775263 0.735036 2.55741e-16)
(7.60184 0.282983 2.43596e-16)
(0.884417 1.26554 -1.98538e-18)
(0.381641 0.631566 4.96842e-16)
(7.28027 -0.18401 -1.78451e-16)
(0.643278 -0.0664916 3.23851e-16)
(-0.655698 6.09854 0)
(-1.0034 0.44842 2.0453e-16)
(3.45539 -0.740649 0)
(4.78659 0.143094 0)
(1.31275 -0.617596 -2.87164e-16)
(2.12431 -0.00535534 3.99652e-16)
(5.27047 0.178893 -2.71798e-16)
(2.49626 -0.629568 -1.29638e-16)
(0.560699 -0.0116586 4.28961e-16)
(-2.02437 -0.145432 -3.59343e-16)
(0.0278454 -0.000437248 0)
(-1.62455 -0.134073 -1.46994e-16)
(-2.95403 0.022526 -3.11149e-16)
(-3.09685 -0.0807164 1.69198e-16)
(-1.00579 -0.243868 1.37174e-18)
(-0.917598 -0.330486 -4.25738e-18)
(0.274762 -0.0548223 0)
(0.40827 0.020691 1.03815e-18)
(0.730655 0.0919478 0)
(-1.82853 0.410645 -1.19099e-16)
(-1.28444 0.27077 0)
(-1.52296 0.405358 1.0287e-16)
(-0.48515 -0.408308 4.62238e-16)
(1.65524 0.0358177 0)
(0.479078 0.0438163 -2.60569e-16)
(2.28058 0.0701013 -2.34993e-16)
(0.714095 -0.0536741 -9.69415e-17)
(6.47396 0.125418 6.91614e-18)
(0.217955 -0.452442 -6.24596e-18)
(-1.43763 -0.317079 0)
(0.620741 -0.319811 0)
(-1.86326 -0.320233 1.28948e-16)
(1.15175 -0.23718 0)
(-0.919706 -0.755089 6.26931e-17)
(-1.28025 0.18944 -1.54126e-16)
(-1.21254 0.293042 -1.04147e-16)
(0.796906 -0.171522 1.38314e-16)
(-1.09444 -0.000591293 3.55664e-16)
(4.53442 -0.0734338 -3.53187e-16)
(-2.04698 -0.101556 3.86134e-16)
(-2.24022 -0.0834889 6.18219e-16)
(-1.11058 -0.314484 6.22224e-16)
(-0.36243 -0.346324 -1.08223e-16)
(-2.06694 -0.567029 -4.78332e-16)
(1.1101 -0.469536 -2.30415e-17)
(0.453552 -0.0226066 -2.01368e-16)
(0.824669 0.0415901 -3.13357e-16)
(6.45444 -0.046816 1.24967e-16)
(1.3697 -0.144831 -2.23144e-17)
(6.1563 0.0182278 0)
(-0.126092 -0.471871 0)
(-0.305127 -0.349983 1.15653e-17)
(4.33457 0.0144813 -5.76998e-17)
(4.81686 0.0216289 0)
(-0.202569 -0.170431 1.2857e-17)
(0.353535 -0.00248761 2.07951e-19)
(4.44186 1.17117 -6.32789e-18)
(2.10339 8.77033 1.28046e-16)
(0.215306 0.278474 1.4287e-16)
(9.7719 -0.00647296 0)
(-1.23334 -0.239245 -1.1271e-16)
(-1.53367 -0.558024 1.68178e-16)
(1.08781 -0.229404 0)
(0.846448 0.492281 7.83921e-16)
(0.493066 0.226249 -1.90637e-16)
(1.42975 1.87414 9.41114e-17)
(4.03831 -0.195422 1.37409e-16)
(1.39858 5.6032 -1.80793e-16)
(9.68911 -0.00297863 0)
(1.6117 0.418206 2.41875e-16)
(-0.341776 1.96608 0)
(-0.164938 5.13209 2.93327e-17)
(4.96506 0.12128 1.38078e-16)
(11.6604 0.698451 2.12623e-18)
(0.214146 -0.0595969 -8.39153e-17)
(1.01552 -0.0375362 -1.14506e-16)
(-0.913311 -0.0544446 0)
(0.867071 0.281308 -3.09439e-16)
(-1.27592 0.510872 0)
(-1.53809 0.687048 -6.63565e-17)
(-0.206863 0.0393665 -1.23804e-16)
(-1.01888 0.723844 1.58555e-16)
(2.38671 0.563185 1.61752e-16)
(10.2463 0.205833 5.49778e-18)
(7.72113 1.05116 1.98228e-18)
(7.18035 0.496837 2.96098e-17)
(-2.08886 0.0285797 -1.64586e-16)
(-0.0622501 -0.0856603 -5.04078e-16)
(-0.307494 0.882538 0)
(1.1786 0.851341 1.20271e-15)
(1.5275 4.68229 2.26089e-16)
(-0.550715 0.686293 -2.79522e-16)
(-1.49492 1.18173 2.69434e-16)
(0.444798 0.0188345 3.43292e-16)
(1.04809 0.126759 -1.54188e-16)
(0.563322 0.869818 9.26336e-18)
(-0.116916 5.89525 0)
(-0.0260843 5.30343 0)
(-0.0468979 5.6471 0)
(0.681792 0.22461 2.90852e-17)
(2.03939 -0.644244 -7.36039e-17)
(-0.0685263 -0.0633848 5.8604e-20)
(7.29959 1.17874 -5.91758e-17)
(4.25288 2.54485 -1.02722e-17)
(8.26616 0.215871 -1.53661e-16)
(9.03698 0.538211 1.62826e-16)
(0.0826388 -0.312687 3.00615e-16)
(0.851753 0.0329369 0)
(5.78246 -0.064192 -1.16609e-16)
(-1.12587 -0.348827 9.86317e-17)
(-1.16927 -0.770786 -9.89888e-17)
(1.19021 -0.329274 0)
(-2.09881 -0.0804819 0)
(-0.620789 0.123 -6.97178e-19)
(0.35283 1.46855 1.69865e-16)
(3.69998 0.756713 0)
(0.698309 -0.00249004 -7.44443e-16)
(4.40494 0.0146709 -1.2779e-16)
(4.02014 0.00154932 0)
(1.20921 -0.884078 -2.7779e-16)
(0.559411 1.12939 -5.40114e-16)
(5.14592 -0.339853 -1.69743e-16)
(9.53246 0.0900708 3.76198e-17)
(0.634438 0.154329 3.26248e-16)
(-0.105343 -0.278135 -1.9544e-16)
(1.4563 -0.149186 -8.93444e-17)
(0.554133 0.178405 -1.88763e-16)
(-1.53007 0.936609 -2.63179e-16)
(0.481014 0.00159066 4.09578e-16)
(0.918297 3.31413 2.65524e-16)
(-0.356054 3.55 1.06428e-16)
(0.297349 1.68728 -3.73053e-16)
(-0.338925 5.22045 5.00068e-17)
(-0.15317 5.07823 1.22334e-16)
(0.149548 5.76839 1.33664e-17)
(6.13214e-05 5.40044 0)
(0.627598 5.88271 4.26143e-17)
(-0.721525 7.97429 0)
(-0.952155 0.443197 -1.72807e-17)
(-1.28811 0.764653 -1.32158e-16)
(0.675392 -0.243189 2.51434e-18)
(0.259506 -0.171043 0)
(8.06469 1.71616 0)
(1.25883 7.67896 6.73882e-18)
(-0.281426 2.06757 7.41238e-17)
(0.558297 1.89063 1.0416e-19)
(-0.267255 3.69683 -2.43305e-16)
(0.993853 -0.370268 -1.75591e-16)
(0.0263068 0.802438 1.17145e-16)
(-0.509855 6.22728 0)
(0.0127519 -0.405732 -9.13746e-16)
(0.708805 1.939 0)
(1.13463 1.89264 -1.46443e-16)
(3.48764 0.248768 1.69454e-18)
(0.509303 0.258488 -2.60686e-16)
(0.604523 3.46415 2.90213e-16)
(5.04876 0.103611 2.52155e-16)
(4.5779 0.0830892 0)
(1.69085 -0.314287 -5.99153e-16)
(-0.153959 0.499408 -3.15695e-16)
(1.47574 7.59867 -1.43088e-16)
(0.00439194 -0.198709 -9.22217e-17)
(10.5985 0.120095 0)
(10.0114 0.307939 -1.88264e-17)
(-0.0364041 0.0691446 -1.01869e-16)
(-0.0176057 2.42847 -2.95482e-16)
(-2.03568 0.381819 -2.26529e-16)
(-0.128481 6.6312 -4.48873e-17)
(-0.364974 -0.445514 5.01405e-16)
(-0.175682 -0.779336 -2.05525e-16)
(-0.41345 6.73203 -8.9366e-17)
(1.28639 1.54114 -8.87847e-19)
(-0.60344 -0.4429 0)
(1.21391 -0.655385 0)
(0.719029 -0.421439 0)
(-2.57015 -0.298382 6.42831e-17)
(-1.30953 -0.302225 -3.67341e-16)
(4.40539 -0.12871 3.09493e-16)
(6.53886 -0.0220729 -7.17916e-18)
(6.62429 -0.125639 3.12451e-16)
(-1.87578 -0.209599 8.48849e-17)
(-1.80539 0.250449 5.11798e-16)
(-1.74698 0.196061 0)
(1.06003 -0.131573 -2.43671e-16)
(1.3897 -0.0673839 0)
(0.200628 -0.00142511 0)
(0.479326 -0.184227 -3.39831e-16)
(-0.603368 0.0182129 0)
(0.808835 -0.0735179 4.59913e-16)
(2.23863 0.111725 4.04959e-16)
(6.62392 0.416962 0)
(1.66956 -0.000789096 0)
(0.33405 0.0359428 4.45331e-16)
(1.06196 0.00534305 4.03486e-16)
(-1.07396 -0.516986 3.35586e-16)
(-0.520182 -0.43751 -2.43499e-17)
(-3.04341 -0.121869 -1.26364e-16)
(3.41214 0.13271 6.81932e-17)
(2.78573 0.0425022 6.84407e-17)
(-0.251493 0.125926 2.54851e-16)
(-2.32612 -0.160896 -2.33308e-17)
(-2.00596 -0.188761 1.55567e-16)
(-0.222187 -0.414593 0)
(-1.76354 -0.572255 0)
(0.901055 0.0457826 1.86771e-16)
(5.60165 -0.421816 1.73501e-16)
(0.976764 -0.110777 8.12683e-17)
(0.281379 -0.333818 0)
(0.219022 0.0231928 -2.81441e-16)
(2.06366 -0.133538 4.41599e-16)
(4.55115 -0.0863426 3.80672e-17)
(0.642801 -0.544967 -4.16227e-17)
(0.608505 -0.870245 -2.95707e-16)
(-0.47187 0.19585 4.73641e-16)
(-3.20914 -0.00252418 -3.9097e-17)
(4.31674 -0.335414 0)
(3.89277 -0.280154 3.28744e-16)
(-1.10613 -0.386737 -1.03182e-16)
(-0.118252 -0.206549 -1.44264e-16)
(1.28063 -0.0144647 0)
(-0.177535 0.266358 -1.15359e-16)
(0.198815 0.339564 3.53594e-16)
(0.542931 0.072829 9.16189e-17)
(-2.76678 0.167896 1.44715e-16)
(3.88052 -0.00740549 0)
(3.62267 0.142372 8.50458e-17)
(-1.96924 0.33596 0)
(0.657866 0.13466 1.43189e-17)
(0.230545 -1.034 1.40883e-16)
(-0.0450763 -0.144877 0)
(10.783 0.0901196 0)
(-1.44694 0.025273 1.49054e-16)
(-1.98703 0.0680939 -5.60847e-16)
(0.395856 -0.362993 -3.85142e-16)
(-0.564331 9.29806 -2.99751e-17)
(-0.466735 -0.721826 3.03003e-16)
(-0.0513699 -1.03088 -1.13378e-15)
(-0.483513 -0.272536 0)
(-0.259949 -0.252772 -8.36723e-16)
(-1.25391 0.922242 -6.17579e-19)
(-0.0434844 0.510723 -2.71673e-18)
(0.697327 0.0351117 1.76778e-16)
(-0.819792 0.310863 9.5209e-17)
(-0.821291 0.366711 -1.00818e-16)
(-0.978585 -0.209494 1.15433e-16)
(0.21216 0.842883 0)
(0.928135 0.0523551 0)
(1.35425 0.0786444 -3.17947e-16)
(0.987635 -0.121531 1.4892e-16)
(1.93306 0.21794 -4.04084e-16)
(9.4295 -0.337661 3.09008e-17)
(0.283284 0.0407853 2.25797e-16)
(0.386327 0.0244609 0)
(6.30431 0.92913 4.78296e-17)
(-0.0302206 1.66515 -2.2604e-20)
(-0.0662367 0.124103 2.69396e-16)
(0.227829 1.10691 -3.74794e-17)
(-0.243574 5.72729 -6.3196e-17)
(-0.128007 6.59568 2.5322e-17)
(0.120693 6.96409 0)
(0.87592 0.468991 1.78858e-16)
(-0.961079 0.322116 2.88151e-16)
(5.10031 -0.0318595 2.07895e-17)
(4.59635 -0.0362379 7.13253e-17)
(0.879684 -0.539045 0)
(0.587113 3.66155 1.85462e-16)
(-2.40313 0.184006 0)
(-0.153224 6.24048 3.98888e-17)
(-0.0605083 6.97257 -6.72083e-17)
(-0.159802 6.83453 3.31714e-17)
(0.0344878 -0.0313253 -1.65274e-17)
(-0.170091 -0.25073 -4.39679e-17)
(-1.55701 -0.016589 0)
(-2.02654 0.0308577 0)
(-0.4113 -0.200044 -2.23436e-16)
(-0.0891736 0.0519137 -2.16316e-16)
(-0.0257887 1.54247 -1.30692e-17)
(-0.116621 -0.129441 6.52097e-17)
(3.94467 0.738394 3.21376e-16)
(10.0119 0.171476 1.33765e-17)
(0.501158 2.11318 -3.30171e-16)
(0.922533 -3.03111 -2.24296e-17)
(1.05045 0.11084 3.30322e-16)
(-0.0245141 0.18667 0)
(0.956093 -0.565915 1.69794e-16)
(0.0712326 -0.389964 -1.10239e-17)
(-1.69965 -0.0803998 -9.63129e-17)
(-2.24979 -0.0705905 1.83177e-16)
(0.0326582 -0.221231 2.82557e-16)
(9.95895 0.097708 -2.60974e-16)
(0.613164 -0.459096 0)
(-0.960144 -0.396486 8.30227e-17)
(1.39195 0.121166 -2.27603e-18)
(-0.0642084 7.73418 -5.88079e-17)
(0.0735634 5.76225 -3.24595e-20)
(-0.624235 0.0966947 0)
(0.357781 -0.333737 2.46942e-16)
(1.19496 0.338614 -8.86265e-17)
(1.39847 -0.0471924 -2.15051e-16)
(0.0670721 1.59706 -6.2336e-17)
(-2.78853 1.41666 4.91733e-17)
(-0.0797507 -0.127194 -6.71136e-16)
(-0.14821 6.30837 -2.90326e-17)
(1.04881 -0.294991 -5.26608e-16)
(0.350534 5.21527 -2.29563e-18)
(-1.63227 -0.410389 -2.24747e-16)
(-0.0902664 5.85324 -3.72001e-17)
(0.99528 6.55912 8.98725e-17)
(-0.124831 -0.155198 -1.36212e-16)
(0.168243 1.42315 -2.13247e-16)
(-0.718518 0.895955 1.8378e-16)
(0.701823 0.0810825 -4.28738e-16)
(8.4219 0.592736 9.61465e-17)
(-0.420905 -0.049957 -2.97229e-16)
(10.547 0.274556 -2.12308e-18)
(2.57848 3.5537 6.29229e-17)
(0.570406 0.0609438 -4.55538e-16)
(0.968154 2.11117 -5.36521e-17)
(0.514041 -0.143499 4.08017e-17)
(6.13771 1.21793 -5.06135e-18)
(1.53662 0.698857 -7.06291e-17)
(-0.156935 -0.00227292 2.8442e-17)
(0.0711657 -0.453303 -2.15501e-16)
(-1.00931 -1.05164 1.17427e-15)
(8.68257 2.56442 -2.76458e-18)
(-0.11836 2.21877 1.72927e-16)
(1.36699 1.09192 1.94901e-16)
(0.098425 1.27999 5.27461e-17)
(-1.1359 0.742684 2.81957e-16)
(-0.224227 -0.239141 0)
(-0.625982 -0.324963 -1.96967e-16)
(-0.543608 -0.0609604 1.19877e-17)
(0.0642205 0.0429584 1.8938e-16)
(3.34187 -0.129745 -4.29339e-20)
(9.83512 0.0354661 0)
(1.3763 -0.0628146 2.32152e-18)
(0.219951 -0.191318 -5.15423e-17)
(-0.0331573 -0.328674 -1.95824e-19)
(-0.0224417 1.27698 1.93389e-16)
(-0.182546 3.73001 -1.58704e-16)
(-0.358342 5.19589 4.88266e-16)
(0.967865 1.06072 8.39568e-18)
(-0.0779689 1.60461 -4.65179e-20)
(0.598404 -0.0429067 2.6513e-16)
(0.950614 0.106204 0)
(-0.194615 -0.2999 0)
(-0.64268 -0.0702398 -3.77535e-17)
(6.75921 0.797377 -1.34935e-19)
(2.91887 2.23554 2.2967e-17)
(8.87538 1.47563 -5.88197e-18)
(10.3915 0.551216 3.38388e-18)
(0.433653 -0.175474 0)
(0.553072 2.81909 0)
(0.23038 1.32193 2.13146e-16)
(-0.0361578 -0.203717 2.6531e-16)
(8.88375 0.499828 -4.60795e-16)
(1.57686 0.684456 0)
(0.896515 0.221105 0)
(-2.06756 0.143225 2.13795e-16)
(0.491182 0.323412 1.52536e-18)
(0.0947985 -0.675794 -1.52164e-16)
(0.821017 -0.360385 2.03812e-16)
(0.237155 -0.436782 -1.02192e-16)
(0.192877 6.14704 -3.37714e-17)
(-0.297347 7.45595 -1.4558e-17)
(0.672157 -0.280493 -2.68526e-16)
(9.93521 0.170668 -6.90482e-17)
(9.431 -0.0610811 3.46965e-18)
(-0.0254285 -0.0888443 1.84727e-16)
(0.42235 1.43859 -3.90229e-17)
(1.95809 2.42783 -1.09221e-17)
(-0.651509 8.51569 -1.39446e-16)
(-0.157679 0.00228174 1.11325e-15)
(-0.404747 0.730971 7.09993e-18)
(0.687999 0.584292 0)
(5.52431 3.78187 6.7714e-17)
(0.215885 1.64793 1.05918e-16)
(-0.0334209 0.130354 2.11616e-20)
(-0.826391 2.22595 1.89099e-16)
(-0.53875 -0.154137 0)
(10.8036 0.104748 0)
(-0.252211 -0.544183 -6.85639e-17)
(-0.341926 0.153187 0)
(-0.137653 -0.128563 9.24798e-17)
(10.0392 0.0677295 -1.09002e-16)
(4.63657 -0.03776 7.89101e-17)
(-0.405857 -0.0105657 1.30824e-16)
(6.8278 0.0187948 9.89825e-17)
(-0.0439619 -0.0579547 1.0821e-16)
(-0.794495 -2.50897 1.96316e-16)
(0.0593401 1.67571 1.93582e-16)
(0.927928 6.72571 -1.06674e-16)
(0.30471 -0.409099 -8.33965e-17)
(-0.6868 -0.365278 0)
(9.73308 0.847784 0)
(0.825982 2.83683 -2.8289e-16)
(-0.328738 -0.137554 -2.16327e-16)
(-0.0445052 0.0064353 8.17692e-16)
(0.918323 4.89121 -2.79431e-17)
(0.767293 0.0749075 0)
(0.572326 0.0578094 -4.90655e-16)
(1.28433 2.04412 -1.44966e-16)
(-0.395866 0.148398 1.86323e-16)
(0.777429 0.117466 0)
(-0.341023 2.44579 0)
(0.00160129 0.180189 0)
(0.264926 1.55048 -1.67119e-16)
(0.962613 2.11234 7.9034e-18)
(9.91507 2.79712 -2.52515e-18)
(0.651386 0.0249452 0)
(5.23306 1.25112 0)
(0.473463 -0.0984692 -1.03525e-16)
(1.09537 6.63832 7.57616e-17)
(1.58053 0.3741 0)
(-0.110554 -0.205153 4.89374e-16)
(0.395883 -0.0442662 7.82815e-20)
(0.0361227 -0.372268 -1.86855e-16)
(1.07743 0.0217099 0)
(7.95432 0.609439 -6.61088e-17)
(-1.566 0.666703 -1.59188e-16)
(0.590514 3.02895 7.51428e-17)
(0.0143324 3.93442 0)
(0.986523 3.66911 -1.02419e-17)
(9.96739 0.264063 -2.08011e-17)
(2.55683 2.88925 -4.09807e-18)
(-0.363519 5.25522 -1.41125e-16)
(0.365224 1.99098 -2.43418e-16)
(-0.331026 3.29436 -4.81653e-16)
(-0.332187 6.7033 9.37506e-19)
(0.354829 6.24564 5.2469e-17)
(2.53525 2.61188 0)
(11.0661 -0.232331 2.01866e-17)
(-2.73043 -0.18974 1.41468e-16)
(8.80348 0.833453 -1.22181e-16)
(-0.10315 0.204313 1.9467e-16)
(-0.147357 6.34392 0)
(-0.0538799 6.66599 -5.51411e-17)
(-0.211311 4.86322 1.92993e-16)
(0.967573 0.180902 -7.50292e-18)
(-0.219576 0.383085 6.36678e-17)
(0.712741 0.618577 6.81917e-18)
(-0.271393 6.5672 -2.9324e-17)
(0.249009 5.98048 -3.35166e-17)
(2.05359 8.81111 5.79656e-17)
(0.476347 0.161108 1.96505e-17)
(10.1352 0.166008 0)
(1.01289 -0.232102 4.65026e-16)
(-0.288412 0.29439 -1.1223e-16)
(0.243153 -0.204602 -4.06031e-16)
(7.40414 0.594718 1.7461e-17)
(0.136673 5.96807 -5.30133e-17)
(-0.156065 6.79826 1.95362e-16)
(1.12263 -0.438496 -2.93571e-19)
(-0.368418 0.0725034 -1.24977e-16)
(1.00287 6.75113 0)
(1.2792 -0.0937441 0)
(-0.0661843 -0.156555 -2.21825e-17)
(-0.306872 2.67299 0)
(3.12651 4.36952 -5.93928e-17)
(4.36986 3.25847 0)
(1.10753 5.57669 -1.64584e-16)
(0.098251 0.970054 6.72795e-17)
(0.711104 -0.252346 4.13855e-16)
(1.45584 0.0228838 4.48029e-17)
(7.08656 0.646782 -1.54813e-17)
(3.7937 -0.00495875 -2.4196e-16)
(7.74941 0.139023 -2.9674e-16)
(1.73612 0.406113 0)
(0.235645 1.29041 -8.34858e-17)
(5.018 2.8812 1.65661e-16)
(3.53588 1.61105 -7.58995e-17)
(0.0866916 0.0454174 -3.81112e-16)
(0.333234 1.24887 5.93481e-16)
(-0.448565 0.584109 3.69953e-17)
(0.376336 0.202811 -5.31985e-16)
(1.17496 2.08219 1.34363e-22)
(0.912666 1.17038 -2.50699e-16)
(-0.452086 0.0749246 2.03865e-16)
(-0.149358 -0.301241 1.19009e-16)
(-0.160813 1.22407 0)
(0.124415 0.482519 -8.11508e-17)
(-0.12725 -0.0956504 -9.62792e-17)
(0.376159 1.33711 3.09141e-16)
(-0.64873 -0.287402 -1.07785e-16)
(1.44873 8.85255 -3.62907e-17)
(10.6582 0.423549 -7.56446e-17)
(-0.829789 0.0147767 9.91977e-17)
(0.194555 2.23903 -5.32079e-17)
(-0.0561813 -0.29536 -1.60013e-16)
(8.74452 0.168106 3.64043e-16)
(3.88135 -0.130952 -2.50726e-17)
(0.0288357 6.60628 3.67016e-18)
(4.0955 -0.153736 2.57866e-16)
(-0.109921 4.8602 -1.81642e-16)
(0.107081 5.23061 9.83762e-17)
(7.27934 0.27787 0)
(0.0226882 -0.176906 -1.26801e-16)
(0.0288462 0.0302931 3.20136e-17)
(-0.507356 -0.133458 0)
(1.08261 1.2373 -1.68286e-16)
(-0.139334 -0.466031 6.65116e-17)
(1.07404 0.353071 2.82527e-16)
(0.914145 0.110173 3.1047e-16)
(3.73169 0.165562 -4.28684e-17)
(8.96457 0.353861 -1.11849e-18)
(0.739832 1.46596 -1.76946e-16)
(-1.73442 0.226035 2.65145e-16)
(-0.434518 0.26523 -3.46924e-16)
(0.494473 0.386895 1.16316e-16)
(-0.531829 -0.286339 0)
(-0.306763 -0.348155 -1.2657e-17)
(-1.88131 0.881653 -2.96679e-16)
(0.0330272 1.18816 -1.84357e-20)
(-0.000447806 5.44709 3.13133e-17)
(0.210386 5.58837 -2.87771e-18)
(-0.229151 4.97262 -1.20077e-16)
(0.430304 5.73958 3.33514e-17)
(1.9861 4.57385 -1.47024e-16)
(7.01229 0.325497 7.33584e-17)
(0.473943 1.05059 0)
(10.5748 0.902344 0)
(-2.03832 0.154809 3.59128e-16)
(-0.525719 0.334314 6.20337e-16)
(0.0851838 5.90704 1.61777e-16)
(-0.0700089 6.93893 -1.3135e-16)
(0.462912 0.0918046 1.43584e-16)
(1.19724 5.82569 -4.29712e-17)
(0.427159 0.414209 5.29273e-17)
(-0.305625 0.682464 2.40995e-17)
(0.386575 -0.0485695 1.42349e-19)
(-0.208086 -0.275278 -7.11258e-17)
(-0.541081 -0.153853 -1.14835e-17)
(1.11969 2.37787 -5.87632e-17)
(3.3324 -0.0741713 -4.24792e-16)
(0.31454 3.65647 7.14691e-18)
(-0.304453 -0.44275 1.68002e-16)
(0.587434 0.107251 0)
(0.536469 -0.242876 0)
(-0.228723 4.34189 0)
(0.811192 6.15957 2.35277e-16)
(1.20867 8.69211 2.42298e-16)
(-0.168891 6.27711 2.5699e-16)
(0.163829 -0.272591 4.26611e-17)
(5.90965 3.30718 -4.00867e-17)
(0.348223 0.122555 0)
(-0.0157962 0.635983 1.00274e-16)
(-0.496209 -0.375609 3.66618e-17)
(10.5449 0.0579517 -7.87308e-18)
(0.184716 -0.133535 -1.16658e-16)
(-1.48904 0.115629 3.45683e-18)
(-0.663773 -0.105119 -1.71011e-16)
(8.97608 0.388548 -2.09895e-17)
(0.896462 1.75448 0)
(3.4818 1.21538 -3.62522e-16)
(3.54764 0.981646 2.16382e-16)
(-0.577806 -0.156006 0)
(-0.0227506 -0.430826 7.7462e-17)
(1.27202 2.3037 -2.66832e-16)
(8.6283 0.165262 0)
(1.77345 5.91027 -4.75337e-16)
(-0.184933 5.66266 -1.44994e-16)
(0.123786 2.77149 0)
(1.17503 0.549773 0)
(11.3973 0.281859 4.58531e-17)
(10.3749 0.367791 3.53273e-17)
(8.89187 1.05634 1.9204e-18)
(5.25086 2.11414 -7.5693e-21)
(0.418112 2.59202 0)
(1.34605 0.632406 2.11287e-16)
(2.47231 7.22228 -2.96179e-17)
(4.41573 -0.0649948 0)
(0.0864147 -0.648407 -4.9253e-16)
(3.54677 2.3584 2.24478e-17)
(0.765792 1.44668 -1.18572e-16)
(9.39852 0.946769 -5.38273e-17)
(10.8817 0.0440644 8.19785e-17)
(1.62793 1.85514 -1.89559e-16)
(9.92232 0.427856 -1.63136e-17)
(-0.0482977 5.92533 1.82425e-16)
(0.813633 9.20219 4.13014e-17)
(0.610378 6.87552 -1.0547e-16)
(6.70308 3.58189 0)
(0.229873 -0.202055 1.69588e-16)
(-0.316238 -1.34114 -1.74553e-16)
(1.51699 0.101329 2.94429e-17)
(-0.00943198 0.0747287 1.42076e-16)
(0.0903794 6.87781 1.13698e-20)
(-0.0931824 7.00743 2.65554e-19)
(0.536235 5.92319 7.72423e-17)
(0.335122 0.551264 0)
(-0.405011 -0.0323682 0)
(0.840752 -0.448875 1.04825e-16)
(0.674268 0.899576 1.66891e-16)
(-0.102225 5.20121 -1.14136e-16)
(-0.023352 5.59477 -3.73995e-18)
(-0.235144 2.40611 0)
(0.0980867 1.02569 -4.57813e-17)
(10.1026 0.109733 9.01119e-17)
(-0.73611 0.417549 0)
(1.40022 1.79046 -3.57693e-16)
(-0.360691 -0.335188 7.86029e-17)
(0.938107 -0.34248 2.59256e-16)
(0.153144 6.05419 7.26097e-17)
(-0.225854 7.20741 1.44336e-16)
(9.62584 0.95501 0)
(0.264046 7.37758 -3.70062e-17)
(-0.0109942 5.84744 -3.70806e-17)
(9.54174 1.18043 -9.9626e-17)
(1.64855 -0.080732 -8.83098e-20)
(7.37084 1.91277 6.69927e-18)
(-0.300732 6.38365 -1.49507e-20)
(0.0188667 5.52102 0)
(0.00109678 5.59151 2.99144e-18)
(-0.337911 4.8549 -1.02683e-16)
(0.693896 5.48824 -4.08766e-17)
(3.5324 4.10657 1.47657e-16)
(1.00236 2.39459 3.53185e-17)
(-0.161582 6.58615 2.28642e-16)
(0.00743385 6.84441 0)
(-0.274429 5.37525 -1.46477e-16)
(0.895869 1.34752 3.25746e-17)
(-0.0340349 -0.341745 -1.55803e-16)
(0.0381007 0.232703 8.43168e-17)
(0.0951922 0.151579 4.9179e-18)
(-0.351961 0.824205 1.30799e-16)
(0.354184 0.181749 0)
(1.33604 3.61704 1.2774e-17)
(-0.135932 0.263645 -2.94197e-17)
(0.584986 0.0160258 -1.28324e-16)
(8.861 0.658079 -7.49303e-19)
(-0.307504 1.39671 -4.19622e-17)
(-0.0151328 0.0197502 -3.1225e-16)
(0.295555 1.62406 -1.70735e-16)
(-0.313429 6.25388 -2.24477e-16)
(0.435374 6.22909 0)
(0.588314 0.174045 2.54692e-16)
(-0.320656 6.40006 9.49287e-17)
(0.398982 5.97687 2.5925e-17)
(-0.764117 0.242098 -8.74608e-17)
(3.45041 3.58721 -1.55894e-16)
(-0.860844 -1.34738 5.07966e-16)
(-0.766032 -1.1217 5.97168e-16)
(0.680904 0.429907 -2.92721e-16)
(0.512573 5.74646 2.62457e-16)
(0.014449 1.55371 -3.57667e-16)
(-0.999422 -0.297343 -1.99657e-16)
(-0.0733934 -0.130116 -1.5201e-16)
(1.20238 9.21877 0)
(9.89442 0.109182 0)
(0.0578457 0.0877553 -3.08443e-16)
(-0.649214 -1.01986 1.67956e-16)
(0.31491 0.0671529 -8.21764e-17)
(-0.64357 0.590828 0)
(0.474804 -0.113317 1.2457e-16)
(0.553861 -0.0205939 -3.08468e-20)
(0.679693 0.394724 -6.38993e-16)
(3.9947 0.0739991 2.32582e-16)
(1.05831 5.02132 1.17706e-16)
(-0.259026 6.10409 -3.19021e-16)
(1.43591 -0.486482 3.95894e-16)
(0.644516 0.660861 -1.75219e-16)
(9.71405 0.938471 -1.40382e-17)
(0.517128 3.19471 2.15145e-16)
(0.679566 0.011936 2.0108e-16)
(1.17711 0.50993 0)
(-0.918443 0.766846 5.66134e-17)
(2.04562 1.36783 -7.62958e-16)
(0.296532 1.29207 -2.51086e-17)
(0.00468053 0.168621 3.49969e-16)
(0.0793299 2.65379 2.71706e-17)
(8.49793 0.561802 -1.19774e-16)
(10.4274 0.357885 -2.58387e-19)
(-0.413602 -0.034582 1.98441e-16)
(11.0739 0.0518018 0)
(0.479434 -0.0619221 -5.31771e-18)
(-0.17564 -0.0491425 2.76085e-18)
(-0.320738 -0.511155 -1.96255e-17)
(0.00412971 6.59809 4.25665e-17)
(-0.143419 6.29975 4.26742e-17)
(0.0129085 5.01088 1.83339e-17)
(10.5288 0.0394537 1.49328e-17)
(-0.343971 -0.54355 9.87116e-21)
(-0.539798 7.55848 -4.94256e-17)
(-0.193914 -0.0969578 1.3251e-20)
(-0.096601 0.497032 0)
(9.03976 1.56285 -4.57073e-18)
(0.0471231 0.10996 0)
(-0.359948 0.28433 1.01503e-16)
(-0.199689 0.270818 9.33825e-17)
(0.0394071 0.875406 5.13606e-18)
(0.638207 0.26409 2.51562e-16)
(-0.517894 0.269 3.73748e-16)
(9.39043 0.601913 -1.85161e-17)
(-0.00735313 -0.331874 2.81254e-16)
(1.09764 -0.934382 3.21907e-16)
(9.55583 1.11424 1.02287e-16)
(9.75776 0.295486 4.28812e-17)
(5.93517 2.98099 2.74184e-17)
(0.151324 5.8696 -5.25339e-17)
(-0.0858249 6.59965 2.50278e-17)
(0.116185 2.43836 1.37611e-16)
(0.152054 1.85726 0)
(4.07948 0.696639 4.85515e-17)
(5.61463 3.05022 8.83385e-17)
(9.52364 -0.249074 -1.96351e-17)
(0.553475 0.668303 1.24827e-16)
(0.387524 -0.524717 2.63546e-16)
(0.142469 0.0785546 0)
(8.87633 1.7279 0)
(1.07591 2.34901 0)
(1.00566 1.7978 3.15271e-16)
(-0.430801 0.0736774 9.18191e-17)
(2.41036 4.40223 2.14578e-16)
(-0.213316 5.09679 3.11827e-17)
(1.50031 7.34026 -5.82623e-17)
(0.176726 0.19585 0)
(-0.340021 -0.324929 9.98877e-17)
(0.227419 5.33058 -1.37435e-16)
(-0.498601 0.256561 -8.25748e-16)
(11.2621 0.114801 1.0008e-16)
(5.64744 1.14684 0)
(-0.176896 0.199106 2.24885e-16)
(0.970959 5.75324 0)
(0.469556 -0.0160382 1.66675e-16)
(-0.086276 -0.240681 -2.49109e-17)
(0.949547 10.0926 6.06634e-17)
(9.91398 1.12222 -1.39382e-17)
(9.88827 0.712153 1.06386e-16)
(-0.922773 0.318718 0)
(1.14797 2.64068 -5.70357e-17)
(-0.375679 -0.0353729 0)
(8.67225 0.337689 0)
(0.835159 0.308306 -1.41981e-16)
(-0.198713 -0.404298 2.39404e-17)
(-2.80638 4.34684 -1.37686e-16)
(2.85099 0.786858 -1.26874e-16)
(0.539924 1.46162 1.77897e-16)
(10.2871 0.104897 -2.59421e-20)
(5.89212 3.52458 -8.00917e-17)
(0.680629 -1.74967 -2.39908e-19)
(0.0400019 5.72835 6.54628e-17)
(-0.0573348 6.2288 -5.43942e-17)
(0.675628 2.17505 -1.25352e-16)
(1.20351 6.0282 -2.57582e-16)
(1.13147 1.66641 -1.34334e-17)
(-0.138525 -0.207504 -4.23282e-16)
(-0.0778537 1.39591 -1.98541e-16)
(0.768802 0.791782 6.83238e-17)
(0.913133 0.00931144 2.16596e-16)
(0.490118 0.345088 -2.95651e-16)
(0.267994 1.27446 -5.37477e-16)
(-0.127592 0.0355557 -4.91409e-16)
(6.91915 4.19739 3.31996e-18)
(0.602991 1.20492 5.80448e-16)
(10.0833 0.0439374 -6.59037e-17)
(0.808909 0.229295 0)
(-0.241274 2.5508 -2.57182e-21)
(4.15234 -0.716087 -1.032e-16)
(-0.0839725 2.76744 0)
(10.1168 0.430153 4.12713e-17)
(-0.445494 0.0424516 3.1881e-16)
(0.404873 0.000165427 -2.8432e-16)
(9.43963 2.1246 0)
(0.162791 6.30907 -1.22304e-20)
(-0.346288 7.51242 0)
(10.0408 0.0894363 0)
(0.670967 0.248926 -5.33e-17)
(9.92589 1.51638 -5.29183e-17)
(9.0272 4.00118 -1.87099e-16)
(1.18515 6.60712 2.41725e-17)
(7.32957 2.10496 -1.10039e-16)
(-0.103692 3.7877 -7.76676e-17)
(0.0238007 3.31164 3.42078e-20)
(-0.00348529 4.16886 -8.07441e-17)
(-0.135315 -0.452511 0)
(-0.107705 2.40777 1.15778e-16)
(-0.0240625 -0.533655 0)
(0.588157 0.986121 0)
(0.458689 0.282996 0)
(0.126865 -0.663361 -2.13958e-16)
(-0.0958933 -0.136655 0)
(0.0234975 1.088 1.26418e-16)
(2.84638 2.57581 -2.8992e-16)
(0.570998 3.34269 0)
(-0.58165 5.21784 1.65249e-16)
(-0.194582 6.34287 -2.53349e-17)
(-0.0309597 6.92016 8.68704e-17)
(-0.143499 6.73653 -4.25983e-17)
(0.952856 1.51477 2.73203e-16)
(9.41063 1.05453 -2.81024e-17)
(0.291407 1.26783 2.21731e-17)
(0.00171884 0.1135 -9.97219e-17)
(0.297015 0.714475 0)
(0.972604 -0.142858 -3.09954e-20)
(4.7962 1.92843 0)
(0.58292 -0.060287 3.33654e-21)
(3.61339 0.127832 -4.82611e-16)
(10.0591 0.0540861 3.62261e-17)
(-0.558426 7.66101 1.2353e-16)
(-2.48449 2.50957 -3.1097e-16)
(0.0245264 1.4151 0)
(-0.0433746 -0.271167 1.15506e-15)
(5.03801 2.77723 -3.33177e-17)
(11.4285 0.444348 0)
(9.80162 0.210373 2.57518e-17)