/*--------------------------------*- C++ -*----------------------------------*\
| =========                 |                                                 |
| \\      /  F ield         | OpenFOAM: The Open Source CFD Toolbox           |
|  \\    /   O peration     | Version:  v1912                                 |
|   \\  /    A nd           | Website:  www.openfoam.com                      |
|    \\/     M anipulation  |                                                 |
\*---------------------------------------------------------------------------*/
FoamFile
{
    version     2.0;
    format      ascii;
    class       volScalarField;
    location    "0.7";
    object      k;
}
// * * * * * * * * * * * * * * * * * * * * * * * * * * * * * * * * * * * * * //

dimensions      [0 2 -2 0 0 0 0];


internalField   nonuniform List<scalar> 
1466
(
0.0685507
0.0551407
0.0320479
0.0521126
0.26119
0.295865
0.176394
0.225817
0.557259
0.129604
0.266618
0.138316
0.0115939
0.067201
0.0531413
0.0871218
0.0486268
0.0490556
0.415929
0.0584021
0.0965288
0.263816
0.0462661
0.0602443
0.0715891
0.119105
0.18568
0.111612
0.116077
0.134244
0.240743
0.347289
0.245705
0.167416
0.0411284
0.0543561
0.0420755
0.0470156
0.445784
0.230556
0.137438
0.129368
0.454844
0.239322
0.121748
0.299926
0.0542113
0.0448279
0.126626
0.09395
0.0368963
0.116628
0.18829
0.263044
0.134502
0.190248
0.0422758
0.0833739
0.0956502
0.201675
0.0840712
0.112868
0.219947
0.303368
0.0628954
0.0568052
0.170716
0.0900844
0.0564878
0.212903
0.0779545
0.0562369
0.0426275
0.0650505
0.0315585
0.162961
0.0673603
0.0537416
0.15413
0.196393
0.0492811
0.0615808
0.0537729
0.117694
0.0452472
0.0772767
0.0498402
0.0614056
0.0507184
0.0426355
0.0513358
0.0474354
0.174016
0.0539101
0.0340532
0.0802175
0.0807774
0.100749
0.0571461
0.0501403
0.147395
0.129394
0.0260707
0.0450719
0.0567041
0.422191
0.077619
0.0560449
0.0914515
0.0720119
0.0766137
0.0574357
0.0576183
0.0467341
0.0132648
0.81077
0.0491644
0.0585529
0.0463701
0.0841742
0.0738418
0.0540734
0.0324382
0.0509006
0.0524818
0.171812
0.0377367
0.0322253
0.183551
0.616188
0.0827608
0.0642874
0.0302343
0.151
0.0433717
0.17541
0.129478
0.0491463
0.114167
0.0385415
0.0961462
0.0448875
0.192088
0.136784
0.11553
0.0499012
0.0267523
0.0330834
0.125493
0.0438958
0.178071
0.0542818
0.0396905
0.0715035
0.0569677
0.227248
0.055386
0.853154
0.0713611
0.0315402
0.122941
0.0511255
0.0522184
0.0803224
0.134827
0.152178
0.631536
0.0280107
0.0661587
0.214935
0.0767106
0.0723805
0.0439534
0.101698
0.142096
0.0609949
0.139286
0.201284
0.0579784
0.190734
0.0523572
0.067006
0.0870243
0.053508
0.0578494
0.0557426
0.0679803
0.717224
0.0590216
0.0350337
0.03387
0.0537467
0.0534451
0.0617357
0.0625056
0.0579586
0.113109
0.0713724
0.0623172
0.0628079
0.388296
0.0812161
0.0572197
0.0639144
0.0635647
0.143629
0.0690573
0.177654
0.0530775
0.0765413
0.0782712
0.503125
0.0691157
0.0454754
0.0505863
0.0643382
0.0259754
0.0231201
0.0608962
0.0583152
0.584937
0.054384
0.0713656
0.0535823
0.0948154
0.0554647
0.053957
0.0918974
0.0428606
0.645268
0.0487199
0.0634546
0.0578337
0.0720376
0.0520472
0.0764702
0.0642724
0.163317
0.0635619
0.0801687
0.597656
0.0660419
0.0500492
0.126823
0.145991
0.027245
0.0525471
0.04243
0.0208566
0.0340677
0.0596978
0.211678
0.130086
0.0577434
0.0547521
0.211572
0.054205
0.560992
0.79524
0.1689
0.0456279
0.0454199
0.255454
0.0305373
0.309496
0.0581505
0.542229
0.237612
0.0818628
0.0577383
0.201422
0.0526489
0.0507682
0.0506806
0.0456758
0.1058
0.0463645
0.0583377
0.0350362
0.148146
0.0767797
0.0189388
0.0390391
0.0332163
0.104927
0.046771
0.113488
0.0561728
0.558247
0.0494043
0.0549078
0.558354
0.110645
0.149126
0.120742
0.108992
0.677548
1.19693
0.079866
0.0445124
0.0538328
0.618674
0.0458005
0.105963
0.0701354
0.0624609
0.0460003
0.0823134
0.0216006
1.12267
0.709129
0.0315327
0.0985138
0.106655
0.108224
0.0663274
0.205637
0.105144
0.128676
0.0468683
0.0645422
0.14873
0.0839541
0.0443445
0.0280417
0.0380877
0.0211646
0.0541307
0.100546
0.0266705
0.0394729
0.0426892
0.0318532
0.0178383
0.0325916
0.0435798
0.0326546
0.0643378
0.0286345
0.0312193
0.0427822
0.0457739
0.0195285
0.0192984
0.0462298
0.0440179
0.0364778
0.0412007
0.0710632
0.669591
0.1491
0.0476679
0.165224
0.0965727
0.0876393
0.0651505
0.318769
0.0391078
0.867491
0.129868
0.456701
0.175194
0.127843
0.0173875
0.0377721
0.0518744
0.0185382
0.0567477
0.0440135
0.0397888
0.0371567
0.0378495
0.0333288
0.0427672
0.0206022
0.0371187
0.0285562
1.13943
0.0474069
0.0404424
0.0514051
0.0797893
0.118957
0.0318495
0.0740438
0.122897
0.0712354
0.0953036
0.0532616
0.107333
0.145817
0.364159
0.0873414
1.15568
0.0277482
0.0558886
0.100878
0.0854354
0.0552839
0.0264924
0.0455768
0.0999353
0.0872183
0.0490664
0.139369
0.112496
0.175794
0.764526
0.0988265
0.0667494
0.0985884
0.083054
0.0328962
0.0458956
0.979873
0.195595
0.191699
0.12303
0.129261
0.166515
0.107979
0.056251
0.258067
0.227888
0.237145
0.229606
0.22642
0.24817
0.219879
0.221655
0.128304
0.0867105
0.201351
1.03675
0.518104
1.15966
0.985779
0.232449
0.22183
0.395542
0.413698
0.0887876
0.844709
0.120489
0.276916
0.91069
0.613063
0.689835
1.3554
0.111301
1.37746
0.893847
0.114003
0.1352
0.961336
0.194646
0.731756
0.838521
0.110385
0.101573
0.874925
0.185443
0.149768
0.094297
0.834612
0.357744
1.16477
0.0940943
0.0821492
0.0481099
1.03825
0.162755
0.0873584
0.150261
0.316635
0.253781
0.0802282
0.0610314
0.347309
0.320234
0.0721137
0.10233
0.294572
0.10709
0.278302
0.0666112
0.0988193
0.0462704
0.246716
0.13058
0.25367
0.071772
0.106093
0.054695
0.093641
0.348163
0.315738
0.895211
0.356955
0.382091
0.0630796
0.0970755
0.0459656
0.0702736
0.0657206
0.103193
0.14053
0.128511
0.18849
0.186126
0.557287
0.271842
0.441137
0.096386
0.0870307
0.317778
0.0658341
0.092835
0.111598
0.0939849
0.121842
1.02843
0.697807
0.42163
0.32596
0.114949
0.775674
0.628365
0.0507718
0.0605669
0.107829
0.114303
0.138706
0.152791
0.0922279
0.786058
0.141562
0.980786
0.0853096
0.0892576
0.875473
1.04506
0.679147
0.986539
0.210985
0.0713117
0.0217044
0.993586
1.05819
0.0601755
0.0944511
0.0502764
1.0885
0.192547
0.135453
0.760826
0.100596
0.0703044
0.192818
0.542421
0.088635
0.0664698
0.16281
0.891204
0.141697
0.195737
0.0688493
0.078203
0.232894
1.02934
0.0464347
0.365865
0.267219
0.128202
0.0285121
0.246185
0.161161
0.0806786
0.334751
0.321105
0.0713166
0.0747796
0.176982
0.0979392
0.0546004
1.45635
0.314735
0.0713238
1.19878
0.452386
0.022943
0.0466742
0.12953
0.0298993
0.0614244
0.0847891
0.148304
0.167901
1.09658
0.10603
1.31342
0.0564013
0.0876347
0.0262871
0.100713
0.24458
0.190515
0.0990344
0.922069
0.958777
0.187076
0.51569
0.55307
0.713066
0.0332054
0.100941
0.946767
0.07551
0.476211
0.0499335
0.0633552
0.0726235
0.310149
0.143047
0.0610644
0.166453
0.0848108
0.0779758
0.0791875
1.22576
0.24647
0.918531
0.0308972
0.0207715
0.122492
0.185137
0.109249
1.1241
0.0579614
0.0759599
0.0804887
0.724946
0.043526
0.357783
0.151184
0.148473
0.0289256
0.63096
0.683869
0.0795568
0.0689618
1.28852
0.169925
0.825734
0.0845151
0.250683
0.515339
0.113312
0.077931
0.0307671
0.0867371
1.12891
0.135054
0.212686
0.578586
1.16079
0.260912
0.0543972
1.23524
0.110117
0.073745
0.0436551
0.0502009
0.0273993
0.0247235
0.0452063
0.404694
1.18409
0.0533806
0.110184
0.0563873
0.056733
0.0287007
0.0270846
0.110429
0.0691756
0.207472
0.105915
0.0272482
0.0597808
0.0554167
0.0661926
0.269478
0.0990375
0.937421
0.0528139
0.168621
0.0523833
0.0828158
0.203652
0.432332
0.0265289
0.173922
0.820043
0.190535
0.0583406
0.20193
1.25902
0.359537
0.055548
0.0663862
0.0150624
0.0838457
0.0525821
0.0771693
0.0550355
0.187869
1.05742
0.0576016
0.240954
0.120516
0.17066
0.085146
0.184491
0.927673
0.0538482
0.142548
0.0822406
0.598476
0.100386
0.454593
0.038286
0.147338
0.0357216
0.0271585
0.765064
0.0435429
0.019632
0.0869097
1.37279
0.0174601
0.0503718
0.013243
0.0331816
0.0252341
0.132395
0.0370605
0.0262542
0.451713
0.155757
0.0289823
0.0553257
0.0395308
0.140858
0.16369
0.0675174
0.910395
0.665885
0.0270329
0.0507963
0.0587294
0.027792
0.094936
0.0378335
0.052536
0.597692
0.225888
0.0577809
0.0265598
0.0339952
0.171471
0.384367
0.240889
0.0249403
0.131865
0.0594722
0.0578828
0.163785
0.0619985
0.441178
0.489259
0.7264
0.0167694
0.0341444
0.152657
0.101457
0.0555627
0.0779498
0.37628
0.0492719
0.0590435
0.0522939
0.0429771
0.0582533
0.0390831
0.514085
0.682162
0.0912321
0.251974
0.0374557
0.0233279
0.110081
0.067028
0.0329803
0.0266722
0.0273504
0.635276
0.0489111
0.0470588
0.253488
0.719688
0.0161309
0.0629128
0.591689
0.0691604
0.369583
0.0579839
0.026298
0.0619687
0.491472
0.627271
0.0479629
0.176172
0.20428
0.0370604
0.0379843
0.0972399
0.0538312
0.0749804
0.0406214
0.0561151
0.173654
0.0388836
0.164994
0.0599717
0.0394613
0.311033
0.115826
0.0490919
0.252058
0.0236088
0.0656378
0.13054
0.585671
0.0381998
0.164549
0.185839
0.175029
0.213598
0.186326
0.778757
0.0853381
0.128713
0.730721
0.0333485
0.0495541
0.0961282
0.0557974
0.0304913
0.0590819
0.439514
0.0310921
0.968874
0.0627838
0.075218
0.0515425
0.0600844
0.0519908
0.157529
0.0307216
0.0836068
0.0467536
0.531259
0.21561
0.0336468
0.0649487
0.0596976
0.0645899
0.621366
0.137633
0.062538
0.0327122
0.307342
0.102536
0.0657702
0.0320741
0.0769944
0.289428
0.177835
0.302528
0.0656052
0.0706502
0.0472656
0.0577932
0.079336
0.662236
0.120962
0.146327
0.282216
0.0890382
0.064508
0.107244
0.0906697
0.0773946
0.169
0.0551293
0.079968
0.0511518
0.162537
0.0265106
0.0899621
0.0702953
0.361964
0.0404293
0.113833
0.0215479
0.131884
0.0530107
0.0635907
0.0696759
0.0589972
0.0565544
0.519236
0.748021
0.765951
0.0660073
0.0818486
0.0663007
0.1358
0.15779
0.0584677
0.0628964
0.103875
0.222823
0.0212553
0.676632
0.0876523
0.244507
0.0598201
0.0240949
0.0224225
0.0214722
0.021007
0.0292476
0.0262436
0.0299558
0.0290939
0.0273918
0.0275641
0.0277278
0.0285798
0.0285509
0.0271099
0.0716675
0.0254295
0.0236061
0.137954
0.0178268
0.141892
0.0351255
0.0294093
1.16992
0.110613
0.0900616
0.0628504
0.0269266
0.703203
0.0552415
0.0393579
0.0781711
0.0542518
0.111057
0.0411548
0.0547336
0.112124
0.053643
0.0839108
0.0572098
0.0327859
0.0880087
0.682266
0.54476
0.686959
0.764546
0.088248
0.0332455
0.117296
0.0569049
0.0650938
0.0905113
0.0938587
0.0861804
0.0546146
0.0396969
0.486582
0.0648307
0.0463842
1.32448
0.654475
0.597477
0.0537237
0.0485669
0.22941
0.0781027
0.152534
0.0741757
0.0817078
0.456245
0.0925605
0.0379746
0.0654967
0.050484
0.0468209
0.161248
0.0487104
0.0858863
0.0870506
0.0609505
0.0720794
0.29862
0.0495974
0.0526817
0.246408
0.162208
0.206365
0.113889
0.20488
0.11624
0.280285
0.339586
0.0914763
0.026236
0.830452
0.0498057
0.0467366
0.261478
0.57235
0.0184179
0.0568114
0.476588
0.580066
0.0129852
0.0760068
0.0717656
0.113408
0.131018
0.0850521
0.0125251
0.199495
0.0885248
0.0625285
0.0425026
0.0974461
0.769225
0.0584296
0.140409
1.16131
0.0541537
0.04526
0.474334
0.635009
0.0514979
0.0317187
0.0192655
0.0820351
0.0625772
0.0448431
0.907483
0.0939815
0.139725
0.0584865
0.0446724
0.0770814
0.0617913
0.787729
0.066391
0.105933
0.17927
0.0277651
0.112944
0.188499
0.0447938
0.0528328
0.429245
0.0269503
0.135316
0.716744
0.131655
0.0302388
0.0679249
0.370443
0.19317
0.0812889
0.782585
0.0352307
0.0439649
0.179542
0.224667
0.121882
0.0868671
0.0458522
0.0471656
0.0761797
0.425176
0.120215
0.0348503
0.0162988
0.0531173
0.0858525
0.0526783
0.185723
0.13812
0.0575548
0.0550283
0.324765
0.0497196
0.0547321
0.0439972
0.0368069
0.0811094
0.0344467
0.0243688
0.15209
0.0412637
0.035898
0.0388175
0.0342615
0.0482187
0.0432905
0.24711
0.0349499
0.117811
0.0496885
0.211376
0.037086
0.0475097
0.150212
0.0487779
1.30642
0.0964731
0.05135
0.100535
0.0633928
0.0870184
0.0764134
0.266122
0.0132268
0.071859
0.190051
0.0569481
0.0731505
0.0472147
0.0416885
0.0653249
0.0432137
0.102788
0.0449052
0.0348954
0.283063
0.0499522
0.0313719
0.376738
0.658146
0.0437205
0.176432
0.0297621
0.0413614
0.0856287
0.036325
0.0586581
0.0473689
0.0844398
0.701049
0.042718
0.0500082
0.277953
0.331824
0.101017
0.080462
0.0822439
0.0569796
0.115431
0.0532911
0.0781372
0.0399869
0.0246864
0.099907
0.0532323
0.515277
0.0683278
0.102104
0.0489656
0.0873212
0.0492472
0.0554114
0.954345
0.648824
0.28566
0.0225633
0.253207
0.0482503
0.168265
0.350412
0.0676304
0.0579214
0.0621648
0.0412027
1.0562
0.128873
0.703037
0.0970618
0.0990628
0.0705485
0.0996976
0.797082
0.0506332
0.153905
0.178354
0.169116
0.0378119
0.140076
0.0528672
0.0809443
0.0501087
0.120609
0.0525285
0.0481657
1.34903
0.717708
0.0592107
0.0652793
0.0606615
0.0218209
0.0346876
0.0528089
0.157296
0.0468888
0.167058
0.05902
0.025212
0.20658
0.0605632
0.866962
1.20934
0.315421
1.00461
0.0520553
0.0597362
0.0343078
0.0586103
0.545284
0.649171
0.100068
1.01643
0.127965
0.0850308
0.0553835
0.554109
0.156683
0.218758
0.210933
0.0636412
0.0851307
0.117301
0.192656
0.0739367
0.0625903
0.262316
0.0220458
0.0250292
0.0681415
0.414491
0.137003
0.0383881
1.36748
0.746892
0.687378
0.0879205
0.0506742
0.0743136
0.0420049
0.48516
0.20313
0.640459
0.0562431
0.0445869
0.181271
0.135953
0.0866799
0.0475707
0.0859504
1.15068
0.713506
0.0249078
0.83565
0.806451
0.180352
0.011976
0.21273
0.0389203
0.48841
1.00497
0.0205665
0.0460361
0.16715
0.223091
0.111763
0.857654
0.00960079
0.0827841
0.145087
0.0546605
0.047232
0.0497956
0.0429838
0.188039
0.0250191
0.304331
0.0507484
0.823887
0.0516152
0.167467
0.216972
0.0531584
0.123691
0.128927
0.0266997
0.20437
0.0657094
0.667638
0.0482516
0.805107
0.0550681
0.0514079
0.233749
0.0553953
0.0661186
0.0629003
0.0596759
0.0544132
0.102056
0.295412
0.046678
0.0670389
0.0593989
0.0364326
0.0525728
0.0364355
0.0603987
0.0526967
0.154376
0.0721148
0.304833
0.0625518
0.0608894
0.222382
0.112331
0.217879
0.0763421
0.115911
0.0565065
0.0514568
0.0525727
0.0249831
0.0464305
0.0858147
0.0370411
0.181882
1.28467
0.0119511
0.0553656
0.0807869
0.084975
0.0680754
0.0355066
0.0578788
0.0437147
0.170002
0.0527225
0.038334
0.0419715
0.0647322
0.0971501
0.0741368
0.226937
0.0773816
0.0619653
0.107885
0.0500457
0.0936573
0.0486341
0.06217
0.0253354
0.193759
0.0637819
0.0284755
0.0526187
0.0457875
0.212567
0.0328952
0.137906
0.114958
0.776032
0.0708867
0.0596173
0.217923
0.0225895
0.128935
0.0505783
0.0988977
0.0814347
0.0566497
0.0796602
0.0620717
0.0529145
0.0893737
0.0928881
0.136995
1.17256
0.687754
0.377778
0.0552877
0.0550079
0.0527931
0.0511016
0.226456
0.283746
0.0724328
0.0534074
0.0512849
0.0500609
0.0795015
0.0619217
0.0637608
0.0513516
0.0934589
0.0482297
0.0515699
0.0810071
0.039263
0.0596519
0.0847551
0.0564614
0.210641
0.195023
0.0358938
0.0715566
0.085311
0.0668465
0.0481301
0.605346
0.0192497
0.131425
0.751822
0.734987
0.0528976
0.114356
0.666974
0.0380666
0.378485
0.0996222
0.148263
0.316999
0.163156
0.142221
0.0762668
)
;

boundaryField
{
    frontAndBack
    {
        type            empty;
    }
    wallOuter
    {
        type            kqRWallFunction;
        value           nonuniform List<scalar> 
102
(
0.0115939
0.0115939
0.0462661
0.0315585
0.0132648
0.0216006
0.0277482
0.0287007
0.0357216
0.0271585
0.0435429
0.019632
0.0503718
0.013243
0.0331816
0.0252341
0.0370605
0.0553257
0.0587294
0.0577809
0.0249403
0.0167694
0.0341444
0.0374557
0.0233279
0.0370604
0.0379843
0.0333485
0.0590819
0.0404293
0.0215479
0.0240949
0.0224225
0.0214722
0.021007
0.0292476
0.0262436
0.0299558
0.0290939
0.0273918
0.0275641
0.0277278
0.0285798
0.0285509
0.0271099
0.0254295
0.0236061
0.0351255
0.0294093
0.0542518
0.0411548
0.053643
0.0327859
0.0546146
0.0396969
0.0463842
0.0537237
0.0485669
0.050484
0.0468209
0.0498057
0.0184179
0.0129852
0.0125251
0.0584296
0.0192655
0.0446724
0.0447938
0.0528328
0.0439649
0.0458522
0.0471656
0.0162988
0.0531173
0.0526783
0.0497196
0.0344467
0.035898
0.0432905
0.0487779
0.05135
0.0132268
0.0432137
0.0449052
0.0437205
0.0473689
0.0500082
0.0399869
0.0492472
0.0481657
0.0220458
0.0250292
0.011976
0.0205665
0.00960079
0.0497956
0.0553953
0.046678
0.0364326
0.0119511
0.0355066
0.0437147
)
;
    }
    inlet
    {
        type            fixedValue;
        value           nonuniform 0();
    }
    outlet
    {
        type            zeroGradient;
    }
    wallInner
    {
        type            kqRWallFunction;
        value           nonuniform List<scalar> 
138
(
0.266618
0.0486268
0.116077
0.134244
0.116628
0.18829
0.263044
0.134502
0.112868
0.0474354
0.147395
0.0450719
0.0324382
0.0961462
0.0448875
0.0499012
0.0267523
0.0280107
0.0350337
0.03387
0.0537467
0.0231201
0.0500492
0.027245
0.0525471
0.04243
0.0208566
0.0340677
0.309496
0.0189388
0.0390391
0.0561728
0.0443445
0.0280417
0.0380877
0.0211646
0.0541307
0.100546
0.0266705
0.0394729
0.0426892
0.0318532
0.0178383
0.0325916
0.0435798
0.0326546
0.0643378
0.0286345
0.0312193
0.0427822
0.0457739
0.0195285
0.0192984
0.0462298
0.0440179
0.0364778
0.0412007
0.0391078
0.0173875
0.0377721
0.0518744
0.0185382
0.0567477
0.0440135
0.0397888
0.0371567
0.0378495
0.0333288
0.0427672
0.0206022
0.0371187
0.0285562
0.0404424
0.0264924
0.0455768
0.0328962
0.0458956
0.056251
0.518104
0.413698
0.110385
0.357744
0.0481099
0.0802282
0.0610314
0.093641
0.356955
0.382091
0.0459656
0.42163
0.32596
0.0507718
0.0217044
0.161161
0.022943
0.0466742
0.310149
0.0207715
0.212686
0.0247235
0.0452063
0.0272482
0.0150624
0.0869097
0.0174601
0.240889
0.0492719
0.0273504
0.0161309
0.026298
0.164994
0.252058
0.0236088
0.0557974
0.0467536
0.0551293
0.0212553
0.0178268
0.0269266
0.0379746
0.246408
0.162208
0.0467366
0.112944
0.0352307
0.0243688
0.0569481
0.0472147
0.0413614
0.0569796
0.0378119
0.128935
0.378485
0.0996222
0.316999
0.163156
0.142221
0.0762668
)
;
    }
    procBoundary2to0
    {
        type            processor;
        value           nonuniform List<scalar> 
42
(
1.37767
1.37767
0.0576018
0.0451712
0.38996
1.0864
0.0626899
0.0626899
0.241348
0.0946944
0.738723
0.738723
0.558727
0.86485
1.03151
0.846761
1.3158
0.0812158
0.141328
0.306554
0.236554
0.0727141
0.0727141
0.263794
0.236554
0.0746796
0.418712
0.0674914
0.418712
1.5043
1.43535
0.0617873
0.058089
0.055921
0.0578453
0.0451712
1.3158
0.021662
0.752437
0.0645875
0.0645875
0.0625071
)
;
    }
    procBoundary2to1
    {
        type            processor;
        value           uniform 0.390535;
    }
    procBoundary2to3
    {
        type            processor;
        value           nonuniform List<scalar> 
29
(
0.192093
0.206882
0.086812
0.0905664
0.245974
0.128469
0.12888
0.215323
0.230994
0.218231
0.185205
0.302422
0.129365
0.164192
0.12261
0.196458
0.188756
0.188756
0.206882
0.164192
0.138574
0.175936
0.0438106
0.213539
0.0907517
0.127722
0.230994
0.373053
0.302422
)
;
    }
}


// ************************************************************************* //
