/*--------------------------------*- C++ -*----------------------------------*\
| =========                 |                                                 |
| \\      /  F ield         | OpenFOAM: The Open Source CFD Toolbox           |
|  \\    /   O peration     | Version:  v1912                                 |
|   \\  /    A nd           | Website:  www.openfoam.com                      |
|    \\/     M anipulation  |                                                 |
\*---------------------------------------------------------------------------*/
FoamFile
{
    version     2.0;
    format      ascii;
    class       volScalarField;
    location    "0.98";
    object      epsilon;
}
// * * * * * * * * * * * * * * * * * * * * * * * * * * * * * * * * * * * * * //

dimensions      [0 2 -3 0 0 0 0];


internalField   nonuniform List<scalar> 
1431
(
0.58699
4.84908
94.0198
62.1279
1.4435
25.673
2.04329
4.42756
93.2114
26.822
14.2053
2.2203
0.84331
59.6719
56.3691
28.2503
62.6574
2.28875
1.35503
12.4311
1.09252
15.7044
30.2457
66.4028
51.0319
10.9702
55.2829
53.7536
22.0797
1.43331
51.1901
12.2321
30.6646
3.4443
1.746
45.5674
9.45236
10.2609
8.27888
9.8248
149.226
7.96464
2.13308
1.29678
32.7512
1.75904
36.598
4.95877
18.7923
16.3686
1.47231
26.5227
68.8739
2.63171
1.40217
4.82892
29.086
55.9721
54.3533
1.32117
42.3757
5.05759
48.1912
9.83011
35.1564
2.06793
77.6024
26.675
1.12592
12.5148
2.09089
1.17295
3.27061
19.7359
14.1176
28.216
1.36875
60.1713
5.76647
81.2882
8.11979
1.54579
0.64121
54.7108
89.4737
1.23229
1.19785
16.3808
74.3792
8.95209
4.15331
39.1389
1.13011
10.1532
2.09253
1.01664
13.0418
8.71398
1.27517
31.8412
1.69295
5.54554
6.59493
1.38479
22.6592
0.882987
6.61366
161.636
66.4402
1.43775
97.9465
3.01163
5.49562
5.43776
20.0539
1.45066
2.34793
22.7169
84.2583
26.6313
8.92765
63.7964
28.7014
55.8346
9.33587
0.493952
96.9147
3.87403
1.35796
26.4232
3.47651
127.292
48.4586
5.91317
1.12739
62.9402
3.91027
2.8953
2.99393
139.178
40.5009
1.18142
9.83286
19.3193
21.837
16.2253
8.76397
160.634
5.13931
15.1158
28.2597
38.5665
1.99382
0.371869
3.76058
2.50836
8.99193
4.67362
5.09288
8.66698
2.07224
10.9264
5.35328
13.3488
1.4693
135.272
1.2166
9.61592
1.44044
7.06667
34.3692
19.3714
50.265
17.4482
9.33436
1.29171
3.18603
25.5149
1.57514
6.08949
10.7445
34.1566
5.10394
6.85249
14.1446
17.095
6.36141
49.9377
10.2082
10.0912
1.23775
76.2074
1.05197
7.36577
106.256
8.08911
6.30071
7.34112
3.89987
1.8442
0.815102
73.0125
12.6191
165.205
6.95526
65.1973
1.08836
10.0447
13.2442
23.0288
7.96865
5.35908
77.8076
9.71946
27.4003
32.6101
4.76341
1.11359
11.509
9.9977
9.23206
64.7025
21.5197
145.598
11.0621
29.0563
27.2461
5.85375
18.9749
51.754
1.21412
40.2894
11.035
4.5579
4.40904
4.82239
10.092
1.52596
8.20438
0.716741
10.3676
10.4009
76.2466
65.596
2.83024
3.4457
10.3695
1.7122
3.5537
27.728
8.99797
87.4828
23.4006
19.3446
44.8186
36.1867
0.633761
0.823558
30.6968
33.8751
38.0852
6.70787
1.49879
45.2132
4.50151
18.2944
28.708
7.52435
16.0907
53.3242
6.91218
23.6101
8.80658
8.70681
40.362
8.64653
6.39958
1.50391
1.92418
29.7761
91.7539
0.606904
4.66711
5.03506
31.6788
46.6155
1.19472
4.35832
23.3645
9.2523
17.7949
11.4966
4.51665
1.29446
10.5507
5.54347
1.1564
7.47934
1.46899
7.36714
11.1147
27.7877
0.291136
6.50761
4.3013
2.19732
8.61866
34.7952
32.253
0.219343
9.9886
13.0873
41.7421
1.05685
2.69252
2.5321
32.3887
0.775372
4.42771
0.438006
1.63382
0.22367
41.2806
0.860419
24.1922
0.903685
7.39633
1.40617
80.8964
9.35959
11.9065
0.251595
0.490536
1.23658
8.84812
61.2392
1.50538
0.15585
1.60754
0.29968
0.885414
7.606
1.68846
18.3703
45.5489
0.537015
11.3854
0.179394
0.547789
0.266594
1.43904
2.80271
2.40642
1.0051
0.816848
1.83636
2.49252
0.631732
1.46747
0.917496
0.563143
0.78612
0.879239
1.11812
0.243887
0.536926
0.70797
0.786012
18.7707
26.3074
3.89111
0.549365
0.385515
13.4713
1.11299
59.4809
9.42239
11.4962
13.9057
1.81847
3.44707
1.11185
0.170994
2.45333
0.716987
0.78694
0.790498
0.728677
1.205
0.8624
0.16908
63.8413
21.8845
13.9163
0.748716
3.6127
0.162182
10.7398
7.90617
9.12383
0.648145
7.65889
10.2533
1.7205
8.966
12.2343
0.784629
7.85094
0.224236
15.6121
41.3905
11.6969
2.55557
62.5492
20.4581
42.325
8.38156
62.7847
0.565581
0.193437
0.793942
0.848068
6.95952
2.52105
0.748554
10.2879
2.27206
11.7213
42.8304
10.9172
53.052
2.78397
7.68022
3.53319
0.609463
13.001
1.06389
3.98068
1.55295
3.46548
1.81698
127.938
2.43352
1.96603
1.31908
3.36189
8.74178
2.38879
1.95912
8.89946
4.693
4.0862
6.91872
7.06024
0.91377
6.12847
3.28432
2.52565
4.68879
0.639619
50.0451
1.80874
4.19536
11.2123
0.669261
0.668582
0.202348
80.1385
3.5925
0.589272
79.4392
1.52796
6.16633
45.3768
4.95685
0.63204
62.5484
56.8787
80.1846
0.881074
0.766898
1.38963
47.8042
4.81892
10.8304
10.9466
14.7518
7.03937
1.56496
0.684508
0.874385
1.26678
0.522838
62.9957
0.979178
1.28479
96.2421
1.3026
11.3718
1.23468
22.7314
130.214
13.3573
15.458
7.47332
1.78264
0.563921
6.99127
0.88997
97.0188
80.0169
1.75447
6.26043
14.4738
11.3219
0.887722
69.9308
113.568
0.824686
0.834561
1.53292
1.83118
1.24956
0.251173
1.5598
1.26187
4.01392
1.08658
1.49703
1.93675
11.1798
6.87716
1.31287
1.34017
2.46421
1.00569
32.5601
1.91261
2.9307
41.5565
16.5669
54.0206
7.30987
19.3335
2.66015
11.7501
4.59488
5.34267
4.13306
0.457739
1.21604
0.667266
31.4815
1.43136
0.518358
6.75726
54.4968
10.5807
32.2609
4.44041
4.04222
1.83384
79.0171
69.3813
38.6486
0.303134
1.53236
4.97878
42.5159
6.42846
0.585829
12.9699
47.3855
12.2412
60.5562
3.77155
1.06464
1.19532
3.45211
17.8356
1.20984
5.62834
5.37554
15.0267
2.45679
1.90297
4.49592
11.3555
1.50214
18.1525
24.7577
50.6839
13.7244
10.0799
8.8806
1.89706
0.341993
1.37563
5.13122
0.379711
5.76122
3.93021
0.483403
5.14442
14.8456
7.22579
11.6005
0.36795
19.7122
80.9006
51.4366
3.80979
0.204957
15.4863
66.5167
5.12152
67.5776
36.6466
30.2937
4.02086
0.409197
1.16398
2.36892
0.217392
1.2204
9.10142
0.268005
0.319408
1.9121
5.91525
21.5672
2.22238
0.747116
6.35316
1.08326
2.30814
0.374224
4.85814
24.3214
2.52406
5.53099
32.0213
6.81951
5.8449
1.39672
32.6465
5.58764
73.4369
24.0484
2.42461
2.20984
1.71568
8.04511
30.6342
69.4131
2.09969
7.23577
11.8067
1.43037
4.17868
20.3544
0.642217
3.11676
3.91786
8.69509
0.450891
13.6839
11.4084
3.93365
30.0044
0.275536
7.65077
2.72187
28.2091
11.7547
11.9588
23.712
20.9809
0.179405
20.8347
39.3075
0.97229
12.6369
2.89775
1.11679
2.35238
0.990882
30.986
16.0861
0.202578
66.3851
27.2049
16.2089
3.54624
1.64839
0.268811
1.32038
0.306261
8.10984
5.18314
15.6877
0.280962
4.18412
0.203284
1.06133
29.2354
27.8398
10.9863
13.9292
169.881
1.23912
0.322486
0.547554
11.4795
25.831
25.1481
6.62631
110.384
5.57288
2.83419
23.8908
9.62085
5.32764
73.8728
0.181501
26.2638
15.0885
46.3933
29.9684
0.498085
0.421856
0.748381
28.3375
28.1257
62.4468
4.25095
3.30559
1.57541
9.40486
3.21091
28.4132
62.6475
13.016
1.63463
40.1582
22.2178
5.3377
20.621
43.1016
0.22788
51.2227
4.34248
28.6449
31.3646
4.42986
3.18084
13.0553
29.154
18.3044
113.309
49.9439
47.5305
33.8753
34.3076
9.87364
38.6445
6.6516
39.2496
42.7457
29.7506
1.19409
65.2588
0.438639
0.445831
7.84589
37.7354
0.884261
39.3694
1.7888
0.213468
1.08635
2.20101
33.1639
42.321
0.314015
149.426
0.407435
0.644395
3.6011
134.522
6.14966
4.31336
81.6916
35.5805
13.9624
10.3417
0.455101
0.255109
66.4617
5.87523
1.59189
42.5856
6.14801
0.200559
1.50075
1.22863
40.0542
1.90234
45.6759
1.32374
8.55811
6.10615
51.8904
0.280398
80.4774
31.195
37.137
40.4796
46.6152
35.1051
27.8212
31.8711
35.2936
3.56933
3.79681
17.1911
3.47117
48.3425
0.172875
0.495098
2.36174
0.408801
0.928335
0.806023
0.391315
28.2181
1.39019
30.5072
0.52369
1.30495
4.36915
8.54328
8.56015
34.6966
92.7486
7.04583
0.636679
2.78201
2.67903
6.17913
5.78203
3.82349
1.72007
0.37698
40.1293
3.20962
22.6377
57.7926
11.0459
12.3242
5.66232
4.53512
0.316757
1.72902
0.98515
1.19462
5.20382
4.91771
0.678224
0.271192
11.838
37.6425
2.25785
7.3125
0.335041
7.1092
2.05021
1.41117
1.14766
6.78348
1.03293
0.244234
2.9536
0.264291
10.3871
0.645058
2.89709
49.5053
40.6574
10.8557
20.5333
81.1772
18.3973
7.93562
7.45386
58.5376
0.361802
0.763617
1.39785
0.4297
1.11375
1.13195
2.06162
1.1414
59.5352
53.4628
25.6051
6.24885
0.248758
0.841413
2.86789
5.55789
96.3223
1.84339
2.45152
18.7232
13.9544
13.2547
12.6236
0.507222
1.30848
5.54731
2.81426
6.01211
5.07493
42.9852
0.588652
34.6502
29.3001
36.4973
55.4269
4.37143
6.39213
20.7614
17.0761
18.7983
22.6417
15.5611
14.2565
4.06182
1.7792
1.19375
6.90214
12.8281
0.910801
0.818918
98.0094
1.36617
1.67531
1.5759
18.2823
1.92851
30.6016
2.35622
101.747
0.400294
10.5618
1.71042
2.08314
2.25311
45.209
38.2058
0.532051
1.60183
3.27889
1.6169
7.11616
64.4907
1.0718
26.5591
13.3679
2.28497
2.87876
31.7265
33.9128
3.8094
6.35053
1.8584
3.90846
3.68082
7.84897
18.8893
1.52147
61.5383
37.3961
49.2064
2.18239
62.7247
0.201537
36.4492
1.15251
6.97901
1.20811
4.77244
11.669
0.480932
84.4315
43.7419
121.951
1.45889
75.4871
88.1814
23.145
3.30086
4.14048
4.56428
34.6557
72.0023
13.0651
5.8014
22.851
11.0742
5.77224
8.68452
55.0414
75.3204
39.5746
38.3703
2.19804
31.1663
15.9603
40.5671
0.550972
32.4363
44.3857
0.536829
1.35465
1.24878
26.009
157.403
17.3343
11.9478
2.79201
83.6308
0.957228
36.8363
61.1456
10.7638
1.42753
2.62431
37.1131
1.34618
0.644804
0.196315
1.31233
0.534935
62.5729
35.1177
4.32183
47.9221
0.543833
30.6639
46.2188
25.1518
2.78425
1.44363
2.4731
18.2837
0.497192
5.10811
1.09774
75.9702
12.9902
40.0281
5.32575
3.50605
19.57
11.0906
11.4816
40.1566
2.74787
4.60804
31.5283
34.7338
6.53649
1.05777
1.82195
69.8444
14.1828
14.1386
1.687
0.624291
1.00737
0.303638
7.4312
1.2819
29.496
55.6455
22.8463
68.6369
0.269743
17.9327
1.10874
5.09421
43.4388
0.838474
1.80944
12.0807
1.40734
56.411
83.3328
0.398987
19.6895
79.0088
1.63635
14.6246
19.6984
0.46161
0.183528
45.0985
0.617512
70.052
1.29186
59.28
3.32575
78.4221
6.63629
0.516312
17.7231
7.00438
0.449087
1.159
15.311
0.560519
104.177
0.336914
1.35761
0.542617
2.44738
1.68767
14.4682
0.620806
1.3528
84.4985
4.50143
6.98298
2.16761
28.2194
0.489493
0.520147
0.728361
2.82582
105.671
26.4561
5.94127
4.82399
59.3368
1.6964
60.3042
7.37502
53.575
0.617551
0.20647
58.4818
1.03868
1.96968
90.4234
48.6027
46.061
8.9067
114.339
0.544186
0.273282
1.02062
25.669
62.8202
111.688
0.582191
0.417126
0.264262
12.1216
7.42876
99.0049
96.6599
39.095
14.3826
4.81152
0.485637
2.92071
1.68055
106.559
45.7545
4.49532
1.33712
1.17735
43.8008
72.7831
56.9327
28.4248
0.275196
0.701494
59.2052
30.6543
0.459394
91.433
48.7724
63.2319
3.51197
4.28706
11.0275
41.076
34.2038
57.8741
1.04612
85.7231
46.8057
12.6666
0.22116
24.985
13.2127
14.2277
43.9347
35.6444
10.0469
1.13
0.239948
86.5326
2.1512
1.06184
71.9826
2.25457
28.1646
35.2544
1.49958
66.8177
4.70956
12.2312
8.84039
19.8198
12.6215
37.0915
93.7187
1.45345
91.6832
0.468706
20.6187
54.7698
1.14702
0.534729
1.60258
1.77094
76.2191
41.4618
4.10998
4.45831
6.27979
1.06787
1.28602
30.4569
9.03504
1.31541
13.6028
4.63982
2.28833
106.286
16.8199
60.8384
30.9237
35.6691
1.9422
0.177028
0.84781
61.6316
46.1267
18.3389
12.3873
14.0214
49.8203
1.33997
98.1653
9.5597
1.84385
0.300036
7.63507
15.9796
5.65401
15.6627
8.48258
34.5145
41.1982
24.3587
2.32326
5.82685
14.3327
2.84625
80.9435
27.1913
76.6617
19.5034
1.89454
85.3962
45.6369
51.3511
0.309851
4.09088
13.0987
2.38042
60.365
0.178462
0.385098
46.7858
6.0189
51.9797
36.6436
13.5263
10.2852
8.72629
12.5402
2.47312
17.1709
11.863
20.3147
1.30524
0.676819
3.55093
1.04922
12.8978
48.5933
1.84132
1.6199
1.2958
0.350442
0.456134
16.4595
0.504052
69.2719
52.4476
13.3363
4.51172
6.04304
1.84025
2.95521
1.66133
0.511487
5.39316
0.47565
71.0433
5.89589
29.6213
1.29144
7.15219
3.14241
1.06639
124.149
0.769706
0.567527
1.30972
5.07124
2.86573
0.386719
0.550628
35.8887
0.941475
4.33624
1.39598
0.521958
2.42493
30.2634
9.9695
4.49707
3.01963
0.482771
7.38368
0.586796
60.7872
0.720282
10.3184
5.02456
0.255627
20.1608
37.3161
8.29886
14.3576
1.31392
4.42047
2.38253
29.169
0.209596
6.71671
23.541
17.5916
45.8124
0.537956
160.294
6.11035
44.368
82.7347
12.0947
3.48798
1.45907
19.2373
8.34537
53.9505
0.400901
34.3633
0.212561
45.3261
0.193068
1.01464
18.8174
7.10103
12.6071
8.24864
56.6448
0.738673
50.0854
41.4835
34.1415
41.5276
4.83876
0.975744
2.83832
64.3226
18.3165
11.9
11.8854
77.652
21.2771
92.9549
23.1917
29.639
23.8341
5.06247
44.1203
18.1402
2.68284
50.9895
136.765
2.61709
42.6699
74.7167
)
;

boundaryField
{
    frontAndBack
    {
        type            empty;
    }
    wallOuter
    {
        lowReCorrection 0;
        type            epsilonWallFunction;
        value           nonuniform List<scalar> 
90
(
28.2503
25.1481
23.8908
26.2638
29.9684
28.3375
28.1257
40.1582
22.2178
28.6449
31.3646
42.7457
29.7506
37.7354
33.1639
81.6916
31.195
37.137
40.4796
46.6152
35.1051
27.8212
31.8711
35.2936
34.6966
59.5352
53.4628
34.6502
36.4973
20.7614
17.0761
18.7983
22.6417
15.5611
14.2565
12.8281
1.5759
1.92851
30.6016
10.5618
1.6169
7.11616
64.4907
1.0718
1.8584
3.90846
0.201537
36.4492
1.15251
43.7419
55.0414
26.009
30.6639
40.0281
31.5283
1.687
1.2819
29.496
55.6455
17.9327
43.4388
0.838474
0.398987
79.0088
45.0985
59.28
78.4221
0.560519
104.177
0.336914
46.061
0.544186
111.688
0.264262
96.6599
106.559
28.4248
30.6543
0.459394
63.2319
35.2544
91.6832
0.468706
30.9237
24.3587
0.350442
124.149
0.769706
35.8887
20.1608
)
;
    }
    inlet
    {
        type            fixedValue;
        value           uniform 14.855;
    }
    outlet
    {
        type            zeroGradient;
    }
    wallInner
    {
        lowReCorrection 0;
        type            epsilonWallFunction;
        value           nonuniform List<scalar> 
138
(
2.2203
1.35503
30.6646
3.4443
1.746
7.96464
77.6024
26.675
2.09089
1.17295
28.216
48.4586
0.371869
3.76058
1.29171
3.18603
3.89987
1.8442
0.815102
73.0125
145.598
36.1867
0.633761
30.6968
33.8751
38.0852
28.708
40.362
31.6788
34.7952
32.253
0.885414
0.537015
0.179394
0.547789
0.266594
1.43904
2.80271
2.40642
1.0051
0.816848
1.83636
2.49252
0.631732
1.46747
0.917496
0.563143
0.78612
0.879239
1.11812
0.243887
0.536926
0.70797
0.786012
1.81847
3.44707
1.11185
0.170994
2.45333
0.716987
0.78694
0.790498
0.728677
1.205
0.8624
0.16908
0.648145
11.6969
42.325
7.68022
127.938
1.31908
1.95912
1.80874
45.3768
0.881074
47.8042
0.684508
0.874385
1.26678
0.979178
96.2421
130.214
97.0188
80.0169
113.568
2.66015
0.667266
31.4815
32.2609
0.585829
0.379711
0.747116
0.450891
0.97229
1.32038
0.306261
0.498085
0.748381
13.016
49.9439
6.6516
7.84589
2.20101
35.5805
1.50075
2.36174
30.5072
0.52369
0.37698
0.841413
42.9852
1.7792
1.19375
0.818918
31.7265
49.2064
2.18239
75.4871
88.1814
0.497192
1.82195
69.8444
1.63635
0.620806
4.50143
59.3368
1.6964
0.485637
2.92071
1.49958
11.8854
44.1203
18.1402
2.68284
136.765
2.61709
74.7167
)
;
    }
    procBoundary0to1
    {
        type            processor;
        value           nonuniform List<scalar> 
29
(
1.92697
3.02815
4.0345
4.0345
43.5064
43.5064
124.367
18.4999
79.645
8.73688
15.8013
54.0763
4.72704
2.14584
70.1141
26.7607
56.0874
68.6512
5.6565
2.92338
11.3875
6.22419
60.2349
10.4436
10.526
68.6512
8.26914
66.0114
10.4436
)
;
    }
    procBoundary0to2
    {
        type            processor;
        value           nonuniform List<scalar> 
42
(
19.5461
11.9148
1.61647
1.47663
0.141383
19.5461
1.61647
1.46464
0.144746
0.183615
0.244391
0.587552
0.244391
1.13492
2.11343
21.1058
2.11343
0.190499
0.164131
2.79373
2.79373
0.190499
0.179802
5.38583
5.38583
0.225302
14.2044
0.261308
19.5942
8.73821
8.73821
0.274498
0.240632
0.194247
0.18684
1.61647
5.41471
1.95811
19.5942
1.46464
0.740766
0.331292
)
;
    }
}


// ************************************************************************* //
