/*--------------------------------*- C++ -*----------------------------------*\
| =========                 |                                                 |
| \\      /  F ield         | OpenFOAM: The Open Source CFD Toolbox           |
|  \\    /   O peration     | Version:  v1912                                 |
|   \\  /    A nd           | Website:  www.openfoam.com                      |
|    \\/     M anipulation  |                                                 |
\*---------------------------------------------------------------------------*/
FoamFile
{
    version     2.0;
    format      ascii;
    class       volScalarField;
    location    "0.18";
    object      nut;
}
// * * * * * * * * * * * * * * * * * * * * * * * * * * * * * * * * * * * * * //

dimensions      [0 2 -1 0 0 0 0];


internalField   nonuniform List<scalar> 
1431
(
0.00134289
0.00210431
0.00276826
0.00172683
0.000709504
0.000930493
0.000923535
0.000786107
0.00145628
0.00154032
0.00128827
0.00146893
0.0012178
0.00132634
0.00345483
0.000540341
0.00374912
0.0025356
0.000261582
0.00138344
0.000727993
0.00223227
0.000891459
0.00142594
0.00154413
0.00139098
0.00157539
0.00123475
0.00101387
0.00324009
0.00146143
0.000729053
0.000997659
0.000462453
0.000457266
0.00296311
0.00130387
0.000860682
0.00131888
0.000858592
0.00234875
0.000512289
0.000925164
0.000904522
0.00190351
0.000946676
0.00295873
0.00080289
0.0008883
0.000872022
0.00384103
0.00153925
0.000819646
0.00140891
0.000953087
0.000765124
0.00118072
0.000924019
0.00104851
0.000611009
0.00429852
0.000680153
0.00333058
0.00078278
0.000902187
0.00293417
0.00257079
0.000790649
0.00212379
0.000749842
0.000444583
0.000487839
0.000997705
0.00112787
0.00129777
0.000707743
0.00103844
0.00295372
0.000784378
0.00223417
0.000805221
0.00413442
0.000734814
0.00393955
0.00235519
0.00087824
0.00102958
0.000979666
0.00153392
0.0013791
0.00156353
0.000938827
0.0010565
0.000864395
0.00295358
0.000977371
0.00142858
0.00072922
0.000995084
0.00110622
0.00229683
0.000804496
0.00097968
0.000753394
0.00125411
0.00183054
0.000785349
0.0029641
0.00209896
0.000768051
0.00261101
0.00216589
0.000754448
0.00114283
0.00112846
0.000726672
0.00217208
0.0032759
0.00165273
0.00145456
0.000861824
0.000692009
0.00102193
0.00137553
0.00083107
0.00148312
0.00178955
0.00127945
0.00122766
0.00080807
0.00152679
0.00279914
0.00103758
0.000967446
0.0010403
0.000983665
0.000943781
0.00208155
0.00106602
0.00274656
0.000996043
0.000539531
0.000769554
0.000948478
0.00112817
0.000774833
0.000733738
0.00306388
0.000875273
0.000803314
0.000817504
0.000953493
0.00126476
0.000419166
0.000439898
0.00139004
0.000802699
0.000949898
0.000755145
0.000710511
0.00279731
0.00128027
0.00100829
0.00115967
0.000961367
0.00320507
0.000960554
0.000865994
0.00354142
0.00107346
0.00107223
0.0010998
0.00136367
0.000767986
0.000771367
0.000637432
0.00040445
0.000881684
0.00278294
0.000714376
0.000838903
0.00467878
0.000747249
0.00133575
0.000772787
0.000811524
0.000752754
0.00124237
0.00139439
0.000799113
0.00384064
0.00440251
0.000952603
0.000789976
0.00335391
0.000848252
0.000784788
0.000831375
0.000499782
0.000410213
0.000478983
0.000676874
0.000753426
0.00229595
0.000785641
0.00206582
0.00100624
0.000834017
0.00121539
0.000883037
0.000789193
0.000782961
0.0016416
0.000831529
0.00102267
0.000947041
0.000755965
0.00473226
0.00283047
0.000833651
0.000830122
0.00246896
0.000775985
0.00217901
0.000825976
0.000883361
0.000970871
0.00104345
0.000828604
0.00159643
0.000922731
0.00121503
0.000746672
0.000795758
0.00079024
0.000783762
0.000736492
0.00122076
0.000826508
0.00212139
0.000840808
0.000725565
0.000849474
0.00493258
0.00142806
0.0012833
0.000830511
0.000697026
0.000865936
0.000973881
0.000724375
0.00103645
0.00192394
0.00122821
0.00343419
0.00111701
0.00105035
0.00192497
0.00114774
0.00112396
0.00110615
0.00122084
0.00101941
0.000651538
0.000790049
0.000808575
0.00104063
0.000742333
0.0010476
0.00081311
0.000739799
0.000941992
0.000727423
0.000727326
0.00109636
0.000767026
0.00105679
0.00537655
0.00339103
0.00103156
0.0020482
0.00214833
0.00283648
0.00110597
0.00103857
0.00137215
0.000903485
0.000754976
0.000906081
0.000831914
0.000775946
0.000871138
0.000749832
0.00284975
0.000732178
0.00073906
0.000979525
0.000764839
0.00198148
0.000706658
0.000843145
0.00100984
0.000833453
0.000737439
0.000993762
0.00216507
0.000828287
0.00112321
0.00113077
0.000743151
0.000835562
0.000783469
0.00423992
0.000746897
0.000888847
0.00217265
0.000748029
0.00220799
0.000794918
0.00144222
0.00234482
0.00129705
0.000764051
0.00228956
0.000734198
0.00199855
0.000806319
0.00234644
0.00176209
0.000830677
0.00390769
0.00106193
0.00179841
0.00331888
0.000785898
0.00120093
0.00285776
0.00103991
0.00306716
0.00132337
0.00041514
0.000822209
0.00242028
0.000936274
0.00219548
0.000468451
0.000826451
0.000360074
0.000249127
0.000285664
0.000427235
0.000334854
0.000619568
0.00107295
0.000601082
0.000473354
0.00036229
0.000530577
0.000992379
0.000474347
0.00103638
0.000787411
0.00108123
0.000245245
0.000312526
0.000315396
0.00106549
0.000627276
0.00366154
0.00393684
0.0019705
0.00180112
0.00132166
0.00076101
0.00406982
0.00240921
0.00408334
0.000841698
0.000848835
0.00100829
0.000326895
0.000319721
0.000329561
0.000422695
0.00077823
0.00107926
0.000633524
0.000562393
0.00104811
0.00024275
0.000426303
0.00379334
0.000886556
0.00084869
0.00189152
0.00142393
0.000862106
0.000834639
0.00134696
0.000771978
0.000513243
0.0037654
0.000832658
0.00320077
0.00355615
0.000795215
0.00211538
0.000721969
0.000742696
0.00412812
0.000829539
0.000823157
0.00192939
0.002738
0.00102532
0.00109835
0.00324066
0.000880667
0.00171122
0.000775725
0.00225974
0.00141054
0.0019897
0.00208452
0.00163395
0.00285226
0.00226995
0.00411967
0.00225236
0.00200032
0.00266925
0.00196379
0.000769078
0.00310846
0.00217892
0.00206157
0.00126775
0.00426159
0.0033568
0.00150121
0.000897822
0.000410904
0.00401788
0.00455301
0.00103231
0.00107161
0.000975669
0.00279051
0.00156545
0.00308996
0.00285183
0.00216361
0.00165356
0.00223095
0.0015436
0.00241453
0.00234841
0.00213247
0.00243749
0.00220974
0.0033745
0.00071798
0.00142983
0.00105908
0.00223063
0.00218805
0.000739309
0.00274783
0.00131406
0.00198792
0.0026594
0.00378606
0.000738689
0.00115115
0.00131283
0.00218982
0.003998
0.00434696
0.00455992
0.00068742
0.00168188
0.00406104
0.00117109
0.00079913
0.000840019
0.00109105
0.00109551
0.00191831
0.0018311
0.00136216
0.00120616
0.000732125
0.0015778
0.0045326
0.000712399
0.00426806
0.000978213
0.00522888
0.000837193
0.00501577
0.00123023
0.00129254
0.00464804
0.0023889
0.00230154
0.00369679
0.00211826
0.0017508
0.00188671
0.000517896
0.000538629
0.00311203
0.000738114
0.00334535
0.00079223
0.00196543
0.00458537
0.00114282
0.00178936
0.00194641
0.00450727
0.00346294
0.00523214
0.000863458
0.00352567
0.00140909
0.00326444
0.00190281
0.00401586
0.00505539
0.000817083
0.000738246
0.00386184
0.0046836
0.00188448
0.00172732
0.0047649
0.00511016
0.00167563
0.00273608
0.00320402
0.00483668
0.00368652
0.00143568
0.000398902
0.00186046
0.00485596
0.0007959
0.0019177
0.00142974
0.00443654
0.000712528
0.00109313
0.00161698
0.00180541
0.00343274
0.00467472
0.00399777
0.00105212
0.000757293
0.0023933
0.00332002
0.00450171
0.00409037
0.00107094
0.000763688
0.00137554
0.000742295
0.00365447
0.00311763
0.000480259
0.00159595
0.0033079
0.002072
0.00468801
0.00108114
0.00134506
0.00342072
0.00288064
0.00106721
0.00444454
0.000797807
0.00329046
0.0021987
0.00135594
0.00462739
0.00342573
0.000795252
0.00403826
0.000794737
0.00137414
0.00119324
0.000848157
0.000783297
0.000770336
0.00391231
0.000853941
0.0048365
0.000741103
0.000410339
0.00355786
0.00281028
0.00198383
0.00507242
0.00495197
0.00184746
0.00127258
0.0012947
0.0020888
0.00267904
0.00209566
0.000903609
0.00078438
0.00336811
0.00243152
0.000745885
0.00213776
0.00137593
0.00432814
0.00181201
0.00206459
0.00200659
0.00248257
0.00119533
0.00519324
0.000921189
0.00189233
0.000845827
0.00113039
0.000804274
0.00144254
0.00287085
0.000928006
0.000805069
0.00229364
0.00166271
0.00177949
0.000733991
0.00117326
0.00260869
0.00476089
0.00165768
0.000806171
0.000912648
0.00540759
0.00476608
0.00404455
0.000978847
0.00184619
0.00262318
0.00278645
0.00218966
0.0007644
0.00121209
0.000987698
0.0013921
0.000820105
0.000841034
0.00390606
0.00111613
0.00249027
0.000961391
0.00210643
0.00190091
0.000827296
0.000408998
0.000848031
0.00142143
0.00154234
0.00394871
0.000898088
0.000821678
0.00236528
0.0028753
0.000803306
0.000761244
0.00124075
0.00110512
0.00142394
0.00112141
0.00422328
0.000819252
0.0011872
0.00154649
0.00422065
0.00117761
0.00176844
0.00429512
0.00442237
0.000781611
0.00193368
0.00298853
0.00418271
0.00122695
0.00104671
0.00157041
0.000244586
0.000486848
0.000824185
0.000723544
0.00480089
0.00121551
0.000764105
0.00144857
0.000978358
0.00143768
0.00120679
0.000965837
0.000850191
0.00240961
0.00343707
0.000846564
0.00217422
0.00168548
0.00379284
0.000635614
0.00262862
0.00291517
0.000716745
0.00101485
0.000644535
0.000837661
0.000803029
0.00391347
0.00156098
0.000626501
0.00198674
0.00228975
0.000691898
0.00101344
0.00115925
0.000987445
0.000708786
0.000725198
0.00424488
0.00076654
0.00135598
0.00435474
0.00081614
0.00172133
0.00347756
0.000773298
0.000698947
0.00124537
0.000786959
0.000663537
0.000742281
0.000860027
0.00119969
0.00083905
0.000821218
0.00075312
0.000744965
0.000765706
0.00164399
0.00154243
0.000845058
0.00083958
0.000875736
0.00194827
0.000583239
0.00124125
0.00199766
0.00226328
0.000854553
0.000972692
0.000397791
0.00212664
0.000794553
0.000759028
0.00531328
0.00428683
0.000909075
0.00179514
0.000758402
0.000779303
0.00100285
0.00364102
0.00302365
0.00106314
0.000991946
0.000467639
0.000772979
0.000597711
0.000668398
0.00383159
0.000888854
0.00176698
0.00147673
0.00213952
0.00124848
0.000771832
0.000893843
0.000982142
0.000847855
0.00083441
0.000929625
0.00178824
0.00414813
0.0008064
0.00197352
0.00373919
0.000712841
0.00170428
0.000259632
0.00205828
0.00255783
0.00323429
0.00113173
0.00113376
0.000828141
0.000808136
0.00104863
0.00101562
0.00188221
0.00083424
0.000674396
0.000598132
0.000538687
0.000649123
0.000837392
0.000732162
0.000777077
0.00257412
0.000769423
0.000776029
0.00107225
0.00434719
0.00158582
0.000986019
0.00103669
0.000781709
0.00114921
0.000791466
0.00110691
0.00106684
0.00293408
0.00114236
0.000554765
0.00233771
0.000778378
0.00072558
0.000732108
0.000663748
0.0020342
0.000712888
0.0022259
0.00192103
0.0019893
0.000818605
0.00311314
0.00156935
0.00163997
0.000277353
0.001954
0.00102037
0.00167757
0.00116312
0.000837645
0.000868828
0.000805527
0.00136024
0.00107443
0.00326498
0.00192904
0.00123659
0.000802039
0.000754568
0.000763001
0.00128419
0.000782717
0.00233063
0.00160189
0.00185676
0.000883929
0.000772255
0.00133006
0.000953188
0.00541842
0.000817486
0.00104575
0.00132117
0.00216269
0.000846303
0.000745783
0.00137024
0.00123447
0.00255606
0.00267423
0.000713374
0.000879903
0.00290047
0.00103895
0.000824614
0.0012459
0.00379504
0.000884842
0.00176544
0.00281399
0.0012015
0.00439452
0.00456769
0.00220653
0.00206709
0.000980259
0.00097259
0.000843376
0.00117066
0.00085732
0.000266033
0.00207095
0.000804882
0.00271953
0.00326032
0.00239598
0.00352139
0.00375044
0.000865838
0.00136882
0.0013482
0.00268378
0.0007836
0.0016186
0.000813511
0.00079413
0.00108897
0.00131454
0.000730326
0.000822908
0.000696774
0.0038875
0.000748708
0.000899084
0.000429019
0.000461698
0.000450218
0.000404088
0.000461384
0.000444866
0.00259668
0.000337078
0.000406869
0.000818436
0.000408848
0.00133069
0.000519376
0.00264577
0.000904295
0.00400354
0.000357619
0.00174303
0.000333418
0.000647733
0.00272344
0.00463848
0.00111212
0.000373625
0.0034453
0.00231088
0.00275071
0.000861248
0.00175199
0.00136241
0.00412989
0.00203824
0.000370766
0.00037434
0.00093276
0.000327107
0.00396117
0.000824292
0.00249909
0.0021014
0.00101953
0.00158493
0.00252026
0.000815433
0.000369865
0.000381323
0.00140246
0.00232651
0.000779055
0.00258692
0.0021282
0.000667237
0.000778972
0.000371502
0.00459503
0.000427743
0.00105497
0.000406547
0.000822611
0.00177499
0.00181607
0.000830421
0.0011844
0.00398664
0.000896441
0.0025956
0.000700154
0.000358787
0.000653227
0.000808674
0.00128256
0.0010014
0.000777001
0.000913633
0.00409601
0.000845932
0.0014514
0.00266805
0.00203604
0.000811944
0.000727928
0.00100865
0.00231828
0.00294614
0.00123701
0.00257958
0.00144927
0.00249289
0.000798429
0.00181799
0.00185892
0.00107294
0.00126074
0.00214689
0.00442307
0.000405784
0.00258907
0.00164667
0.00225728
0.00153085
0.00375463
0.000684056
0.00155324
0.0036183
0.000837294
0.00240295
0.00222806
0.00138102
0.000726414
0.00082628
0.00137321
0.00211784
0.00179883
0.00275947
0.000815852
0.000751021
0.00337967
0.00135553
0.000623997
0.0007356
0.00470855
0.000926125
0.00083279
0.00216171
0.000784558
0.000969306
0.000752256
0.0016606
0.00432658
0.000846187
0.000800443
0.000768267
0.0012742
0.00111502
0.000776865
0.00084033
0.00124734
0.00220215
0.000797229
0.000777276
0.00250203
0.000820181
0.00486719
0.000297641
0.000800217
0.000791495
0.000802843
0.000346594
0.00183131
0.00476698
0.000828245
0.000744342
0.000413079
0.00101429
0.0010564
0.000793267
0.0043931
0.000975313
0.000743932
0.00403405
0.000766744
0.000534116
0.00038595
0.00146472
0.000833716
0.00131229
0.00311334
0.00248352
0.000444484
0.00119494
0.000917708
0.000574978
0.000867642
0.00252695
0.000982114
0.00171847
0.00080947
0.000806528
0.00419488
0.00201945
0.000713875
0.0012722
0.000921258
0.00176668
0.000934659
0.00115898
0.000792546
0.000965056
0.00456592
0.00079059
0.000397576
0.000945677
0.00042234
0.00523337
0.000859827
0.00144728
0.000821434
0.00078862
0.000278521
0.00129483
0.00337079
0.000335513
0.00109043
0.00143207
0.00110223
0.00102279
0.000780689
0.00113906
0.00215962
0.00262555
0.0010964
0.00104859
0.000799198
0.000836884
0.000416409
0.00232835
0.00082127
0.00263985
0.000827737
0.001291
0.00389509
0.00161678
0.00322022
0.002566
0.00114973
0.000519438
0.000834214
0.00141911
0.000324466
0.000853633
0.00124808
0.00168411
0.00156853
0.000778427
0.000804762
0.0011995
0.000430134
0.000840561
0.00129557
0.00411391
0.000830285
0.000837225
0.000839725
0.000779523
0.000280726
0.000393633
0.0020331
0.000627193
0.00326271
0.000747664
0.00108417
0.00223693
0.000826393
0.00431251
0.00446323
0.000592354
0.000829249
0.00222637
0.00277509
0.000870622
0.000435169
0.00412016
0.000748508
0.000902144
0.00253116
0.00116593
0.000738892
0.00341335
0.000736064
0.000600513
0.00503239
0.00444335
0.000879992
0.000850757
0.00132704
0.000850059
0.000842492
0.000819783
0.00195196
0.00187706
0.00130476
0.00486111
0.000812836
0.00228645
0.00127968
0.0019916
0.00194165
0.00269745
0.00205467
0.000474042
0.0004312
0.00404849
0.000748032
0.0012434
0.000741209
0.000771894
0.000844324
0.000904058
0.00226536
0.00069739
0.000937055
0.000357161
0.000983127
0.00116847
0.0010115
0.00164221
0.00101471
0.00368727
0.00438272
0.00196081
0.000926657
0.000949839
0.00248912
0.000913678
0.00101136
0.00398943
0.000726029
0.000981785
0.00115032
0.000790935
0.0022507
0.00451657
0.00080951
0.00317838
0.000621953
0.000752476
0.00304767
0.00136287
0.00153547
0.00410579
0.000729487
0.000768627
0.000843966
0.00376036
0.0018982
0.00150129
0.00334621
0.00219521
0.00422269
0.000854655
0.000827411
0.00116415
0.000813812
0.000884086
0.00143128
0.000837554
0.00100876
0.000374669
0.00161108
0.000800009
0.000934151
0.00122721
0.00393898
0.00124026
0.00168688
0.00195455
0.00308565
0.00326783
0.00129063
0.000510394
0.00112049
0.00132207
0.000845864
0.002056
0.0037807
0.00142793
0.00105439
0.00089901
0.000784698
0.00390526
0.00300333
0.00172526
0.0025222
0.00230915
0.000774355
0.00178814
0.00112396
0.000844836
0.000781322
0.000643852
0.00177298
0.00212118
0.000675312
0.00265494
0.00337962
0.00128347
0.00437468
0.000800165
0.00043638
0.0014627
0.0013534
0.00147199
0.00315317
0.00106621
0.000854387
0.00253633
0.00123087
0.000980026
0.00156753
0.00100126
0.00134579
0.000759183
0.0012885
0.00213392
0.000817593
0.00128114
0.000833304
0.000719032
0.00167698
0.00413249
0.00083135
0.000312576
0.00131692
0.00218601
0.000801076
0.000759021
0.00124149
0.00131921
0.000683688
0.00196403
0.00246
0.00392695
0.00133885
0.00206068
0.000854831
0.00134727
0.00199588
0.00213947
0.00148682
0.000720117
0.00187571
0.00410239
0.000817941
0.00136588
0.000754185
0.000958435
0.000696431
0.000944161
0.00126165
0.00122122
0.00255976
0.00229855
0.00159537
0.00300654
0.00109693
0.000779319
0.0009323
0.00108793
0.00251454
0.00169956
0.00275891
0.000810209
0.00102445
0.00235761
0.000842791
0.0010194
0.00077324
0.00105146
0.0012078
0.00143311
0.000562584
0.000761017
0.00126943
0.00123153
0.00121286
0.000992888
0.00106948
0.00135611
0.000837377
0.000830862
0.00140111
0.00170556
0.00171937
0.00087541
0.000908209
0.000910804
0.000792396
0.00113182
0.00253523
0.00267895
0.00162616
0.000740715
0.000674951
0.00299124
0.00120058
0.0022241
0.00157344
0.0032539
0.000801048
0.000760054
0.00118698
0.000755048
0.000454216
0.000503303
0.00151387
0.000519902
0.000621081
0.000509879
)
;

boundaryField
{
    frontAndBack
    {
        type            empty;
    }
    wallOuter
    {
        type            nutkWallFunction;
        Cmu             0.09;
        kappa           0.41;
        E               9.8;
        value           nonuniform List<scalar> 
90
(
6.64384e-05
7.67619e-05
7.78124e-05
7.5687e-05
8.34749e-05
8.53307e-05
8.7174e-05
9.44069e-05
8.00447e-05
8.94418e-05
9.18597e-05
9.52975e-05
9.10706e-05
9.35037e-05
9.27234e-05
0.000107025
9.98269e-05
8.13387e-05
7.23457e-05
6.52442e-05
7.8367e-05
0.000100176
8.80614e-05
9.32222e-05
8.008e-05
0.000117057
0.000116157
8.78564e-05
8.41933e-05
5.16848e-05
5.61297e-05
5.45071e-05
4.83561e-05
5.63152e-05
5.44525e-05
5.00774e-05
4.22733e-05
4.05271e-05
7.92322e-05
4.55925e-05
4.49999e-05
4.5542e-05
0.000112329
3.79083e-05
4.46562e-05
4.62021e-05
5.0546e-05
0.000125877
4.83768e-05
0.000106952
0.000120337
4.87848e-05
7.53946e-05
9.62958e-05
9.42789e-05
4.17534e-05
4.96453e-05
0.000121285
0.000125598
8.94117e-05
6.46871e-05
4.66122e-05
5.18141e-05
0.000110153
9.70227e-05
8.64226e-05
0.00010989
4.61833e-05
0.000113461
5.03655e-05
6.31259e-05
3.72056e-05
9.35421e-05
5.04699e-05
0.000100362
7.60097e-05
7.16425e-05
0.000103977
5.07242e-05
0.00010825
5.74059e-05
0.000112438
4.12406e-05
7.51543e-05
4.44714e-05
5.09562e-05
0.00010043
3.57937e-05
8.24229e-05
8.3892e-05
)
;
    }
    inlet
    {
        type            calculated;
        value           uniform 0.000851986;
    }
    outlet
    {
        type            calculated;
        value           nonuniform 0();
    }
    wallInner
    {
        type            nutkWallFunction;
        Cmu             0.09;
        kappa           0.41;
        E               9.8;
        value           nonuniform List<scalar> 
138
(
0.000166256
3.19123e-05
0.000115344
5.54192e-05
5.72363e-05
6.56038e-05
0.000271909
8.81821e-05
5.38072e-05
6.01578e-05
8.18818e-05
0.000122742
4.99984e-05
4.85076e-05
6.73588e-05
5.04902e-05
5.78164e-05
4.77923e-05
5.69943e-05
8.16187e-05
0.00023863
0.000131348
0.000132208
0.000134597
0.000132035
0.000130196
0.000122716
0.000129164
0.00012248
0.00013199
0.000132756
4.93686e-05
5.69101e-05
4.00063e-05
2.94923e-05
3.40851e-05
5.33658e-05
4.05242e-05
6.73961e-05
0.000128783
7.18491e-05
5.93965e-05
4.42693e-05
6.40821e-05
0.000113926
5.67514e-05
0.000132029
9.33865e-05
0.000131548
2.91883e-05
3.75521e-05
3.65715e-05
0.000132503
7.60019e-05
0.000112529
3.94095e-05
3.86268e-05
3.98616e-05
5.03361e-05
9.33589e-05
0.000132563
7.63184e-05
6.73796e-05
0.000123397
2.87562e-05
4.68974e-05
6.07863e-05
0.000100438
0.000129686
9.43642e-05
4.84968e-05
0.000126025
0.000182744
9.30268e-05
0.000135328
9.1045e-05
0.000137334
0.000160883
0.000144297
9.51579e-05
9.34092e-05
0.000117103
0.000154055
6.36019e-05
6.09842e-05
0.000137142
4.80161e-05
7.69936e-05
0.000128538
0.000123986
5.61386e-05
5.05668e-05
9.79902e-05
5.02226e-05
8.80747e-05
2.92595e-05
5.43408e-05
0.000130713
0.000106369
8.41316e-05
6.57988e-05
5.00024e-05
9.43449e-05
5.49454e-05
0.000116667
3.10321e-05
0.000110981
0.000133984
6.59034e-05
3.32037e-05
3.2165e-05
0.0001284
3.98368e-05
4.88805e-05
5.66163e-05
0.000121332
9.39048e-05
4.53099e-05
4.2806e-05
7.35725e-05
0.000126413
3.49907e-05
9.59351e-05
6.51961e-05
3.41344e-05
4.16723e-05
0.000100307
5.12075e-05
3.40612e-05
4.92792e-05
4.80555e-05
8.13927e-05
0.000137411
9.05604e-05
5.5057e-05
0.000175027
6.34521e-05
5.7631e-05
)
;
    }
    procBoundary0to1
    {
        type            processor;
        value           nonuniform List<scalar> 
29
(
0.00079473
0.000875712
0.00137871
0.00137871
0.0017372
0.0017372
0.00292191
0.0010566
0.0020546
0.00143011
0.00116677
0.00096194
0.000567876
0.000449981
0.00229891
0.001336
0.00222926
0.00262448
0.00166873
0.000774862
0.000895846
0.000729856
0.002542
0.000746072
0.000735058
0.00262448
0.000727818
0.0009303
0.000746072
)
;
    }
    procBoundary0to2
    {
        type            processor;
        value           nonuniform List<scalar> 
42
(
0.00223418
0.0023847
0.000991172
0.000842514
0.00120683
0.00223418
0.000991172
0.00104812
0.00102142
0.000733849
0.00141404
0.00152663
0.00141404
0.00205338
0.00244567
0.00223494
0.00244567
0.000694539
0.000871904
0.000725691
0.000725691
0.000694539
0.000646244
0.000927627
0.000927627
0.000730198
0.00135103
0.00076868
0.00185951
0.00244884
0.00244884
0.000755656
0.000710153
0.000728619
0.000897703
0.000991172
0.00247704
0.000359369
0.00185951
0.00104812
0.0010383
0.00103144
)
;
    }
}


// ************************************************************************* //
