/*--------------------------------*- C++ -*----------------------------------*\
| =========                 |                                                 |
| \\      /  F ield         | OpenFOAM: The Open Source CFD Toolbox           |
|  \\    /   O peration     | Version:  v1912                                 |
|   \\  /    A nd           | Website:  www.openfoam.com                      |
|    \\/     M anipulation  |                                                 |
\*---------------------------------------------------------------------------*/
FoamFile
{
    version     2.0;
    format      ascii;
    class       volScalarField;
    location    "0.4";
    object      p;
}
// * * * * * * * * * * * * * * * * * * * * * * * * * * * * * * * * * * * * * //

dimensions      [0 2 -2 0 0 0 0];


internalField   nonuniform List<scalar> 
1466
(
75.9102
114.505
74.1602
82.4446
76.8051
95.1533
69.975
75.3753
105.723
96.6136
74.4929
98.8937
105.883
75.575
94.7215
73.6418
75.7826
100.77
103.812
75.639
82.922
73.2585
99.6367
76.1572
105.925
115.792
72.3439
80.8665
76.2243
112.537
76.4105
114.3
80.4024
77.0974
105.817
76.874
76.2969
78.0231
95.9821
74.9035
70.3315
72.5626
74.4941
74.5554
73.9361
72.2576
76.3518
74.0606
97.1987
81.2443
95.9964
114.259
95.2098
76.6673
80.017
104.231
72.5859
73.5527
80.4528
96.1985
116.105
70.0006
73.7057
114.933
88.4029
74.5097
102.482
74.9805
108.555
76.6989
116.364
100.691
76.6246
104.921
116.177
106.325
71.6854
73.3877
79.8017
112.124
95.5452
72.9638
75.7325
95.0867
75.1451
78.6807
77.4288
110.571
94.8237
95.3809
115.765
72.3069
84.0248
78.0692
72.3367
76.4113
114.78
74.2711
106.98
77.5127
95.5534
96.2194
74.1658
99.3009
75.2892
75.3223
95.7557
75.1834
75.7245
73.9966
115.988
106.875
74.2417
73.5016
97.4222
115.724
72.4109
99.1316
69.5585
75.5973
82.0902
74.8207
73.1722
76.3686
74.2442
78.4132
109.909
100.315
75.0661
113.666
95.8434
72.5704
99.8672
76.0881
115.344
70.4442
76.0263
79.7679
69.78
75.1544
81.6353
80.9622
75.971
98.1251
76.7244
83.4325
114.151
113.95
113.649
97.0472
115.745
114.019
109.304
71.8258
113.661
72.4
78.7354
77.9369
113.899
86.524
113.973
111.299
73.4293
78.4883
113.889
76.0018
75.9114
99.25
78.9219
91.943
80.8518
113.628
80.9161
108.873
114.627
103.151
113.564
112.953
115.914
117.22
106.403
115.182
81.343
81.0689
109.7
80.8665
75.2312
95.1844
108.622
79.9212
80.8263
116.42
87.0469
90.4419
85.5492
115.885
75.5024
107.863
115.733
84.3138
78.071
113.611
111.764
81.2291
116.104
115.607
88.3391
110.094
113.733
75.7837
101.134
76.391
97.3276
80.3606
84.2273
77.248
81.6552
77.0215
102.007
75.8575
100.224
115.773
78.3305
115.943
78.6153
110.16
98.799
74.2675
115.844
115.335
116.785
108.606
95.1294
87.5511
96.29
115.73
76.1336
98.5862
113.67
80.6065
80.7205
111.809
112.037
92.3998
113.635
111.08
114.623
104.497
112.577
111.996
81.6375
88.8295
109.495
81.4963
113.716
113.914
78.4943
94.6407
76.5386
81.1642
96.0935
100.536
76.1021
115.392
85.4805
81.0211
114.713
113.566
91.8318
96.7665
70.5506
75.8357
94.6519
113.702
115.683
116.04
115.791
87.8192
79.8292
113.463
114.738
85.6234
85.4328
110.295
83.748
80.0735
113.626
113.869
80.3976
106.084
108.137
77.0654
106.412
80.4067
89.5554
91.8528
74.15
80.9069
113.427
115.002
74.0128
94.9855
116.54
105.647
76.6556
75.1656
81.3259
80.2017
105.013
81.3021
109.197
100.341
75.5634
115.088
114.856
114.294
83.3663
115.681
80.4841
94.6043
94.0821
74.3415
78.6478
115.001
79.6058
103.524
80.5386
120.537
114.577
115.374
101.071
104.812
73.1519
92.951
83.9006
85.7489
82.0945
113.801
81.8479
77.6033
74.6162
109.858
79.3885
129.89
91.5067
116.34
109.831
119.581
108.082
83.3638
89.3041
89.1368
84.4768
82.8296
82.9685
83.9086
76.4006
78.3292
97.554
112.544
82.3253
85.2913
87.3526
81.4457
80.608
103.714
109.046
108.428
82.7344
90.6545
98.5204
85.7894
132.26
95.4723
73.1191
77.6049
99.3523
122.1
78.0534
86.6892
81.8397
81.1507
81.3416
80.6694
79.238
80.2376
77.8665
77.5798
79.9789
80.2511
76.0142
77.0856
81.4204
76.9457
80.7553
80.015
79.8672
110.949
80.3264
80.1784
79.5737
79.8808
98.6209
75.417
96.5839
72.9284
98.1752
96.4195
74.1484
72.4293
94.7195
100.717
98.3079
72.5183
97.3082
76.3186
76.3083
96.2057
94.8191
69.9789
71.948
72.193
68.8587
97.9175
68.6813
74.3468
71.9182
136.791
69.1003
75.4942
94.8715
80.041
82.2198
76.9794
114.455
80.0425
80.0532
80.0899
73.3229
95.0743
79.5656
75.4263
95.1882
80.1355
114.722
73.405
106.46
114.973
75.2402
96.2323
115.235
76.8706
74.9789
106.329
76.2726
75.426
72.7911
75.904
75.3169
115.05
80.2784
75.5455
73.7651
75.8019
98.5037
77.0177
78.1525
75.3348
75.7445
79.263
75.0266
74.3187
98.3434
73.3949
115.258
77.7799
74.0477
82.8026
87.0528
86.3817
91.1705
74.736
76.8216
86.2365
86.79
109.415
78.7359
74.5435
86.6831
87.9737
87.3123
80.6378
74.1751
77.4316
81.6851
77.0252
77.0633
78.3355
115.909
81.4456
79.879
80.2093
75.8127
100.411
73.9115
81.5848
108.732
115.41
79.3834
76.8703
114.112
85.6763
81.1764
83.6685
76.4795
81.531
75.5783
106.557
107.666
73.1266
78.9575
77.6852
85.7656
114.907
84.1581
77.4192
76.8533
81.9841
76.6001
85.0028
80.1095
73.7718
84.5006
77.0799
77.4254
75.7233
92.8616
117.909
75.7831
76.2577
109.554
99.8383
74.7938
81.0592
76.3717
96.671
76.568
97.3361
85.19
115.537
78.2456
80.4031
74.6385
77.7582
80.464
75.868
76.3296
81.8815
82.3725
101.348
83.6845
84.2082
114.888
122.56
107.647
80.8483
77.1212
84.4029
126.62
78.3809
79.9476
83.1813
113.683
114.25
81.7929
80.9343
91.2183
78.0197
77.1839
77.688
84.8683
77.9115
77.3915
81.6848
81.958
83.0296
80.9424
102.91
76.6848
81.3156
76.2805
101.662
81.1869
77.7431
82.2161
75.5994
100.412
86.3388
83.8147
86.4087
122.769
98.2912
91.3513
99.3043
99.0387
82.0256
114.51
72.7917
96.9158
80.912
80.5636
79.1921
106.365
89.6899
76.5499
113.662
113.822
114.763
109.183
79.382
105.151
80.4205
114.101
93.9281
107.554
78.2295
79.1529
82.2927
83.6632
77.0943
87.0337
107.514
109.277
91.4886
78.6493
100.952
81.2524
83.5662
114.227
80.8757
83.4476
105.972
84.3103
115.854
80.6767
96.8824
82.7148
81.9063
83.3556
111.21
79.5203
106.988
116.227
80.9204
86.5323
81.0872
81.0114
79.4268
114.288
100.836
86.8091
108.289
79.9163
100.501
87.3643
113.549
77.4354
114.096
101.654
79.7806
80.6965
113.712
83.3703
75.5117
98.5125
74.8164
94.7275
116.156
70.9521
105.84
80.2333
78.2557
115.683
102.085
113.028
82.5128
112.402
113.527
85.8437
113.374
85.3363
106.023
103
97.1475
112.879
113.582
94.8626
79.9492
112.069
82.0147
81.0035
112.683
113.459
114.787
81.4005
81.9432
113.867
79.9574
113.628
81.7974
80.5236
101.89
77.9244
85.3821
82.6616
77.3657
83.0564
82.0186
84.5119
113.355
106.152
73.5712
101.522
74.9938
79.5699
79.2742
80.5231
78.8241
82.1421
116.114
82.217
76.9441
79.1818
76.5292
103.08
114.664
79.6438
82.7075
74.6678
86.9185
76.744
94.6656
79.7368
76.3814
75.9665
69.7366
110.863
116.39
80.7144
110.627
80.2613
78.3085
115.768
79.9226
76.9602
103.499
77.7705
81.8214
107.139
95.86
76.04
79.9051
115.905
115.207
87.6061
112.181
78.9459
104.033
101.216
81.2349
114.281
79.9481
72.6197
73.3314
71.8392
79.9026
117.883
113.156
80.4723
98.6
76.8047
80.2107
80.7862
80.4175
85.2514
75.645
94.6663
76.4421
81.7998
91.2199
81.8279
87.1213
79.9538
79.8548
114.109
106.431
81.9017
73.9419
71.6548
75.8686
80.5147
81.7877
78.3476
75.3734
85.1367
80.5249
116.393
107.018
71.9657
83.0939
79.1533
89.4225
101.467
75.2674
115.953
75.6746
81.7425
79.5128
115.426
83.168
99.1528
81.8739
79.817
113.336
73.2781
69.5647
79.9625
105.123
107.146
101.751
112.474
82.5012
80.0544
73.2047
71.0665
95.9784
95.5425
113.27
79.9227
80.0387
80.4018
81.241
82.6901
72.9435
77.6155
96.7449
110.414
77.8989
114.802
82.0434
77.138
109.328
80.1875
75.8516
81.7719
113.791
111.984
114.618
95.226
81.7758
87.2231
77.4747
106.62
81.916
115.983
79.2451
77.7456
80.2457
114.376
76.1207
81.6164
115.79
81.8251
113.812
87.4262
80.0274
82.1423
75.9643
75.2276
76.8457
77.8031
75.3957
79.3259
76.3208
84.8902
101.119
102.369
86.468
83.8744
82.887
88.6007
100.835
105.128
94.2496
91.4709
109.125
113.192
117.209
116.023
81.8995
81.1007
80.7156
77.1059
107.434
106.193
115.955
81.1738
80.7488
96.3988
80.3209
74.8638
95.0183
81.7184
99.4347
79.7861
94.6096
111.29
103.702
96.7903
80.477
81.8705
114.379
78.0699
114.849
96.0853
82.4818
74.7416
80.8844
74.9023
73.9914
93.7267
113.723
105.473
80.1993
95.0972
80.3469
78.8311
75.5528
75.2019
68.8554
78.424
113.64
113.061
79.5753
68.9783
74.2356
114.204
101.478
108.108
105.55
115.856
95.6207
113
72.3205
81.7126
85.1079
116.056
95.0313
73.1558
123.676
82.1193
100.399
80.3037
109.907
75.5232
99.2419
80.3405
95.4968
81.433
78.7127
76.2946
78.4228
73.8123
79.4093
115.11
114.98
115.796
79.4917
73.1657
115.019
76.5867
76.3883
99.0056
78.9014
106.957
80.9574
81.6865
115.554
100.071
75.2228
115.434
72.5664
95.8759
100.887
102.549
102.371
113.062
81.6765
77.0028
95.8787
82.0872
86.3019
85.5216
107.003
117.455
68.7409
74.9027
73.3899
97.3098
105.375
75.7365
98.9908
80.5242
115.905
77.6308
80.9282
75.2719
114.151
114.163
81.0701
99.145
83.364
72.6917
99.4932
80.4199
100.985
75.8975
99.9964
76.1317
72.6743
71.436
86.3836
115.596
113.596
82.6696
78.3255
114.443
116.077
86.7162
105.823
115.591
108.677
76.8917
74.9042
109.392
71.6214
116.481
115.569
75.9862
81.9503
76.6453
74.0107
114.887
76.9078
108.559
77.9457
113.876
113.867
114.037
114.733
80.2131
94.4165
111.696
108.952
116.013
81.6468
117.679
75.5859
73.1234
116.558
87.0859
82.1838
115.494
79.9659
114.569
71.9011
98.2081
114.705
114.419
78.262
74.6067
107.214
79.2835
115.119
114.829
115.249
114.979
108.276
107.934
113.921
113.998
114.112
114.26
105.71
86.4088
82.0921
113.991
114.42
77.8612
81.7149
115.266
100.036
75.006
82.0762
68.8833
73.7522
72.9072
81.1345
111.843
82.211
81.8965
113.67
99.5592
114.599
113.422
116.891
106.094
107.015
82.0918
79.7409
105.825
116.276
104.757
75.7277
100.323
105.031
71.8534
114.554
112.668
94.8211
108.703
111.061
95.4554
75.4512
75.5295
81.6975
113.497
77.0569
78.4879
72.7643
80.2641
71.3386
73.1651
96.3189
110.465
91.6144
95.3143
76.4703
79.9716
95.641
79.346
107.487
107.093
79.2092
113.665
74.7552
114.528
96.2629
118.239
80.6588
106.103
91.4862
99.9253
75.046
79.8461
87.0697
110.494
76.5439
88.7704
73.2529
69.9065
81.27
76.6105
78.058
75.8416
77.1777
110.791
86.2559
75.2712
74.7396
87.375
105.787
115.189
77.8894
73.3357
81.2779
80.019
80.0457
76.4525
85.0227
81.3176
79.5903
76.1382
115.831
70.691
95.7881
96.7432
107.537
113.49
115.888
112.571
113.776
94.9418
110.483
110.823
114.269
98.2778
104.884
80.2638
113.601
75.8336
115.891
115.674
75.9014
74.2302
102.444
96.7298
106.266
80.1509
78.8104
81.3888
72.5582
102.481
103.896
87.0425
81.4528
72.39
95.7216
95.4212
75.6695
87.0247
113.273
97.7199
76.7724
79.5527
75.8198
74.7192
96.5102
73.1299
95.5271
79.608
75.2185
80.0852
85.1829
113.842
114.536
98.4934
74.8168
81.6617
80.955
105.421
76.2595
79.0756
112.478
77.9982
107.794
74.7439
96.1556
79.3163
79.8723
84.8604
115.133
80.5629
115.783
73.6874
87.3927
80.9379
80.0282
83.8678
84.523
105.989
114.472
96.2956
113.813
81.9684
77.7348
111.317
81.5582
70.186
101.44
74.6669
98.926
80.0366
114.223
116.274
107.072
72.9844
76.9477
80.5355
103.124
81.4243
79.9879
99.7193
76.0569
79.7419
96.9671
75.7205
98.408
106.763
98.3116
75.4769
82.5699
94.9241
80.6769
72.6369
102.936
74.9219
101.072
79.3298
72.2652
79.6849
75.1576
73.5444
73.4988
70.8495
114.583
81.7754
102.339
115.764
83.169
69.5397
110.079
81.9489
72.489
116.51
108.682
116.612
103.2
77.0081
71.8454
116.138
102.43
115.708
81.8848
76.3854
81.0447
72.3854
75.4284
88.571
80.4702
114.793
81.2425
114.478
77.1015
75.4577
103.721
113.027
113.246
81.6286
113.406
97.8736
114.272
113.332
82.7704
75.754
112.549
97.3097
113.789
112.337
113.136
81.893
114.852
93.8247
116.162
111.766
88.039
83.5134
116.316
116.486
115.366
113.551
80.6105
109.311
115.209
91.0406
117.816
115.052
75.9967
115.224
73.6727
73.9972
70.7009
72.5566
73.7474
71.3562
79.8725
81.4058
95.0815
111.949
116.89
77.5697
108.017
76.5189
82.4342
82.0841
107.924
94.0984
75.2233
78.9589
115.045
73.7911
95.5619
113.953
79.6096
114.437
100.404
75.6623
110.951
77.5371
82.0589
115.346
81.4436
74.5811
71.649
74.1109
96.8799
82.1729
70.4342
71.6899
111.54
114.42
114.25
114.076
114.802
115.176
106.477
112.461
97.4104
79.939
115.141
103.428
77.3751
114.827
78.0582
97.4182
79.0849
77.9392
78.789
75.923
77.1914
74.6825
75.6273
81.8145
96.8065
74.8986
81.0437
98.211
128.197
92.8776
99.0735
110.378
116.572
106.637
104.673
103.373
72.1817
71.9187
74.1934
76.9875
77.0164
76.427
98.5789
74.6334
113.979
114.375
114.942
)
;

boundaryField
{
    frontAndBack
    {
        type            empty;
    }
    wallOuter
    {
        type            zeroGradient;
    }
    inlet
    {
        type            zeroGradient;
    }
    outlet
    {
        type            fixedValue;
        value           nonuniform 0();
    }
    wallInner
    {
        type            zeroGradient;
    }
    procBoundary1to0
    {
        type            processor;
        value           nonuniform List<scalar> 
29
(
75.9166
75.9166
71.384
70.5892
72.5023
73.0144
104.91
75.627
78.9833
71.6888
73.2507
73.0144
71.384
76.1611
105.627
106.05
72.5023
72.6981
70.5892
76.4798
106.237
106.275
73.7511
104.985
104.985
73.7511
106.928
105.028
106.928
)
;
    }
    procBoundary1to2
    {
        type            processor;
        value           uniform 76.0356;
    }
    procBoundary1to3
    {
        type            processor;
        value           nonuniform List<scalar> 
48
(
75.3894
76.2322
76.0131
76.0131
75.617
76.0944
76.0944
74.3243
75.4642
75.9039
74.437
75.9039
76.223
73.4959
74.3611
76.223
74.2586
74.2586
72.8466
72.8466
72.4682
72.7071
72.636
74.8373
74.8373
73.145
73.4911
73.4911
73.9708
74.4613
73.7376
73.9708
74.3243
75.5849
72.5566
74.4613
74.7476
74.437
75.839
75.7364
72.752
75.1689
75.5849
72.5566
75.1633
76.6346
75.574
72.752
)
;
    }
}


// ************************************************************************* //
