/*--------------------------------*- C++ -*----------------------------------*\
| =========                 |                                                 |
| \\      /  F ield         | OpenFOAM: The Open Source CFD Toolbox           |
|  \\    /   O peration     | Version:  v1912                                 |
|   \\  /    A nd           | Website:  www.openfoam.com                      |
|    \\/     M anipulation  |                                                 |
\*---------------------------------------------------------------------------*/
FoamFile
{
    version     2.0;
    format      ascii;
    class       surfaceScalarField;
    location    "0.62";
    object      phi;
}
// * * * * * * * * * * * * * * * * * * * * * * * * * * * * * * * * * * * * * //

dimensions      [0 3 -1 0 0 0 0];
oriented        oriented;


internalField   nonuniform List<scalar> 
11117
(
-7.14765e-06
-1.79202e-05
3.43507e-06
2.16328e-05
-6.71326e-06
0.000138768
2.63465e-06
-0.00013469
-3.95162e-05
6.02821e-05
-9.14067e-05
7.06408e-05
-0.000418274
-1.28488e-05
0.000193173
0.00023795
0.00019669
0.000169873
-0.000119576
-0.000246987
-2.43716e-05
6.79731e-06
-5.5017e-05
7.25912e-05
-0.000197548
1.06129e-05
0.000108881
7.80539e-05
-0.000119059
1.86377e-05
3.18864e-05
6.85345e-05
0.00128595
0.000248526
-0.000946441
-0.000588039
-0.000193431
0.000200058
-4.4336e-05
3.77089e-05
-0.00085103
0.000919281
0.000295587
-0.000363838
-0.000576627
-0.000173763
0.000404688
0.000345702
-0.000339086
-0.00023568
0.000220383
0.000354383
0.000821375
-0.000977515
0.000435758
-0.000279618
0.000124134
-0.000115023
6.88184e-05
-7.79293e-05
1.27155e-05
4.56092e-05
-3.22492e-05
-2.60756e-05
-8.88642e-05
7.11669e-05
-2.65401e-05
4.42375e-05
-0.000579892
0.000589575
0.000700651
-0.000710334
5.83297e-05
0.000187731
-0.000121927
-1.66361e-05
8.73354e-06
0.000148248
-0.000140346
-0.00032418
0.000183123
7.01553e-05
7.09017e-05
-1.46099e-05
8.45508e-06
3.10039e-05
-2.48491e-05
0.000233584
0.000159776
-0.000126723
-0.000266638
0.000123802
0.000119213
-9.28643e-05
-0.00015015
0.000363031
0.000224737
-0.000399436
-0.000188332
0.00097374
-0.00100762
0.000278362
-0.000244481
0.000239929
-0.000342583
0.00067903
-0.000576377
-0.00015876
0.000234169
-0.000204825
0.000129416
7.68024e-05
5.56176e-06
0.000988948
-0.00107131
0.000137063
-8.96539e-05
0.000103639
-0.000151048
-0.000251153
-0.000315138
0.00044164
0.000124651
-0.000113381
-0.000422273
0.000370251
0.000165403
-0.000116714
-0.000438324
0.000370296
0.000184743
0.000113387
-8.35487e-06
2.06673e-05
-0.000125699
-0.000234455
0.000121816
-7.9942e-05
0.000192582
-0.000200135
0.000111771
-6.67458e-05
0.00015511
0.000607205
-0.000824958
0.00100552
-0.000787769
0.000583695
-0.00068678
-0.000224386
0.000327471
0.000323181
-5.81074e-05
-0.000515079
0.000250006
0.000154609
0.000474934
-0.000549997
-7.95458e-05
0.0001596
0.000448251
-0.000479066
-0.000128785
5.7798e-05
0.000106731
-0.000152789
-1.17402e-05
0.00100906
0.00088862
-0.000892809
-0.00100487
0.000217382
9.28612e-05
-5.3816e-05
-0.000256427
0.000162384
4.36324e-05
-0.000147686
-0.000937268
0.000743085
-0.000225736
0.000419919
-0.000854635
0.000675317
-0.000208398
0.000387717
-4.25279e-05
-0.000100468
0.00011916
2.38353e-05
7.33944e-05
-3.41786e-05
1.89591e-05
-5.81749e-05
-9.81889e-05
0.000115763
-1.75739e-05
-6.7393e-05
4.04395e-06
6.3349e-05
-0.000353216
-0.00118331
0.000535273
0.00100125
0.000123411
-9.50022e-05
0.000110153
-0.000138562
-6.46681e-05
7.10907e-05
-2.62536e-05
1.98309e-05
1.19585e-05
-1.19585e-05
0.000421714
0.000174467
-0.000551359
-4.48224e-05
0.000382982
0.000159274
-0.000501319
-4.0937e-05
-0.00016342
2.63072e-05
0.000180095
-4.29822e-05
0.000891938
0.000115379
-0.00137615
0.000368836
-0.000382613
0.000827506
0.000528848
0.000840465
-0.000857352
4.63558e-05
-2.94688e-05
0.00013528
-5.14536e-05
-7.10283e-05
-1.2798e-05
-0.000161025
-1.44349e-05
-7.56932e-05
9.10457e-05
-2.96799e-05
-0.000174747
0.000113541
-3.81643e-05
-0.000192091
-3.55851e-05
-9.9274e-05
8.21848e-05
5.26744e-05
0.000138668
-0.000125416
5.53516e-05
-6.86032e-05
4.43477e-06
-0.0003385
0.000334066
-0.000714955
-0.000350327
0.000589853
0.000475429
-1.31019e-06
4.83654e-05
1.06381e-06
-4.81191e-05
0.000492383
-0.000147097
-0.000698503
-0.000206722
0.000196591
0.000148799
-0.000271532
-0.0012663
0.00130367
0.000234166
-7.01623e-05
0.000162564
-0.000107856
1.54546e-05
-0.000753485
-0.000541362
-5.34362e-05
-1.39344e-05
0.00014822
-8.08493e-05
-2.33758e-05
-3.21316e-05
5.55074e-05
-0.000984099
-0.000155323
0.0001318
0.000164824
9.77034e-05
-4.51453e-05
2.59608e-05
-1.17564e-05
-1.42044e-05
-1.17561e-05
1.83872e-05
-6.50311e-06
-1.28032e-07
8.58648e-05
4.32214e-05
-4.49985e-06
-0.000124586
0.000149239
-0.000111477
0.000301999
-0.000339761
-0.000221528
8.58395e-05
0.000257976
-0.000122287
-0.000310961
0.000303908
0.000311446
-0.000304394
5.17902e-05
-0.000431493
0.000379703
-1.68496e-05
-0.000591123
0.000607972
3.01463e-05
-0.000476315
0.000446169
3.38881e-05
1.6365e-05
8.7074e-05
-0.000137327
-8.42548e-05
4.07779e-05
0.000107246
-6.37695e-05
0.000516822
-0.000152898
7.73837e-05
-0.000441307
0.000690178
5.94504e-05
-6.44623e-05
-0.000685166
0.000673817
-3.50912e-05
4.68693e-05
-0.000685596
-0.000692611
3.84217e-05
-2.75201e-05
0.00068171
-0.000551354
4.24445e-05
-1.81857e-05
0.000527095
-4.92338e-07
0.000221782
-0.00032148
0.000100191
0.000577785
2.23411e-05
-2.22968e-05
-0.000577829
0.000631961
4.57713e-05
-2.78757e-05
-0.000649857
0.000668022
4.97335e-05
-3.11828e-05
-0.000686572
0.000808182
6.39134e-05
-3.16302e-05
0.000369037
8.00539e-05
-0.00040212
-4.69703e-05
-0.000225124
0.000166257
6.52269e-05
-6.36013e-06
0.000309367
-0.000384595
-0.00117696
0.00125219
0.00070552
0.000284589
-0.000739527
-0.000250582
-0.000100642
0.000195454
-0.000132082
3.72698e-05
-0.000886739
0.000215295
0.00078946
-0.000118016
3.9043e-05
-3.61778e-05
0.000119746
-0.000122611
1.43923e-05
3.52863e-06
2.15786e-05
-3.94996e-05
-0.000240084
6.87947e-06
9.84556e-05
0.000134749
0.000107323
-2.86341e-05
8.61355e-05
-0.000106781
7.59178e-05
7.49427e-05
-4.408e-05
-8.18518e-05
7.8682e-05
6.64918e-05
-6.3322e-05
-0.000415775
0.000350388
-0.000146024
0.000211411
-1.20304e-05
1.46139e-05
1.56961e-05
-1.82795e-05
7.55017e-05
0.000502441
-0.000565209
-1.27342e-05
0.000129108
0.000634997
-0.00072066
-4.34448e-05
-1.43638e-05
-7.30706e-05
6.48114e-05
2.2623e-05
-0.000503198
0.000440985
0.000868776
-0.000806563
3.90149e-05
-2.19301e-05
-0.000874437
-0.00103833
8.2078e-05
0.000958582
-2.32609e-06
0.00100285
-0.000696743
-0.000809303
4.91743e-05
-5.05692e-05
1.39495e-06
0.000128478
-7.86732e-05
0.000137002
-0.000186807
-0.000111551
-0.000100645
-9.2983e-05
-3.49817e-05
6.31554e-05
6.48093e-05
-0.000341894
0.000395253
0.000604866
-0.000658225
-0.000525714
0.000752169
-0.000607359
0.000380905
9.37537e-06
7.79783e-05
-6.85529e-05
-1.88008e-05
0.000579798
-0.000861645
-0.000114336
0.000396183
4.06727e-05
-5.41736e-06
4.75593e-06
-4.00113e-05
0.000313159
-0.000201137
-0.000228752
0.00011673
5.9509e-05
9.50915e-05
-0.000133102
-2.14989e-05
0.00018206
-0.00012735
-7.27919e-05
1.80823e-05
-0.000935209
0.000106094
-0.000154984
-0.000362753
0.000329099
-0.000692586
0.00072624
5.7507e-05
-6.5905e-05
-0.000106625
-0.000392281
3.39165e-05
9.53364e-06
0.000348831
6.97658e-05
9.63401e-05
-3.0826e-05
-2.2757e-05
2.22716e-05
4.48447e-05
-4.43593e-05
6.21517e-05
0.000118165
-8.08847e-05
-9.94323e-05
-0.000203024
1.66493e-05
0.000124508
6.18666e-05
-1.55159e-05
-0.000324964
0.000379663
-3.91832e-05
8.02862e-05
-8.01115e-05
-8.9588e-05
8.94132e-05
0.000417871
-0.000248799
-0.00020071
3.1638e-05
-8.91964e-06
7.21573e-05
-5.09223e-05
-1.23154e-05
4.3606e-06
0.000211157
-0.00014219
-7.33282e-05
0.000236039
-0.000106576
-9.85537e-07
-0.000424651
0.000947204
-0.000541807
1.92548e-05
0.000118673
9.8378e-05
-0.000160891
-5.61596e-05
-3.84118e-05
0.000119253
-3.27908e-05
-4.80505e-05
0.000928764
0.000449983
-0.000614303
-0.000764443
2.17625e-05
-1.21912e-05
-5.07147e-05
4.11434e-05
-0.000474199
-3.11469e-05
-0.000381393
0.000117164
-0.000188067
-6.61934e-05
0.000137096
-0.000298512
-0.000354941
0.00041589
0.000237562
0.000863568
-0.00020446
-0.000659108
0.000101653
0.000419788
-4.7346e-05
-0.000372442
0.000957588
-0.000230635
-0.000726953
0.000272735
0.000139332
-3.26193e-05
-0.000106712
-0.000100501
0.000404813
-0.000304312
6.48497e-05
-8.08804e-05
1.60307e-05
-7.34399e-05
0.000376831
-0.000303391
-0.000480273
0.000544424
-6.41515e-05
-0.000486592
0.000480765
5.82644e-06
-0.000196013
-5.46877e-05
0.000250701
-0.000137389
-8.09737e-05
0.000218363
-7.20403e-05
-3.47402e-05
-4.89057e-05
-3.29461e-05
-0.00011835
0.000105096
1.32531e-05
0.000209202
0.000193502
-0.000402705
0.000169072
-0.000219602
5.05304e-05
0.000176098
-0.000242693
6.65953e-05
7.94703e-05
-3.70446e-05
-4.24257e-05
-0.000259158
0.000315494
-5.63356e-05
-8.87146e-05
6.04005e-05
2.83141e-05
-0.000403922
0.000482873
-7.89507e-05
-0.000121694
0.000136395
-1.47017e-05
0.000962986
-0.00105312
9.013e-05
4.08564e-05
7.74438e-05
-0.0001183
-0.000198163
0.000268278
-7.01152e-05
0.00010049
3.19958e-06
-0.00010369
-0.000266207
0.000308644
-4.24369e-05
-0.000153251
0.000196433
-4.31817e-05
-0.000108025
0.000283387
-0.000175363
-0.00025163
2.65057e-05
-0.000226498
0.000148104
7.83943e-05
0.00014655
-0.000104084
-4.24661e-05
1.99213e-05
0.000146336
-0.000206158
-0.000644871
-0.000331026
-9.12464e-05
-0.000353269
-8.50557e-05
-0.000135728
-0.000179409
0.000152553
-9.30442e-05
0.000408432
-9.52724e-05
0.000176864
8.23591e-05
-0.000259223
0.000117256
-2.19202e-05
-9.53356e-05
0.000160801
2.69306e-05
-0.00108956
0.00139892
0.000213221
1.66761e-05
-0.000229897
-0.000979803
-0.000203507
-0.000144767
0.000102239
1.71004e-05
-0.00011459
9.74893e-05
-0.000721646
-0.00013299
-0.000793577
-0.000143691
-7.32795e-05
-1.04953e-05
8.37748e-05
2.51477e-05
-1.84397e-05
1.97225e-05
-2.64304e-05
-0.000177023
8.86297e-05
0.000475929
-0.000387535
-0.000902742
0.000903609
0.000675085
-0.000675951
4.50866e-05
-6.63874e-06
-4.5151e-05
6.70317e-06
-0.00118941
0.00114604
-5.16708e-05
9.5044e-05
-0.000208591
0.000184507
-4.93564e-05
-0.000190903
0.000184303
-9.39005e-05
1.74439e-05
-7.47689e-05
-0.000158645
0.00021597
0.000135074
-0.000141859
-0.000144614
0.000151399
5.19154e-05
-4.7763e-05
-5.79267e-05
5.37743e-05
-0.000244579
0.000199064
0.000227575
-0.000200252
4.92445e-05
0.000580295
-0.000429287
0.000781986
-0.000677523
-0.000180878
7.64147e-05
-0.00140431
-3.47014e-05
0.000249596
0.000175844
-0.000211188
4.30153e-05
-7.67113e-06
0.000251345
2.21522e-06
-4.32569e-05
-0.000210304
0.000667847
-0.000180774
-5.78904e-05
-0.000429182
-0.000333067
-0.000242639
3.84427e-05
0.000537263
-7.42469e-05
5.3726e-05
0.00125116
-0.00123064
-6.03045e-05
-2.37068e-05
8.40113e-05
6.75625e-06
0.000123803
-5.83245e-06
-0.000124727
-0.000128919
5.96134e-06
-7.98116e-06
0.000130938
7.42194e-05
-8.16602e-05
-8.84055e-05
9.58463e-05
-6.87222e-05
9.73698e-05
-0.000215217
0.000186569
-8.32864e-05
0.000128487
-0.000227262
0.000182061
4.58405e-06
1.22379e-05
7.9749e-05
-9.65709e-05
0.000136261
-4.39658e-05
-0.000219292
0.000126997
0.000241444
-0.000275088
1.71435e-05
1.65006e-05
2.32561e-05
2.9243e-05
-0.0010594
0.0010069
-0.000141509
5.5806e-05
-0.000750085
0.000835788
0.000847701
-0.000849312
6.88038e-05
-6.71926e-05
0.00018484
-0.00028197
-0.000154257
0.000251387
-3.22876e-05
-7.57357e-06
1.63752e-05
2.34859e-05
-0.000121888
-5.52177e-05
9.43783e-05
8.27274e-05
0.000160952
-0.000143559
-8.40191e-06
-8.99033e-06
5.10625e-05
0.000703872
-0.000390442
-0.000364492
1.35874e-05
0.000216149
-0.000112572
0.000238197
-0.000258542
3.39327e-05
-5.47042e-06
-1.91548e-05
0.000100543
-1.77921e-05
6.40991e-05
-0.000156865
0.000110558
6.01357e-05
-1.71595e-05
7.56968e-05
5.24754e-05
-0.000535355
0.00048288
4.65281e-05
-0.000476697
0.000430169
4.2653e-05
-0.000534529
0.000491876
6.74333e-05
-6.70529e-05
-3.59655e-05
-0.000166607
2.61077e-07
1.65472e-06
-5.76242e-06
3.84663e-06
-1.8381e-05
2.73052e-05
-0.000951838
0.000942913
-0.000306294
-0.00036257
0.000432458
0.000236405
0.00106175
-0.000453936
-0.000811065
0.000203253
-0.000654055
0.00116051
-0.000873849
0.000367391
8.94851e-06
-2.6191e-05
4.23902e-05
-9.80753e-05
-6.36169e-05
6.87092e-05
-0.00060153
-6.66203e-05
0.000289167
0.000378983
-5.91691e-05
-0.000202112
5.26905e-05
-0.000121374
-0.000155478
8.5949e-05
4.3729e-06
0.000118612
-4.53991e-05
-7.75863e-05
-0.000318203
0.000198783
0.00011942
-7.0085e-05
7.0266e-05
-1.81014e-07
0.000277886
-0.000171581
-0.000144717
0.000101391
-0.000375455
0.000330363
-5.6298e-05
0.000101243
-5.9987e-05
-0.000593205
3.23546e-05
-5.52784e-05
0.000616129
-0.00053792
3.14223e-05
-5.98549e-05
0.000566352
-0.000230786
-7.1919e-05
9.35234e-05
0.000209182
-8.08054e-06
0.000199509
-0.000231789
4.03604e-05
-0.000302889
0.000490824
0.000347338
2.98871e-05
-0.00108573
0.00111213
-5.62864e-05
2.2585e-05
9.30476e-05
-4.14131e-05
2.1777e-05
-6.05925e-05
-2.58526e-05
0.00018255
-5.1839e-05
-0.000181855
5.1145e-05
-4.44318e-05
5.68413e-05
1.57525e-05
-2.8162e-05
4.93974e-05
0.000241786
-2.7342e-05
-0.000263841
9.59774e-05
6.83034e-05
-4.70251e-05
-0.00033651
-6.27498e-05
0.000294421
0.000104838
-0.000487026
0.000349396
0.00029723
-0.000147189
7.78468e-05
0.000127141
-0.000667516
0.000430418
0.000391707
-0.000529024
1.99753e-05
0.000526286
-1.72372e-05
-0.000591015
-1.15277e-05
0.00060016
2.38264e-06
2.77947e-06
0.000568331
-0.000552481
-1.86288e-05
-3.72472e-05
0.000589642
-0.000577497
2.51022e-05
-0.000638255
0.00104743
-0.000771928
-0.000112156
0.000106519
-9.16348e-05
9.72719e-05
-0.000103304
0.000104209
-0.000132068
0.000131163
0.000158683
-0.000121781
3.68062e-05
-7.37082e-05
-2.40897e-05
1.17236e-05
-2.13939e-05
3.376e-05
-0.000965725
0.000118351
0.000948275
-0.000100901
-0.000118605
0.000705203
-0.000755868
0.000169271
-5.26526e-06
-9.30661e-05
0.000302395
-0.000204063
-0.000108533
7.79558e-05
0.000218774
-0.000188196
-3.17705e-05
-0.000105438
0.000471739
-0.000334531
-7.49226e-06
0.000109245
4.8359e-05
-0.000150112
4.64889e-05
-7.334e-05
0.000112716
-0.000562115
0.000515377
3.70593e-06
2.08097e-05
-3.62717e-05
0.000335336
-0.000278118
-6.15487e-06
0.000217243
0.000163017
-0.000214302
-0.000165958
3.736e-05
-1.5116e-05
0.000313554
-0.000335797
-3.8323e-05
4.75686e-06
-1.08657e-05
0.000573952
-0.000314794
-0.000609486
0.000761222
-0.000396839
0.000690224
-0.000364576
0.000216686
-2.76848e-05
2.64846e-05
2.61873e-05
7.65386e-05
-0.000129211
0.000459904
-0.000768876
-0.00059377
3.16086e-05
-4.93045e-06
-3.87086e-05
-0.000427124
0.000472478
0.00101288
-0.00105824
0.000846227
-0.000171573
-4.64827e-05
-0.000628172
6.03289e-07
1.1169e-05
2.62006e-06
-0.000310968
0.000188349
0.000356788
-0.000237001
6.35983e-05
-6.66807e-05
0.000169906
-0.00072656
0.000633457
4.52331e-05
2.91498e-05
-3.62056e-05
-3.81774e-05
0.00015273
5.66758e-05
-7.32874e-05
-0.000136118
-0.000614527
0.000563311
0.000492201
0.000140909
0.000154159
6.02703e-05
-6.94851e-05
6.89847e-05
-5.977e-05
-1.68408e-05
-0.000199332
0.000158065
3.53235e-06
2.19662e-06
-8.30246e-05
7.72956e-05
-0.000168195
-0.000186533
0.000784226
0.000135055
-1.6817e-05
-8.04933e-05
0.000335131
0.000106509
0.000143798
0.000118621
-4.68811e-05
0.000205705
-0.000198949
-7.19063e-06
-3.06891e-05
2.20045e-05
0.000126099
2.10825e-06
-4.08919e-05
0.000232838
-2.55741e-05
-6.61296e-05
-4.16746e-05
0.000142165
-3.88846e-05
-0.000227322
-5.6232e-05
-0.000141931
-0.00051717
3.05788e-05
-0.000134645
-0.000552135
-4.74192e-05
-0.00046766
-1.83055e-05
2.26661e-05
-4.46248e-05
-6.27482e-05
-0.000132529
-3.73579e-05
0.000320745
0.000163464
-2.66354e-06
0.000383138
0.000618115
1.56731e-05
5.7805e-05
-1.179e-05
-1.86695e-05
1.20198e-05
-0.00016121
-0.000253224
0.000190048
0.000493234
-0.000517359
2.38134e-05
3.12032e-07
7.8478e-05
-0.00013624
6.83753e-05
0.000127218
-0.000216619
0.000108038
5.21296e-07
-6.59619e-05
-1.97651e-06
6.74171e-05
0.000273563
0.000469522
0.000251084
0.000424233
3.17931e-05
-0.000132261
4.53269e-05
-5.58169e-05
3.83563e-05
-2.78663e-05
-0.000107683
7.99232e-06
0.000105617
-5.92639e-06
7.77097e-05
-3.49063e-05
-4.22821e-05
-1.82396e-05
4.36861e-05
2.79489e-06
-2.82414e-05
-8.89026e-06
-8.53837e-05
3.12988e-05
6.29752e-05
0.00042365
-0.000116227
0.000134358
-0.0004247
0.000712056
9.35186e-05
-0.000383296
0.000672759
-9.3385e-05
0.000175243
-0.000245278
-1.22619e-05
5.76599e-05
-5.23888e-05
6.99077e-06
-3.55926e-05
0.000155195
-9.19036e-05
-2.7699e-05
3.58381e-05
3.24904e-05
-2.30017e-05
-0.000625161
0.00103077
-0.000735041
0.000329429
6.1453e-05
-0.000176334
-8.52544e-05
7.44605e-05
-0.000197429
-0.000111487
6.28963e-06
7.30645e-05
3.40325e-05
-0.00107386
0.000966226
0.000113192
7.17625e-05
8.24653e-05
-0.000153304
-9.23597e-07
-4.07021e-05
8.22029e-05
-8.2813e-05
4.13121e-05
-3.29961e-05
-0.000163017
-4.43846e-05
-9.30045e-05
0.000361538
-0.0001273
-8.41368e-06
3.95233e-06
4.61525e-05
-4.16912e-05
-5.77164e-05
6.08294e-05
-0.000106534
0.000103421
0.00010035
9.28116e-05
8.40543e-05
0.000125376
3.34193e-05
-0.000102174
-5.66216e-05
0.000137459
-3.5956e-05
-0.000134123
0.000186118
0.000138765
0.00031892
0.00121546
0.000136131
-0.00117614
-0.000175449
6.94723e-05
2.49503e-05
5.37317e-05
-0.000660265
0.000170342
0.000586767
-9.68445e-05
-0.000172744
2.42728e-05
-2.29323e-05
0.000171404
6.52471e-06
-5.12867e-05
3.14864e-05
1.32756e-05
5.97648e-05
-0.000112539
5.48914e-05
-2.1176e-06
-0.000209251
0.000702418
4.48866e-05
-0.000538053
-0.000286062
0.000813516
5.40539e-05
-0.000581508
0.000660462
3.01117e-05
8.349e-05
-0.000774063
-6.13794e-05
5.61955e-06
8.33594e-05
-2.75995e-05
6.37098e-05
0.000145492
-0.000156634
0.000353196
0.000393291
0.000487248
0.000109483
0.000520777
0.000116349
0.000594325
0.00012285
0.000555639
-7.32878e-06
-8.24331e-08
4.22277e-06
3.18845e-06
-6.77588e-05
4.44436e-05
-3.25016e-05
-0.000302699
0.000364152
-0.000339152
0.000413613
3.50197e-05
-2.873e-05
1.4973e-05
-2.00485e-06
1.64569e-06
-1.88216e-05
-0.000164464
0.000191103
-7.81761e-06
-2.38303e-05
-9.85824e-06
2.45263e-05
9.16219e-06
2.63307e-05
0.00067768
-0.000455485
0.000968943
6.13205e-05
-0.00101681
-1.34555e-05
-0.000221177
0.000277282
0.000221781
0.000137048
-0.000263575
-6.68765e-05
0.000193403
0.000171522
-5.5417e-05
1.91141e-05
2.1939e-05
0.000199455
0.000118753
-0.000102202
-0.000131768
2.72037e-05
-0.000954595
0.000927135
-0.000399664
-5.81595e-05
-0.000160281
-2.48219e-05
0.000179732
2.02401e-05
-0.00017515
-7.81646e-05
0.000715215
1.7058e-05
-0.000654108
-8.10419e-05
0.000553293
2.36081e-05
-0.00049586
1.03031e-05
-1.99591e-06
5.85179e-05
-6.68251e-05
0.000112816
-7.30588e-05
-1.2577e-05
-2.71802e-05
4.37692e-05
-0.000142022
0.000189174
-9.09206e-05
-1.82082e-05
0.000223914
-0.000136879
0.000176983
-7.17845e-05
3.16801e-05
-0.000283128
-6.04613e-05
0.00020105
0.000142539
-2.00037e-05
1.32554e-05
-3.92112e-06
1.06694e-05
0.000627227
2.43606e-05
-1.85511e-05
-0.000633037
-1.46119e-05
8.81491e-05
-6.91643e-05
0.000506412
-2.55271e-05
3.09784e-05
-0.000511863
0.000220036
-0.000139943
-0.000137856
5.77627e-05
-0.000497188
-9.29583e-06
-5.86812e-05
0.000565165
-0.000557168
-9.3319e-05
1.75464e-05
0.000632941
-9.38253e-06
-1.09363e-05
1.99118e-05
4.06951e-07
-0.000159392
7.67953e-05
0.000153492
-7.08958e-05
-0.000117143
-7.17677e-05
0.000136851
5.20603e-05
-0.000180599
0.00014321
1.82336e-05
0.000764942
8.30789e-05
-3.98387e-05
4.55566e-05
4.26319e-06
-9.14707e-06
-0.00123818
-0.000112768
0.00118928
0.000161671
0.000512436
0.000288672
-0.000252628
-0.00054848
8.81456e-05
-4.5921e-05
-3.56229e-05
-6.6017e-06
-6.55967e-05
0.00012898
-0.000169605
0.000106222
2.69891e-05
-4.16011e-05
-0.000175631
9.12601e-05
-0.000582358
0.000666729
0.000133136
-0.000111268
2.91699e-05
-5.10381e-05
5.41403e-05
-5.01281e-05
-3.09024e-06
-9.21964e-07
7.98364e-05
3.46506e-05
-5.85656e-05
-5.59214e-05
0.000177419
-0.000140851
-1.0084e-05
0.00108841
-0.000930087
0.000247469
-0.00040579
-0.000259076
-0.000184642
0.000238893
3.38563e-05
0.000153675
-0.000150411
-3.71202e-05
-0.000156203
-3.9011e-05
3.58217e-05
-0.000214789
0.000187276
-8.96301e-05
4.29221e-06
1.1094e-05
-2.47687e-05
-9.53362e-05
7.31113e-05
9.00989e-05
-6.7874e-05
6.2238e-06
9.53597e-05
-9.38297e-05
-7.75375e-06
-2.29908e-06
-5.98789e-06
0.000225014
-0.000413112
0.000483684
0.0011334
-1.66909e-05
2.93279e-05
2.31518e-05
-4.11557e-05
-0.000157499
0.000175503
-6.50549e-05
4.67495e-05
1.97431e-05
-4.85112e-06
-1.1186e-05
9.41287e-05
-0.000172189
0.000124549
-0.000672341
0.000325365
-7.12986e-05
-0.000804243
-0.000482625
0.000110744
9.03016e-05
1.18502e-05
-0.000174727
-9.86671e-06
0.000134375
-0.000106963
-0.000174667
-8.9518e-05
0.000145835
5.05411e-05
5.34612e-05
-6.81642e-05
-1.46063e-05
2.68373e-05
4.71749e-05
-5.9406e-05
-0.000791471
-8.70843e-05
0.000218291
0.000346217
-0.000311686
-0.000207325
0.000172795
-0.000165434
-0.000953885
7.75208e-05
0.0010418
-7.03823e-05
-0.00100432
0.00103276
4.19407e-05
5.11224e-05
-6.24721e-05
-5.49121e-06
-0.000241362
-0.000348204
0.00036839
0.000111464
0.000117419
-0.000127637
-0.000101247
6.99231e-06
-6.96452e-06
1.83005e-06
-1.85785e-06
-0.000798738
-0.000279968
-0.000173298
-4.38832e-05
-1.8814e-05
0.000235996
8.96686e-05
-3.39102e-05
-8.29538e-05
2.71954e-05
0.000231921
-7.42911e-05
-9.40021e-06
-2.66698e-05
-2.25294e-06
6.08699e-05
-4.78296e-05
-4.86328e-05
7.15082e-05
-8.48465e-05
1.45494e-05
-1.21101e-06
5.92632e-05
2.11008e-05
-8.65988e-06
-7.17041e-05
1.08393e-05
0.000622309
-1.20458e-05
-0.000621103
0.0001053
0.000655564
-6.09792e-05
-0.000699884
4.21656e-05
2.60993e-05
3.2433e-06
3.17082e-05
-0.00108986
0.00109008
-3.19309e-05
0.000255527
-0.00152436
5.53728e-05
0.00121346
1.49828e-05
1.9337e-05
-1.24108e-05
-2.1909e-05
0.000188684
-3.3237e-06
-1.95642e-05
-0.000165796
0.000278717
-0.000348538
0.000239694
0.000696286
-0.000590792
-0.000743749
4.14957e-06
1.31387e-05
5.95563e-06
-2.32439e-05
-7.66132e-05
8.99513e-05
-3.99598e-05
2.66218e-05
-0.000111167
7.21563e-05
9.76841e-05
-5.86733e-05
-0.000737238
0.00023579
0.000479653
2.17951e-05
0.000138743
-4.75201e-05
7.78277e-05
-0.000169051
4.39877e-05
-6.54259e-06
6.44234e-06
-4.38875e-05
0.000228614
2.27124e-05
4.50051e-06
-0.000255826
-2.0126e-05
8.18374e-05
-6.17114e-05
0.000316952
-0.0012996
5.63994e-05
-7.26735e-05
-7.0489e-05
8.67632e-05
-1.84079e-05
7.92321e-05
1.68855e-05
1.98498e-05
6.42928e-06
2.17849e-05
-4.8064e-05
0.00104136
-0.00146598
0.000183423
0.000241198
0.00044418
7.39261e-06
1.33544e-05
-0.000464927
-5.68446e-06
-2.73085e-06
5.39719e-05
8.611e-05
8.47559e-05
-0.00091928
0.000748414
-1.445e-05
-1.67869e-05
2.68021e-05
4.43477e-06
-1.52219e-05
0.000168139
-0.000207885
5.49674e-05
-3.51678e-05
-0.000116194
0.00016784
-1.6478e-05
0.00098261
-0.00068695
7.86682e-06
-4.64817e-05
4.21472e-05
4.54772e-05
9.30376e-05
-7.82445e-05
0.000845679
-0.000578604
5.31953e-05
-0.000320271
2.92655e-05
0.000396681
-8.07601e-06
5.20193e-05
-4.05366e-05
-7.60722e-06
-4.65501e-05
1.97312e-05
3.44261e-05
0.000551296
-8.11307e-05
-0.000419859
-5.03067e-05
1.33765e-06
-1.66793e-06
-6.22982e-05
6.26285e-05
-6.15264e-05
-0.00017422
0.000181695
0.000209768
1.93651e-05
4.63697e-05
-3.52807e-05
-3.0454e-05
7.27541e-05
7.40239e-05
-9.91666e-06
1.39438e-06
0.000237136
3.0263e-06
-3.3966e-06
4.4358e-05
4.45599e-05
-2.79971e-05
0.00012218
0.000245616
-0.000280186
0.000125165
-9.05958e-05
0.00113998
-0.00111268
-0.000298833
-3.76037e-05
-0.000603845
0.000183814
0.000521421
2.43064e-05
-3.01284e-05
2.75846e-05
0.000538089
-9.94328e-05
0.000543954
-0.000119947
-5.08271e-05
0.000100611
8.29541e-06
-6.61359e-07
-2.06222e-05
1.29882e-05
4.3648e-05
-2.32852e-05
-4.74758e-05
2.7113e-05
-2.76067e-05
1.99994e-05
2.38746e-05
-9.49902e-05
8.60205e-05
-1.49048e-05
0.000707514
0.000103682
-4.62542e-05
0.000163731
0.000166033
-0.000269539
0.000232292
-0.000427248
0.000430028
-0.000342812
0.000224207
-0.00114255
0.00114515
9.75876e-05
-0.000100194
0.000256639
0.000534513
-0.000253265
-0.000446022
-0.00013308
-0.000122642
-0.000205453
-0.000286838
0.000494515
-0.000718896
-0.000164392
0.000388773
-0.000767385
0.000305254
-8.09545e-05
0.000543085
-4.01813e-05
0.000116901
-0.000342148
0.000265428
-2.3034e-05
-6.03247e-05
-0.00113867
0.00122203
8.75187e-05
-0.000384653
0.00075303
0.000182725
-0.000807745
-0.000128011
-2.07336e-05
2.40489e-05
1.16577e-05
0.000683233
-0.000639904
7.95216e-05
0.000646993
-0.000696229
0.000165586
0.000542153
-0.00050525
7.25792e-05
-1.9483e-05
9.44534e-05
1.46983e-05
-7.62613e-05
1.33841e-05
8.22423e-05
6.88865e-05
-8.26778e-05
6.62744e-05
-5.2483e-05
0.000632006
-0.000533348
-7.88893e-05
-1.97688e-05
0.000621924
-0.000531453
8.62633e-06
-9.90977e-05
9.80626e-05
0.00153341
-0.00120568
-0.000425795
-1.51704e-05
9.0652e-06
-4.0558e-05
4.66633e-05
-0.000994215
-0.000637547
0.00105573
0.000576033
1.4449e-05
-6.31436e-05
-9.40101e-05
0.000142705
1.529e-05
2.1409e-05
4.26946e-05
-7.93936e-05
-9.03461e-06
-1.38777e-06
-3.00622e-05
4.04846e-05
0.000120479
-4.45912e-05
0.000631626
0.000536379
-0.000744111
0.000283234
0.000590215
-0.00082084
0.000359733
-1.04949e-05
0.000121615
-6.31693e-06
1.24243e-05
3.37306e-05
-3.9838e-05
0.000633384
-6.4092e-05
0.00013591
1.10869e-06
2.10318e-05
-9.0733e-06
-0.000143521
-0.00020524
6.87978e-05
0.000279963
0.000139213
0.000831357
-0.000681898
-0.000280501
-0.000365268
0.000339475
0.000688451
-0.000645735
-0.000158367
0.000115652
-0.000120594
6.51847e-05
7.96824e-05
9.00653e-05
-4.69626e-05
3.43411e-05
0.000146603
-1.49932e-05
6.48228e-05
-3.43789e-05
9.06084e-05
0.000518068
-0.000624346
0.000106278
-0.000405386
0.000290513
-0.00127718
0.00139206
-0.000187086
0.000104803
0.000263269
-0.000180986
0.000128536
5.79982e-05
-7.76687e-05
-0.000108865
-0.000430816
-3.02579e-05
0.000589015
-0.000127941
0.000216312
-0.000180702
-0.000377505
-7.75515e-06
-2.23767e-06
-1.79715e-06
0.000153583
-0.000104956
7.99084e-05
-3.72782e-05
-6.30675e-05
2.37326e-05
2.65725e-05
4.54949e-05
-4.9255e-05
-2.28124e-05
0.000194267
-0.000230768
0.000175656
-0.000139155
4.91291e-05
2.14637e-05
9.03587e-05
-5.72206e-05
-7.40973e-07
5.59568e-05
1.02759e-05
2.57101e-06
-2.60254e-06
-1.02444e-05
6.6671e-06
-8.96718e-05
0.000118127
-3.51225e-05
7.5529e-05
-1.75308e-05
4.03982e-05
-3.59251e-05
1.05097e-05
6.60263e-05
-2.229e-05
0.000144948
5.57314e-05
-9.75155e-05
-5.35521e-05
-0.000668412
-0.000407277
0.000813785
0.000261903
0.000822901
-0.00104166
0.000356913
-0.000138157
-2.58945e-06
-0.000122631
0.000125763
-5.42398e-07
-6.34622e-05
0.000240374
-0.000275056
9.81447e-05
-1.94114e-05
2.63775e-05
-4.37246e-05
3.67585e-05
-0.0013425
0.00117619
-0.000247392
0.000413702
0.000371476
-0.000317275
-0.000127609
7.34086e-05
7.88236e-06
0.000686549
-0.000682978
-1.14536e-05
-0.000325241
1.90701e-05
0.000129347
-0.000558684
0.000541234
-0.000111897
0.000168486
-0.000571417
0.000564886
-0.000161955
-0.000101374
-0.000759612
0.000860986
3.56959e-05
-1.14148e-05
2.9106e-05
-5.33871e-05
2.81515e-06
-4.18385e-06
-1.13489e-07
1.48219e-06
3.22888e-05
-4.0586e-06
1.9433e-05
-4.76631e-05
-0.000160912
-0.000124044
0.000173789
3.44999e-05
-7.04545e-05
9.23539e-05
-0.00016019
4.8945e-06
0.000102682
5.26129e-05
-0.000115741
-9.0432e-06
9.13807e-05
3.34033e-05
-2.69286e-05
1.28875e-06
0.000342949
-0.000317309
0.00108301
-0.00111605
-3.85199e-05
7.15615e-05
-0.000182889
-1.70456e-05
0.000241926
-6.63222e-06
-0.000235294
-1.16664e-05
3.52172e-06
1.94026e-05
-1.1258e-05
-4.47047e-05
-3.49603e-05
4.67228e-05
3.29422e-05
2.48164e-07
-4.67084e-05
0.000119572
-3.60559e-05
2.08347e-05
1.95134e-05
-4.98366e-05
6.06253e-05
-0.000225578
8.4694e-06
-9.30607e-07
-0.000163741
0.00058408
4.15878e-05
-5.73373e-05
0.000602422
3.19505e-05
-4.47305e-05
-0.000520756
3.58171e-05
-4.40852e-05
-0.000519269
-6.6667e-05
-5.0785e-06
-0.000359746
-0.000187754
0.000210991
-0.000953506
-0.000169967
0.00027416
0.000151853
6.40431e-05
-9.05197e-05
-8.60578e-05
-0.00117994
0.00119175
-9.07639e-05
4.31369e-05
-0.000270576
-7.69546e-05
-5.01259e-05
5.69955e-05
0.000597854
-0.000184137
-0.000494758
0.000687909
-0.000178114
-0.00058796
6.62054e-05
-5.66922e-05
2.30847e-05
-3.25979e-05
-6.57447e-06
0.000697198
-2.17312e-06
-6.67242e-06
2.84486e-05
-9.06991e-05
6.89229e-05
5.07283e-05
-3.88295e-05
-8.59906e-05
7.40918e-05
3.35787e-05
-2.48761e-05
1.10199e-05
5.75761e-05
-3.5528e-05
-8.98069e-05
-4.07663e-05
-5.32561e-05
3.05344e-05
6.3488e-05
0.000305826
-0.000105181
0.000112302
-0.000312947
-0.000309431
-7.2127e-05
5.63164e-05
-0.00035904
0.000223562
0.000305385
6.20563e-05
6.84002e-05
-7.99154e-05
4.55772e-05
2.29402e-05
-1.16761e-05
3.78622e-05
-4.81386e-05
3.05892e-05
-2.03128e-05
-0.000543797
6.88737e-06
0.000497046
3.98639e-05
0.00029997
0.000361807
-0.000584816
-7.69614e-05
0.00023535
-0.000608142
-0.00029562
0.000417186
0.000292427
-0.00057753
-0.000132084
4.30904e-05
-5.1394e-05
4.96422e-05
-4.13386e-05
0.000115414
0.000162873
-0.00101552
3.83395e-05
-1.78953e-05
-2.81993e-05
0.000114009
-1.76314e-05
-8.79084e-05
-2.2992e-05
-5.44406e-05
4.13767e-05
0.000899947
-2.31382e-05
-0.000766901
-0.000109909
-7.28477e-06
-2.68938e-05
-0.000102236
-0.000179734
-1.04947e-05
9.23321e-05
-0.000103099
0.00110636
0.000157253
-8.2864e-05
0.000215411
0.000113069
-0.000407495
0.000327074
0.000523184
-0.000442763
0.000302523
-0.00030397
0.000487282
-0.000485835
1.98231e-05
-9.80221e-05
-1.97104e-05
9.79093e-05
-8.98107e-05
9.05795e-05
3.06155e-05
-3.13844e-05
-0.000249455
4.35756e-05
4.79214e-05
0.000157958
-0.00110039
0.00109259
9.25544e-05
-0.000724748
0.000467549
-0.000584056
0.000504054
-0.000349885
-0.000126888
0.000117732
0.00010859
-3.6833e-05
0.000860519
-0.0010285
-0.000263122
0.000431104
-0.000224517
-0.000989813
0.00119144
2.28885e-05
-0.00106034
0.0010785
-0.000104213
-0.000482595
0.000426384
0.000350041
-0.00029383
-0.000289739
0.000298576
1.83708e-05
-2.72072e-05
-0.000129601
-3.78563e-05
2.38977e-05
-0.000625461
0.00075371
-0.000535526
0.000145048
-1.02995e-05
1.33954e-05
9.66643e-05
-2.90432e-05
-8.10164e-05
-0.000206643
0.000190291
-0.000114639
8.18266e-05
0.000184665
-0.000919448
0.00088042
-0.000278152