/*--------------------------------*- C++ -*----------------------------------*\
| =========                 |                                                 |
| \\      /  F ield         | OpenFOAM: The Open Source CFD Toolbox           |
|  \\    /   O peration     | Version:  v1912                                 |
|   \\  /    A nd           | Website:  www.openfoam.com                      |
|    \\/     M anipulation  |                                                 |
\*---------------------------------------------------------------------------*/
FoamFile
{
    version     2.0;
    format      ascii;
    class       volScalarField;
    location    "0.5";
    object      nut;
}
// * * * * * * * * * * * * * * * * * * * * * * * * * * * * * * * * * * * * * //

dimensions      [0 2 -1 0 0 0 0];


internalField   nonuniform List<scalar> 
5794
(
0.0012493
0.00059382
0.0021733
0.00549943
0.0149442
0.000893516
0.00160176
0.000980306
0.00223526
0.00267725
0.00201468
0.00118383
0.00167133
0.00680465
0.00108533
0.000760417
0.00851426
0.0064247
0.000671191
0.000561514
0.00156377
0.00079925
0.00167244
0.00103294
0.00215505
0.00340104
0.011698
0.00750152
0.00395645
0.000543472
0.00165241
0.00124966
0.00239488
0.00149551
0.00400474
0.00380702
0.000786714
0.00195657
0.002015
0.00498059
0.00706434
0.0026124
0.000745009
0.000665628
0.00095552
0.00225055
0.00146941
0.000958782
0.00135281
0.00079098
0.000202371
0.00293492
0.001103
0.00230585
0.000144642
0.00224314
0.00113467
0.00129726
0.000741353
0.00426389
0.00134218
0.000536164
0.00167057
0.00243977
0.00569597
0.000981896
0.00393195
0.000678956
0.00526275
0.000683721
0.00613807
0.00402559
0.014539
0.00179702
0.0054744
0.00335794
0.000391886
0.0030853
0.000572705
0.000211535
0.000760646
0.000922985
0.00737379
0.00192468
0.00169319
0.000902293
0.000848277
0.00100155
0.00115571
0.00255464
0.00494345
0.00232782
0.00340868
0.00517737
0.00273512
0.0079279
0.00390294
0.00321194
0.00217949
0.00144491
0.00146537
0.000803439
0.000763777
0.00908139
0.00270688
0.0130102
0.000550749
0.00419207
0.00506764
0.000532996
0.0011714
0.00117665
0.00145182
0.00153054
0.00245107
0.00392079
0.00112252
0.00733109
0.00124789
0.00100619
0.0099633
0.00027955
0.00100371
0.00597818
0.00147432
0.0036157
0.00300764
0.000768364
0.00333222
0.00388072
0.0013534
0.00216115
0.00240329
0.00295639
0.012261
0.00126364
0.00302188
0.000571953
0.00101357
0.00203605
0.00168923
0.00817415
0.00167537
0.00825306
0.0013877
0.012781
0.00219893
0.00155148
0.0144225
0.00343265
0.000727595
0.00227038
0.0129208
0.000748366
0.0133694
0.00170609
0.00183452
0.00160746
0.00207051
0.00175021
0.000581162
0.00110196
0.000693387
0.001514
0.0019257
0.0018516
0.00137915
0.00077659
0.000900586
0.000486614
0.000335601
0.00193426
0.00104042
0.000982155
0.000516924
0.00135571
0.000356017
0.00129559
0.00055515
0.00187958
0.00071841
0.000693197
0.000662993
0.00151432
0.000930717
0.00391574
0.000735072
0.00110724
0.000831865
0.000572063
0.00163366
0.000864796
0.00169495
0.000973357
0.00118983
0.000706633
0.000893425
0.000678328
0.000673811
0.0010082
0.00118361
0.00207244
0.00103083
0.00095672
0.00149346
0.00193271
0.000765613
0.00586011
0.0127501
0.00192141
0.000807421
0.000857776
0.00527556
0.00363955
0.00173454
0.00423712
0.00365585
0.00306797
0.0035547
0.00545252
0.00085682
0.00259184
0.00814882
0.00377246
0.00244308
0.00579196
0.000469675
0.00386338
0.00431383
0.00131538
0.00147351
0.00255263
0.00199196
0.00362554
0.00323359
0.00942479
0.0124669
0.00210722
0.00118668
0.00166271
0.00101286
0.00768809
0.00228717
0.00164535
0.00121254
0.0012981
0.00128335
0.0130762
0.00112478
0.000927213
0.000791377
0.0010856
0.0118378
0.000583863
0.00081652
0.0190339
0.000913106
0.000919307
0.003756
0.0015384
0.00263803
0.00499004
0.00319157
0.000525781
0.000976177
0.00115599
0.00533266
0.00368422
0.00133131
0.00283759
0.00185322
0.00154984
0.00684528
0.00497069
0.000869073
0.00103125
0.00251153
0.00166527
0.00255959
0.00165725
0.00109587
0.00320935
0.00608738
0.00258741
0.00356174
0.00516269
0.00287857
0.00325624
0.00518126
0.010097
0.00262168
0.00306262
0.00212095
0.0023183
0.000773623
0.00300103
0.00336308
0.00269223
0.00230217
0.00066678
0.000537189
0.00101211
0.000578602
0.00320182
0.000531341
0.00311335
0.00261142
0.00435251
0.00242893
0.00185974
0.00168113
0.00275671
0.00220594
0.00134976
0.000783269
0.000906939
0.00517355
0.00878609
0.00454816
0.00405611
0.00136162
0.00186948
0.00585072
0.0153782
0.000681836
0.00245918
0.00171919
0.000964365
0.00148338
0.00184469
0.00177871
0.000820519
0.00103476
0.00148771
0.000836315
0.000976872
0.000820008
0.000683258
0.000710443
0.000906957
0.000451687
0.00116263
0.00230412
0.00115091
0.000422591
0.000603067
0.00167519
0.000740244
0.00215561
0.00192874
0.00205428
0.00222587
0.00146428
0.000711795
0.000745336
0.00268473
0.000713366
0.00184887
0.00133967
0.000905222
0.00587741
0.00288048
0.00303451
0.00356371
0.00170816
0.0086647
0.00171706
0.00149422
0.00105276
0.000798954
0.00234904
0.000449136
0.0101588
0.00148731
0.00672292
0.00297564
0.00162077
0.00095052
0.001554
0.00156426
0.00404565
0.00257531
0.000750659
0.00319658
0.00390229
0.00134637
0.00658844
0.00559845
0.00276074
0.00149348
0.00077245
0.00185661
0.000581913
0.0020796
0.000932308
0.000898187
0.000574161
0.000996373
0.000947666
0.0021524
0.00128556
0.00273298
0.0116914
0.00073561
0.000709822
0.00264485
0.000731218
0.00121984
0.000738978
0.00402284
0.00342982
0.00230559
0.00435545
0.00116637
0.001685
0.00135404
0.00110532
0.00537502
0.00192565
0.00343947
0.00204613
0.0029488
0.00542659
0.00218969
0.00136312
0.00125578
0.000629026
0.00164715
0.00050598
0.00114969
0.0029588
0.000784953
0.00672403
0.00217136
0.00110354
0.000759104
0.0010966
0.00141429
0.00211575
0.00280866
0.000954264
0.000805855
0.00127317
0.000894074
0.00228518
0.00442009
0.00260639
0.000509261
0.00101393
0.00282845
0.000838396
0.000571898
0.00216459
0.000920963
0.00496903
0.000467683
0.00448511
0.00783322
0.00375274
0.00696457
0.000975323
0.000656607
0.000704345
0.00220117
0.00155655
0.00390701
0.00877298
0.0148071
0.00525304
0.000664366
0.000149725
0.01306
0.0044096
0.00748091
0.00257121
0.00308216
0.0145192
0.00865813
0.00130892
0.000660207
0.000743843
0.00094292
0.00208301
0.0061026
0.00549049
0.00343762
0.000861038
0.00200126
0.00294333
0.000932306
0.000814621
0.00512879
0.00469796
0.0140323
0.000750284
0.00202383
0.00055129
0.00185684
0.000425973
0.00242108
0.0180306
0.0154423
0.000728667
0.00250695
0.00782894
0.000607387
0.00119763
0.00116278
0.00480347
0.00111623
0.00795399
0.00263316
0.00435694
0.000479713
0.0009296
0.00243389
0.0036743
0.00041363
0.000806317
0.0120556
0.00161539
0.000715736
0.0156681
0.00780422
0.00441465
0.000951634
0.00160283
0.0020818
0.000628474
0.000713451
0.000960855
0.000405729
0.00819241
0.00195436
0.00911521
0.0019636
0.000786018
0.00307951
0.00386072
0.00220568
0.000947005
0.00248669
0.000451464
0.00467324
0.00130814
0.000672451
0.000756365
0.00855986
0.00132299
0.000853163
0.00940111
0.00160315
0.000385987
0.000626329
0.000896081
0.0017018
0.000930811
0.00065739
0.000652705
0.00892801
0.017857
0.000433154
0.0033481
0.00276582
0.00489534
0.00190912
0.000806136
0.00307803
0.000337951
0.000908023
0.00167967
0.00276778
0.00142786
0.00131438
0.00150544
0.000857681
0.0164104
0.00305051
0.00277707
0.00476929
0.00482402
0.00296635
0.00784235
0.00651421
0.00320081
0.00143528
0.00165094
0.00454605
0.00284405
0.00482443
0.00110954
0.000887664
0.000656923
0.00521442
0.00299426
0.00308705
0.00139263
0.000831296
0.00061969
0.00220508
0.00124116
0.00182159
0.00306013
0.00536197
0.000583299
0.00272584
0.00321301
0.000866883
0.000168994
0.00249344
0.0143812
0.0183268
0.00817909
0.000751509
0.00072369
0.0011399
0.00223261
0.00103432
0.00086768
0.00225575
0.000296518
0.00329932
0.0040909
0.00568085
0.00043715
0.000937601
0.00178457
0.0117725
0.00613296
0.0013775
0.00173746
0.000895605
0.000261925
0.00149463
0.000726146
0.00295526
0.00345957
0.000810145
0.00545287
0.00779795
0.000809601
0.000859883
0.00402571
0.00298513
0.00290959
0.005128
0.00282312
0.00101358
0.00218392
0.000821254
0.000368201
0.00131503
0.00229167
0.000710525
0.00061504
0.00304747
0.0136133
0.00347872
0.00201817
0.00205517
0.00254836
0.00133797
0.000896671
0.000848817
0.000667917
0.00330907
0.00542426
0.00537933
0.00286024
0.00273983
0.00209663
0.000937855
0.0110591
0.00135433
0.00154595
0.00321095
0.0056171
0.00229001
0.00827264
0.00157068
0.000789775
0.00511701
0.00207782
0.000627876
0.00834204
0.00286404
0.00386313
0.00161598
0.00253444
0.000651811
0.00463058
0.0078085
0.00333725
0.00355965
0.00163446
0.00188306
0.00645508
0.000390011
0.000474314
0.000769938
0.00077771
0.000832222
0.000391986
0.000984036
0.00916699
0.00323026
0.00235671
0.00455486
0.00232275
0.00692557
0.00115813
0.00750315
0.00389531
0.0030113
0.00436504
0.00077568
0.000733791
0.0157795
0.00310763
0.00685806
0.00775658
0.00373337
0.00318204
0.00200839
0.0186906
0.000850883
0.000826859
0.000819709
0.0081246
0.000959828
0.00304029
0.00275752
0.00611241
0.00223969
0.0019545
0.00337897
0.00553765
0.00439692
0.00232379
0.0034053
0.00453494
0.000292051
0.000297476
0.000596102
0.000369299
0.0048072
0.00302902
0.00457294
0.000798776
0.000803273
0.0006027
0.000941133
0.00113369
0.000494578
0.00292474
0.00498703
0.000757199
0.00565373
0.00290355
0.000712614
0.00186664
0.0171439
0.0049281
0.00337394
0.00564626
0.00582928
0.00317276
0.00339603
0.000777918
0.00416664
0.00270306
0.00454839
0.0100724
0.00248795
0.00941755
0.000951567
0.000960411
0.00172914
0.010828
0.00105805
0.00664692
0.0146476
0.00074014
0.000976752
0.00067873
0.00508323
0.0031182
0.00684762
0.00517388
0.00304222
0.000999794
0.00572596
0.00684512
0.00187764
0.000964994
0.00324804
0.000614141
0.00303523
0.000985171
0.00333034
0.000862127
0.00573011
0.00292621
0.00103978
0.000679803
0.00261068
0.00660891
0.0056439
0.00311161
0.00840889
0.0037453
0.00155792
0.00117579
0.00110823
0.00960742
0.00211425
0.00270576
0.00300206
0.00817445
0.000719983
0.000901904
0.000825451
0.00143441
0.0115408
0.00137034
0.000769546
0.00281655
0.00692096
0.00210068
0.00294789
0.00485218
0.00474003
0.000771721
0.00158471
0.00961326
0.00629316
0.00213154
0.0167415
0.000441586
0.000269264
0.000496967
0.000685004
0.00449757
0.00133037
0.000874959
0.00107777
0.00163073
0.000709559
0.000839639
0.0179787
0.00312054
0.00554838
0.00156486
0.00249056
0.00355891
0.00296274
0.0115572
0.00397663
0.000838342
0.000853384
0.000755188
0.00867693
0.000754821
0.00822875
0.00741275
0.00410687
0.00381017
0.00385107
0.00102243
0.00906074
0.00115098
0.000773424
0.00310511
0.00119199
0.00370037
0.00285521
0.00231401
0.00293421
0.000832444
0.000753869
0.000525371
0.00470142
0.00383955
0.000903545
0.000887015
0.00205828
0.00116609
0.00390316
0.000551774
0.0007996
0.00270426
0.00583174
0.00336685
0.00571708
0.00402346
0.00586867
0.0141262
0.00103169
0.000909983
0.00863749
0.00110425
0.00280884
0.000729888
0.00144453
0.0020899
0.000462492
0.000790722
0.0013143
0.00550749
0.00283875
0.00351921
0.000844246
0.00293386
0.00554497
0.0131801
0.0022308
0.00321247
0.000785474
0.00120388
0.0124466
0.00105622
0.00319631
0.00084097
0.00130278
0.00111953
0.00155075
0.000270054
0.00186833
0.00123553
0.000522378
0.00052353
0.000622992
0.000317924
0.000254008
0.000664002
0.00889842
0.012104
0.00317957
0.00204613
0.00282401
0.00639447
0.000768384
0.000742592
0.00117288
0.0123882
0.000901687
0.0180737
0.00639916
0.00235301
0.000786263
0.00947164
0.00184697
0.000640593
0.000953016
0.0188651
0.00504387
0.000834397
0.00078591
0.000878868
0.00342028
0.0016698
0.0138969
0.00075246
0.000620628
0.000526477
0.000693008
0.000588504
0.00177179
0.000804255
0.00103653
0.000700461
0.000937498
0.000789869
0.00863395
0.000783361
0.00288928
0.00125343
0.00171498
0.000831715
0.00107589
0.00240407
0.00136196
0.000949282
0.000929645
0.000757864
0.00501966
0.000805474
0.001453
0.00468701
0.00088381
0.000833797
0.00190491
0.000812324
0.000830412
0.00225001
0.000777664
0.0182545
0.00210106
0.000689441
0.000825493
0.000874324
0.00686221
0.0010142
0.00258558
0.00273432
0.00509637
0.000919726
0.000844577
0.00129031
0.000608979
0.000840617
0.00122488
0.00176062
0.00163251
0.00147253
0.000193665
0.00176986
0.00138351
0.00116585
0.00107036
0.00169662
0.000525199
0.000925626
0.000614541
0.00101842
0.000747324
0.00793029
0.000797421
0.000636593
0.00079083
0.000784022
0.000736902
0.000777354
0.000923149
0.00178054
0.0131339
0.00541829
0.00418257
0.000679895
0.000827085
0.00320968
0.000677
0.00556002
0.00108939
0.00278673
0.0052033
0.000703404
0.00704172
0.000539648
0.000842813
0.00632287
0.000844807
0.0143346
0.000733334
0.000821012
0.00216404
0.00550724
0.000788014
0.00332957
0.00086108
0.0016469
0.000664205
0.000873243
0.0019427
0.00106677
0.000830273
0.000856984
0.00201676
0.00103586
0.00204272
0.00171298
0.00411157
0.00100159
0.000725529
0.00529239
0.00297371
0.00222058
0.00065233
0.005294
0.00235295
0.00764288
0.010982
0.00244018
0.00109942
0.000424674
0.0171702
0.00252181
0.00427242
0.00286978
0.0126855
0.00247392
0.000317308
0.0010933
0.00050942
0.000222837
0.00308846
0.000758239
0.00112754
0.00110201
0.000375789
0.00108187
0.000243811
0.000339347
0.00083684
0.000645674
0.00125942
0.00450033
0.00319937
0.00607531
0.000393398
0.00132977
0.00287087
0.00164874
0.000685564
0.000790476
0.00741461
0.000817719
0.00319978
0.00102734
0.00074491
0.000945546
0.017111
0.00845218
0.000697409
0.00226697
0.00528739
0.00545137
0.0134139
0.000743725
0.0055493
0.00489937
0.00315251
0.000980689
0.00849336
0.000727289
0.000726789
0.00269625
0.000972262
0.00183306
0.000767868
0.0119685
0.00107158
0.000664705
0.00311031
0.00467053
0.00476471
0.000764376
0.000715621
0.00160183
0.00143424
0.00286726
0.000868115
0.0130569
0.00245752
0.00618942
0.00288373
0.00456502
0.00166932
0.000807527
0.00280274
0.00135825
0.00146757
0.00102468
0.000588695
0.00125169
0.000922992
0.0159232
0.000826126
0.000877729
0.000754401
0.000927299
0.000832934
0.000776733
0.000868596
0.000745842
0.00281907
0.00410625
0.00467797
0.000737242
0.000745707
0.000921722
0.00118704
0.00172848
0.00735668
0.00176032
0.000688753
0.00117481
0.00076249
0.00277757
0.000799981
0.000704764
0.00084169
0.000548452
0.000844663
0.00106235
0.000850602
0.00771131
0.00070675
0.014897
0.000613567
0.00206033
0.000869401
0.00114831
0.000714026
0.00322675
0.00241365
0.000749911
0.000486265
0.000606348
0.00101844
0.00154983
0.00128938
0.00287935
0.000770934
0.00108824
0.00218626
0.00440808
0.0062406
0.00223152
0.000828758
0.000286733
0.00747228
0.00133825
0.00247262
0.00665643
0.000508848
0.00087606
0.00110028
0.0087015
0.000358592
0.00542373
0.00762021
0.00110985
0.00245319
0.00546939
0.00197685
0.000633276
0.00910401
0.017658
0.00695076
0.00134315
0.00157429
0.00094049
0.00280922
0.000836477
0.000707189
0.000879152
0.00078377
0.00274702
0.00119461
0.000472231
0.00202375
0.000807134
0.000487611
0.000912346
0.00196929
0.00547228
0.00071962
0.00287164
0.00546861
0.0089587
0.00938262
0.00262911
0.00225073
0.000795824
0.00674339
0.00146351
0.00665288
0.00550878
0.00296441
0.0040887
0.00328182
0.0133153
0.00450536
0.0125464
0.00204435
0.00230739
0.00304935
0.0114285
0.000977279
0.00262769
0.00370701
0.00275568
0.00230785
0.00598836
0.00350301
0.00357469
0.00647825
0.00099105
0.000379225
0.000807026
0.00375598
0.000718718
0.00258061
0.00185108
0.000831125
0.00423716
0.00349899
0.00485493
0.00065468
0.00935708
0.00145661
0.00277381
0.00234093
0.00182807
0.000925428
0.000883413
0.00529702
0.000907962
0.000795819
0.000887024
0.0120749
0.00235122
0.00114378
0.00671477
0.00516625
0.00305606
0.00182271
0.0102626
0.00558102
0.000786458
0.000196054
0.00759303
0.00220421
0.00575222
0.00857478
0.0012009
0.000668404
0.00253823
0.0058095
0.000945685
0.00146388
0.00132371
0.00146679
0.00121478
0.0120699
0.000850773
0.00212951
0.0059295
0.0010215
0.00755059
0.00276823
0.000730248
0.0014367
0.00152809
0.000855107
0.00118439
0.00125658
0.00104555
0.00191983
0.000556474
0.00197538
0.000819162
0.000822785
0.00367906
0.00275361
0.00550053
0.000740006
0.00316212
0.00537383
0.00621483
0.000934462
0.0012906
0.0017044
0.00292004
0.000271054
0.000263332
0.000561348
0.0172213
0.000826104
0.00275549
0.0023459
0.00379832
0.00339343
0.00161712
0.00058214
0.000194558
0.000281321
0.000445708
0.000247165
0.000717449
0.000479353
0.000320594
0.000632865
0.00019991
0.000336025
0.000591092
0.00034169
0.000300382
0.000281347
0.000228116
0.000697717
0.000553789
0.000344
0.00044289
0.000590721
0.000268055
0.000270498
0.000165905
0.000308099
0.000451079
0.000479095
0.000280103
0.0002915
0.00040858
0.000538772
0.000575716
0.000362435
0.000209513
0.000223088
0.000346371
0.000255469
0.000565582
0.000356
0.000182964
0.00039642
0.00029769
0.000534087
0.000571528
0.00156442
0.00243333
0.0107676
0.000695858
0.00198328
0.0028831
0.0053142
0.0105292
0.00312527
0.000844819
0.000841687
0.00312531
0.00201504
0.00720237
0.0185713
0.0132202
0.00543921
0.00255386
0.00216397
0.00222255
0.000745964
0.00147388
0.000354283
0.00761512
0.00118057
0.00214026
0.00311902
0.00196469
0.00471947
0.00476501
0.00320667
0.00265444
0.00343857
0.0186683
0.00149112
0.00434968
0.00194255
0.000773226
0.00952248
0.00371673
0.00154471
0.00627131
0.00237446
0.00446001
0.00258601
0.00187884
0.00128431
0.000842221
0.000848853
0.0158044
0.00130672
0.000649792
0.000355316
0.00704885
0.00972844
0.000356507
0.00356753
0.00629142
0.00038153
0.000254563
0.000479126
0.000587854
0.000469823
0.000598722
0.000205195
0.000375162
0.000485638
0.000232527
0.000630641
0.00055624
0.000274611
0.00062797
0.000392478
0.000315659
0.000597517
0.000270733
0.000257006
0.000276851
0.000194964
0.000607117
0.000252551
0.00331936
0.00275453
0.000460127
0.000918064
0.00362653
0.000848693
0.00691709
0.000619627
0.00300065
0.0102052
0.0101853
0.00282834
0.0095553
0.00354654
0.000313749
0.00940983
0.00216581
0.00470627
0.0170241
0.00484674
0.00655507
0.000700846
0.0100199
0.00168139
0.000861001
0.0101889
0.000903131
0.00321114
0.00183964
0.000835173
0.000688599
0.00605561
0.000991103
0.00786017
0.011493
0.00125116
0.00728928
0.000778576
0.0102168
0.00193171
0.000873193
0.00182868
0.00745833
0.00099245
0.00146934
0.00269593
0.00127316
0.00715298
0.000834654
0.00327322
0.000627426
0.00316528
0.00672279
0.0175077
0.000215543
0.000772238
0.0010322
0.0096603
0.002832
0.000529827
0.000802428
0.0025334
0.002263
0.0096149
0.000832718
0.00129816
0.000596435
0.00131372
0.00187426
0.000779443
0.00647859
0.000767943
0.000156988
0.000300328
0.00940083
0.00640267
0.000780427
0.0113675
0.00489387
0.000576784
0.00962976
0.0127168
0.00817818
0.00965047
0.00573409
0.00150031
0.00928792
0.000929944
0.00261399
0.00237328
0.00624713
0.00073214
0.000870562
0.00153063
0.010594
0.000798162
0.00135167
0.00111243
0.00209418
0.00267423
0.00776271
0.00967089
0.00915877
0.00391404
0.000831604
0.0073538
0.00054516
0.00212488
0.00204633
0.00115105
0.00713021
0.0112298
0.00317225
0.00970245
0.00279436
0.00779527
0.00141665
0.0022297
0.00212465
0.00271114
0.00106094
0.00224944
0.00177297
0.0135419
0.00102042
0.00133866
0.00374276
0.0014816
0.00141342
0.00185473
0.00389042
0.0134039
0.00243385
0.00488434
0.00705009
0.00126462
0.00100731
0.00164589
0.00349933
0.00181673
0.000885956
0.00245876
0.0104494
0.0117465
0.0125279
0.0104918
0.0120855
0.0127685
0.0128007
0.00144483
0.012117
0.0112378
0.0128607
0.0108076
0.0107655
0.0107341
0.0111616
0.0103491
0.0109824
0.00198033
0.002104
0.00136819
0.0110906
0.00212654
0.00105488
0.000914248
0.00196802
0.000322484
0.00034107
0.00278396
0.00706037
0.00248233
0.00205613
0.00230531
0.0108813
0.00759965
0.0100243
0.00572599
0.000913774
0.00169523
0.000938191
0.00464902
0.00717182
0.00299833
0.00145232
0.00294309
0.00254956
0.00258522
0.00310191
0.00132803
0.00887292
0.0017077
0.00107901
0.00251232
0.000348971
0.005578
0.00171922
0.000982378
0.00172259
0.000951029
0.00162548
0.00271933
0.00151763
0.00324279
0.00252008
0.00192465
0.00280132
0.0111362
0.00180576
0.00268022
0.00301594
0.0023191
0.0091786
0.00193123
0.00107454
0.00950673
0.00482258
0.00300261
0.00187951
0.00208636
0.00311553
0.0105579
0.0032654
0.000935444
0.00130601
0.00123714
0.00256675
0.0019918
0.0156356
0.00151457
0.00212442
0.00341477
0.00142929
0.00268122
0.00168547
0.00189506
0.00300426
0.00569548
0.00563904
0.0147829
0.00963683
0.0012794
0.0103072
0.00130077
0.00388173
0.00590549
0.00172594
0.00288341
0.00201116
0.0140916
0.00663564
0.00398049
0.0018307
0.00785415
0.0133438
0.00129191
0.00145267
0.00606217
0.00280206
0.00564828
0.00398783
0.00147097
0.00143003
0.00668926
0.00255337
0.00540434
0.0115848
0.0111725
0.00227436
0.00726484
0.000425867
0.00160539
0.00630241
0.00185109
0.0020883
0.00169385
0.00167752
0.00292025
0.000810299
0.00491485
0.000872283
0.00266871
0.00584553
0.00155214
0.00591743
0.00225362
0.00324001
0.00102091
0.00340852
0.00107858
0.00350281
0.00217266
0.00197946
0.00403499
0.00363618
0.00152599
0.00116697
0.00615444
0.005915
0.00115406
0.00136712
0.000582818
0.000965534
0.000389377
0.00675255
0.0010216
0.0012424
0.00247447
0.0069812
0.0022778
0.00172568
0.00104857
0.00650021
0.00115461
0.00124542
0.00216461
0.00210468
0.00178421
0.00190852
0.000725235
0.00596283
0.00323946
0.011445
0.00213499
0.00371476
0.00241023
0.000902701
0.00631214
0.00637676
0.000524048
0.0026722
0.00175012
0.000946955
0.00206626
0.00241747
0.00646058
0.00688923
0.000274048
0.00472625
0.00172441
0.00164604
0.0023746
0.00253733
0.00608648
0.00550596
0.00572814
0.00263333
0.00215437
0.0021305
0.000274439
0.00591515
0.00106607
0.00328166
0.000854815
0.00298169
0.00152218
0.000350617
0.00232202
0.00117129
0.00656087
0.00130679
0.00104905
0.00300458
0.00114633
0.00178434
0.00569211
0.0029679
0.00610743
0.00261091
0.000986058
0.000555658
0.00389403
0.00188613
0.00380024
0.000266811
0.00253966
0.000321739
0.0110597
0.00135644
0.00155667
0.00593727
0.00228817
0.00211271
0.00282152
0.00131824
0.000986011
0.00533403
0.00511746
0.00220543
0.00448157
0.00232822
0.00239878
0.00116697
0.00128576
0.0052984
0.00178127
0.00123767
0.00561575
0.00292073
0.00381235
0.00179853
0.000536867
0.010256
0.000895656
0.0018904
0.00262971
0.00537839
0.000596364
0.00232959
0.00245348
0.00177202
0.0022572
0.00182734
0.00165652
0.00227547
0.00111987
0.00129978
0.00216482
0.000566968
0.000451214
0.00600922
0.00259456
0.000587781
0.00963127
0.0110523
0.00244278
0.000750214
0.00238427
0.00115825
0.00312704
0.00333485
0.0030064
0.00229129
0.00188318
0.00201828
0.00202782
0.00263713
0.00178132
0.00517975
0.00126392
0.00106771
0.00472139
0.00207393
0.00040923
0.00260689
0.00220047
0.00792761
0.00281993
0.00180619
0.00727602
0.00212644
0.0020929
0.00233881
0.00149475
0.00213768
0.00216078
0.0019174
0.00089937
0.00142954
0.00192956
0.00635683
0.00119155
0.00646827
0.00258637
0.00249109
0.00373667
0.00501909
0.00216962
0.000516433
0.00305987
0.000540889
0.0105725
0.00282007
0.00107867
0.00862725
0.000801002
0.000850445
0.0111659
0.000496329
0.00194418
0.00235266
0.00547342
0.00197623
0.00717178
0.00311042
0.00655318
0.00281793
0.00330596
0.00307709
0.00379211
0.0013466
0.005273
0.000657742
0.000614731
0.000548782
0.000329413
0.000368689
0.00195368
0.00143349
0.000841593
0.0012402
0.00404799
0.00562242
0.00564901
0.00039859
0.0108656
0.00949656
0.00197752
0.00120565
0.00298565
0.00478273
0.00213712
0.00053329
0.000537908
0.00840218
0.00289069
0.00165262
0.00219358
0.00868085
0.00523479
0.00125977
0.00530436
0.0101682
0.00375981
0.00241475
0.00149197
0.00204005
0.00073844
0.000837181
0.00136682
0.002329
0.0012869
0.00178152
0.00868186
0.0060037
0.00478961
0.00223623
0.0018475
0.0101079
0.0127663
0.0133181
0.0109478
0.00511374
0.00163459
0.00368584
0.001475
0.000887759
0.0014987
0.01157
0.0128802
0.0133232
0.00235204
0.00369505
0.00512669
0.00290929
0.00295471
0.00233778
0.00152034
0.00154157
0.000748582
0.00131693
0.00242093
0.00207939
0.0023098
0.0033677
0.00748472
0.00115861
0.0109599
0.00279613
0.00727368
0.00131594
0.00311717
0.00115698
0.000714845
0.001086
0.000414133
0.00218759
0.000743556
0.0099965
0.00176099
0.000792581
0.00103248
0.00331294
0.00183141
0.000737852
0.00321083
0.00639887
0.00325116
0.00409556
0.00199611
0.00451717
0.0013821
0.00309842
0.00234523
0.000363402
0.000562166
0.00271952
0.00333688
0.012214
0.00440326
0.00122875
0.00111685
0.00574239
0.00282441
0.00572031
0.0089046
0.00142814
0.00170973
0.00163332
0.00203408
0.00152457
0.00800053
0.00162627
0.00222454
0.00122862
0.00101655
0.0133066
0.0104741
0.00303463
0.00445154
0.00356745
0.0025537
0.00434191
0.00555224
0.00110376
0.00083242
0.000750736
0.000752151
0.00385531
0.00177334
0.00392908
0.000881518
0.00222846
0.00603532
0.00191843
0.00460968
0.00136342
0.00414723
0.00198866
0.00202967
0.00189253
0.00503311
0.00671317
0.00946673
0.00153969
0.0128596
0.000754665
0.00158462
0.00215041
0.0031003
0.0106546
0.00226785
0.00349723
0.000991769
0.0060935
0.0023989
0.00469029
0.000505576
0.000253307
0.00858011
0.00314685
0.00719437
0.00548407
0.00449991
0.00231585
0.000796564
0.00445973
0.0041746
0.00372963
0.00453894
0.00252439
0.00672639
0.00126344
0.000805018
0.00116183
0.00992991
0.00153705
0.00567467
0.00426689
0.000790612
0.0106371
0.00157216
0.00169025
0.00893741
0.00975306
0.0116005
0.00992661
0.000423807
0.00107632
0.00551504
0.00268734
0.00999594
0.0117128
0.00211774
0.00328937
0.00241742
0.000513313
0.00348529
0.00303726
0.00515817
0.00759333
0.00964372
0.00176077
0.00174428
0.00383994
0.00445207
0.00268602
0.00186371
0.00286277
0.00797307
0.00123023
0.00165106
0.00222399
0.0093791
0.00679241
0.00615225
0.00246765
0.0075955
0.00103725
0.000758461
0.00179052
0.00242015
0.00869834
0.0065576
0.00340454
0.00148082
0.000726796
0.00681266
0.00161034
0.00471407
0.0074335
0.00379934
0.00503942
0.00251067
0.00447272
0.00216873
0.0112847
0.00153327
0.0016709
0.00247553
0.0016157
0.000916753
0.00666409
0.00148968
0.0019279
0.012589
0.0116854
0.0122663
0.0119242
0.0082574
0.00190167
0.00310105
0.00150012
0.0105545
0.0141064
0.00435176
0.00714915
0.000737902
0.00220714
0.00234585
0.0105731
0.00692325
0.00608139
0.00273808
0.0031814
0.00283629
0.00278151
0.0053399
0.000609342
0.00405317
0.00079949
0.00650933
0.000909125
0.00977414
0.00189568
0.00254474
0.00305809
0.00682842
0.00120453
0.0100038
0.00946643
0.00279493
0.000573529
0.0107069
0.00180282
0.00215191
0.00265102
0.00055616
0.00119094
0.00359304
0.00928667
0.0131882
0.0059831
0.00762358
0.0107423
0.00290745
0.00448956
0.00245634
0.00316102
0.000568751
0.000536808
0.00684416
0.00411624
0.00184796
0.0023025
0.00993475
0.00398653
0.000956852
0.000690231
0.00265706
0.00325944
0.000798552
0.00616466
0.00162347
0.00689522
0.00258495
0.00419352
0.000926397
0.0134659
0.00275945
0.0120443
0.00371932
0.00112856
0.00442994
0.00583444
0.00178954
0.000807266
0.0131173
0.0024996
0.00152815
0.00175688
0.000778947
0.0131597
0.00194427
0.00848019
0.00945372
0.000666708
0.00550308
0.000801831
0.011294
0.0127826
0.00250443
0.00400086
0.00238767
0.00928383
0.000848204
0.000769369
0.000760556
0.00383309
0.000769434
0.00102414
0.005687
0.00562685
0.00307528
0.00240615
0.00643078
0.00104187
0.0101086
0.0112012
0.00577343
0.000736498
0.00336905
0.00998815
0.000640204
0.000267114
0.000291392
0.0098542
0.00210125
0.0105538
0.00209089
0.00139394
0.00896302
0.0129505
0.00195736
0.00359005
0.00639494
0.00497563
0.00297099
0.00453803
0.000861146
0.00547822
0.00077084
0.00130211
0.000759104
0.00114311
0.00299467
0.00126592
0.00493373
0.00281538
0.00272528
0.00603287
0.00460252
0.00308673
0.00695477
0.00180255
0.00081403
0.00326276
0.00162648
0.00745909
0.00522013
0.0092894
0.00312262
0.00106933
0.000835585
0.00106451
0.00346341
0.00129238
0.00652835
0.00197394
0.00115218
0.00254643
0.00918707
0.00396236
0.0102587
0.00067324
0.00949512
0.000768924
0.00276727
0.00160615
0.00591008
0.00674348
0.00272424
0.0012705
0.00176399
0.00606924
0.000931306
0.00205017
0.00985396
0.0132928
0.00253957
0.00548881
0.00280426
0.0174659
0.0127538
0.0015631
0.00247175
0.00406754
0.00182385
0.00367079
0.00359157
0.00963356
0.000742229
0.0039206
0.00187278
0.00251199
0.00146352
0.00335373
0.00219359
0.00542244
0.000605808
0.00459253
0.00684336
0.00117534
0.0022562
0.000571146
0.00299174
0.00377767
0.00264743
0.000635832
0.00168981
0.00761545
0.00546163
0.00393161
0.00220593
0.00151968
0.00151922
0.000949535
0.000894012
0.000874994
0.00500198
0.00156559
0.00101864
0.00187513
0.0103015
0.000389387
0.00320554
0.00273934
0.000935943
0.00626466
0.00100873
0.00089858
0.000837413
0.00264973
0.0023877
0.000944631
0.00208172
0.00189103
0.00498283
0.000917584
0.00128683
0.00330468
0.0065769
0.000805112
0.0059038
0.00141874
0.00309914
0.003057
0.00284031
0.00618804
0.00135665
0.000841475
0.000272718
0.000574326
0.00111911
0.00918127
0.0027149
0.00835426
0.00444081
0.00192666
0.00846125
0.00115895
0.000805883
0.00219838
0.00437901
0.00626301
0.00269778
0.00111468
0.000850383
0.000972848
0.000729282
0.00146143
0.0128055
0.00177904
0.00805433
0.00082315
0.00048906
0.00132168
0.00061047
0.00104046
0.00308977
0.00974637
0.00297685
0.0095207
0.0104411
0.000742825
0.00121727
0.00429776
0.0135231
0.00217644
0.00772308
0.00275833
0.00598135
0.00151902
0.00080695
0.000868072
0.00320629
0.00672421
0.00189025
0.0019534
0.00407182
0.00304138
0.00221256
0.00115252
0.00254584
0.00371349
0.0162859
0.0124249
0.000642364
0.00950694
0.00121875
0.00446878
0.00365773
0.00416891
0.00234602
0.00729185
0.00171474
0.0047842
0.0106703
0.0133671
0.00125798
0.00144669
0.00123161
0.000751938
0.000728892
0.00232337
0.00209131
0.00145026
0.00290174
0.00591476
0.00289514
0.000556787
0.00848277
0.000758441
0.00109485
0.00741001
0.00589127
0.00456882
0.00215129
0.00309697
0.00642766
0.000820722
0.000841134
0.00292476
0.00610791
0.00626579
0.00173268
0.00322461
0.00682102
0.00313792
0.00277697
0.00129551
0.00120505
0.000744257
0.00109917
0.000431975
0.00062136
0.00114864
0.00122004
0.000827768
0.000620073
0.000262213
0.000276753
0.00959626
0.00928905
0.000848145
0.0074958
0.00192084
0.00684701
0.00304746
0.00570285
0.00475422
0.0086641
0.00917605
0.0110865
0.00414121
0.00430223
0.00902427
0.00282693
0.000990306