/*--------------------------------*- C++ -*----------------------------------*\
| =========                 |                                                 |
| \\      /  F ield         | OpenFOAM: The Open Source CFD Toolbox           |
|  \\    /   O peration     | Version:  v1912                                 |
|   \\  /    A nd           | Website:  www.openfoam.com                      |
|    \\/     M anipulation  |                                                 |
\*---------------------------------------------------------------------------*/
FoamFile
{
    version     2.0;
    format      ascii;
    class       volScalarField;
    location    "0.5";
    object      p;
}
// * * * * * * * * * * * * * * * * * * * * * * * * * * * * * * * * * * * * * //

dimensions      [0 2 -2 0 0 0 0];


internalField   nonuniform List<scalar> 
5794
(
98.1158
96.9422
96.1392
103.027
96.3725
97.4375
94.2633
97.8527
95.191
94.808
130.073
92.6238
92.3225
90.7969
94.0899
96.5977
37.7511
95.6745
94.0965
96.7568
95.9844
97.776
92.7288
96.8178
97.443
44.8578
42.4226
96.9309
99.9865
94.4978
97.9923
85.2609
111.676
96.8309
94.395
92.106
102.959
93.1807
93.7354
96.3863
98.7851
97.7883
121.833
98.1546
93.9104
112.827
87.2586
99.6552
95.8853
98.0779
97.6283
90.5013
92.2812
95.1414
96.9795
114.926
88.1683
98.3782
122.002
40.741
109.04
96.8372
98.0802
85.3154
111.231
96.4639
96.4123
96.1443
96.7913
96.9284
89.5567
96.6984
22.9035
97.767
95.6201
97.2705
98.5873
50.4474
98.189
96.4699
97.5173
96.8463
98.817
94.3346
94.6981
99.0583
83.8195
116.624
96.7983
95.1795
119.534
88.2302
98.9979
101.539
95.9002
89.3235
115.486
99.7048
88.66
109.978
84.7639
84.9651
121.986
92.5792
92.6842
98.7164
96.9072
131.139
88.8093
98.2225
96.2141
94.1228
77.4538
96.0823
94.9679
100.267
94.5162
98.6273
108.148
95.7954
98.7256
95.7337
96.4285
97.3199
93.8749
128.353
87.1236
97.0388
92.4676
129.889
95.3617
99.2948
85.0951
54.2695
99.4656
94.1203
121.804
96.8654
97.2407
96.2378
97.2292
92.8201
93.8025
93.1939
97.2168
51.2021
97.3337
119.616
96.948
94.306
126.501
95.3494
99.2661
92.2295
46.1879
85.1444
96.4138
96.2484
112.533
94.9523
94.0504
97.0723
96.8031
92.1168
88.7869
90.4997
93.4397
98.2029
96.3962
94.1588
94.4381
90.1306
93.4766
93.7946
96.9636
92.3537
94.3265
96.7535
96.7407
92.2227
95.0287
87.3651
99.1023
113.408
100.26
44.8371
84.9929
112.538
95.8765
84.9607
129.843
85.7282
111.667
99.3489
98.6902
95.5221
97.404
96.34
94.0392
120.324
92.6855
89.645
99.9306
99.2229
86.6289
112.477
95.4673
131.403
95.346
95.0052
98.2113
101.952
91.9631
97.2472
96.8496
95.9886
92.439
85.6356
130.426
103.896
102.081
92.8476
118.078
98.8049
116.552
43.1609
95.1914
93.5914
93.9335
94.3872
94.1093
92.7059
97.0815
89.4692
91.2061
52.4906
76.4203
124.577
96.2636
97.9796
96.9381
131.592
97.7329
93.0627
91.7419
96.0992
93.7142
97.7536
116.471
100.039
88.5406
96.3928
42.7207
96.5706
124.987
94.0734
121.027
120.619
131.472
93.8886
122.24
92.324
97.6759
96.6972
99.0251
94.2391
94.3617
127.903
93.9681
112.001
85.6068
98.8566
98.8169
88.9893
103.504
94.3888
95.2514
96.7209
95.6085
94.7326
95.7996
111.198
99.0535
97.6477
95.99
99.2296
87.3675
95.2336
98.0638
99.293
92.656
93.0484
96.9598
95.5496
117.918
54.9689
96.292
97.5426
95.3083
96.6001
96.751
84.5945
97.4947
96.291
98.0852
126.418
95.7828
93.7189
111.417
85.0492
98.32
112.015
97.6395
96.2891
102.914
105.103
131.105
96.584
88.6986
100.942
97.9161
96.4224
98.0834
97.3814
96.5788
90.5126
96.5598
94.0648
94.7232
130.304
90.4104
123.077
97.3373
112.092
85.0854
95.4562
93.9443
96.699
96.0578
112.787
96.8647
97.3539
94.0627
92.43
94.4577
98.8381
115.404
88.369
91.2743
92.1908
93.612
52.4399
112.099
86.4539
99.4643
42.1642
93.71
91.6683
93.363
97.6329
131.307
90.11
122.903
92.9202
97.805
95.4577
89.5987
113.591
87.5404
99.1788
95.3813
96.5105
94.9634
96.3491
131.062
88.7551
115.323
87.3241
98.8569
95.8178
98.1477
95.7665
103.339
92.0623
95.628
96.8411
99.9979
92.9434
98.1265
94.5258
98.5081
97.8869
96.947
94.9796
94.0782
93.3935
97.1559
99.2406
94.0442
92.9667
96.7826
96.6686
49.1203
96.8543
94.3102
125.867
95.5032
97.7669
96.952
116.053
98.6615
86.5702
129.388
90.3289
112.191
86.0723
99.6555
100.5
89.0313
115.679
88.4979
99.6721
130.742
95.0323
92.4104
95.2303
96.8891
95.9475
96.8724
97.7734
89.9667
103.314
93.9245
78.8648
93.8572
94.5496
95.6312
98.3854
92.126
96.2045
96.8118
102.94
100.73
95.6811
95.9349
100.065
95.1063
97.2392
97.1437
96.1286
93.4743
96.7283
85.497
97.7167
99.654
96.7625
114.066
92.7611
95.1545
101.885
97.8603
96.7209
93.5174
95.1458
110.935
129.765
50.5391
94.7589
129.616
98.2479
96.7108
87.3564
129.375
93.6019
95.7571
113.637
67.5006
97.0053
98.1039
96.6591
94.5288
97.7796
94.9043
93.7634
131.082
129.608
101.638
96.1126
53.9257
97.5726
96.739
99.129
97.094
98.3252
94.2012
96.2003
94.464
95.3066
97.1073
125.287
97.0258
66.566
105.257
89.7003
94.086
96.743
97.9531
119.574
129.387
96.163
88.5655
95.9524
98.1258
96.6957
96.6722
92.6208
99.6146
96.6109
101.793
51.3709
97.9487
96.9346
96.4026
99.1247
129.551
96.9511
98.1514
102.983
96.7674
97.8493
95.1718
96.7628
49.0906
94.9213
94.4888
94.97
103.036
119.809
129.606
121.655
97.731
79.9809
96.8125
89.0394
96.9402
96.6716
103.503
93.1416
96.481
96.9735
92.5265
95.5667
94.1744
98.2259
96.986
93.8743
94.6725
97.9096
96.7924
93.315
26.7717
94.6614
127.149
95.2723
90.2255
98.0856
96.6738
96.2641
96.9133
96.2132
111.843
90.5505
93.568
93.6317
50.0137
100.13
95.9587
95.2325
97.7767
98.1205
100.008
92.0438
129.214
50.7303
92.0089
114.742
95.9026
99.653
88.5369
115.081
96.1055
96.9871
96.838
99.3069
93.1155
107.527
96.0506
102.632
96.3767
94.5836
97.7775
112.675
94.9291
100.202
96.7226
129.334
57.9492
94.5365
96.9631
98.8698
92.2199
92.1574
91.6359
94.862
94.7715
99.9265
124.886
130.009
119.316
98.7977
96.7444
129.349
128.725
131.245
96.8425
96.9679
96.232
94.6942
132.371
96.0329
98.0032
96.925
96.5575
97.8096
96.9865
94.7022
64.6223
102.735
94.3706
95.9691
97.7632
122.444
130.616
88.5451
120.983
100.193
95.7873
110.337
95.9755
96.8822
96.9475
98.1875
95.464
99.8858
95.7041
125.606
52.9009
97.7549
37.7256
97.1274
96.3058
95.0457
97.6999
96.2263
96.6103
95.6998
99.8676
99.1651
87.5266
111.289
124.651
98.811
45.8018
99.469
94.6254
95.1746
99.8623
96.0569
91.0181
98.1225
96.9712
131.676
94.8146
97.0662
92.8301
120.502
102.996
94.5967
95.4525
96.4944
98.1654
107.78
68.4136
96.2973
95.7687
102.038
131.214
96.439
97.6893
102.052
95.9493
94.7197
96.4907
120.79
93.568
122.696
91.4487
94.0263
95.6679
130.946
122.089
102.679
95.2016
96.1529
129.337
100.911
104.646
49.8428
127.65
97.5228
131.376
65.7812
120.334
94.8211
95.9795
98.3928
119.217
103.611
130.848
106.233
95.889
66.5394
106.001
126.068
95.7164
96.2993
36.6461
129.416
88.4185
99.3205
116.958
97.2744
97.728
93.1164
97.3675
100.02
88.7168
113.3
93.4363
102.946
96.9932
98.2428
93.988
96.7513
94.6206
100.078
104.334
102.597
95.8954
114.045
97.2924
78.7255
99.9251
95.9968
100.482
99.6945
89.5128
117.824
98.2265
99.5808
88.7381
115.962
94.2042
95.8221
94.1538
96.9005
96.9471
98.1287
93.0349
97.0737
131.115
52.0579
93.8035
97.9601
96.7903
100.205
90.0207
131.26
99.5169
92.7033
97.405
125.641
114.787
88.317
98.6562
90.9296
96.7617
76.6957
97.66
59.7461
100.975
131.18
98.3479
96.3253
96.964
95.349
130.713
131.991
124.585
111.834
97.2876
97.074
98.1936
112.592
102.671
95.55
89.404
112.834
130.992
96.8799
97.917
94.5601
118.442
50.5033
96.2255
103.836
95.2262
93.5999
95.4847
88.602
99.7867
114.482
102.565
94.1972
98.4494
93.6896
97.0247
45.3654
98.1545
97.1657
94.1638
96.9671
129.381
97.1256
104.525
96.86
97.1828
110.55
102.87
86.4401
94.9029
99.7788
95.5074
99.665
127.607
127.916
51.4096
96.3876
96.6887
96.8855
110.905
93.0554
98.2172
94.1438
109.509
96.3219
72.6534
129.349
93.1122
95.2812
97.1922
102.328
126.971
97.4118
59.8262
95.2704
95.8325
58.7314
113.684
101.942
92.1077
95.2948
130.161
120.63
96.6385
95.303
91.2342
128.346
98.2371
102.916
127.854
96.375
95.8434
100.408
96.5055
104.106
96.1366
97.6803
96.8348
94.0004
96.1059
96.4663
96.9609
97.7089
125.471
96.7909
102.735
95.9939
96.1898
97.6636
98.998
99.6963
129.399
129.567
59.8027
92.1155
99.8637
103.044
96.1989
54.3629
110.942
82.3739
123.477
100.228
88.8026
96.1173
96.9122
100.084
112.14
98.3491
98.5433
100.093
96.1923
97.1086
122.614
94.0028
97.8859
116.289
88.2893
99.6662
92.7377
117.658
96.9412
97.8223
95.8732
96.2969
93.1174
130.786
115.275
102.963
98.6135
80.2181
96.7554
97.6626
90.8942
48.9017
103.334
97.9084
107.142
101.94
95.7585
95.4091
96.8448
99.98
95.1304
96.7655
96.7962
97.8798
96.3814
96.1228
96.9858
96.8943
102.731
95.7722
103.603
95.7635
96.009
115.43
103.253
93.7001
97.4225
95.1432
96.5744
130.179
105.369
96.4154
97.0298
94.9555
129.297
96.9562
102.952
98.0616
96.3541
102.969
74.4875
102.231
94.1978
107.201
96.5409
103.62
97.4868
94.4193
116.508
69.9028
96.3117
108.966
96.9857
98.2672
96.0574
96.8779
108.215
113.005
49.8748
91.2205
93.806
96.5682
94.4172
99.7499
87.622
110.776
119.949
96.88
97.7914
96.7628
95.4814
103.213
93.5274
101.215
97.8564
102.587
103.3
104.401
95.2713
96.9363
98.0907
95.6895
95.4145
129.399
96.9362
102.898
88.153
96.6333
93.8691
92.9312
95.4059
131.027
96.6376
131.339
96.7755
104.852
131.127
96.926
95.4214
115.94
96.168
97.4102
96.7498
96.4703
96.3069
92.8339
97.9903
96.8763
92.8308
96.1972
96.2903
102.217
96.9171
96.2751
96.8925
93.828
92.8135
103.988
111.462
109.24
99.711
94.116
96.3836
96.8881
96.6598
97.603
98.982
98.9616
96.5095
123.941
96.9842
97.5712
95.3541
129.198
95.3595
88.4964
97.406
96.2582
103.869
96.7954
97.2188
95.715
93.0829
102.61
103.19
96.2648
103.7
96.5395
96.1471
93.1835
96.7952
97.9841
97.7113
95.7923
130.261
94.2861
58.1856
95.9886
98.0112
96.9462
102.845
95.1573
107.273
95.6013
97.68
101.774
109.873
92.3845
92.0293
96.7322
96.8198
97.2122
99.0698
96.4145
103.008
101.321
101.786
126.179
119.568
100.077
108.154
107.103
95.8258
93.2947
99.1932
96.5082
34.8322
103.403
96.649
95.6287
129.357
129.587
99.7952
96.9445
98.1437
98.6595
97.4921
96.4985
94.2959
96.3344
98.3503
98.0092
96.0638
97.6791
96.3764
94.8178
95.2235
98.1528
99.7818
96.7235
93.1086
97.7536
93.1854
99.31
94.9982
109.179
110.255
104.153
100.8
102.851
109.019
95.0655
96.8596
94.4912
110.789
105.79
96.8839
97.8042
122.183
92.4334
124.206
97.868
95.5234
108.913
95.9336
122.519
112.218
94.4134
99.3058
103.029
118.165
96.4485
95.5663
96.7295
58.2031
96.6948
95.8034
93.5526
97.9447
97.0571
105.778
95.1948
122.703
96.9953
98.0908
108.096
99.0118
84.9839
95.5389
96.9032
94.4337
99.9131
129.17
130.444
96.0377
103.058
96.4131
95.6049
98.554
85.812
111.385
131.779
121.732
103.574
93.887
96.1448
95.9186
98.6283
102.867
99.1599
98.2591
98.826
96.8908
96.5402
84.3875
91.8377
55.6096
97.6025
96.0395
120.999
103.888
95.3467
96.4154
102.376
95.7728
96.3135
97.0845
97.6761
97.7756
96.5481
93.4633
96.0102
96.3761
96.5738
98.3425
98.4015
98.8324
81.9453
94.2896
125.206
102.149
98.5817
96.2098
94.5749
116.042
89.0137
99.3977
98.2255
95.5184
130.706
52.8896
95.8725
95.7749
96.3296
87.8435
96.3386
98.0427
98.356
99.0063
94.8493
96.9394
98.7972
98.2579
94.5625
96.3255
96.6862
102.832
98.2222
96.2837
98.1461
116.979
103.597
130.51
130.002
91.6315
96.9319
99.8852
96.1876
131.294
96.0497
99.145
94.2289
96.7634
94.4717
96.576
93.4823
97.9007
92.577
96.1913
94.9114
92.6455
40.6916
94.8655
37.9156
49.57
96.5787
102.667
96.9416
98.9988
97.5857
96.5996
98.81
97.2545
96.7882
85.016
111.177
110.246
99.0779
95.0016
98.0318
85.3954
95.2544
96.3872
97.8865
130.468
94.1564
99.599
96.1753
96.3765
97.7453
119.615
97.2252
96.9769
92.1622
94.0614
99.576
98.9149
95.6944
96.9198
102.938
98.2911
136.003
130.104
96.5557
43.3483
130.722
95.403
94.3944
93.8248
108.884
96.5692
96.5476
97.9888
95.4245
13.1917
103.555
98.5294
84.1374
116.93
56.1506
120.919
96.405
98.182
96.1064
98.1713
97.3131
95.1948
96.5389
96.1041
97.3094
97.4334
97.0579
96.8693
95.5351
98.3591
96.0363
97.3666
94.9177
96.6811
96.7994
95.582
97.9842
98.0955
96.3554
96.3441
97.2118
94.988
97.0177
97.9345
97.1142
98.3851
95.3773
96.5209
96.0172
98.0077
96.3612
98.2611
97.0352
96.0835
95.982
97.1915
98.1507
96.2472
96.5428
94.9331
92.4522
90.9677
57.9156
96.1386
97.8035
109.031
100.402
93.2152
96.0794
96.4879
102.151
95.8014
95.4777
99.1804
54.4666
93.4418
98.7034
96.1066
95.9958
96.0936
96.3822
97.9352
96.8186
99.2536
96.3232
96.1772
95.3174
97.5258
129.493
93.5317
98.1551
98.4797
99.0589
51.2695
94.7356
94.7996
98.6275
112.238
97.0263
96.8379
94.7547
90.9048
125.816
92.8112
96.0534
98.0394
95.6447
102.172
101.336
14.2078
93.4382
98.346
96.8301
94.5621
92.6976
93.5629
145.055
94.4397
95.9774
97.2044
96.8357
95.671
98.272
96.9563
97.3788
96.1138
98.3095
97.1599
95.1371
96.4161
96.3155
94.8597
97.9739
95.5549
97.4107
96.1595
96.8463
98.236
98.0894
96.391
96.2494
106.985
95.9526
131.611
115.184
98.3435
102.135
91.9428
96.5614
125.738
93.0114
94.4982
135.182
92.7811
98.1981
95.7793
92.9489
124.102
94.1282
81.0992
99.9303
94.5224
96.4557
95.8895
105.672
93.3607
96.3893
105.484
101.497
96.0003
96.8926
96.9608
95.1481
93.2306
92.4075
90.7552
96.2654
99.429
96.9373
99.5102
97.6856
96.3739
96.4409
98.8694
96.1848
96.1209
96.4534
93.0842
100.354
103.239
96.8228
94.9
98.389
97.358
88.4506
96.9714
103.008
113.815
97.9277
128.362
94.8638
96.6896
93.6483
95.9334
95.326
103.194
93.1345
97.2337
96.5981
95.7548
96.3508
91.6286
93.0674
96.3391
98.0205
98.9538
101.538
99.5327
95.3745
103.36
97.3482
94.9621
91.4142
92.507
94.6639
97.287
93.5139
98.0142
96.4856
94.3435
95.652
94.3814
122.475
94.4652
99.3031
92.03
92.7846
97.7482
95.8682
95.1626
96.0547
91.0197
94.4334
119.33
99.0284
100.173
97.2858
95.0977
125.075
124.498
99.243
92.7315
92.1212
106.678
94.2271
114.601
101.84
147.454
96.6237
94.1094
111.482
121.464
91.0953
92.575
99.6351
136.634
97.9493
115.262
88.9384
137.823
98.2105
95.2829
33.6518
96.0625
97.0174
99.1623
95.7444
98.1302
95.0821
103.058
97.5705
96.25
94.4742
98.2418
98.7445
99.3937
99.1527
98.4547
99.2696
98.995
93.7683
97.9879
97.7003
99.1772
98.9672
97.8517
98.989
97.6584
97.6557
97.4064
96.405
96.058
94.1848
46.4409
98.7812
94.4124
93.6524
99.1266
95.4218
93.6279
98.9073
100.011
98.1241
95.8329
95.3852
98.1842
99.7143
97.4755
96.9792
93.5273
98.9538
92.9868
97.2865
98.0986
96.3058
127.071
97.3613
96.172
96.1285
96.3423
96.208
97.0242
96.0201
97.6856
96.0299
96.2084
95.9819
98.9131
93.2523
99.1476
93.4801
94.5389
114.479
94.5115
85.3052
84.7197
92.1409
112
88.9241
94.5782
114.429
113.018
84.7138
89.9144
96.658
94.1101
88.5771
111.334
116.786
94.6459
91.9662
114.742
88.6045
113.701
94.2453
94.3786
93.9731
84.98
93.7979
54.2142
94.4704
91.6288
97.2449
94.5918
84.7126
96.5927
93.621
112.775
111.415
91.9936
53.2622
88.1871
93.8718
88.3592
94.6794
96.7113
91.6433
96.8274
114.47
95.0975
52.0766
91.7832
96.4399
96.7192
88.3406
48.2241
93.7674
151.643
89.0143
96.2869
91.8475
95.34
93.7583
97.974
111.29
85.5689
89.2688
47.7373
47.5623
96.1515
96.832
95.1843
98.7594
96.0954
96.8147
95.1045
91.7514
97.5462
94.4405
96.2735
130.007
97.3284
96.2716
97.2277
99.0185
96.0719
95.5782
98.2773
99.1094
96.2719
92.9966
98.2917
98.0749
96.8834
92.1456
94.088
93.6245
98.8655
96.1033
96.0578
96.8583
97.1349
95.7541
97.2354
97.9426
96.7465
96.3112
98.4497
86.0316
111.429
98.2356
98.9071
93.3652
96.6032
96.6059
96.876
96.128
97.9963
97.3876
97.4645
95.6692
96.1646
98.5293
46.7935
96.2756
98.5439
97.9846
96.6107
96.2026
98.0075
98.3629
95.8157
98.0297
96.8929
97.6475
97.8954
96.5227
98.2362
96.6198
97.4987
96.3849
97.9694
95.6615
95.7793
98.2974
98.0936
97.9422
92.7997
96.1732
98.0807
97.8935
98.1589
93.6579
98.1861
96.0801
94.23
97.5652
96.2356
86.2143
98.2931
111.498
99.1277
93.3301
98.1233
96.7262
96.28
130.239
91.7874
92.4552
97.8224
96.7353
98.5504
94.8633
96.8844
92.5309
96.6083
94.4664
96.5113
44.9341
122.489
96.8812
97.7735
94.0133
93.0844
94.2941
97.721
95.8758
130.455
93.115
97.9963
96.2063
94.8161
94.4556
97.9044
95.7427
112.39
87.2907
97.91
130.656
92.8684
94.2871
98.077
98.2211
42.8412
122.378
96.9357
93.3572
99.1445
98.4428
93.071
91.851
96.6087
90.9444
94.9396
96.5394
94.693
98.0068
95.7123
94.0882
98.3542
96.5119
130.503
93.5596
96.7712
43.3329
48.6406
95.9725
122.405
99.248
94.7245
98.5462
95.3473
92.7751
93.336
90.5099
92.1447
95.529
95.9235
88.7126
114.492
97.7052
120.593
94.2339
98.2438
96.1091
95.5272
95.6205
98.7079
98.3081
98.0557
98.6461
97.0427
93.9187
98.1449
96.841
92.8274
95.2815
94.9854
98.0685
95.6613
88.454
114.355
98.0404
130.672
95.9474
95.4676
96.4881
94.6611
98.4706
97.5932
97.5646
97.0089
46.208
95.7078
107.067
98.4201
101.018
122.337
101.665
94.0188
96.9873
94.6389
97.5609
94.1136
97.7137
85.479
100.964
93.0996
91.0976
107.033
94.4861
97.9882
97.8417
95.6136
95.7784
98.2273
97.9535
97.9652
96.057
95.4155
98.0935
95.7729
95.657
98.3427
93.7913
93.6829
100.881
101.329
125.341
93.335
100.051
95.5016
98.6093
97.8784
97.1732
41.9652
95.6422
93.9064
95.5963
102.401
103.72
94.9624
96.078
101.991
100.3
94.6041
94.3066
92.4818
93.2958
103.278
96.5781
96.3821
96.7184
97.2488
98.9078
97.7478
96.0293
97.1386
94.1693
99.8759
95.2487
99.8734
99.0291
93.3873
97.0833
131.514
96.4475
96.5107
90.6162
98.359
99.2235
99.1832
94.6443
96.5491
95.9994
96.2708
96.2718
96.0252
96.8764
95.2101
98.0634
95.7244
95.9728
96.1197
95.9496
89.3975
116.249
98.313
96.9343
98.2089
97.9072
97.9469
98.049
97.9873
98.9497
97.7997
98.74
96.0708
104.171
98.0399
95.163
102.987
96.1983
124.761
97.9853
97.9151
98.2414
130.791
97.5125
96.1444
98.4752
93.0589
91.1648
97.7961
94.5037
96.117
97.1781
96.1216
96.1433
99.8
96.1657
97.9303
95.8515
129.736
95.7094
97.4383
100.328
93.5847
93.2163
96.5313
96.4463
95.4215
97.5962
100.938
95.3504
96.4848
97.9494
99.5818
98.2832
95.1991
97.9302
96.0634
98.0251
98.333
96.0163
96.5268
122.316
123.188
96.16
96.1199
97.9741
96.0582
122.699
98.077
97.8053
97.5604
97.7195
123.714
96.0448
98.0218
91.4981
92.4599
96.0069
96.5969
95.2608
96.6973
99.1158
97.0463
98.1253
102.048
96.2187
100.655
130.624
96.0038
96.3855
98.6116
95.9741
97.3791
97.1586
96.8801
99.2458
98.3887
97.801
96.0006
98.3099
98.0887
102.802
98.54
93.1206
92.1543
93.2979
98.1374
97.8383
95.5192
98.0171
95.9214
93.2958
81.8836
98.4621
96.0553
96.2497
99.9174
97.2327
89.354
100.786
95.6035
96.9389
92.6109
97.8869
102.08
97.6533
98.0727
99.6097
99.5659
95.3404
98.1637
109.055
96.798
133.676
94.5105
98.6507
97.9847
93.546
95.5885
96.6734
96.1398
97.2535
96.0911
125.446
89.2421
115.66
99.0167
94.2252
97.7667
97.693
98.7487
93.5712
112.74
99.2001
101.033
106.887
113.464
96.711
100.42
96.3936
96.2861
97.6105
96.3089
130.889
87.5968
96.1637
94.375
97.7478
55.1007
95.55
97.0901
98.7956
99.2687
97.3502
96.9062
89.5904
97.8374
96.3885
96.808
96.6396
94.8393
99.3793
97.256
99.517
98.8402
45.5381
98.8641
98.4796
117.438
99.0319
88.5099
94.4331
39.9376
108.301
95.6962
94.0064
100.608
92.8348
130.375
96.353
96.2129
96.1518
138.027
93.8441
94.696
96.9423
96.4121
97.3491
96.9
97.3585
96.6364
97.6406
98.5037
97.5857
123.77
97.5256
99.2285
95.658
96.3547
99.6298
97.3673
96.5923
95.4059
96.991
98.1484
142.023
94.3625
99.5391
97.0243
99.3713
98.7941
96.9047
129.401
96.4114
96.2761
96.3114
97.2419
73.9142
129.947
96.806
96.5983
97.4484
92.7268
105.384
93.7673
95.7736
97.7851
102.872
98.0157
95.3715
90.7568
96.8023
94.41
107.533
99.5149
96.2942
99.7704
94.0026
94.8393
96.0517
99.7025
95.6321
96.9553
99.5784
95.1553
93.6099
92.4552
101.072
99.7063
96.2858
97.3885
97.9194
96.5888
98.5594
106.363
99.0043
99.191
97.3861
97.0226
95.006
94.481
100.258
101.768
103.022
96.1402
98.0014
95.9229
78.6733
98.5103
98.5275
96.671
98.8326
119.142
99.8748
98.0977
96.153
107.184
86.7718
98.2649
92.981
97.8577
96.9864
91.0515
117.655
90.6642
95.7693
95.6428
97.6838
99.5279
95.7108
95.8268
100.933
99.1392
89.2116
116.283
96.5972
93.0199
93.3635
95.2794
97.9841
95.8887
90.2949
94.244
95.9982
101.204
96.1328
97.1831
96.0101
98.2927
97.5153
96.7866
98.346
98.9959
93.9815
92.9016
101.636
92.7879
98.5508
95.2701
97.932
96.1538
138.066
114.52
97.6956
96.3162
107.716
115.319
115.318
98.1393
96.5357
96.7677
98.6313
97.2464
95.0825
101.08
130.099
96.8785
95.3745
97.9777
87.6896
113.042
96.3772
97.7488
92.612
99.2659
98.0696
96.0644
98.7013
95.1059
52.4199
72.5831
95.8121
97.098
98.5153
97.2074
95.7842
94
106.141
93.6894
122.284
96.5362
98.7084
97.6359
96.8123
99.048
96.9108
96.0307
97.6494
95.1082
106.002
97.2751
98.2878
97.1612
129.439
96.8979
94.6494
86.0024
91.3058
129.561
130.484
97.6711
97.8708
97.8825
96.578
92.3361
96.2975
20.2922
96.2104
125.247
87.8158
96.8571
96.4633
93.4918
128.97
97.1548
94.373
97.9176
96.1953
96.2028
121.08
93.8513
99.415
96.045
94.0677
96.979
96.024
98.2527
97.1737
102.751
129.737
110.172
95.8707
94.3146
98.6174
97.4981
97.5696
96.5402
97.0585
98.3162
93.2566
93.3988
96.219
97.3319
93.3203
123.608
95.3187
92.9533
102.747
95.358
46.0978
97.6254
98.1236
95.0277
97.9041
96.1511
110.709
95.9267
99.3117
98.2738
93.6967
97.916
96.3992
97.0549
97.4074
99.5056
95.1532
98.8295
98.0327
92.3524
100.098
96.6047
97.7899
96.0481
99.5607
97.6809
101.728
98.6157
98.1224
95.9077
102.795
97.0559
98.4514
97.0826
123.579
125.342
96.4208
96.4495
97.9049
96.2589
96.0513
96.0946
97.6109
94.4233
94.2688
93.2394
107.834
94.6033
96.1426
96.6576
97.4815
99.1741
94.071
87.3822
96.5883
99.4878
117.152
95.9706
97.5776
96.5512
96.9233
96.9685
89.6413
95.6799
98.1914
98.434
95.29
96.5941
83.9095
105.602
99.5869
93.5493
95.0843
96.9409
97.2681
98.1494
97.4174
103.094
102.604
96.224
96.2236
93.9335
96.6098
98.3144
97.252
96.6574
96.298
96.1215
97.8666
96.5576
96.2289
94.0629
96.7232
97.9786
98.0424
103.378
94.4896
97.9214
96.7321
97.3161
94.3199
98.691
97.9881
96.7302
97.4497
98.1973
99.2673
129.924
89.8578
39.069
94.8483
93.3789
99.8346
99.0244
96.0206
97.8779
96.4393
96.2464
97.88
96.5807
102.994
94.0481
120.8
96.6839
96.671
97.9373
96.3352
122.141
94.9157
95.8696
97.3352
100.628
121.402
94.5671
94.1141
97.2879
91.4508
131.179
102.139
99.3613
96.3998
113.106
87.9156
93.8388
96.1525
93.4837
96.9396
97.8398
93.5917
97.9631
96.8423
96.3507
96.3399
96.6815
96.4221
97.1728
96.9176
96.2361
98.2827
96.1855
99.1889
96.6721
95.5267
96.5587
96.1671
96.0806
97.9083
94.8157
88.4749
96.7125
120.402
96.2652
92.3921
98.2403
38.186
98.8383
127.009
95.6177
96.1424
93.4793
97.0033
96.9503
96.7901
99.6241
96.1871
97.6562
97.9466
95.8601
123.131
91.7106
88.6165
96.9471
98.1276
131.73
94.6524
99.9987
95.4488
98.3524
96.994
102.25
96.7688
92.5833
94.0589
97.8643
96.4163
97.9468
95.6902
96.4189
96.0522
95.7774
83.0374
99.3093
98.0034
98.5889
58.6108
103.107
112.341
99.0613
96.0602
129.867
74.6363
117.015
101.567
94.2358
97.8797
96.4049
96.2367
107.308
92.2994
97.5806
96.7057
95.8557
96.7377
124.236
134.895
97.0549
116.705
102.321
129.277
98.9238
97.2127
98.6116
96.7372
96.852
94.4488
115.17
97.0087
96.5461
97.2872
94.6386
129.792
97.0486
117.45
89.4852
98.4275
98.228
97.0986
93.4842
95.6367
98.0961
95.2731
95.7418
95.3191
98.1149
98.172
96.0523
95.1847
99.3092
94.1163
98.7204
103.619
42.2571
129.398
96.5434
94.9395
96.8982
97.3296
97.8013
97.4215
96.0089
95.6818
96.6244
96.2913
99.4007
114.513
99.4802
88.2444
114.481
98.0883
96.9558
96.1159
103.435
37.0382
97.5515
85.3841
111.197
88.4355
94.6686
104.661
102.605
95.0182
95.9301
92.5684
92.0924
131.457
96.156
92.9473
96.2335
104.063
45.9175
98.6088
97.8604
96.2978
96.6311
97.1697
92.1082
96.0657
113.456
97.1758
96.3067
97.1604
121.947
100.222
97.2014
98.5045
98.1933
96.9443
98.4946
95.9597
96.366
96.8822
97.8391
112.873
93.8957
112.236
96.8413
94.5273
100.334
96.8619
131.032
96.3466
97.1046
106.245
117.785
89.7592
98.6199
98.0788
96.8957
97.917
96.7378
128.768
96.9731
99.4759
97.7819
99.1267
97.6837
128.159
129.247
97.9293
99.8465
95.1905
100.567
96.9377
98.0267
86.2122
96.8684
95.4212
96.6378
96.3119
94.9672
96.97
82.4716
96.2492
129.106
101.584
99.1221
97.2769
96.7827
91.5586
123.758
101.377
96.958
122.202
96.728
119.157
113.292
95.4848
128.623
94.704
129.293
98.5661
97.0108
98.2076
105.636
97.3165
110.627
96.2148
104.078
29.9403
96.7322
127.84
98.005
108.174
99.5162
109.184
91.8082
128.431
129.186
101.086
113.662
93.4975
92.8694
97.9172
96.9211
97.0026
97.0206
109.802
94.6823
111.555
109.964
95.4304
96.8926
98.0575
130.296
99.2702
97.8889
96.7642
102.642
93.9953
103.168
103.576
94.8549
113.441
98.9343
96.7151
95.6181
99.0903
96.644
111.43
129.567
93.776
117.544
109.12
96.859
96.6341
96.7315
96.903
95.3095
96.9847
129.329
102.525
99.3034
92.6231
97.0554
117.742
85.7829
98.6904
97.843
96.7818
95.6858
96.9896
98.8127
95.1226
102.883
98.6045
99.911
97.0901
93.0577
97.8872
116.126
105.158
93.726
96.9498
97.0328
98.2606
110.791
96.9468
94.3758
99.1492
96.4564
99.5486
88.1931
98.9322
49.3753
100.789
96.0857
104.543
98.0421
95.4959
96.0376
129.088
94.6429
122.114
96.7302
97.6507
89.4315
95.0395
97.0004
95.0822
99.9144
107.082
89.6701
117.198
99.0834
97.9046
96.6385
95.9753
97.4964
99.019
56.2919
55.5826
96.2336
95.6381
99.4922
100.012
96.6977
97.9336
92.1382
97.0676
97.2735
95.249
97.5367
98.2901
97.5645
99.4633
98.9591
131.42
98.5856
97.2748
95.4597
95.9891
109.121
96.7605
97.9554
99.0475
94.0612
118.795
89.9665
98.8791
97.7088
97.6982
47.409
97.9611
96.4262
111.676
129.977
94.5862
93.4436
96.8615
97.9091
93.1203
100.429
94.1431
94.3484
94.4194
98.8033
98.1519
95.5082
95.8456
97.4239
96.7128
88.481
114.175
98.2357
92.9844
101.921
96.9339
98.1197
99.6147
93.9982
111.205
84.9669
97.0004
99.3421
92.8147
93.8696
94.9187
95.1699
91.9419
105.224
95.078
116.601
126.693
146.033
93.8366
97.1126
131.652
97.2631
96.9787
93.7925
126.557
97.5324
101.985
11.6332
103.135
100.054
91.8411
96.4695
97.9543
96.2807
94.9865
97.2329
99.0896
94.6126
95.3345
99.1407
102.216
96.656
131.107
96.2673
116.793
99.1645
94.1259
93.12
97.8819
96.4714
95.9369
95.8534
92.3751
94.9299
92.5172
38.2914
119.235
89.2579
99.8436
94.2165
100.593
91.8876
97.5213
95.0215
97.3046
93.7811
93.922
96.9299
94.3205
93.7522
99.9242
96.6515
97.1827
95.0194
123.288
96.9014
97.8894
96.8667
96.9883
103.668
111.92
97.4054
102.368
99.7381
88.2156
90.7452
97.3888
96.8606
95.599
97.2185
98.9496
96.1623
92.8895
131.22
97.885
96.5782
130.844
95.6254
95.3403
95.6715
84.0766
104.386
104.172
96.4098
101.644
96.3907
101.681
101.796
105.029
103.182
94.5143
95.7102
95.4986
96.9965
92.0958
108.247
96.5272
94.9315
96.6814
95.4257
95.0407
103.758
94.4802
96.8025
97.7541
101.031
96.7057
96.201
96.6787
96.0175
102.512
49.1629
92.3238
97.8847
96.5461
97.6892
97.5117
98.2458
95.5528
95.8587
97.8239
93.0616
96.5319
128.06
95.3062
96.5842
96.6454
90.1617
96.3873
102.476
94.4999
96.6435
92.7144
99.4083
92.9127
96.7677
92.8944
119.489
117.04
89.675
98.1226
98.167
96.375
96.6529
95.8347
100.055
129.917
104.334
96.6759
120.665
95.653
97.8855
92.5119
95.82
96.9769
88.1618
96.3083
104.86
99.406
94.0793
96.089
101.522
93.3366
93.3366
133.365
87.5971
93.8294
95.8074
95.5359
95.2763
118.905
128.893
96.125
95.4753
98.7632
115.105
99.6853
97.0309
95.7637
97.8948
95.1711
100.033
94.9866
97.522
96.2046
101.483
96.5996
85.1116
111.203
96.6524
94.4868
92.6769
99.5684
98.8561
106.982
98.4173
99.4055
97.7804
95.7648
97.8073
96.7276
102.841
95.8741
18.7558
102.431
96.3156
99.9114
94.2213
96.198
97.0092
96.68
96.1498
98.0348
96.268
93.7504
94.2255
128.019
89.8328
129.709
97.0022
98.049
95.5816
97.4101
98.5216
95.5296
57.6113
122.576
102.887
96.3626
98.3006
98.5678
90.1662
89.2783
94.7727
97.1786
103.099
102.715
98.1051
93.8411
48.7096
96.4022
94.9701
97.9229
99.3655
97.4488
95.7755
97.4001
94.4742
55.1929
97.4156
98.3835
99.5891
96.9213
97.9916
93.6191
93.5658
95.99
101.298
114.216
101.612
98.3795
94.4743
94.4014
99.5947
85.9875
95.0119
131.653
123.087
94.3438
88.2095
100.688
97.883
93.327
96.499
96.8407
121.937
101.511
105.435
98.1774
92.9941
99.686
97.4903
104.453
96.2608
117.146
98.7034
86.134
98.2728
95.7726
131.253
96.9346
93.9162
93.8171
93.4933
97.6688
94.5484
45.9413
112.959
98.3146
97.5201
93.5244
92.8498
97.0435
99.6409
93.7371
96.893
96.5961
96.8176
98.0205
130.797
99.1681
99.7305
93.3385
95.9675
53.3195
97.0848
86.0768
115.229
98.4804
95.0679
92.8046
103.014
98.5462
96.7313
97.9862
91.3751
96.5979
97.4695
99.2413
129.078
97.5281
94.9204
96.0324
97.758
97.1145
91.85
95.2822
94.6881
99.5517
94.3132
93.6483
103.331
98.0843
96.9468
121.27
72.7069
94.618
56.5344
96.9864
98.0053
91.5129
90.0566
97.0172
94.7364
82.4328
95.7235
123.259
98.7971
85.541
117.48
128.237
121.176
95.3787
95.9108
93.3128
99.0736
96.7492
89.1353
92.1761
96.965
96.7043
112.556
112.122
104.989
94.2488
96.8074
93.4682
103.261
96.7446
96.5683
95.9108
96.7008
98.2158
129.005
96.6882
96.7558
97.0531
95.8312
98.7449
98.4438
94.3274
97.0596
98.2158
95.3258
95.7682
97.6311
92.6013
95.6953
96.9895
98.9167
93.6734
92.6844
96.8208
96.5001
93.0722
113.252
97.284
98.0322
98.0732
97.2896
117.685
126.27
97.2191
95.4136
119.952
99.5049
104.998
96.9566
98.1503
98.0755
95.7064
98.2007
96.3641
96.3818
92.6751
95.0585
96.4448
130.392
94.1571
96.4093
93.0303
96.261
98.5699
95.1396
93.1491
98.0784
96.7873
102.625
125.273
96.4627
98.0328
99.6238
98.7323
97.2248
96.2186
95.1017
97.3172
93.5055
96.912
98.1779
97.2108
52.5604
96.3229
129.473
96.5131
94.204
96.9998
127.755
95.8921
55.0019
103.412
96.6358
96.388
96.9302
95.2919
96.882
97.9729
93.5921
96.9473
92.027
98.0327
96.8522
96.6959
97.0401
103.451
130.004
95.9614
91.2647
98.2755
97.8042
96.9647
97.9939
111.801
84.9771
95.0514
102.811
99.446
102.624
99.5527
102.808
122.71
95.8664
94.2565
96.3391
99.2285
131.309
96.8975
96.1937
96.0918
98.4947
98.2105
97.1079
94.4273
129.996
105.115
96.8299
98.0351
91.8969
103.264
95.9931
99.6619
98.5631
96.263
96.6736
93.6118
45.5513
98.3911
98.3365
114.282
131.136
98.4131
93.2779
96.1934
129.482
94.8629
102.178
96.0893
38.2373
60.9995
96.0569
48.3159
96.1026
37.5622
98.3889
114.616
98.291
98.2163
96.9509
96.9565
96.9392
96.9542
97.6039
97.6655
97.5093
97.3804
96.9423
97.2417
60.3187
96.0074
95.8664
96.4336
96.0714
54.5768
96.3258
99.3673
89.6819
92.8041
91.3295
88.5662
65.3304
47.887
88.1363
74.0217
69.6012
88.6095
96.3468
98.108
98.1209
98.0947
97.9896
98.6244
97.1207
98.177
100.133
96.9331
99.6483
98.4767
100.518
98.8388
98.2161
103.197
116.92
118.132
95.9228
104.461
102.375
89.2612
101.552
106.213
116.63
120.787
110.972
108.626
124.619
128.505
132.336
131.204