/*--------------------------------*- C++ -*----------------------------------*\
| =========                 |                                                 |
| \\      /  F ield         | OpenFOAM: The Open Source CFD Toolbox           |
|  \\    /   O peration     | Version:  v1912                                 |
|   \\  /    A nd           | Website:  www.openfoam.com                      |
|    \\/     M anipulation  |                                                 |
\*---------------------------------------------------------------------------*/
FoamFile
{
    version     2.0;
    format      ascii;
    class       volScalarField;
    location    "0.92";
    object      epsilon;
}
// * * * * * * * * * * * * * * * * * * * * * * * * * * * * * * * * * * * * * //

dimensions      [0 2 -3 0 0 0 0];


internalField   nonuniform List<scalar> 
1466
(
9.54196
36.5488
9.2082
94.4839
5.35901
21.4189
3.15666
40.752
9.35662
47.1355
59.7762
43.0237
5.85391
4.62718
25.6964
80.6339
24.4124
100.261
110.439
65.5082
110.559
65.3618
82.3404
53.8363
7.3704
8.96733
43.7543
85.3219
6.00736
50.9478
69.5356
11.0112
9.18564
95.1289
124.176
56.1758
91.7259
30.3956
81.4268
1.74117
3.35751
60.2834
73.3873
4.73287
1.9159
20.2379
79.613
3.22284
48.424
4.20302
16.3695
46.4746
27.8477
3.91869
13.9508
6.80763
14.4018
64.408
6.20096
56.0979
19.0881
3.92714
1.93174
29.4039
77.2259
31.2163
157.621
56.6
34.0108
10.5775
56.4688
147.756
84.1917
6.95195
14.9253
80.2813
3.96099
2.04494
21.8168
71.468
58.2577
74.708
9.74973
81.7319
97.6118
145.2
86.3104
74.943
65.3963
43.2736
12.1095
46.1643
126.759
6.1845
17.4451
10.9619
34.0794
72.1389
8.62971
5.5789
22.3804
11.0154
2.83496
75.9122
83.3657
58.4386
36.2224
3.71612
78.5861
11.0558
14.9915
98.4356
9.19611
65.1774
56.0941
21.1349
49.9896
41.3289
3.08004
1.58285
93.6781
5.26684
1.92038
5.69348
1.81548
62.2912
43.9967
79.8013
50.6106
32.3248
74.9729
54.4745
81.1593
52.5403
14.254
3.45061
1.83649
19.3193
3.01559
1.5501
5.35107
93.717
69.6388
75.1791
69.4038
164.105
10.9957
17.4617
50.1901
95.3528
14.0977
32.9504
39.0398
9.23883
38.9418
63.5284
74.6082
79.3017
11.565
46.5702
10.342
58.1619
128.691
81.1814
103.954
80.8629
60.5489
89.546
92.7012
39.6582
103.395
8.38822
3.25098
35.3397
29.9324
7.53139
42.7178
61.1305
12.9437
73.8286
8.87171
27.9219
129.351
2.97144
77.3304
146.998
100.971
47.8319
35.9011
37.654
114.974
24.5484
117.057
173.091
42.7402
17.6252
10.3408
159.481
112.141
185.955
73.9282
40.8698
47.1971
28.2985
42.8717
92.7985
128.563
28.1553
11.408
60.7368
96.7197
86.5472
129.315
94.5206
115.459
78.548
146.037
99.5009
54.4799
55.9212
85.444
22.5725
82.3988
21.6443
86.7851
80.9931
58.5029
3.3714
13.0916
21.6054
42.4544
82.4073
187.512
138.422
14.3353
71.5988
65.5866
82.673
20.6593
111.506
51.8625
70.2681
39.2818
199.259
16.8462
53.3105
10.6531
6.94557
71.2517
34.4581
133.142
83.6954
25.2537
49.5874
8.03185
15.8401
74.2032
11.9745
114.25
122.308
91.2184
79.5164
52.1317
21.4948
64.708
3.39415
39.2406
43.6918
100.653
11.743
156.538
136.749
56.8232
12.0642
13.2632
26.0274
17.1624
58.5817
100.35
55.5758
19.2884
54.5244
77.721
64.5766
61.7893
2.9189
55.0707
51.2146
6.64207
20.0187
23.2939
9.61124
7.48012
12.3105
46.1424
38.0734
223.57
4.47347
56.8474
18.6949
3.45043
33.4363
5.89718
8.29727
83.0023
11.0277
7.78382
11.1067
38.1963
120.813
31.4931
109.628
59.0236
34.5575
49.7807
43.4351
104.669
32.6843
5.30945
28.4527
36.8724
169.016
114.299
16.5864
83.1928
16.8435
3.30988
33.7663
13.9448
31.2633
74.975
18.1677
10.7681
36.0432
92.8594
16.0878
103.078
19.0876
10.2098
4.59125
1.70467
31.2728
20.5414
69.7323
41.218
6.79789
62.5077
42.0477
39.8672
93.0169
31.3263
13.0828
62.5197
115.684
76.711
109.403
87.6174
19.8073
8.11142
41.2495
85.8711
96.3054
69.9349
44.322
7.03426
188.933
27.8095
26.8465
64.0341
39.6142
35.0335
112.444
107.056
31.2371
13.2141
92.3862
52.7642
110.049
5.75805
57.8622
53.8882
42.5034
61.2264
66.9646
48.9666
46.4364
16.4164
14.5576
8.99735
4.04893
14.0155
29.2723
36.5851
27.7461
18.8198
6.54244
4.12628
108.104
14.4167
13.6038
2.8786
2.2563
69.6335
5.9166
47.5542
100.927
84.8361
29.52
122.963
111.07
25.4916
98.2708
123.21
109.197
73.8164
6.62474
5.53738
50.5418
32.9405
11.5173
80.6368
82.7988
10.3264
129.544
6.61777
2.62631
56.3477
101.125
4.83051
2.39588
53.7894
8.68995
87.246
219.808
32.096
9.10291
6.85149
6.63326
3.74027
47.9748
6.6375
15.903
52.9977
12.4096
27.8335
9.05241
26.4106
33.6447
7.80467
60.2119
33.9558
6.97015
6.42992
11.2653
18.3463
13.4422
9.42673
29.83
9.98615
29.8917
8.51258
11.7833
11.5445
47.6971
52.3642
6.34163
30.6949
9.09934
5.28302
28.1735
6.61382
21.4751
51.7033
2.12211
29.1416
5.37409
1.80985
52.9709
114.738
49.8921
36.2413
96.0673
87.9449
104.789
77.0304
23.1531
4.66193
2.71356
124.231
74.9211
87.2562
82.7904
17.7535
33.2089
26.8429
42.3397
78.4868
50.2546
42.7356
54.1704
71.791
92.9812
52.5515
84.7428
14.0158
70.6438
66.7385
34.5666
5.32206
60.2386
26.2138
65.9293
34.3152
171.53
78.2679
50.0076
12.3301
10.0856
20.0939
29.8601
72.6248
6.0394
130.84
27.6342
57.1354
15.686
7.80682
63.6701
18.6352
96.8242
8.66748
199.841
116.047
39.4272
55.0189
9.62699
34.4146
75.4534
15.4629
99.3178
21.6466
92.7233
24.6484
29.924
21.872
30.9554
25.2616
23.9528
119.274
31.7016
83.6193
5.39421
6.08641
52.234
182.918
67.9051
61.8446
43.1614
57.7312
17.5669
92.5851
94.2732
23.365
38.8443
15.4529
23.945
36.207
129.447
78.8022
102.779
87.2814
128.974
26.3569
51.2761
16.525
108.303
12.8532
91.4738
57.9679
71.7456
38.2817
101.675
76.2028
59.8685
56.0547
29.9808
97.7765
8.78443
45.2595
29.7313
85.0197
26.3165
51.7828
73.8439
132.311
75.8417
73.2039
56.921
24.3119
66.9954
42.5359
14.2166
15.3377
30.0589
206.307
60.9166
27.8831
1.74355
38.6627
86.0463
13.9555
120.2
22.6746
36.9883
110.183
32.302
52.6169
27.7088
25.1336
102.022
29.3178
3.62079
23.8572
19.9557
39.5552
72.4133
222.06
58.7063
72.2973
93.7935
62.2573
23.0107
25.8487
16.6795
91.1422
12.0535
94.1601
77.1808
48.0669
89.3257
125.967
82.0574
58.3931
23.3723
106.902
14.4165
58.5651
103.581
59.5447
28.7125
92.1029
11.2557
33.7074
6.74351
116.565
102.137
6.07091
172.547
14.3726
6.12793
134.952
92.4455
5.63601
14.3523
91.8027
29.9345
106.283
36.4014
55.4902
5.40026
13.2881
17.1577
55.6808
6.35122
54.1763
3.99472
35.6223
6.09067
13.9384
19.2033
83.7824
13.3217
10.0894
150.649
18.2007
116.851
25.8671
8.15326
36.0018
11.4775
115.197
18.6762
16.0666
62.5624
19.4665
7.66456
51.8327
74.7263
27.9569
53.8478
114.703
22.7551
9.43779
14.2217
78.439
63.8682
27.7603
5.62087
7.79217
68.0987
16.3993
135.508
7.77495
67.6096
128.321
94.3489
49.2736
75.4681
71.5219
57.7792
69.2781
101.148
155.726
55.5987
196.696
107.961
87.5107
12.9389
20.2038
7.65433
64.1132
111.808
65.6212
5.52924
132.585
80.9711
117.378
84.5265
4.3825
111.982
92.7183
55.3199
97.0042
4.61362
2.50337
5.46373
32.9009
19.9569
22.3725
48.8039
84.9689
66.7414
9.99025
5.64755
115.843
112.785
159.559
89.495
14.2793
107.806
92.4878
4.90229
28.6766
44.7298
142.754
46.1856
77.4033
120.854
70.9623
135.802
26.6233
8.36426
2.19019
6.47089
59.3804
113.339
40.4418
16.3597
25.009
116.931
18.8244
10.6913
88.1815
33.2463
89.5252
5.86437
39.0533
88.4168
75.0134
38.2152
36.9691
91.8381
101.325
5.62209
32.4191
16.3062
109.88
60.2258
9.05047
8.93667
7.18214
62.1901
101.3
12.2205
39.4215
2.88429
12.513
14.0375
62.8059
89.7489
121.451
56.6238
77.3774
47.1289
34.0122
11.6872
84.7914
83.271
13.4326
92.4612
101.449
82.1028
22.1759
61.5135
3.7059
10.0088
92.8269
12.8429
18.0083
75.7048
71.9808
88.3254
12.8412
122.184
16.4671
26.7915
15.2294
13.9365
7.75602
11.1133
17.9357
108.86
93.1224
10.152
81.4863
81.5729
34.3187
95.2868
36.9707
59.9481
89.0821
61.0767
101.65
34.5656
28.0366
24.8421
68.4288
22.6554
65.3394
99.5431
131.943
99.3636
10.2615
14.8702
8.89466
36.2891
110.607
256.653
31.2074
48.9113
35.2923
8.38873
52.1294
11.5416
123.037
9.87794
96.8738
92.4824
102.971
86.8671
124.16
116.196
120.033
122.353
163.889
167.37
186.942
168.735
165.501
166.271
166.632
153.59
211.722
132.077
147.876
237.294
252.069
160.886
226.558
165.312
160.451
151.793
83.7751
96.3911
6.19166
8.29782
55.4143
11.0128
12.0278
5.67284
4.0696
24.9838
120.085
75.2773
109.388
20.7101
31.5359
12.1428
47.5703
7.04247
52.465
25.8584
122.292
35.0933
46.2738
128.627
74.1878
142.026
4.12809
2.01603
8.2272
9.29794
7.73223
39.8199
51.4145
51.0978
91.4603
8.03754
2.69355
6.46222
13.0709
13.1694
24.4914
101.256
4.15063
1.91682
30.871
98.5849
41.8767
15.6403
52.5209
46.4853
68.0659
81.1251
100.194
61.8316
8.48552
57.5917
100.291
47.156
129.227
35.3199
139.124
36.0345
74.7649
130.267
2.33338
52.5525
20.2218
60.3073
4.64263
99.0118
70.9401
98.4547
29.2388
29.6915
29.5576
79.1392
22.799
12.4966
7.51938
79.0659
131.949
103.114
20.7973
139.888
111.78
27.8516
134.446
65.9908
10.5963
2.31875
34.2943
56.5758
128.355
209.896
62.6285
64.2026
4.82944
13.8473
44.6828
44.7597
75.9509
13.2018
65.2253
4.47398
2.12708
2.13513
36.5193
7.88787
44.1914
80.7914
9.62778
9.16279
137.361
11.4864
78.5637
20.4372
55.4365
116.766
104.217
124.747
83.219
105.759
92.1311
100.52
68.1092
87.2784
56.6371
2.49654
6.75135
122.624
33.8432
9.97021
20.748
62.8827
34.1864
11.5689
56.7718
7.56475
36.3333
40.5
4.61976
1.79325
39.0735
10.8816
22.5887
13.3873
37.7999
124.381
5.2862
1.78834
10.1889
87.3025
39.8039
5.7766
27.3618
119.929
14.1459
24.8363
10.7836
7.63025
29.7973
41.5673
6.42079
98.4042
90.9666
6.83286
1.96644
2.478
49.3957
29.0607
11.5012
6.10179
12.3757
11.8553
7.0269
12.5637
12.7309
4.49359
1.90715
8.25795
133.781
12.6238
12.9293
12.7617
13.0327
41.6575
45.6787
10.8159
11.1642
12.3643
12.7782
65.9211
87.6903
56.2737
28.4848
20.1508
102.157
116.145
33.0154
114.098
75.6618
35.0047
6.20056
2.42683
6.762
116.253
62.6471
130.49
42.4985
8.35537
135.7
43.3131
48.6351
54.9418
120.958
97.3191
123.574
17.7745
90.3739
32.4965
108.289
84.964
142.88
7.01246
14.9765
14.5175
63.2405
44.5901
63.7175
72.8635
54.5403
8.41623
19.8451
16.7685
39.0446
81.6834
85.2471
118.915
109.094
8.00457
2.57405
29.7456
52.9007
46.8898
22.6133
11.396
6.96823
41.6711
102.583
49.006
57.9847
96.779
7.98413
8.16103
22.4806
64.9804
36.4822
110.327
22.617
88.3943
130.722
83.0643
89.8521
124.456
36.9587
90.8441
93.0076
2.65804
6.53781
23.1732
31.2103
5.76591
1.75847
75.6519
66.7386
67.3854
103.28
111.231
126.666
38.6809
30.4622
76.9243
71.2578
104.928
105.369
7.15051
8.78026
43.0014
59.0389
10.4771
92.8651
34.5789
10.8465
52.6149
45.1919
20.7376
17.3098
10.072
55.2963
8.38723
18.9491
40.9254
36.7178
23.2314
235.809
6.76164
9.83522
22.5367
5.03784
7.38998
39.7528
4.38227
1.87191
6.33416
52.6062
65.9944
118.962
105.275
95.2639
8.15638
67.5673
6.85543
67.6519
50.9042
2.73263
48.0081
47.7416
79.5252
68.8214
65.3161
69.6344
97.9909
5.47114
3.67842
103.329
16.6286
3.27163
32.4589
6.37237
90.1875
9.40094
121.529
8.93101
131.926
48.7099
2.56654
119.378
28.0207
7.22781
91.3972
77.5958
38.476
74.646
41.2163
103.834
46.9734
79.7287
6.29594
32.8023
31.1156
111.39
40.1011
117.684
140.244
60.8617
148.479
170.326
154.074
7.27948
30.5301
54.2812
10.4278
110.615
5.18358
68.5925
97.3625
15.0523
121.241
52.9359
6.31526
38.3927
31.4567
6.54223
39.2331
14.4387
18.1595
13.0324
211.577
114.359
68.3463
86.2545
5.4013
6.17747
112.858
70.0027
69.0133
65.5052
71.1079
73.125
145.237
57.1543
44.6445
110.687
6.58875
58.7982
121.214
94.5077
18.1512
4.734
4.36045
4.02236
2.1122
11.7905
22.2765
81.9566
8.8404
11.8431
44.9671
10.4363
76.3843
103.512
90.7301
4.78231
89.6708
38.0032
6.8386
5.32755
6.04488
8.88597
203.448
10.6343
94.9915
18.449
14.9925
7.32651
4.34509
100.429
6.72383
10.5897
73.91
11.0321
93.8943
85.1865
118.003
59.5137
42.1844
23.1484
23.9882
55.0428
14.7248
32.5527
91.2246
4.01519
59.3051
76.2072
30.5937
65.9356
51.7373
115.743
22.3227
47.9137
11.2318
51.5076
105.999
35.9599
8.09891
7.61363
14.7355
12.9075
99.47
78.3884
40.1127
50.9235
143.472
25.9057
97.1582
56.3929
64.5995
58.4685
9.74883
68.8109
95.7392
7.18208
35.5886
97.6422
17.6737
138.508
35.5163
73.0409
127.541
70.658
106.299
101.889
95.1706
98.175
2.29448
4.38687
10.0217
3.45841
26.3224
9.53021
62.5275
32.195
77.2205
51.924
111.887
73.1039
117.294
10.4112
113.44
94.5677
10.4521
9.18028
129.442
42.1918
15.3832
17.4537
70.7669
35.0479
169.742
31.2963
22.5141
9.99173
10.4347
66.8273
76.5805
57.1643
13.0955
187.51
71.1032
48.0375
128.844
7.95206
9.57382
81.0904
66.6703
3.70616
7.72708
41.7322
10.32
75.2477
130.567
31.8646
14.4754
46.4931
162.699
66.3465
65.2401
36.2065
73.0485
10.5192
7.83106
7.05067
3.91699
19.1983
1.89126
84.4859
6.26357
5.02355
120.758
12.5357
67.6056
29.9085
23.3938
)
;

boundaryField
{
    frontAndBack
    {
        type            empty;
    }
    wallOuter
    {
        lowReCorrection 0;
        type            epsilonWallFunction;
        value           nonuniform List<scalar> 
108
(
100.261
147.756
84.1917
5.89718
6.79789
18.2007
25.8671
8.15326
11.4775
19.4665
7.66456
27.9569
22.7551
9.43779
7.79217
7.65433
117.378
32.9009
19.9569
16.3597
12.513
121.451
13.9365
34.3187
92.4824
102.971
86.8671
124.16
116.196
120.033
122.353
163.889
167.37
186.942
168.735
165.501
166.271
166.632
153.59
211.722
132.077
147.876
237.294
252.069
160.886
226.558
165.312
160.451
151.793
83.7751
8.29782
31.5359
142.026
9.29794
98.5849
139.124
36.0345
139.888
65.2253
9.16279
104.217
100.52
68.1092
40.5
39.0735
13.3873
39.8039
29.7973
41.5673
90.9666
2.478
2.478
11.5012
12.3757
12.5637
12.7309
133.781
12.6238
12.9293
12.7617
13.0327
41.6575
45.6787
10.8159
11.1642
12.3643
12.7782
65.9211
114.098
75.6618
8.35537
54.9418
84.964
142.88
49.006
57.9847
130.722
83.0643
65.9944
10.4278
112.858
65.5052
11.8431
38.0032
10.6343
7.61363
14.7355
143.472
)
;
    }
    inlet
    {
        type            fixedValue;
        value           nonuniform 0();
    }
    outlet
    {
        type            zeroGradient;
    }
    wallInner
    {
        lowReCorrection 0;
        type            epsilonWallFunction;
        value           nonuniform List<scalar> 
126
(
30.3956
81.4268
1.74117
3.35751
60.2834
73.3873
4.73287
1.9159
20.2379
79.613
3.22284
48.424
4.20302
16.3695
46.4746
27.8477
3.91869
13.9508
6.80763
14.4018
64.408
6.20096
56.0979
21.8168
10.9619
34.0794
72.1389
8.62971
5.5789
22.3804
11.0154
2.83496
75.9122
83.3657
58.4386
36.2224
3.71612
78.5861
11.0558
65.1774
56.0941
5.69348
1.81548
74.9729
54.4745
3.45061
1.83649
19.3193
5.35107
128.691
29.9324
10.3408
114.25
122.308
91.2184
3.39415
39.2406
156.538
136.749
56.8232
9.61124
12.3105
38.0734
223.57
36.8724
169.016
114.299
19.8073
64.0341
107.056
110.049
108.104
13.6038
101.125
87.246
219.808
9.10291
6.63326
15.903
6.42992
13.4422
9.98615
171.53
199.841
182.918
222.06
172.547
196.696
36.2891
256.653
124.747
85.1865
55.0428
187.51
48.0375
128.844
7.95206
9.57382
81.0904
3.70616
7.72708
41.7322
10.32
75.2477
130.567
31.8646
14.4754
46.4931
162.699
66.3465
65.2401
36.2065
73.0485
10.5192
7.83106
7.05067
3.91699
19.1983
1.89126
84.4859
6.26357
5.02355
120.758
12.5357
67.6056
29.9085
)
;
    }
    procBoundary1to0
    {
        type            processor;
        value           nonuniform List<scalar> 
29
(
1.70285
1.70285
2.65055
2.98205
43.0604
38.9111
127
29.1344
77.5518
9.47521
21.6239
38.9111
2.65055
1.48182
65.6334
21.5566
43.0604
53.2308
2.98205
1.55542
10.7188
6.12169
62.5444
10.8519
10.8519
62.5444
7.37068
78.3549
7.37068
)
;
    }
    procBoundary1to2
    {
        type            processor;
        value           uniform 4.75395;
    }
    procBoundary1to3
    {
        type            processor;
        value           nonuniform List<scalar> 
48
(
89.3166
81.1654
84.557
84.557
54.1829
89.0029
89.0029
9.33068
72.8169
8.44519
5.27081
8.44519
7.80512
4.17142
3.95461
7.80512
4.62364
4.62364
4.1815
4.1815
2.7213
2.34453
3.88625
23.3466
23.3466
2.25498
1.75086
1.75086
3.41603
43.4457
11.4497
3.41603
9.33068
54.086
1.71144
43.4457
24.2188
5.27081
86.8698
45.705
3.24706
39.3789
54.086
1.71144
4.23736
67.7458
48.8836
3.24706
)
;
    }
}


// ************************************************************************* //
