/*--------------------------------*- C++ -*----------------------------------*\
| =========                 |                                                 |
| \\      /  F ield         | OpenFOAM: The Open Source CFD Toolbox           |
|  \\    /   O peration     | Version:  v1912                                 |
|   \\  /    A nd           | Website:  www.openfoam.com                      |
|    \\/     M anipulation  |                                                 |
\*---------------------------------------------------------------------------*/
FoamFile
{
    version     2.0;
    format      ascii;
    class       surfaceScalarField;
    location    "0.66";
    object      phi;
}
// * * * * * * * * * * * * * * * * * * * * * * * * * * * * * * * * * * * * * //

dimensions      [0 3 -1 0 0 0 0];
oriented        oriented;


internalField   nonuniform List<scalar> 
11117
(
8.2267e-07
-4.37839e-05
-1.60006e-06
4.45613e-05
-1.40563e-05
0.000113826
6.25729e-06
-0.000106027
-4.07802e-05
5.79978e-05
-0.000113799
9.65816e-05
-0.000400723
-1.97178e-05
0.000196428
0.000224013
0.000185452
0.00020257
-0.000151606
-0.000236417
-1.56658e-05
5.28662e-06
-1.30135e-05
2.33926e-05
-0.000175188
6.61828e-06
9.94322e-05
6.91374e-05
-3.20517e-05
3.7337e-05
-4.25119e-05
3.72266e-05
0.00129826
0.000250349
-0.00094781
-0.000600797
-0.000204594
0.000214542
-5.3188e-05
4.32406e-05
-0.000855299
0.00092355
0.000297464
-0.000365715
-0.000568585
-0.000177011
0.000401859
0.000343738
-0.000318424
-0.000222282
0.000205878
0.000334827
0.000800665
-0.000941675
0.000418186
-0.000277176
0.000117867
-0.000114234
6.4062e-05
-6.7695e-05
5.64107e-05
4.79641e-05
-2.29093e-05
-8.14655e-05
-9.95089e-05
0.000109805
-2.62146e-05
1.59179e-05
-0.000571141
0.00059664
0.000674702
-0.000700201
5.30691e-05
0.000167228
-0.00010243
-2.026e-05
1.12421e-05
0.000142462
-0.000133444
-0.000324338
0.000183423
7.14998e-05
6.94155e-05
-1.16347e-05
6.28428e-06
-3.6823e-06
9.03269e-06
0.000237395
0.000172233
-0.000124659
-0.000284968
0.000130908
0.000129741
-9.38678e-05
-0.000166781
0.000288028
0.000169508
-0.000301809
-0.000155727
0.000961455
-0.000995288
0.000280075
-0.000246243
0.000248614
-0.000343613
0.000702658
-0.000607658
-0.000152142
0.000220095
-0.000228207
0.000160255
8.42408e-05
-1.83522e-07
0.0010019
-0.00108596
0.000127511
-8.82696e-05
9.712e-05
-0.000136361
-0.000224611
-0.000228122
0.000378685
7.40485e-05
-0.000110009
-0.000401099
0.000359933
0.000151176
-0.000117076
-0.000443021
0.000373084
0.000187013
5.25352e-05
5.62851e-05
-1.65016e-05
-9.23187e-05
-0.000237354
0.000106478
-7.34235e-05
0.000204299
-0.000160352
9.62882e-05
-5.67022e-05
0.000120766
0.000605008
-0.00082629
0.00100684
-0.000785559
0.000515889
-0.000621996
-0.000200353
0.00030646
0.000320107
-5.59224e-05
-0.000508109
0.000243924
0.000161797
0.000423106
-0.000501456
-8.34475e-05
0.000126299
0.000443938
-0.000466659
-0.000103578
7.77351e-05
0.000168234
-0.000209341
-3.66286e-05
0.0010148
0.000892994
-0.00089727
-0.00101052
0.000262446
6.95767e-05
-5.14572e-05
-0.000280566
0.000155848
4.40348e-05
-0.000146814
-0.000946726
0.000752376
-0.000229013
0.000423363
-0.000848437
0.000675713
-0.000208556
0.000381279
5.31519e-05
-0.000205516
0.000165229
-1.28643e-05
7.47369e-05
-4.32874e-05
2.54677e-05
-5.69172e-05
-7.83228e-05
0.000109937
-3.16145e-05
-6.38464e-05
-2.60603e-05
8.99067e-05
-0.000362631
-0.00120397
0.000541852
0.00102475
0.000104884
-8.5971e-05
8.58619e-05
-0.000104775
-1.48786e-05
1.97695e-05
-2.18679e-05
1.69769e-05
1.0511e-05
-1.0511e-05
0.000427663
0.000175457
-0.000558171
-4.4948e-05
0.000389325
0.000148235
-0.00050093
-3.663e-05
-0.000191927
-1.64848e-05
0.000233312
-2.49005e-05
0.000893706
0.000115243
-0.00137916
0.000370206
-0.00038375
0.00081415
0.000531055
0.000846166
-0.000861883
4.40164e-05
-2.82995e-05
0.000150691
-6.39943e-05
-7.65705e-05
-1.01265e-05
-0.000157057
-3.97472e-05
-2.78076e-05
7.74587e-05
-3.16277e-05
-0.00015584
0.000115049
-3.7437e-05
-0.000194688
-2.90567e-05
-0.000111169
8.84995e-05
5.17259e-05
0.000127422
-0.000109896
4.29566e-05
-6.0482e-05
5.49297e-07
-0.00034029
0.000339741
-0.000664434
-0.000330084
0.000539729
0.000454789
-1.41429e-06
4.70467e-05
1.73079e-06
-4.73632e-05
0.000497797
-0.000152097
-0.000708331
-0.000190717
0.000183282
0.000134857
-0.000270328
-0.00126662
0.00130397
0.000232977
-8.11992e-05
0.0002361
-0.0002025
4.75988e-05
-0.000719465
-0.000516109
-7.54025e-05
1.08172e-05
0.000141121
-7.65355e-05
-3.97222e-05
-3.09949e-05
7.07172e-05
-0.000970226
-0.000157614
0.000132552
0.000221002
0.00010038
-5.89366e-05
3.67799e-05
-1.0257e-05
-2.65229e-05
-3.54839e-05
-6.43391e-06
6.36409e-07
4.12814e-05
7.40819e-05
4.53013e-05
-6.51164e-06
-0.000112871
0.000134642
-0.00010865
0.000318387
-0.000344379
-0.00021547
8.59414e-05
0.000249892
-0.000120363
-0.000291366
0.000251727
0.000303011
-0.000263371
5.60102e-05
-0.000434622
0.000378612
-1.96508e-05
-0.000563302
0.000582953
3.00763e-05
-0.000477118
0.000447042
1.76813e-05
2.20639e-05
9.28975e-05
-0.000132643
-5.67612e-05
3.37255e-05
0.000117209
-9.41734e-05
0.000520028
-0.000153598
7.76605e-05
-0.00044409
0.000651984
5.57837e-05
-6.12133e-05
-0.000646554
0.000688747
-3.70231e-05
4.84017e-05
-0.000700126
-0.000698375
3.79368e-05
-2.71825e-05
0.000687621
-0.00054423
4.44758e-05
-1.83511e-05
0.000518105
-1.0588e-06
0.000223663
-0.000325324
0.00010272
0.000581413
2.26244e-05
-2.25614e-05
-0.000581476
0.0006472
4.70992e-05
-2.92632e-05
-0.000665036
0.000630005
4.61161e-05
-2.77456e-05
-0.000648375
0.000815243
6.14451e-05
-3.05216e-05
0.000368714
8.09593e-05
-0.000402268
-4.74057e-05
-0.000230839
0.000171683
6.62306e-05
-7.07429e-06
0.000311154
-0.000385911
-0.00118211
0.00125687
0.000690887
0.00027703
-0.000727493
-0.000240423
-8.83643e-05
0.000170395
-0.000116008
3.39773e-05
-0.00091517
0.000205984
0.000821945
-0.000112759
4.08329e-05
-4.30147e-05
0.000133335
-0.000131153
1.3398e-05
3.94082e-06
2.0536e-05
-3.78749e-05
-0.000239597
7.28249e-06
9.78745e-05
0.00013444
0.000157471
-5.29013e-05
0.000116433
-4.919e-05
3.9339e-05
4.26471e-05
-3.27961e-05
-7.76122e-05
8.61851e-05
6.16619e-05
-7.02348e-05
-0.000416665
0.000351593
-0.000145248
0.00021032
-7.06139e-06
7.66962e-06
5.62116e-06
-6.22939e-06
7.71834e-05
0.000485526
-0.000549573
-1.31369e-05
0.000129095
0.000642453
-0.000728433
-4.31149e-05
-6.87281e-06
-6.41475e-05
5.32601e-05
1.77601e-05
-0.000498471
0.000430542
0.000891615
-0.000823686
3.68937e-05
-2.07618e-05
-0.000878015
-0.00103841
8.20735e-05
0.000958751
-2.41003e-06
0.00103853
-0.00071882
-0.000818185
7.35216e-05
-7.14152e-05
-2.10641e-06
0.000131271
-8.26176e-05
0.000141934
-0.000190588
-0.000130265
-9.72798e-05
-8.43182e-05
-3.91115e-05
5.44684e-05
6.89613e-05
-0.000345915
0.000399333
0.000611038
-0.000664456
-0.000509381
0.000709956
-0.000573905
0.000373329
5.31163e-06
3.03273e-05
-2.63996e-05
-9.23936e-06
0.000586366
-0.00088326
-0.000114388
0.000411281
4.02409e-05
-5.60925e-06
4.89477e-06
-3.95265e-05
0.000302318
-0.000185704
-0.00022382
0.000107206
5.27164e-05
0.000111747
-0.000135971
-2.84923e-05
0.000189299
-0.000138907
-7.64051e-05
2.60128e-05
-0.000919551
0.000106971
-0.000157646
-0.00037588
0.000341738
-0.000703789
0.000737932
5.46433e-05
-6.05567e-05
-0.000108321
-0.000404248
3.6072e-05
9.2553e-06
0.000358921
7.80869e-05
0.00010472
-3.21156e-05
-4.39585e-05
1.99831e-05
6.41988e-05
-4.02233e-05
4.911e-05
6.61542e-05
-6.59651e-05
-4.9299e-05
-0.000203939
6.90364e-05
0.000110892
2.40104e-05
-1.33394e-05
-0.000324035
0.000373276
-3.59021e-05
8.77823e-05
-8.49368e-05
-7.61416e-05
7.32961e-05
0.000411433
-0.000248824
-0.000195538
3.29293e-05
-3.92916e-05
7.43971e-05
-4.52626e-05
1.0157e-05
3.50588e-06
0.000236702
-0.000143612
-9.65952e-05
0.000238376
-0.000103807
-3.29749e-06
-0.000430249
0.000962051
-0.0005509
1.90978e-05
0.00010837
0.000130622
-0.000147273
-9.17184e-05
-4.0218e-05
0.000139727
-3.39678e-05
-6.55412e-05
0.000934351
0.00045267
-0.000617878
-0.000769143
1.65395e-05
-7.84828e-06
-7.41379e-05
6.54466e-05
-0.000485419
-2.72592e-05
-0.000402492
0.000117804
-0.000183969
-5.98836e-05
0.000126049
-0.00033578
-0.000362185
0.000439463
0.000258502
0.000861302
-0.000204383
-0.000656919
0.000104637
0.000327599
-1.82104e-05
-0.000309388
0.00096443
-0.000232642
-0.000731788
0.000224523
0.000118233
-2.78659e-05
-9.0367e-05
-0.000108222
0.000402325
-0.000294103
7.63607e-06
1.69548e-06
-9.33154e-06
-6.49037e-05
0.00029709
-0.000232186
-0.000479307
0.000543153
-6.38454e-05
-0.000489062
0.000480366
8.69584e-06
-0.000133178
-4.93812e-05
0.000182559
-9.67616e-05
-9.64632e-05
0.000193225
-2.24562e-05
-2.67337e-05
-4.3584e-05
-3.40282e-05
-0.000110009
9.33984e-05
1.66107e-05
0.000209033
0.000192684
-0.000401717
0.000143072
-0.000183433
4.03603e-05
0.00015331
-0.000224883
7.1573e-05
0.000134291
-0.000111087
-2.32033e-05
-0.000256524
0.000306558
-5.00337e-05
-6.55873e-05
4.6561e-05
1.90263e-05
-0.000326835
0.000393684
-6.68486e-05
-0.000121426
0.000124179
-2.75309e-06
0.000975306
-0.00106465
8.93474e-05
3.24288e-05
8.08244e-05
-0.000113253
-0.000187929
0.000252894
-6.49642e-05
0.000146542
-5.93715e-05
-8.71702e-05
-0.000270343
0.000312976
-4.26329e-05
-0.000174913
0.000220923
-4.60101e-05
-0.000121371
0.000243581
-0.00012221
-0.000251814
2.0975e-05
-0.000227373
0.00014787
7.95029e-05
0.000150872
-0.000105241
-4.56305e-05
2.75461e-05
0.000144137
-0.000207103
-0.000648196
-0.000313096
-8.80032e-05
-0.000357627
-8.53944e-05
-6.56904e-05
-0.000162432
0.000142305
-8.95888e-05
0.000398856
-9.65378e-05
0.000105892
8.88634e-05
-0.000194756
7.2745e-05
-6.02001e-06
-6.6725e-05
0.000141507
2.57209e-05
-0.00109589
0.00140704
0.000190825
1.98406e-05
-0.000210666
-0.000994578
-0.000209393
-6.49866e-05
0.000118138
1.33664e-05
-0.000118298
0.000104932
-0.000716683
-0.000131753
-0.000800795
-0.000145931
-4.0307e-05
-3.7447e-05
7.7754e-05
2.46259e-05
-1.94225e-05
2.08132e-05
-2.60166e-05
-0.000173657
8.72383e-05
0.000484723
-0.000398304
-0.000896387
0.000905261
0.000661959
-0.000670833
6.502e-05
-7.97141e-06
-6.22373e-05
5.18872e-06
-0.0011892
0.0011458
-5.20423e-05
9.54399e-05
-0.000158231
0.000141982
-4.86553e-05
-0.000183231
0.000182082
-0.000107073
-3.05233e-06
-4.07263e-05
-0.000141742
0.000185521
0.000116564
-0.000128665
-9.20597e-05
0.00010416
4.1858e-05
-4.38336e-05
-6.62985e-05
6.8274e-05
-0.000256493
0.000219967
0.000225825
-0.000201159
4.92224e-05
0.000583493
-0.000431556
0.000787617
-0.000683487
-0.000184998
8.08672e-05
-0.0014041
-3.49775e-05
0.000249877
0.000176627
-0.000207537
4.76268e-05
-1.67167e-05
0.000252443
4.3616e-06
-4.43974e-05
-0.000212407
0.00068513
-0.000183039
-6.19368e-05
-0.000440154
-0.00034519
-0.000249472
4.04748e-05
0.000554188
-7.48745e-05
5.35768e-05
0.00124662
-0.00122532
3.76481e-06
-1.20568e-05
8.29201e-06
9.16743e-06
0.00015534
-9.40758e-06
-0.000155099
-8.36455e-05
6.58872e-06
-8.00037e-06
8.50572e-05
7.10719e-05
-8.17777e-05
-8.04169e-05
9.11227e-05
-5.66158e-05
8.04857e-05
-0.000178651
0.000154781
-8.1961e-05
0.000128909
-0.000213561
0.000166613
4.15212e-06
8.84233e-06
-5.05701e-05
3.75756e-05
0.000135969
-4.33876e-05
-0.000218486
0.000125905
0.000216735
-0.000244559
1.30687e-05
1.47548e-05
2.28893e-05
2.88789e-05
-0.00104584
0.000994073
-0.000134984
5.31091e-05
-0.000749812
0.000831687
0.000857589
-0.000859722
6.89458e-05
-6.68123e-05
0.000174326
-0.000272248
-0.000156498
0.00025442
2.02456e-05
1.24034e-05
-3.00226e-05
-2.62635e-06
-0.000116993
-5.72672e-05
8.9994e-05
8.42662e-05
0.000162655
-0.000144792
-1.01898e-05
-7.67298e-06
4.85188e-05
0.000687239
-0.000379161
-0.000356596
7.4074e-06
0.000198701
-8.83049e-05
0.000242184
-0.000266696
3.1919e-05
2.68711e-07
-1.68082e-05
5.58784e-05
-2.17767e-05
6.93894e-05
-0.000152672
0.000105059
8.83676e-05
-4.84548e-05
6.84574e-05
5.294e-05
-0.000537821
0.000484881
4.85367e-05
-0.000490569
0.000442033
3.84484e-05
-0.000498182
0.000459734
7.44755e-05
-8.31879e-05
-2.03442e-05
-0.000208537
9.53252e-06
1.37859e-05
-8.65277e-06
-1.46656e-05
-1.99978e-05
2.89798e-05
-0.000957765
0.000948783
-0.000300885
-0.000378098
0.000447062
0.000231921
0.00106664
-0.00045606
-0.000815121
0.000204536
-0.000657119
0.00116546
-0.000875493
0.000367149
7.8537e-06
-2.43633e-05
4.11355e-05
-8.73194e-05
-6.45446e-05
6.75458e-05
-0.000613988
-6.90121e-05
0.000295879
0.000387121
-5.96549e-05
-0.000148204
4.96277e-05
-0.000146071
-0.000138038
0.000100878
1.31548e-05
0.000117865
-6.05591e-05
-7.04612e-05
-0.000313476
0.000199931
0.000113544
-0.000103878
0.000105258
-1.38019e-06
0.000283275
-0.000163193
-0.0001603
0.000103046
-0.000381262
0.000335466
-5.72503e-05
8.74816e-05
-5.6568e-05
-0.000597286
3.32741e-05
-5.68057e-05
0.000620818
-0.00053899
2.96116e-05
-5.56497e-05
0.000565028
-0.000174819
-7.62975e-05
0.000123257
0.00012786
-4.04153e-05
0.000144512
-0.000168633
6.45362e-05
-0.000311309
0.000502579
0.000350582
2.98953e-05
-0.00108562
0.00111203
-5.63033e-05
2.13002e-05
8.12763e-05
-3.15047e-05
2.1734e-05
-1.1674e-05
-2.49386e-05
0.000185312
-1.1567e-05
-0.000184448
1.07038e-05
-6.28406e-05
7.92675e-05
5.74664e-06
-2.21735e-05
4.86363e-05
0.000219527
-2.99573e-05
-0.000238206
5.22338e-05
4.21824e-05
-2.16712e-05
-0.000340146
-6.33277e-05
0.000297857
0.000105617
-0.000472555
0.000342099
0.000256755
-0.000210877
0.000122939
0.000165673
-0.000630443
0.000398731
0.00039351
-0.000538225
1.97396e-05
0.000535316
-1.68305e-05
-0.000579097
-9.51872e-06
0.000587975
6.40799e-07
6.47069e-06
0.000577434
-0.000561094
-2.28106e-05
-3.89233e-05
0.000595177
-0.000582932
2.66782e-05
-0.000655779
0.00105997
-0.000780067
-8.98839e-05
8.53154e-05
-7.25276e-05
7.70961e-05
-9.95591e-05
0.000104432
-0.000143348
0.000138475
6.22744e-05
-5.02685e-05
3.96887e-05
-5.16946e-05
3.75996e-05
-3.74072e-05
-2.77219e-05
2.75295e-05
-0.000970714
0.000115088
0.000953862
-9.82361e-05
-0.000122776
0.000691332
-0.000742765
0.00017421
1.07955e-05
-8.53682e-05
0.000267142
-0.00019257
-7.99606e-05
6.12661e-06
0.000249081
-0.000175247
-5.20655e-05
-9.35294e-05
0.000485658
-0.000340063
8.66979e-06
0.000106086
2.27482e-05
-0.000137504
4.426e-05
-5.94916e-05
8.93134e-05
-0.000562365
0.000514414
-1.99931e-05
4.4722e-05
-6.02128e-05
0.000321503
-0.000264641
-8.3433e-06
0.000186558
0.000171939
-0.000162441
-0.000196056
3.83735e-05
-1.55513e-05
0.000319274
-0.000342096
-5.26597e-05
-5.0741e-06
-5.1068e-06
0.000506707
-0.000295021
-0.00054177
0.00076752
-0.000400377
0.000687072
-0.000364759
0.000141284
1.1496e-05
2.72099e-05
2.5401e-05
7.65386e-05
-0.000129149
0.000448017
-0.000756211
-0.000588193
1.96302e-05
-2.94902e-06
-2.37426e-05
-0.000427132
0.000472537
0.00101272
-0.00105812
0.000847426
-0.000171433
-4.70691e-05
-0.000628924
-1.4014e-07
1.12797e-05
2.25848e-06
-0.000338059
0.000174832
0.000383321
-0.000236615
6.33389e-05
-6.63213e-05
0.00017971
-0.000742209
0.00064674
8.92705e-05
-1.31828e-05
1.62797e-05
-9.23673e-05
0.000123062
5.80379e-05
-7.35598e-05
-0.00010754
-0.000622543
0.000570088
0.000482998
0.000131732
0.000184341
4.94163e-05
-5.53696e-05
8.14808e-05
-7.55276e-05
-1.2531e-05
-0.000198226
0.000154835
5.03886e-05
-4.27049e-05
-0.000103506
9.58228e-05
-0.000169729
-0.000176119
0.000787522
0.000136029
-1.9272e-05
-8.10843e-05
0.000300474
7.82109e-05
0.000145711
0.000108118
-5.37228e-05
0.000223383
-0.000214216
-1.48202e-05
-3.05042e-05
2.2137e-05
0.000125733
9.48166e-06
-3.88071e-05
0.000233605
-1.91294e-05
-4.42871e-05
-3.00444e-05
0.000176586
-3.92679e-05
-0.000231075
-5.13376e-05
-0.000136592
-0.000522915
3.38529e-05
-0.000121987
-0.000500009
-4.40811e-05
-0.000464027
1.8816e-05
-1.53102e-05
-4.46513e-05
-6.02026e-05
-0.000125062
-4.26565e-05
0.000286238
0.000140505
1.00236e-06
0.00038747
0.00063728
1.56376e-05
7.38404e-05
-1.27412e-05
-1.86912e-05
1.20099e-05
-0.000149119
-0.000229235
0.000178001
0.00050525
-0.000531063
2.42019e-05
1.61105e-06
7.13555e-05
-0.000135347
7.06102e-05
0.000129734
-0.000132609
4.02125e-05
-1.24743e-05
-2.91479e-05
8.31429e-07
4.07908e-05
0.000275864
0.000476513
0.000244241
0.000431473
8.41553e-06
-0.000213932
1.36849e-06
-9.77543e-06
1.77943e-05
-9.38731e-06
-0.000102543
1.15657e-06
0.000101136
2.50914e-07
2.40778e-05
-3.81848e-05
1.63267e-06
-5.68001e-05
3.69022e-05
2.69284e-05
-7.03063e-06
-8.6656e-06
-8.67506e-05
3.22217e-05
6.31945e-05
0.000422424
-0.000115886
0.000135821
-0.000431565
0.000723407
8.81392e-05
-0.000394843
0.000696029
-0.000134737
0.000238832
-0.000296022
-1.78125e-05
5.91917e-05
-5.14615e-05
1.00823e-05
-1.15427e-05
0.000143291
-7.95132e-05
-5.22348e-05
1.47799e-05
-9.46349e-06
-3.94791e-06
-0.000625045
0.00103049
-0.000735098
0.000329658
5.30147e-05
-0.00013974
-7.36271e-05
6.88425e-05
-0.000199517
-0.000106679
3.66382e-05
3.21456e-05
-1.62486e-05
-0.00107894
0.000970864
0.000107894
3.84912e-05
6.66737e-05
-0.000115058
9.89312e-06
-3.83941e-05
8.65477e-05
-9.70446e-05
4.8891e-05
-3.05067e-05
-0.000102671
-5.40687e-05
-4.2693e-05
0.000359011
-0.000136049
-4.52188e-06
2.52027e-06
4.70875e-05
-4.50859e-05
-2.92537e-05
3.26008e-05
-7.15824e-05
6.82352e-05
8.64566e-05
7.13488e-05
0.000138443
9.7896e-05
7.48448e-06
-8.60663e-05
-1.93141e-05
0.000133162
-3.21587e-05
-0.000128869
0.000194962
0.00013617
0.000247265
0.00121264
0.000130363
-0.00117345
-0.00016955
4.29158e-05
3.20941e-05
5.4091e-05
-0.000668445
0.000172717
0.000594395
-9.86673e-05
-0.000157672
1.48773e-05
-1.09699e-05
0.000153765
-6.97661e-06
-1.50322e-06
2.98657e-06
5.49325e-06
7.54088e-05
-0.000138399
6.84874e-05
-5.49776e-06
-0.000210093
0.000706667
4.47695e-05
-0.000541343
-0.00029042
0.000832714
5.37267e-05
-0.000596021
0.000625169
3.01513e-05
7.59157e-05
-0.000731236
-6.25455e-05
5.48917e-06
8.49096e-05
-2.78534e-05
6.36429e-05
0.00014539
-0.000144715
0.00032699
0.000357454
0.000485763
0.000110451
0.000523902
0.000108894
0.000559559
0.000126366
0.000569371
-7.58224e-06
1.14397e-06
4.36924e-06
2.06902e-06
-1.74704e-05
2.21678e-05
-1.44729e-05
-0.000244948
0.000297963
-0.000334898
0.000403741
-5.22487e-05
8.88869e-05
5.24166e-06
-1.00238e-05
1.24518e-05
-2.43347e-05
-0.000145922
0.000173505
-3.248e-06
-8.64512e-06
2.24063e-05
-1.99582e-05
6.19699e-06
2.72837e-05
0.000691543
-0.000468477
0.000968665
6.21893e-05
-0.00101655
-1.4302e-05
-0.000212715
0.000274948
0.000221042
0.000136998
-0.000263384
-6.6593e-05
0.000192979
0.000159792
-4.20466e-05
6.85473e-07
3.44883e-05
0.000184216
0.000118003
-8.75977e-05
-0.000132091
-1.84077e-05
-0.000954479
0.000926995
-0.000399648
-6.31659e-05
-0.000153275
-1.05404e-06
0.000180617
-1.95793e-06
-0.000177605
-7.98689e-05
0.00072245
1.78343e-05
-0.000660415
-7.77534e-05
0.000539429
2.21169e-05
-0.000483792
7.66644e-06
-8.05623e-07
8.83731e-05
-9.52339e-05
7.10793e-05
-4.43581e-05
-1.97262e-05
-6.99503e-06
4.07413e-05
-0.000135349
0.000184577
-8.99694e-05
-2.44193e-05
0.000247803
-0.00012846
0.000159523
-6.34972e-05
3.24342e-05
-0.000284346
-6.00963e-05
0.000201146
0.000143296
1.88457e-05
-3.21502e-05
1.18541e-05
1.45031e-06
0.000639441
2.45285e-05
-1.90265e-05
-0.000644943
-1.32067e-05
0.000104006
-7.76448e-05
0.000510748
-2.57969e-05
3.1099e-05
-0.00051605
0.000222768
-0.000147611
-0.000139205
6.40485e-05
-0.000500362
-4.15909e-06
-6.48281e-05
0.000569349
-0.00056258
-9.55353e-05
1.92033e-05
0.000638912
2.67426e-05
-2.27307e-05
-1.65549e-05
1.2543e-05
-0.000141743
5.50187e-05
0.000144831
-5.81069e-05
-0.000101285
-6.68807e-05
0.000118177
4.99889e-05
-0.000111345
9.10524e-05
3.4849e-06
0.000773524
8.06769e-05
-3.89585e-05
4.51083e-05
4.38308e-06
-9.25049e-06
-0.00122897
-0.000116614
0.00118273
0.000162848
0.000499555
0.000323643
-0.00028497
-0.000538228
8.97754e-05
-4.68492e-05
-3.63171e-05
-6.6091e-06
-0.00010585
0.000172046
-0.00019485
0.000128653
5.20345e-05
-6.52412e-05
-0.000170249
8.9071e-05
-0.000588838
0.000670016
0.000135369
-0.000113051
2.94146e-05
-5.17321e-05
8.88714e-06
-5.74628e-06
-5.41856e-07
-2.59899e-06
8.77752e-05
8.62243e-06
-3.06566e-05
-6.5741e-05
0.000177916
-0.000141388
-9.31834e-06
0.00107551
-0.000923831
0.000235476
-0.000387154
-0.000282458
-0.000177269
0.000231519
4.02416e-05
0.00018278
-0.000167585
-5.54368e-05
-0.000133151
-2.74854e-05
1.88933e-05
-0.000206192
0.000183174
-7.82667e-05
3.96454e-05
1.91129e-05
-3.20158e-05
-3.97686e-05
1.31465e-05
6.82146e-05
-4.15925e-05
7.91466e-06
4.94953e-05
-4.7966e-05
-9.44401e-06
-3.41995e-06
-5.38579e-06
0.000226873
-0.000415708
0.000486298
0.00113304
-1.71524e-05
2.99103e-05
-8.85444e-06
2.27215e-05
-0.000201941
0.000188074
-6.33469e-05
8.21629e-05
-1.91399e-05
4.6575e-05
-4.74282e-05
9.00531e-05
-0.000152348
0.000106554
-0.000651542
0.000330317
-7.94978e-05
-0.00080159
-0.000472495
0.000135778
8.43216e-05
5.24499e-06
-0.000158482
-4.43524e-06
7.44991e-05
-5.21229e-05
-0.000164773
-8.72623e-05
0.000142026
2.67167e-05
8.53785e-06
-2.04746e-05
-4.8463e-06
6.38211e-06
8.74852e-05
-8.9021e-05
-0.00080077
-8.88714e-05
0.000221196
0.000365006
-0.0003355
-0.000196134
0.000166627
-0.000155677
-0.000946401
7.20286e-05
0.00103005
-6.82041e-05
-0.0010043
0.0010327
3.98085e-05
4.9489e-05
-6.08165e-05
-1.20342e-06
-0.000234638
-0.000334221
0.000356143
0.000108105
8.86028e-05
-0.000114192
-8.2516e-05
-1.93391e-05
-2.23407e-05
2.856e-05
1.31198e-05
-0.00080415
-0.000283219
-0.000175648
-4.44126e-05
-1.8792e-05
0.000238852
8.72985e-05
-2.81394e-05
-8.3599e-05
2.44399e-05
0.000233575
-7.37583e-05
-1.89749e-05
-3.41494e-05
4.64584e-07
6.78677e-05
-2.22058e-05
-5.72046e-05
0.000107987
-0.000112576
1.03723e-05
-5.78265e-06
4.3792e-05
1.6403e-05
-6.58291e-06
-5.36121e-05
1.58497e-05
0.000594876
-1.33865e-05
-0.000597339
0.000104211
0.000666407
-6.07302e-05
-0.000709888
6.52801e-05
4.23206e-05
3.85863e-07
3.0859e-05
-0.00108951
0.00108969
-3.10334e-05
0.000259453
-0.00152025
4.85884e-05
0.00121221
-2.51945e-05
-2.33475e-06
1.03853e-05
1.7144e-05
0.000198783
-1.53378e-06
-2.50709e-05
-0.000172179
0.000311384
-0.000338602
0.000229788
0.000697159
-0.00060339
-0.000749548
4.31187e-06
1.25429e-05
5.98989e-06
-2.28447e-05
-6.94664e-05
8.59222e-05
-5.79858e-05
4.153e-05
-7.31214e-05
2.91562e-05
0.000110815
-6.68496e-05
-0.000743923
0.00023842
0.000483883
2.16195e-05
0.00014598
-4.46612e-05
6.72942e-05
-0.000168613
5.32637e-06
5.58768e-07
-5.03045e-06
-8.54695e-07
0.000223761
2.16242e-05
5.46784e-06
-0.000250853
-1.29232e-05
8.00918e-05
-6.71686e-05
0.000316667
-0.00128618
1.8959e-05
-3.11193e-05
-3.87216e-05
5.08819e-05
-2.04987e-05
3.25411e-05
1.20353e-05
2.18299e-05
-1.30525e-05
4.11907e-06
-1.28965e-05
0.00104115
-0.00146573
0.000183846
0.000240734
0.000458387
8.42168e-06
1.29603e-05
-0.000479769
-5.74769e-06
-2.6069e-06
5.34629e-05
8.66343e-05
8.71309e-05
-0.000936817
0.000763051
1.08139e-06
1.0172e-05
-1.43373e-05
3.08394e-06
-1.68774e-05
0.000167935
-0.000206591
5.55327e-05
-3.67718e-05
-0.000107004
0.000156753
-1.29769e-05
0.00093275
-0.000641466
4.705e-05
-3.90974e-05
4.24359e-05
3.88628e-05
8.75095e-05
-7.6956e-05
0.000846419
-0.000579659
5.09161e-05
-0.000317676
2.61621e-05
0.000390418
-5.14701e-06
4.81085e-05
-4.14015e-05
8.72816e-06
1.0869e-05
4.29289e-06
-2.38901e-05
0.000537587
-7.4933e-05
-0.000411251
-5.14032e-05
5.27939e-06
-8.83298e-06
-6.72707e-05
7.08243e-05
-5.58689e-05
-0.0002196
0.000161506
0.000244653
3.82288e-05
2.37563e-05
-6.96307e-05
7.64555e-06
6.70931e-05
8.23511e-05
-7.82484e-06
1.15834e-06
0.000230427
-1.01147e-07
-1.55699e-06
6.9845e-06
3.79245e-05
-2.67159e-05
0.000134771
0.000223887
-0.00026375
0.00013393
-9.4067e-05
0.00114324
-0.00111794
-0.000295622
-3.72621e-05
-0.000611769
0.000186359
0.000528456
5.66464e-05
-6.26251e-05
2.25182e-05
0.000510208
-0.000107073
0.000529615
-0.000187181
-4.23232e-05
0.000148305
1.64845e-05
2.75907e-05
-2.20701e-06
-4.18683e-05
4.3416e-05
-1.2613e-05
-4.795e-05
1.7147e-05
-4.8549e-05
5.72771e-05
1.36976e-05
-9.42497e-05
8.78086e-05
-7.25659e-06
0.000717611
0.000101671
-4.57571e-05
0.000162078
0.000166574
-0.000269364
0.000230441
-0.000440906
0.000447376
-0.00032426
0.000201484
-0.00114198
0.00114425
9.67258e-05
-9.89955e-05
0.000246259
0.00056468
-0.000258898
-0.000423611
-0.000138823
-0.000152014
-0.000173717
-0.000288042
0.000500231
-0.000730647
-0.000164924
0.000395341
-0.000753292
0.000309816
-8.24571e-05
0.000525934
-4.15896e-05
0.000118737
-0.00034389
0.000266743
-2.50041e-05
-5.80374e-05
-0.00112461
0.00120765
9.23926e-05
-0.00039254
0.0007633
0.000181243
-0.000816235
-0.000128308
-2.75575e-05
3.05012e-05
2.29802e-06
0.000697893
-0.00065292
8.13932e-05
0.000619169
-0.00066932
0.000159045
0.000546445
-0.000509631
7.3637e-05
-2.04475e-05
9.2099e-05
1.5647e-05
-1.69222e-05
2.13348e-05
3.38162e-05
8.20706e-05
-8.30118e-05
6.29016e-05
-6.19603e-05
0.000639868
-0.000540058
-7.72099e-05
-2.26008e-05
0.000616775
-0.000527798
2.94504e-06
-9.19222e-05
0.000100944
0.00154359
-0.00121457
-0.000429972
-1.71665e-05
1.01267e-05
-3.68594e-05
4.38992e-05
-0.000994123
-0.000637524
0.00105566
0.00057599
1.60253e-05
-5.79946e-05
-8.51776e-05
0.000127147
2.05494e-05
3.1645e-06
2.75316e-05
-5.12455e-05
8.95758e-10
-6.76418e-06
-3.24899e-05
3.92532e-05
0.000119095
-4.44782e-05
0.000642994
0.000528894
-0.00074305
0.00029134
0.000597409
-0.000829553
0.000361239
-1.1711e-06
0.000127706
-6.32353e-06
1.24234e-05
3.34631e-05
-3.9563e-05
0.000617018
-6.43408e-05
0.000138655
3.2593e-07
1.80003e-05
-7.48921e-06
-0.00015995
-0.000232731
6.2189e-05
0.000330493
0.000163587
0.000833803
-0.000673747
-0.000291831
-0.000364167
0.000355113
0.000667594
-0.000628144
-0.000141074
0.000101624
-0.000114279
5.63209e-05
7.28351e-05
8.93588e-05
-4.37102e-05
3.51757e-05
0.000162944
-1.4476e-05
7.24554e-05
-3.55736e-05
9.23927e-05
0.000519566
-0.000626137
0.000106571
-0.000407623
0.000291779
-0.00128496
0.0014008
-0.000167872
9.49621e-05
0.000231534
-0.000158624
0.00015014
4.98095e-05
-7.93402e-05
-0.000120609
-0.000434268
-3.00042e-05
0.000593887
-0.000129615
0.000219075
-0.000183058
-0.000381932
-8.11206e-06
-2.28829e-06
-2.34086e-06
0.000163582
-0.000110012
9.65705e-05
-6.13149e-05
-5.03972e-05
4.22457e-05
-5.4487e-06
4.5784e-05
-6.67975e-07
-3.96674e-05
0.000209622
-0.000223892
0.000134356
-0.000120085
5.09749e-05
2.04648e-05
9.12153e-05
-4.91838e-05
-7.5238e-06
4.66837e-05
1.07927e-05
2.26725e-05
-3.01451e-05
-3.32011e-06
1.08357e-05
-7.76937e-05
0.000102173
-3.5315e-05
7.80007e-05
-2.81913e-05
3.01753e-06
-4.55742e-06
-2.36546e-05
6.51592e-05
-1.75968e-05
0.000151221
4.75525e-05
-4.73816e-05
-3.99395e-05
-0.000647648
-0.000411187
0.000795724
0.000263112
0.00082286
-0.0010416
0.000356888
-0.000138145
-1.84642e-06
-7.71142e-05
8.07415e-05
-1.78085e-06
-3.25973e-05
0.000249544
-0.000290184
7.32371e-05
1.23529e-06
-1.32053e-06
-2.96399e-05
2.97252e-05
-0.00134488
0.00117947
-0.00024988
0.000415293
0.000373663
-0.000319023
-0.000128221
7.35807e-05
7.34389e-06
0.000661737
-0.000659178
-9.90364e-06
-0.000337154
1.95397e-05
0.000132535
-0.000561827
0.000543291
-0.000113999
0.000163973
-0.000586553
0.000586356
-0.000163776
-0.000101491
-0.00075942
0.000860911
1.39115e-05
-5.77506e-06
3.9119e-06
-1.20484e-05
6.0894e-06
-5.96741e-06
8.65491e-07
-9.87487e-07
5.01389e-05
-5.22519e-06
4.2767e-05
-8.76808e-05
-0.000129755
-0.000138623
0.000195257
5.80903e-06
-3.48358e-05
4.79857e-05
-0.000176355
9.71487e-06
0.000109972
5.66684e-05
-0.000113092
-1.01175e-05
9.00348e-05
3.31742e-05
-2.68583e-05
1.04642e-06
0.000349644
-0.000323832
0.00108614
-0.0011172
-4.3961e-05
7.50209e-05
-0.000169022
-1.85677e-05
0.000205504
-4.82476e-07
-0.000205022
-2.24874e-05
8.03364e-05
1.70637e-05
-7.49127e-05
-4.98836e-05
-4.69925e-05
5.09751e-05
4.59009e-05
-1.01823e-05
-2.37604e-05
4.70893e-05
-4.47986e-05
2.54515e-05
5.89925e-05
-4.34012e-05
6.11603e-05
-0.000223951
1.82625e-07
6.08815e-06
-0.000139421
0.000594012
4.43146e-05
-6.08927e-05
0.000608135
3.11231e-05
-4.40813e-05
-0.000529719
3.44175e-05
-4.29235e-05
-0.000510155
-5.91678e-05
-9.77465e-06
-0.000362976
-0.000189481
0.000212311
-0.000966542
-0.000170532
0.000277352
0.000118019
3.20669e-05
-5.21898e-05
-8.8089e-05
-0.00117719
0.0011904
-9.10177e-05
3.79765e-05
-0.000260434
-8.17421e-05
-3.775e-05
1.56139e-05
0.000598247
-0.000181794
-0.000494207
0.000694691
-0.000180871
-0.000593689
-1.83275e-05
-4.88578e-06
7.84687e-05
-5.52553e-05
5.81654e-06
0.000676174
-1.43961e-05
-2.91074e-05
4.92479e-05
-5.3052e-05
3.29116e-05
5.80755e-05
-4.5066e-05
-8.53253e-05
7.23158e-05
3.2522e-05
-2.3986e-05
1.22772e-05
2.9781e-05
-1.92015e-05
-2.80499e-05
-1.5054e-05
-6.77324e-05
1.2188e-05
7.05983e-05
0.000292433
-0.000104415
0.000114481
-0.000302498
-0.000319843
-7.57824e-05
5.84715e-05
-0.000361599
0.000229401
0.000311908
3.73717e-05
2.30041e-05
-3.36591e-05
6.49122e-05
1.43062e-05
4.90598e-08
6.05102e-05
-7.57646e-05
5.33483e-05
-3.80938e-05
-0.000508209
1.47788e-05
0.000466472
2.69585e-05
0.000300804
0.000364951
-0.000589307
-7.64483e-05
0.000233453
-0.000599634
-0.000281467
0.000428662
0.0002889
-0.000580374
-0.000137188
-4.29698e-05
2.43237e-05
4.40827e-05
-2.54366e-05
0.000116509
0.000163731
-0.00102416
3.89524e-05
-1.83234e-05
-2.8741e-05
8.1544e-05
-2.04761e-05
-6.08852e-05
-4.85208e-05
-5.99026e-05
6.36249e-05
0.000899833
-2.32235e-05
-0.000766858
-0.000109751
-1.90406e-05
-2.42468e-05
-0.000100391
-0.000171857
-4.54591e-06
8.46377e-05
-0.000104417
0.00111249
0.000157393
-9.40733e-05
0.000192277
0.000125684
-0.000408896
0.000329424
0.000526776
-0.000447304
0.000301887
-0.000306859
0.000484024
-0.000479052
2.17278e-05
-5.09409e-05
-2.0807e-05
5.002e-05
-4.0473e-05
4.26058e-05
5.46342e-06
-7.5962e-06
-0.000251378
4.31218e-05
4.89262e-05
0.00015933
-0.00110773
0.00110105
9.38025e-05
-0.000732793
0.000471017
-0.000585511
0.000513811
-0.000344507
-0.000134785
0.000117692
0.000110121
-3.72976e-05
0.000860466
-0.00102844
-0.000263105
0.000431084
-0.000226027
-0.000989497
0.0011912
2.43233e-05
-0.00106517
0.00108454
-0.000107454
-0.000487356
0.000431082
0.000353776
-0.000297502
-0.000312404
0.000319541
2.63748e-05
-3.35123e-05
-0.000130647
-3.72059e-05
2.30612e-05
-0.000602376
0.00073839
-0.000547201
0.000149894
-1.13503e-05
-1.49548e-06
7.86025e-05
-1.60348e-05
-6.10723e-05
-0.000198244
0.000185153
-9.70533e-05
5.84148e-05
0.000156657
-0.000921132
0.00088345
-0.000277596