/*--------------------------------*- C++ -*----------------------------------*\
| =========                 |                                                 |
| \\      /  F ield         | OpenFOAM: The Open Source CFD Toolbox           |
|  \\    /   O peration     | Version:  v1912                                 |
|   \\  /    A nd           | Website:  www.openfoam.com                      |
|    \\/     M anipulation  |                                                 |
\*---------------------------------------------------------------------------*/
FoamFile
{
    version     2.0;
    format      ascii;
    class       volScalarField;
    location    "0.53";
    object      epsilon;
}
// * * * * * * * * * * * * * * * * * * * * * * * * * * * * * * * * * * * * * //

dimensions      [0 2 -3 0 0 0 0];


internalField   nonuniform List<scalar> 
5794
(
0.638095
0.494082
2.18824
109.954
39.7288
1.0796
13.0192
5.28588
90.3319
4.88484
35.5298
6.74716
14.0692
39.5892
0.619179
0.270013
350.459
53.1231
0.776392
0.799823
64.064
0.829343
18.1471
0.73266
39.3777
115.6
338.452
23.0955
91.0031
2.18161
7.84341
3.84459
19.9871
1.03797
17.2509
16.1678
4.43286
41.0371
38.5679
65.1752
32.1159
1.10288
9.36955
7.37956
0.662196
42.1617
26.0362
7.08195
3.97861
7.17126
0.205208
57.047
2.59298
2.60677
0.242169
37.9119
19.5982
11.2322
6.08911
229.306
61.7658
0.561403
10.102
6.2493
23.6541
0.504278
47.1164
25.5652
59.6439
0.755261
76.7705
57.3244
444.003
2.00747
58.684
8.55287
8.83851
81.0414
4.85372
1.00965
1.51062
0.790863
24.2361
25.0288
23.9199
62.4976
45.7472
94.5976
0.672293
19.3944
104.939
27.0196
55.8052
97.2979
32.4325
62.3095
78.1329
45.8277
24.8623
69.1971
52.3073
2.58365
7.53317
35.5764
3.35905
95.4948
0.512688
9.19897
42.1814
2.84631
2.51087
1.53919
56.8056
0.783549
27.4282
74.1292
0.670362
79.6638
55.2965
22.0605
87.959
1.1923
9.63016
18.4495
0.827333
50.7921
70.4653
0.900801
65.6666
10.6057
8.13693
15.3598
33.7197
69.7494
101.446
0.569534
124.268
0.519309
0.339894
1.58728
2.64423
15.6891
1.08422
18.6657
0.500365
358.072
57.9351
56.2435
41.9642
9.57402
12.0848
1.75579
99.1976
7.1862
381.855
49.6285
30.4333
36.1822
75.6664
29.9214
0.744397
9.81966
2.02912
20.0585
57.8739
69.6939
24.6704
5.41516
2.77318
1.86662
0.76079
30.033
17.3225
17.9973
2.11698
17.9571
0.972739
24.1359
1.20088
76.3345
3.8246
6.5145
3.98008
44.2074
8.21429
385.223
3.23808
15.4885
5.54777
2.47439
45.3592
4.26045
25.9923
6.35967
23.0623
9.44481
10.6512
1.70271
0.988194
6.8421
17.272
61.6752
11.6141
5.87259
32.0099
50.5276
5.42569
19.046
204.871
44.1285
0.689866
10.2369
17.2345
11.7872
0.667384
18.0828
14.0036
45.0065
28.2738
72.2117
9.81942
28.6462
143.573
50.3276
155.986
179.875
2.67419
5.44178
23.5578
0.530764
10.5804
11.5107
1.31915
31.7398
37.0041
222.222
265.845
36.4094
15.7962
1.11286
0.72591
54.6418
37.6369
55.8433
10.7891
2.41737
0.849482
52.0816
140.244
72.3775
47.5677
0.582694
363.083
0.598087
4.99573
133.934
7.11296
20.4694
15.3798
0.821331
85.8071
16.4298
8.91686
0.850669
20.5566
9.91318
14.9205
69.6966
0.853153
52.8645
35.7545
24.5707
38.1214
70.3671
16.4333
0.606429
2.36953
2.12861
2.27906
14.5808
2.43544
77.292
29.2789
1.03227
51.8878
85.2305
49.1815
48.4266
128.64
88.1548
11.9651
15.0867
0.792053
2.90729
4.82265
125.96
23.3263
1.5422
57.3339
0.630213
1.0269
55.3061
1.33169
47.1584
3.62139
72.8063
2.61173
57.4267
60.1378
40.8124
29.7018
40.6868
46.1316
0.716915
9.83533
35.4303
12.1901
28.4636
44.4861
114.897
2.87851
10.056
77.5135
50.4229
0.246826
17.4019
1.93373
7.32972
17.389
33.0144
69.1421
8.6508
9.52719
21.0714
4.03353
5.8315
6.20876
2.54862
5.23641
10.4701
1.32548
39.9276
74.3096
22.2931
0.96607
3.20906
68.6246
10.6698
78.6238
60.4588
54.1127
282.625
33.4805
5.09764
5.41353
299.621
1.75891
74.646
14.4656
6.69984
14.9914
24.0934
99.9272
14.414
6.74168
33.5939
62.2578
49.8732
27.3119
6.32756
4.10183
0.669209
24.5562
0.912974
20.731
48.1094
36.3039
18.6575
19.3519
1.06062
3.56426
4.91298
12.5324
16.6667
15.0897
1.19103
85.8271
15.3232
6.02228
28.1799
4.42695
58.0865
0.650783
2.41374
10.5911
12.4332
2.45501
9.55073
0.628971
16.247
0.795373
26.0716
201.829
3.98998
2.17197
45.9536
7.06676
1.0605
0.685724
75.4286
43.5897
25.009
30.233
27.5675
68.1587
45.4657
26.2416
74.7217
52.6585
77.0089
25.3093
44.7128
14.096
3.54839
21.881
18.3477
2.03011
0.861311
0.461886
1.15624
58.4445
5.77329
16.0086
86.2492
0.906729
0.892235
17.7297
20.2286
17.3721
10.914
1.52191
8.12346
11.252
4.61574
2.16784
81.7343
29.3347
0.283133
10.8528
65.5423
5.08352
0.570931
94.6365
0.917873
59.7767
0.890476
71.343
64.744
40.454
144.021
0.776594
0.60743
11.6354
2.06377
78.0673
10.5337
181.256
48.865
16.4155
3.3172
0.275729
245.999
47.4902
13.1048
4.4331
89.6567
201.531
27.7462
0.942688
0.57771
21.8015
0.837546
12.8892
16.3979
14.0917
31.7896
10.1039
2.37925
308.087
1.18959
0.683168
89.542
82.3202
62.8255
6.1224
1.71386
0.850408
3.97006
0.400613
41.2571
96.1986
230.19
8.84614
11.3037
16.7215
0.653469
0.802344
34.9884
36.8211
0.524589
60.7888
2.80954
4.8491
0.581597
0.600221
25.6186
64.0123
0.249526
5.53209
212.256
1.54579
0.589917
48.4344
77.1712
10.9365
0.858299
0.892674
44.6838
0.820276
0.7109
17.0592
1.5097
177.125
3.70509
22.8544
2.39008
6.6195
165.969
9.86826
71.6713
1.0367
103.77
0.563668
48.3528
2.15804
0.262944
5.46256
18.5388
1.02297
1.22544
32.0975
1.15549
1.04229
2.91506
1.09328
1.44214
14.0343
0.673049
0.914038
14.4181
729.784
1.32234
58.9391
2.11892
45.3734
2.23614
0.27875
10.2515
0.87736
0.464816
89.0711
25.7975
117.752
85.4604
139.374
8.85685
61.1402
53.9935
1.3955
26.32
68.6847
31.8504
99.112
209.396
75.8994
61.3488
0.896233
52.2101
29.0386
84.9877
0.498456
0.779267
0.431524
78.4684
33.9913
38.3384
0.843742
9.33784
0.534776
3.88196
0.735047
103.095
32.475
88.2719
0.924843
7.76224
163.107
7.53803
0.280904
8.47457
58.4275
113.424
30.9558
4.6518
3.13136
5.90467
37.6994
28.908
7.64353
89.2449
0.582403
43.0183
59.9522
12.9974
0.556571
0.937065
0.797912
21.6119
71.5717
0.98314
0.953488
0.588229
0.390375
1.91597
0.540668
12.9892
92.8155
26.4409
28.6291
21.13
2.35487
9.38765
26.8227
30.6925
127.94
109.812
44.757
48.8933
4.13723
0.384767
0.622269
1.29149
5.15088
4.43603
3.35989
76.0358
257.033
45.2745
183.003
0.66998
2.6792
14.976
0.940824
41.4063
0.617366
46.4135
128.676
88.3183
49.6743
45.6362
38.4139
7.68685
224.171
38.1969
15.7837
34.4109
99.2666
2.06051
31.4057
0.899041
0.405665
24.5691
3.18656
0.331364
12.61
139.915
99.387
3.4591
2.0697
0.22462
32.2317
152.359
84.8363
38.7129
4.67929
41.0334
17.3761
1.00075
0.570585
9.84318
5.50209
16.1644
1.51512
21.0557
15.2245
154.622
81.4245
14.3925
5.00345
107.881
23.6283
163.259
43.2919
59.4543
38.4662
16.235
8.8144
352.431
47.6507
28.7461
41.3002
114.893
163.89
2.5305
115.871
5.79106
16.6464
28.2968
89.1042
39.0037
36.8288
54.1364
113.781
29.0046
3.66823
6.47069
379.186
10.6635
25.9179
51.764
91.7972
0.937231
0.995722
13.8662
2.84906
74.9907
51.7256
120.851
3.46675
8.99613
0.568361
1.81824
3.69645
0.815065
30.0734
80.7638
5.06835
101.645
33.2647
9.37233
2.14415
231.317
66.8574
43.9487
126.74
86.4438
46.9727
51.9111
5.41757
48.2323
27.7604
81.0676
16.3788
5.98074
16.2679
0.564387
0.78569
0.734259
22.435
1.26381
22.0323
294.849
6.96638
0.744227
0.723661
69.8455
37.5209
21.1788
73.3074
33.7815
0.286126
77.0814
51.9977
29.3856
3.22731
41.5703
0.5585
143.713
1.04282
93.7148
9.55528
13.0966
2.3521
1.52499
0.54073
2.05792
21.1199
41.6815
82.0176
165.84
41.2594
2.34557
1.30059
37.3778
127.33
1.9534
16.3333
13.3517
68.5418
0.851545
0.706674
11.8576
55.3271
170.198
1.00163
17.4736
2.23172
12.4353
8.30787
29.8307
56.4133
78.5044
9.34407
2.90781
73.7836
11.9414
0.606222
439.901
2.21487
0.828135
4.49888
0.540711
19.242
0.534224
25.6828
0.872888
3.20207
6.40971
10.7465
179.65
34.6432
95.3715
32.8202
48.2191
69.0925
39.7262
200.229
32.115
0.558686
0.449496
5.04681
13.4403
2.78099
20.8035
176.184
48.7337
111.353
15.5697
4.37671
45.7837
0.426924
14.1527
54.6025
1.54002
245.259
2.53648
5.15511
67.1595
18.7181
6.31044
6.48729
66.3643
10.384
7.14058
0.440247
4.35042
49.5848
68.5164
1.66067
10.0959
35.0812
4.25546
39.9385
115.447
76.7943
77.6093
33.6375
1.24137
0.610822
13.5286
0.471868
3.79033
0.547968
1.76825
26.0068
0.533026
7.37057
0.557571
73.5991
44.5834
15.1617
8.01088
7.51746
14.9621
188.934
26.0819
63.5821
6.30608
0.602558
178.904
12.1009
61.7581
7.22893
99.1371
58.8899
56.588
0.737759
108.751
84.824
4.64993
5.77655
7.83374
2.63763
1.11494
73.8599
20.7009
75.1809
75.4004
25.2832
44.2396
10.655
13.8388
0.751787
0.986751
29.6091
0.453391
175.494
20.8863
171.223
6.96162
77.3627
67.7027
0.585482
1.01609
154.778
198.504
10.0454
8.37921
23.1671
61.6369
6.11852
32.1402
0.418114
5.8911
3.2025
0.388723
0.424525
1.01884
0.410347
0.476008
0.550886
0.608786
7.97349
54.1118
5.36813
3.53972
0.514699
84.8309
9.71988
24.0406
1.73113
29.9759
0.508163
37.7573
4.74973
3.34061
0.820047
11.463
41.3328
0.573572
9.99936
1.30525
0.431084
9.23306
67.833
21.5479
100.35
138.944
0.657554
11.0645
29.2767
12.3216
30.1256
40.4038
37.1757
90.5941
1.01686
2.16969
0.589869
0.208023
19.8435
12.1444
166.395
143.36
98.891
0.210459
15.497
119.639
67.1148
53.5005
56.9059
0.548076
0.793278
0.554654
30.003
11.052
18.3067
4.55332
0.459907
4.41278
4.82955
10.148
4.53998
0.622606
0.668784
27.7602
10.5566
11.21
0.574803
8.20668
72.4356
0.732934
11.4903
2.22092
5.8023
13.2211
0.759956
25.4052
0.444103
10.3752
16.9588
0.846452
38.7867
11.3484
0.807268
0.765403
62.4992
0.370879
65.1709
3.00549
1.37876
0.618944
3.30092
1.00865
0.531771
10.3717
0.583396
1.21253
1.46563
14.7607
16.508
55.6387
29.9251
9.5142
85.1883
35.0453
1.78251
0.529035
64.6287
0.928314
32.1883
89.8823
2.56174
18.0906
1.41904
76.6013
1.97387
53.0917
2.89178
67.7613
44.0979
1.00594
36.3537
2.72217
0.157202
6.88938
3.12597
30.7433
33.9782
1.45895
38.2948
0.43714
1.20489
4.20829
0.657976
0.900743
34.953
1.45631
18.4418
0.585052
114.435
3.66059
1.62135
0.599739
4.50476
49.3513
18.92
1.53769
28.6605
7.38473
14.9915
94.718
30.8748
0.415046
0.641464
48.2777
21.3884
34.7991
6.78588
47.4287
73.5199
65.1344
25.9145
56.3392
9.16477
8.96469
4.22387
1.94884
3.84339
0.620905
945.81
40.6235
0.86283
1.76837
52.9531
49.2217
8.56442
0.488332
0.91436
62.5286
3.70079
0.604795
31.6952
2.15866
30.1328
1.51081
65.1218
0.756087
0.439057
4.68864
2.62361
1.1025
31.6649
0.543184
46.0164
0.843221
76.1948
6.17439
6.20941
4.39341
24.9904
9.2544
17.8047
11.5137
4.61512
1.35433
3.03757
9.1905
11.2964
5.46577
0.593127
1.31902
20.6945
37.0314
24.7079
4.71477
13.9927
7.2806
6.59905
7.91671
7.87614
8.01094
11.2092
11.1207
30.9748
0.30352
61.2584
0.438199
407.667
0.885394
1.19096
5.07086
1.26743
0.639955
44.1233
9.30931
6.86398
0.583644
2.25675
36.3621
199.877
95.2117
3.25561
0.487834
3.83818
7.71061
54.818
18.1942
3.99246
8.62081
0.740083
58.4773
8.25091
10.0101
30.2255
6.39621
8.69576
34.9274
15.1121
1.34138
11.7722
82.0559
32.3278
4.2575
16.84
14.1376
0.419476
61.2985
218.437
38.6593
107.326
0.737869
0.455847
37.9302
9.99075
3.2274
0.244882
13.0931
51.6973
1.01894
1.1903
0.958128
0.588573
0.83463
4.1825
3.35305
13.2373
0.705718
2.38687
28.4561
113.442
56.3377
2.88252
32.8826
4.42806
73.6371
0.974186
49.0826
102.973
42.2547
51.4527
2.16354
28.3623
33.385
180.66
4.10265
3.58587
4.78712
52.4599
0.463837
1.47328
31.7717
16.306
3.6895
36.6205
11.6196
2.66818
11.8992
0.663299
0.401923
7.39946
3.53829
1.32132
1.70751
88.8607
9.36032
49.0483
43.6697
40.5475
0.415194
97.8665
1.12661
33.2602
9.07251
6.01749
5.73698
0.524087
11.0157
0.41487
3.59183
0.307862
33.0394
1.95646
13.7716
10.0847
185.822
5.03303
134.21
166.809
3.86783
8.85308
0.63495
29.1038
0.903326
55.4837
78.8357
2.378
0.302461
9.20542
26.0807
34.9464
149.267
70.4177
104.429
79.4569
22.6144
0.399258
1.07216
16.0592
4.18059
78.2731
3.39718
0.437256
0.717277
17.1901
0.311911
2.21217
2.38614
2.77827
5.24831
6.81872
5.51592
0.565846
7.60732
3.6016
34.2756
13.4367
0.598439
108.461
30.1511
58.94
18.3691
3.46587
43.6462
4.77486
0.775369
0.720093
6.81536
868.178
11.3871
38.7642
26.6284
70.2172
111.151
18.6794
4.86705
0.248881
0.521625
1.71462
0.338895
3.79163
4.96529
0.652212
5.52874
0.125496
0.464113
4.1656
1.29789
1.01681
0.863821
0.21573
3.43771
4.93272
0.526206
3.9265
4.42695
0.809219
0.824433
0.432695
0.295441
6.2062
2.09899
1.44769
0.374417
0.997166
2.11821
3.89742
0.728948
0.24689
0.269621
0.643687
0.453677
4.42453
0.517265
0.092148
1.36699
0.699712
3.21243
4.59675
10.8387
14.1986
243.913
1.21395
0.957968
34.7154
87.7321
19.7588
4.87725
0.551038
15.8624
4.5644
17.082
69.4845
518.537
38.6601
97.4255
29.9446
1.32931
1.50879
0.41924
0.920733
1.36333
32.4094
0.622232
2.8717
6.18057
0.870014
17.8189
12.201
1.93029
4.19452
14.6312
647.79
3.4555
14.8386
3.35595
14.6065
33.3538
2.81701
64.4432
40.7735
32.1597
12.3617
4.52485
23.0578
18.4798
11.4977
13.9058
1060.51
2.79433
4.32923
0.522144
44.1547
23.6951
1.70141
69.8202
50.6998
0.550727
0.428047
4.92365
4.23817
1.08628
5.22488
0.136211
0.650633
1.19865
0.180546
2.95383
3.58285
0.575583
5.94612
1.33814
1.38505
4.32648
0.864651
0.637013
0.914709
0.1916
5.1201
0.416431
39.3163
63.5003
7.37155
24.13
3.64579
13.9163
33.2555
0.430697
63.4258
19.6656
17.6426
42.2142
24.6951
2.49202
1.0155
24.4409
42.6506
11.108
200.849
88.0865
13.3322
0.198096
37.9275
30.3072
4.09902
41.2667
13.0174
60.0791
1.41524
2.70378
0.345721
63.9781
1.89716
39.8338
38.1545
0.860859
108.434
0.975708
71.306
0.847143
0.458542
1.06396
65.6259
1.67164
2.17654
0.931213
1.48581
102.549
10.7403
84.1445
19.3825
1.85231
20.29
132.881
0.88072
9.13534
8.37337
70.4133
41.1734
5.48062
0.407264
4.01696
3.27154
35.5418
10.2543
1.85274
0.180721
2.22303
5.42595
0.479873
40.5103
14.1362
0.205198
1.03143
80.4508
90.3581
11.9901
26.324
66.05
0.116635
33.6805
45.7538
34.4906
32.2383
11.9356
1.59438
46.3675
0.471945
2.65527
3.17597
47.9822
7.93288
5.2951
6.60356
27.7346
16.1837
0.794938
0.482678
2.7816
12.7802
38.7631
30.9401
169.91
48.9967
41.4348
21.4555
10.3318
28.7332
27.9128
59.8767
11.2884
29.7448
38.0193
29.7885
34.5775
104.652
107.418
2.73718
62.4138
30.4164
22.1862
15.1325
16.444
103.815
40.1956
5.6585
45.8344
21.977
110.13
3.60515
10.3519
335.954
2.001
48.3065
28.7703
0.491823
0.691545
2.45856
55.1418
0.74447
0.461412
3.30966
54.1292
67.2861
67.2989
57.1648
70.5993
74.9804
78.9643
1.52922
69.9716
58.7641
81.1909
64.2107
54.7933
61.5922
56.9182
47.8926
52.0357
18.9831
17.4897
16.2744
183.219
12.878
9.75157
3.94675
5.93626
1.39235
2.17896
10.7941
33.78
0.712944
2.93998
2.46314
43.4396
35.8548
31.1814
18.6164
3.1555
3.86055
2.05807
3.88583
14.9241
4.49605
107.944
3.45732
2.35769
0.817029
4.0257
1.94705
23.6775
2.27387
49.6779
0.861061
0.781519
8.20974
3.41791
1.47768
3.19066
1.72498
0.654472
68.7452
0.759096
38.8908
13.0515
7.18155
46.2851
95.6542
0.750307
83.4503
27.5281
15.7774
114.964
1.1355
0.491761
105.741
23.2188
97.156
0.95664
8.47086
118.715
103.784
70.443
0.48735
0.534014
0.524428
16.1779
10.328
357.704
0.609294
9.21627
12.7521
1.05049
12.8619
1.2364
8.20944
47.3375
29.7588
21.5064
337.496
76.933
0.53728
79.0083
1.46876
13.7741
21.8901
0.988358
125.794
13.5826
326.621
21.8122
13.9837
0.953892
53.9601
313.937
0.678175
101.702
41.3559
2.38201
19.2434
15.3785
0.839275
13.022
47.5653
24.9786
51.1065
200.484
171.454
4.37112
18.2252
2.92641
81.1365
7.6644
0.810323
2.09972
218.947
0.664417
3.83342
0.44155
30.702
31.8112
2.09964
5.684
5.93835
6.21096
2.4939
2.02744
41.1014
4.00697
1.52331
2.00315
0.610286
0.737134
14.1386
14.2941
1.04779
80.6564
6.00045
5.17262
1.50003
1.00769
6.93244
15.9543
2.5569
12.7534
1.88762
8.40298
18.5841
42.66
1.961
7.22922
1.43279
19.6371
1.33982
1.18108
4.01221
0.735942
0.853618
0.839928
11.9495
10.8076
5.00143
203.373
0.684225
9.39751
0.982458
1.50691
9.71012
10.7635
7.9934
1.25957
0.514299
1.06081
1.01492
1.21433
15.9347
14.15
0.832547
4.11035
0.755428
0.542381
2.0355
1.42961
12.2439
8.43738
8.05577
2.35741
0.728495
1.61173
0.807788
10.8371
2.34232
1.47228
0.447906
3.17488
0.660185
1.49683
21.4662
7.56262
46.5159
11.4638
1.92861
1.46986
1.67017
0.76694
26.5699
48.0596
18.8113
7.12333
1.81548
10.148
16.096
0.655775
13.2567
0.744059
2.42918
0.945537
221.959
28.8578
0.582395
26.3433
10.2357
1.75594
2.7603
0.717354
0.478063
32.1313
14.81
5.62655
18.5994
2.14096
2.27752
0.805532
0.484749
52.4521
25.1655
4.67448
32.5146
78.6612
12.0534
4.37981
9.36092
225.595
12.1151
0.581536
8.84533
22.084
11.6224
2.02046
48.8135
3.21788
12.4005
27.0818
3.16301
2.42625
0.738138
0.490833
25.2753
11.4301
2.69121
28.5972
79.8867
0.294567
209.328
170.529
1.98447
6.48862
13.2759
8.30512
11.7005
16.1895
2.77184
2.53068
21.2718
14.2741
2.20658
46.3722
19.4261
45.5876
2.40235
43.5257
12.0816
4.02268
3.88796
5.55059
6.45063
44.4536
10.8351
8.61237
41.9239
0.603983
8.59039
9.41163
3.02197
20.7169
2.25031
2.28307
0.744326
0.561912
22.7104
45.6705
2.41915
27.9878
62.5275
55.4242
78.1073
11.8002
3.54547
7.04347
3.55373
0.336326
179.668
2.15043
45.9971
52.5338
4.80993
11.5737
106.84
2.58881
0.54385
18.1947
21.465
11.0735
17.1694
63.681
44.6536
3.67419
46.9308
34.9058
10.8152
0.510428
5.85283
9.79583
8.0023
8.19367
1.29816
1.88065
3.27118
2.6052
0.469777
0.473842
89.857
82.1218
9.10116
2.1094
98.8996
71.0472
23.7726
1.4203
61.3329
10.6423
2.93457
7.38934
0.353717
187.87
2.24957
1.81927
5.3118
115.126
70.4028
92.2173
4.27739
79.652
71.9169
27.039
18.7068
18.9232
13.6987
11.372
1.01231
0.708375
1.15962
0.72854
46.7394
26.5884
4.15933
0.661414
16.4886
52.9884
26.417
89.8729
65.2337
11.6031
0.755561
42.7825
0.921788
1.31454
122.345
59.6263
86.0456
103.848
42.5174
7.59862
6.7444
2.6273
2.77866
4.73153
0.822257
2.27913
0.470553
0.481533
0.927523
0.790182
1.01658
58.2951
74.8935
12.2668
50.4636
0.945553
16.0738
0.938945
3.55922
63.4007
19.1596
54.0853
9.29274
4.30921
6.15331
71.1402
13.7279
11.3269
1.60772
66.3447
1.21436
0.68919
3.37897
33.1829
66.8245
9.91158
3.00922
13.1597
108.061
3.58626
2.362
0.869104
0.332847
4.94225
4.00671
71.4039
3.89816
0.917749
0.462421
25.0053
2.11413
5.88
62.0174
2.28149
160.809
0.772263
0.669346
1.99474
35.534
167.766
3.19433
1.13299
0.599523
88.2937
53.179
2.35656
4.04984
3.94824
1.06719
18.5815
4.75136
0.655383
12.0017
7.26502
1.27751
3.94123
0.819429
3.97342
10.8125
0.688138
8.2963
1.00349
4.13568
21.6921
8.33235
0.711341
28.913
28.3787
4.39046
11.3448
30.0199
0.818399
87.002
9.38924
9.92252
42.8828
2.97233
123.021
28.1154
57.0999
1.13207
80.832
2.06246
20.1727
3.52707
0.433021
55.2269
1.63631
23.5399
5.41766
26.3636
14.1489
5.3471
59.6146
7.09688
67.7012
13.5714
0.775516
11.5637
3.64887
0.310243
0.482667
16.8169
138.495
29.3222
4.01933
0.503587
92.9026
11.4979
197.998
108.103
34.0429
61.6089
23.9117
0.602602
31.5061
5.88629
0.956493
51.86
68.9493
3.87393
16.0613
33.2102
3.88725
75.1543
3.97751
21.0762
62.4574
30.3146
3.89378
1.35891
14.9152
90.5154
4.33174
22.0472
84.1324
82.5782
21.4779
2.57153
1.21761
34.1947
32.3779
9.16048
30.0503
35.2339
32.2807
4.44375
23.4886
4.27453
109.87
11.0864
3.71401
0.636202
0.439775
30.5691
146.061
37.0794
74.6712
66.4507
328.398
2.02816
11.5954
2.85946
66.8434
0.972966
180.14
37.7112
1.37838
0.539172
8.31846
2.73591
3.32505
75.8864
63.862
71.4601
52.1264
165.463
54.793
1.9889
17.649
90.395
88.8545
7.91652
575.319
5.10819
4.16663
8.03665
87.6141
11.1042
22.3738
50.5284
3.0421
5.99118
39.2405
15.3725
4.48022
6.64635
0.510006
27.7404
0.683637
66.4023
0.680145
51.931
2.3304
25.466
16.6287
32.1897
49.4109
58.3342
0.64903
122.453
0.748193
0.672586
2.47752
0.287084
1.30581
78.6634
24.225
111.6
5.63646
81.738
122.527
2.83739
24.5913
0.741126
3.50556
2.47195
0.295028
67.6685
50.6979
0.686158
0.690782
41.4444
4.77863
16.6325
10.7909
2.16361
15.0689
5.63221
100.597
3.25751
32.9118
4.84211
8.9009
12.7837
103.72
2.40968
70.7206
66.7902
2.4323
4.03347
35.0394
1.99855
0.774134
109.962
2.2694
1.93936
179.526
11.0802
89.0783
2.11153
31.0124
60.7258
0.558012
14.0681
18.6015
62.4282
66.614
0.930023
21.1386
50.3357
25.1625
13.7245
9.80716
8.63
3.73414
0.247353
0.422505
52.614
28.5697
3.44347
0.807635
89.6962
9.21493
53.5837
40.9106
4.46862
5.26454
72.423
87.3376
10.8738
0.626561
0.792637
30.7728
25.8599
33.492
2.04377
1.77209
48.0333
87.7091
4.39127
35.8108
116.143
64.8105
33.6076
69.4716
0.215803
9.71291
13.5412
3.00092
0.265414
0.458474
31.0177
3.43589
4.6942
55.8853
6.99822
15.0256
5.49386
1.35543
18.4122
267.639
6.75934
21.059
2.11408
15.1299
61.4143
16.3377
5.28293
4.06235
0.243257
0.490625
42.6036
14.4413
32.9283
79.9143
15.2272
29.4483
183.362
44.9936
40.8002
0.204091
56.632
0.240801
1.42936
48.886
26.5828
14.0126
1.96719
2.57199
12.5587
34.3658
0.48817
1.00799
24.8731
96.8033
0.880372
11.0735
6.04016
82.4336
230.867
140.807
5.93502
13.7341
64.4174
108.057
6.436
35.1889
5.21915
9.54737
22.6831
62.9899
4.62074
26.9466
0.618003
21.6689
0.322711
10.2187
12.1275
3.17047
35.6148
0.222798
1.15146
101.008
32.9288
0.661302
2.65527
37.842
41.6042
52.2073
27.9483
0.633984
1.70983
0.279516
0.427059
2.6389
3.56618
109.467
0.45141
26.5726
42.681
2.16285
6.2769
6.43683
9.00142
94.0373
2.93584
0.212567
0.418667
0.823617
28.9532
3.13161
6.00443
0.951699
8.99492
0.628125
0.51547
1.59341
8.98511
5.91765
22.6206
19.6406
1.55441
6.94303
3.02825
35.8776
1.79708
0.218939
0.632808
1.92529
3.95373
23.9544
6.67707
27.9598
71.5763
42.905
60.4608
2.71486
6.35583
4.28123
239.016
8.48747
0.925777
3.61411
0.205952
0.455612
5.00823
0.591799
86.7953
198.3
14.0135
0.430915
0.626731
0.885897
0.119654
23.0043
2.61467
54.4226
5.34312
31.2014
66.9168
0.18608
1.81953
4.02155
103.962
1.13078
55.2004
2.84071
36.2499
0.648507
6.82237
0.776657
2.67504
16.2311
23.8351
27.2589
3.86783
7.03096
1.01565
1.08013
1.72904
6.62785
61.6333
26.3869
8.61949
29.0478
16.5036
7.66994
3.43891
50.9944
0.860914
33.1557
1.741
40.8753
47.2426
103.805
12.5489
0.671577
2.01059
0.216707
0.81219
2.92801
12.4453
2.79206
1.07326
86.548
2.30624
2.19106
45.5206
7.81979
29.853
13.7303
11.2571
48.3326
0.671037
1.23104
8.66737
7.23709
11.8069
1.07801
4.93613
15.1975
1.20443
1.63244
13.7104
6.39457
3.42486
0.668731
0.539141
0.779754
0.522279
1.25171
0.205352
1.28908
1.03777
8.69585
9.01389
0.645592
0.755552
36.364
23.6461
13.6843
21.855
0.94788
12.6885
1.2193
70.4035
46.2669
32.9864
349.232
19.5595
79.5252
84.4652
116.203
34.4975
0.275249
0.433671
2.24841
0.352455
0.451312
7.65137
19.0368
82.0535
0.20547
0.192982
1.48669
8.64188
12.6759
66.8354
1.83154
0.201586
56.9153
13.0145
19.7839
20.2471
0.970206
2.04294
22.7591
19.518
111.825
0.417476
14.5049
111.721
11.8657
34.5925
34.0337
0.277491
0.538826
5.63047
0.81627
0.738998
2.58705
0.6447
2.97684
5.34818
3.65883
0.891305
1.77767
2.35802
209.801
54.0296
0.458831
4.09712
0.731248
5.27208
12.2442
1.20263
6.94406
34.1829
5.57505
71.2899
5.83104
34.5197
100.975
252.784
58.3629
28.642
3.9584
3.54245
28.3912
5.91508
0.67241
0.2036
104.789
5.94554
80.9581
0.430522
3.79963
11.9802
157.498
36.3622
0.642802
0.613039
33.1403
5.84948
11.7116
3.15869
2.13026
8.71222
107.601
0.663101
37.9573
3.10714
0.224221
0.457776
0.337218
4.81894
0.194448
53.9859
6.17199
42.9663
107.552
11.481
2.91887
222.832
8.11054
5.41557
155.448
4.3965
13.7231
209.933
6.24135
125.792
3.47562
0.233336
0.473286
45.1581
4.24358
2.46568
1.1521
0.751651
5.24773
13.2003
92.6482
27.7469
18.1359
14.7594
83.6262
27.9152
26.7043
24.0785
4.44741
13.9302
95.2409
11.9131
180.031
6.96772
0.580712
0.569284
2.1922
34.6062
2.65095
48.4241
27.3341
12.9675
2.64397
8.7323
17.1016
1.73981
0.498109
2.53427
0.466827
4.51095
20.7757
0.88164
12.1773
8.10948
15.4022
28.3615
76.2183
25.1462
287.247
16.0645
0.659001
2.37036
0.553422
47.1749
0.589142
5.71322
1.61651
2.54068
0.77493
74.3805
48.8698
5.89455
5.76012
19.8949
48.6783
0.80713
0.723089
2.75288
23.8899
297.469
11.4353
11.5528
32.1466
56.3461
18.3112
9.62869
5.32688
23.2618
69.6669
8.87028
2.33797
6.50068
0.982038
26.2894
0.679179
26.2603
292.734
24.0031
1.13986
34.6098
1.24251
13.5997
16.3098
1.28641
30.2336
1.55805
0.430769
0.404831
19.985
77.949
15.554
7.88734
1.92167
0.608096
2.88368
1.54599
0.281127
0.448369
1.09834
28.1312
65.3869
27.6995
17.3093
13.8478
155.474
58.7519
10.2225
0.593934
1.27425
4.30108
133.769
111.394
37.9176
1.06312
0.221975
76.7433
4.50192
17.4169
20.9413
133.364
0.433363
109.537
101.639
25.1007
7.59952
72.3478
373.555
3.05392
31.2433
0.248754
1.05062
66.1916
91.1537
1.45532
0.422532
6.52717
3.09824
1.15702
75.8634
4.56131
10.7872
272.117
27.8174
0.690033
59.2591
29.41
12.8905
106.839
0.26231
19.615
0.42687
16.6772
61.6801
1.63921
18.6973
26.4688
7.15134
115.426
0.316169
1.10712
40.0802
169.627
50.7934
66.4915
22.2175
317.486
6.82848
27.2648
54.6019
5.26767
112.854
21.8212
137.411
21.971
8.82175
322.012
47.18
20.2881
4.72165
0.539264
0.562024
38.7086
0.550143
4.36847
1.97739
28.1515
30.9278
1.54693
0.230177
0.93986
13.7425
88.8291
1.87064
0.251467
13.0553
41.7984
29.2387
18.39
1.30971
121.019
47.2941
1.03146
30.668
69.8155
0.14635
48.0541
26.1703
65.7055
33.6043
34.7346
16.097
7.45692
1.89549
0.56251
3.57064
0.729095
7.29455
9.88121
78.1654
11.5799
16.9473
123.655
53.0757
41.2172
3.45599
12.387
29.2432
0.526461
33.4177
3.76814
65.417
118.356
81.1432
8.40829
88.405
0.529917
39.2859
42.7645
10.5658
0.43994
1.12925
87.1638
29.2654
3.1688
74.7644
82.9373
7.58557
47.0963
31.3962
77.3707
167.536
65.5616
2.56826
62.6819
0.225265
3.1207
0.39273
54.7971
19.0165
75.2166
1.01702
0.310355
95.3068
1.60195
0.836528
4.43806
94.7659
37.5573
95.4544
140.019
48.9882
0.747939
0.927296
44.5743
16.1089
175.859
119.468
164.966
6.29046
1.91807
111.521
82.0084
0.439895
0.369397
2.91028
0.583156
1.64153
5.79501
132.521
22.4415
2.42728
31.6715
12.8491
8.25145
57.3333
103.936
60.0113
9.06145
32.8027
0.666208
33.7386
22.116
13.0713
117.323
107.204
34.1554
71.6037
426.323
303.868
1.64376
0.439412
144.511
77.204
0.726494
9.2283
0.444989
0.886057
45.5955
100.426
55.4125
15.2447
2.25819
76.7721
0.45308
2.52955
0.408351
2.5688
0.266506
69.0522
143.681
36.5695
7.46253
102.894
0.231161
0.911186
101.493
39.8649
49.2148
32.299
18.5231
106.741
66.338
0.64304
8.16882
14.7301
17.9139
4.34781
3.89972
81.3897
32.5644
33.1414
15.7225
44.1711
20.7061
24.3991
0.194148
0.64055
50.432
1.05021
13.9624
567.951
10.3419
79.3923
61.3668
0.553137
0.230083
0.398256
3.13541
59.7967
63.2917
61.2009
1.69963
33.1507
5.86216
8.11379
10.1932
11.5119
6.57795
7.07054
3.99703
2.70057
0.405755
0.275747
0.958734
103.682
42.6146
2.62661
19.4847
559.704
99.438
97.5784
39.3793
0.511688
39.0259
6.96059
1.06296
50.2598
141.708
0.644495
0.573188
0.542851
36.5133
13.4071
85.3548
2.17166
0.652759
41.4178
15.345
0.449324
1.17671
0.342705
1.42469
8.56
101.024
11.2709
6.09894
80.379
50.5083
61.0136
65.345
11.5716
61.1373
0.64495
30.4758
41.1241
16.4499
27.7369
0.400413
0.485698
43.5844
1.47131
74.6109
2.9541
84.3439
31.2001
37.1223
1.19823
40.4407
1.23632
46.6315
35.1112
27.8292
31.8804
9.76661
48.9618
28.118
0.7018
26.6975
35.0203
0.608959
2.93914
0.634609
1.80558
2.89897
17.1987
18.3324
0.959202
7.70491
185.402
0.309436
12.5743
0.493506
3.00547
131.186
150.427
2.50238
0.391888
0.483754
5.87964
0.148456
0.6208
2.83747
0.41123
0.424608
3.19642
0.736805
46.5877
2.7849
7.12378
28.0552
45.2471
5.36005
30.5404
5.77548
5.80744
20.3218
66.5087
26.2085
0.463431
20.2382
117.538
62.2637
40.6278
9.43114
0.874663
0.17923
0.80697
43.0238
115.959
25.4185
4.38862
11.5179
9.28727
3.35784
7.2977
18.2028
48.0186
0.64208
56.9616
0.354001
8.64027
96.053
40.0385
83.9535
34.705
6.87655
92.373
40.1648
52.1967
7.26815
1.82918
4.55577
3.90507
7.6095
15.5622
1.07222
19.2626
37.9015
114.179
19.4284
22.3211
2.14489
0.760789
2.06682
76.732
28.0133
28.3874
3.94368
82.5192
10.6166
16.4506
35.0617
5.16659
2.49239
15.0133
97.2056
78.3394
36.8862
47.6766
50.9137
34.445
2.09351
1.163
0.389952
6.18302
1.57945
799.145
83.7448
3.42717
86.6369
38.4469
6.98794
0.324434
12.2145
1.29357
2.27753
0.691435
42.3301
8.61379
39.5908
47.5388
31.2659
0.279431
1.34533
1.71751
0.87877
28.6746
47.2587
750.38
17.3307
11.0461
0.267135
2.8353
100.426
58.5787
12.2966
32.0859
1.37901
12.3504
5.66465
0.981931
18.1745
201.482
0.469774
4.19965
0.310507
3.68692
19.0135
2.03652
73.7484
2.55804
386.824
15.6194
58.0202
104.892
0.456132
1.06913
13.9519
15.265
0.895167
5.19125
4.88527
37.8644
81.3711
66.7485
2.66127
4.68251
113.606
2.26954
13.0939
15.1069
16.6713
60.2251
86.029
0.354045
3.32012
0.444097
41.6154
12.8045
226.127
37.4769
1.19724
46.2753
104.125
67.8408
52.0835
2.20265
72.9652
40.5822
24.7618
1.11664
0.406996
32.7896
1.5943
11.2914
15.9588
1.61879
64.8757
467.452
332.394
6.9395
79.8975
0.996692
9.51271
14.2494
0.854235
71.7408
27.646
0.253455
0.582446
0.650089
1.08895
13.3973
34.4365
83.7255
23.2155
1.08278
343.991
2.33145
54.5939
97.1476
84.6915
28.0383
7.65213
6.78473
81.8287
0.725493
0.968534
1.99091
0.231405
2.22018
23.9945
59.3011
0.336145
19.8868
0.447501
0.889708
12.2778
24.6987
2.12917
2.1418
81.9892
37.9835
25.155
10.4175
0.732363
0.480044
13.641
234.38
2.75593
433.968
0.260367
0.956102
46.3201
38.5063
1.21874
11.7936
158.407
2.48562
19.2472
39.355
25.7827
71.1931
69.6566
10.8181
6.17128
1.27544
13.3715
83.4657
16.1179
115.314
15.6175
18.1772
1.09193
24.3127
14.1957
20.6437
75.533
0.690573
15.8603
7.93733
3.68135
0.543401
34.9192
0.315865
1.69366
13.1729
14.247
18.1405
23.149
66.6799
107.748
91.4786
56.7527
0.920756
0.864531
2.20543
0.438687
8.10877
14.8369
2.05495
3.04355
10.6771
73.8414
2.82324
2.10318
2.01035
12.298
80.7617
0.282652
6.36905
3.8528
0.377586
58.4251
34.1215
0.630592
1.39339
54.5656
98.331
25.7319
0.664207
0.767429
0.940253
0.473817
5.047
2.4932
0.977801
24.9784
1.90932
0.574598
36.1484
63.6358
0.512386
16.3592
0.548623
55.9194
3.30352
80.1363
1.26203
0.231328
5.55866
62.1571
77.8395
98.1291
32.1587
44.2452
24.7697
2.23223
43.7848
21.9601
1.71249
0.742324
6.05167
0.210387
176.59
8.5592
23.4896
1.02233
40.339
40.9849
65.3499
11.2314
683.27
13.2898
1.35887
4.69349
0.423138
2.87861
0.676311
1.12052
5.47341
0.638073
2.2237
1.12971
0.63013
4.01651
0.662007
5.55527
21.869
52.766
133.718
2.1553
1.26692
0.527973
1.24434
59.6581
42.2238
21.2874
6.0137
94.7555
121.829
106.692
5.07885
10.8794
0.772547
0.593991
1.11174
20.9274
9.16106
33.6573
3.69944
106.811
229.395
134.445
0.46492
43.1154
30.1932
43.3113
0.636273
1.34529
2.23966
34.6523
2.15039
55.0851
48.1929
0.839934
0.170234
95.8681