/*--------------------------------*- C++ -*----------------------------------*\
| =========                 |                                                 |
| \\      /  F ield         | OpenFOAM: The Open Source CFD Toolbox           |
|  \\    /   O peration     | Version:  v1912                                 |
|   \\  /    A nd           | Website:  www.openfoam.com                      |
|    \\/     M anipulation  |                                                 |
\*---------------------------------------------------------------------------*/
FoamFile
{
    version     2.0;
    format      ascii;
    class       volScalarField;
    location    "0.53";
    object      nut;
}
// * * * * * * * * * * * * * * * * * * * * * * * * * * * * * * * * * * * * * //

dimensions      [0 2 -1 0 0 0 0];


internalField   nonuniform List<scalar> 
5794
(
0.00102113
0.000601872
0.00244889
0.0052786
0.0143092
0.000955131
0.00146426
0.00108424
0.00221905
0.00208614
0.00201723
0.00139749
0.00162744
0.00727422
0.00105162
0.000739046
0.00913777
0.00688127
0.000619638
0.000499703
0.00151247
0.000800923
0.00163888
0.000992846
0.00189195
0.00387532
0.0123852
0.00803572
0.00371341
0.000675071
0.00151367
0.00129997
0.00236883
0.0013311
0.00406743
0.00373454
0.00078636
0.00197975
0.0019075
0.004781
0.00621651
0.00280782
0.000746891
0.000691799
0.000903839
0.00223105
0.00176758
0.00108189
0.00161002
0.000751279
0.000208936
0.00292109
0.000972939
0.00219072
0.000139587
0.00220868
0.00149435
0.0012544
0.000743261
0.00498222
0.00134587
0.000550889
0.00178924
0.00252065
0.0056398
0.000983949
0.00372631
0.000671769
0.00551751
0.00065294
0.00609747
0.00383917
0.0157756
0.00152288
0.00581464
0.00325365
0.000393542
0.00347957
0.000656401
0.000182094
0.000707541
0.000804812
0.00749378
0.00182551
0.00191333
0.000864179
0.000820025
0.00100341
0.00144592
0.0023755
0.00494462
0.00225132
0.00325604
0.00515436
0.00262055
0.00795534
0.00390521
0.00307305
0.00210148
0.00144991
0.00145591
0.000841168
0.000767379
0.00944906
0.00184524
0.0135754
0.000539892
0.00416562
0.00506216
0.000595463
0.00100623
0.00107898
0.0014166
0.00151895
0.00235203
0.00385167
0.00121816
0.00709233
0.00125055
0.00100802
0.00967536
0.00027555
0.00100263
0.0063787
0.00127282
0.00369676
0.00309385
0.00084142
0.00330197
0.00386575
0.00160834
0.00218599
0.00238288
0.00331555
0.0120482
0.0012039
0.0030684
0.000584151
0.00110075
0.00165723
0.00159207
0.00717804
0.0013708
0.00765297
0.00143738
0.013298
0.0021405
0.00158173
0.0138706
0.00320269
0.000728151
0.00197017
0.013234
0.000859819
0.0140906
0.00178634
0.00171492
0.00153302
0.00208541
0.00181531
0.000468682
0.00116894
0.000564151
0.00143557
0.00191683
0.0018369
0.0012859
0.000807652
0.000713317
0.00040337
0.000358016
0.00192672
0.00101408
0.0010107
0.000491195
0.00125287
0.000325376
0.00136946
0.000491855
0.00187499
0.000723298
0.000843171
0.000667414
0.00148247
0.000879291
0.00400016
0.000783695
0.00109284
0.000807448
0.000604743
0.00164092
0.0009512
0.00166529
0.00104032
0.00112822
0.000933278
0.000966187
0.000530726
0.000550587
0.00101158
0.00109356
0.00206775
0.00116805
0.000800299
0.00169786
0.00193524
0.000788139
0.00582818
0.0125848
0.00188525
0.000602326
0.000857557
0.00493952
0.00405905
0.0018083
0.00353917
0.00392691
0.00303895
0.00352912
0.00544413
0.000856508
0.00240567
0.00812124
0.00362957
0.00247509
0.00624856
0.000460618
0.00414315
0.00430223
0.00129527
0.00146336
0.00200376
0.00171107
0.00360951
0.00338756
0.00971747
0.0126258
0.00217835
0.00115722
0.00152253
0.00100291
0.0076555
0.00221371
0.00170914
0.00126456
0.00128686
0.000977883
0.0125843
0.00112252
0.00089551
0.000762174
0.00106232
0.0124332
0.000561721
0.000815632
0.0189829
0.000918562
0.00092971
0.00376004
0.00121473
0.0027078
0.00465256
0.00367664
0.000507389
0.00114563
0.00108022
0.00487086
0.00375142
0.000945178
0.00280058
0.00223295
0.00153697
0.00618451
0.00493123
0.000868879
0.000921064
0.00219342
0.00153942
0.00277735
0.00161439
0.000824188
0.00320737
0.00485432
0.00276139
0.00329602
0.00504875
0.00273869
0.00309926
0.00518503
0.00947983
0.00274017
0.00309041
0.00206049
0.0018016
0.000772897
0.00320156
0.00243308
0.0026716
0.00223881
0.000669146
0.000464826
0.00100624
0.000573612
0.00304227
0.00059585
0.00316213
0.00287696
0.00444545
0.0024281
0.00209185
0.00159227
0.00275019
0.00215262
0.00132549
0.000783104
0.000907196
0.00514385
0.00940746
0.00454049
0.0039007
0.00140378
0.001599
0.00569654
0.0148363
0.000673279
0.00229911
0.00152069
0.00121295
0.00141997
0.00184835
0.0017749
0.000822893
0.00101084
0.00146598
0.000904944
0.000942826
0.000801425
0.000533832
0.000666712
0.000898163
0.000411088
0.00121309
0.002297
0.00105868
0.000386687
0.000591798
0.00164065
0.000961195
0.00213486
0.00192997
0.00193824
0.00227867
0.00143545
0.000809762
0.000793066
0.00274587
0.000507527
0.00184412
0.00122482
0.000987145
0.00583833
0.00295858
0.00309495
0.00352859
0.00180104
0.00822612
0.0017065
0.00148952
0.00126392
0.00073293
0.0025411
0.000447344
0.00969947
0.00139085
0.0066636
0.0029675
0.00160034
0.00117528
0.00155908
0.00150121
0.00476071
0.00280337
0.000750401
0.00307007
0.00376556
0.00110562
0.00620102
0.00486655
0.00328135
0.00137445
0.000762575
0.0017546
0.000590554
0.0013294
0.000919984
0.0009176
0.000558708
0.000886076
0.000695789
0.00226062
0.00122912
0.00221349
0.0124245
0.000614453
0.000611507
0.00272997
0.000693671
0.00121867
0.000716924
0.00403314
0.00328118
0.00223306
0.0043828
0.00116271
0.00169174
0.00149285
0.00110567
0.00555884
0.00191832
0.00344393
0.00196238
0.0028312
0.00538315
0.00232942
0.00130336
0.00124075
0.000566678
0.0016414
0.000562142
0.00106036
0.00292611
0.000784483
0.00621132
0.00213189
0.000814085
0.000852227
0.0012663
0.00128101
0.00200725
0.00235323
0.000755817
0.000805672
0.00116149
0.000917196
0.00212265
0.00438264
0.00249838
0.000534456
0.000912179
0.00269693
0.000812392
0.00055407
0.00208166
0.000904542
0.00475286
0.000449686
0.00448144
0.00772642
0.00358059
0.00696395
0.000938579
0.00060296
0.000653563
0.00178577
0.00156324
0.00389488
0.00938808
0.0143818
0.00524823
0.000752289
0.000144046
0.0130746
0.00444767
0.00745749
0.00294203
0.00307782
0.0151606
0.00936595
0.00131889
0.00062236
0.000714005
0.000923115
0.00225358
0.00618001
0.00545886
0.00342358
0.000860862
0.00186037
0.0029358
0.000877303
0.000757551
0.00495074
0.00456848
0.0135468
0.000710579
0.00154192
0.000610057
0.00192613
0.000401759
0.00250261
0.0177467
0.0159165
0.000728127
0.00238749
0.00742707
0.000563114
0.00110382
0.0011813
0.00483831
0.00112694
0.00796853
0.00292403
0.00528273
0.000483032
0.000901533
0.00233928
0.00356137
0.000420912
0.000805744
0.0128701
0.00163891
0.000696237
0.0151263
0.0071271
0.00441602
0.000976093
0.0010103
0.00209178
0.000556527
0.000708829
0.000917133
0.000390488
0.0087213
0.001852
0.00870333
0.00203533
0.000785675
0.00312421
0.00385569
0.00226386
0.000922937
0.00241828
0.000456334
0.00497995
0.00118156
0.000660893
0.000755941
0.00786233
0.00126952
0.00091965
0.00959577
0.00148674
0.000357419
0.000638355
0.000971865
0.00147574
0.000888878
0.000645539
0.000578233
0.00729395
0.0192708
0.000523792
0.00343807
0.00241011
0.00526842
0.00161642
0.00078056
0.0028733
0.000347653
0.000938952
0.0016885
0.00275628
0.00142863
0.00127412
0.00150567
0.000857356
0.0160389
0.0028694
0.00296407
0.00376693
0.00462624
0.00286202
0.00782497
0.00680331
0.00317826
0.00145188
0.00163321
0.00433022
0.0027827
0.00482294
0.00112843
0.0009474
0.000648145
0.00507553
0.00286552
0.00312682
0.00142194
0.000831233
0.000658727
0.00231151
0.0011672
0.0018331
0.00291279
0.00529062
0.000562458
0.00273524
0.00350013
0.000855131
0.000163472
0.00451004
0.0142936
0.0183639
0.0084499
0.000717613
0.000746133
0.00102201
0.00230919
0.0010303
0.000872352
0.00210313
0.000295733
0.00337936
0.00416387
0.00563778
0.000444896
0.000980831
0.00159154
0.0106618
0.00611729
0.00134929
0.00151801
0.000899063
0.000262609
0.00165348
0.000718038
0.00335757
0.00388962
0.000809733
0.00523672
0.00801499
0.000771099
0.000870866
0.00398729
0.00291227
0.00295514
0.00507818
0.00267548
0.00101471
0.00270807
0.000791061
0.000381222
0.000748586
0.00245152
0.000687245
0.000605968
0.00309903
0.0145904
0.00321672
0.00207304
0.00210543
0.00284417
0.00138486
0.000892887
0.000839388
0.000638199
0.00314269
0.00542323
0.00527023
0.00272097
0.002742
0.00216579
0.000860473
0.0119604
0.00145983
0.00157426
0.00305109
0.00558626
0.00213244
0.00858128
0.00153056
0.000788971
0.00509774
0.00215591
0.000623247
0.00670727
0.00290262
0.00361886
0.00152778
0.00268228
0.000657203
0.00428651
0.00780029
0.00377634
0.00338349
0.00175697
0.00189354
0.00640221
0.000366477
0.000453002
0.000769728
0.000732689
0.000813238
0.000379716
0.000998552
0.00764113
0.0032515
0.0024032
0.00495124
0.00276206
0.00690525
0.00118351
0.00750221
0.00371994
0.00278839
0.00439832
0.000775501
0.000733328
0.0169364
0.00318972
0.0067179
0.00771924
0.00409206
0.0032275
0.00186088
0.0185055
0.000818292
0.000833168
0.000819326
0.00809309
0.000960395
0.00289994
0.00303259
0.00610304
0.00230737
0.00174521
0.00349473
0.00577604
0.00439822
0.00224874
0.00324982
0.004536
0.000300325
0.000319206
0.00055183
0.000430196
0.00467451
0.00291912
0.00456532
0.000762121
0.000803109
0.000607381
0.00061388
0.0012013
0.000483563
0.00279044
0.00489804
0.000756786
0.00563603
0.00277577
0.000712821
0.00162587
0.0174885
0.00471329
0.00320003
0.00563919
0.00570567
0.00303604
0.00340773
0.000752215
0.00396977
0.00264443
0.00455149
0.00887453
0.00294464
0.00898392
0.000913736
0.000972004
0.00134654
0.00977859
0.00111087
0.00658374
0.015713
0.00068056
0.000918203
0.000610252
0.00486172
0.00301553
0.006797
0.00498661
0.00292417
0.00105564
0.00572427
0.00671484
0.00230178
0.000927271
0.00312969
0.000619455
0.00293054
0.000937418
0.00370602
0.000861901
0.0056845
0.00327459
0.00120865
0.000679284
0.00210071
0.00654075
0.00561662
0.00316862
0.00839586
0.00355926
0.00146653
0.00071429
0.00111669
0.00944184
0.00170475
0.00262907
0.00298562
0.00814692
0.0006606
0.000855555
0.000804473
0.0014567
0.012095
0.00133098
0.000769261
0.0026751
0.00706889
0.00229443
0.00288073
0.00462995
0.00473549
0.00077149
0.00143747
0.00974747
0.00662715
0.00233271
0.0179943
0.000412022
0.000258948
0.000456879
0.000709342
0.0045152
0.00141764
0.000875341
0.00101649
0.00155594
0.000708282
0.000839464
0.0183104
0.00296332
0.00549937
0.00151667
0.00244653
0.00363005
0.00303947
0.0123103
0.00367324
0.00081705
0.000819458
0.000754754
0.00699159
0.000769476
0.00789864
0.00741249
0.00393726
0.00435349
0.00386486
0.00109724
0.00967076
0.00124458
0.000773276
0.00319507
0.00126688
0.0041836
0.00290546
0.0024236
0.00328075
0.000837081
0.00075344
0.000593816
0.00477237
0.00382172
0.000910315
0.000880011
0.0020072
0.00113873
0.0039615
0.000549711
0.00079946
0.00277919
0.00556265
0.00319529
0.00570151
0.00382316
0.00585905
0.0134577
0.000946181
0.000866869
0.00759174
0.00112873
0.00318333
0.000723903
0.00156693
0.0021529
0.000465483
0.000790453
0.00130961
0.00545105
0.00276123
0.00570344
0.000843833
0.00294
0.00552994
0.0138374
0.00214909
0.00309996
0.000785089
0.00117961
0.0130883
0.00107583
0.00354506
0.000839568
0.00128703
0.00106607
0.00148922
0.000274553
0.00187393
0.00123069
0.0005577
0.000535105
0.000594078
0.000337867
0.000250727
0.000663825
0.00871058
0.0131691
0.00318676
0.00195601
0.00271691
0.00534633
0.000772001
0.000707863
0.00114397
0.0117978
0.000927118
0.0180437
0.00633153
0.00237526
0.000785963
0.00950396
0.00178257
0.00063364
0.000919765
0.018999
0.00538303
0.000834306
0.000704734
0.000878784
0.00340707
0.00190759
0.013104
0.000734651
0.000601656
0.000520124
0.000677564
0.000582087
0.00182294
0.000828359
0.0010637
0.000716861
0.0009032
0.000789637
0.00925595
0.000782823
0.00321324
0.00126527
0.00173778
0.000831669
0.00113321
0.00195702
0.00137372
0.000930914
0.000928508
0.000757427
0.00465869
0.00076348
0.00129894
0.00472357
0.000851317
0.000833759
0.00203296
0.000810371
0.000830341
0.00220485
0.000777356
0.0181582
0.00209209
0.000660735
0.000825586
0.000875074
0.00664611
0.00102554
0.00278908
0.00261501
0.00508719
0.000980023
0.000662131
0.00127143
0.000592977
0.000842473
0.00125323
0.00178294
0.00162987
0.00143096
0.000181869
0.00166575
0.00136875
0.0011091
0.00106597
0.001735
0.000528193
0.000915452
0.000570147
0.000989297
0.000747048
0.00743799
0.000797079
0.000860684
0.000790497
0.000783566
0.000736516
0.000581437
0.000926697
0.00146894
0.0124501
0.00529415
0.00418645
0.000676247
0.000826938
0.0034569
0.000674464
0.00607429
0.00122373
0.00330557
0.00517715
0.000698706
0.00699755
0.000530725
0.000842299
0.00627051
0.000832503
0.0136611
0.000734953
0.0007793
0.00233066
0.0056123
0.000778528
0.00320197
0.00080051
0.00160923
0.000638183
0.000793123
0.00208043
0.00107355
0.000830311
0.000832688
0.00218956
0.000944556
0.00200616
0.00167468
0.00409635
0.00100756
0.00072546
0.00519071
0.00283608
0.0024538
0.000656529
0.00522746
0.00251497
0.0069459
0.0110074
0.00273909
0.0010875
0.000406064
0.0167824
0.00256452
0.00432051
0.00305591
0.013044
0.00239935
0.000313193
0.00109514
0.000493648
0.000222785
0.00344616
0.00052173
0.00112959
0.00110398
0.000366287
0.00108362
0.000232729
0.000334306
0.000753238
0.000598448
0.00116631
0.00413749
0.00339929
0.00603113
0.000355958
0.00136035
0.00322118
0.00174493
0.000683453
0.000790084
0.00795132
0.000818916
0.00339202
0.0010293
0.000744153
0.000936466
0.0171612
0.00864989
0.000674697
0.00248447
0.00525238
0.00683858
0.0128348
0.00074306
0.00520594
0.0048527
0.00322992
0.000992334
0.00807432
0.000726945
0.000726317
0.00281623
0.000943279
0.00176843
0.000737817
0.0134924
0.00107321
0.000646694
0.00360279
0.0047245
0.00481663
0.000764055
0.00071731
0.00121378
0.00151982
0.00257536
0.000865087
0.012239
0.00232451
0.00538824
0.00310275
0.00428411
0.00166042
0.000841088
0.00322578
0.00110947
0.000916316
0.00102668
0.000559301
0.00121895
0.000913699
0.0159091
0.000756356
0.000830454
0.000753655
0.00093146
0.000832682
0.000776568
0.000868406
0.000744759
0.00286571
0.00367896
0.00443262
0.000737993
0.000745238
0.000887934
0.00107019
0.00177896
0.0078376
0.00181898
0.000765571
0.00105876
0.000760874
0.00341818
0.000806685
0.000704066
0.000759651
0.000678469
0.000844286
0.00107651
0.000904629
0.00821855
0.000673908
0.015524
0.000601954
0.00207442
0.000873386
0.00134535
0.000739127
0.00322323
0.00270562
0.000750722
0.000499642
0.000528183
0.00101853
0.00153618
0.00122595
0.00315348
0.000752029
0.00116179
0.00202464
0.00446455
0.00617965
0.00288008
0.000828637
0.000281559
0.0080141
0.00152577
0.00276883
0.00656563
0.000501188
0.000888205
0.0011022
0.00839687
0.000351702
0.00539329
0.00719553
0.00111185
0.00314005
0.00520459
0.00185471
0.000610911
0.00943513
0.0179003
0.007448
0.00132483
0.00170988
0.00105951
0.00286173
0.000836254
0.000541288
0.00100603
0.000783688
0.0025679
0.00123323
0.000447448
0.00203967
0.000758171
0.000455448
0.000839715
0.00254316
0.00555048
0.000709584
0.00297958
0.0047814
0.00855038
0.0100478
0.00288115
0.00232459
0.000795493
0.00661273
0.00141638
0.00711216
0.00550805
0.00294634
0.00389957
0.00364687
0.0124882
0.0045565
0.0131435
0.00273155
0.002613
0.00345254
0.0117502
0.000926458
0.0028435
0.0034674
0.00451294
0.00281967
0.00659385
0.00562572
0.00406906
0.00631329
0.000940164
0.000358203
0.000806815
0.00455558
0.000771282
0.00285151
0.00187972
0.000831017
0.00431388
0.00358288
0.00516002
0.000615582
0.00912628
0.001455
0.00285221
0.0020292
0.00155349
0.00108143
0.000861738
0.00495735
0.000824401
0.000764697
0.000909464
0.0115335
0.00256845
0.001632
0.00496498
0.00553729
0.00326251
0.00188155
0.0107894
0.00525746
0.000786267
0.000186668
0.00734708
0.00232847
0.00634225
0.00844001
0.00113379
0.000652237
0.00289668
0.00574692
0.000941584
0.001449
0.00127821
0.00147156
0.00115561
0.0113627
0.000889784
0.00222992
0.00587502
0.00102358
0.00681053
0.00311221
0.000750405
0.00138251
0.00156801
0.000924001
0.0010972
0.00108678
0.00107868
0.00183437
0.000549535
0.00230621
0.000782819
0.000822636
0.00446013
0.00283153
0.00546742
0.000745215
0.00342443
0.00531673
0.00665718
0.000935162
0.00128235
0.00166395
0.00333791
0.000265033
0.000258373
0.000531798
0.0186941
0.000826173
0.00264101
0.00233696
0.00381226
0.00377543
0.00166218
0.000532179
0.000220381
0.000267129
0.000432519
0.00023818
0.00067992
0.000438654
0.000313954
0.000585446
0.000184776
0.000309917
0.000564669
0.000309889
0.000291801
0.000277241
0.000218354
0.000659029
0.00050877
0.000315236
0.000441906
0.000551618
0.000261488
0.000262859
0.000178745
0.000314448
0.000418794
0.00046253
0.000256621
0.000269696
0.000398771
0.000496592
0.000554451
0.000360946
0.000196132
0.000200303
0.000380086
0.000250499
0.00052035
0.000342865
0.00018374
0.000366292
0.000299817
0.000517451
0.000541235
0.00195806
0.00227476
0.0110598
0.000799083
0.00206609
0.00289747
0.00525049
0.0092448
0.00349545
0.000833742
0.000848042
0.00344845
0.00180358
0.00712207
0.0198109
0.0127018
0.00538195
0.00234163
0.00226804
0.00237198
0.000756
0.00145801
0.000369144
0.00693775
0.00107071
0.0026036
0.00335617
0.00192255
0.00472948
0.00385007
0.00355459
0.00279021
0.00442036
0.0200175
0.00157465
0.0038126
0.00233611
0.00077561
0.0102947
0.00330931
0.00147325
0.0067466
0.00244521
0.00306525
0.00225046
0.00180513
0.0017046
0.000842098
0.000848849
0.0173745
0.0012814
0.000596788
0.000327363
0.00754613
0.00926473
0.000352362
0.00365072
0.00668671
0.000369853
0.000247626
0.000436377
0.00054898
0.0004668
0.000552436
0.000192018
0.000375142
0.000451047
0.000214655
0.000591095
0.000537612
0.000280435
0.000601599
0.000361458
0.000309119
0.000565186
0.000264512
0.000234983
0.000269413
0.000181516
0.000556648
0.000234785
0.0033645
0.0027086
0.000453208
0.000925745
0.00433789
0.000848692
0.00739031
0.000597652
0.0030769
0.00902139
0.00963007
0.00289796
0.00927516
0.00405353
0.000293952
0.0091638
0.00223612
0.00534639
0.017493
0.00480382
0.00613586
0.000774126
0.0106384
0.00169703
0.000901597
0.0108694
0.000914242
0.00314431
0.0017594
0.000765887
0.000670821
0.00646454
0.000997134
0.00838269
0.0113607
0.00121716
0.00715091
0.000705654
0.00988422
0.00197592
0.00092605
0.00203168
0.00743265
0.00128484
0.00188986
0.00294927
0.00139643
0.00702811
0.000834648
0.00319702
0.000627587
0.00328223
0.00667698
0.0177804
0.000204516
0.000771979
0.00104893
0.00986794
0.00289309
0.000476051
0.000786689
0.00239214
0.00196817
0.0101094
0.0008327
0.00135886
0.000646322
0.00120548
0.00164975
0.000805931
0.00691802
0.000646675
0.000166526
0.000275784
0.00914967
0.00631984
0.000778425
0.0108058
0.00487529
0.000573338
0.0100619
0.0125909
0.00856532
0.0100212
0.00601909
0.00160092
0.00910252
0.000972584
0.00276643
0.00228062
0.00663852
0.000733232
0.000874339
0.00125001
0.010129
0.000664231
0.00150378
0.00123837
0.00203596
0.00234726
0.0082662
0.00997834
0.00912141
0.00375557
0.000831298
0.00797672
0.000529306
0.00218967
0.00211129
0.00113786
0.0058735
0.0107134
0.00318995
0.00994328
0.00284014
0.00767996
0.00143358
0.00208657
0.00209282
0.00274302
0.0010803
0.00204528
0.00214857
0.0140644
0.00101774
0.00141818
0.00366574
0.00203679
0.00143015
0.00214286
0.00268473
0.014538
0.002232
0.00465851
0.00725927
0.00128496
0.00105219
0.00153472
0.00348378
0.00187352
0.000964753
0.00285066
0.0123032
0.0135408
0.0124352
0.0118132
0.0136874
0.0127552
0.0144158
0.00158999
0.0136183
0.0126703
0.0130365
0.0125918
0.0123876
0.0122437
0.012374
0.0116159
0.0121049
0.00191055
0.00199538
0.00188976
0.0117045
0.00200228
0.00148935
0.00100771
0.00176297
0.000302182
0.000373194
0.00435952
0.00994962
0.00243168
0.00236846
0.00211465
0.0106116
0.0103634
0.00999096
0.00559286
0.000864794
0.0015593
0.000864936
0.00468445
0.00733091
0.0036018
0.00146915
0.00304812
0.00243481
0.0022716
0.00385049
0.00168411
0.00896634
0.00202944
0.00104046
0.00211493
0.000349388
0.00601775
0.00179459
0.000963159
0.00174772
0.000948561
0.00187169
0.00274374
0.00170638
0.00331106
0.00292733
0.00198504
0.00283914
0.0111187
0.0021354
0.00270073
0.00299759
0.0026144
0.00912014
0.00157088
0.00102866
0.00948235
0.00477877
0.00301782
0.00228269
0.00222301
0.00313138
0.0105364
0.00327928
0.00103202
0.00140341
0.001087
0.00322994
0.00204877
0.0166788
0.00166329
0.00219019
0.00320241
0.00166165
0.00315594
0.0016048
0.00187232
0.00299971
0.0056101
0.005799
0.0157732
0.00961572
0.000977009
0.0103044
0.00161294
0.00374303
0.00603645
0.00169166
0.00289469
0.00206549
0.0150207
0.00652306
0.00423228
0.00167065
0.00784047
0.0141987
0.00115343
0.00146985
0.0060463
0.00326946
0.00555111
0.00425916
0.0012357
0.00165909
0.00655371
0.00349211
0.0053717
0.0122889
0.0117703
0.00257491
0.00731889
0.000391862
0.00158216
0.00633305
0.00177616
0.00158005
0.00169918
0.00168327
0.00318658
0.000875048
0.00487574
0.000858184
0.00280595
0.00586511
0.00142751
0.00620479
0.00215107
0.00336567
0.00138923
0.00415273
0.00108783
0.00361502
0.00212987
0.00197981
0.00412005
0.00359855
0.00109542
0.00112955
0.0061974
0.00604728
0.0011834
0.00135822
0.000591528
0.000962169
0.000393932
0.00666544
0.0012767
0.00142093
0.0032697
0.00685819
0.00257513
0.00189577
0.00100198
0.00670329
0.00119521
0.00130384
0.00249291
0.00212751
0.00173776
0.00189147
0.000693447
0.00624273
0.00429568
0.012122
0.00187623
0.0054689
0.00240224
0.000906722
0.00635791
0.00685502
0.000578743
0.00220777
0.00177498
0.000810351
0.00203818
0.00240231
0.00657117
0.00733139
0.000257757
0.00497999
0.00159379
0.00173805
0.00209749
0.0020915
0.00695914
0.00640005
0.00633224
0.00169014
0.00181626
0.00222711
0.000293348
0.00676274
0.000982718
0.00329831
0.000961374
0.0031083
0.00161571
0.000292647
0.00327764
0.0013078
0.00642935
0.0013872
0.000964996
0.00302703
0.00123929
0.00160747
0.00563985
0.00292008
0.00551485
0.00287008
0.000982157
0.000593885
0.00332546
0.00194712
0.00399678
0.000255296
0.00174917
0.00026622
0.0117276
0.0013915
0.00180507
0.00461595
0.00244934
0.00136921
0.00285948
0.00145037
0.00112269
0.00527921
0.00432923
0.0025407
0.00339305
0.00195508
0.00243153
0.0012737
0.00136266
0.00516682
0.00263635
0.0012021
0.00555238
0.00289018
0.0029594
0.00212616
0.000696528
0.0108971
0.000907921
0.00203063
0.00275079
0.00777798
0.000684443
0.00172138
0.00242518
0.00133531
0.00218034
0.00172658
0.00172568
0.00220966
0.00118819
0.00134291
0.00202122
0.000695702
0.000383246
0.00594332
0.00256328
0.000572676
0.0102429
0.0116419
0.00222541
0.000751531
0.0022424
0.0015051
0.00478105
0.00229737
0.00224399
0.00200454
0.00186809
0.0019472
0.00191725
0.00247477
0.00235747
0.00507812
0.00126993
0.00106449
0.00349553
0.00246941
0.000383323
0.00320537
0.00256031
0.0112086
0.00464674
0.00405941
0.0106557
0.00220331
0.00207575
0.0042841
0.00109818
0.00201287
0.00201398
0.00182582
0.000976775
0.00143655
0.00259479
0.00623173
0.00119476
0.00639558
0.00253414
0.00242854
0.00358602
0.00385136
0.00251108
0.000530285
0.00321043
0.000527842
0.0111503
0.00261992
0.00107518
0.00831689
0.000800584
0.000859312
0.0107636
0.000538057
0.00212676
0.00173755
0.00369448
0.00198904
0.007016
0.00312735
0.00609131
0.00254444
0.0032558
0.00310306
0.00443085
0.0014903
0.00581383
0.000634559
0.000604752
0.000581701
0.000332521
0.000370386
0.00202738
0.00135434
0.000858377
0.00121478
0.00392456
0.00539683
0.00629106
0.000412461
0.010472
0.00900632
0.00203609
0.0012139
0.0028999
0.00346381
0.00237102
0.000557439
0.000542519
0.00898141
0.00271458
0.00177684
0.00261718
0.00854289
0.00522046
0.00124706
0.00541615
0.00964919
0.00367764
0.00231388
0.00190167
0.00190589
0.000633581
0.000837182
0.00137448
0.00218923
0.00134223
0.00174672
0.0117517
0.00580024
0.00516702
0.00228924
0.00186109
0.0126234
0.0118028
0.0145417
0.0129734
0.00464372
0.00158618
0.00377101
0.00142808
0.000846382
0.00148408
0.0111265
0.0132911
0.0129835
0.00217858
0.00357725
0.00573995
0.00344634
0.00368263
0.00228421
0.00148397
0.0014803
0.00079098
0.00125395
0.00198598
0.00173018
0.00188674
0.00397305
0.00737497
0.0012083
0.0118068
0.00278289
0.00719922
0.00145116
0.00341713
0.00111233
0.0011322
0.00103789
0.000729583
0.00229987
0.000742996
0.00978655
0.0015748
0.000792478
0.00136133
0.00337862
0.0018612
0.000995756
0.00357471
0.0063256
0.00313985
0.00277501
0.00214904
0.00332988
0.00136934
0.00333255
0.00245696
0.000354247
0.000574694
0.00248322
0.00389972
0.0140947
0.00425643
0.0013594
0.00121843
0.00573853
0.00268593
0.00591313
0.00846779
0.00135491
0.00169969
0.00155347
0.00185538
0.00115572
0.0078772
0.00163078
0.00223939
0.00121538
0.00130717
0.0146435
0.0101772
0.00258568
0.00497195
0.00398011
0.00253689
0.00741081
0.00589385
0.00107122
0.00083969
0.000751059
0.000911068
0.00466217
0.00192896
0.00404848
0.000893447
0.00224321
0.00644148
0.00186408
0.00500903
0.00140323
0.00485558
0.00208472
0.00190777
0.00205127
0.00564009
0.00660522
0.00985267
0.00149869
0.0136697
0.000782103
0.0046381
0.00208586
0.00382359
0.010391
0.00233172
0.00333571
0.000908915
0.00606039
0.00209066
0.00295955
0.000455941
0.000250499
0.00820805
0.00321871
0.0070375
0.00599757
0.00879396
0.00617125
0.000796188
0.00444878
0.00366428
0.00379123
0.00356433
0.00250192
0.00691588
0.00113775
0.000797103
0.001117
0.00842653
0.00153572
0.00949987
0.00491459
0.000818855
0.0102753
0.00153505
0.00169573
0.00873769
0.0102681
0.0125476
0.00937867
0.000442516
0.00107837
0.00588298
0.00270641
0.01254
0.0137209
0.00233685
0.006813
0.0024284
0.000490555
0.00355971
0.00313835
0.00782206
0.00762249
0.00980674
0.00152456
0.00111202
0.00423312
0.00431071
0.00238843
0.0019151
0.00320374
0.00786311
0.00124146
0.00148334
0.00217698
0.00927851
0.0100868
0.00663089
0.00248713
0.0104414
0.00103928
0.000757933
0.00181514
0.00205999
0.00855771
0.00650885
0.00434912
0.00147298
0.000770176
0.00673769
0.00160311
0.00482687
0.00728008
0.00364043
0.0058877
0.00215902
0.00356412
0.0023079
0.0133692
0.00147033
0.00167614
0.0024664
0.0016574
0.000988234
0.00648651
0.00185683
0.00185662
0.0142638
0.0127291
0.0141234
0.0115252
0.00884671
0.0019094
0.0032313
0.00153433
0.0102349
0.0144929
0.00418814
0.0083752
0.000736737
0.00245121
0.00225995
0.0102574
0.00513353
0.00602321
0.00260715
0.00413899
0.00310974
0.00285694
0.0055856
0.000555181
0.00396173
0.00081403
0.00670365
0.000881785
0.0101009
0.00177667
0.00245343
0.00329586
0.00683612
0.00123687
0.00994769
0.0122329
0.00270889
0.000585383
0.0104534
0.00175896
0.00205645
0.00199069
0.000554177
0.000679361
0.00367399
0.00937003
0.013029
0.00588644
0.00691991
0.010501
0.0025267
0.00451265
0.00239377
0.00404862
0.000622981
0.000569865
0.00754097
0.00419495
0.0017521
0.00227406
0.0110244
0.00316332
0.000947623
0.000633947
0.00248923
0.00311406
0.000798195
0.00592196
0.00136617
0.00738967
0.00304448
0.0050012
0.000938215
0.0139298
0.00296622
0.01397
0.00367265
0.00124878
0.00528402
0.00545906
0.00145265
0.000766631
0.012996
0.00220586
0.00156807
0.00175686
0.000776756
0.0144157
0.00178901
0.00966772
0.00923503
0.000675342
0.00678818
0.000802569
0.0132936
0.0122482
0.00254884
0.00261066
0.00232897
0.00942796
0.000848192
0.000767227
0.000758584
0.00482509
0.000736643
0.000929927
0.00623459
0.00533715
0.00360879
0.00265209
0.00609491
0.00106493
0.012631
0.0109817
0.00569808
0.000735369
0.00342786
0.00942101
0.000592355
0.000276432
0.000297503
0.00979182
0.0021305
0.010448
0.00181345
0.00114146
0.00862695
0.0141923
0.00214187
0.00342243
0.00638742
0.00476827
0.00287885
0.00454367
0.000823991
0.0047244
0.000705873
0.00120489
0.000746561
0.00106189
0.00293476
0.00135862
0.00569477
0.00283846
0.00314724
0.00671741
0.00538611
0.00311662
0.00682372
0.00175552
0.000743552
0.00302903
0.00152696
0.00662681
0.00520915
0.00798031
0.00426059
0.000935601
0.000829196
0.00102325
0.00354591
0.00132208
0.00673088
0.00193325
0.00117171
0.00257869
0.00916424
0.00377388
0.0109964
0.000636282
0.00917809
0.000835113
0.00320643
0.001572
0.00589076
0.00666361
0.00234314
0.00125882
0.00219431
0.00594903
0.00100099
0.00211415
0.00945571
0.0128195
0.00249736
0.00598493
0.00413322
0.0172707
0.0136485
0.00157733
0.00263236
0.00408134
0.00178476
0.00353046
0.00343817
0.0100155
0.000741254
0.0035907
0.00191352
0.00240293
0.00142608
0.00310577
0.00241811
0.00671349
0.000572748
0.00528813
0.00684332
0.00107538
0.00226545
0.000656304
0.00301705
0.00369274
0.00272226
0.00064122
0.0020152
0.00819825
0.00589177
0.00401127
0.0022621
0.00161244
0.00131426
0.000998312
0.000826191
0.000834477
0.00470464
0.00169974
0.00103884
0.00193762
0.0106108
0.000398229
0.00360769
0.00252125
0.000934497
0.00598201
0.000937311
0.000901617
0.000791419
0.00245297
0.00242589
0.00099779
0.00191545
0.00193874
0.00575334
0.000882535
0.00130394
0.00336881
0.00647142
0.00080481
0.00589419
0.00144196
0.00353037
0.00291765
0.0033176
0.00660297
0.00121628
0.000807705
0.000249171
0.000527611
0.00118621
0.00895984
0.00296578
0.00930554
0.00462538
0.00198731
0.00886712
0.00125096
0.000805609
0.00284163
0.00461926
0.00647064
0.00272461
0.000996761
0.00084654
0.000923124
0.000727951
0.0014646
0.0139248
0.00174382
0.0078858
0.00110807
0.00049508
0.00129184
0.000610887
0.00103088
0.00286665
0.00937749
0.00306952
0.0096552
0.0100487
0.000709645
0.00116512
0.00527007
0.0140416
0.00213572
0.0071812
0.00288185
0.00586188
0.00149851
0.000806704
0.00082677
0.003551
0.00668197
0.00194742
0.00201868
0.00360074
0.00340432
0.00226464
0.00120628
0.00304736
0.00437711
0.0158009
0.0113942
0.000587007
0.0095595
0.00123953
0.00427038
0.00471763
0.00380439
0.00250558
0.00617052
0.00194661
0.00511119
0.0114337
0.0136889
0.0012881
0.00140188
0.00114687
0.000727401
0.000685623
0.00214594
0.00203542
0.0019542
0.00291574
0.00573789
0.00227517
0.000586142
0.00911074
0.000756651
0.00108674
0.00603312
0.00574467
0.00421577
0.00230728
0.00311136
0.0064636
0.000820559
0.00084111
0.00313465
0.00595253
0.00575631
0.00189985
0.0033039
0.00668709
0.00360977
0.00302443
0.00123784
0.00118654
0.000713461
0.00123584
0.000362882
0.000595585
0.00115369
0.00122731
0.000827652
0.00057678
0.000261395
0.000276257
0.0105381
0.00931536
0.000848115
0.00725957
0.00209437
0.00674102
0.00307231
0.00566091
0.0048067
0.00898285
0.00970612
0.0104268
0.00432341
0.00392814
0.00886645
0.00261314
0.00102125