/*--------------------------------*- C++ -*----------------------------------*\
| =========                 |                                                 |
| \\      /  F ield         | OpenFOAM: The Open Source CFD Toolbox           |
|  \\    /   O peration     | Version:  v1912                                 |
|   \\  /    A nd           | Website:  www.openfoam.com                      |
|    \\/     M anipulation  |                                                 |
\*---------------------------------------------------------------------------*/
FoamFile
{
    version     2.0;
    format      ascii;
    class       volVectorField;
    location    "0.53";
    object      U;
}
// * * * * * * * * * * * * * * * * * * * * * * * * * * * * * * * * * * * * * //

dimensions      [0 1 -1 0 0 0 0];


internalField   nonuniform List<vector> 
5794
(
(-0.0821939 0.421898 -3.46872e-17)
(0.0165167 1.61332 0)
(0.523195 -0.295286 -1.79627e-16)
(0.634525 3.63029 1.11882e-16)
(0.846712 2.19295 2.77571e-17)
(-0.189035 1.38267 -1.24031e-16)
(2.19566 -0.245194 -2.03141e-16)
(1.40832 -0.0503813 0)
(5.72134 0.775822 1.08947e-16)
(0.55425 -0.144187 2.31497e-16)
(4.60968 -0.105287 -2.91942e-19)
(-2.23646 -0.101442 0)
(-3.30234 -0.188536 4.99133e-16)
(0.671328 7.37744 1.80647e-16)
(0.974937 0.195436 5.09921e-16)
(0.437979 -0.0361909 -1.76408e-16)
(-0.0031603 0.0553678 4.99766e-17)
(0.328495 7.23987 1.28486e-16)
(1.06297 0.042457 4.68325e-16)
(0.227395 1.43032 1.59021e-16)
(-3.01978 1.83057 -4.85813e-17)
(0.0124602 1.10498 -1.6124e-16)
(2.33727 0.107905 2.9431e-16)
(0.7206 0.0335678 -6.92036e-16)
(2.86827 0.188002 -3.79058e-16)
(2.72872 11.5087 2.07217e-17)
(4.77919 -0.611018 0)
(0.530674 2.02293 -1.78236e-16)
(-0.0867664 9.01961 -4.2298e-17)
(0.939248 -0.135668 2.86348e-16)
(-1.86912 -0.601202 -6.06334e-16)
(-1.87249 0.0662089 -5.28904e-16)
(-2.05053 0.10379 -9.71678e-16)
(1.29662 0.00390083 4.29482e-16)
(-0.185503 -0.412154 -2.21317e-16)
(-1.60085 0.447361 1.9763e-16)
(9.74906 0.658172 -2.31797e-16)
(3.48393 -0.469197 0)
(3.2984 -0.413101 1.41522e-16)
(-0.409748 4.64629 0)
(0.0290425 2.75125 -1.12366e-16)
(0.850637 0.0511205 1.6991e-16)
(7.26926 0.10777 -8.73784e-19)
(0.308704 0.904205 0)
(1.1237 0.0289008 -4.38787e-16)
(4.55262 -0.169989 1.4756e-16)
(4.21084 -0.27462 -2.4593e-16)
(0.0265544 -0.553931 0)
(-0.610659 -0.364491 8.37338e-16)
(0.458839 -0.495043 7.59421e-17)
(-0.167851 -0.0291946 -2.01243e-16)
(5.76698 -0.243543 -2.01304e-16)
(-1.05121 1.24311 0)
(-1.34526 -0.663252 1.56164e-16)
(-0.0878811 -0.0793463 1.11565e-17)
(4.74177 -0.498577 0)
(4.23799 -0.477928 -1.99969e-16)
(-1.06548 -0.275176 1.95555e-16)
(8.34332 0.0624822 0)
(4.20258 10.9337 -7.18513e-19)
(8.98209 0.522838 2.04452e-18)
(0.358409 0.868087 -1.36113e-16)
(-1.10669 -1.48177 -1.6205e-16)
(-1.13277 -0.0395562 2.2482e-16)
(-1.16015 0.11899 0)
(0.808648 0.340643 -2.71533e-18)
(0.258441 0.98628 -2.5983e-16)
(0.0738605 3.52147 0)
(0.512055 6.09835 -1.4231e-16)
(0.0364139 0.347872 3.38457e-21)
(4.4609 -0.510282 1.5579e-16)
(0.381085 2.67003 -3.12149e-16)
(11.4128 2.11744 -3.90561e-18)
(0.305476 0.819362 0)
(0.446169 7.18281 1.2783e-16)
(1.02986 1.07465 -1.75782e-19)
(-0.373078 -0.245706 1.44551e-16)
(1.48076 11.3631 -2.12396e-17)
(0.0618658 0.607257 5.86036e-17)
(0.213866 -0.0424986 7.98298e-17)
(-0.286126 0.84658 -2.06338e-17)
(0.0468627 1.21246 -1.57565e-16)
(-0.452938 0.943543 3.53614e-19)
(2.47744 -1.6987 -9.22916e-17)
(2.46664 -1.63855 -3.53112e-16)
(-0.0433331 5.33472 -4.57368e-17)
(0.221867 7.12265 2.91058e-17)
(0.0204735 5.14425 -2.69189e-17)
(0.948846 -0.016546 -1.80167e-16)
(1.06919 0.770503 -5.2817e-17)
(0.898777 5.43983 -8.59112e-17)
(0.0868218 7.87268 -8.05191e-17)
(-0.0711228 6.92209 1.55027e-16)
(0.0765519 7.23204 6.58484e-17)
(0.00428782 6.85948 3.52055e-17)
(-2.13309 0.0409467 5.86418e-18)
(0.0195948 6.02108 -6.03355e-17)
(-0.0774245 6.68022 -1.68273e-17)
(-0.0493024 7.85313 0)
(8.67123 0.573081 -3.31463e-17)
(1.73183 3.27884 -1.32983e-16)
(-1.30638 0.151274 -4.20461e-16)
(8.17943 0.139835 7.81643e-17)
(0.703992 5.88617 -2.58227e-16)
(0.710383 0.0716083 0)
(-0.0797089 5.10619 0)
(0.0480178 0.889092 0)
(-0.346627 0.0736994 -2.88736e-16)
(-1.41336 0.580212 -1.34034e-16)
(-0.0526723 0.426098 -1.71966e-16)
(1.42663 -0.192071 -6.4482e-19)
(0.425665 -0.197598 0)
(-1.4479 4.74428 1.22414e-16)
(-0.144187 -0.315104 1.58952e-16)
(0.0681317 6.9635 0)
(-0.128599 7.27817 0)
(0.550321 0.136949 -3.79187e-16)
(0.0732786 7.87286 -6.1278e-20)
(9.25886 0.471583 -2.42171e-20)
(10.8412 0.615649 6.46659e-18)
(-0.130019 7.15407 1.23135e-16)
(-0.122405 -0.00330945 0)
(-1.67692 0.110509 0)
(0.558149 1.33149 -2.4976e-16)
(0.680314 -0.143687 2.3523e-16)
(4.60274 2.28851 5.41587e-17)
(0.94207 6.78973 0)
(-0.0498251 1.62768 7.5836e-17)
(5.84553 -0.666247 1.34139e-16)
(-0.468152 -0.0378773 1.76872e-16)
(-0.43001 -1.09337 3.56704e-16)
(-0.875614 -1.13367 2.22432e-16)
(0.152625 1.24349 2.43796e-17)
(1.02758 11.0734 -6.34082e-17)
(-0.256497 6.05929 1.55028e-16)
(0.820972 0.275259 0)
(3.95256 -0.216239 1.01233e-16)
(0.396075 0.839502 -1.98916e-16)
(-0.078477 0.198996 2.18492e-16)
(1.32332 -0.164323 0)
(0.25696 -0.91947 -5.54205e-16)
(0.73582 3.05742 0)
(0.790759 -0.373946 0)
(0.750054 3.38375 2.91503e-16)
(-0.14501 0.301545 2.33492e-16)
(1.0538 -0.256871 1.65595e-17)
(-0.839221 1.15123 2.4329e-16)
(7.3983 0.27572 2.54645e-16)
(0.193583 1.45632 -1.9163e-18)
(0.557219 1.07287 4.81182e-16)
(7.10195 -0.171859 -1.86493e-16)
(-0.023454 -0.27851 3.49634e-16)
(-0.137245 5.33716 0)
(-1.38188 0.266819 1.96803e-16)
(2.80734 -0.739833 0)
(5.03413 0.153651 0)
(2.21295 -0.740498 -2.75597e-16)
(3.35079 0.0270764 3.72014e-16)
(4.95646 0.1665 -2.89476e-16)
(2.31351 -0.715168 -1.33584e-16)
(0.283274 0.104083 4.38368e-16)
(-1.03136 -0.0724974 -4.16961e-16)
(0.995505 -0.0027818 0)
(-2.70303 -0.0675774 -1.36209e-16)
(-2.97819 0.0194297 -3.30737e-16)
(-3.09646 -0.107698 1.80389e-16)
(-2.52194 -0.205084 1.23798e-18)
(-0.152345 -0.231648 -4.89277e-18)
(1.19913 -0.109258 0)
(0.146554 -0.113784 1.06638e-18)
(0.686136 0.0343569 0)
(-1.847 0.414137 -1.26354e-16)
(-1.72895 0.406313 0)
(-1.75922 -0.120771 1.01861e-16)
(0.862891 -0.0608757 4.61494e-16)
(2.60973 0.0695662 0)
(0.699756 0.0413194 -2.5334e-16)
(2.41764 -0.0700493 -2.44621e-16)
(0.64477 0.0240464 -9.743e-17)
(6.05385 0.0867966 7.50415e-18)
(0.950189 -0.253487 -5.9906e-18)
(-1.39109 -0.269421 0)
(0.702132 -0.277019 0)
(-1.77881 -0.316622 1.34854e-16)
(0.620216 -0.320021 0)
(-1.53474 -0.654889 6.23756e-17)
(-1.43364 0.112746 -1.51182e-16)
(-1.19635 0.28963 -1.08574e-16)
(0.111348 -0.259571 1.47301e-16)
(-1.25097 0.119998 3.44573e-16)
(4.52001 -0.0690897 -3.64044e-16)
(-1.8885 -0.0423013 3.90696e-16)
(-2.18318 -0.0874971 6.46394e-16)
(-1.13155 -0.293879 6.47284e-16)
(-1.58631 -0.675904 -1.01072e-16)
(-0.959277 -0.497519 -5.42339e-16)
(1.66663 -0.198771 -2.34743e-17)
(0.685063 -0.154049 -1.97054e-16)
(0.886907 -0.0743368 -3.08167e-16)
(6.29648 -0.0481953 1.3079e-16)
(2.70777 -0.0582266 -2.03072e-17)
(5.68417 -0.00296907 0)
(0.547869 -0.632403 0)
(-0.492504 -0.0770897 1.25716e-17)
(4.21477 -0.0550771 -5.7915e-17)
(4.50352 0.0171861 0)
(0.00992717 -0.304587 1.3065e-17)
(0.327773 -0.0557145 2.0769e-19)
(4.04814 1.24145 -6.73977e-18)
(1.88628 8.81966 1.33375e-16)
(-0.0139153 0.325054 1.58476e-16)
(9.71411 -0.00273075 0)
(-1.93707 0.0503175 -1.03038e-16)
(-0.0433889 -0.572437 1.9578e-16)
(1.24227 0.0121156 0)
(2.70723 -0.0536381 6.61939e-16)
(0.651182 0.475524 -1.84071e-16)
(1.21011 1.70539 9.6613e-17)
(4.00724 -0.186788 1.41533e-16)
(1.40304 5.57237 -1.89021e-16)
(9.62944 -0.00185263 0)
(2.06255 0.728857 2.34399e-16)
(-0.322002 1.93954 0)
(0.079609 4.81543 3.15789e-17)
(4.72686 0.121485 1.4525e-16)
(11.6994 0.7036 2.25025e-18)
(1.21179 0.101602 -7.73931e-17)
(0.312491 -0.0192789 -1.21948e-16)
(-2.22342 0.00990354 0)
(0.706291 0.144908 -3.3574e-16)
(-1.66641 0.725728 0)
(-1.40728 0.441881 -6.8071e-17)
(1.32105 -0.0304603 -1.09365e-16)
(-1.0758 0.748046 1.67147e-16)
(2.65559 0.513249 1.59041e-16)
(10.4403 0.22644 5.63387e-18)
(7.62391 1.1594 2.08803e-18)
(7.05101 0.480239 3.08839e-17)
(-2.05761 0.353369 -1.72539e-16)
(-0.39125 0.555246 -4.45777e-16)
(-0.0290448 0.940016 0)
(1.18299 0.773424 1.23966e-15)
(1.54612 4.91058 2.27178e-16)
(-0.587206 0.863661 -2.65231e-16)
(-1.28804 0.855846 2.84065e-16)
(1.58679 -0.0952914 2.85366e-16)
(1.1596 -0.276444 -1.46955e-16)
(-0.12339 1.01256 8.78902e-18)
(-0.111157 5.84835 0)
(-0.00728656 5.51263 0)
(-0.0454861 6.37884 0)
(0.549108 0.426035 2.86166e-17)
(1.35089 -0.617126 -8.02901e-17)
(-0.283419 0.288524 -9.54303e-20)
(7.14033 1.20507 -6.1915e-17)
(3.77953 2.69734 -1.08633e-17)
(8.07841 0.206503 -1.61344e-16)
(8.9312 0.541514 1.69038e-16)
(0.0518604 -0.384563 3.04943e-16)
(0.490956 0.0283084 0)
(5.59943 -0.0797252 -1.22197e-16)
(-1.97947 -0.060686 9.14142e-17)
(0.166329 -0.508643 -1.13342e-16)
(0.757107 -0.476708 0)
(-1.44074 -0.155581 0)
(-1.0116 0.0102664 -6.76813e-19)
(0.444821 1.95745 1.67462e-16)
(3.61419 0.74868 0)
(0.262285 0.0984153 -7.88356e-16)
(4.12282 -0.0012938 -1.36567e-16)
(4.08207 -0.0954952 0)
(2.13714 -1.04794 -2.57853e-16)
(1.90547 1.50829 -4.63016e-16)
(4.68523 -0.396007 -1.9057e-16)
(9.46724 0.0866857 3.889e-17)
(0.69224 0.0759359 3.38313e-16)
(-1.20905 -0.679771 -1.71257e-16)
(0.821203 -0.796874 -9.18069e-17)
(0.0642486 0.00714212 -2.06869e-16)
(-2.116 1.62623 -2.51217e-16)
(0.680216 -0.18372 4.05485e-16)
(0.885267 3.17099 2.80131e-16)
(0.468758 3.47425 1.04983e-16)
(1.02051 0.103038 -4.58139e-16)
(-0.376391 5.71706 4.95037e-17)
(-0.113333 4.88305 1.31805e-16)
(0.0962629 6.22395 1.26957e-17)
(0.101609 5.69119 0)
(0.494234 5.52507 4.74392e-17)
(-0.27875 7.35803 0)
(-1.30026 0.72844 -1.65818e-17)
(-0.0533996 0.120902 -1.54333e-16)
(1.3582 0.0103454 2.3664e-18)
(-0.794729 -0.472805 0)
(7.91861 1.75706 0)
(1.11182 8.10194 6.73245e-18)
(0.604157 3.90847 5.99524e-17)
(1.2037 0.276084 -1.56663e-19)
(-0.312831 4.10591 -2.39672e-16)
(0.866086 -0.714185 -1.71556e-16)
(0.0592862 1.02227 1.13881e-16)
(-0.463177 6.37359 0)
(-2.95268e-05 0.338485 -9.33349e-16)
(0.712818 2.15529 0)
(0.383827 1.87659 -1.64332e-16)
(3.3898 0.244742 1.77002e-18)
(0.00339548 0.0784186 -2.81553e-16)
(0.691888 4.43721 2.66676e-16)
(4.73696 0.0871283 2.70875e-16)
(4.7088 0.0329767 0)
(2.82179 -0.364883 -5.33949e-16)
(-0.175386 0.465258 -3.29055e-16)
(1.35526 7.78908 -1.47114e-16)
(0.0264659 -0.496759 -8.9274e-17)
(10.5866 0.121673 0)
(9.96981 0.317229 -1.946e-17)
(-0.105795 0.0727299 -1.02906e-16)
(0.457988 2.77041 -3.17294e-16)
(-2.078 0.37833 -2.39947e-16)
(0.0173109 6.7151 -4.69752e-17)
(1.30226 0.0509561 5.06156e-16)
(0.981176 -1.11008 -2.11537e-16)
(0.182625 7.3292 -8.57317e-17)
(0.622935 1.68328 -8.79572e-19)
(-0.252305 -0.25313 0)
(1.90694 -0.420745 0)
(-0.354932 0.914433 0)
(-1.78075 -0.23227 7.04414e-17)
(-2.5543 -0.447204 -3.36853e-16)
(4.40306 -0.124395 3.187e-16)
(6.07939 -0.0469223 -7.80315e-18)
(6.46657 -0.127367 3.26302e-16)
(-2.07118 -0.263828 8.5983e-17)
(-1.77401 0.242998 5.34347e-16)
(-1.75121 0.149057 0)
(0.493531 -0.140031 -2.59219e-16)
(0.800507 -0.148234 0)
(1.0639 -0.0410701 0)
(-0.389054 -0.229781 -3.57102e-16)
(-0.589794 0.0199384 0)
(0.592139 -0.00402013 4.74322e-16)
(2.6098 -0.045885 4.14282e-16)
(6.24149 0.347465 0)
(2.52432 0.0203517 0)
(0.588206 0.0582932 4.39504e-16)
(1.10643 -0.0700433 4.27394e-16)
(-0.993433 -0.501379 3.51413e-16)
(-0.530861 -0.432709 -2.49539e-17)
(-2.99412 -0.16878 -1.3521e-16)
(3.78585 0.116268 6.70498e-17)
(3.56392 0.178055 6.60855e-17)
(-0.979066 0.0878689 2.46581e-16)
(-2.24772 -0.163733 -2.43951e-17)
(-1.87192 -0.141645 1.58385e-16)
(-0.133171 -0.428082 0)
(-2.27031 -0.504659 0)
(0.617904 -0.0745416 1.88094e-16)
(5.06656 -0.430158 1.91405e-16)
(2.38741 0.0169629 7.28604e-17)
(1.33481 -0.0545037 0)
(0.179321 -0.0144055 -2.89535e-16)
(1.98367 -0.449594 4.50648e-16)
(4.39095 -0.0971946 3.98213e-17)
(1.51405 -0.547929 -3.59892e-17)
(1.67266 -0.31584 -2.83095e-16)
(-1.45185 0.401142 3.70132e-16)
(-3.232 -0.0134152 -4.1584e-17)
(3.99622 -0.326783 0)
(3.48159 -0.347333 3.39637e-16)
(-0.373083 -0.200785 -1.17042e-16)
(-1.7053 -0.882519 -1.16143e-16)
(1.29987 -0.234815 0)
(-1.17412 0.535371 -9.17192e-17)
(0.460725 -0.909146 3.19066e-16)
(0.493121 0.0768543 9.39783e-17)
(-2.79707 0.164234 1.53545e-16)
(3.53242 -0.0284465 0)
(3.05306 0.13611 9.19347e-17)
(-0.942217 0.134132 0)
(0.403655 0.106281 1.51326e-17)
(-0.527399 -1.00076 1.56121e-16)
(-1.53543 -0.894996 0)
(10.7675 0.0939559 0)
(-2.09274 0.220291 1.36659e-16)
(-0.678985 -0.480535 -6.66771e-16)
(1.32258 -0.00414369 -3.39927e-16)
(-0.404303 9.01148 -3.22807e-17)
(-0.937459 -0.590874 2.74198e-16)
(0.864224 -0.404983 -1.09405e-15)
(-2.15016 -0.322141 0)
(0.226497 -0.200013 -9.24938e-16)
(-1.27571 1.15383 -3.18482e-19)
(0.0238375 0.395104 -2.86146e-18)
(0.946251 -0.438274 1.70847e-16)
(-1.02018 0.413964 9.56994e-17)
(-1.5346 0.181998 -9.64998e-17)
(0.953933 -0.0355667 1.16972e-16)
(1.29063 1.3536 0)
(0.63667 0.289845 0)
(1.98301 0.226401 -2.96222e-16)
(0.87364 0.00766781 1.5082e-16)
(2.96986 -0.159682 -3.81009e-16)
(9.26814 -0.421002 3.20922e-17)
(1.37786 0.0315339 1.99192e-16)
(0.456932 -0.0251895 0)
(6.19559 0.914943 4.99398e-17)
(0.982099 2.3271 1.29716e-19)
(-0.171153 1.04915 2.24189e-16)
(0.0443493 0.657988 -4.19538e-17)
(-0.233042 5.65082 -6.58168e-17)
(-0.00800622 6.58876 2.63166e-17)
(0.128681 7.90766 0)
(0.810516 0.455939 1.86998e-16)
(-0.953715 0.308056 3.06431e-16)
(4.78285 -0.0369479 2.21694e-17)
(4.63753 -0.0951613 7.09118e-17)
(1.71347 -0.631177 0)
(0.539828 4.58902 1.74438e-16)
(-2.42713 0.182208 0)
(-0.142937 6.14939 4.16686e-17)
(-0.0790685 7.93463 -6.16265e-17)
(-0.0996876 6.73457 3.529e-17)
(-0.0374996 -0.0258552 -1.67457e-17)
(-1.78824 -0.819297 -3.57209e-17)
(-2.295 0.067408 0)
(-1.59549 -0.273945 0)
(0.920768 -0.0088725 -2.0748e-16)
(-0.252417 -0.157061 -2.08897e-16)
(0.0833419 1.63323 -1.33962e-17)
(-0.163674 0.970435 5.63122e-17)
(3.49014 0.633252 3.55539e-16)
(9.9931 0.184654 1.38006e-17)
(0.584558 2.62105 -3.24818e-16)
(0.990637 -3.02314 -2.27881e-17)
(1.22112 -0.212355 3.18476e-16)
(0.402353 0.101433 0)
(0.678734 -0.527558 1.76361e-16)
(0.498378 -0.58776 -1.11215e-17)
(-2.60681 0.0461588 -8.59345e-17)
(-1.19048 -0.280371 2.21094e-16)
(1.09748 -0.00748394 2.41558e-16)
(9.94158 0.0997226 -2.69133e-16)
(-0.314628 -0.366876 0)
(0.18524 -0.450414 8.72225e-17)
(0.970667 -0.355514 -2.32881e-18)
(-0.0654909 7.31233 -6.54265e-17)
(0.0553018 6.89799 -3.71325e-20)
(0.0132778 -0.135688 0)
(1.81361 -0.278568 2.11775e-16)
(1.19113 0.419016 -8.90132e-17)
(0.869817 -0.0771753 -2.2806e-16)
(0.224412 1.63134 -6.38382e-17)
(-2.75767 1.36644 4.97204e-17)
(-0.0124492 1.06288 -5.55351e-16)
(-0.087294 6.04837 -3.13507e-17)
(0.408564 -0.225514 -6.15e-16)
(0.349594 5.08084 -2.41072e-18)
(-1.51373 -0.543286 -2.45468e-16)
(0.113054 6.34083 -3.52151e-17)
(0.845314 6.20706 9.95965e-17)
(0.0799125 0.744948 -1.23396e-16)
(0.426492 1.47634 -2.12115e-16)
(-1.11632 1.47504 1.70998e-16)
(1.58157 -0.254234 -3.74007e-16)
(8.28118 0.614094 9.98768e-17)
(-0.469273 -0.0453328 -3.03798e-16)
(10.5581 0.222583 -2.24162e-18)
(2.02814 3.76229 6.64363e-17)
(0.516526 0.069244 -4.74167e-16)
(-0.00996081 0.779281 -7.5791e-17)
(0.0299275 0.0423188 4.62111e-17)
(5.86776 1.31038 -5.38508e-18)
(1.46583 0.679668 -7.38475e-17)
(-1.35906 0.142609 2.26918e-17)
(-0.85703 -0.644736 -2.0345e-16)
(-0.990048 -1.01933 1.22387e-15)
(8.74777 2.90351 -2.91811e-18)
(0.38741 2.55951 1.91832e-16)
(0.00759157 0.372021 2.45604e-16)
(0.388438 1.47602 5.08095e-17)
(-1.50652 1.13731 2.6596e-16)
(0.0613298 0.683854 0)
(-2.10994 -0.429367 -1.52798e-16)
(-1.83493 0.0143991 9.61523e-18)
(-0.00331922 0.0494279 1.91942e-16)
(3.30179 -0.120037 -4.51897e-20)
(9.77893 0.0416184 0)
(1.46061 0.0903149 2.26951e-18)
(-0.322037 -0.260594 -5.2341e-17)
(-0.139363 0.915533 2.12462e-20)
(0.0863257 1.3697 1.94651e-16)
(0.363326 5.01196 -1.50287e-16)
(0.158964 6.27769 4.55314e-16)
(0.32001 1.16778 8.39637e-18)
(0.547692 2.18342 -2.0006e-19)
(1.41519 -0.171756 2.33712e-16)
(0.820701 0.0100566 0)
(-1.82786 -1.26333 0)
(0.353428 -0.354996 -3.86583e-17)
(6.64183 0.782268 -1.33984e-19)
(2.35399 2.34829 2.37031e-17)
(8.94948 1.6509 -6.16343e-18)
(10.3685 0.582418 3.48513e-18)
(0.963662 0.232232 0)
(0.572683 3.22163 0)
(0.462518 1.34715 2.14482e-16)
(0.100733 0.488717 2.54544e-16)
(8.72855 0.497508 -4.79725e-16)
(1.51299 0.672703 0)
(0.963436 0.165973 0)
(-2.08248 0.131799 2.27684e-16)
(-0.0214541 0.147332 1.65244e-18)
(-0.584516 -0.883414 -1.74652e-16)
(0.0993187 -0.1111 2.29845e-16)
(0.451451 -0.770147 -9.83474e-17)
(0.124073 7.22529 -3.05365e-17)
(-0.21901 7.07221 -1.60604e-17)
(-0.0169104 -0.135866 -3.11375e-16)
(9.89007 0.184248 -7.11995e-17)
(9.27745 -0.153201 3.62959e-18)
(-0.157523 0.64332 1.67371e-16)
(0.186665 0.985804 -4.15125e-17)
(1.32176 2.57495 -1.11043e-17)
(-0.269786 8.1751 -1.46067e-16)
(-0.204957 0.0109009 1.14408e-15)
(0.0190907 1.09917 7.15925e-18)
(0.0978221 0.584798 0)
(5.3776 3.66926 7.28392e-17)
(0.248594 1.20679 1.15184e-16)
(0.0492399 1.09853 3.34231e-20)
(-0.980008 2.52286 1.86007e-16)
(-0.51534 -0.248237 0)
(10.8782 0.0544019 0)
(-0.86172 -1.77994 -5.73945e-17)
(-1.42345 0.38762 0)
(0.425608 -0.706204 8.58806e-17)
(10.0217 0.0729951 -1.12368e-16)
(4.41318 -0.0496938 8.2688e-17)
(-0.45502 -0.00261423 1.33813e-16)
(6.62299 -0.00138212 1.03376e-16)
(-0.0602759 1.07818 8.61324e-17)
(-0.690355 -2.55494 1.98785e-16)
(0.175173 1.63648 2.02893e-16)
(0.772382 7.81621 -1.00683e-16)
(-0.735838 0.84385 -7.81622e-17)
(-0.589237 -0.206964 0)
(9.67978 0.897566 0)
(0.765108 3.42893 -2.79557e-16)
(-0.293117 -0.349586 -2.12061e-16)
(-0.0265846 1.16236 6.97132e-16)
(0.810457 5.4617 -2.84481e-17)
(0.441533 0.0230049 0)
(0.753849 0.0511066 -4.77191e-16)
(0.349917 1.52418 -1.76848e-16)
(0.0247728 1.04228 1.72864e-16)
(0.753932 -0.307444 0)
(-0.385524 2.77724 0)
(0.0441462 1.11279 0)
(0.184762 0.94565 -1.88057e-16)
(0.485234 2.39934 7.62394e-18)
(9.651 2.94036 -2.74262e-18)
(0.61405 -0.0512912 0)
(5.14422 1.23803 0)
(-0.318117 -0.407221 -1.03559e-16)
(0.961427 7.79091 7.22386e-17)
(0.253665 0.61113 0)
(0.527895 0.15786 4.58758e-16)
(0.403038 -0.0373508 -1.02929e-19)
(-0.0476335 0.285248 -1.87576e-16)
(1.06597 -0.2859 0)
(7.79067 0.627189 -6.88058e-17)
(-1.60703 0.702618 -1.68271e-16)
(0.518496 2.99006 8.19039e-17)
(0.141537 3.89908 0)
(0.964006 4.19467 -9.91691e-18)
(9.92185 0.279595 -2.1447e-17)
(1.96415 3.03698 -4.24876e-18)
(-0.41264 5.77136 -1.40499e-16)
(0.990254 0.238386 -2.74745e-16)
(0.52984 4.07096 -4.56936e-16)
(-0.2124 6.37732 6.70719e-19)
(0.290112 6.95501 4.85623e-17)
(2.54401 2.53796 0)
(11.2708 -0.25957 2.06999e-17)
(-2.62339 -0.249933 1.52657e-16)
(8.6252 0.849566 -1.27171e-16)
(-0.314529 -0.00332727 1.92242e-16)
(-0.0467466 6.08983 0)
(-0.06188 7.44166 -5.1143e-17)
(-0.191995 4.73886 2.02141e-16)
(1.00952 0.0299031 -7.70199e-18)
(0.00828289 1.42508 5.73049e-17)
(0.491765 0.667444 7.10082e-18)
(-0.191733 6.21935 -3.24088e-17)
(0.208523 6.63191 -3.14896e-17)
(1.97297 8.70908 6.05616e-17)
(0.26265 0.140708 2.06506e-17)
(10.123 0.170073 0)
(1.00388 -0.387147 4.76197e-16)
(-1.17504 0.148449 -1.00509e-16)
(0.587022 0.0302436 -3.81735e-16)
(7.21692 0.60747 1.82143e-17)
(0.119578 6.66434 -4.94633e-17)
(-0.13822 6.41982 2.1726e-16)
(0.605343 -0.491232 -1.55015e-19)
(-0.4039 0.076231 -1.28495e-16)
(0.935961 7.29689 0)
(0.661114 -0.178453 0)
(-0.0938801 -0.209549 -2.21235e-17)
(-0.479039 0.328061 0)
(2.63806 4.64012 -6.42211e-17)
(3.9032 3.46565 0)
(0.966611 6.20318 -1.64882e-16)
(0.970101 1.37195 5.83991e-17)
(1.37914 -0.0217849 3.71729e-16)
(0.937329 -0.161985 5.26006e-17)
(6.96172 0.630887 -1.61612e-17)
(3.80194 -0.00622739 -2.48821e-16)
(7.55963 0.1331 -3.12057e-16)
(2.85783 0.628679 0)
(0.219549 1.01257 -8.82028e-17)
(4.96635 2.85318 1.72207e-16)
(3.47206 1.59229 -7.90147e-17)
(0.0365578 0.0204372 -3.91129e-16)
(0.265102 0.959321 6.36254e-16)
(0.0174931 1.09526 3.65119e-17)
(0.512223 -1.25809 -4.32303e-16)
(0.570351 2.38005 5.70489e-19)
(0.919537 1.08258 -2.58947e-16)
(-0.656582 -0.069703 1.97097e-16)
(-0.235047 0.621212 1.02639e-16)
(0.0133332 1.46436 0)
(0.175397 0.446791 -8.49239e-17)
(-0.402028 0.661356 -8.555e-17)
(0.128684 0.925711 3.29892e-16)
(-2.13152 -0.3793 -8.29506e-17)
(1.30116 9.58106 -3.47441e-17)
(10.6435 0.424878 -7.79495e-17)
(-2.02809 0.142665 7.96579e-17)
(0.568734 2.73066 -5.76683e-17)
(-0.312627 0.525039 -1.56717e-16)
(8.60537 0.15127 3.79815e-16)
(3.85033 -0.126534 -2.58003e-17)
(-0.00156602 7.31976 3.42316e-18)
(3.90214 -0.16547 2.70043e-16)
(-0.109101 4.65281 -1.99457e-16)
(0.121625 5.36562 9.64489e-17)
(7.2046 0.325665 0)
(-0.102985 -1.42307 -1.01516e-16)
(-0.022161 0.0280303 3.21788e-17)
(-0.0188777 0.353448 0)
(0.257119 0.759863 -2.07982e-16)
(-0.647692 -1.77047 5.57163e-17)
(0.867555 0.209706 3.13541e-16)
(1.16825 0.378583 3.00297e-16)
(3.62469 0.160058 -4.48112e-17)
(8.72184 0.262882 -1.1903e-18)
(1.57181 2.01514 -1.61097e-16)
(-2.0895 0.198557 2.64169e-16)
(0.692752 -0.848007 -3.38006e-16)
(0.00580688 0.286182 1.24082e-16)
(-1.96407 -0.38473 0)
(0.0152273 0.653057 -1.28052e-17)
(-1.97546 1.16886 -2.91013e-16)
(0.262954 1.42021 -2.06374e-20)
(0.0256855 5.68879 3.05229e-17)
(0.139124 5.27324 -3.32233e-18)
(-0.148176 4.80767 -1.2965e-16)
(0.366365 6.18015 3.16082e-17)
(1.94309 4.43922 -1.55092e-16)
(6.87981 0.308852 7.6566e-17)
(0.96153 1.55511 0)
(10.4672 0.881925 0)
(-1.54232 -0.067897 4.1789e-16)
(-0.695012 0.419553 6.05953e-16)
(0.0845144 6.60318 1.51525e-16)
(-0.0749789 6.5507 -1.46068e-16)
(-0.882107 0.279958 1.35399e-16)
(1.03188 6.41983 -4.39558e-17)
(-0.180114 0.398235 5.48445e-17)
(0.02116 0.615316 2.56639e-17)
(0.372807 -0.123849 1.6298e-19)
(-1.78433 -0.737206 -5.88787e-17)
(-0.364586 -0.478503 -1.14828e-17)
(0.591999 2.68961 -5.82982e-17)
(3.1344 -0.0807483 -4.47931e-16)
(0.459606 3.9149 7.36094e-18)
(-1.59212 -1.48428 1.35477e-16)
(0.0821027 -0.06386 0)
(-0.0519867 -0.105986 0)
(-0.0365793 4.41911 0)
(0.698861 5.93853 2.54663e-16)
(1.09642 9.51298 2.28869e-16)
(0.0467292 6.78271 2.47504e-16)
(-1.08611 -0.4359 3.77877e-17)
(5.74916 3.21283 -4.34598e-17)
(0.304121 0.106052 0)
(0.232 1.07713 9.47577e-17)
(-0.0466875 0.185577 4.13139e-17)
(10.5318 0.0601398 -8.11652e-18)
(-0.863664 -0.190067 -1.09979e-16)
(-1.61937 0.355343 3.50999e-18)
(-0.787644 -0.199987 -1.68104e-16)
(8.84875 0.381529 -2.18068e-17)
(0.45043 2.22097 0)
(3.31795 1.12102 -3.81911e-16)
(3.93726 1.03849 2.02102e-16)
(-1.92624 -0.149618 0)
(-0.114306 -1.70177 6.73649e-17)
(1.28129 2.21894 -2.76259e-16)
(8.47953 0.144047 0)
(1.53591 5.60203 -5.20414e-16)
(0.185217 5.99967 -1.4037e-16)
(0.23345 3.17112 0)
(1.1071 0.533305 0)
(11.385 0.283823 4.73455e-17)
(10.3555 0.389242 3.64646e-17)
(8.58472 1.0021 2.07302e-18)
(5.17956 2.09283 -3.99558e-21)
(0.277288 2.24924 0)
(1.33717 0.57888 2.16024e-16)
(2.16565 7.8005 -2.88579e-17)
(4.19968 -0.0770933 0)
(0.641056 -1.02501 -4.39733e-16)
(3.02451 2.4887 2.33698e-17)
(0.604881 1.67079 -1.26694e-16)
(9.31733 0.971492 -5.57281e-17)
(10.863 0.0445826 8.45123e-17)
(1.63689 1.77658 -1.96507e-16)
(9.87518 0.439589 -1.68611e-17)
(0.0950489 6.79076 1.6826e-16)
(0.725301 9.94702 3.90404e-17)
(0.527623 6.62451 -1.15068e-16)
(6.61161 3.52757 0)
(-0.91907 -0.423278 1.57002e-16)
(-0.336777 -0.663142 -1.98485e-16)
(0.957345 0.151818 3.45145e-17)
(-0.056575 0.0815317 1.45843e-16)
(0.0542299 7.85904 1.05775e-20)
(-0.0409699 6.81723 2.2871e-19)
(0.538494 5.83531 8.06753e-17)
(0.240602 0.450998 0)
(-1.13314 0.186702 0)
(2.45538 -0.63619 8.79012e-17)
(0.329374 0.870532 1.85513e-16)
(-0.0521621 4.9376 -1.23826e-16)
(-0.041107 6.08529 -3.54314e-18)
(-0.236206 2.28524 0)
(0.714209 1.31807 -4.16533e-17)
(10.0876 0.111627 9.29107e-17)
(-0.0304878 0.512191 0)
(0.460876 0.998789 -4.58759e-16)
(-2.07537 -0.69939 6.42488e-17)
(0.238524 -0.152811 2.94874e-16)
(0.113415 6.93501 6.64121e-17)
(-0.182198 6.79869 1.60852e-16)
(9.5676 1.00903 0)
(0.211873 7.03688 -4.06818e-17)
(0.0339227 6.83025 -3.4218e-17)
(9.49276 1.2298 -1.02821e-16)
(0.443848 0.884112 -7.89227e-20)
(7.22075 2.11505 7.1004e-18)
(-0.183542 6.10611 1.13325e-19)
(0.0258693 5.76247 0)
(-0.0229623 5.29109 3.30675e-18)
(-0.196296 4.67937 -1.12223e-16)
(0.636893 5.91767 -3.88067e-17)
(3.51644 4.0126 1.54051e-16)
(0.333342 1.31382 4.58499e-17)
(-0.0571197 6.40523 2.44595e-16)
(0.00283707 7.70518 0)
(-0.257923 5.2691 -1.5338e-16)
(0.314233 1.89312 3.072e-17)
(-0.419342 -1.55653 -1.34886e-16)
(-1.00291 0.544819 6.65576e-17)
(0.0471695 0.202711 4.93109e-18)
(0.0182297 1.07105 1.3325e-16)
(-0.0354019 0.497626 0)
(0.93993 3.98977 1.31014e-17)
(-0.127341 1.419 -2.34953e-17)
(0.528312 0.0192824 -1.31893e-16)
(8.58177 0.57854 -8.02111e-19)
(-0.436705 1.99086 -3.80907e-17)
(0.0483438 0.909608 -2.55837e-16)
(0.320731 1.2563 -1.8641e-16)
(-0.181253 5.95923 -2.44105e-16)
(0.369676 6.82164 0)
(0.556622 0.146403 2.60769e-16)
(-0.203185 6.07095 1.03999e-16)
(0.345176 6.60317 2.43851e-17)
(-0.19268 0.152923 -9.84943e-17)
(3.45789 3.50113 -1.62255e-16)
(-0.781556 -1.3124 5.31291e-16)
(-0.524455 -1.2238 6.25949e-16)
(0.690248 0.414197 -3.12195e-16)
(0.458401 6.22346 2.46781e-16)
(0.156799 1.61887 -3.64141e-16)
(-0.88287 -0.382827 -2.0641e-16)
(-0.0984885 1.08174 -1.29682e-16)
(1.0921 9.81946 0)
(9.84174 0.118582 0)
(-0.00158273 0.0779781 -3.15714e-16)
(-0.254959 -0.277721 2.21649e-16)
(0.313421 -0.662903 -7.4336e-17)
(-0.0127814 0.618369 0)
(-0.372547 -0.422153 1.24057e-16)
(0.497923 -0.0158052 -3.02619e-20)
(0.684986 0.319088 -6.59849e-16)
(3.87604 0.0655339 2.43704e-16)
(0.917038 4.87209 1.24717e-16)
(0.0717411 6.31316 -3.18668e-16)
(0.565894 -0.767058 4.27641e-16)
(0.0386045 0.643003 -1.95925e-16)
(9.59305 0.970804 -1.45503e-17)
(0.580782 3.331 2.21583e-16)
(1.493 -0.307628 1.75356e-16)
(0.931751 0.210677 0)
(-0.901816 0.747071 5.90097e-17)
(2.04475 1.30668 -7.79805e-16)
(0.090672 0.691726 -2.76077e-17)
(-0.000966433 1.07096 3.09365e-16)
(0.334915 3.13814 2.5628e-17)
(8.31151 0.562571 -1.2511e-16)
(10.6008 0.373507 -2.9152e-19)
(-0.514306 -0.203076 1.92304e-16)
(11.057 0.0546576 0)
(-0.247484 -0.348773 -5.3394e-18)
(-1.39934 0.0465012 2.24377e-18)
(-1.74333 -0.637541 -1.58354e-17)
(-0.0131061 7.32826 3.96389e-17)
(-0.0680396 6.04098 4.60584e-17)
(0.0204993 4.878 1.92265e-17)
(10.5153 0.0420562 1.53966e-17)
(-1.02868 -1.47729 -7.12544e-19)
(-0.0368013 6.91553 -5.21758e-17)
(-1.42745 -0.0426413 2.24737e-21)
(0.889616 -0.458346 0)
(8.71338 1.55162 -4.94276e-18)
(-0.689001 0.292701 0)
(-0.0322297 0.303819 1.06558e-16)
(-0.823964 0.307947 8.88015e-17)
(0.0365003 0.656848 5.48685e-18)
(0.57999 0.260643 2.62511e-16)
(-0.0532425 0.272944 4.06997e-16)
(9.32774 0.649656 -1.9097e-17)
(0.306243 -0.577137 2.76747e-16)
(0.0223188 -1.05327 3.23352e-16)
(9.51257 1.16752 1.0561e-16)
(9.73697 0.31437 4.42084e-17)
(5.6086 3.21922 2.93261e-17)
(0.153891 6.47384 -4.96508e-17)
(-0.0851931 6.23794 2.77214e-17)
(0.223877 2.39767 1.36786e-16)
(0.103755 1.79497 0)
(3.99012 0.689736 5.06565e-17)
(5.55 3.01467 9.19491e-17)
(9.39541 -0.335628 -2.05005e-17)
(0.466938 0.791121 1.26132e-16)
(0.568879 -0.734697 2.56974e-16)
(0.0797912 0.0682527 0)
(8.74994 1.78726 0)
(0.532757 2.56963 0)
(0.0758051 0.864703 4.05574e-16)
(-1.59345 0.26125 7.19195e-17)
(2.11439 4.18253 2.34695e-16)
(0.297987 5.16362 3.13108e-17)
(1.36161 8.10366 -5.51024e-17)
(0.124939 0.192742 0)
(-1.23732 -0.41354 8.82897e-17)
(0.323226 5.49307 -1.41878e-16)
(-0.0250519 0.26639 -9.00196e-16)
(11.2504 0.116765 1.03166e-16)
(5.55181 1.13387 0)
(-0.293409 1.2405 1.87107e-16)
(1.0065 6.36373 0)
(-0.231598 -0.287876 1.70846e-16)
(-1.49835 -1.26248 -1.97823e-17)
(0.880566 10.7425 5.91147e-17)
(9.83619 1.16389 -1.4412e-17)
(9.83649 0.759794 1.09974e-16)
(-1.18637 0.0843355 0)
(1.28851 3.35604 -5.51737e-17)
(-0.433268 -0.0248138 0)
(8.48225 0.325343 0)
(0.712034 0.35199 -1.43124e-16)
(-1.33173 -1.61287 1.92238e-17)
(-2.81473 4.63263 -1.39084e-16)
(2.77016 0.775504 -1.32371e-16)
(-0.076568 0.331303 2.48065e-16)
(10.2746 0.106869 -2.34599e-20)
(5.82453 3.47773 -8.35785e-17)
(0.145385 -1.35855 -4.15952e-19)
(0.0415219 6.15352 6.23114e-17)
(-0.0675361 5.88632 -6.04885e-17)
(0.592232 2.56148 -1.23035e-16)
(1.19439 6.02997 -2.67686e-16)
(0.455314 1.8975 -1.28885e-17)
(-0.260026 1.04153 -3.66413e-16)
(0.0590137 1.45617 -2.02776e-16)
(0.0819377 1.43283 6.33307e-17)
(0.838419 -0.324546 2.14271e-16)
(-0.145846 0.175259 -3.09142e-16)
(0.0564776 0.829555 -5.81398e-16)
(-0.327332 0.935978 -4.07091e-16)
(6.81675 4.12425 3.22999e-18)
(0.366818 0.902229 6.18497e-16)
(10.0658 0.046495 -6.79635e-17)
(0.763019 0.0393021 0)
(-0.290335 3.07481 -6.17573e-21)
(3.43927 -0.951914 -1.23557e-16)
(-0.164926 0.799472 0)
(10.0721 0.459412 4.24596e-17)
(-0.484636 0.047716 3.27454e-16)
(0.357118 0.0106804 -2.95077e-16)
(9.59198 2.40161 0)
(0.0817521 7.41978 6.21955e-21)
(-0.261802 7.16449 0)
(10.0229 0.0967835 0)
(0.651808 0.348943 -5.27131e-17)
(10.0543 1.67855 -5.49564e-17)
(8.81111 3.90081 -1.98913e-16)
(1.12968 7.50739 2.2718e-17)
(7.1494 2.13661 -1.14279e-16)
(-0.026207 3.57257 -8.4205e-17)
(0.0178913 3.76685 4.46767e-20)
(0.0341974 3.94818 -8.25997e-17)
(0.00300449 0.322532 0)
(-0.0847014 2.44041 1.24363e-16)
(0.00550307 -0.552655 0)
(0.240009 1.66869 0)
(0.372322 1.42626 0)
(0.30742 -0.661474 -2.18953e-16)
(-0.298738 0.863894 0)
(-0.0141267 0.754471 1.37326e-16)
(2.86113 2.67976 -2.9505e-16)
(0.546415 3.70618 0)
(0.0352321 4.66265 1.80835e-16)
(-0.186002 6.26309 -2.64744e-17)
(-0.0375614 7.87926 7.91677e-17)
(-0.0852562 6.71844 -4.51112e-17)
(0.800311 2.19872 2.5605e-16)
(9.34406 1.08991 -2.90538e-17)
(0.0632492 0.715289 2.37859e-17)
(-0.10977 1.00282 -8.58498e-17)
(-0.506199 1.01155 0)
(0.92646 -0.561664 9.37807e-20)
(4.38099 2.04669 0)
(0.524855 -0.058669 2.62337e-21)
(3.38601 0.129046 -5.1137e-16)
(10.0412 0.0577136 3.735e-17)
(0.0133849 7.03528 1.27145e-16)
(-2.39033 2.50855 -3.17974e-16)
(0.185706 1.54741 0)
(-0.0468476 0.961348 1.01428e-15)
(4.62283 2.9649 -3.55242e-17)
(11.5065 0.428367 0)
(9.7834 0.222631 2.65361e-17)
(1.46465 2.16108 1.33878e-17)
(9.21536 0.265674 0)
(4.22498 3.73564 1.16992e-17)
(-1.34453 -0.529735 -4.69014e-17)