/*--------------------------------*- C++ -*----------------------------------*\
| =========                 |                                                 |
| \\      /  F ield         | OpenFOAM: The Open Source CFD Toolbox           |
|  \\    /   O peration     | Version:  v1912                                 |
|   \\  /    A nd           | Website:  www.openfoam.com                      |
|    \\/     M anipulation  |                                                 |
\*---------------------------------------------------------------------------*/
FoamFile
{
    version     2.0;
    format      ascii;
    class       volScalarField;
    location    "0.3";
    object      epsilon;
}
// * * * * * * * * * * * * * * * * * * * * * * * * * * * * * * * * * * * * * //

dimensions      [0 2 -3 0 0 0 0];


internalField   nonuniform List<scalar> 
1431
(
27.4107
17.1166
48.0919
12.6809
1.45396
5.32958
7.82415
164.813
2.1943
6.33257
125.661
122.985
35.2972
4.86594
1.31197
8.08463
5.50457
13.9608
7.93585
16.151
265.453
6.40952
1.38736
110.684
1.65302
49.2962
81.979
4.83161
61.7405
32.4423
43.7859
44.8477
40.1926
2.08304
3.88612
9.92073
47.2126
1.14079
21.0688
52.3116
109.928
74.6028
42.2909
14.2066
5.26676
2.47153
4.83219
68.4381
8.6524
3.38094
30.4177
19.8912
13.1497
173.353
9.77762
32.572
1.79544
156.364
6.34168
5.79521
1.37548
9.68815
1.26843
0.928961
28.3663
5.73232
30.559
1.9516
1.70595
11.9122
106.698
2.78325
9.45226
1.98046
6.52297
2.45787
42.6417
18.4866
6.58811
12.564
5.90322
16.7375
9.41026
4.26559
38.0229
20.4325
6.55455
1.18395
22.0633
16.7424
1.76277
1.29134
1.90392
10.5537
5.78807
33.2979
166.61
19.7825
12.9475
39.771
22.991
12.9317
5.26678
12.7981
30.672
32.1253
48.6809
108.566
1.20203
5.34828
13.0436
32.1128
38.2261
96.8421
11.0131
1.77463
4.40057
11.8554
15.5289
1.13686
18.3229
1.46746
132.978
8.96569
73.4749
6.72126
42.5109
0.987484
38.064
5.40737
7.83364
19.6136
5.97702
10.2618
25.4668
1.27417
18.5014
7.9545
41.3103
1.27034
21.6856
30.7485
6.87853
12.5213
2.02891
38.5822
1.65098
16.8532
7.12478
5.37855
1.49235
1.85565
50.0344
16.8665
43.1554
2.73494
30.988
21.9093
13.4199
7.42759
37.7681
36.3905
7.21316
5.53862
97.1492
60.6487
87.8127
6.20169
1.83802
15.1489
28.1159
11.0804
49.3446
39.0684
19.0198
29.8117
5.2368
5.7279
13.3601
4.27325
7.26084
26.0218
18.625
242.034
5.2887
95.9433
102.657
20.6981
34.9018
29.4932
29.2941
34.863
34.3798
168.763
14.0822
19.9977
24.7915
6.66212
1.4992
2.17936
19.6419
6.8129
80.8596
5.75103
25.7932
30.5888
39.0802
3.51316
52.2006
6.95414
54.1401
8.25348
44.8977
34.5548
41.1334
51.4388
34.4714
8.01232
27.1274
73.5482
44.2339
17.9825
10.4021
6.17489
46.7171
82.9301
93.6902
16.7815
47.5181
51.0272
97.4365
42.7707
27.78
39.0194
44.9198
24.6355
40.7933
34.5981
29.6938
17.5048
9.07935
15.9753
64.0528
33.6068
34.0115
33.3778
33.7182
81.7277
46.7163
2.62232
0.891569
34.0167
7.41173
6.25482
29.7902
101.218
7.4094
115.958
27.646
33.2142
52.6545
38.3231
21.2217
5.00966
52.5579
90.2786
6.61077
283.495
65.6228
1.91967
1.6762
37.4881
15.4931
17.7407
39.5695
48.9497
39.274
36.9416
59.6417
60.9682
8.37324
58.3009
37.1875
52.549
8.03272
15.6841
105.326
23.4301
40.1852
21.1622
1.65033
8.98648
23.3779
14.6044
36.6253
49.4659
134.743
109.272
39.7244
66.0971
12.3439
70.1861
14.4152
25.5799
41.3574
7.4253
21.8049
34.6629
69.7572
14.1267
17.587
6.20099
6.13367
92.9959
2.9537
24.326
5.50908
8.87513
3.92765
701.509
20.1159
22.5048
31.4767
19.1494
3.96784
60.2269
38.2239
11.4611
188.597
6.14323
83.7484
2.50178
7.14864
7.85705
8.01083
29.3063
31.4405
22.0728
3.9647
69.3113
47.0195
33.018
13.711
95.0106
2.06876
24.6882
19.6653
35.0969
13.4367
17.6042
10.533
13.3991
16.9744
13.9732
8.55862
25.8463
42.3334
43.0185
30.8175
106.958
6.48237
79.1437
74.4925
13.4491
2.00057
31.9693
3.291
367.463
47.1572
25.8519
106.567
1.30011
21.9099
17.6452
94.1613
189.559
17.8119
7.33115
20.2634
256.173
40.2231
4.25393
16.2111
9.81559
617.05
2.81487
9.41112
2.76462
5.55083
19.1103
10.5556
6.12563
6.20435
7.37088
31.4261
14.1461
18.2378
20.8752
5.28738
4.07717
12.2101
78.9964
26.9795
89.2523
58.2116
9.97709
5.53776
3.30337
7.08033
8.24903
15.1785
4.23097
7.09001
44.2659
3.33724
23.2776
13.2959
4.83599
4.09664
6.31872
61.2548
37.5318
46.3259
12.8664
5.89741
1.46986
10.0935
19.2181
22.1756
74.539
35.1331
33.5376
36.7912
33.7074
37.494
37.4549
35.7338
53.0967
38.0299
53.3591
3.05278
42.3113
4.78268
7.48615
17.0073
8.53516
4.13973
3.08911
5.0791
5.97144
5.50819
2.77243
7.19233
7.41665
5.6596
8.51037
6.38456
116.992
3.98342
38.493
5.83537
6.78981
110.075
8.68235
43.4623
4.41337
10.6729
105.908
2.26744
103.092
12.9645
15.8394
8.31662
9.39487
43.1685
37.1464
1.27741
9.93887
8.05967
17.3477
10.2198
10.3195
45.8365
21.7876
20.1015
10.406
6.48181
18.3439
26.0519
25.3029
54.1332
22.9415
22.5001
45.9372
13.0415
7.48117
23.0176
59.6029
47.8152
1.2086
77.5135
60.3503
2.91696
139.611
58.1574
39.5332
2.82918
55.2083
60.0084
1.14466
54.0511
26.6655
7.16768
18.3848
169.106
11.3998
78.7194
47.9193
34.4622
43.657
4.51583
67.755
1.13577
7.02758
48.5978
12.4214
55.6263
53.9947
4.46535
5.11999
21.1437
34.0399
35.4941
77.3108
46.8315
14.9742
11.7661
20.6466
43.9529
2.21938
15.0343
115.218
31.9932
64.1491
1.20514
6.38979
19.2125
25.0518
16.4367
61.864
14.142
128.531
57.0563
5.00823
1.71596
79.3565
12.8423
76.4977
22.1641
365.33
63.3992
45.4991
21.5767
22.7573
574.58
37.804
19.5771
5.83693
50.0058
64.2358
8.57895
22.4364
39.9916
71.1791
72.5806
7.28799
10.618
4.14657
35.3156
29.4774
9.55303
18.116
4.61643
11.1834
11.2991
37.8373
34.0342
51.7885
84.8954
1.13622
37.8147
14.7788
29.0476
25.9128
52.3083
31.5297
17.016
9.21348
22.3675
44.3391
31.1558
32.1977
4.4685
36.416
9.53915
4.1701
116.404
10.847
14.39
4.4523
11.7745
35.0123
6.68932
36.1828
3.63965
17.1525
44.9531
7.54254
27.8777
4.34723
12.6007
21.0843
59.8957
5.04129
24.1407
12.5149
34.7083
1.01633
11.1869
12.2666
22.4262
20.9136
20.6431
39.311
8.11345
8.92372
139.116
12.1332
1.89973
18.9931
7.69279
25.1608
15.3543
4.32801
3.57634
27.57
8.57532
4.46783
70.0012
16.0543
47.1475
83.5609
3.61581
9.59388
2.48439
4.24982
1.6607
13.8627
15.8514
26.0587
34.5964
24.638
38.5588
16.076
71.45
38.3484
16.6031
20.552
16.2069
16.7474
5.87883
6.88357
64.7391
51.6863
39.1969
22.8065
67.3195
7.502
5.0824
17.9011
18.6648
36.2489
14.2411
63.9387
9.59214
29.2962
38.4769
1.335
2.05143
7.41505
86.2599
44.244
16.9541
7.1581
7.27158
40.1482
11.9808
4.16386
7.54769
19.6517
9.29186
10.919
10.8846
7.14261
1.15461
70.7602
4.22546
10.4696
17.773
3.1569
2.90823
20.5318
29.1392
49.4836
66.0571
82.9594
48.6138
1.73614
18.8669
3.45663
52.1835
31.6328
33.0092
14.6784
77.2662
5.10486
61.7644
45.9575
98.2219
181.593
5.8719
10.1708
20.3124
16.484
109.179
37.8982
8.88588
14.0983
63.7812
13.0375
36.4686
2.33708
17.3574
4.17007
32.561
6.51897
6.90639
10.6971
4.31348
9.86243
43.5062
17.0408
5.55781
11.2527
176.627
5.07686
28.8402
11.4926
4.81975
16.4352
168.495
114.022
38.8526
5.86385
2.73683
51.7122
11.2292
9.10958
4.69831
13.0333
59.1096
29.7941
6.25046
6.74602
10.0901
29.3181
7.76184
33.019
10.8503
11.4239
13.9634
26.2061
13.1303
1.40067
7.7934
42.6187
4.16779
16.2684
49.758
20.1253
63.2982
11.0898
38.432
17.1642
35.0212
7.78079
20.3077
30.936
21.7211
23.591
51.1398
7.1809
1.4926
30.6977
34.3993
682.245
33.514
3.37907
35.2547
4.30081
394.093
5.47288
19.6353
35.8515
78.6567
130.794
35.6496
1.77262
42.52
2.43817
1.78947
72.2391
10.9199
40.6913
8.34644
38.0392
74.777
28.7346
1.72059
36.2551
52.7179
16.3774
66.1458
49.0313
15.9408
171.205
7.51046
40.3316
12.7569
66.2068
16.8124
15.0118
9.0347
39.4126
6.33788
26.9357
29.7709
214.153
31.8437
31.5452
48.1503
26.8298
29.7888
14.4448
32.2208
5.95701
5.40278
5.0973
34.7822
19.0209
16.6818
14.5923
4.82443
21.7204
35.8716
3.52282
36.048
6.55097
33.6051
3.32184
46.2373
586.534
16.007
5.46557
5.58523
11.9423
7.28251
1.23098
3.02012
2.20287
101.52
19.7561
4.37917
83.1946
454.077
152.006
144.521
76.9967
45.611
51.5249
58.7298
55.3735
85.564
42.6298
39.6511
36.9411
38.4565
43.628
61.8135
93.4265
41.334
43.2752
49.0428
37.6681
41.7737
41.2515
35.2908
41.0203
40.8019
33.6776
40.1144
37.9392
27.2392
5.18284
30.7992
4.45324
6.55869
4.75625
69.7851
47.866
26.4566
4.34909
1.17273
31.7443
190.996
14.8177
7.1251
30.9035
4.17747
36.0393
4.77788
6.15433
152.974
1.44267
38.7404
3.73897
17.0581
6.72692
39.2653
28.6293
46.8464
6.10099
38.5368
38.4839
21.1204
19.5698
43.1523
1.652
16.9572
2.12216
22.0702
11.9354
61.3121
32.2521
55.0955
14.6188
45.9232
5.77061
5.33885
64.8689
53.7691
32.5848
24.838
9.62895
1.55607
8.44895
7.78084
14.1028
40.8695
1.25962
8.67082
9.96662
24.9115
71.4423
2.28802
6.656
10.0044
31.2607
7.12023
735.622
5.20986
32.3768
26.3325
173.947
7.43642
19.1204
10.4314
6.78568
13.1952
1.00665
47.4699
6.57774
25.9346
408.885
52.8424
39.4185
6.08416
18.201
38.868
10.1469
54.0234
26.5364
1.05117
57.0934
51.7499
26.7389
106.123
68.6557
19.6017
1.70316
13.3885
2.00602
61.8215
25.3258
4.46842
18.206
15.4395
24.9601
5.50201
17.3309
43.2193
432.28
6.30946
62.2809
33.9598
5.27514
11.1653
180.703
32.4752
4.00124
41.7182
37.1092
32.3982
19.321
5.06096
45.7666
4.43361
19.1759
29.1479
83.2816
15.8402
9.51317
26.6303
11.2897
22.6885
19.02
89.4702
46.4258
139.497
42.4395
14.1486
58.242
3.57097
5.05314
19.3581
8.04752
13.5395
6.50857
4.93244
64.243
3.86791
25.047
71.7674
39.7901
13.7194
31.3529
37.1147
38.9404
3.32281
40.2911
40.9842
35.7401
38.1645
42.3746
26.678
29.3684
33.1319
40.1657
44.4652
45.4662
37.3384
44.5704
10.1553
14.3306
17.2896
10.8972
13.7196
15.8401
19.8703
4.35137
61.968
44.9677
36.7152
33.7749
6.46327
22.8194
2.13369
7.56477
8.49462
23.6082
35.6911
5.07568
7.95836
2.54063
1.16158
5.83034
25.4501
46.0789
3.4698
37.4636
12.8137
15.5419
563.628
36.586
23.5803
1.28303
7.83075
21.0453
36.6082
39.1228
20.3183
5.78945
6.82569
1.1606
21.1572
34.273
6.09128
9.83432
6.51259
8.9114
8.20049
39.3651
8.75549
65.7165
40.3203
9.04862
27.1112
190.338
1.57897
38.7932
77.52
5.44726
29.5306
5.30174
5.42727
4.83717
37.3203
7.46226
4.06568
60.1041
85.3014
68.5743
35.6637
40.6079
0.901079
12.1828
72.7301
35.3587
9.09458
34.0429
59.4762
54.764
12.5523
37.4569
20.7116
57.4434
13.9127
14.5288
34.6119
5.41663
10.0416
89.3916
19.6827
40.7778
33.686
9.65285
4.64509
54.7746
27.6019
54.3649
136.46
61.3833
3.65071
8.8158
5.91872
2.15362
42.0339
70.3506
57.9807
16.9157
9.62133
11.98
119.729
11.5034
56.8738
39.3909
4.43485
5.71991
200.958
1.34256
4.35002
11.5298
7.2097
10.7792
58.3639
16.0889
56.4021
36.491
21.9199
2.80074
28.2354
57.0551
8.62697
9.07366
11.2767
7.58479
7.74601
18.6179
37.4444
28.3625
3.92775
28.7532
9.49369
49.0155
14.0604
7.70246
13.3327
3.32491
21.8589
8.82549
447.521
40.8345
5.37604
14.102
43.169
9.9941
6.25623
43.9079
81.8815
1.32099
52.404
2.8396
32.8483
7.55205
2.64877
19.6508
5.39228
20.6115
3.76698
111.148
60.2206
196.214
2.30482
35.4072
3.94081
4.77738
5.32407
2.07273
106.505
4.52008
19.0297
13.781
225.173
5.2277
5.558
6.42408
36.5974
24.6448
8.97065
36.245
24.1908
24.739
37.3197
29.4659
2.76328
5.55272
3.40162
11.1193
126.424
53.8828
61.5285
37.5559
57.5835
1.0247
84.7251
32.8161
40.1215
187.866
13.0168
7.69158
9.01542
11.2062
84.0677
24.0193
51.252
2.28247
175.942
66.3646
34.8301
10.2977
367.187
4.23986
25.2244
2.7213
43.1509
50.1069
5.20496
147.395
16.4319
20.091
5.69641
284.133
12.559
175.771
15.244
39.0081
57.2656
145.005
151.985
43.3606
77.7195
5.55925
14.1828
5.042
56.8983
1.24585
39.7526
7.00448
5.41004
84.8708
262.852
30.1993
9.28419
10.3047
29.4444
19.4737
5.97102
1.6469
173.238
7.37569
5.56787
78.8236
6.58404
3.15983
40.5715
1.03003
10.7505
20.4287
18.455
234.804
19.8913
3.88584
1.2095
1.74828
40.8545
49.7889
3.54655
3.15042
16.7076
49.4881
44.8394
45.8829
17.5487
48.0096
9.73358
48.9256
32.9587
7.45559
19.2659
3.89104
7.3287
21.6772
32.4164
40.4533
36.392
8.74475
11.8598
18.1057
22.5492
4.43927
40.7758
21.6752
29.1935
12.676
44.4931
3.82199
2.12053
32.1726
28.6494
1.67518
20.3355
27.4417
50.0492
27.5964
21.858
4.57345
27.0951
4.68099
14.1959
3.02133
12.7269
1.08904
94.1456
7.04687
83.5475
109.854
78.2672
14.0112
46.9931
6.47178
14.0508
15.6577
31.706
115.461
42.7744
14.1078
2.21013
2.86276
25.1352
66.8436
3.14056
1.41592
22.267
39.7536
5.50851
42.1696
10.6085
8.802
2.0658
1.2149
2.15956
)
;

boundaryField
{
    frontAndBack
    {
        type            empty;
    }
    wallOuter
    {
        lowReCorrection 0;
        type            epsilonWallFunction;
        value           nonuniform List<scalar> 
96
(
61.7405
32.4423
33.2979
64.7391
67.3195
63.9387
7.41505
7.1581
7.27158
11.9808
7.54769
9.29186
7.14261
70.7602
10.4696
14.0983
63.7812
36.4686
7.76184
7.7934
7.78079
8.34644
38.0392
16.3774
66.1458
76.9967
45.611
51.5249
58.7298
55.3735
85.564
42.6298
39.6511
36.9411
38.4565
43.628
61.8135
93.4265
41.334
43.2752
49.0428
37.6681
41.7737
41.2515
35.2908
41.0203
40.8019
33.6776
40.1144
38.7404
61.3121
32.2521
40.8695
8.67082
71.4423
39.4185
106.123
62.2809
33.9598
32.4752
19.1759
9.51317
11.2897
89.4702
38.9404
40.2911
38.1645
42.3746
26.678
29.3684
33.1319
40.1657
44.4652
45.4662
37.3384
44.5704
10.1553
14.3306
17.2896
10.8972
13.7196
15.8401
33.7749
7.95836
34.273
35.6637
57.9807
7.58479
21.8589
24.1908
61.5285
37.5559
12.559
77.7195
84.8708
10.3047
)
;
    }
    inlet
    {
        type            fixedValue;
        value           nonuniform 0();
    }
    outlet
    {
        type            zeroGradient;
    }
    wallInner
    {
        lowReCorrection 0;
        type            epsilonWallFunction;
        value           nonuniform List<scalar> 
126
(
6.34168
5.79521
1.37548
9.68815
1.26843
0.928961
28.3663
5.73232
30.559
1.9516
1.70595
11.9122
106.698
2.78325
9.45226
1.98046
6.52297
2.45787
42.6417
18.4866
6.58811
12.564
5.90322
16.7375
39.771
1.77463
4.40057
11.8554
15.5289
1.13686
18.3229
1.46746
132.978
8.96569
73.4749
6.72126
42.5109
7.83364
19.6136
1.27034
21.6856
6.87853
12.5213
1.65098
5.37855
1.85565
16.8665
97.1492
7.26084
95.9433
102.657
14.0822
54.1401
1.91967
59.6417
60.9682
1.65033
134.743
109.272
66.0971
70.1861
6.20099
6.13367
92.9959
60.2269
38.2239
83.7484
69.3113
47.0195
43.0185
79.1437
74.4925
3.30337
4.83599
139.611
169.106
5.11999
20.6466
115.218
25.0518
128.531
22.1641
72.5806
4.14657
84.8954
14.7788
31.1558
59.8957
20.6431
3.57634
3.61581
1.15461
4.22546
16.4352
5.46557
1.23098
53.7691
59.4762
30.1993
9.28419
12.7269
1.08904
7.04687
109.854
78.2672
14.0112
6.47178
15.6577
31.706
115.461
42.7744
14.1078
2.21013
25.1352
66.8436
3.14056
1.41592
22.267
39.7536
5.50851
42.1696
10.6085
8.802
2.0658
1.2149
2.15956
)
;
    }
    procBoundary3to1
    {
        type            processor;
        value           nonuniform List<scalar> 
48
(
49.8956
122.338
94.5615
57.2966
64.7306
81.3218
122.338
15.6646
29.2082
5.45472
5.45472
9.55824
9.55824
40.2568
48.5891
10.3875
9.50777
7.65101
9.50777
6.88121
19.56
18.0965
6.88121
24.1741
1.66195
7.88538
12.5045
18.0965
12.2717
13.6836
13.6836
13.8744
13.8744
29.2082
8.13486
61.2492
18.0227
1.66195
42.4378
50.4916
40.2568
20.3522
22.7711
6.88121
52.5077
62.3589
59.702
23.3697
)
;
    }
    procBoundary3to2
    {
        type            processor;
        value           nonuniform List<scalar> 
29
(
1.22969
1.22969
2.68785
5.83635
32.5724
2.10992
7.44777
1.74727
5.6104
5.1232
1.96506
28.2057
1.52497
14.9623
6.6596
12.0375
4.6598
6.37711
1.30548
6.7143
5.77234
4.6598
9.89111
6.37711
6.44124
5.00375
6.37711
41.3425
41.3425
)
;
    }
}


// ************************************************************************* //
