/*--------------------------------*- C++ -*----------------------------------*\
| =========                 |                                                 |
| \\      /  F ield         | OpenFOAM: The Open Source CFD Toolbox           |
|  \\    /   O peration     | Version:  v1912                                 |
|   \\  /    A nd           | Website:  www.openfoam.com                      |
|    \\/     M anipulation  |                                                 |
\*---------------------------------------------------------------------------*/
FoamFile
{
    version     2.0;
    format      ascii;
    class       volScalarField;
    location    "0.3";
    object      p;
}
// * * * * * * * * * * * * * * * * * * * * * * * * * * * * * * * * * * * * * //

dimensions      [0 2 -2 0 0 0 0];


internalField   nonuniform List<scalar> 
1431
(
85.161
87.4983
72.8451
84.9911
84.7011
82.1147
88.7749
41.8087
85.5636
88.6715
42.0314
44.1191
89.4082
83.0919
84.9969
87.9269
84.1285
79.7822
85.5134
81.7017
37.5612
83.1038
85.2076
18.4749
85.546
90.6996
47.9401
85.1635
84.268
81.5177
84.154
83.7417
84.0789
82.644
82.6312
93.2612
79.2796
89.323
88.9688
83.7005
84.9218
82.3576
90.7832
87.6881
81.535
84.5363
82.0655
52.3055
88.9866
89.7259
90.8186
88.3117
88.2675
49.1288
87.6983
88.5914
85.5892
45.7131
83.362
84.1641
85.0665
89.1571
90.989
89.7382
90.1056
89.88
76.6317
90.9508
82.951
83.8236
44.6105
82.8474
84.6798
82.4454
83.1871
85.1859
73.6046
91.8639
89.0418
81.1246
83.9159
84.9103
77.2232
82.221
36.7107
86.0903
87.1955
84.5308
52.231
65.3956
85.6673
84.9083
89.196
88.242
87.2326
84.0056
43.1804
79.2262
88.0376
81.7429
87.7826
88.6314
83.5679
82.4449
91.0637
84.7963
83.8668
50.7395
84.9259
83.3345
84.1869
88.0911
73.6122
85.6272
87.0253
85.0859
83.0178
84.7135
86.138
90.4102
84.4387
84.8139
50.2723
83.4134
43.1213
89.8766
73.6551
84.46
71.9675
87.718
84.633
80.827
88.0621
84.931
83.223
90.912
88.3598
88.898
47.22
89.2457
88.5159
83.1424
83.7935
82.615
85.1724
83.9407
91.0721
88.5818
88.596
84.9342
90.9708
84.1933
83.3665
86.8552
83.0266
88.2523
44.8492
85.683
71.6651
87.257
62.3284
88.8821
85.7573
86.8749
49.7438
85.0103
84.9839
86.592
89.6523
83.1387
61.1143
86.4351
84.3194
46.8783
86.6688
44.6171
87.9293
81.7634
89.0416
83.3161
89.2126
88.6145
89.5689
22.121
81.3002
83.1995
46.6993
85.1249
84.7391
49.4516
84.0351
84.0735
83.4768
52.2717
85.4687
83.0704
78.9864
86.6526
82.5579
84.7729
89.5778
85.9395
63.678
87.5648
88.475
84.2055
83.3038
82.745
46.1259
84.6608
42.2799
85.7909
83.5613
85.2303
38.7599
84.6986
83.0839
87.2079
89.768
68.0844
83.4368
89.6263
83.0994
86.339
83.0265
42.4529
64.1218
81.2398
83.3832
66.5283
43.665
84.1375
84.2809
83.729
83.702
67.5866
83.398
85.2669
84.0335
89.5779
88.2245
88.6043
44.8342
84.9888
84.756
83.5663
84.6665
57.5523
83.7893
88.6955
84.2043
51.4633
86.8604
85.855
84.1361
85.7811
86.4805
38.2816
73.6214
83.3236
82.8611
47.5444
89.5473
87.7059
83.296
71.7279
85.8974
53.002
57.5574
85.2226
84.8364
83.007
88.2217
89.3682
59.0697
84.4798
55.7906
80.4263
84.3751
83.1685
85.399
85.2501
83.7156
92.4526
88.3519
77.0493
85.7135
76.7931
42.8528
87.787
82.5432
86.0012
80.9461
86.4792
69.7473
83.0855
45.2978
83.8095
83.1439
84.2081
87.7894
94.9761
88.7383
90.2452
85.5378
86.1429
87.373
83.3622
82.0829
84.8383
80.0821
91.2201
89.5448
51.2596
85.5358
80.2181
85.7326
88.1507
80.9272
30.4056
87.6277
82.2029
83.9853
87.2608
83.0794
72.5463
81.8039
85.896
52.1039
85.6668
85.4073
82.6032
85.9471
83.2772
87.9368
89.8801
85.7608
71.0048
82.1812
50.4152
91.2344
89.2459
76.5159
85.1639
85.1222
84.4961
88.6226
52.9765
80.8664
87.4589
90.3152
82.4305
87.2924
86.3101
83.9414
90.2439
46.6182
43.599
48.5872
84.6132
83.1345
83.0717
84.3472
88.8544
82.0658
45.7946
85.8316
9.8708
83.8273
81.5865
52.0867
84.4606
55.2934
89.1913
86.0802
47.0746
86.0581
88.926
75.5472
43.7972
88.4452
81.5435
89.0961
84.8936
10.6703
84.5971
86.9084
84.7109
86.6237
89.0139
88.4861
85.4521
85.1859
85.8537
69.8077
86.6804
86.6294
86.2779
85.8979
82.9751
84.4611
86.0643
76.4747
85.9632
91.5851
86.1807
82.6934
88.7071
88.3013
86.0856
83.8226
84.1926
85.8036
92.1045
84.4505
82.6487
87.147
88.7513
81.747
85.4387
83.6035
90.2108
91.9695
86.6773
85.0833
84.385
80.92
86.0262
72.5325
27.7428
80.9722
77.9804
80.4387
75.8005
82.2792
84.8156
83.4187
86.4659
86.6399
87.2507
84.0736
48.3844
83.2246
81.6218
80.4618
79.8488
79.7357
80.7988
82.7608
83.2046
82.9565
90.5709
88.9832
83.9658
89.5695
88.3549
83.3099
48.9157
84.0387
72.4417
83.2369
90.6949
49.1268
88.0022
73.9139
91.1351
82.3923
48.8527
90.7802
46.47
87.4154
87.6661
77.0576
83.3536
47.2023
48.6671
90.4494
87.8573
78.8663
88.3024
83.3791
79.2934
46.9595
92.4658
79.4997
83.5646
75.7091
78.9344
71.8751
88.2014
46.6969
90.7149
71.5061
89.7561
84.2283
77.5664
71.9162
46.4428
91.3729
84.9931
93.0516
90.1234
84.2807
97.0151
47.1692
50.7322
83.6878
93.3721
91.0661
84.2901
89.6747
85.5211
80.6938
71.7152
93.3662
84.7966
88.7365
91.0446
84.7505
50.3633
81.6661
92.8831
84.5342
85.6088
90.6503
85.935
47.3379
83.664
84.5702
88.9549
88.8033
93.4455
90.7395
86.6146
86.4975
71.9033
88.9172
93.7443
93.1343
84.9547
86.6992
96.4555
86.1384
93.8417
85.1856
89.0041
89.5695
85.5134
86.6562
86.8787
87.5115
97.9195
86.0093
84.1632
90.6758
85.4033
86.3541
94.9858
91.8022
49.8845
86.6946
51.005
78.8315
88.2053
35.8844
87.6909
89.6132
86.5772
91.7394
85.7337
85.5314
69.7048
87.9506
94.3648
86.0425
88.1435
85.3744
84.3948
87.0744
75.9167
85.8796
77.7215
81.3445
86.5006
85.4355
83.7109
84.9393
93.6912
87.0595
84.3611
89.0226
86.2795
91.1514
89.429
83.8375
86.7764
84.1274
86.774
82.9426
46.6229
74.7145
91.8074
84.6671
90.664
83.8834
82.2016
19.3794
82.2918
88.6698
81.9882
85.6111
89.3784
85.3105
88.9072
84.4056
85.7946
42.0512
87.623
79.9736
83.7108
86.1017
88.6739
87.7915
84.2289
88.6731
88.7643
86.5216
84.1447
80.1203
89.339
89.1027
90.4676
89.046
88.5634
85.2625
86.3627
44.1613
88.729
85.7517
89.6191
85.8237
77.1613
88.4271
84.3804
86.0821
90.0035
87.0774
84.8393
41.8602
87.7177
89.0998
85.2781
84.0912
84.3819
83.0904
83.4672
85.2048
83.8671
73.2289
55.9265
65.8473
86.4867
89.7894
86.8684
94.9568
87.1977
82.4604
73.5249
89.9978
84.1758
84.7235
85.7156
36.1388
87.3632
84.8878
82.8691
31.1501
83.2335
81.1935
89.2609
89.3229
91.2322
87.7809
39.8787
91.5493
74.4851
90.4933
85.4132
84.238
86.283
87.8242
82.8407
86.0604
86.8196
87.3129
84.0256
79.7532
81.8389
87.3799
75.6868
83.2569
87.0746
86.2247
87.154
85.8566
24.6975
83.6419
81.6503
89.2875
84.392
84.6613
89.6605
82.9419
83.8794
71.6074
85.5272
92.6341
85.7023
89.0345
85.8947
85.8416
84.337
49.7943
86.7447
97.692
85.5025
86.9677
91.5538
52.7996
50.8959
88.647
81.3486
74.5928
88.8108
88.0474
83.0928
85.7789
77.5575
41.7316
86.8277
84.4114
84.8656
89.1263
81.6922
81.5811
86.8624
83.3389
82.1692
84.0313
88.0819
96.1261
89.6699
87.6712
87.5756
8.7759
83.5313
85.6837
81.3119
83.4428
88.3585
31.935
87.3096
84.5515
89.4697
84.1268
84.0346
87.4677
88.0059
85.062
89.3944
93.3534
84.4292
82.9769
85.5917
85.7315
90.0808
87.597
87.9185
86.1435
84.2546
87.4185
89.3682
86.3357
90.7768
85.5147
54.271
82.0245
88.5261
83.9698
88.5604
87.2018
82.0438
82.9393
86.2136
82.7708
87.4616
86.7507
84.4281
85.6846
88.6514
83.5391
83.2429
84.239
78.7967
84.8278
16.2298
83.7199
84.1335
87.3732
81.4525
49.4292
87.6907
89.7047
41.8246
86.1468
48.8924
86.2921
84.3962
83.0786
85.7924
82.1089
83.6575
85.8
87.0995
84.5208
84.1106
85.9623
82.8982
84.7865
89.5656
85.6356
75.0782
41.1051
84.2045
88.6567
49.5641
82.9257
80.0379
86.4862
94.0166
87.1856
88.5065
87.4141
82.824
84.8697
64.3006
89.2158
50.7265
88.4554
72.3431
83.7714
82.4865
93.2836
89.2942
75.1703
91.4648
87.9162
83.5312
72.2931
89.4726
89.2933
87.9084
83.8288
89.4803
89.671
85.4229
90.0874
89.9556
52.4355
84.7057
87.995
48.6317
86.094
82.8825
83.4633
83.9507
89.6264
85.7266
84.8324
85.9123
45.6061
86.768
85.7736
42.7787
53.195
47.3025
42.8012
60.4364
83.6819
83.3109
82.8274
82.9794
54.1997
83.9634
84.1407
84.5112
84.3077
84.1594
65.669
46.9703
84.1369
73.9841
69.9247
84.2086
83.8542
83.4681
84.2809
83.1439
83.1293
84.2055
83.3311
90.7603
73.4748
90.2085
76.5149
83.8157
83.1901
82.145
44.2794
83.6181
79.8737
83.0564
84.4042
93.9957
49.6611
84.4515
78.1539
72.8905
82.343
89.7451
82.5372
87.4073
48.5227
84.8462
83.5946
82.3807
88.4433
88.5352
88.1799
46.834
82.1338
83.4746
90.8816
85.8655
87.6107
88.0618
60.0248
90.6088
88.3019
84.7763
84.8881
85.9906
84.5083
82.4398
81.7161
89.0332
94.1178
83.3441
84.0462
101.291
88.6873
43.9062
87.2244
86.8326
85.839
78.7925
83.5281
88.1272
83.7162
84.4129
87.3316
86.7287
84.0868
39.5087
81.8186
83.7528
77.714
82.1561
88.7791
26.1494
85.4678
85.2667
87.6274
41.722
85.9807
74.2702
87.5709
91.7942
87.3129
84.2256
72.9357
84.7863
84.1291
53.7194
34.1011
83.7138
85.872
84.7618
84.9731
83.6674
83.5523
83.4197
84.485
83.6897
86.0522
76.8286
37.2449
83.4796
87.3323
90.7883
83.8631
84.9066
83.7544
80.9056
83.583
88.7172
88.1472
82.4324
85.3736
88.0076
25.3133
17.8096
89.4263
83.4839
80.0124
87.1933
86.1338
48.0848
82.8998
84.0157
84.1632
67.5207
48.8559
88.5136
82.4098
83.2628
84.2249
72.3513
47.6818
85.9032
87.6631
87.1364
52.9566
86.6316
85.9039
89.6406
7.02724
81.0229
43.5491
58.9856
85.9993
75.9659
83.9261
87.4713
89.3349
86.4806
87.7514
86.1498
84.5362
84.2338
83.5645
78.2868
86.2236
62.9378
90.6906
73.167
89.1383
53.1548
85.1138
52.2117
77.2466
87.5703
53.8671
83.8842
63.8602
61.2747
58.5572
50.6395
50.267
49.1387
55.8302
49.4881
86.6163
86.1755
86.0937
86.4739
85.9253
85.2781
87.936
81.7938
85.9631
86.8448
85.8267
83.1731
85.5099
74.216
90.3513
89.3523
85.9924
89.1108
83.1798
86.9072
87.5296
84.4082
84.2118
83.0824
74.0708
83.8748
83.4574
75.8898
88.9715
87.9231
43.9149
83.5307
80.6985
84.5701
84.5676
87.7586
90.6045
31.77
87.6747
85.8957
85.9358
84.4658
86.1742
83.7606
83.3008
83.7403
86.1705
83.8328
77.1012
72.3315
83.1008
84.6884
92.6379
83.6866
92.4157
16.3092
90.2811
40.4356
7.48446
87.9095
48.4008
83.4822
84.1451
82.6897
49.9451
86.6886
83.2722
84.9319
69.6971
86.2877
83.5288
84.4716
84.1709
89.5795
86.069
87.9378
85.3632
60.8495
42.7667
16.2806
79.3714
84.7502
89.4072
83.0997
87.4588
80.0091
72.6188
83.7548
79.7062
47.1263
87.3704
88.934
48.7697
86.5159
83.1729
86.4635
85.2576
83.8613
78.6151
62.8016
83.1209
89.3193
82.4018
84.9802
43.523
85.5685
45.3623
88.829
79.4186
84.7163
42.2428
74.6016
85.8071
86.0108
85.8493
85.4365
50.3595
84.4286
82.5353
83.8043
83.9447
78.861
85.9894
84.7333
83.8647
86.1825
53.5639
83.0079
86.9631
91.7749
83.4723
85.1867
80.3911
87.6549
79.4767
83.6365
86.1889
44.0495
83.7763
88.2675
87.0087
84.4459
84.592
84.2871
80.5512
83.9028
69.4083
86.553
28.2441
82.6568
87.5236
87.3433
64.0005
86.9558
89.541
93.2314
93.234
85.7764
94.3351
84.7252
86.1167
87.1434
82.1114
89.3891
82.8439
85.3152
82.6529
50.8792
85.9502
52.1938
84.9339
94.4357
83.3671
84.2207
83.1363
84.1567
80.5826
83.0967
85.0709
87.2866
42.2426
85.4893
85.5887
91.2665
73.7153
83.5159
86.6102
81.5765
66.5375
86.0768
77.7037
47.9528
82.4427
85.4153
84.2825
85.8024
86.6247
82.8876
82.9182
77.4898
84.2632
84.3452
81.5187
84.6604
83.6712
48.6834
86.2529
76.7069
83.489
86.2384
53.4974
83.8174
88.0116
84.6548
50.7275
90.5743
72.8738
90.0116
37.18
81.8512
86.2543
91.014
74.3205
40.7207
87.3064
49.5804
88.0339
87.4065
87.6213
51.0893
86.3452
41.8118
68.5239
91.3019
83.4106
84.277
46.6928
82.3315
15.3866
87.6027
82.1679
86.3161
83.2308
84.2973
66.167
86.9335
84.4224
41.4964
52.9273
82.8781
84.8798
86.9053
49.0823
88.2761
83.2668
84.2456
51.1303
89.8478
87.6345
89.8616
81.424
81.9185
82.7931
84.0922
84.8393
88.2935
57.4956
51.1875
87.9142
82.5738
84.2185
90.7112
81.3974
83.2919
83.0078
85.1788
84.7563
84.3231
84.5112
83.5306
62.364
83.3089
85.8989
83.5119
73.3454
85.2371
87.8293
85.5119
83.3949
85.5575
83.7231
84.7647
83.2946
86.2761
85.4132
59.666
50.7216
81.9907
86.2555
85.0465
72.54
88.8166
83.9067
91.2655
90.9251
74.1749
75.1602
84.7461
84.779
58.1615
83.3953
77.1139
87.3628
81.5446
48.0083
84.7183
84.9119
82.7735
83.2201
84.5298
42.754
89.206
90.2004
69.0756
106.054
86.403
86.5438
92.3837
92.064
87.9363
25.969
51.7612
82.6024
84.9518
82.2541
82.4525
83.016
93.3172
85.3234
85.7598
81.6391
87.3283
85.4238
73.4035
91.4108
83.3483
84.7678
84.3535
84.9199
)
;

boundaryField
{
    frontAndBack
    {
        type            empty;
    }
    wallOuter
    {
        type            zeroGradient;
    }
    inlet
    {
        type            zeroGradient;
    }
    outlet
    {
        type            fixedValue;
        value           uniform 0;
    }
    wallInner
    {
        type            zeroGradient;
    }
    procBoundary3to1
    {
        type            processor;
        value           nonuniform List<scalar> 
48
(
78.1531
84.9805
83.4373
79.8405
83.1168
83.9774
84.9805
71.9525
74.2294
84.1831
84.1831
83.8727
83.8727
72.8023
73.8594
80.3629
75.8644
77.9474
75.8644
76.1108
71.8055
71.3776
76.1108
84.2521
84.1768
81.3848
71.1934
71.3776
71.3349
82.4015
82.4015
71.7962
71.7962
74.2294
79.0677
83.3003
72.2171
84.1768
75.9012
83.2336
72.8023
72.2817
72.5825
76.1108
74.4184
83.8495
82.6353
72.2089
)
;
    }
    procBoundary3to2
    {
        type            processor;
        value           nonuniform List<scalar> 
29
(
90.4702
90.4702
89.6624
90.291
76.1455
90.21
84.7064
90.3481
90.1475
90.1472
90.4374
76.9345
90.2685
84.6197
86.0958
84.7303
89.8123
89.7953
90.0014
85.4075
85.6043
89.8123
86.7815
89.7953
86.4795
89.7489
89.7953
74.7111
74.7111
)
;
    }
}


// ************************************************************************* //
