/*--------------------------------*- C++ -*----------------------------------*\
| =========                 |                                                 |
| \\      /  F ield         | OpenFOAM: The Open Source CFD Toolbox           |
|  \\    /   O peration     | Version:  v1912                                 |
|   \\  /    A nd           | Website:  www.openfoam.com                      |
|    \\/     M anipulation  |                                                 |
\*---------------------------------------------------------------------------*/
FoamFile
{
    version     2.0;
    format      ascii;
    class       volVectorField;
    location    "0.3";
    object      U;
}
// * * * * * * * * * * * * * * * * * * * * * * * * * * * * * * * * * * * * * //

dimensions      [0 1 -1 0 0 0 0];


internalField   nonuniform List<vector> 
1431
(
(0.489082 0.593666 1.44545e-16)
(2.61907 0.727624 3.10479e-17)
(-5.12323 0.0392831 0)
(-1.16581 0.0886099 1.87615e-16)
(-1.21319 -0.321253 0)
(-0.00765149 1.89984 2.99886e-16)
(1.56914 0.378388 4.14065e-16)
(1.65296 0.289781 5.56893e-17)
(-0.428187 1.74821 2.24331e-16)
(2.22151 0.0645237 3.67679e-16)
(2.87964 10.2226 2.02195e-17)
(6.91395 -0.0861787 0)
(-2.05833 6.39228 -1.14088e-16)
(-0.952867 0.0582356 -5.66424e-16)
(0.309322 -0.310021 0)
(1.46039 0.1097 -3.66334e-16)
(3.04766 0.0208379 -2.57862e-16)
(-3.1986 -0.122665 0)
(3.46836 -0.013495 -2.03784e-16)
(-2.1685 0.615393 1.21102e-16)
(4.25145 9.55473 -6.87893e-19)
(-0.313613 0.0877086 2.3617e-16)
(-0.342327 1.37319 -2.33639e-16)
(12.0695 2.08079 -3.62956e-18)
(-0.475614 1.57871 2.23194e-16)
(-1.85783 6.09957 2.30841e-19)
(1.6431 9.99546 -2.09153e-17)
(-0.671071 -0.803309 -3.71411e-16)
(-0.131997 5.25957 -3.81174e-17)
(0.257189 4.37545 3.44502e-17)
(0.0549391 4.62349 -9.582e-17)
(-0.229487 6.62332 3.00205e-17)
(0.0930027 4.61876 0)
(-0.677666 -0.0779236 -4.3519e-16)
(0.691033 3.47756 -3.19296e-16)
(1.39988 -0.129523 0)
(-2.97797 8.16614 0)
(0.854596 -0.0716685 -5.87027e-19)
(-1.09608 -1.02095 0)
(-0.212979 5.75165 0)
(-1.88771 7.12362 -1.7234e-18)
(-2.51933 8.73275 9.63233e-17)
(-2.12078 6.21158 -1.35704e-16)
(-1.29666 -0.481634 1.72082e-16)
(-0.153955 0.670013 0)
(0.449298 -0.669301 3.21504e-16)
(0.530447 0.014677 2.75042e-17)
(1.21435 9.56966 -6.45778e-17)
(0.695018 0.682308 0)
(0.143592 -0.967605 0)
(2.10188 4.56484 0)
(-1.36521 -1.21259 0)
(1.73784 5.62907 2.4415e-16)
(1.94158 0.0247504 1.74094e-17)
(3.27177 0.48013 -1.93295e-18)
(0.0271377 4.845 2.94371e-16)
(-0.860686 0.325361 1.92706e-16)
(4.67683 -0.343796 0)
(2.70695 0.0655745 0)
(-0.091441 -0.365179 4.06094e-16)
(-0.161405 -0.250228 -1.4356e-16)
(-1.30257 0.356482 3.55809e-16)
(-0.249839 -0.162364 0)
(0.710547 -0.0813451 0)
(-1.05776 -0.339585 8.26755e-19)
(1.75806 0.133417 -2.06862e-16)
(-4.11953 -0.326721 -1.58397e-16)
(-1.07633 -0.161276 -8.56171e-17)
(0.984669 -0.0672569 -5.11987e-18)
(-0.799607 -0.218093 0)
(-0.157693 -0.619053 7.21561e-17)
(-0.669844 0.0687146 -1.5412e-16)
(-1.15396 0.134031 1.18023e-16)
(-0.783572 -0.165087 3.37794e-16)
(-1.10292 -0.0349454 4.00387e-16)
(-0.154905 -0.316931 -5.20701e-16)
(-4.73011 -0.352632 -1.33276e-17)
(-2.55609 -0.512065 -1.45959e-16)
(2.26167 -0.161403 -2.49526e-16)
(-2.54519 -0.511062 0)
(2.86152 0.0809457 -6.11997e-17)
(-1.10743 -0.521841 9.84661e-18)
(5.7316 0.606232 -6.546e-18)
(1.32627 0.103797 1.08147e-16)
(11.6814 0.751386 2.07788e-18)
(-0.120232 -0.213844 -1.10696e-16)
(3.62803 -0.0600259 0)
(0.536822 0.0536283 2.04042e-16)
(9.18483 0.190599 6.76049e-18)
(7.45022 0.577886 2.31942e-18)
(-0.879039 0.687231 -2.74115e-16)
(-1.33947 0.692415 2.61668e-16)
(0.839553 0.168908 2.95125e-16)
(0.785284 -0.278413 -1.30724e-16)
(3.81868 0.403664 8.32786e-18)
(0.0573149 3.14895 0)
(3.23122 -0.232711 -7.72199e-17)
(4.86543 1.26331 -1.3172e-17)
(-1.78926 -0.0639638 0)
(-3.73779 -0.203935 -4.58202e-19)
(0.523189 6.78704 1.06864e-16)
(-1.89045 0.208046 -5.69613e-16)
(2.68808 0.138449 0)
(-2.33865 -1.25058 -2.0914e-16)
(-3.62837 -0.384341 2.40369e-16)
(-0.0162846 6.44095 1.1648e-17)
(-0.155365 6.43268 0)
(1.52094 7.1222 6.68671e-18)
(-0.283789 1.17035 3.85178e-16)
(2.82026 0.137638 0)
(-0.744017 -0.649594 -5.67773e-16)
(-1.71156 6.03814 -2.4221e-16)
(-4.01505 0.432378 2.53876e-16)
(-1.08249 4.63139 -1.05174e-16)
(3.36811 0.609236 -9.24701e-19)
(-0.843696 -0.296833 6.82435e-17)
(-0.875239 0.0901149 0)
(-1.35274 0.117675 -2.11866e-16)
(-1.27287 -0.124758 0)
(0.331566 -0.204751 0)
(-0.0706794 -0.254194 -2.41814e-17)
(0.524613 -0.0568899 8.34704e-17)
(0.272559 0.167256 2.48944e-16)
(-1.14151 -0.11861 1.5875e-16)
(-0.809325 -0.194208 0)
(1.79047 -0.271181 1.53493e-16)
(-4.97124 -0.199772 0)
(0.262602 -0.441273 5.57018e-16)
(-4.45353 0.206181 -1.40344e-16)
(3.72274 0.0244106 3.27918e-16)
(2.85738 -0.107555 3.39677e-16)
(-2.81705 0.223469 -7.15657e-17)
(3.48803 0.0141463 -7.78509e-17)
(2.95012 0.288148 8.58512e-17)
(-1.88405 0.749276 0)
(-0.959874 -0.757144 -3.17445e-16)
(-2.50057 -0.452202 1.15549e-16)
(-1.64544 0.73422 0)
(10.0134 0.0651892 3.42228e-17)
(0.86818 0.162652 1.91085e-16)
(-0.0820967 -1.01296 0)
(0.275373 4.8324 0)
(2.84463 0.0505614 7.70731e-17)
(-1.01584 -0.303727 0)
(-0.110411 0.963356 2.57361e-16)
(0.109615 4.57825 -7.53364e-17)
(-1.01016 -0.290714 -1.84421e-16)
(0.8352 6.40602 -2.23534e-16)
(2.07149 -0.208767 2.57518e-16)
(-0.617272 -0.242892 1.58906e-16)
(-0.624713 -0.511209 2.35998e-16)
(0.634564 -0.198251 7.35999e-17)
(-0.20006 6.06812 8.40206e-20)
(-1.0851 -0.162545 -2.01731e-16)
(-0.237114 6.9664 -2.84557e-17)
(0.644529 0.188228 -3.91256e-16)
(10.5528 0.491161 -2.1562e-18)
(3.02036 2.00319 7.224e-17)
(6.57701 0.64688 -5.52934e-18)
(3.287 -0.188699 1.98073e-17)
(7.84984 1.55641 -3.47694e-18)
(-2.33006 6.36206 1.33876e-16)
(4.06489 0.0147765 -1.10008e-16)
(3.83205 -0.138352 8.21792e-18)
(0.533 -0.0106053 -5.00134e-17)
(0.0802528 1.47848 -1.82365e-16)
(-0.594721 3.1736 5.47743e-16)
(3.92745 0.502111 8.04133e-18)
(0.641944 -0.545287 2.42006e-16)
(4.10323 1.04083 2.84231e-17)
(7.96601 0.885644 -7.42953e-18)
(0.84137 5.74548 0)
(-0.200206 5.13109 -3.109e-17)
(10.0134 0.284488 3.62054e-18)
(2.79802 0.982187 -1.26747e-17)
(10.5801 0.298124 0)
(3.59733 -0.0667822 0)
(-0.137206 1.24141 -1.7683e-16)
(2.13385 5.42271 -2.57139e-16)
(1.28428 3.8915 -3.51368e-17)
(1.8856 0.0768171 -3.79322e-16)
(-1.41602 -1.46413 0)
(1.21694 2.26697 7.87144e-18)
(10.4881 2.66747 -2.61225e-18)
(0.461162 1.83226 1.17203e-16)
(0.0116581 4.56016 0)
(0.904554 2.96594 -1.04309e-17)
(3.2046 1.39281 -4.85202e-18)
(-0.329405 6.03528 4.6003e-17)
(10.1862 -0.091868 2.26255e-17)
(0.0910011 5.61718 -5.55161e-17)
(-0.472228 6.48307 -2.77935e-17)
(-0.359799 6.76908 -4.10956e-17)
(1.1893 6.02193 0)
(-1.42918 0.0024116 0)
(3.78449 2.80628 -6.70896e-17)
(4.71983 1.77169 0)
(3.22417 3.79356 -1.81965e-16)
(1.27527 0.10756 3.26519e-16)
(0.740802 -0.0226836 0)
(1.05796 0.867966 -8.0789e-19)
(4.05974 0.0187629 -6.26182e-17)
(1.65107 8.08324 -3.59685e-17)
(3.56066 -0.0614147 7.13545e-17)
(-1.11385 5.82402 -4.64808e-17)
(0.03582 5.83152 3.58213e-18)
(-0.342793 6.72431 7.50956e-17)
(1.14831 -0.0439605 2.54934e-16)
(9.79936 0.667311 -1.15429e-18)
(0.583935 0.0794219 -1.96544e-16)
(-0.0459723 0.0964828 3.65614e-16)
(3.81174 -0.0532448 0)
(-0.221243 6.55289 2.36891e-17)
(-0.0149819 6.40527 2.90239e-17)
(10.9564 1.08002 0)
(-2.83179 0.514972 3.96929e-16)
(-0.304524 6.88604 1.27903e-16)
(3.21833 3.95055 -4.53854e-17)
(1.8866 3.29822 -5.1551e-17)
(1.39768 7.77274 2.4408e-16)
(-0.281546 7.41447 1.98374e-16)
(0.632029 1.5055 0)
(2.98272 0.0594322 2.32295e-16)
(3.948 -0.0719178 0)
(-0.236508 6.68787 -1.10958e-16)
(9.79038 1.28339 2.00123e-18)
(2.64294 6.79921 -2.89079e-17)
(4.47722 1.11971 2.92448e-17)
(-0.152662 6.91014 1.42003e-16)
(0.96527 7.95272 4.22108e-17)
(3.17523 0.357463 3.21348e-17)
(0.0816808 4.66345 -2.97e-21)
(0.0139942 6.40965 -3.2481e-18)
(-0.350511 6.29951 5.91218e-17)
(-0.220012 6.76757 -2.87335e-17)
(7.00321 1.05175 8.51198e-18)
(-0.269127 6.77057 0)
(-0.0829241 6.33731 -3.56119e-17)
(0.190182 5.31346 0)
(0.474827 0.434128 3.62153e-17)
(3.00235 -0.0895371 5.96649e-17)
(2.59327 3.45117 1.37738e-17)
(9.75121 0.936304 -7.69739e-19)
(-0.222519 6.24058 0)
(-0.401178 6.34676 2.28584e-17)
(-0.614468 -0.851897 5.91521e-16)
(-0.309176 6.37792 2.24075e-16)
(1.44458 8.54438 0)
(-0.296008 7.12628 -2.48916e-16)
(0.619919 -0.473356 1.78869e-16)
(0.104893 -0.205241 0)
(9.50921 0.431714 -3.10189e-19)
(3.34395 -0.181527 1.90301e-18)
(3.65812 0.269945 -1.15416e-17)
(0.0658319 5.75938 4.1858e-17)
(-2.03553 5.67006 -4.75685e-17)
(3.40298 -0.154232 -3.7647e-20)
(9.90194 1.71465 -4.77331e-18)
(5.92081 1.6691 3.43936e-17)
(-0.324968 6.90078 -4.20038e-17)
(-0.137414 3.62941 1.00896e-16)
(10.0139 0.106592 -2.0955e-17)
(1.70361 2.91926 0)
(3.64569 -0.119141 6.45449e-17)
(-0.146084 5.86069 2.47627e-17)
(1.68046 6.85972 -5.73134e-17)
(-0.245687 2.54513 -1.97502e-16)
(1.02086 4.92081 0)
(1.09607 9.08083 6.10189e-17)
(-0.792517 0.0977156 0)
(0.0910545 0.825717 -7.02225e-17)
(-0.298433 6.97227 4.87712e-17)
(2.48272 0.549809 -1.42777e-17)
(0.562657 0.109605 6.84523e-17)
(8.45985 1.37401 0)
(-0.157795 4.84923 1.86882e-20)
(9.06697 1.12664 -6.59333e-17)
(1.46192 6.09321 2.30356e-17)
(0.00121579 5.54229 -1.39664e-20)
(-0.154564 5.10058 -6.08897e-17)
(0.60342 5.08996 0)
(-3.51797 7.48794 1.50591e-16)
(0.137357 4.40632 9.83584e-17)
(1.23057 3.53932 2.28197e-16)
(3.23563 0.219125 0)
(5.53106 0.975538 0)
(-2.36888 6.69604 1.26174e-16)
(5.31668 1.46383 -4.23023e-17)
(11.239 0.506189 0)
(2.01844 0.985327 -3.28998e-17)
(0.738357 0.181674 -2.15256e-16)
(-0.157525 2.07294 2.29325e-16)
(4.2731 1.53792 -3.5392e-17)
(0.34031 5.92291 -5.25977e-17)
(0.930901 7.42644 -1.41043e-16)
(-0.109637 6.93466 -3.33668e-17)
(2.25929 4.87302 0)
(0.1155 4.47934 0)
(-1.68712 2.37648 1.47342e-16)
(-0.00422164 5.48685 7.06797e-18)
(1.18275 5.77589 -1.56515e-16)
(-3.42958 0.606877 -1.70389e-16)
(2.37529 0.387901 -3.86417e-18)
(-0.754971 6.2522 6.18326e-17)
(0.455846 5.29145 -4.45519e-17)
(3.46752 -0.107692 -4.34741e-17)
(2.31462 1.43043 2.19456e-17)
(-0.459051 6.78089 -2.31694e-16)
(-2.93604 8.64955 -2.07045e-16)
(3.75363 0.929798 -1.95132e-17)
(4.47874 3.67943 2.32351e-16)
(1.35342 -0.0974732 0)
(-0.484934 0.278983 -9.17946e-17)
(-0.0308698 0.238545 0)
(-0.394195 1.97189 -3.89591e-16)
(4.48072 2.15265 0)
(3.09466 3.84067 1.91869e-18)
(3.22141 0.347509 1.55206e-17)
(1.10344 -0.028448 -2.02844e-17)
(6.2078 5.25815 1.15729e-18)
(2.347 2.1544 2.1627e-17)
(4.06733 2.40638 0)
(-2.23346 -0.537211 0)
(0.330407 6.65658 0)
(2.03199 3.07733 4.11659e-16)
(-4.54099 -0.000558931 -1.28838e-16)
(-2.79503 -0.161282 0)
(-0.0660987 1.76653 4.99384e-16)
(2.46963 0.226467 2.9707e-17)
(3.76558 0.163856 5.55966e-17)
(0.0635452 5.34836 1.72837e-16)
(1.20065 -0.326092 1.54512e-16)
(-0.0955425 1.68845 -4.97397e-16)
(-0.110706 0.00587151 -3.81494e-16)
(3.13927 -0.137307 -1.42262e-17)
(-1.30118 6.29525 -2.62823e-17)
(-0.471768 2.45001 0)
(6.48799 1.09007 6.0344e-18)
(1.51574 2.75043 -1.93925e-16)
(0.274753 0.642388 0)
(-3.74606 0.160717 0)
(-1.63956 6.42833 2.00419e-17)
(4.29111 4.93642 8.87794e-17)
(-1.23878 4.64108 0)
(-0.427029 1.83037 2.39948e-16)
(0.139498 6.04802 0)
(1.79875 0.671937 2.24614e-17)
(9.24321 0.794775 6.021e-17)
(4.10987 4.10508 -1.64386e-16)
(0.0526887 5.90407 0)
(2.06457 2.56042 1.90408e-16)
(-1.07363 -1.47332 -2.76384e-16)
(0.518877 6.68402 1.43521e-16)
(3.11073 3.34267 -7.24179e-19)
(-0.847215 -1.42774 2.29277e-16)
(1.78223 2.89679 -1.53069e-16)
(8.96434 2.91092 1.88234e-18)
(-0.255392 0.485837 -8.2007e-17)
(9.96546 0.201617 -1.50357e-19)
(-2.20916 7.12012 -5.91637e-19)
(0.0767274 0.107535 -4.70028e-16)
(-0.0776954 4.73384 -2.60875e-17)
(0.0244887 5.45291 -5.59237e-17)
(2.39203 0.225476 3.65594e-18)
(1.21479 0.105332 -3.70087e-17)
(7.67042 5.47083 1.71476e-17)
(-0.282722 1.53058 2.39249e-16)
(11.4602 3.80753 -4.02595e-19)
(-0.2735 7.39192 2.75451e-17)
(0.672947 5.46157 1.1511e-17)
(1.36241 8.69911 -7.86331e-17)
(-0.461566 -0.849548 -1.91494e-16)
(8.75959 0.30304 9.79042e-17)
(2.26127 3.23162 0)
(-1.12011 4.13391 8.68442e-17)
(7.58023 1.21725 -1.11843e-18)
(3.05509 2.78328 -2.15428e-17)
(-0.447122 0.232211 -8.14294e-17)
(-2.61686 2.01629 0)
(7.51693 1.77531 -2.24248e-18)
(-2.50299 6.35095 2.78378e-16)
(0.952645 2.31423 1.12758e-16)
(0.983221 1.65846 0)
(-1.30013 -0.957794 1.29325e-16)
(9.79318 5.14688 -1.1472e-17)
(-0.49688 1.96125 5.71545e-17)
(2.84323 4.79472 -5.10796e-16)
(-0.432559 1.62455 3.88884e-18)
(2.79949 3.06115 0)
(2.4544 3.61734 -2.45374e-17)
(2.7947 -0.00696865 1.17829e-16)
(1.84649 4.73433 -1.52571e-16)
(1.48076 4.70644 1.58311e-16)
(3.55385 -0.0436507 1.40408e-16)
(6.5884 1.71457 -4.41466e-18)
(0.675929 6.3741 -1.11038e-18)
(-0.587949 4.04708 9.41444e-20)
(-0.714194 4.00827 -1.13076e-16)
(-0.0539431 1.32548 -5.15857e-16)
(-0.260651 2.29029 -5.98598e-17)
(3.46219 3.81966 -8.6183e-17)
(-0.925523 3.43886 2.57428e-17)
(5.23603 2.13041 1.18426e-16)
(-1.54506 4.51249 -2.27568e-17)
(-0.660759 1.81428 -7.13278e-17)
(-0.22705 3.61769 -1.71254e-19)
(-0.349712 1.39396 1.05264e-16)
(-0.296296 -0.0110254 1.05482e-16)
(3.32741 0.112092 3.06637e-17)
(-0.169082 3.62135 1.56081e-17)
(3.66738 3.43678 0)
(2.41683 3.48371 0)
(-0.108722 3.69169 7.58659e-18)
(-2.67524 5.30102 1.02686e-16)
(-0.47098 1.57563 -2.16764e-17)
(-2.69474 -1.07946 1.35132e-16)
(3.08569 3.88493 -2.68523e-20)
(0.0361721 -0.127427 0)
(0.710353 2.67306 -1.91504e-16)
(-0.0410444 3.82247 0)
(-0.111945 5.56775 -6.03832e-17)
(-2.49682 6.23861 -2.84942e-16)
(1.45273 3.45898 -9.66018e-17)
(3.07517 3.66727 3.5921e-17)
(0.0411167 4.00465 1.59369e-17)
(-0.18737 -1.31425 3.61395e-16)
(-1.2 1.45626 3.92256e-19)
(1.86098 -0.0193178 1.0022e-16)
(-2.94346 0.619913 -1.47853e-16)
(11.6886 1.75685 2.17818e-18)
(-3.31891 6.10564 9.23524e-17)
(-2.85796 6.18202 1.41683e-16)
(-3.33613 6.89598 5.79074e-19)
(-2.44913 6.28374 0)
(-3.64572 7.19895 -8.48728e-17)
(-3.73563 6.98025 -7.38608e-17)
(-3.61459 6.62091 -6.8217e-17)
(-3.54503 7.0799 -1.39314e-16)
(-3.66511 6.79493 2.18569e-16)
(-3.33242 6.88177 5.84598e-17)
(-0.0596962 -1.43206 0)
(10.0185 0.476475 1.34831e-18)
(0.114501 -1.33486 -9.034e-17)
(0.257973 -1.25922 2.61274e-16)
(-1.36791 -1.03463 -3.20485e-16)
(0.406882 -0.460049 5.68051e-18)
(0.468708 0.870872 0)
(1.12175 0.627143 -8.22824e-17)
(2.09342 -0.08648 4.82446e-17)
(0.756508 0.0127111 6.64023e-17)
(1.00667 -0.0171829 6.06893e-17)
(-0.431684 -1.12796 -2.42622e-16)
(-0.427516 0.964992 -1.65144e-16)
(-0.153304 -1.35827 0)
(-0.70145 0.972562 -8.946e-17)
(0.127542 0.745213 2.8267e-16)
(0.663535 0.093232 9.49668e-17)
(8.18605 0.288456 -2.3106e-18)
(-0.0819739 -0.758051 0)
(-2.97152 0.0379638 1.53362e-16)
(0.559282 0.0958826 -1.2708e-16)
(-1.27263 -1.38957 2.00262e-16)
(8.28424 0.100292 -3.10341e-17)
(-0.688926 0.679543 -2.56053e-16)
(-2.99232 -0.0545643 -9.58125e-17)
(-1.17892 -1.16844 2.24243e-16)
(-0.97775 -2.17863 2.55164e-16)
(8.2822 -0.0372519 1.28484e-19)
(-0.864593 -1.15486 -2.38222e-16)
(8.41862 -0.0970764 -2.67177e-17)
(-0.621145 -0.256253 -6.44479e-16)
(-0.803965 -0.748216 0)
(-0.815426 -1.43831 -4.3104e-18)
(0.789109 0.0186254 0)
(10.046 0.174336 3.7762e-17)
(10.1221 0.350986 1.17207e-16)
(-0.793855 -1.12071 1.2408e-16)
(-0.891928 -0.661016 -1.11004e-16)
(-0.0924236 0.0647578 6.1891e-16)
(-0.0134135 -0.725378 0)
(0.355953 -0.0492032 0)
(-0.481967 0.703366 0)
(9.84093 0.251391 2.58976e-17)
(0.96916 -0.533762 2.22042e-16)
(-2.52172 0.25802 1.25593e-17)
(0.8587 -0.0828292 2.39708e-16)
(-0.707083 -0.0117848 0)
(-1.97326 -0.344129 0)
(-2.52184 0.282609 1.46369e-17)
(-1.99556 1.12192 1.27997e-16)
(9.36442 0.352255 -7.50607e-17)
(0.062604 -0.982388 2.05521e-16)
(-2.75386 0.343302 9.7748e-17)
(-1.39042 2.50058 2.28955e-16)
(1.21501 -0.170641 -2.91468e-16)
(-0.879292 1.02169 -1.37114e-16)
(-3.16202 0.432093 8.12771e-17)
(9.17315 0.61328 1.74121e-17)
(-0.900249 -1.0223 -2.42135e-16)
(-1.0448 1.02734 -5.00804e-16)
(-2.08891 1.67666 1.27453e-16)
(-1.47306 4.71315 -2.50278e-16)
(0.0283102 -0.00377764 1.02514e-15)
(-1.43359 0.590015 -1.70224e-16)
(9.27369 0.874856 -3.66032e-17)
(9.86219 0.597288 -9.79562e-17)
(0.490932 -1.15723 -2.7681e-16)
(-0.249188 -0.32435 2.19008e-16)
(-1.2943 -0.174646 1.75517e-16)
(-0.546488 0.687836 0)
(-1.10089 3.06392 1.68031e-16)
(0.499625 -0.551748 2.89205e-16)
(-0.338694 1.71791 0)
(-2.12612 0.517702 0)
(-2.25793 -1.38537 1.57202e-16)
(2.23102 0.290829 -1.57311e-16)
(-2.48046 0.902652 -5.94894e-17)
(-1.5339 4.03441 9.20095e-17)
(-0.414554 -1.07118 1.70935e-16)
(9.88891 0.857053 -3.17422e-17)
(0.428533 0.234333 0)
(-0.858069 0.673458 -3.70672e-16)
(-0.323472 0.944649 -2.04184e-16)
(3.66594 0.0283483 -5.26249e-17)
(-1.5984 5.46776 -6.76e-17)
(2.63203 -0.135589 -8.37553e-17)
(9.4978 1.30566 6.03052e-17)
(-0.168929 5.32338 -3.28136e-19)
(-0.518579 -1.3016 0)
(-0.188739 0.191505 2.66148e-17)
(1.5325 1.11449 1.64263e-16)
(0.329868 4.42538 -1.87479e-16)
(-1.70111 6.40996 0)
(-0.443096 0.0202069 0)
(-1.8299 5.32006 0)
(-2.01075 0.929415 2.52851e-16)
(0.230423 0.918352 2.7216e-18)
(1.52304 0.996882 3.98891e-17)
(-1.48806 5.57325 4.16056e-17)
(-0.110737 -0.815708 2.23333e-16)
(-0.326657 4.41287 1.44951e-16)
(-0.745864 3.12335 -2.32692e-16)
(-0.338779 1.77256 -7.55009e-17)
(-0.175345 2.48751 4.04748e-16)
(-0.768985 1.27879 4.55335e-16)
(-0.175453 0.428741 6.59667e-17)
(1.82992 2.89013 -7.1022e-18)
(1.41488 4.49627 -5.42068e-17)
(-0.469707 4.21175 0)
(-2.36094 5.81406 0)
(3.2513 4.45972 2.22943e-16)
(-0.999673 1.97304 3.06959e-16)
(-0.722698 2.77279 0)
(0.402236 4.17568 -3.10877e-16)
(-0.0503448 -0.638862 -4.01026e-16)
(-0.467844 1.53924 -5.55386e-16)
(2.54302 -0.199667 1.41174e-17)
(-1.89455 2.69538 -1.15711e-16)
(1.20793 2.67854 5.05658e-18)
(2.55922 6.94732 0)
(-2.94139 6.51703 2.75285e-17)
(9.84986 1.68255 -5.69008e-18)
(4.84305 3.24584 6.78581e-17)
(0.150678 6.57437 0)
(5.23306 7.71024 0)
(0.503162 7.09949 5.11643e-17)
(1.62423 2.72395 0)
(3.89559 -0.112255 -8.1876e-18)
(-2.62556 3.73605 -7.48922e-17)
(-0.877433 3.26298 1.92059e-16)
(0.163126 4.54206 -3.28584e-17)
(4.96548 5.64643 -3.48437e-17)
(-3.50086 6.71729 -4.18349e-17)
(0.0677429 0.853307 -1.11562e-16)
(0.419803 5.45286 5.63784e-17)
(2.75963 3.42997 4.24299e-17)
(3.01816 0.0349594 1.01246e-16)
(-0.0930937 0.755472 0)
(-3.49381 5.96653 8.77216e-18)
(-2.43254 5.50909 -3.72712e-18)
(0.0725597 4.42862 0)
(2.9841 5.82522 3.14024e-18)
(0.457604 0.668912 2.27861e-16)
(3.24761 4.11317 -1.16436e-16)
(3.28129 4.03049 1.65466e-16)
(-0.250291 7.00548 1.53904e-20)
(-0.134124 5.97968 -1.08892e-16)
(0.618693 3.57608 -5.08011e-16)
(0.587275 5.70463 0)
(0.0470206 0.418853 1.30944e-16)
(-3.14435 4.88346 -2.128e-17)
(-0.200736 0.857376 4.72111e-17)
(1.75663 4.93108 -3.17752e-18)
(2.24265 3.8153 -1.10806e-16)
(-0.258286 6.53956 -3.849e-20)
(-1.26708 4.91827 0)
(-0.347159 -0.820141 -1.84831e-16)
(3.11994 4.60756 4.21825e-16)
(3.75294 1.52239 0)
(9.88951 0.465299 2.18614e-18)
(1.68653 6.71227 3.1802e-17)
(-1.4038 6.34286 4.99603e-18)
(-0.0908854 3.49836 5.1241e-17)
(-0.0951779 4.3813 0)
(3.06035 4.66721 1.1392e-16)
(1.62678 2.15076 -2.65472e-16)
(2.60319 11.9491 4.69408e-18)
(3.6345 4.38562 6.10724e-17)
(-0.145247 -0.0880747 -5.34011e-17)
(0.995193 -0.618277 -2.36183e-16)
(2.78455 -0.0531007 5.35305e-17)
(0.429121 6.69147 -6.491e-17)
(1.16856 4.80027 2.43012e-16)
(-3.42083 6.12464 -1.1356e-17)
(-0.322218 1.18776 -9.41524e-17)
(-0.219909 1.96419 2.37874e-16)
(11.0887 0.124611 -9.86202e-18)
(3.22539 -0.173847 -3.28624e-17)
(-2.80923 2.20328 -8.50298e-17)
(1.72545 3.95352 -2.32841e-17)
(3.51247 0.758648 -1.36931e-17)
(1.74445 1.66715 -2.93096e-16)
(0.396658 4.91028 -5.80075e-17)
(0.876209 4.35221 1.47418e-16)
(0.0523325 6.49206 6.97401e-17)
(1.93471 3.64959 -8.09112e-17)
(-1.21856 4.56473 -1.74205e-16)
(-0.165297 0.139712 0)
(3.59439 5.04998 -6.12576e-17)
(-0.0834309 0.701282 0)
(-0.415661 6.10871 7.96279e-17)
(0.794501 5.89841 0)
(-1.42926 -0.0855952 4.02827e-16)
(-3.24934 6.61654 -1.42109e-16)
(0.274438 4.65159 4.08694e-17)
(3.20037 4.20936 8.77478e-17)
(5.80435 0.479289 -6.74267e-17)
(2.56217 0.0994255 1.16693e-16)
(-0.492781 1.15233 -2.48709e-16)
(0.714394 0.937554 9.64828e-17)
(0.0305916 1.30803 -2.5539e-16)
(5.09889 2.76117 -2.23324e-16)
(2.12188 -0.132841 5.19477e-17)
(0.0715924 3.78707 0)
(-0.213149 0.555312 -4.56194e-17)
(-0.20622 6.42066 5.51732e-17)
(2.79093 4.0496 -2.22884e-17)
(2.65101 3.09255 1.47327e-16)
(1.87918 0.44656 1.66026e-16)
(2.64225 2.91212 1.99332e-17)
(-2.67679 3.0162 9.48737e-17)
(-2.98255 7.10004 -4.52854e-18)
(-0.0206248 0.464335 1.86801e-16)
(3.32472 4.40418 -1.06539e-16)
(1.03241 -0.608797 5.82343e-17)
(2.21993 2.64933 -8.3673e-17)
(-0.403341 1.5956 -2.50372e-16)
(2.22604 4.7872 -5.29785e-17)
(-2.22274 1.55639 0)
(8.67769 0.520475 -1.64013e-16)
(7.22523 1.6352 1.17124e-17)
(-0.806996 3.99437 1.30778e-16)
(-1.90251 6.42234 3.13268e-16)
(0.210735 5.91846 2.6674e-17)
(-1.90482 3.7848 0)
(1.73995 0.450216 -1.59443e-16)
(-1.03071 1.35316 5.39679e-17)
(-2.79879 0.939986 -1.74031e-16)
(1.43296 5.91315 -2.39576e-19)
(-1.95719 -1.2403 -1.17652e-17)
(0.16213 4.15648 5.43908e-17)
(4.08169 0.597391 -7.8072e-18)
(9.29716 0.463617 0)
(-2.92139 6.47129 0)
(-2.74619 2.45807 -4.76034e-17)
(0.448045 -0.694294 2.15264e-16)
(9.91038 0.53343 0)
(0.282544 0.0780136 2.59487e-19)
(0.533229 1.25769 -4.00299e-16)
(1.26883 0.27345 0)
(1.38039 0.479597 0)
(1.63941 2.49858 -1.22165e-16)
(2.78669 3.36103 2.1253e-17)
(8.69276 0.400852 0)
(-2.16977 -0.956314 1.48199e-16)
(-5.87678 -0.260863 -6.48751e-17)
(-3.1252 5.34323 0)
(-0.575195 1.4418 0)
(0.238429 -1.2931 1.63458e-16)
(3.15371 0.174895 -5.57081e-18)
(0.0365691 2.12756 1.2251e-16)
(-0.0472707 2.69761 -2.2327e-16)
(-0.384479 1.48945 7.50987e-17)
(2.9121 0.149563 0)
(2.54147 0.0749745 0)
(-3.68823 7.37001 -9.88045e-17)
(4.93824 0.261631 -2.15792e-18)
(1.11822 0.419314 -2.69158e-16)
(2.41825 0.0241357 1.38258e-17)
(4.88754 4.73202 -3.41244e-18)
(4.11699 0.232633 0)
(3.34022 4.13036 0)
(-0.0331334 4.36644 -6.88828e-18)
(2.70649 0.117475 0)
(0.0253795 0.229046 0)
(10.7911 0.616529 -1.23721e-18)
(-0.024399 0.30299 -3.81516e-16)
(4.50715 0.247329 0)
(1.95822 2.72267 -3.81328e-18)
(-0.426096 2.50245 3.46034e-17)
(-0.376449 1.34337 1.24027e-16)
(1.63055 2.48037 -1.68943e-16)
(0.939922 5.89523 -3.28118e-18)
(-0.253288 7.2084 2.39532e-17)
(-5.04388 0.0476626 -3.54338e-19)
(-0.494561 2.89826 -3.57705e-16)
(-2.62278 4.53028 -1.6231e-19)
(-0.706631 0.957292 2.69361e-16)
(0.789393 -0.0456886 -2.71323e-16)
(-0.0725128 0.972223 2.64459e-16)
(-0.29326 2.10948 0)
(0.000290951 5.88768 1.74505e-18)
(9.67418 0.378861 -9.07545e-18)
(0.0168697 5.14699 0)
(-2.76323 1.48542 4.13656e-16)
(4.16655 0.407276 1.47941e-17)
(0.021074 3.70901 0)
(-2.37513 5.6971 2.42091e-16)
(2.16499 7.53889 0)
(1.82171 8.24636 2.50484e-17)
(-0.113704 -0.844108 0)
(4.83995 0.825582 1.83746e-17)
(-2.20403 3.02922 -1.85088e-16)
(1.83198 -0.0392725 -9.46463e-17)
(0.560284 1.13739 -1.98548e-17)
(-0.217512 2.32945 1.88798e-16)
(-0.360948 1.35275 -7.50205e-17)
(5.36483 0.279058 7.84625e-18)
(8.23241 0.337114 0)
(2.49 -0.236373 -1.62781e-17)
(-0.0414939 3.21301 0)
(-0.374289 1.5696 0)
(1.55437 0.0874347 -1.21556e-16)
(1.20706 0.910771 0)
(-3.06435 5.16484 0)
(2.46509 1.9654 -3.75756e-17)
(1.55278 0.122443 0)
(-1.58929 -1.83541 1.358e-16)
(-0.301543 0.921659 8.50826e-17)
(-1.49746 0.504179 2.0163e-16)
(-0.753628 5.4933 1.01258e-16)
(0.267777 0.825548 2.0012e-17)
(3.74963 0.302819 -5.07401e-17)
(-1.10273 0.161402 -3.61497e-16)
(13.019 2.69986 0)
(-0.281365 0.667414 0)
(-0.451474 2.22726 -2.31448e-16)
(0.481856 1.0547 -9.59432e-19)
(-0.424018 1.42817 1.68062e-17)
(1.3507 1.45598 1.92369e-17)
(10.1435 2.23382 3.2428e-18)
(1.75947 1.48712 4.57619e-17)
(-0.266505 2.0278 -6.8524e-17)
(-1.10584 0.928624 3.51154e-16)
(-0.0730641 -0.349313 -2.92733e-16)
(-0.121469 6.40303 0)
(0.313894 -0.0553722 4.47703e-16)
(0.843973 0.444571 -2.29583e-16)
(-0.159385 3.32206 -3.32802e-17)
(-0.0887247 0.254579 -1.95172e-17)
(-2.1284 4.8438 -2.73092e-16)
(-0.0181616 6.42978 -4.91821e-18)
(-0.284629 0.490984 2.47686e-16)
(-0.228727 1.26553 1.22415e-16)
(-0.154187 1.48459 0)
(2.27285 4.20333 7.60433e-17)
(2.44401 -0.0673003 5.17314e-17)
(0.419874 7.09707 0)
(-0.269977 2.62911 -1.81277e-16)
(0.450189 0.227996 -6.91862e-16)
(3.19934 4.07242 0)
(-3.71808 -0.245287 -1.1e-16)
(0.154679 5.1475 0)
(-0.778774 -1.0162 1.95097e-19)
(3.43823 0.198976 -2.60413e-18)
(9.29247 2.162 2.00587e-18)
(1.47844 1.40435 0)
(2.82492 4.79858 1.50942e-16)
(-0.240478 5.34899 -9.26012e-17)
(2.69222 4.08364 0)
(0.357443 -0.100749 -1.24193e-16)
(-0.440932 1.67377 -1.16879e-16)
(-0.304473 6.84772 -7.81912e-17)
(-0.460549 3.25945 1.27067e-16)
(-0.458954 6.86642 1.71577e-16)
(2.36623 -0.0266371 -2.86756e-17)
(1.24153 -0.283462 0)
(0.28419 5.8821 0)
(1.25316 -0.180568 2.96091e-17)
(-0.776371 5.77203 1.21689e-16)
(-0.212268 5.95618 -3.0779e-17)
(0.65761 0.0917949 1.29037e-16)
(0.186267 -0.104071 -2.57089e-16)
(-2.89343 5.29396 0)
(-3.37512 5.68738 6.07553e-17)
(9.75789 7.62151 -1.29101e-18)
(-0.535782 6.62685 2.46989e-17)
(-0.501442 2.01805 -1.79689e-17)
(0.418153 7.2114 -5.45024e-17)
(1.00951 1.71221 2.43518e-16)
(4.59968 1.72383 2.55738e-18)
(3.60867 -0.0388659 -1.12329e-16)
(0.907198 1.51446 0)
(10.735 0.832166 2.35077e-18)
(-1.88053 5.00285 5.15308e-17)
(7.98504 0.511665 1.175e-18)
(-3.08603 4.40747 -7.67314e-17)
(0.0139375 -1.32089 -1.48533e-16)
(-3.60898 7.66191 -1.73008e-16)
(-0.347279 1.32609 2.09361e-19)
(1.26267 0.221154 3.46233e-16)
(1.31165 5.05137 -1.14132e-16)
(0.561752 5.53173 -2.637e-16)
(-1.87429 5.65342 -7.44429e-19)
(3.76964 0.217697 1.05064e-17)
(-0.025339 3.38685 -5.74327e-17)
(-1.15274 3.73502 3.11219e-17)
(0.361927 4.94934 -2.21411e-18)
(-0.316646 -0.910288 0)
(-1.35339 -1.39033 0)
(-3.6253 7.25946 -5.44128e-17)
(5.84417 0.294941 1.78702e-18)
(7.81986 0.224653 -1.39329e-17)
(-0.218652 5.36208 1.34926e-16)
(2.41853 3.07081 -2.8201e-17)
(2.47422 -0.0357174 6.94857e-17)
(2.8105 -0.103268 8.19899e-18)
(-3.35961 7.53094 3.45099e-17)
(-0.166414 4.38845 -1.05744e-16)
(0.68792 2.26677 3.95713e-16)
(-0.191959 5.25096 -8.74188e-17)
(-0.00999844 0.599653 0)
(-0.384606 -0.0168396 -1.2008e-16)
(-0.500796 5.54165 -7.87498e-17)
(0.680737 4.68238 0)
(7.49739 0.98213 -1.01524e-17)
(-3.0681 0.328958 6.16559e-17)
(5.33035 0.228145 0)
(0.573404 7.1192 0)
(6.10445 2.56559 -2.88102e-17)
(-0.235104 7.45065 1.25018e-17)
(0.482562 5.15884 -6.10898e-18)
(-0.843754 6.20565 0)
(0.454426 1.36542 7.83756e-17)
(-4.87058 -0.122407 3.85825e-16)
(-1.42176 -0.410367 -5.38864e-16)
(3.72343 0.107143 -3.65814e-17)
(2.41726 0.146686 7.2355e-17)
(-5.21785 0.0308025 1.18633e-16)
(-2.76706 -0.904371 0)
(1.09407 2.13429 -6.69756e-17)
(2.86085 3.65007 -1.70596e-18)
(2.21243 0.772581 8.75897e-17)
(2.12052 3.39283 -2.4494e-17)
(-2.79063 6.37573 0)
(-0.338596 2.52646 1.12346e-16)
(-3.06697 6.1391 6.30864e-17)
(2.03373 -0.526326 0)
(9.26675 0.55414 1.44375e-16)
(-0.318056 2.87816 0)
(-2.68059 6.35396 0)
(3.51435 4.87605 -2.60443e-18)
(-0.31872 2.68185 2.32981e-16)
(-0.410035 0.0830383 2.08586e-16)
(2.30607 0.11221 -2.2519e-16)
(-0.634435 -1.2726 2.0444e-16)
(1.04563 0.479241 2.36706e-16)
(0.10471 0.309134 0)
(-0.433939 2.38184 1.23353e-19)
(-0.177239 0.634304 -2.90256e-16)
(7.84195 -0.130562 -6.8032e-17)
(0.0124014 -0.270282 5.95023e-17)
(0.0871572 0.822479 4.73277e-16)
(0.67722 0.546258 -1.36642e-16)
(2.30208 2.14605 1.39128e-17)
(6.4148 -0.233933 4.1996e-17)
(3.91678 0.107841 -7.10987e-17)
(0.178012 8.12705 8.48562e-17)
(-0.00499438 4.70992 3.16448e-19)
(0.023875 4.72173 8.30708e-17)
(-0.000559996 4.654 7.47797e-19)
(0.0144323 4.68555 0)
(0.158194 8.98741 -7.43634e-17)
(-0.0367105 4.5564 -1.60229e-16)
(-0.00602799 2.68584 -9.90442e-19)
(-0.053361 2.98048 -2.52551e-17)
(-0.0375629 2.75299 0)
(0.0505413 2.79866 5.69102e-17)
(0.193827 7.43965 0)
(0.257511 9.84023 0)
(0.0688971 2.95091 -7.47762e-17)
(0.338282 6.07839 -4.37618e-18)
(0.261967 6.78328 -4.03856e-18)
(0.0693881 3.04563 2.35688e-17)
(-0.0623997 4.31231 8.51953e-17)
(-0.0711064 4.11435 0)
(0.0606844 3.09609 -3.2387e-17)
(-0.0566009 3.93997 0)
(-0.0303757 3.87181 0)
(0.0532851 3.13281 2.41534e-17)
(-0.014039 3.82422 0)
(-3.05884 5.74646 6.69544e-17)
(5.79574 4.05453 -5.53142e-17)
(-0.61101 -1.32719 2.29596e-16)
(-3.30435 0.989238 0)
(2.06806 1.71342 -1.23806e-16)
(-0.616754 -0.00132484 1.08411e-16)
(-0.105082 -0.165959 5.98794e-16)
(8.23703 1.85706 -1.80772e-17)
(-0.260492 7.30429 -1.56494e-17)
(0.889273 5.86224 0)
(-0.368476 0.158919 5.83183e-16)
(0.479701 -0.0692735 3.14238e-16)
(1.10651 0.634585 0)
(5.36628 -0.133619 3.27778e-17)
(0.366963 -0.373728 -2.59062e-16)
(0.000232242 1.73707 -1.36824e-16)
(6.20868 3.25605 9.96407e-17)
(1.66308 0.448121 -7.18587e-17)
(-3.26516 6.22606 6.50856e-17)
(1.26527 -0.000348174 -5.37874e-17)
(3.5955 -0.0626767 -7.34265e-17)
(7.75447 0.808321 -2.96508e-19)
(-1.60472 0.367319 -2.66329e-16)
(-0.0125268 3.75947 0)
(1.06109 3.26359 3.63039e-16)
(2.75109 3.77364 3.04886e-19)
(-0.556975 0.141642 6.51792e-17)
(-0.671918 1.50527 0)
(10.3076 0.113277 2.9424e-17)
(-0.198475 3.20738 -1.07917e-16)
(1.64106 0.133236 4.06057e-18)
(-2.78376 5.94969 9.23122e-17)
(-0.557429 2.36959 0)
(0.217545 6.65254 6.35264e-18)
(-0.154392 5.95233 -5.02742e-17)
(8.6727 2.79303 2.48631e-17)
(-0.824207 -1.06794 2.77157e-16)
(-1.5942 -0.852327 -2.30945e-16)
(0.0233412 -0.882286 1.96641e-16)
(0.146988 -0.0121209 -6.78393e-17)
(0.257469 5.17201 3.16e-17)
(-0.0924959 5.58875 6.64607e-21)
(0.192607 4.0283 -2.05079e-17)
(-3.36336 0.935339 0)
(2.55152 5.14005 1.10808e-18)
(-1.9338 3.59891 4.19768e-17)
(1.72796 0.0632612 1.18673e-16)
(-0.163171 -0.936751 0)
(-1.26066 3.61714 -2.68919e-16)
(0.306437 4.42426 0)
(10.6098 0.6437 2.13292e-18)
(-0.993778 5.11991 0)
(2.06915 5.10816 -5.73705e-17)
(-0.357395 0.434043 1.97887e-16)
(-1.62195 -1.76534 1.95044e-16)
(1.54737 0.0616267 0)
(2.3378 -0.181294 -2.74778e-17)
(-0.0305871 3.40866 3.96664e-19)
(-0.153809 -1.06536 0)
(2.73921 -0.0784126 0)
(1.38892 5.30826 -1.68589e-16)
(-0.00577427 6.21294 -9.52596e-18)
(7.30394 0.038287 0)
(1.0582 0.737144 -1.0753e-16)
(2.30097 0.00101861 -2.07834e-16)
(-2.40895 -0.481747 0)