/*--------------------------------*- C++ -*----------------------------------*\
| =========                 |                                                 |
| \\      /  F ield         | OpenFOAM: The Open Source CFD Toolbox           |
|  \\    /   O peration     | Version:  v1912                                 |
|   \\  /    A nd           | Website:  www.openfoam.com                      |
|    \\/     M anipulation  |                                                 |
\*---------------------------------------------------------------------------*/
FoamFile
{
    version     2.0;
    format      ascii;
    class       surfaceScalarField;
    location    "0.01";
    object      phi;
}
// * * * * * * * * * * * * * * * * * * * * * * * * * * * * * * * * * * * * * //

dimensions      [0 3 -1 0 0 0 0];
oriented        oriented;


internalField   nonuniform List<scalar> 
2776
(
-0.00022867
-6.72785e-05
0.000250145
4.58042e-05
-7.5166e-05
9.01062e-05
2.89839e-05
-4.39241e-05
8.16495e-05
4.33185e-05
-4.2715e-05
-8.2253e-05
1.24955e-05
-2.73549e-05
0.000165389
-0.00015053
4.69054e-05
7.52141e-05
-9.01748e-05
-3.19447e-05
4.43077e-05
8.129e-05
-8.95297e-05
-3.6068e-05
0.00013921
9.61859e-05
5.60399e-05
-3.49875e-05
-2.86668e-05
7.61437e-06
0.000302585
0.000238176
-0.000229683
-0.000311078
-8.65132e-05
8.78865e-05
-3.99355e-05
3.85623e-05
-0.000124497
-0.00029492
0.000142048
0.000277369
7.5287e-05
-1.23118e-05
-7.2231e-05
9.25579e-06
0.000213139
2.62547e-05
-0.000329915
9.05216e-05
2.55072e-05
-2.34561e-05
4.48542e-05
-4.10772e-05
3.36271e-05
5.17578e-05
0.000159353
-9.76748e-05
-0.000186175
5.45588e-07
5.50997e-05
-1.03359e-05
-4.53094e-05
-2.95161e-06
-9.35678e-05
9.65194e-05
8.43373e-05
-9.2205e-06
4.67936e-06
-7.97961e-05
0.000245395
-3.65895e-05
2.53862e-05
-0.000234192
-0.000165334
1.8114e-05
-1.09757e-05
0.000158196
1.43185e-06
-0.000164582
0.000244397
-8.12477e-05
8.39572e-05
5.57784e-06
-3.43732e-06
-8.60977e-05
0.000227033
2.79766e-05
-1.97083e-05
-0.000235302
8.39358e-05
-9.04676e-05
-0.000300683
0.000307215
-1.98276e-05
1.96768e-05
-2.46621e-05
2.48128e-05
0.000196061
9.15613e-05
1.98605e-05
0.000126783
-0.000142414
-4.2288e-06
-6.51601e-05
6.72565e-05
-0.000107919
0.000105823
-7.17633e-05
7.58062e-05
0.000118303
-0.000122346
0.000120875
-0.000269193
-9.20973e-06
0.000157527
-4.78828e-05
5.24873e-06
-2.59827e-06
4.52323e-05
-4.95405e-05
5.38981e-05
2.64586e-05
-3.08161e-05
-1.92714e-05
2.79464e-05
-0.000269392
0.000260717
2.69347e-05
4.29267e-06
0.000182816
-2.81275e-07
-0.000241056
0.000176177
-0.000203489
-8.71371e-05
-1.64124e-05
5.65855e-05
6.52644e-05
-2.22341e-05
-4.30302e-05
3.34606e-05
-0.000166486
0.000133026
3.66634e-05
-0.000190901
0.000154237
0.000206458
-0.00026383
5.7372e-05
0.000207953
-0.00020789
-6.30432e-08
0.000126014
1.57661e-05
-0.00014178
0.000101819
1.75541e-05
-0.000119373
0.000179543
-3.93518e-05
0.000211373
2.5317e-06
1.89874e-05
-3.51468e-05
1.61594e-05
3.93861e-05
-4.85282e-05
9.14213e-06
-3.26411e-05
2.27768e-05
9.86424e-06
7.81385e-05
-8.46378e-05
6.4993e-06
-2.21368e-05
-5.30292e-05
5.85223e-05
2.27677e-05
4.98992e-05
2.53149e-05
-5.62543e-05
6.71378e-06
-0.0003306
0.000414536
0.000182997
-2.40508e-05
-0.000158946
-0.000229302
-6.56177e-05
-6.25674e-05
7.34608e-05
-1.08934e-05
-6.67748e-05
-1.97384e-05
-7.0188e-06
-2.72147e-05
2.79057e-05
6.32787e-06
0.000152318
-0.000141634
2.59797e-05
0.000130919
-0.000122455
2.49961e-05
-3.10161e-05
1.63914e-05
6.40484e-05
-4.94237e-05
0.0001781
-0.000166526
3.48901e-06
-1.50626e-05
1.302e-05
-2.34179e-05
-1.69376e-05
2.73355e-05
0.00011052
-6.23799e-05
9.20569e-06
-5.73459e-05
-8.75982e-05
-6.8001e-06
-0.000142339
0.000231888
-0.00023481
1.91867e-05
-1.62649e-05
-5.50987e-05
9.52647e-05
5.98276e-05
-9.99937e-05
5.49115e-05
-4.59949e-05
-3.62745e-05
2.73579e-05
5.85388e-06
-7.69738e-05
7.11199e-05
2.30429e-05
-0.000194789
0.000171746
0.000279613
-0.000114117
-0.000223421
5.79249e-05
-1.83967e-05
2.47471e-05
-1.33692e-05
-0.000206638
-4.06144e-05
0.000119019
0.000128233
1.33208e-05
0.000151455
-1.24575e-05
1.46955e-05
0.000129876
-1.36529e-05
0.000121469
-8.33325e-05
-3.81363e-05
2.74588e-05
-0.00014805
0.000136783
-1.61923e-05
-4.76483e-05
5.8971e-06
-1.64513e-05
5.82025e-05
-0.000135366
0.00016568
0.000111733
-0.000128589
4.22174e-06
8.06297e-05
4.37373e-05
-0.000106505
7.40341e-06
9.85111e-05
5.90672e-07
-0.000282218
3.14143e-05
0.000270914
-2.01105e-05
2.05979e-05
0.000190456
-0.000195253
-1.57999e-05
-6.76007e-05
0.000310799
-0.00026247
1.3452e-05
-6.06806e-06
0.000167552
-0.000174936
6.08777e-05
-4.32616e-05
-6.78089e-05
8.79117e-05
-5.82012e-05
3.80984e-05
-2.30543e-05
2.09261e-05
-1.76994e-05
0.000142134
-7.72889e-05
0.000131216
-1.18606e-05
-0.000140439
0.000164795
-0.000217763
2.68901e-05
-8.38962e-05
0.000274769
-3.66213e-05
-1.48428e-05
1.64766e-05
2.53952e-05
8.11825e-05
8.92377e-06
-1.79293e-05
-2.80146e-05
-7.5282e-05
-1.48929e-05
-1.13912e-05
1.28985e-05
-9.75363e-05
1.48256e-05
4.16177e-06
5.25268e-06
3.41334e-05
0.000221401
-1.34481e-05
-2.75584e-05
-1.10834e-06
9.99408e-06
1.47525e-05
7.21774e-05
0.000205191
-4.56736e-05
-2.68073e-05
-1.11247e-06
7.05044e-07
0.000229022
-0.000246942
1.07462e-05
7.17356e-06
-4.48541e-05
-0.000158317
0.000135893
1.32374e-05
7.4649e-05
-1.11905e-05
-5.7477e-05
2.89132e-05
3.97542e-05
-0.000236777
0.00011508
-1.80971e-05
-8.39048e-05
0.000177289
-4.65399e-05
0.000104445
8.13052e-05
-4.13465e-05
9.04692e-05
7.21038e-05
-0.00018185
0.000172805
-1.83098e-05
-0.000148591
-3.62168e-05
0.000138623
4.61857e-05
-0.000124723
-3.59929e-05
0.000127122
3.35938e-05
-1.61986e-07
0.000126176
4.24685e-06
9.7572e-05
1.68339e-05
-0.000200521
-0.000183556
4.73809e-05
0.000165535
-2.93603e-05
-4.38718e-05
0.000109711
1.25659e-05
-7.84048e-05
-8.77448e-05
0.000264606
2.30285e-05
-0.00019989
-5.15271e-05
-8.45267e-06
6.90031e-05
-9.02333e-06
1.54167e-05
7.43944e-05
5.36431e-05
0.000196433
-1.50062e-07
4.57734e-05
-4.54117e-06
-4.10822e-05
0.000156518
0.000138721
-5.98188e-06
7.00621e-05
6.27037e-05
2.1257e-05
-9.25859e-06
0.000144496
2.12607e-06
-0.000137364
0.000245303
2.91815e-05
-1.86076e-05
-0.000255877
9.10172e-05
1.77393e-06
-1.3176e-06
-9.14736e-05
-0.000139354
7.90934e-05
0.000135799
-7.55391e-05
-0.000169726
-1.36166e-05
-1.84142e-06
0.000185184
-5.01136e-05
-3.39006e-06
5.62085e-06
7.90987e-05
-4.77069e-05
-1.67873e-05
-1.46045e-05
8.65177e-05
-6.13191e-05
-3.89016e-06
-2.13085e-05
-7.37196e-05
0.000157281
-0.000151371
-3.88923e-05
4.64752e-06
3.17344e-05
-6.41095e-05
6.1359e-05
-0.00021656
-2.5714e-05
5.87184e-05
1.90223e-05
-9.65528e-06
-4.59884e-05
-7.38191e-05
-1.24129e-05
3.3212e-06
8.29108e-05
-0.000190534
8.3324e-05
-1.56664e-05
0.000174539
5.94221e-06
-0.000164815
0.000281921
-0.000100028
-0.000249494
3.23772e-05
-5.18755e-05
-1.20267e-05
3.1525e-05
-0.000127889
8.97388e-05
6.59057e-05
-2.77555e-05
1.34705e-05
2.66784e-07
-6.38509e-05
-0.000168461
4.51981e-05
0.000150722
-0.000144891
0.000165489
0.000128351
-0.000245066
-1.12901e-05
0.000128006
-3.87513e-05
5.68604e-05
-6.43292e-05
4.62201e-05
-5.05117e-05
0.000132559
0.000235149
-0.000241675
6.01692e-05
9.13285e-05
-9.12855e-05
1.53737e-05
0.000164756
-0.000137217
1.72002e-05
-4.47395e-05
-2.70148e-05
0.000202731
-0.000187616
1.18999e-05
0.000126731
-0.000174123
6.72525e-05
-3.00098e-06
5.70356e-06
-6.28396e-05
6.0137e-05
-1.93764e-06
1.31935e-05
1.15209e-05
-9.7123e-06
2.50398e-05
7.25937e-05
-8.28146e-05
1.02209e-05
-0.000111138
7.25591e-05
-0.000376103
0.000414682
-6.65263e-05
3.27835e-06
9.10705e-05
-2.78225e-05
7.1596e-05
-4.80457e-05
-9.53135e-05
-7.22207e-06
-3.74737e-06
-1.58379e-05
4.37537e-05
-1.55595e-05
2.67173e-05
-0.000317741
0.000278736
-6.38277e-05
0.000102833
4.62053e-05
-3.67302e-05
-1.93797e-05
9.90465e-06
9.06087e-06
-0.000171353
0.000162134
1.5772e-07
1.25704e-05
3.17227e-05
-9.75801e-06
-3.45351e-05
-1.4441e-05
5.66205e-06
0.000179748
-0.000170969
0.000185379
3.51653e-05
-3.00892e-05
-0.000271514
-2.20361e-05
1.13315e-05
-0.000107296
-1.09259e-05
1.17171e-05
-0.000278403
-4.4578e-05
8.81709e-05
-1.4828e-05
-6.47345e-05
0.000201031
0.000161627
-2.64484e-05
-0.000144438
-1.32827e-05
1.42789e-05
2.69094e-05
-8.72242e-05
-3.93407e-06
7.92977e-05
9.12482e-05
9.09225e-05
-0.000165163
-1.70073e-05
9.19418e-05
-3.86605e-05
-0.00018117
3.0481e-05
-2.37955e-05
-1.39075e-05
4.1481e-05
5.37837e-05
-4.68707e-05
2.65515e-06
1.554e-05
2.86756e-05
-6.21058e-05
-7.65288e-06
2.74516e-05
4.23071e-05
-0.000246299
0.000167821
-7.9663e-05
-4.00968e-05
3.25355e-05
5.05246e-05
-1.5534e-05
-9.91123e-05
9.7027e-05
6.99389e-05
-6.78537e-05
-0.000214607
0.000217424
4.42635e-05
-4.70799e-05
-4.41514e-05
1.43797e-05
-1.62231e-05
-5.71034e-05
-0.000102493
1.63138e-05
0.000177102
6.34274e-05
0.000116235
-4.22378e-05
-0.000137425
-8.07881e-06
-5.92223e-05
1.09986e-05
5.63025e-05
-5.67015e-07
0.000241732
4.23053e-06
5.19997e-07
8.63249e-05
-2.50764e-06
-3.1605e-05
3.40359e-05
-0.000263345
0.000260914
-5.30955e-06
3.80001e-06
-9.54072e-05
9.69168e-05
7.37748e-05
-2.63654e-05
7.93213e-05
-6.15017e-06
-0.000168331
9.14677e-06
-6.10901e-05
-0.000195062
0.000297015
-4.08629e-05
0.000169935
6.29238e-05
-4.74797e-05
-0.000200959
-0.000131644
-8.28182e-05
-5.79857e-05
3.35075e-05
-6.02092e-05
0.000226497
6.88609e-05
-2.06742e-05
8.23997e-05
2.9603e-05
-4.24557e-05
-2.10849e-06
-1.29128e-05
-8.86929e-05
2.19814e-05
3.40227e-05
-4.65421e-06
-9.59769e-05
-6.70698e-05
4.11121e-05
1.67513e-05
3.69732e-05
-1.64489e-05
-3.72757e-05
4.87839e-05
5.31109e-06
-2.70855e-05
-2.70095e-05
-1.98546e-05
1.57359e-05
-6.7011e-05
3.22359e-05
-7.6806e-06
1.54844e-05
-3.29551e-05
-1.88038e-05
-2.22699e-05
0.000126021
-0.000240218
0.000136467
2.98114e-05
-0.000141833
-5.31416e-05
2.34347e-05
0.000173787
-0.000173998
-2.32242e-05
-7.47936e-05
3.92071e-05
6.37042e-05
-2.81177e-05
2.94647e-05
-5.92102e-05
4.85814e-05
-7.84736e-05
3.9884e-05
-9.99178e-06
-3.43439e-06
0.000116049
2.62788e-05
1.44367e-06
-0.000143771
2.1079e-05
-1.28913e-05
-0.000156237
7.27072e-05
-8.4204e-05
-0.000132284
6.14931e-06
6.48965e-05
-6.33468e-06
-6.47111e-05
2.05055e-05
-0.000167888
1.74086e-06
-8.44078e-07
4.39774e-05
-4.48742e-05
-6.43346e-05
0.000232809
-0.000118951
9.18132e-05
9.75344e-06
1.73843e-05
-2.87037e-05
0.000104689
0.000179805
4.182e-05
-5.16896e-05
0.00017452
-3.51212e-05
0.000122653
-0.000197806
0.000221387
0.000176741
-0.000200322
-3.90896e-06
-5.63603e-05
5.21905e-05
5.44313e-05
5.70446e-05
-2.54881e-06
0.000165798
-0.000138596
-0.000107033
0.00020296
4.2669e-05
-0.000241106
0.000275142
-0.000200654
0.000263578
-9.90183e-05
0.000102818
-2.55218e-06
5.62724e-05
-9.34021e-06
0.000145564
-3.8834e-05
-2.83271e-05
0.000134499
-8.86983e-05
-0.000113108
6.73069e-05
1.06327e-05
-5.23631e-05
6.11246e-05
-8.7615e-06
-3.17472e-05
1.68651e-05
-0.000136366
3.71323e-05
-0.000246738
7.10098e-05
4.10487e-05
-0.000185939
-0.000204355
-3.67508e-05
-9.41404e-05
-4.87785e-06
9.1642e-06
-6.06082e-05
-7.77825e-06
1.74093e-05
-5.84101e-05
5.45126e-06
3.48993e-05
2.99847e-05
-0.000137341
5.0025e-05
-5.2554e-05
0.00013987
-0.000149071
8.56288e-05
5.83178e-05
-8.96675e-05
-2.99694e-05
-1.87371e-05
4.06683e-05
1.86025e-05
-4.05337e-05
-0.000206451
-8.50188e-05
0.000149338
0.000142131
6.22229e-05
-6.71911e-05
0.000144245
-0.000139277
-0.000186417
0.000174155
-0.000173606
3.47755e-05
-9.44511e-05
0.000233282
-3.45926e-05
3.43573e-05
3.46277e-05
-3.43924e-05
8.973e-05
-0.000126024
4.54652e-06
-4.68317e-08
7.73639e-05
6.40541e-05
-1.48399e-05
2.42466e-05
0.000135476
-0.000131825
-4.58885e-05
0.000129266
9.08752e-05
-0.000172761
0.000233826
1.63181e-05
-0.00019507
-1.92785e-05
-0.000134648
5.95297e-05
8.6737e-05
-9.76629e-05
0.000172941
-0.000194977
2.25428e-05
1.11027e-05
-2.37813e-05
-6.2334e-05
2.02711e-05
3.22895e-06
3.30474e-05
-3.5368e-05
-2.86428e-05
3.09634e-05
2.80301e-05
-3.76006e-05
-2.46253e-05
3.41958e-05
-1.17783e-05
2.46808e-06
9.31018e-06
-0.00013091
0.000329146
-0.00026257
0.000176983
-0.000173665
-0.000118683
-3.56466e-05
-0.000194613
0.000104208
-4.19107e-05
0.000122013
-0.000168483
8.83809e-05
6.09862e-05
-5.58122e-05
-1.60859e-05
1.09118e-05
-0.000125669
0.000126923
5.89841e-05
-6.02378e-05
3.01039e-05
-2.47003e-05
-0.000222872
0.000217469
-0.000236352
0.000119498
0.000162052
-4.73878e-05
8.59157e-05
-8.97028e-05
0.000228455
3.34184e-05
3.39777e-05
-3.61349e-05
-3.12613e-05
2.60899e-05
-7.98759e-05
6.07812e-07
5.31782e-05
9.16477e-05
-1.51043e-05
1.45271e-05
-0.000145461
-6.77026e-05
6.98299e-05
0.000143334
9.72433e-05
-2.98508e-05
6.176e-05
-0.000129153
1.25929e-05
-2.17411e-05
7.01344e-05
-1.34367e-05
2.65663e-05
-5.42067e-05
-3.2507e-05
-5.13155e-05
2.14885e-05
-0.000252529
2.36722e-05
-1.66603e-05
0.000245517
-0.000134278
3.40156e-05
0.000133131
-3.28694e-05
1.14366e-06
-3.83277e-05
9.70637e-05
3.85073e-05
3.50245e-05
-5.20207e-05
-4.40499e-06
1.37081e-05
6.13695e-05
-7.06726e-05
-5.49224e-06
-0.000100871
0.000103411
-3.3923e-05
3.42217e-05
-4.20649e-05
5.11617e-05
0.000124028
-0.000128473
5.44702e-05
-7.79233e-05
0.000142066
7.03563e-05
0.000244206
-0.000149769
0.000245255
-0.000339692
0.000150223
3.86209e-05
-9.69025e-05
7.57263e-05
-1.79808e-05
-0.000246125
-4.22155e-05
0.000256185
3.21556e-05
-6.42939e-05
-3.03926e-05
8.5972e-05
8.71453e-06
-5.49662e-05
-1.4865e-05
6.82782e-05
1.5529e-06
-5.46801e-05
-4.99297e-06
-7.77517e-05
-8.2891e-06
5.74069e-05
2.22296e-05
-3.76446e-05
0.00010181
-8.63949e-05
9.98971e-05
0.000148702
-4.58685e-05
3.53091e-06
-1.53092e-05
-0.000191474
-4.65548e-06
0.000116812
-0.000107328
3.87008e-05
-4.8185e-05
-3.78101e-05
-0.000232015
-8.57757e-06
0.000151264
4.57306e-05
-9.29327e-05
-0.000240571
0.000253985
0.000230792
3.33746e-05
-0.000209077
0.000262093
-8.63902e-05
-7.21208e-05
-0.000152256
-6.43546e-05
0.000148908
0.000144705
0.000150977
7.62095e-05
-0.000227468
9.31592e-05
-0.000242929
0.000213008
-0.000138258
-0.000315321
4.49702e-05
-5.38277e-05
-3.43133e-05
-0.000190064
0.000156187
-6.44962e-05
2.81199e-05
-3.83475e-05
0.000150098
2.43156e-05
-0.000219295
0.000244715
-4.97349e-05
-5.74254e-05
5.51784e-05
1.50161e-05
0.000115324
-1.98201e-05
0.000117492
-9.82373e-05
-9.7636e-05
7.83813e-05
0.000129472
-0.000150196
0.000118169
-9.74439e-05
6.78201e-05
2.53391e-05
4.58192e-05
0.000106329
-8.82094e-05
6.77061e-05
0.000147426
0.000168381
-5.05411e-05
0.000116774
-9.50246e-05
-2.17496e-05
7.50031e-05
-0.000117393
2.91376e-05
4.26707e-05
-3.75866e-05
-0.000248396
1.8951e-05
-3.41024e-05
0.000263547
-2.17957e-05
7.89944e-05
-6.95105e-05
0.000145624
-2.88498e-05
-0.000142411
-0.000139661
6.43095e-05
6.5765e-05
-0.000134685
0.000250791
-5.36081e-05
4.91984e-05
-0.000246381
-2.06956e-05
0.000264642
1.88288e-05
-0.000262775
0.000259525
-2.94295e-05
-4.87331e-06
0.000274222
-9.82439e-06
-0.000274987
-3.1894e-05
0.000276268
3.06129e-05
-1.52181e-05
-5.96227e-06
-5.8139e-05
4.77304e-05
-1.09603e-05
-4.27323e-05
5.81261e-05
-2.64816e-05
5.19807e-05
-1.55957e-05
1.23974e-05
6.46407e-06
-0.000241912
0.000223051
-0.000238681
3.05459e-05
0.00023676
-2.86249e-05
6.51946e-05
-0.000201929
0.000180064
-4.33293e-05
3.31581e-05
-0.000244541
-2.72977e-05
-0.00018747
3.67602e-05
0.000187311
-3.66016e-05
-7.5231e-06
5.38576e-05
-0.000216277
0.000169942
4.91401e-05
3.71978e-05
-4.81701e-05
0.000193794
-3.17866e-05
-0.000181382
2.56987e-05
-0.000145348
0.000137825
-5.37708e-05
5.53519e-05
4.7559e-05
2.95815e-05
-4.87246e-05
-3.67852e-05
2.69235e-05
-7.25995e-05
8.24613e-05
2.188e-05
-7.01973e-05
-0.000109265
-5.03484e-05
0.00012397
3.56438e-05
-0.000143223
0.000102076
-0.000154874
0.000196021
6.7828e-05
1.14255e-05
-0.000116039
-4.65931e-05
5.97113e-05
-0.000131739
5.83666e-05
0.000155731
-8.23583e-05
0.000132955
-0.000145995
-6.08464e-05
7.38862e-05
5.87579e-05
1.68689e-05
-5.10742e-05
-2.45526e-05
2.45461e-05
7.02053e-05
-9.57133e-05
7.36663e-05
-0.000113054
0.000102786
-4.73823e-05
-1.88141e-05
3.29566e-05
3.32398e-05
-6.08295e-05
2.36711e-05
-6.8345e-05
2.93955e-05
4.77312e-05
-3.54022e-05
3.96015e-05
5.71967e-06
-0.000117815
4.42233e-05
-6.99706e-05
0.000143562
0.000156801
-0.000116886
-0.00018591
-0.00010905
0.000152797
-4.27665e-05
3.99403e-05
-0.000114988
-0.000142489
-0.000108655
-6.15024e-05
0.000127391
-9.58346e-05
-5.57357e-05
0.000110784
0.000170173
0.000125935
-7.27949e-05
-5.4454e-05
4.69203e-05
0.00010372
-4.73953e-05
4.38075e-05
9.06556e-05
2.65975e-05
-4.48727e-05
-9.90263e-06
2.81779e-05
0.000170502
-0.000139636
2.29918e-05
-3.5722e-05
0.000103542
0.000172125
-9.71776e-07
-0.000171153
3.46644e-05
-4.73036e-05
4.43736e-05
-0.000138813
-6.53506e-06
6.0249e-05
4.70832e-05
-4.84744e-06
0.000171686
-0.000166839
7.19244e-07
4.58463e-05
8.78129e-06
5.5929e-05
5.96719e-05
-0.000168566
0.000180963
3.56115e-05
4.52016e-05
-3.49668e-05
-6.01465e-05
6.90934e-05
3.97658e-05
3.49035e-05
-4.00048e-05
0.00018768
-6.73384e-05
-0.000165195
4.26996e-05
-5.6091e-05
0.000278778
3.64251e-05
-3.42166e-05
3.75573e-05
0.000153479
2.77548e-05
6.4459e-06
1.71491e-05
-3.63795e-05
4.70753e-05
-2.78449e-05
-3.35593e-05
4.59704e-05
2.64113e-05
-3.88225e-05
-4.53479e-06
1.56023e-05
0.000124549
8.17788e-05
-0.000206328
0.000328296
-8.37831e-06
-0.00025095
2.16615e-05
0.000235752
-0.000135886
-3.26801e-05
-4.71057e-05
-1.88953e-05
5.59741e-05
1.00268e-05
7.85388e-05
5.00351e-05
-0.000124352
-1.13367e-05
4.59306e-05
-4.30648e-05
4.14096e-05
-4.14326e-05
-0.000264874
-9.71849e-06
2.8778e-05
2.65507e-06
-7.56887e-05
1.73642e-05
-1.99032e-05
6.96881e-05
-7.15806e-05
-1.17552e-05
-0.00013244
-0.000274993
0.000269451
-2.6352e-05
-0.000274276
-1.93422e-06
0.000249799
-0.000112608
8.64295e-05
-0.00022362
-2.23382e-05
-0.000267873
5.73014e-05
-5.85702e-05
6.84529e-05
5.7539e-05
-6.06909e-05
4.62066e-05
-5.2274e-05
3.78745e-05
9.6413e-05
-0.000108281
1.13274e-07
8.25671e-05
-9.62178e-05
-1.40319e-05
-5.6878e-05
-0.00020031
5.02176e-05
0.00020697
0.00017984
-5.05029e-05
-0.000174528
4.51908e-05
6.14596e-05
0.000170804
-0.000148386
-8.38773e-05
-1.85857e-06
0.00018319
-0.000183668
-0.00015143
-5.70203e-05
0.000189198
4.76624e-05
-0.000170729
0.000181685
0.000146732
9.93615e-06
0.000152235
-8.6226e-05
3.0404e-05
-8.64485e-05
7.80659e-06
1.82866e-05
-2.4404e-05
0.000174498
-4.02039e-05
-0.00016739
3.68647e-05
9.7253e-05
3.1643e-06
-3.93372e-05
3.94983e-05
-2.94946e-05
0.000259448
-0.000203082
-6.8403e-05
-0.000244737
3.61148e-05
0.000239168
-4.66059e-05
0.000271228
-0.000255242
3.06201e-05
5.24443e-05
0.000263322
8.78869e-05
-0.000178144
-8.64083e-05
0.000188768
7.57839e-05
-1.12552e-05
0.00031609
-0.000261895
-2.90604e-05
0.0002797
-8.81981e-05
-3.70609e-05
6.32001e-05
3.13997e-05
-0.00012764
-0.000221506
1.27891e-06
0.000244542
-0.000134881
0.000145695
5.04204e-05
3.34245e-05
2.96674e-05
0.000186877
0.00022544
-0.000244362
-2.76835e-05
5.89748e-05
-3.11855e-05
-4.04043e-05
1.2615e-05
0.000191057
-6.63915e-05
3.50535e-05
-3.69249e-05
-0.000230149
0.000263524
0.000112089
-5.44057e-05
0.000213544
0.000131766
1.62513e-05
-0.000292204
0.000274018
0.000159481
0.000173533
4.89735e-05
3.6697e-06
-0.000226176
-2.9362e-05
-8.33309e-06
0.000251458
0.000117077
0.000190864
-4.62286e-05
-0.000257244
-4.88433e-05
0.000188305
-0.0001785
3.9038e-05
-7.54022e-05
9.88345e-05
5.664e-05
-6.58931e-05
0.000280279
-3.10571e-05
-0.000271561
0.00026596
1.13336e-05
-0.000187007
0.000122466
2.88188e-05
0.000270179
0.000196994
0.000285819
-0.000303026
1.23594e-05
0.000195632
-2.35073e-05
-7.21317e-05
0.000152341
3.84408e-05
-0.00025002
-0.000250758
0.000247525
4.16742e-05
-0.000131071
6.21878e-05
-0.000118761
1.33502e-05
-0.00013724
-0.000197859
-4.92988e-05
0.000120629
5.27366e-05
-5.28242e-05
6.019e-05
-0.000182519
-4.38257e-05
-0.000207838
0.000254034
-0.000126888
5.79439e-05
3.11544e-05
-0.00013054
6.0375e-05
-6.09061e-05
-3.83137e-05
2.85612e-05
0.000187986
-0.000178233
6.97436e-05
0.000143439
-0.000163051
-0.000168395
0.000188006
0.000136052
-0.000148296
-0.000159407
-4.05821e-05
5.31458e-05
-3.45168e-05
-0.000179086
-8.05152e-06
-3.44002e-05
0.000128055
8.35868e-05
-4.67073e-05
4.52571e-05
0.000201955
-6.81277e-05
0.00013933
-4.79087e-05
-0.000161664
0.000297387
0.000191572
-0.000198637
0.000195249
-3.03849e-05
0.000251397
-0.000242235
2.12231e-05
8.4408e-06
-3.56543e-06
-0.000257404
3.60542e-05
-3.73499e-05
0.000196544
-9.5027e-05
8.21449e-05
-0.000182868
0.000199941
-9.92174e-05
0.000286403
-5.68192e-05
4.39838e-06
-0.000233983
0.000184084
-4.20152e-05
-0.000236766
3.92769e-05
0.00022549
-0.000241474
-9.8705e-05
0.000114689
0.000186831
-8.24182e-05
1.15959e-05
0.000258752
-0.000250067
-0.000212686
2.62343e-05
-6.66535e-05
0.000230206
6.56054e-05
-0.000229158
-0.000203907
5.7926e-05
-3.58689e-05
0.000151322
-6.04757e-06
7.91343e-05
-0.000224408
0.000235484
-2.39992e-05
0.000177088
-2.88457e-05
9.20585e-05
4.50757e-05
-0.000121517
5.68175e-05
7.68735e-05
0.000155033
-9.43084e-05
-0.000137598
-0.000250408
0.000166556
-0.000178531
0.000271757
-9.08939e-05
9.33905e-05
-1.67626e-05
0.000191568
-0.000175777
-0.000161178
-0.000104109
0.000187205
-0.000175407
-8.00974e-05
3.22098e-05
-2.26977e-05
0.000141217
-0.000152442
0.000141602
-0.000123161
-0.000136406
-4.9654e-06
-4.61366e-07
0.000137905
-3.26413e-05
-0.000139577
4.51604e-06
4.81116e-05
6.34716e-06
-3.97798e-05
-5.01061e-05
1.40364e-05
-4.80021e-05
-2.67252e-05
-2.22907e-05
-0.000249429
0.000251682
-0.000120144
-0.000115846
-6.46889e-05
5.94863e-05
-0.000128285
-0.000259042
-0.000105665
0.000110412
0.000182989
-2.20246e-05
-3.16984e-05
0.0001126
-0.000119045
-3.88853e-05
-1.89261e-05
4.21719e-05
-0.000129261
1.40714e-06
3.24414e-06
0.000244385
-0.000249036
5.41951e-05
-1.59844e-06
0.000236241
-0.000234642
0.000150424
-6.81096e-05
0.00014889
0.000297518
-3.35017e-06
-6.83845e-05
-0.000120206
-6.90132e-05
-3.28574e-05
2.09136e-05
-0.000221621
3.90509e-05
0.000122431
-0.00015616
-4.64254e-05
-0.000236096
0.000234398
4.8123e-05
-3.43464e-05
3.1369e-05
0.000190183
2.57249e-05
5.22469e-05
0.000268915
-0.000262073
0.000189694
-7.13911e-06
-0.000102644
0.000128083
-1.82992e-05
-0.00019943
-4.41643e-05
3.71326e-05
-2.10554e-05
-0.000234059
-2.54742e-05
0.000230473
-9.12919e-05
-0.000208869
2.35471e-06
0.000207794
-0.000146328
4.1784e-05
-0.000243601
-3.1175e-05
3.74081e-05
2.71853e-05
-0.000202223
-1.40187e-06
0.00017922
-0.000240157
-1.61926e-05
1.19406e-05
-0.000264835
-5.01368e-05
0.000314972
2.53131e-05
3.61381e-05
-5.62025e-05
0.000116618
-0.000312643
-3.77343e-05
0.000233759
-0.000171889
4.10509e-05
-1.07755e-06
-6.93769e-06
0.000234128
-0.000226113
0.000124088
-9.12144e-05
-0.000155662
-0.000169727
2.12819e-05
-1.89449e-05
-7.15616e-05
-9.96346e-06
6.59911e-05
8.11673e-05
-0.000188685
3.67013e-05
7.19344e-05
9.5071e-05
-3.41736e-05
0.000225708
3.9018e-05
-0.000218536
-0.000162785
0.00017487
-1.59596e-05
3.49067e-05
-4.60326e-05
1.97644e-05
-1.63583e-05
-1.9855e-05
-6.14079e-05
-4.88462e-05
7.015e-06
-1.63289e-05
1.28448e-05
-9.83646e-05
0.000168505
-8.44062e-05
1.42656e-05
0.000153665
-0.000242971
0.00014665
-3.2555e-05
0.000128876
-2.97131e-05
-2.26798e-05
3.37538e-05
-2.32903e-05
6.94578e-06
-5.5264e-05
3.30298e-05
8.54342e-05
-0.000105483
9.3132e-05
1.23508e-05
-0.000147441
-4.00124e-06
-0.000126395
0.000123276
3.11925e-06
6.44769e-05
-6.78488e-05
3.37183e-06
-0.000131878
-0.000113177
7.1289e-05
-7.59198e-05
4.63078e-06
-0.000100423
-0.000186859
8.19678e-05
1.10439e-05
-0.00020905
-0.00011803
1.25469e-05
6.1476e-05
0.000131059
-0.000181167
0.000193547
-0.000133351
6.95607e-06
3.85474e-05
0.000213108
-0.000208837
-2.97455e-05
5.24607e-06
3.44026e-06
2.31148e-06
-0.000238732
-4.01261e-05
-7.5524e-05
0.000197638
5.86045e-05
-9.87239e-05
5.74744e-05
4.00153e-06
-6.21349e-05
0.000214279
-9.67681e-06
-0.000106567
-1.39469e-05
0.000115022
-0.000220063
0.000369993
0.000182163
3.35042e-05
3.64011e-05
-2.55927e-05
0.000178885
0.000224483
-0.000201605
0.000132679
0.0001817
0.000185977
-0.000111443
5.72313e-05
5.1869e-05
0.000131797
4.00057e-05
8.8061e-05
-9.83858e-05
-2.9681e-05
-0.000107752
-6.49073e-05
-0.000186267
-2.85944e-05
-0.000231318
3.12525e-06
-1.61321e-05
0.000244324
0.000263993
-1.24491e-05
-0.000247778
0.000246155
-2.29366e-05
-0.000265434
-2.01264e-05
4.81717e-06
-0.000181928
-0.000289568
-5.71535e-05
-0.000100481
0.000118187
-0.000198873
5.88955e-05
-6.71691e-05
5.97697e-05
-6.69142e-05
4.01744e-05
3.81742e-05
-7.30388e-05
-0.000157732
0.000163674
0.00018242
-0.000128677
2.85466e-05
2.67918e-05
-0.000165987
0.000121975
-1.73215e-05
-6.09274e-05
6.17976e-05
-3.49019e-05
0.000168274
7.50356e-05
-5.92937e-05
3.1809e-05
-4.75509e-05
8.39857e-05
9.31553e-05
9.79038e-06
-0.000158639
0.000148391
1.02481e-05
-1.20264e-05
1.78345e-05
-5.80817e-06
-3.04839e-05
-2.4377e-05
-2.91151e-05
-0.000176811
0.000203214
0.000199087
2.07019e-05
2.42279e-05
7.07677e-05
-6.5414e-05
-0.000122877
0.000113418
4.14224e-05
-0.000240565
-4.53634e-05
2.38552e-05
0.000276345
-0.000268727
1.74224e-05
0.000248788
-5.41827e-05
4.14701e-05
-8.99163e-06
4.22003e-05
6.32247e-05
-3.28523e-05
3.84284e-05
0.000168211
-5.67704e-05
-7.05685e-05
1.44286e-05
-0.000162043
-6.21717e-05
-3.51318e-06
-1.79962e-05
1.56044e-05
-7.49348e-05
0.000230216
5.95675e-05
-0.000131152
-0.000158631
-0.000157744
-3.4661e-05
-0.000181695
-3.42349e-05
0.000184503
-9.24208e-05
1.06026e-05
4.99898e-05
8.34318e-05
9.70025e-06
-0.000261494
-0.000205165
-2.33625e-05
0.000231817
-3.84322e-05
0.000177147
-1.35274e-06
-0.00015686
-0.000283459
0.000137293
9.07759e-05
0.000186237
-9.36279e-07
4.08016e-05
-0.000254378
-0.00017559
7.79901e-06
-1.9357e-06
-0.000101999
0.000142889
0.000221342
-7.12779e-05
-2.07501e-05
-3.88434e-05
-0.000153524
0.0002127
-0.000130261
3.53602e-05
-0.000141195
1.37852e-05
0.000196931
3.75334e-05
-4.95061e-05
-3.00922e-05
-0.000236979
9.61568e-07
4.14039e-05
-0.00018945
-2.86982e-05
4.96647e-05
-0.000101767
5.48e-05
0.000169434
0.000255502
8.09426e-06
-0.000252
-2.97748e-05
0.000135593
2.32974e-05
-5.66797e-06
-6.35839e-06
-2.5142e-05
0.000277951
-6.39502e-05
-1.12254e-05
-0.000143303
7.15246e-06
-0.000155768
9.77734e-05
4.23982e-06
7.69742e-06
2.37227e-06
4.70933e-05
2.76988e-06
4.67822e-05
0.000108752
1.45309e-05
-2.03173e-05
-3.42312e-05
2.48037e-05
1.08081e-05
-2.33858e-05
0.000156485
-6.02879e-05
-5.9366e-05
0.000104826
-9.77075e-05
-7.86112e-05
1.13943e-05
-8.79926e-05
1.50152e-05
0.000117201
0.000108021
-0.000145184
-6.48365e-05
-0.000162303
-0.000102919
0.000111697
7.23682e-07
-3.82088e-06
2.69544e-05
-9.12217e-06
1.71167e-05
0.000203423
-0.00015379
0.000148114
-6.3502e-05
0.00014468
5.11728e-05
3.57655e-05
-2.04376e-05
2.66092e-05
5.75326e-05
7.51199e-06
0.000141273
0.000254785
-0.000162626
-0.000116859
0.000203152
-0.000155982
-4.80087e-05
-0.000114706
-0.000148825
-3.05986e-05
-0.00020225
2.7684e-05
-0.000164707
1.39902e-05
-2.09581e-05
-2.0118e-05
-4.74083e-05
4.53895e-05
8.76649e-05
7.06773e-05
-0.000107938
-0.000237268
-0.000186728
-0.000157293
1.39693e-05
-3.42803e-05
-0.000247148
4.14684e-07
0.000213015
-1.98875e-05
-0.000193542
6.01804e-05
-3.79496e-05
-8.0722e-06
0.000144129
-0.000148948
-1.88056e-05
6.23006e-05
-4.79e-05
1.74449e-05
-2.11665e-05
-3.954e-05
0.000288155
-0.000110576
-1.4562e-05
9.37032e-05
-5.85682e-05
4.49239e-05
0.000254341
-4.30798e-05
1.72574e-05
-7.99378e-06
-1.3011e-05
-0.000323699
-0.000167569
-0.000280006
-5.00266e-05
4.55131e-05
0.000143103
9.13015e-06
-1.30903e-05
7.92688e-05
-2.58556e-05
3.42517e-05
-1.01775e-05
-0.000170515
-0.000260358
-3.36486e-05
2.05171e-05
-0.000227242
0.000226675
-0.000201856
0.000214497
1.21779e-05
-0.000161125
0.000157448
3.6778e-06
-0.000169038
-3.28178e-05
-1.15906e-05
-0.000160588
0.000154438
-8.15016e-05
8.04111e-05
1.09043e-06
-8.09816e-05
-0.000153659
-6.92981e-06
0.000143462
0.000134031
9.43129e-06
-0.000137345
-7.63022e-05
0.00012048
-0.000106005
-1.44742e-05
-6.8392e-05
-7.91016e-06
-5.91742e-05
-9.21782e-06
5.63939e-05
-6.40468e-05
-2.78028e-06
0.000128305
5.72654e-06
0.000129064
-7.5905e-07
0.00013119
-2.01679e-06
0.000232446
-7.9033e-05
-2.7932e-05
7.8056e-06
-0.00018187
-0.000147949
0.000230602
8.26242e-05
-9.78435e-05
0.00026575
-7.88619e-06
4.15263e-05
4.99002e-05
-0.000214313
-4.16118e-06
2.64096e-06
1.7122e-06
9.90581e-05
-0.000223325
9.25821e-06
-1.72509e-05
-4.12807e-05
-4.89941e-05
0.000141423
6.96735e-06
-0.000173795
-4.03951e-05
5.03156e-05
-4.7681e-05
-3.33166e-05
3.41246e-05
-6.80998e-05
-2.08591e-05
-0.000227749
0.000191469
-0.000201539
0.000172027
1.60638e-05
0.000129837
9.66071e-05
-0.000132986
8.10235e-05
-0.00011277
0.000283533
-0.000409843
-5.35655e-05
3.97504e-06
4.95904e-05
0.000291975
1.20292e-05
3.85886e-05
0.000101688
-3.77627e-05
-1.09945e-06
-4.55573e-05
-9.09415e-05
0.00024507
-0.000244285
7.30949e-06
6.4865e-05
3.14207e-05
-5.31223e-05
1.80241e-05
0.000107692
0.000247399
-0.000247839
-0.000123522
5.19502e-05
-0.000107024
4.72728e-05
4.47522e-05
-4.67839e-05
3.60094e-05
-9.28441e-05
-0.000229423
-5.34173e-05
8.58677e-06
4.20604e-05
-2.67078e-05
2.51067e-05
-4.04594e-05
0.000103539
6.19847e-05
-7.37104e-05
4.91122e-05
-0.000109086
-7.75705e-05
9.98636e-05
-2.62272e-05
-2.13342e-05
0.000169597
1.46455e-05
9.62682e-06
1.61183e-05
3.57767e-05
0.00013169
-0.00020843
1.58935e-05
-6.04488e-05
1.98636e-05
0.000197282
-3.45865e-06
-6.73855e-05
-8.8263e-05
-0.000125608
0.000128773
-0.00016455
-1.56663e-07
-0.000300016
0.000222624
-1.23106e-05
-0.00010732
7.58056e-05
-1.58736e-05
6.29547e-06
4.36346e-05
-5.45824e-05
-2.89878e-05
-0.000132402
-6.75711e-05
3.78677e-05
-3.11771e-05
-0.000157055
-0.000132597
4.27958e-05
-0.000110144
5.39507e-05
1.86659e-05
4.56281e-05
5.19457e-05
-2.71772e-05
4.5876e-05
0.000212397
-0.000165775
-2.93813e-05
-2.45545e-05
6.12658e-06
3.99165e-05
-0.000188143
2.10673e-05
4.97064e-06
-0.000219316
-0.00032463
0.000264046
1.15949e-05
2.22578e-05
0.000220932
2.06449e-05
6.67328e-06
-3.90005e-05
4.98989e-05
-3.93877e-05
7.57443e-05
2.18026e-05
-8.48011e-06
-3.36398e-05
-2.92081e-05
4.11195e-05
-5.16912e-05
-1.52472e-05
2.30383e-05
-5.57933e-05
8.1259e-05
0.000132143
-9.53717e-05
-3.50292e-05
5.50569e-05
-5.12546e-05
-0.00010151
5.26665e-05
-9.00808e-05
6.86859e-05
5.1303e-05
-0.000232079
-0.000153198
0.000151365