/*--------------------------------*- C++ -*----------------------------------*\
| =========                 |                                                 |
| \\      /  F ield         | OpenFOAM: The Open Source CFD Toolbox           |
|  \\    /   O peration     | Version:  v1912                                 |
|   \\  /    A nd           | Website:  www.openfoam.com                      |
|    \\/     M anipulation  |                                                 |
\*---------------------------------------------------------------------------*/
FoamFile
{
    version     2.0;
    format      ascii;
    class       volScalarField;
    location    "0.54";
    object      nut;
}
// * * * * * * * * * * * * * * * * * * * * * * * * * * * * * * * * * * * * * //

dimensions      [0 2 -1 0 0 0 0];


internalField   nonuniform List<scalar> 
1466
(
0.000614116
0.000963756
0.000729426
0.000488665
0.00100051
0.00176972
0.000723298
0.00130259
0.00296756
0.00177085
0.00022247
0.00216912
0.00013777
0.000557278
0.00097764
0.000646236
0.000175071
0.000779844
0.00157041
0.000534016
0.00151512
0.00133026
0.000275252
0.000860352
0.000590542
0.001133
0.00146043
0.00187494
0.000376881
0.000489249
0.00184707
0.00327565
0.00133939
0.00161808
0.00100722
0.00104744
0.00055317
0.000502211
0.00560937
0.000919498
0.00213875
0.00281351
0.00291254
0.00202072
0.00178559
0.00265251
0.000673101
0.000452262
0.00292815
0.00132134
0.000666967
0.00065706
0.000405376
0.00119904
0.000382172
0.00260289
0.000450068
0.00135517
0.00147673
0.00286926
0.000600731
0.00056468
0.00122289
0.00203742
0.00121245
0.000705467
0.00238239
0.00163527
0.000574824
0.000943263
0.000546853
0.000551266
0.000443511
0.000589237
0.000143501
0.00309117
0.000611624
0.000739499
0.000648884
0.00200521
0.000393507
0.000546737
0.00112548
0.00298289
0.000488177
0.000900268
0.000428251
0.00163296
0.000685965
0.000990384
0.000537137
0.000383892
0.00183098
0.000461681
0.000657233
0.00125154
0.000935169
0.00145449
0.000995949
0.000557171
0.000558145
0.00228085
0.000770939
0.000347182
0.00095355
0.00305959
0.00161746
0.00113225
0.000970646
0.000647028
0.00141709
0.000671445
0.00114697
0.000554884
0.000161436
0.005253
0.000295704
0.000447518
0.00100299
0.00154704
0.0013341
0.000908229
0.000263141
0.00167435
0.000713441
0.00289385
0.000780802
0.000389566
0.00245836
0.00209268
0.00291019
0.000627707
0.000788352
0.00219933
0.000622285
0.0015562
0.00269575
0.000654039
0.00179504
0.000359147
0.000723536
0.000373897
0.00288061
0.00182407
0.00178085
0.000304145
0.000322
0.000612569
0.00124543
0.000480637
0.00303879
0.000902073
0.000980413
0.00111803
0.000589454
0.00105384
0.000618439
0.0034593
0.00127088
0.000679556
0.00197047
0.000640855
0.000844536
0.00131479
0.0025819
0.00144392
0.00237855
0.000258607
0.000715394
0.00145891
0.00100365
0.000815318
0.000807549
0.00110957
0.00128338
0.00127602
0.00286069
0.0024952
0.000871816
0.00202633
0.000852598
0.00113979
0.00325921
0.000718484
0.00158181
0.000466747
0.00130318
0.00611367
0.0011644
0.000273767
0.000339449
0.00025132
0.000694324
0.00113253
0.000941781
0.000628543
0.0019226
0.000729475
0.000670783
0.000580768
0.00184176
0.000839447
0.00107355
0.00071639
0.000892675
0.00326286
0.00126777
0.00179326
0.000917463
0.000753369
0.000843475
0.00210498
0.000814218
0.000654826
0.00100498
0.00125878
0.000590561
0.00018095
0.000527468
0.000561529
0.00097509
0.000939032
0.000674223
0.000675191
0.00124114
0.000698441
0.000527949
0.00082588
0.00076054
0.00240552
0.00077087
0.0015901
0.000623888
0.00211849
0.00106938
0.000827676
0.00223128
0.000931433
0.00250236
0.000660874
0.00262991
0.00278951
0.00039863
0.00254314
0.00304839
0.000309734
0.000223508
0.000361171
0.000226484
0.00033054
0.000580395
0.00338566
0.00328616
0.00175429
0.00067658
0.00336294
0.000663793
0.00251977
0.00694718
0.00287681
0.000725831
0.000642421
0.00368332
0.000717231
0.00148797
0.00086225
0.0031667
0.00164488
0.000856827
0.000554441
0.00282357
0.000881986
0.000912312
0.000658938
0.000599269
0.00207598
0.00137937
0.000744984
0.000512487
0.00317523
0.000748603
0.000277859
0.000347381
0.000603482
0.00110185
0.00103741
0.00123953
0.000438862
0.00202909
0.000443188
0.000707576
0.00290739
0.00142689
0.00272783
0.00352118
0.000923278
0.00486975
0.00618155
0.000925149
0.000351936
0.000778317
0.00298442
0.000602004
0.00149713
0.000853699
0.000795916
0.000912859
0.00261792
0.000183609
0.00718169
0.00239399
0.000648642
0.000906847
0.00104232
0.00318397
0.000760476
0.00134661
0.000956791
0.00235828
0.000771535
0.00075043
0.00131847
0.00342013
0.000264483
0.000256146
0.000262601
0.000234238
0.000312257
0.000182151
0.000301707
0.000288577
0.000274962
0.000214011
0.000307127
0.000259008
0.000260518
0.000182478
0.000318514
0.000248033
0.000261426
0.000395322
0.000359467
0.00019396
0.000248427
0.000338818
0.000185393
0.000356139
0.000299827
0.000840128
0.00205731
0.00354244
0.000824179
0.00346936
0.0022956
0.00240745
0.000762583
0.00144591
0.000368706
0.00658185
0.00104139
0.0019136
0.00165301
0.00131745
0.000319824
0.000352201
0.000366304
0.000244653
0.000187796
0.000374241
0.000439756
0.000206346
0.00028166
0.000350802
0.000261812
0.00022844
0.000266676
0.000228959
0.00466068
0.000594898
0.000285781
0.000787987
0.000901918
0.00185095
0.000666555
0.000995964
0.00119875
0.000690749
0.000947051
0.00206978
0.0014086
0.00206442
0.00298381
0.00140219
0.00344238
0.000201018
0.000775892
0.00140918
0.000673524
0.000821062
0.000170304
0.000266155
0.000576981
0.00161906
0.000977515
0.00236916
0.00127772
0.00203895
0.00700294
0.00128288
0.00107714
0.000996434
0.00150804
0.000294137
0.000381399
0.00253025
0.00256316
0.00213818
0.00212823
0.0018442
0.00221496
0.00198602
0.000352648
0.00201657
0.00182431
0.00228775
0.00244498
0.00146302
0.00176783
0.00179931
0.00175078
0.00167347
0.0009015
0.00224072
0.00348042
0.0014648
0.00370589
0.00220944
0.00196419
0.00117463
0.00136647
0.000405979
0.00138397
0.00275889
0.00120096
0.00132291
0.00215869
0.00173551
0.00189481
0.00485375
0.00177973
0.00596952
0.00242742
0.000911139
0.00211249
0.00188128
0.000796612
0.00204931
0.00241062
0.000253397
0.00155033
0.00179896
0.0021599
0.00206218
0.00172332
0.00233113
0.000303901
0.00338173
0.000998915
0.00163911
0.000272994
0.00312174
0.00125929
0.00155935
0.000951993
0.00321217
0.00196796
0.000251611
0.000254508
0.00191659
0.00399018
0.00149702
0.00116485
0.00307048
0.00138231
0.00209172
0.00122285
0.00134806
0.000563232
0.00217303
0.00262673
0.00223609
0.00100825
0.00142645
0.000521053
0.000556229
0.00219842
0.00307291
0.00163512
0.000340175
0.000376822
0.000876016
0.00120323
0.000419849
0.00115392
0.000542671
0.00180814
0.00271958
0.00137053
0.00209535
0.00135988
0.00173141
0.00231553
0.00157293
0.0014027
0.000823613
0.00147737
0.000819103
0.00122882
0.00189303
0.00166344
0.00183621
0.0029012
0.0015215
0.00124182
0.000840686
0.00149303
0.0019257
0.0011185
0.00035241
0.000578513
0.00125137
0.001378
0.00152368
0.00177609
0.0011941
0.00146053
0.00242829
0.00259851
0.00106934
0.000989318
0.00201571
0.00236763
0.00186945
0.00219602
0.00148571
0.000864074
0.000249254
0.00331369
0.00262264
0.000799721
0.00110445
0.000832548
0.00279372
0.00238847
0.00146411
0.00219059
0.00145776
0.000787322
0.0021679
0.0014725
0.00100862
0.00192024
0.00181231
0.00334904
0.00256669
0.00317742
0.000825721
0.000873652
0.00172083
0.00359246
0.000591043
0.00176193
0.00198673
0.00189652
0.000552333
0.00231454
0.000643551
0.000584371
0.00170737
0.00221412
0.00309278
0.000756098
0.00217809
0.00161383
0.000684199
0.00701881
0.00259965
0.000905018
0.00412674
0.0026996
0.000276674
0.000301558
0.00220793
0.000812378
0.000748001
0.00104022
0.00142376
0.00322859
0.00321634
0.00152564
0.00487781
0.000826651
0.00101487
0.000627939
0.000871567
0.00327287
0.00228541
0.00102395
0.00255804
0.00486432
0.0026665
0.00163602
0.00246907
0.00679637
0.000561075
0.000701646
0.00312628
0.000640903
0.00159848
0.00100776
0.000803325
0.00105231
0.000401712
0.0036702
0.000786639
0.00232672
0.00194907
0.000874477
0.00131249
0.00345986
0.0036092
0.00381308
0.000800751
0.000243357
0.00121458
0.0030374
0.00128953
0.00283747
0.000841696
0.000918156
0.00146338
0.00126144
0.000500952
0.00130157
0.000614681
0.00274176
0.000704594
0.00213001
0.00311129
0.00148489
0.000816127
0.00390353
0.00347877
0.00227119
0.00122312
0.00317461
0.00262729
0.00199072
0.00137904
0.000723265
0.000671664
0.00302547
0.00212515
0.000596983
0.00238958
0.00319535
0.0031425
0.00191948
0.00340925
0.00369125
0.00121139
0.000698311
0.00126017
0.000590494
0.000259769
0.000278249
0.00213317
0.00316345
0.000783937
0.00196016
0.0011256
0.000794563
0.000153403
0.000716773
0.00256957
0.00060522
0.00225737
0.000997186
0.000223998
0.00103228
0.000623818
0.00104985
0.00113577
0.00157669
0.00350593
0.000814116
0.00335633
0.00114761
0.00352249
0.0027033
0.00182195
0.000687997
0.00355047
0.0014876
0.00279669
0.000946407
0.00234097
0.00371968
0.00193177
0.000963759
0.000873612
0.000188744
0.00130401
0.000893432
0.000931135
0.000648829
0.00338795
0.00438569
0.000933272
0.00157773
0.00191027
0.00218541
0.00113979
0.00239239
0.00285013
0.000740618
0.00191963
0.000741296
0.00147638
0.00136288
0.00275572
0.000984359
0.00237139
0.000227937
0.000218751
0.00260461
0.000236535
0.000219799
0.000325714
0.00584606
0.000261823
0.000245499
0.00015519
0.000146205
0.000202023
0.00107716
0.000187094
0.000712496
0.000377092
0.00300909
0.000524921
0.000239323
0.000574244
0.00342099
0.0019078
0.000983325
0.00708067
0.00233496
0.000589164
0.0006211
0.000246854
0.000703646
0.00363718
0.000981394
0.000727696
0.00235606
0.00164798
0.000244164
0.000566319
0.000503346
0.0025132
0.00314746
0.000328173
0.000175203
0.00367903
0.00216166
0.000820696
0.00320764
0.000832979
0.002221
0.00529799
0.00153696
0.000164504
0.000207921
0.00347043
0.00288373
0.000709411
0.00114062
0.000716638
0.00024189
0.000621786
0.000699721
0.00101609
0.000585506
0.00080367
0.00220405
0.00622813
0.000973764
0.00209269
0.000212087
0.000272381
0.00173811
0.000863314
0.000595879
0.000605144
0.00019759
0.00167227
0.000635427
0.00063976
0.00353486
0.00637508
0.000220194
0.00124352
0.00177942
0.000687855
0.0023992
0.00061458
0.000239729
0.000822319
0.00240961
0.00467515
0.000763479
0.00289054
0.00246848
0.000206546
0.000212053
0.000774027
0.000800435
0.000801824
0.00057039
0.000819005
0.00251127
0.000728993
0.000222218
0.000653174
0.000534566
0.00344049
0.00358503
0.000458055
0.000316063
0.000191739
0.0010115
0.00207782
0.00230438
0.00110833
0.0021214
0.00322611
0.00305887
0.00293207
0.00222172
0.00195623
0.00314278
0.0015862
0.00226668
0.000157465
0.000564021
0.00159666
0.000290806
0.000458387
0.000250929
0.00270388
0.00101537
0.00428342
0.00117397
0.000932296
0.000881366
0.000602541
0.000993512
0.00218225
0.000569641
0.00106758
0.00032215
0.00191428
0.00206762
0.000443609
0.000751607
0.000594948
0.00140041
0.00659266
0.00241359
0.00059305
0.000664519
0.0010497
0.001109
0.000592742
0.000427081
0.000947806
0.00333702
0.00290496
0.00156967
0.00301062
0.000798913
0.000521964
0.000564065
0.00104188
0.00419743
0.000990268
0.00122377
0.00161404
0.00116583
0.000948835
0.00140718
0.00196412
0.00127516
0.00238535
0.000210405
0.00093953
0.000944268
0.0028677
0.000764926
0.000847108
0.000457839
0.00297392
0.000198928
0.00304788
0.000148612
0.00201973
0.000659236
0.00132869
0.000904555
0.00159513
0.000668075
0.00199268
0.00330418
0.00228047
0.000679086
0.00164827
0.00107228
0.00276818
0.00121493
0.000624947
0.00162992
0.00269913
0.00254941
0.000175431
0.00316464
0.00119746
0.00344169
0.00107523
0.000133878
0.000128534
0.00011139
0.000120757
0.000223306
0.000193205
0.000231991
0.000215963
0.000141713
0.000204766
0.00021588
0.0001488
0.00015331
0.000154994
0.000954633
0.000152426
0.000150916
0.00209382
0.000255948
0.00208422
0.000187306
0.000232649
0.00431295
0.00177063
0.000858875
0.000586206
0.000182109
0.00194868
0.000507775
0.00067339
0.00120073
0.000238106
0.00189139
0.000200307
0.000468503
0.00160889
0.000236415
0.00103154
0.000878728
0.000245701
0.000758274
0.00205595
0.00227662
0.00697109
0.00234977
0.00162893
0.000723982
0.00130768
0.00120704
0.000786928
0.0015085
0.000976989
0.00068949
0.000243544
0.000251371
0.00151525
0.000491957
0.00018509
0.00597417
0.00186658
0.00255001
0.00024769
0.00025155
0.00247544
0.00146803
0.00264225
0.000610407
0.000723729
0.00202995
0.000801825
0.000295716
0.00139075
0.000225211
0.000246661
0.00318361
0.00160163
0.00127019
0.00109089
0.000902974
0.00188553
0.00253579
0.000721968
0.000435428
0.000582173
0.000506375
0.00211705
0.00169987
0.00118918
0.00222499
0.000758445
0.00355677
0.00145922
0.000630284
0.00255463
0.000264778
0.00019228
0.00330784
0.00216635
0.000112648
0.00233293
0.00176127
0.00619924
0.000120088
0.000845469
0.00148583
0.00217224
0.00213555
0.00095775
0.000156843
0.00277484
0.00112387
0.000964075
0.000397084
0.000637293
0.00224307
0.00025567
0.00199014
0.00395876
0.000620051
0.000529873
0.00134902
0.00316038
0.000525888
0.000527536
0.00014543
0.00101556
0.00125419
0.000561969
0.00570454
0.00135567
0.00217387
0.00173442
0.000330936
0.00102613
0.00113972
0.00636876
0.000879389
0.00148427
0.00161062
0.000782269
0.000217294
0.0011159
0.000252697
0.000254619
0.00167496
0.000685758
0.00202788
0.00512303
0.00200367
0.000557233
0.000873153
0.00163808
0.00230044
0.000771873
0.00332212
0.000266516
0.000210502
0.000351079
0.00136159
0.00150592
0.000993942
0.000252543
0.000245547
0.000894225
0.00212486
0.000994858
0.000582438
0.000140544
0.00023659
0.00105456
0.000237037
0.00141311
0.00215459
0.000901882
0.000910161
0.00146007
0.000232775
0.000491932
0.000599678
0.000620048
0.00100183
0.000178371
0.000246928
0.00249007
0.000670683
0.00019817
0.00031623
0.000451244
0.000643899
0.000430095
0.00129629
0.000349762
0.000539239
0.00116966
0.0032181
0.000320797
0.00049532
0.00204788
0.000216461
0.00469083
0.000753834
0.000232714
0.00148797
0.00187798
0.000915557
0.000975642
0.00205178
0.000138857
0.000833115
0.00251656
0.000239997
0.00064707
0.000209042
0.000424826
0.000705378
0.000206778
0.00162023
0.000196189
0.000452634
0.00078666
0.000541915
0.000619222
0.0024468
0.00326074
0.000382703
0.00239055
0.000742267
0.000342038
0.000620028
0.000467693
0.000406474
0.000181311
0.00100857
0.00328685
0.000485871
0.000222209
0.00184735
0.00330495
0.000971784
0.00058294
0.00145199
0.000274645
0.00211455
0.000908109
0.00057735
0.00016965
0.000535307
0.0013825
0.000885647
0.00247248
0.00104993
0.00142272
0.00125993
0.000734667
0.000233032
0.000751254
0.00696466
0.00232047
0.00257851
0.000483127
0.00283002
0.0014878
0.00112071
0.00231922
0.000819842
0.000640859
0.00155928
0.000418692
0.00526907
0.000895012
0.00389738
0.00204716
0.00104307
0.000610084
0.000745355
0.00407977
0.000917596
0.00235318
0.00300815
0.00235707
0.000325358
0.000597252
0.000787998
0.00100325
0.00148415
0.000682367
0.000453661
0.00019732
0.00677017
0.0019915
0.000636783
0.000736949
0.00132838
0.000379332
0.000815266
0.000414513
0.00207163
0.000495202
0.00160762
0.000501478
0.000326565
0.00132194
0.000577945
0.003269
0.00514687
0.00287122
0.00620114
0.000709212
0.0013644
0.000775682
0.00146708
0.0020466
0.00661159
0.00155186
0.00394838
0.00223073
0.000865176
0.000777776
0.00208293
0.00229974
0.000742296
0.000634341
0.00136236
0.000983387
0.00211018
0.0027405
0.000846473
0.000844235
0.00138803
0.000148297
9.07894e-05
0.000444868
0.00264936
0.00238926
0.000366813
0.00725835
0.00215802
0.00262691
0.00146238
0.00061953
0.000834148
0.000594825
0.00127949
0.00099137
0.00493535
0.000745481
0.000776905
0.00249648
0.00215206
0.000676185
0.000679494
0.0011343
0.00729336
0.00225456
0.000497684
0.00270542
0.00240817
0.00255637
0.000148119
0.00315452
0.00077768
0.00230674
0.00411923
0.000110232
0.000797686
0.000866905
0.00266942
0.00120853
0.00395137
8.25858e-05
0.00140355
0.00239726
0.000876717
0.000944197
0.000225235
0.00131604
0.00270626
0.000743526
0.00117794
0.000677618
0.00299378
0.000641112
0.00103273
0.00282312
0.000923308
0.00164851
0.00182125
0.000627783
0.00105493
0.00106746
0.00254011
0.000980347
0.00325355
0.000612177
0.00107997
0.00260897
0.000252534
0.00295192
0.000884601
0.000864166
0.000544194
0.000971428
0.00162953
0.000176277
0.000906966
0.00103306
0.000204586
0.00186036
0.000666507
0.000826921
0.000810069
0.0026558
0.000563734
0.00320925
0.000878652
0.000928704
0.00099972
0.00169538
0.00136428
0.000593196
0.00246839
0.000625169
0.00116352
0.000447143
0.000579333
0.000413558
0.00080541
0.000636308
0.00230009
0.00410935
0.000142653
0.00066297
0.00116368
0.000975557
0.00142586
0.000192278
0.000673214
0.000217388
0.00264806
0.000701538
0.000793174
0.000424329
0.000773661
0.00130314
0.000846411
0.00145242
0.000708736
0.000714822
0.00162113
0.00159286
0.00123915
0.000571441
0.00135275
0.000729238
0.00109946
0.000775981
0.000205628
0.000693807
0.00125461
0.0024507
0.000834964
0.00228779
0.00207218
0.00325327
0.000801673
0.00132135
0.00210276
0.000591038
0.000381968
0.000603951
0.00138339
0.000684393
0.000595176
0.000965142
0.000758585
0.000932439
0.000780125
0.00092051
0.00190116
0.0069639
0.00216699
0.00342807
0.000668267
0.00144209
0.000677745
0.000487023
0.00301676
0.00313041
0.000722998
0.000698657
0.00120778
0.00090153
0.000662601
0.000750049
0.00053815
0.00072653
0.000706869
0.00126986
0.000312572
0.0011173
0.000899269
0.00105105
0.00131255
0.000658817
0.00257955
0.00267144
0.000607576
0.000734096
0.00106697
0.000782048
0.000812788
0.00208528
0.000398448
0.00185057
0.00283659
0.00310556
0.000530367
0.0021146
0.0029323
0.000435825
0.00130921
0.000698428
0.0010335
0.00035748
0.000473762
0.000520181
0.000645327
)
;

boundaryField
{
    frontAndBack
    {
        type            empty;
    }
    wallOuter
    {
        type            nutkWallFunction;
        Cmu             0.09;
        kappa           0.41;
        E               9.8;
        value           nonuniform List<scalar> 
102
(
1.39195e-05
1.39195e-05
3.24437e-05
1.46388e-05
1.72752e-05
2.04288e-05
2.28388e-05
1.61591e-05
2.62004e-05
2.48828e-05
2.75227e-05
2.49634e-05
2.88367e-05
1.64625e-05
1.52008e-05
2.28662e-05
2.09373e-05
2.82736e-05
2.92399e-05
2.88938e-05
1.92683e-05
1.7746e-05
2.37898e-05
2.43655e-05
3.22533e-05
2.34982e-05
2.42763e-05
1.65078e-05
2.98209e-05
2.25619e-05
1.55206e-05
1.33167e-05
1.23478e-05
9.91613e-06
1.12544e-05
2.57229e-05
2.16786e-05
2.68233e-05
2.46509e-05
1.45176e-05
2.30842e-05
2.45254e-05
1.5584e-05
1.62615e-05
1.65082e-05
1.61187e-05
1.58748e-05
2.07615e-05
2.67207e-05
2.74176e-05
2.27429e-05
2.72027e-05
2.8419e-05
2.8126e-05
2.91487e-05
2.0141e-05
2.86627e-05
2.91692e-05
2.57626e-05
2.88169e-05
3.16383e-05
1.0337e-05
1.13771e-05
1.66164e-05
3.03812e-05
1.50533e-05
3.93893e-05
2.98275e-05
3.03989e-05
2.41097e-05
2.97074e-05
2.87981e-05
1.43427e-05
2.79368e-05
2.72993e-05
2.67945e-05
1.94789e-05
2.23183e-05
5.16127e-05
2.45876e-05
2.67445e-05
1.40767e-05
2.36548e-05
2.21974e-05
4.57624e-05
1.96978e-05
2.53745e-05
1.84665e-05
2.6825e-05
2.19567e-05
1.54184e-05
6.9794e-06
1.53694e-05
1.0032e-05
5.85704e-06
2.57873e-05
2.9867e-05
1.89292e-05
2.32154e-05
1.45966e-05
2.14828e-05
2.51015e-05
)
;
    }
    inlet
    {
        type            calculated;
        value           nonuniform 0();
    }
    outlet
    {
        type            calculated;
        value           nonuniform 0();
    }
    wallInner
    {
        type            nutkWallFunction;
        Cmu             0.09;
        kappa           0.41;
        E               9.8;
        value           nonuniform List<scalar> 
138
(
2.44314e-05
1.95949e-05
4.40408e-05
5.94467e-05
7.99554e-05
4.9432e-05
0.000141327
4.6451e-05
6.80041e-05
4.67557e-05
6.50589e-05
4.16607e-05
3.07949e-05
8.77262e-05
4.54454e-05
3.58717e-05
3.8197e-05
3.02893e-05
3.22668e-05
4.05116e-05
2.92474e-05
1.99096e-05
4.8657e-05
3.71286e-05
2.55332e-05
4.37923e-05
2.64597e-05
3.98116e-05
0.000173597
3.30299e-05
4.19915e-05
5.37221e-05
3.10655e-05
3.00867e-05
3.11189e-05
2.73231e-05
3.73371e-05
2.02149e-05
3.64774e-05
3.43962e-05
3.25503e-05
2.46506e-05
3.7173e-05
3.04845e-05
3.06756e-05
1.97065e-05
3.77063e-05
2.95118e-05
3.12515e-05
4.79576e-05
4.33111e-05
2.21162e-05
2.90591e-05
4.09029e-05
2.02979e-05
4.35462e-05
3.55975e-05
4.43606e-05
3.87578e-05
4.23085e-05
4.43375e-05
2.86296e-05
2.10972e-05
4.51264e-05
5.40315e-05
2.3914e-05
3.31503e-05
4.29089e-05
3.08667e-05
2.67686e-05
3.15095e-05
2.67765e-05
3.44045e-05
1.80282e-05
3.1964e-05
3.54773e-05
4.53027e-05
4.21232e-05
0.000164083
4.82114e-05
2.9905e-05
3.53222e-05
3.36004e-05
2.9609e-05
3.06719e-05
6.60551e-05
4.02371e-05
4.49503e-05
5.02118e-05
0.000137466
9.23255e-05
4.24663e-05
2.91038e-05
7.6241e-05
3.25609e-05
3.5528e-05
4.82397e-05
2.86998e-05
7.14207e-05
3.05095e-05
3.26698e-05
2.5564e-05
2.0755e-05
3.83568e-05
3.114e-05
3.88846e-05
2.80912e-05
2.19424e-05
2.50435e-05
2.77328e-05
2.54063e-05
3.78923e-05
2.10538e-05
3.44603e-05
3.90433e-05
2.39092e-05
1.9063e-05
3.05682e-05
1.99012e-05
3.54513e-05
6.42518e-05
5.97629e-05
2.14273e-05
2.42146e-05
3.14024e-05
2.87471e-05
2.73091e-05
2.37029e-05
4.13976e-05
3.21708e-05
3.89821e-05
4.56125e-05
0.000152093
8.22293e-05
4.25941e-05
5.54969e-05
6.25637e-05
7.8518e-05
)
;
    }
    procBoundary2to0
    {
        type            processor;
        value           nonuniform List<scalar> 
42
(
0.00745657
0.00745657
0.000906299
0.000680605
0.00226019
0.00669541
0.00114239
0.00114239
0.00197953
0.00174552
0.00382177
0.00382177
0.00294788
0.00429025
0.00477728
0.00576557
0.00565594
0.00155697
0.00187922
0.00360461
0.00279704
0.00132113
0.00132113
0.00181817
0.00279704
0.0010356
0.00253478
0.000785313
0.00253478
0.00751674
0.00676121
0.000729188
0.000894334
0.00102799
0.00115548
0.000680605
0.00565594
0.000253453
0.00433192
0.00139105
0.00139105
0.00129776
)
;
    }
    procBoundary2to1
    {
        type            processor;
        value           uniform 0.00383707;
    }
    procBoundary2to3
    {
        type            processor;
        value           nonuniform List<scalar> 
29
(
0.00107437
0.00175401
0.00035955
0.000317965
0.00136779
0.000477443
0.000807425
0.00180665
0.00130066
0.00107856
0.00130732
0.00215708
0.000558121
0.00337106
0.00232962
0.00338163
0.0010996
0.0010996
0.00175401
0.00337106
0.00293294
0.000948754
0.000481234
0.0012864
0.0013358
0.000584477
0.00130066
0.00353923
0.00215708
)
;
    }
}


// ************************************************************************* //
