/*--------------------------------*- C++ -*----------------------------------*\
| =========                 |                                                 |
| \\      /  F ield         | OpenFOAM: The Open Source CFD Toolbox           |
|  \\    /   O peration     | Version:  v1912                                 |
|   \\  /    A nd           | Website:  www.openfoam.com                      |
|    \\/     M anipulation  |                                                 |
\*---------------------------------------------------------------------------*/
FoamFile
{
    version     2.0;
    format      ascii;
    class       volScalarField;
    location    "0.33";
    object      p;
}
// * * * * * * * * * * * * * * * * * * * * * * * * * * * * * * * * * * * * * //

dimensions      [0 2 -2 0 0 0 0];


internalField   nonuniform List<scalar> 
1466
(
77.9556
77.3184
77.3166
79.307
79.3482
70.6439
80.503
78.5768
77.2256
80.0879
78.1154
80.6782
80.7123
80.2647
79.6201
80.3585
79.5808
79.185
79.5202
80.2074
79.9294
80.9283
81.9047
77.1169
80.3507
78.1205
78.0974
82.2291
80.3557
80.2261
79.3641
68.7436
80.6696
79.634
78.2231
79.3713
79.497
80.321
73.2759
80.666
80.5743
81.756
77.7816
79.5525
81.5391
77.8506
80.4334
79.1312
81.6231
80.2494
77.3584
80.1184
78.7439
69.0592
80.7964
81.3404
80.1405
79.3759
81.737
81.2082
80.2034
79.7948
79.168
69.1284
77.5919
79.9113
81.417
79.5922
78.9122
80.9355
78.0421
79.2119
80.3987
79.3192
80.4281
79.9429
79.2784
79.0294
80.435
80.9733
77.9029
79.2711
79.3958
81.5227
80.6635
80.6333
80.7682
77.7459
79.7676
77.3652
79.4327
80.5303
80.2571
79.104
77.4478
80.3845
77.1362
81.9713
77.3102
79.5366
80.5484
82.1222
77.2782
77.0073
79.8389
77.7072
79.322
79.4559
77.3262
80.3464
81.5276
79.7744
77.1256
80.4822
80.6916
74.2908
79.9295
80.1895
77.3005
79.337
79.7803
78.3859
79.5704
77.4239
79.9534
79.9564
80.629
77.3317
80.1723
77.9093
81.3081
79.2256
77.6111
81.3432
77.8215
80.6971
81.898
80.8831
81.2521
79.1567
79.9029
80.2995
79.8407
79.5401
81.3317
80.5526
77.371
77.2593
81.1087
80.5142
80.1291
80.6582
77.5252
77.0175
79.4704
78.038
79.0209
74.7957
79.7524
77.2115
82.0832
79.6922
78.0447
80.1027
82.1039
80.3809
77.9609
78.709
80.1683
78.1514
80.6748
80.6959
80.6217
80.7742
78.1437
77.2215
82.0027
80.8479
79.8866
80.5718
79.0104
79.7473
81.2113
79.9488
77.4588
80.0694
79.26
73.9966
79.2221
77.1664
76.0957
80.5425
79.8162
77.6559
80.0798
79.1648
81.1245
80.4066
80.0715
80.1205
75.5546
79.7171
79.6162
80.1089
80.6317
81.5902
79.4599
78.5035
79.5877
80.873
80.7242
74.9807
79.7582
80.7861
77.2929
79.1761
77.1595
79.6407
80.2601
79.3491
78.0487
77.9251
80.3453
80.596
80.4971
80.6949
79.9774
80.5455
79.2443
77.4781
80.9034
77.9429
79.4986
81.3823
79.4432
80.6497
81.311
79.2504
81.2393
80.4744
77.3591
81.1669
80.6721
82.0404
81.8641
79.4
78.1074
80.0084
79.5346
79.5025
79.4101
79.5662
81.4755
77.7215
79.6618
79.6032
79.8386
78.368
75.5656
80.0926
80.8531
80.7438
80.023
77.2238
71.8965
79.8045
76.7553
76.3377
79.6849
79.2693
80.0619
78.8603
80.987
79.7654
80.6472
81.7103
77.5006
79.9886
77.3272
81.7232
80.5817
79.4239
79.7166
80.6439
79.5419
81.0685
79.5888
80.7284
78.0584
79.1832
80.7436
75.6825
79.4414
79.9138
81.2788
79.6821
73.6186
76.2604
79.7194
79.7888
80.3143
74.3596
80.6389
79.4905
80.2928
79.0924
77.5339
81.3815
80.6977
76.5097
77.2863
77.5329
79.6775
80.6823
81.3811
79.7156
76.3801
78.1383
80.7768
80.6886
80.568
80.8211
81.0937
79.1138
77.4027
78.8576
77.9767
79.5355
78.0875
77.8346
77.2702
79.0118
78.0324
77.5277
77.3398
78.9939
79.7407
78.1599
77.3385
77.9051
77.2344
79.2408
78.9777
77.735
78.9438
78.0444
77.345
79.73
80.1427
78.0012
81.3878
80.901
81.512
81.5485
81.4586
79.7386
75.74
76.7275
76.096
79.5933
78.0803
81.1121
80.5071
77.3969
79.7219
79.1926
77.879
78.0654
79.5353
77.255
77.9776
79.7706
77.3857
78.9381
77.593
77.295
78.881
74.308
80.7887
79.9935
80.9849
80.5309
79.4141
77.7043
80.3295
79.5026
80.7002
79.6826
81.1624
79.8677
79.8755
79.173
80.2605
77.0282
80.7527
79.8186
80.2873
78.1073
80.055
79.7508
76.9837
78.0517
80.0511
80.9672
79.9773
79.2547
79.3955
75.8751
78.6655
76.9373
79.6704
79.7229
79.9635
80.1269
77.827
79.6456
79.2411
79.2329
79.768
79.6878
79.2532
79.8603
80.8294
80.746
80.8225
80.782
80.62
80.7799
80.6614
80.7152
76.8228
79.6636
79.272
76.0761
73.7435
75.9575
77.9608
78.7661
78.8907
78.5902
75.6532
79.799
76.1138
79.2005
78.9291
77.8733
77.9484
77.6836
75.7635
79.2917
75.8079
77.6974
79.0807
79.1921
78.0007
78.8215
77.6162
77.7173
78.898
79.3271
77.9735
79.2093
79.1918
79.3114
76.5629
77.6847
76.9014
79.5782
76.9975
78.8441
76.9218
79.0913
79.34
78.9965
68.6486
79.1772
78.985
79.0321
79.4543
72.0779
77.0316
79.2816
70.3371
78.9186
79.6127
76.9358
78.7937
77.565
71.0259
80.5519
79.5029
76.8723
78.5361
77.7977
78.8912
79.3971
72.63
77.9533
77.3576
76.8086
76.9381
78.5414
79.092
79.9981
77.9477
79.8988
80.344
79.2706
79.09
79.1592
78.092
79.1301
78.5025
79.3223
79.129
78.8958
76.8919
78.4464
79.2574
79.314
79.2716
77.796
77.5194
73.5264
73.8724
79.9933
77.1511
77.7949
79.9587
77.9327
79.1949
80.1959
79.2713
79.2088
79.2572
77.8613
81.9517
77.5026
80.4907
80.0458
77.7267
77.9651
77.825
77.8805
79.1489
79.1508
77.5702
77.1072
77.9481
77.0508
78.5728
79.8095
77.6296
79.6031
80.0534
77.665
76.8515
79.6942
79.1679
78.2404
79.7825
80.5104
79.9342
76.3452
80.1313
81.0765
80.3707
80.6091
79.0759
76.553
79.8329
78.0949
78.9439
81.7334
77.2568
78.9978
80.5362
78.0111
78.8653
78.7904
80.8018
80.723
79.2586
80.0819
80.3152
75.8783
78.4461
78.5203
76.5623
79.0373
77.432
79.8401
80.6523
77.2553
77.0477
78.504
81.1753
80.4265
77.505
79.9203
76.0632
77.2886
78.7043
77.1793
78.0918
80.267
79.2178
79.7216
77.526
75.6651
80.4763
73.573
78.7222
74.7128
80.6291
78.0397
77.483
80.3775
78.0693
77.6289
79.0693
80.1161
79.9712
81.1394
78.7017
79.2438
81.5171
80.7674
79.7255
76.7866
79.9169
75.6596
77.2152
77.8243
80.878
80.7488
80.5583
77.7813
77.3305
78.6703
79.399
77.9853
80.0323
78.5284
78.0664
81.9659
77.2001
78.0172
74.2876
79.1735
80.9109
76.4797
80.9728
77.878
79.6257
80.2733
77.7149
79.8245
79.0825
77.2214
80.4229
77.8055
81.8633
80.225
77.8468
77.228
79.3512
81.0043
77.0304
81.0677
79.1174
79.1371
81.3273
77.1941
77.4377
79.3369
79.4336
77.3977
78.916
80.1464
77.7405
79.0665
80.5498
77.199
81.6087
78.023
78.7788
79.6856
77.3377
78.1487
79.5657
79.249
78.7131
79.7441
75.2738
79.6448
81.6486
80.9228
80.9799
79.6149
78.5712
77.1862
81.2547
77.986
79.8095
77.6805
79.399
76.1826
78.7339
77.591
78.8813
79.0641
81.3716
77.5095
78.8958
79.1126
81.3853
76.27
79.4437
78.0624
79.6085
79.152
78.4524
79.8674
77.5375
80.792
79.4225
80.5656
78.0626
81.8191
78.8076
77.8467
80.003
81.436
81.3367
77.2026
81.5395
81.2373
78.1654
75.5074
77.3976
81.6501
81.1456
79.7171
77.9768
79.5525
80.9825
77.2306
78.1262
81.9007
77.2545
82.3545
79.6645
80.4101
79.6421
77.299
76.4209
77.5296
77.1891
79.8027
82.1531
77.6066
80.8484
77.4886
79.6534
78.2377
80.6795
82.2668
77.1932
77.3255
80.1594
73.0446
79.6256
80.6771
80.9026
80.8942
80.624
81.7854
80.7839
79.3007
73.7409
77.9984
80.6901
80.8502
80.6883
81.4422
78.6243
80.5773
78.0082
80.374
79.1943
79.2269
77.5762
80.2859
76.8835
79.352
74.1289
79.7336
80.889
79.7101
78.2249
79.7577
78.5667
77.398
77.158
77.3301
78.0204
80.1219
78.8004
80.1012
75.405
79.109
79.4886
78.1026
80.2512
78.8855
78.7224
77.3654
76.9017
78.4977
74.5077
79.0874
79.2924
79.4448
79.9436
79.8125
77.3346
80.8285
80.6957
77.5065
79.6167
79.8112
79.1195
78.0996
78.8089
79.1595
80.3454
80.6533
79.9408
76.3637
79.6438
80.7585
80.521
77.9714
81.2266
79.2803
81.5202
81.6335
79.3
79.3338
77.9669
80.6034
79.7619
77.9266
80.3351
77.7886
79.5211
79.7544
77.3213
82.0255
78.1451
81.1441
73.9924
77.0324
78.9322
77.4539
78.521
79.2971
79.4748
79.1428
78.8263
80.6541
78.1154
79.634
77.3083
80.7018
79.376
78.0635
74.5344
79.2217
79.201
77.3214
77.9808
79.5328
78.1459
77.309
77.0345
80.3676
79.3127
79.3024
80.9477
80.6188
79.8161
80.9175
78.649
73.1737
78.0747
78.0866
78.1207
82.3185
77.5145
78.7838
80.2951
79.3167
79.571
79.7205
80.4198
79.6207
81.6866
77.2163
80.5955
78.058
79.4082
80.1205
80.3808
80.5631
80.0052
79.6176
78.009
80.7237
77.7393
79.4131
78.2234
74.3502
77.8009
80.2466
79.1968
79.7509
80.1769
78.173
79.3678
77.9377
81.5108
79.1755
79.7902
75.8934
80.1462
79.6548
79.1648
80.0997
80.0168
79.8484
79.9335
77.4516
77.4527
77.4546
77.3777
80.1857
77.2326
77.1237
80.2688
80.3438
80.4108
77.4147
80.4689
80.5203
80.6641
79.1031
81.0928
80.2433
77.1321
74.6059
79.5467
80.6018
78.3249
77.3463
77.8356
78.9832
77.3519
79.1054
77.5978
79.7839
79.6276
77.859
79.3735
77.6817
78.7704
77.3026
77.231
80.4235
77.9416
78.9329
74.9821
77.2858
79.4487
77.2527
79.9938
77.1042
79.2194
79.369
77.14
80.1987
77.5454
77.3592
78.2965
77.982
79.3108
76.0947
77.7783
73.7105
77.5059
77.4496
80.8598
79.0838
81.6623
80.4099
80.3761
75.0396
80.5919
79.206
79.1812
78.0798
79.4285
80.1382
81.2434
81.515
78.6927
77.1253
81.4324
79.8196
79.9791
79.1572
72.9711
80.7375
79.1938
82.0084
80.4513
81.9312
79.595
71.7141
79.7911
77.1656
77.4193
82.275
80.0306
79.8088
73.1643
80.9249
81.0944
79.5927
73.8897
80.9712
79.6531
77.0328
81.8138
79.9375
77.2097
80.6577
79.7233
78.6963
77.0181
77.7615
78.0202
77.4879
81.8954
79.5943
75.0979
77.9434
79.7442
75.8803
73.1162
79.3784
79.0631
80.5946
79.1521
77.0408
79.9203
75.141
82.1302
81.3893
81.3401
81.6762
78.8755
76.996
74.8886
80.6063
81.9219
79.7091
77.2144
78.2063
80.3737
80.424
82.3584
78.2084
77.3576
81.3024
73.3506
80.927
77.2508
79.4201
78.0172
80.6234
80.7185
75.26
79.262
79.5709
78.6588
78.0483
80.5665
79.746
79.4905
82.1278
80.7126
78.4835
79.6451
80.9668
80.6164
82.3945
82.163
77.8
78.0761
79.7287
80.8334
78.2145
78.2954
78.6318
79.7498
77.5867
79.3232
81.9966
80.2866
77.4384
79.2088
78.9922
80.146
79.7621
77.2392
77.963
81.5162
78.3496
79.7659
76.7131
81.0629
79.4524
79.744
77.0794
79.4343
78.9455
75.2503
78.0689
77.9316
81.8514
80.7363
79.5335
79.2286
79.5672
80.6287
77.1864
79.3815
79.7991
77.7927
80.2082
80.21
80.615
80.8773
79.3376
81.0497
79.7669
76.0692
78.7362
77.2534
78.7249
76.7304
81.5566
79.1738
77.3422
79.2304
80.2795
78.9235
77.9957
79.1276
79.1812
76.4733
78.7772
78.2436
79.5378
70.2615
77.2824
80.1166
79.3324
79.825
82.197
78.6188
80.0421
79.9478
80.6226
79.4104
77.0933
78.3581
77.0646
78.5647
81.0402
80.5596
78.8116
79.649
76.1925
77.8315
79.0398
80.6299
80.6803
81.1365
78.0662
77.3036
80.7606
79.232
77.9164
80.2986
76.204
78.057
73.4113
81.6159
79.7065
78.0072
77.4015
74.4375
79.6772
79.9602
79.3316
80.332
79.5094
80.3814
76.6978
77.0724
81.0142
78.0501
79.2494
79.0453
76.3223
77.5769
79.2049
79.6931
77.1453
80.6536
78.054
80.1506
79.2278
77.6698
79.1312
79.2373
77.7348
80.5997
79.369
76.9796
76.3258
79.0885
76.0852
79.1361
77.8426
77.2577
80.8969
79.4864
74.1698
79.6608
74.6949
79.2151
80.632
79.8003
75.0063
79.168
78.0678
80.8193
81.4253
79.5384
82.1037
80.3555
80.6304
79.2664
80.8225
77.6895
79.7756
80.4692
78.7265
79.8526
80.9027
76.4144
77.3783
77.1721
81.6283
80.2359
80.5001
77.5604
79.7782
80.5319
73.8438
79.1376
77.4577
80.4944
80.2382
77.5406
79.1596
81.7486
76.6117
77.4136
77.5481
77.3275
77.4845
79.8657
80.6378
79.6706
78.8287
78.3649
74.227
80.8664
79.0923
78.0589
80.7706
79.4397
74.0612
81.0587
79.6523
81.5276
77.5116
78.7334
78.4275
81.1489
79.3336
77.3018
75.8428
79.776
77.3596
79.7507
76.5125
80.7103
79.6508
79.944
79.2972
77.1987
80.5095
79.7901
75.595
78.3352
76.7057
79.7534
77.2553
80.7603
81.7696
81.0605
78.8529
77.3144
79.3671
77.2126
78.0372
79.2213
78.8922
77.1065
80.0731
81.2261
77.8592
78.9824
77.4002
79.2388
79.9657
79.4414
78.8149
77.2099
78.6949
79.4066
80.2878
77.9971
81.725
79.6139
77.2136
80.2799
77.3657
80.8469
77.2587
77.6351
79.5153
75.5513
80.632
79.7348
76.9632
79.4098
77.0468
80.1981
79.2923
80.6305
79.2629
79.3245
77.4776
80.2818
80.1476
82.19
80.7349
80.54
80.5459
79.9965
82.2126
81.1027
82.2779
79.7876
77.4144
77.3435
78.3481
80.7729
80.787
79.4298
77.6253
80.8309
81.0613
80.0383
80.9617
76.2418
79.5209
77.1281
81.2657
81.0933
81.0931
79.6287
82.0879
80.4838
80.2848
77.3576
80.7418
77.1917
80.5538
79.6506
80.2621
76.4184
77.637
67.2437
79.2502
77.7306
80.1738
79.8903
80.5454
80.4867
80.5866
79.1534
77.6932
77.123
77.6506
79.4529
79.8732
77.5804
77.4606
77.1232
80.382
79.3319
76.4377
77.0839
81.2632
80.6355
80.7585
80.6061
77.4755
80.5003
82.311
80.2027
79.7997
75.3255
81.0026
79.3321
77.1216
77.0785
80.3523
82.0433
77.002
77.6281
73.4934
78.7428
77.4049
79.824
80.4543
81.7243
79.7043
)
;

boundaryField
{
    frontAndBack
    {
        type            empty;
    }
    wallOuter
    {
        type            zeroGradient;
    }
    inlet
    {
        type            zeroGradient;
    }
    outlet
    {
        type            fixedValue;
        value           nonuniform 0();
    }
    wallInner
    {
        type            zeroGradient;
    }
    procBoundary2to0
    {
        type            processor;
        value           nonuniform List<scalar> 
42
(
76.3859
76.3859
78.2717
78.2129
75.5956
76.0008
78.1906
78.1906
76.4867
77.0792
73.9939
73.9939
74.7296
73.958
74.2098
75.5268
74.9358
77.0724
76.9455
67.2902
69.4826
76.9821
76.9821
72.2215
69.4826
76.9104
73.4894
76.9399
73.4894
75.9561
75.3861
77.133
77.429
77.6875
77.8464
78.2129
74.9358
78.2967
74.762
78.0839
78.0839
77.9709
)
;
    }
    procBoundary2to1
    {
        type            processor;
        value           uniform 67.0192;
    }
    procBoundary2to3
    {
        type            processor;
        value           nonuniform List<scalar> 
29
(
77.4379
77.8532
80.2227
80.4251
68.6363
78.941
80.2017
78.1268
80.3265
80.1537
78.5103
67.7381
78.2722
80.1084
80.9362
80.0624
80.0912
80.0912
77.8532
80.1084
80.6427
80.0452
81.5078
79.8586
81.1722
80.1856
80.3265
66.8907
67.7381
)
;
    }
}


// ************************************************************************* //
