/*--------------------------------*- C++ -*----------------------------------*\
| =========                 |                                                 |
| \\      /  F ield         | OpenFOAM: The Open Source CFD Toolbox           |
|  \\    /   O peration     | Version:  v1912                                 |
|   \\  /    A nd           | Website:  www.openfoam.com                      |
|    \\/     M anipulation  |                                                 |
\*---------------------------------------------------------------------------*/
FoamFile
{
    version     2.0;
    format      ascii;
    class       surfaceScalarField;
    location    "0.52";
    object      phi;
}
// * * * * * * * * * * * * * * * * * * * * * * * * * * * * * * * * * * * * * //

dimensions      [0 3 -1 0 0 0 0];
oriented        oriented;


internalField   nonuniform List<scalar> 
2708
(
-0.000587697
5.09422e-05
0.000193662
0.000343093
0.000206654
0.000100541
-5.41226e-05
-0.000253072
-0.000272068
-5.15336e-05
0.000238499
8.51026e-05
-6.73561e-05
0.000104168
-3.06476e-05
-6.16413e-06
-0.000389446
-0.000220447
0.000303026
0.000306868
0.000892631
-0.00111119
0.000511305
-0.000292746
0.000127321
-0.000113702
6.43804e-05
-7.79993e-05
-6.23294e-05
2.71298e-06
-3.25011e-05
9.21176e-05
-0.000677657
0.00066928
0.000778345
-0.000769967
9.44366e-05
0.000176775
-0.00014389
0.00103251
-0.00106324
0.000274366
-0.00024364
0.000207334
-0.000321274
0.000607657
-0.000493716
-0.000236416
0.000324085
-0.00022438
0.000136711
-0.000118114
-0.000355866
0.000339732
0.000134249
0.000484482
-0.000679219
-0.000157361
0.000352097
0.00014339
8.90911e-05
-0.000138044
-0.00078139
0.000576339
-0.000164198
0.000369249
-8.01372e-05
-7.24893e-05
0.000110673
4.19532e-05
0.000316454
0.000149373
-0.00042581
-4.00161e-05
-8.64874e-05
-8.46799e-06
0.000109138
-1.41825e-05
-0.000383808
0.000893967
0.000522355
7.83449e-05
-5.34403e-05
-0.000143019
-0.00081808
-0.000432181
0.0006788
0.000571462
-0.000282387
-0.00125084
0.00129178
0.000241446
-0.000842736
-0.000653002
-3.57129e-05
-5.39994e-05
0.000277201
-0.000187489
-0.00104115
-0.000153772
0.00013168
-0.000295414
0.000150032
0.000325081
-0.0001797
4.78488e-05
-0.000504114
0.000456266
-1.58382e-05
-0.000657449
0.000673287
0.000768046
6.25182e-05
-6.20587e-05
-0.000768506
-0.000652927
4.95752e-05
-2.6009e-05
0.000629361
0.000738018
5.47882e-05
-3.29947e-05
-0.000759812
-0.000259381
0.000204922
7.68924e-05
-2.24337e-05
0.000774986
0.000332093
-0.000799235
-0.000307843
-2.93679e-05
7.33679e-05
-4.99332e-05
5.93318e-06
0.000274472
0.000687957
-0.000181727
-0.000294659
0.00019098
0.00024506
-0.00014138
-3.66101e-05
0.000113432
1.53189e-05
-9.21412e-05
9.60322e-05
0.000597178
-0.000672359
-2.08517e-05
-0.000540251
0.000520878
0.000817375
0.000866188
-0.000112609
-0.00015952
-4.0092e-05
-5.86539e-05
1.4015e-05
8.47309e-05
-0.00055446
0.000833321
-0.000652775
0.000373914
0.000106989
6.24593e-05
-0.000168342
-1.1061e-06
0.000175686
-0.000107526
-7.41555e-05
5.99616e-06
-0.000993821
0.000105493
-0.000152819
2.43414e-05
-4.52375e-05
-9.28063e-05
0.000130048
0.000113066
-0.000125324
-0.000117791
5.49183e-05
-0.000401189
0.00043885
-9.25788e-05
0.000132668
-0.000118364
-1.58623e-05
1.55867e-06
0.000501069
-0.000287255
-0.000238688
2.48738e-05
4.87753e-06
0.000149543
-0.000131927
-2.2493e-05
0.000128452
3.03776e-05
-0.000173737
1.49073e-05
-5.88497e-05
0.000235086
-5.39464e-05
-0.00012229
0.000131294
-0.000220494
-0.000101674
0.000190875
-0.000221251
-0.000321012
0.00035815
0.000184113
0.000877919
-0.000187999
-0.00068992
0.000549021
-4.30084e-05
-0.000506013
0.000189069
4.29288e-05
1.6679e-05
-5.96078e-05
0.000163296
-0.000196412
3.31165e-05
-0.000194118
-0.000100541
-6.68676e-06
-2.99233e-05
7.48643e-05
3.33934e-05
0.000420283
-5.88842e-05
0.000125059
-2.91802e-05
-0.00015282
0.00022273
-6.99097e-05
-0.000161562
0.000215193
-5.36311e-05
-7.38583e-05
0.000339989
-0.000266131
-0.000256927
-2.454e-06
1.9444e-05
-5.96304e-05
4.52312e-05
0.000159691
-0.00026985
-8.60162e-05
0.000206876
-9.98876e-05
0.000247774
1.13247e-05
-0.000259099
8.45847e-05
1.55606e-05
-0.000100145
9.27783e-05
8.39966e-05
-0.000190165
0.000110028
-0.000682652
-9.87383e-05
-3.9845e-05
-4.80685e-05
8.79135e-05
-0.000184719
9.21278e-05
0.000440629
-0.000348038
-0.000230906
0.000178117
0.000228475
-7.46007e-05
5.48666e-05
0.00125214
-0.0012324
1.31264e-05
3.45047e-05
-1.03776e-05
-3.72534e-05
-0.000242272
3.74637e-06
-9.43544e-06
0.000247962
0.000245574
-0.000277301
3.0419e-05
1.30782e-06
2.20037e-05
3.08757e-05
-0.00106979
0.00101691
-0.000156082
6.25067e-05
-0.000733887
0.000827462
9.3295e-06
0.000275397
-0.000153433
0.000213659
-0.000199597
-4.73225e-06
5.61827e-06
-9.2815e-05
0.000278176
-0.000101428
0.000132878
-0.000122178
9.07288e-05
-3.50467e-06
4.90726e-05
8.2884e-05
4.41277e-05
-0.000581161
0.000537033
-8.77754e-05
-0.000316297
-0.000320683
0.000391237
0.000245744
-3.99832e-05
-4.97352e-05
4.96263e-05
-0.00015012
0.000165054
-1.49343e-05
0.000368261
-0.00020355
-0.00022356
1.02564e-05
-7.31079e-06
-0.000543805
1.22427e-05
-2.4307e-05
0.00055587
-0.000293771
-8.76354e-05
0.000118434
0.000262973
1.56062e-05
4.3448e-05
2.55305e-05
-0.000635938
-5.14961e-06
0.000646587
-5.49951e-06
-3.08993e-06
0.000609449
-0.000592686
-1.36726e-05
-0.000112222
0.000760887
-0.000811422
0.000162756
0.00065578
-0.000374581
-0.00071338
0.000670409
-0.000336296
0.0002778
-2.25505e-05
-0.000340685
0.000242892
0.000421878
-0.000110451
0.000127013
-0.000159869
0.000143307
-0.000652384
0.00058225
0.000591013
0.000150058
8.69735e-05
-0.00018257
8.28048e-05
-4.79121e-05
0.000130003
-0.000116877
-3.08222e-05
-4.31567e-05
-0.000118405
-0.000105017
-0.000574202
-9.35376e-05
9.84151e-05
-5.46571e-05
-2.01941e-05
0.000360183
3.73914e-05
5.53869e-05
-2.42935e-05
-0.000103181
-0.000264075
0.000209895
2.50178e-05
-0.000261689
0.000185137
2.08147e-05
-0.000142062
-6.03831e-06
0.000127285
0.000232993
0.000343346
1.89073e-05
-9.13965e-05
0.000195516
-4.18028e-05
-0.000132899
6.57125e-05
-0.00030333
0.000554071
-9.54342e-05
0.000105579
-9.66322e-05
-3.98003e-05
0.000114702
8.94447e-05
2.90616e-05
-2.22952e-05
-0.000111448
0.000104682
8.83146e-05
2.13569e-05
-9.29925e-05
0.00118762
0.00013781
-0.00114624
-0.000179193
0.000250678
3.08897e-05
8.25427e-05
0.000733798
3.62461e-05
8.59082e-05
-0.000855953
-0.000205737
0.000434394
0.000450143
0.000125744
0.000656402
0.000156125
-0.000260382
0.000330472
0.000298172
0.000125958
0.000149224
7.44146e-05
-9.03612e-05
-8.96103e-05
0.000660546
2.46407e-05
-0.000595576
-6.83199e-06
0.000136835
-0.000549093
-2.39867e-05
-5.34527e-05
0.000626532
-0.000269038
0.00025126
-7.50373e-05
-0.00123609
-0.000105502
0.00118234
0.000159253
0.000529767
0.000213071
-0.000182916
-0.000559922
-0.000187739
9.63758e-05
-0.000551485
0.000642849
0.000173071
-0.00016366
-1.6332e-05
6.92084e-06
0.00109237
-0.000925427
0.000272102
-0.000439042
-0.000275878
-0.000260755
0.000312252
-0.000208583
0.000159524
0.000174226
-0.000125166
4.39583e-06
0.000214618
-0.000211349
-7.66417e-06
-6.14291e-05
-3.21085e-05
-0.000922572
0.000342256
-7.38072e-06
5.03582e-05
9.61953e-05
0.000196491
-0.000166985
0.000297674
-0.000252984
-0.00022958
0.000184891
-0.000185312
-0.000951747
9.0328e-05
0.00104673
-0.000273756
-0.000394152
0.000407526
2.9058e-05
0.000717144
-2.46349e-05
-0.000721567
0.000246277
-0.00149407
6.2886e-05
0.00118491
0.000206319
-0.000356323
0.000250545
0.000315974
-0.00130579
-2.82701e-05
0.000186657
3.71296e-05
0.00112672
-0.000788549
7.44114e-05
0.000459014
-3.23571e-05
0.000608335
-0.000111089
-0.000456253
-4.09927e-05
-6.90259e-05
2.03011e-05
0.000127685
0.000260327
-0.000283411
6.95606e-05
-4.64775e-05
0.00112203
-0.00108257
-0.000321854
0.000622756
-8.39731e-05
0.000587938
-0.000423399
0.000420309
-0.000403999
0.000291777
0.000272905
0.000463181
-0.00084908
0.000355474
-0.000107929
0.000601536
-2.18891e-05
-6.19712e-05
-0.00114985
0.00123371
0.000714261
-0.000763475
0.000174959
0.000695338
-0.000590328
-6.15329e-06
-9.88566e-05
0.00060958
-0.000837477
0.000323929
0.000693328
-6.58429e-05
0.000133403
-1.2709e-05
8.66946e-05
0.000817767
-0.00069139
-0.000251463
-0.000364129
0.000299294
0.000735645
-0.000691114
-0.000193291
0.00014876
0.000163622
-2.48531e-05
8.39617e-05
-0.000271707
0.000182905
0.000401325
-0.000312524
0.000150755
-0.000222072
0.000236173
-0.000164855
0.000110361
-0.000216925
-0.000102019
-0.000737983
-0.000407252
0.000881053
0.000264182
-1.13568e-05
-0.000228266
0.000235074
4.54915e-06
-8.8148e-05
0.000304647
-0.000342326
0.000125827
1.00584e-05
0.000750715
-0.00074609
-1.46836e-05
0.000179963
-0.000611424
0.000599968
-0.000168507
-0.000183047
1.12921e-05
0.000124333
4.74219e-05
0.00104934
-0.00108541
-2.96905e-05
6.57627e-05
-0.000244132
2.33675e-05
0.000288948
-1.74777e-05
-0.00027147
9.97789e-06
-8.32068e-05
0.000232753
0.00062734
4.34503e-05
-6.13421e-05
-0.000558993
-5.72151e-05
-1.97302e-05
-8.45155e-05
-0.0011662
0.00117612
-0.000102052
-5.73919e-05
9.32386e-06
0.000676815
-0.000201509
-0.000564916
-2.92088e-05
0.000739738
2.51159e-05
0.000311438
-2.57073e-05
4.44845e-05
-0.000330215
0.000245231
-0.000646995
-0.000336219
0.000435354
0.00034124
-0.00063837
-0.000138223
-4.11891e-05
0.000240137
6.138e-05
0.000331875
-0.000313613
0.000533431
-0.000551694
3.44337e-05
-0.000220346
-3.37622e-05
0.000219674
-0.000647232
0.000533493
-0.00102388
0.00103977
-0.000100401
-0.000709784
0.000816612
-0.00051408
-0.000224275
0.000201266
-0.000449821
4.5876e-05
0.000745185
-0.000565852
5.79847e-05
0.000753098
-6.95954e-05
-1.58514e-05
9.51512e-05
-9.70445e-06
-1.57158e-05
1.55211e-05
0.000768241
-3.815e-07
-0.000644533
0.000654973
0.000393237
-0.000139942
0.000356286
-1.132e-05
-0.000669983
2.83753e-05
-0.000731143
-0.000283911
0.000835727
0.000179326
0.000639333
0.000124201
-0.000136193
-1.00558e-07
-0.000383963
-0.000174929
-0.000151002
0.000468129
0.000397134
-7.01243e-06
6.81153e-06
0.000224206
-0.000224005
0.000138938
-0.000123623
-4.35856e-05
-0.000125334
0.000403175
0.000135249
-0.00041309
8.56539e-05
-6.0193e-05
-0.000379156
0.000572221
-0.000193165
-0.000124684
-0.000165428
-6.99313e-05
0.000104215
0.000131144
-0.000407645
0.000205126
-0.000268699
0.000944626
0.000274783
-0.000538611
-0.000374541
-0.000213927
-7.91294e-05
3.76758e-05
-6.17273e-05
-0.000384729
0.0012846
-0.000877872
0.00018177
-4.30272e-06
-0.00020507
-5.83239e-05
8.92811e-05
4.20278e-05
-0.00103219
7.82167e-05
0.000827886
0.000126087
0.000187093
1.09213e-05
-1.6245e-05
-0.000173925
0.00106087
0.000152824
-0.000540898
0.000723329
-0.000509254
0.000326822
1.93005e-05
0.000263208
0.000163281
-0.000115844
-0.000310645
0.000115496
-0.000421946
-4.4688e-05
7.27153e-05
-1.82865e-05
0.000193587
-1.00457e-05
-0.000362404
-0.000749139
-0.000607639
0.000359006
-0.000495192
-0.000521051
0.000657237
-6.05487e-05
0.000164478
0.000589398
0.000111269
-0.000899963
-7.8529e-05
-0.000141965
0.000298788
0.000151255
0.000609604
0.000198237
-0.000168508
-2.44471e-05
-0.000203412
2.17886e-05
0.000150567
-0.000179368
0.00128918
-0.000382121
-4.93486e-05
0.000658564
0.00157989
-0.000234452
-5.62577e-05
-0.000802279
-8.0859e-05
-3.0926e-05
0.000914064
-0.000406311
0.000405929
-0.000463759
0.00058796
-0.000386511
0.000440202
-0.000327448
-0.000276521
0.000242379
-0.000459077
0.000493219
-1.06864e-06
0.000506468
0.000361799
-0.000206873
-7.32098e-05
-8.17157e-05
-5.77148e-05
-0.000116419
9.64986e-05
7.76348e-05
-0.000298198
0.000495265
-0.000381785
-0.000874315
0.000183977
-0.000341852
-0.00044786
6.55561e-05
-8.00587e-05
0.00121229
-0.00119778
4.87269e-05
-4.45317e-05
-0.000257267
-1.94253e-05
-0.000558758
0.000483706
-0.000636631
0.000711683
-6.77611e-05
-0.000407976
-1.02094e-05
-0.000332547
1.46027e-07
0.00034261
1.57374e-05
-0.000917809
4.40415e-05
-0.000632086
0.000263508
-0.000667507
8.31796e-05
-0.000506578
-3.19588e-06
-0.000171092
7.22364e-05
-0.000402808
-3.50232e-06
0.000286811
0.000334897
-0.000291236
1.58847e-05
-1.35113e-05
-2.37333e-06
0.000147977
1.5841e-05
-0.000188265
-0.000289283
0.000366239
3.72537e-05
-0.00011421
-0.000293677
-0.00060273
0.000153269
0.000743139
0.000190958
3.05692e-05
-0.000490513
-0.000651184
0.000454093
0.000391013
0.000749646
-0.000166911
0.000186832
-0.000767449
0.000826418
2.77253e-05
1.83611e-05
1.90303e-05
2.36856e-05
-0.000225934
0.000165385
0.000754824
-0.00069059
0.000605046
-0.000575105
0.000143215
-0.000438687
-0.000545645
0.000293217
0.00010517
2.12426e-05
-0.000108762
0.000178199
-9.06797e-05
-0.000732748
0.000570251
0.000813379
-0.000650881
0.000180129
-0.000228229
-0.000442413
6.82863e-05
0.000174375
-8.43241e-05
5.49279e-05
-1.86724e-05
0.000322077
-3.62183e-05
-0.000296068
-0.000651248
0.000340245
0.000498766
-0.000187762
0.000190048
4.84509e-05
8.073e-05
0.000780488
-0.000655153
-0.000694223
0.000568889
0.000198761
-0.000226782
3.36067e-05
-5.58565e-06
-0.000257857
-6.07873e-05
0.000113574
0.000407958
-0.000465173
0.000141112
-0.000103035
-0.000107987
0.000782626
-0.000643451
-0.000697933
-3.64851e-05
2.85977e-05
5.98349e-05
-5.19475e-05
0.000152008
-3.13564e-05
-0.000276774
-0.000100656
-0.000682399
0.000544356
0.000568603
-0.000430561
-0.000299993
-0.000618888
-0.000803947
0.000467823
-0.000315125
3.14909e-05
-9.38309e-05
-0.000273801
9.08571e-05
-0.000120324
0.000274513
-0.000806621
0.000652432
-0.000334073
0.00101266
-9.6335e-05
-0.000645991
0.000510669
0.000890145
-0.000883462
0.000566019
0.000785572
-0.000157099
-9.08447e-05
0.000769763
-0.000533213
0.00134334
-0.000138726
-0.000749047
-2.17236e-05
0.000326444
1.0804e-05
-0.000315525
6.88734e-05
-1.12779e-05
0.000903082
-0.000960678
-4.12437e-06
0.000216378
-3.85305e-05
-0.000173723
0.000427355
-5.14172e-05
-5.38603e-05
0.000551175
0.000171124
-0.000547608
-0.00017469
-0.000253297
0.000278323
-2.91507e-05
0.000230171
-0.000176343
-2.82364e-05
-2.55911e-05
0.000393523
-5.14605e-05
0.000785132
-0.0011272
0.00016833
-0.000237926
0.000126869
-0.00139919
0.00125043
-1.65426e-06
-1.37004e-05
9.36996e-05
6.03422e-05
-0.00016092
0.000137502
-0.00068811
0.00104468
0.000230861
-0.000587429
-0.000704093
0.000643983
-0.000628359
0.000475625
9.93227e-05
-0.000640627
0.000589153
-4.07234e-05
-0.000778358
0.000803243
0.000934194
-0.000954563
-0.000159892
-0.000103837
4.32811e-05
-0.000618958
0.00010723
0.00116734
-0.000655612
-0.000381632
-9.89128e-05
0.000355211
0.000883223
0.000313412
0.00079515
-0.000788998
-0.000106553
0.000171382
-0.000133718
3.18989e-05
-2.99073e-05
0.000131727
0.000164102
-0.000146931
7.36584e-05
-9.08296e-05
-0.00021749
0.000838714
0.000349628
-0.000277487
-0.000348019
-0.000740474
0.000559283
-1.94167e-05
0.000164467
2.77648e-05
-0.000172816
4.59587e-05
-0.00102558
-0.000709216
8.60081e-05
0.000750829
-9.29437e-05
-0.000743893
0.000487311
0.000204776
-0.000203084
-0.000489003
0.00071562
-7.22266e-07
-0.000483142
-0.000231756
0.000901622
-0.00103279
-6.21235e-05
-0.000419001
-0.00012305
0.000160419
-9.49707e-05
-7.0455e-05
-0.000440071
6.73546e-05
3.47608e-05
0.000337955
-0.000582133
8.23004e-05
5.97619e-05
0.000198061
5.75117e-05
-6.46151e-05
0.000844236
-0.000420901
-0.000170348
-0.000607329
0.000440988
-0.000198007
0.000364348
-0.00034771
-3.88533e-05
-0.000220765
-0.000706626
0.000843663
0.000249032
-0.000798973
-0.000260068
0.00081001
0.000658733
-0.00065874
0.00017113
9.8121e-05
0.000863319
-0.000641406
0.000492841
3.1352e-05
0.000745969
5.05651e-05
-5.40178e-05
8.53757e-05
8.68682e-05
-0.000118226
0.000473014
-0.00012918
-1.31971e-05
-0.000330637
-0.000911918
4.9759e-05
-7.86327e-05
6.48664e-05
1.37663e-05
-7.83629e-05
4.19627e-05
0.000499668
-6.05858e-05
3.39314e-05
0.000760398
-0.000471608
5.14542e-05
0.000481101
-3.98816e-05
5.84492e-05
-0.00018566
3.79402e-05
-3.94352e-05
0.000187155
1.20756e-05
0.000789552
9.13242e-05
3.9851e-05
-7.62472e-05
0.000549106
0.00010361
-0.000528571
-0.000124144
-9.80494e-05
0.000265719
-0.00109017
0.000465529
-4.70883e-05
6.26594e-05
-8.58696e-05
0.000567389
0.000165601
-0.000197133
-0.00017623
9.0229e-05
0.000326488
0.000152564
-0.000151066
-6.57637e-05
7.50396e-05
0.000456254
9.85759e-05
-8.71672e-05
-0.000171301
-1.80498e-05
-4.93838e-05
5.89656e-05
0.000206083
0.000297449
-0.000354159
-0.000187831
-9.61582e-05
0.000173539
-0.000218798
-0.00119242
0.000160379
-0.000103913
0.00031408
-6.19909e-06
-0.000203969
0.000316539
-0.000285041
0.000117926
-0.000149423
0.000418917
-0.000206291
0.000106477
-1.79468e-05
0.000250031
0.000120445
0.000258765
3.97071e-05
-0.000383678
0.000349399
-0.000221449
0.000255728
5.08477e-05
-0.000152322
0.000373716
-0.000238157
1.67628e-05
0.000341737
-0.00014466
2.69137e-05
-0.000102583
0.000449385
2.06264e-05
-0.000354814
0.000193454
0.000140733
0.00108197
0.000514246
-0.000283283
-0.00131293
1.72798e-05
0.00028167
2.86055e-07
0.000233372
0.000113126
-6.03327e-05
4.65063e-06
-0.000113434
-1.46556e-06
5.50442e-05
5.98552e-05
0.000116429
-5.16639e-05
0.000235238
-0.000203453
-0.000291978
0.000260193
-3.42342e-05
2.18292e-05
4.50587e-05
-3.26537e-05
-6.82001e-05
-5.87859e-05
9.27518e-05
-0.000173977
0.000123745
-7.93754e-05
0.000129608
-9.0765e-05
0.000105538
-1.05391e-05
-4.23346e-06
-1.97404e-05
-2.7877e-05
-4.00173e-06
8.98518e-06
0.000120894
-1.826e-05
3.25371e-05
-1.59314e-05
-0.000894405
6.00431e-06
0.000829862
5.8539e-05
-5.85613e-05
5.23128e-05
-1.34919e-05
-0.000202838
-0.000208189
0.000232466
1.41827e-05
-1.06134e-05
-0.000137252
9.39225e-05
-8.3274e-05
0.000126604
-0.000963322
0.000131803
3.7568e-06
-0.000104924
0.000110152
7.67532e-06
-0.000256278
-5.12674e-05
3.81553e-05
-0.00012414
-0.000240858
-0.00015454
-0.00106381
0.000215985
-8.53939e-05
-0.00013985
-0.000268343
-0.000657659
0.000100667
-7.98941e-05
-7.94268e-05
-3.68195e-06
-0.000297399
-0.000144911
5.92299e-05
1.24221e-06
-9.03297e-05
2.98575e-05
-0.00129707
0.000277699
0.000845106
-0.000682538
0.000919398
0.000153784
0.000110981
-4.50133e-05
0.000220665
-0.00014659
1.00433e-05
-6.85818e-06
0.000145261
-1.60648e-05
-3.70654e-06
2.64514e-05
5.01624e-05
1.4925e-05
-0.000876757
0.000424794
-4.76846e-05
7.70434e-05
-5.87267e-05
8.13804e-05
-4.61523e-05
2.55155e-05
0.000121783
-0.000151005
-0.000165187
-0.000131335
1.41896e-05
0.000263733
-0.000292779
-3.26182e-05
1.57582e-05
-7.53079e-05
9.21679e-05
-0.000683785
0.000121399
-3.3733e-06
-0.00016571
0.000182145
-6.59395e-05
1.0821e-06
0.000118415
-0.00015835
3.88531e-05
0.000163044
-0.000233724
5.0966e-05
1.97136e-05
7.69218e-05
-6.21443e-05
-0.000106969
7.43162e-05
-8.00019e-05
-0.00111644
0.000149367
9.29125e-05
7.74732e-05
-4.89869e-05
0.000140987
0.000356635
-0.000283963
-3.6343e-05
-0.000157658
0.000137347
5.66537e-05
-0.000130102
0.000324771
-0.000248669
0.000420767
0.000168103
-3.94115e-05
3.06852e-06
-0.000305875
-0.000804283
-6.27809e-06
-0.00120952
-0.000488136
0.000158691
-4.53632e-05
6.77914e-06
0.000163177
0.000100447
-7.69917e-05
0.000214777
8.2518e-05
-0.000156308
0.000146597
-0.000275617
0.000185597
9.21566e-05
-7.16712e-05
2.02211e-05
-1.30713e-05
7.60456e-05
-0.000115457
-0.000197072
-3.78596e-05
8.33755e-05
-0.000164988
0.00012522
0.000139792
-6.99136e-05
9.00829e-05
-0.000745635
-0.000281809
0.000412713
-0.000238431
0.000192602
-0.000421923
0.000262118
9.66956e-05
0.000211727
0.00021167
0.000238322
-0.000134135
0.000138175
2.6529e-05
-0.00135475
-0.000195165
0.000451903
5.33257e-06
-5.88829e-05
1.46311e-05
5.02353e-05
-0.000263612
0.000101932
-0.000213125
-0.000134099
0.000245292
0.00025795
-0.000140111
4.31476e-06
3.48866e-05
-0.000109115
0.000414755
-0.000455843
-0.000475605
0.000516692
8.82319e-05
0.0001497
2.8534e-05
0.000808664
-0.000739791
0.000107801
0.000231379
-0.000100858
-8.10511e-05
0.000253448
-0.000397412
0.000502742
-0.00023451
5.28604e-06
-1.65447e-05
1.12587e-05
3.99199e-05
0.00080479
-0.000746589
8.51849e-05
0.000209349
-0.000610924
0.000545635
3.06128e-05
-0.000341288
0.000311936
-0.000866409
0.000977671
-0.000111262
0.000231332
-0.000187755
-0.000534014
-4.04852e-05
-0.000163804
0.000738304
-0.000379238
0.000366862
-0.000321445
0.00033382
8.35456e-06
8.11178e-05
0.000813553
0.000408736
-0.000485649
0.000534195
-0.000457283
-0.000152874
5.67888e-05
0.000129201
0.000118629
-0.000184246
-0.000131361
8.1472e-06
2.42869e-05
0.000121415
-5.77445e-05
-0.000855033
0.000706154
-0.000234929
-8.13085e-05
-0.000425792
-0.00129189
-0.000297318
0.000799921
9.47829e-05
-4.8075e-05
-0.000257589
0.000283941
-0.000502787
0.000664006
-5.9514e-05
-0.000225449
0.000236888
0.000232228
-2.19732e-05
3.66425e-05
-0.000211446
0.000199091
0.000220372
-0.000621379
9.67061e-07
0.00040004
-0.000409207
0.000373521
-3.00781e-05
-0.000941361
0.00048475
0.000731124
-9.30032e-05
0.000332157
0.000150582
9.77794e-05
-0.000126448
9.54843e-05
3.09639e-05
0.000861135
-0.000147193
0.00016455
7.9339e-05
6.86781e-05
0.000624656
-0.000693334
-5.28356e-05
0.000299369
-0.000391193
7.96279e-05
-0.000258193
-0.000427645
-2.86502e-05
0.000236145
-0.000229762
-0.000947744
-0.00057546
0.000849001
-0.00055535
0.000653725
7.95476e-05
-0.000629663
0.000147549
0.000629468
-0.000641235
0.000830812
-0.000278322
0.000120238
-0.000117763
-0.000185962
-7.63744e-05
0.000183667
0.000154826
0.000253859
-0.000270052
0.000667908
-0.000627988
-0.000399988
-0.000540892
0.000193754
0.000391622
-0.000554017
-0.000199356
0.000214761
-0.000399003
0.000317322
-0.000326545
0.000408226
-0.000137315
6.5344e-05
0.000162054
0.000300784
0.0004441
-0.000257572
0.00121382
0.000265095
0.000500721
-0.000523949
9.82679e-05
0.000108829
0.000850838
-0.000851513
-0.00013767
0.000138345
0.000784174
0.000234234
-0.000550585
-0.0012322
0.00115549
0.000185545
-0.000763462
-6.71316e-05
2.85677e-05
-3.86804e-05
7.72442e-05
3.9657e-05
4.84938e-05
4.66354e-05
-0.000142195
-0.000129889
-0.000354783
0.000216853
-0.000444202
-4.36144e-05
0.00024998
-0.000705339
0.000786093
0.000768407
-0.000689931
0.000575826
-0.000654302
0.000143523
0.00114892
-0.000976471
1.3973e-05
-2.56245e-05
0.000198906
-9.39006e-05
5.90971e-05
0.000727099
-0.000159517
4.07538e-05
0.000170607
-0.000340236
-0.000151605
2.70252e-05
6.8459e-05
-0.000521026
0.000595714
-0.000429472
-0.000191736
-1.92175e-05
-7.53242e-05
0.000920662
-0.000409405
-0.000436807
0.000447209
-7.29858e-05
0.000190919
-0.00020021
9.04044e-05
0.000305589
-2.97542e-05
0.000272902
3.56961e-06
0.000152778
-0.000120298
0.000299676
0.000147894
0.000247878
-2.2251e-05
6.5702e-05
0.000753584
0.000449606
-0.000518213
-0.000112991
-0.000507493
-0.000784607
0.000681177
-0.000253424
3.81629e-05
0.000834672
-0.000721417
0.00030173
-8.13631e-05
9.07911e-05
-5.30136e-05
-8.30637e-05
7.0606e-05
0.000513178
-5.45754e-05
0.000722483
-0.000243527
-0.000711078
0.000130781
2.16976e-05
-0.000453751
-0.000163352
-0.000213453
5.86609e-05
0.000779581
-0.000123207
-0.000530288
0.00062601
-1.35358e-06
0.000571862
0.000703816
-9.63046e-05
-0.000133531
-0.00101864
-0.000365101
0.000347217
-0.000377605
1.8333e-05
-2.44359e-05
-1.07207e-05
0.000115591
0.000256965
0.000106196
-2.734e-05
-0.000117478
0.00011894
0.000272458
0.000521084
0.000107591
0.000113374
0.000997911
-0.000943045
0.000561678
6.88276e-05
1.04487e-05
2.03678e-05
7.33985e-05
0.00108861
-9.06992e-05
-2.36004e-05
0.000845799
4.29373e-05
2.03488e-05
0.000157191
-0.000243306
-0.000140158
-0.00046466
-0.000875666
-6.73781e-05
-7.88501e-05
0.000143874
-6.68775e-05
1.85364e-06
-0.000229712
0.000347621
-0.000100768
-1.71401e-05
-2.70985e-06
0.000212954
-0.000820746
-4.48581e-05
0.000192949
8.34483e-05
-3.79512e-05
-4.54971e-05
-0.000264881
6.85054e-05
0.000231262
0.00018495
0.000255701
0.000831332
0.000123061
-3.96127e-05
0.000174144
-0.000153558
-2.05861e-05
-0.000239205
-0.000204007
0.000282983
-7.89763e-05
-0.000141913
0.00032372
0.000186718
-1.2574e-05
0.00116491
0.000133086
-7.03094e-05
-6.2777e-05
-2.76237e-05
-0.000576923
-1.80379e-05
-0.000449489
-3.04969e-05
-8.58668e-05
0.00080835
-0.000105148
0.00119376
3.5702e-06
0.000622439
-7.09202e-05
0.000117508
-8.78005e-05
0.000325503
0.000104166
-9.87784e-05
-0.000680418
0.000675031
-0.000485233
-0.000220829
-4.38608e-05
-0.000769908
-7.30943e-05
-0.00063608
0.000141878
0.000593524
-0.00017275
0.000202928
0.000836933
-0.000516059
9.3894e-05
7.21065e-05
-0.000144212
-0.000656561
-0.00049569
6.25135e-05
1.44824e-06
-0.000763254
-2.39741e-05
0.000626041
0.000374742
-0.000381976
-2.0918e-05
-2.5911e-05
3.33176e-05
5.17457e-05
-1.10604e-05
6.69056e-05
-0.000439928
-0.000144114
-9.4132e-05
4.11131e-05
-0.000145873
-0.000239353
0.000297961
0.000142658
0.000201298
2.4349e-05
-5.79242e-05
9.37545e-05
-8.92375e-05
6.39884e-05
0.00023042
-2.67358e-05
-1.87342e-05
0.000888365
-0.0001429
0.000375111
-0.00081011
-9.17606e-06
-0.000126488
-0.000596247
0.000571612
-0.000457705
4.90402e-05
0.000658048
-0.0002073
0.000293247
-9.21459e-05
-0.00121912
0.000196315
4.76373e-06
-0.000282585
0.000253514
-0.000317731
0.000195307
0.00082385
-3.91104e-05
8.47606e-05
5.11697e-05
-5.60855e-05
0.000236295
-2.76338e-05
4.37654e-05
8.87553e-05
6.54869e-05
-4.48686e-05
0.000338457
-5.76415e-05
0.000885061
0.000305455
-0.000767482
9.5761e-05
0.000143725
-0.000123056
-0.000839178
-0.000130382
-0.00014191
-0.000240498
0.000198403
0.000152317
-3.65486e-05
0.000239629
9.41063e-05
-3.01646e-05
8.7943e-05
-0.000112514
4.723e-05
7.65197e-05
-0.000537809
-1.60823e-05
9.41673e-06
-9.9901e-05
0.00103472
0.00104433
0.00014949
0.000898756
-0.00013136
2.93182e-05
-0.000206296
0.00023881
-3.25141e-05
-0.000231288
0.000222095
-0.000678162
0.000535926
0.000625942
0.000169255
-0.000100789
-0.000455406
5.26438e-05
0.000364425
0.000157835
1.37945e-05
-0.00128048
-0.000854497
0.00113777
-0.000484962
0.000558378
2.9417e-05
-0.000757138
-0.000479924
0.000254677
-0.000203329
-0.000369798
-0.000398594
7.13397e-05
-1.95777e-05
-6.70861e-06
-5.96428e-05
5.71754e-05
-0.000430038
0.000175121
-0.000347814
-5.4945e-05
5.95456e-05
2.19283e-05
0.000249789
9.21114e-05
7.48762e-06
7.95811e-05
0.000176465
-0.000293343
-4.70978e-05
0.000200183
-0.000791059
-0.000244153
0.000599389
8.87358e-05
0.000766259
3.65637e-05
-0.000296333
0.000551033
-0.00047219
2.9049e-05
-0.000220185
-0.000285515
7.58567e-05
-0.00116804
8.74951e-05
-2.77615e-05
-0.000651751
0.000115364
0.000564148
-2.49773e-06
0.000802669
-0.000258489
0.000194451
0.000245406
-0.000444904
0.000202038
-0.000629732
0.000580048
-3.1175e-05
-0.000199052
-0.000357806
0.000354978
-5.65149e-05
-0.00056683
9.68291e-05
0.000737359
1.47355e-05
-1.8296e-05
-9.19553e-05
-0.000143446
0.00011476
0.000259951
0.000467453
-9.23428e-05
-0.00069972
-0.00011039
5.10512e-05
0.000380525
-0.000118051
0.000206165
0.000525041
4.20724e-05
-8.95524e-05
-0.000422609
0.000305871
-7.33299e-06
0.000189105
2.91534e-05
-0.000418463
5.0343e-06
-2.93909e-05
0.000171983
-2.63549e-05
0.000402636
-0.000545525
-0.000101264
0.000327913
-3.01908e-06
2.30447e-05
-0.000497106
9.71577e-06
0.000484893
-3.19475e-05
0.000202625
-0.00101662
0.00100021
-5.01989e-05
9.32912e-05
2.28533e-05
-6.38524e-05
0.000202054
-0.000216074
-8.56677e-05
0.000276239
-5.20829e-05
9.82917e-05
-0.000119938
1.98386e-05
-0.000326246
0.000212291
-0.000209368
0.000323323
-0.000293736
7.75394e-06
-0.000118703
3.27856e-05
-0.000453555
-0.000490518
-0.000607575
0.000771847
-0.000219128
-0.000234589
-0.000130266
0.000622988
7.19076e-05
-0.00056463
-0.000153387
-0.000149814
0.000126105
0.000177096
9.02988e-05
9.10461e-05
-2.26721e-05
-0.000609575
0.000587316
-0.000242183
-0.000341355
0.000544721
-0.000486612
-0.000519818
0.000522538
0.000166922
-5.98795e-05
-0.000443337
3.51082e-05
-0.00037539
0.000113632
-7.26729e-05
0.00095784
-8.93044e-05
-0.000684057
-0.000768277
-0.000404343
0.000711439
2.09641e-05
-0.000590939
3.61174e-05
1.49046e-05
-0.000429785
-0.000207902
0.000421286
-0.000331479
7.98082e-05
0.000883759
-0.000766442
-0.000117316
-0.000522877
0.000544627
-2.17493e-05
-0.000477001
0.00043296
-0.00040613
-2.68299e-05
0.000995027
0.000533306
-0.000468778
0.000474623
-5.84547e-06
0.000522264
5.3486e-05
0.000542371
-6.77478e-05
-0.000708458
0.00110052
0.000604889
0.00069272
-0.000668417
-2.43036e-05
0.00062041
0.000507297
0.000486233
2.10644e-05
0.000614155
6.25462e-06
0.000478673
7.55971e-06
0.00049917
-2.04963e-05
0.00052381
2.01325e-05
0.0010014
0.000258291
9.23434e-05
0.000144297
-0.000116187
-0.0001692
2.32617e-05
-1.07818e-06
-9.6339e-05
0.000595201
-0.000107387
-4.52668e-05
0.00012619
0.00050823
-7.06588e-06
0.000779383
9.69104e-05
0.000131038
-0.000272203
0.000398775
5.63332e-05
8.36114e-05
8.75359e-05
0.000513
-0.000499249
-4.5942e-05
0.00028651
0.000374193
-9.35361e-05
-3.21198e-07
-6.87759e-06
-4.65215e-05
-7.01941e-05
-0.000231077
0.000531298
0.000929615
-0.000405179
0.000152508
-4.68037e-05
-8.98888e-05
-8.22836e-05
-0.000136579
0.000912166
-0.00119753
0.000109531
0.000249438
-0.000131595
0.000982069
9.84982e-05
0.000121154
-0.00120172
5.32717e-05
-8.21414e-05
-2.32726e-05
3.13641e-05
-6.20192e-05
7.48482e-09
0.000334493
-0.000634596
-0.000114591
-0.000118526
0.000164715
-0.000125781
0.000177291
9.30234e-05
-0.000225256
0.000147309
2.44042e-05
-0.0001194
8.77117e-05
3.65115e-05
-0.000430352
-0.00017041
0.000402754
-0.000420236
0.000455234
-0.000420188
-0.000137588
-0.000197048
9.49564e-05
6.33016e-06
0.000156854
0.000103181
-4.37466e-05
-0.000510446
0.000515779
8.30771e-05
-0.00014698
-2.32647e-05
0.000272087
-0.000272408
0.000313062
-0.000690447
-1.80564e-05
-0.000556197
0.000161667
0.00033497
-0.000463462
-3.57066e-05
0.000105337
-0.000175952
0.000181289
-0.000281807
-1.20187e-05
-0.000555252
7.58917e-05
-0.000178079
0.000652784
5.21204e-05
0.000106455
-0.000105256
0.000651586
-0.000305777
0.000203199
-2.6753e-05
-0.000116067
-1.62532e-05
0.000142611
-0.000204301
-0.000292012
6.55344e-06
-7.53163e-05
0.000136517
3.81365e-05
-5.46845e-05
-0.000303947
7.69211e-05
-9.55548e-05
8.39778e-05
-0.000680491
-0.000123517
0.000155251
4.0312e-05
2.14121e-05
-0.000235128
-0.000225979
0.000633773
-2.80973e-05
-5.82986e-05
0.000142085
-2.31878e-05
-5.76211e-05
-0.000216485
0.000572894
-0.000362835
-0.000125357
0.000471554
-0.000123063
7.72341e-05
0.000132682
-8.55835e-05
-0.000162168
0.000510309
-0.000551226
0.00021636
-0.00129796