/*--------------------------------*- C++ -*----------------------------------*\
| =========                 |                                                 |
| \\      /  F ield         | OpenFOAM: The Open Source CFD Toolbox           |
|  \\    /   O peration     | Version:  v1912                                 |
|   \\  /    A nd           | Website:  www.openfoam.com                      |
|    \\/     M anipulation  |                                                 |
\*---------------------------------------------------------------------------*/
FoamFile
{
    version     2.0;
    format      ascii;
    class       volScalarField;
    location    "0.65";
    object      p;
}
// * * * * * * * * * * * * * * * * * * * * * * * * * * * * * * * * * * * * * //

dimensions      [0 2 -2 0 0 0 0];


internalField   nonuniform List<scalar> 
1466
(
97.471
97.0877
97.6947
97.291
98.9564
93.5763
96.9316
98.4624
98.6184
96.6729
98.0913
96.8708
97.6071
97.4689
97.332
97.5595
97.819
97.0627
98.9467
97.4726
96.7506
97.6046
96.5172
97.3781
97.493
98.2406
98.2732
96.7786
97.4817
98.1378
98.7628
92.696
97.7149
97.223
97.28
97.2991
97.142
97.0674
95.2552
97.7837
96.7982
96.9872
98.6879
97.9222
96.646
97.9142
96.9631
97.0689
97.0374
96.8112
97.8168
96.6641
98.9927
93.5212
97.8651
97.1214
97.0344
98.2012
97.059
97.1909
97.5068
97.5837
98.8659
93.0177
96.9235
97.481
97.0567
96.7507
97.139
97.4864
98.1034
97.2142
97.1995
97.2022
97.2307
96.4805
97.2034
97.0843
97.4767
97.2461
97.9949
97.1867
97.1502
97.0803
97.2254
97.0489
97.2154
96.8136
97.4717
97.5694
97.3
97.053
97.3829
97.169
97.8378
96.8932
97.3611
96.9473
97.7616
97.3781
97.5536
96.7888
97.5256
97.2506
96.9219
98.2503
96.8247
97.0454
97.7488
97.4918
97.1435
97.4551
96.1367
97.106
97.6013
97.1924
97.238
97.3871
97.662
98.2047
96.7707
97.3115
96.8478
96.893
97.5834
97.575
97.5523
97.5889
97.4582
98.7935
97.1758
97.195
97.3853
96.9951
97.9512
97.2832
96.9331
97.2173
96.4857
97.1953
96.8738
96.9366
97.5982
97.2433
96.5805
98.2185
96.7957
97.6873
97.0552
97.2192
97.5063
97.5542
97.4757
97.2131
97.3114
98.1574
97.144
95.9792
97.8173
97.5978
96.7453
97.4406
96.7291
96.7964
96.8269
97.298
99.021
97.4624
97.4968
98.3177
97.1664
97.1628
97.5671
97.1066
98.2878
97.0722
96.8797
97.3138
97.4036
97.353
97.1303
96.8447
97.236
97.4908
96.9525
97.226
96.9802
96.9849
97.2248
97.2967
97.0635
97.7464
97.4887
96.8259
96.8647
97.176
96.423
97.5158
97.4266
97.4105
96.1731
97.7152
96.9621
97.5195
97.559
97.0417
96.8849
97.2025
97.3417
97.6294
97.5888
96.0844
97.8133
97.1863
97.737
97.1088
97.3263
97.0727
97.4929
97.2699
98.0624
97.4173
97.5646
97.0378
97.1398
97.0835
97.283
97.6265
97.1213
98.9871
97.2127
96.6741
97.3548
97.157
97.2473
97.5581
97.1524
98.2773
97.1871
97.5339
98.8493
97.2366
97.2107
96.8859
96.9278
97.0919
98.2525
96.8832
97.1334
96.9938
97.2898
98.3743
97.098
96.7415
97.4948
98.1755
97.3131
98.9928
96.4727
96.4767
97.2282
97.1802
98.2437
97.5033
94.4477
97.3449
98.2873
96.1687
97.5305
97.2577
97.4134
97.1796
97.2104
97.175
97.1501
97.0393
96.7818
97.7773
97.7168
96.9836
97.5456
97.1309
96.9067
97.552
97.1733
97.1835
98.0256
97.3638
98.2022
97.163
97.1299
98.0944
98.117
96.6457
97.2016
97.9379
97.1341
96.2429
97.9178
96.9442
97.4766
95.9221
97.6396
98.0481
97.4905
97.1886
96.5616
97.1398
97.5785
95.6289
98.8889
97.8696
97.7519
97.0114
97.1445
97.5679
96.1727
98.2996
96.4018
97.5608
96.9812
97.2149
97.291
97.297
96.6072
97.2285
97.9986
97.1903
98.0913
97.9484
96.4106
97.2666
98.0213
97.7225
96.5817
97.2755
97.5687
98.3361
96.0842
98.0126
96.2587
97.2444
97.1953
97.9436
97.203
98.1517
96.1198
97.3618
97.4719
98.136
97.1405
97.2429
97.073
97.1155
97.1247
97.7104
96.1427
97.1803
95.7521
98.041
98.2395
97.1781
97.2276
97.567
97.0498
97.1772
97.972
98.0502
97.2836
96.1513
98.0731
97.432
96.1191
97.2755
97.8536
96.5186
97.2198
95.4012
97.199
97.5062
97.2119
97.0554
97.9871
97.9231
97.0967
98.1204
97.3931
97.5082
97.1897
97.594
97.6338
98.8188
97.1658
97.0039
97.5883
97.377
97.1833
98.2211
96.9266
97.5996
96.1087
98.0631
97.1405
97.2367
96.6245
97.111
97.4778
96.0295
97.173
96.1579
97.3109
97.0802
97.4824
96.972
97.8493
97.7335
97.5651
98.2868
97.7387
97.7553
98.2139
97.5075
97.5145
97.5088
97.4482
97.3943
97.6216
97.5911
97.4613
97.3659
96.1225
97.3433
97.7542
96.4359
97.4605
96.366
97.8454
98.3732
98.2955
98.3848
97.1972
97.6806
96.5413
98.2119
98.3287
98.0137
98.5523
98.6489
95.8827
98.2407
95.6367
98.211
98.2258
98.1208
97.7656
98.2974
98.6059
98.3032
98.155
98.2053
97.9185
97.8723
98.0354
98.2024
97.0829
98.3651
96.7189
97.2052
96.0521
98.1424
96.9195
98.2475
98.1917
98.2485
92.9211
98.434
98.1792
98.188
98.7483
94.4459
96.0035
97.119
93.7242
97.0859
98.3172
96.0532
97.1063
97.9067
94.095
96.2989
98.0649
96.1361
97.1133
97.9614
96.946
98.6463
94.6511
97.7585
98.0805
97.6992
96.2749
97.2018
97.037
97.12
98.0155
97.0627
96.3394
98.2125
98.3979
98.259
98.609
98.2916
98.4795
98.195
98.2156
98.3782
96.2739
97.1814
98.1618
98.1855
98.1159
97.6485
97.8325
97.5446
97.6455
97.53
97.4805
98.0715
97.5
97.9982
97.0892
97.2165
98.2376
98.3015
98.2052
97.8535
96.8083
97.2737
96.9188
97.4808
97.6321
97.5497
98.5291
97.5566
98.2976
98.206
97.8987
97.4958
97.5649
96.4046
97.2406
97.0188
97.2883
97.5896
97.2932
98.4945
96.1327
97.4013
97.7669
98.4468
97.4722
97.4684
97.4101
97.6008
96.4924
97.2623
96.8752
97.573
98.3667
97.1785
97.2075
98.2642
98.4654
96.7072
97.5857
98.5203
98.7526
98.0652
98.437
98.5926
97.4268
97.5962
97.4075
97.1505
96.9525
95.3333
98.2797
97.2269
96.7147
98.9766
96.6864
97.7643
96.4927
97.5252
96.4109
97.2318
97.1139
97.4491
97.374
97.1603
96.168
96.4888
97.2408
97.3247
98.2003
97.5102
97.6062
97.487
98.1491
96.9526
97.4116
97.6418
99.0769
96.5517
97.6114
98.1069
97.7975
97.5449
98.1707
96.5517
97.14
96.8038
99.1058
97.2707
97.235
98.3968
97.1198
97.5873
96.7686
96.7282
98.4859
97.2762
97.5163
97.4666
97.1551
97.3726
97.1783
97.3397
96.4964
97.2369
96.805
97.9405
97.0665
98.3525
98.1074
96.8533
97.397
98.2605
97.7802
96.9073
97.6312
96.529
97.3286
98.1364
97.9805
98.6259
98.8754
97.0059
97.0597
97.5272
97.5852
97.2578
96.7596
98.9052
99.0342
96.9446
98.6822
97.2592
96.878
97.341
97.2048
97.1258
97.1667
97.3655
96.6308
97.427
99.0049
97.0747
97.1949
97.4825
96.5503
97.1268
97.227
97.3512
97.0649
98.0263
97.6202
97.7137
97.6558
96.6188
97.3824
97.2798
98.321
97.7809
96.2049
97.2862
97.0085
97.2525
97.3615
97.6805
98.5352
97.315
97.2009
97.8938
97.6403
97.5096
97.6598
96.3565
98.5207
96.5323
97.1916
97.1778
96.4309
96.5293
97.199
97.1161
97.1291
96.9385
97.2912
98.252
97.0569
97.9447
97.1708
97.5217
97.995
97.2001
97.202
97.5502
98.0876
96.5836
98.9066
97.3865
97.5539
97.1883
97.1857
98.6565
97.1729
97.1765
98.383
95.4885
97.4788
97.1359
97.1767
97.4297
96.7527
98.0598
97.6582
97.3233
98.0926
96.9005
97.4829
96.786
97.0568
97.4643
97.4378
97.7008
95.9876
99.0723
97.48
97.0459
96.8867
97.3928
97.4199
96.6797
97.5965
99.1165
97.0639
96.833
97.3861
97.6429
97.0998
95.2452
98.9881
97.205
97.3842
97.3606
97.5958
96.95
97.589
98.9653
95.2138
97.9914
97.5872
97.616
97.4164
97.1155
97.2314
97.0293
98.1426
97.5526
97.1383
97.2238
96.5942
97.7637
96.9443
99.063
96.6233
97.6697
97.4001
97.4494
96.6838
97.1182
97.1898
97.7723
97.3982
97.6411
98.4493
96.9818
97.2267
97.8516
95.5643
97.1761
96.8348
98.3599
97.5067
98.7125
97.2074
97.7142
97.1837
98.9421
95.299
97.1424
98.1256
97.7687
97.2019
97.24
97.6684
97.2599
97.4052
97.8607
97.1904
97.6658
97.1529
98.0971
97.1381
97.1667
97.7944
97.4463
97.1244
95.515
97.6452
97.3704
96.6032
98.8916
97.1642
97.9441
97.0595
96.9973
98.5428
97.8585
98.0396
97.4591
97.267
98.2131
97.2076
97.9513
97.9887
97.2808
97.656
96.9478
98.655
97.1662
95.519
97.1422
97.2225
96.5382
97.2818
96.9774
97.1635
97.1643
97.087
97.5139
98.2914
97.55
97.5641
97.1015
97.2682
96.6151
95.774
98.2981
97.1315
97.7211
98.1647
97.1611
97.4081
97.5819
97.2642
98.3404
98.3965
98.8048
97.3523
96.9902
96.9691
97.6369
97.1328
97.2789
98.184
98.2188
98.2898
96.7731
97.5945
97.0599
97.4555
98.2082
97.2213
97.7891
96.8636
97.1799
96.9429
97.348
97.5891
98.1272
98.8819
97.4256
97.461
97.6381
96.8326
97.4096
96.7015
97.5706
96.685
97.3236
98.674
95.8911
98.3384
97.5369
96.8501
97.867
97.4988
98.3547
97.2654
96.6494
97.0953
98.5295
97.0457
98.0525
96.776
98.6123
97.1512
97.4872
97.4686
97.4394
97.4518
97.0018
96.9084
97.0898
97.1715
97.5096
97.2492
97.3242
97.5344
97.5609
97.5863
97.6724
97.6079
97.6257
96.7175
97.187
96.9408
97.1109
97.4061
95.5605
97.9228
97.6436
97.3462
97.6151
98.4593
97.1397
97.822
97.1785
97.694
97.0446
97.4414
97.9779
98.1
97.6412
97.2492
96.4952
97.4969
97.5771
98.3494
99.1121
96.1926
98.7658
96.7549
97.6865
96.8642
96.1067
97.1664
98.165
97.4368
96.9776
97.7215
97.5894
98.3663
98.0393
97.289
95.9955
98.7252
97.7903
97.7155
97.669
97.3757
97.0095
96.8933
97.558
97.5601
97.8635
97.6101
97.1889
96.9766
97.4479
97.379
97.5178
97.1552
96.4805
97.2505
96.417
97.1455
98.8876
96.9819
97.2193
97.8234
98.4172
97.3737
96.6994
97.4353
96.9391
98.8812
94.4408
96.7332
97.3027
98.4495
96.6348
97.3185
98.7231
97.4288
97.1949
97.2427
99.1486
96.2638
97.1837
97.2768
96.0618
96.9916
97.0016
97.5507
97.5928
97.5406
97.2073
96.3
97.9475
98.0745
98.602
97.0136
97.8498
95.9605
97.9913
97.6284
96.383
97.4859
97.3341
97.1786
97.6439
97.148
96.0385
97.1317
96.7307
96.7039
96.7782
97.1528
96.4692
97.1649
96.1752
96.881
97.4412
96.6461
97.8387
97.4045
98.5481
97.5426
97.5237
96.6891
98.3132
97.3484
96.7247
97.2688
96.658
97.4507
97.2448
98.194
97.0722
97.409
97.7089
96.8381
97.4364
98.3044
98.1957
96.9643
97.2991
97.4102
96.5774
97.2662
98.6494
97.9106
97.1875
97.6436
96.7391
96.6478
97.5744
98.2302
96.9801
97.3049
97.3582
98.3297
97.2623
97.4165
96.8302
97.1668
96.6068
97.1632
97.8149
98.161
97.1905
97.0961
97.5299
96.1355
97.9951
96.3651
98.356
97.6308
96.1599
97.1842
98.4946
97.5596
96.1412
97.9198
97.2458
95.7309
98.1412
97.5104
97.0034
97.4191
98.0139
97.2591
98.041
97.6354
97.4734
97.5211
97.637
97.5418
97.4469
97.0415
97.6535
97.6399
98.1584
97.6822
97.7025
96.0154
97.2144
97.5522
98.7155
98.3286
96.4254
97.8742
97.4253
97.1749
97.5285
97.21
98.0524
97.21
97.1143
98.292
97.2346
97.3802
98.6135
93.6084
97.6927
97.4834
98.1951
97.4401
96.8151
97.2599
97.4733
97.3331
97.5807
98.1729
97.2964
98.869
97.2551
97.1092
97.2045
97.6237
97.2464
97.1055
96.3054
98.9571
98.6538
97.5656
97.2448
97.1647
98.1746
97.9705
97.3382
97.1477
96.6001
97.1295
96.7081
98.1413
97.5031
97.0872
97.2945
98.023
97.7162
97.4364
97.091
97.0029
98.2936
96.9592
96.7493
97.4623
97.1144
97.3338
97.2205
98.095
97.2563
97.2259
95.9444
98.7804
97.1882
97.3308
96.0657
97.5702
97.4002
97.4181
98.0135
97.9255
96.8656
97.1586
97.9119
97.5025
97.228
97.8111
96.4269
98.7255
96.5799
97.0911
96.5709
97.6915
97.3132
99.1626
96.3989
97.833
95.9623
98.2029
97.6444
97.7998
96.0669
98.0747
98.1445
97.7433
97.1634
97.1768
96.8524
97.2067
97.6246
97.2185
97.693
96.818
97.4321
97.4737
98.8097
96.7934
97.1947
95.5506
98.8015
98.7805
97.1088
96.992
97.5398
97.8977
99.1781
97.0667
96.8076
97.2823
96.5836
97.0516
96.9975
97.6748
97.1192
96.5438
95.8124
98.9087
97.8152
98.3051
98.5209
97.2926
97.5983
97.8959
97.0996
98.7842
95.664
97.2069
97.053
98.1333
97.303
98.1753
95.6664
97.1796
97.9065
96.8374
97.0026
97.1823
97.3154
97.1624
97.8925
97.4394
96.1785
97.7209
98.1618
97.6173
96.1926
97.2463
97.2625
96.9173
98.0644
97.3484
97.368
97.699
96.314
97.2913
98.1271
97.3782
96.1031
97.3211
97.0793
97.2862
97.2783
96.5125
97.2846
97.5608
98.215
97.2312
97.23
96.3013
97.1484
97.1577
97.9597
97.2774
96.5615
98.2896
97.462
98.7719
97.2648
96.4274
98.3322
98.0513
97.6659
98.039
97.0297
97.28
96.0854
97.5399
97.6812
97.1936
97.5745
97.9048
97.8298
96.1092
97.6173
97.5036
96.153
97.185
96.015
97.0821
98.0517
97.5837
98.4101
97.3714
96.6155
97.0816
97.4633
96.8454
97.3232
96.7941
97.6344
97.4883
96.7366
97.1863
96.8062
97.2755
96.9883
97.3784
98.4299
97.2861
97.1943
97.3685
96.6445
97.1656
97.1792
96.7405
96.3466
97.9278
97.2384
96.0435
97.2933
97.1772
97.7138
97.4345
96.8951
97.6092
97.5679
97.7307
97.1909
97.158
97.648
97.8527
97.0925
96.0855
98.8756
92.2474
97.1855
96.6211
97.5714
97.3505
97.2732
97.3648
97.647
97.1228
96.5804
97.2309
97.6134
97.1959
97.4471
96.921
97.7132
97.0373
97.6089
98.1812
97.0256
97.191
96.3795
97.6537
97.1923
97.1501
97.8202
97.544
96.7348
97.4631
97.7531
96.0671
97.1818
97.9999
98.485
98.3196
97.6331
96.8976
98.5824
97.8957
97.1065
97.3112
97.5726
99.34
95.5023
97.3808
96.993
)
;

boundaryField
{
    frontAndBack
    {
        type            empty;
    }
    wallOuter
    {
        type            zeroGradient;
    }
    inlet
    {
        type            zeroGradient;
    }
    outlet
    {
        type            fixedValue;
        value           nonuniform 0();
    }
    wallInner
    {
        type            zeroGradient;
    }
    procBoundary2to0
    {
        type            processor;
        value           nonuniform List<scalar> 
42
(
95.3765
95.3765
96.5468
96.6232
96.1749
95.4376
96.5784
96.5784
96.2084
96.0667
95.6442
95.6442
96.0238
95.3911
95.2108
95.3785
95.2085
96.0279
96.149
92.4996
93.5247
96.0244
96.0244
94.5615
93.5247
96.1601
94.9284
96.3096
94.9284
95.1554
95.0665
96.4407
96.5131
96.5369
96.5438
96.6232
95.2085
96.5962
95.3851
96.5618
96.5618
96.5419
)
;
    }
    procBoundary2to1
    {
        type            processor;
        value           uniform 92.1291;
    }
    procBoundary2to3
    {
        type            processor;
        value           nonuniform List<scalar> 
29
(
98.8696
98.6679
97.5752
97.8243
93.1201
98.9891
96.3644
98.8505
97.7233
97.7803
98.9314
92.6296
98.7902
96.245
96.2214
96.2502
97.6438
97.6438
98.6679
96.245
96.1608
97.6535
96.2795
97.7364
96.2906
97.5987
97.7233
92.0728
92.6296
)
;
    }
}


// ************************************************************************* //
