/*--------------------------------*- C++ -*----------------------------------*\
| =========                 |                                                 |
| \\      /  F ield         | OpenFOAM: The Open Source CFD Toolbox           |
|  \\    /   O peration     | Version:  v1912                                 |
|   \\  /    A nd           | Website:  www.openfoam.com                      |
|    \\/     M anipulation  |                                                 |
\*---------------------------------------------------------------------------*/
FoamFile
{
    version     2.0;
    format      ascii;
    class       volScalarField;
    location    "0.87";
    object      nut;
}
// * * * * * * * * * * * * * * * * * * * * * * * * * * * * * * * * * * * * * //

dimensions      [0 2 -1 0 0 0 0];


internalField   nonuniform List<scalar> 
1466
(
0.000758786
0.000915912
0.00187727
0.000453451
0.000857741
0.0010767
0.00086227
0.00117139
0.00237292
0.000606989
0.000687664
0.00184773
9.97365e-05
0.000452447
0.000798838
0.000360753
0.00027508
0.000360883
0.00168983
0.000445403
0.00171187
0.00152984
0.000229449
0.00117306
0.000498522
0.00419743
0.00521577
0.00149303
0.000308131
0.000377036
0.00108933
0.00143799
0.00193353
0.000916079
0.000438228
0.000902313
0.000511569
0.000693428
0.00303526
0.00138974
0.00182833
0.000862433
0.00144018
0.00133554
0.0018973
0.000971627
0.000997188
0.000276464
0.000729237
0.0017641
0.00296231
0.000253398
0.000457483
0.000833908
0.000331577
0.00192233
0.000431443
0.00413261
0.000613672
0.00184272
0.000324012
0.000372704
0.000783451
0.00107601
0.000820203
0.000678017
0.00199707
0.00161085
0.000521538
0.00105304
0.00363458
0.000570258
0.000519674
0.000831876
0.000160901
0.00154904
0.000739073
0.000630378
0.000995083
0.00208025
0.00189998
0.000904876
0.000888472
0.000657744
0.000640041
0.00175442
0.000644218
0.000815845
0.000862109
0.00114706
0.000616615
0.000294614
0.00226686
0.000399681
0.00280524
0.00139923
0.00088139
0.000783234
0.00171284
0.000608468
0.000386687
0.00165351
0.00117587
0.000342416
0.000865956
0.00137236
0.00144702
0.000899074
0.00162193
0.000601084
0.00044194
0.000576658
0.000789926
0.000779702
0.000115471
0.00568573
0.000258947
0.000357732
0.00140138
0.00477158
0.00129184
0.000576668
0.000219374
0.000910601
0.000836975
0.00191653
0.000654863
0.000729576
0.00224334
0.00310551
0.000770693
0.000666102
0.000766013
0.00200902
0.0033408
0.00218886
0.00103676
0.000726244
0.00179112
0.000444385
0.000281219
0.000283048
0.00219894
0.00254917
0.00183903
0.000224058
0.000283704
0.00170148
0.00197564
0.000573242
0.00214818
0.000809793
0.000906583
0.000935416
0.000802318
0.00507284
0.000591949
0.00223411
0.00193973
0.00151711
0.00173345
0.000666632
0.000600512
0.00136989
0.00151311
0.00222982
0.00241468
0.0001535
0.00056861
0.0052104
0.00143324
0.00172884
0.000709254
0.00180716
0.00411713
0.000954342
0.00133128
0.00204439
0.000753696
0.00219315
0.000608936
0.00111337
0.00104381
0.000761611
0.000938056
0.000385293
0.00111878
0.00477857
0.00100364
0.000340147
0.000244626
0.000186612
0.000707042
0.000666045
0.00105949
0.000663764
0.00173013
0.000698638
0.000611406
0.000515777
0.00101484
0.0021316
0.000889677
0.000628386
0.000828207
0.000875625
0.00112954
0.000605535
0.00078952
0.000771346
0.000839038
0.00102247
0.00222718
0.00111695
0.00163095
0.00107906
0.00154949
0.000151898
0.000409948
0.000682592
0.00544893
0.000757873
0.00043772
0.0010873
0.00159514
0.00126801
0.000461023
0.00060701
0.000706335
0.00220025
0.000943565
0.000712021
0.000937089
0.000494635
0.000852163
0.00079874
0.000559588
0.000762646
0.000753798
0.000588923
0.0022663
0.000984086
0.000314477
0.00120476
0.00114071
0.000220458
0.000746609
0.000269512
0.000172807
0.000239502
0.000885354
0.00411683
0.000824632
0.000711504
0.000961309
0.00391853
0.000597418
0.00275594
0.00539748
0.00101937
0.00117322
0.000979418
0.00349362
0.00126163
0.00107445
0.000754645
0.00246082
0.00110444
0.00189295
0.00064473
0.00316033
0.000543052
0.00084237
0.000604236
0.000865794
0.000746354
0.000622577
0.000899767
0.00166385
0.000982296
0.000727773
0.000197552
0.000256315
0.000499505
0.00164064
0.000554029
0.00320849
0.000366964
0.00615094
0.000669343
0.00140134
0.00244906
0.00392321
0.00130648
0.00108868
0.00247821
0.00385368
0.00717421
0.00252164
0.000328162
0.00106
0.00159366
0.000581942
0.00361689
0.000816008
0.00131445
0.000751238
0.000586896
0.0001509
0.00670673
0.00281487
0.00205244
0.00227105
0.00158658
0.00079998
0.00153178
0.000918433
0.0028126
0.00189143
0.000681716
0.00145362
0.00215735
0.00125841
0.000244784
0.00018578
0.000304254
0.000428367
0.000350415
0.000550595
0.000516153
0.000227154
0.000237721
0.000472637
0.000394455
0.000198034
0.000239247
0.000116466
0.000904188
0.000172681
0.00053311
0.000304656
0.000305652
0.000253734
0.00037844
0.000386035
0.000671991
0.000249516
0.000236361
0.00102718
0.00634947
0.00110858
0.00119115
0.00115097
0.000618918
0.000549596
0.00184905
0.00082246
0.000285261
0.0055582
0.00280093
0.00596809
0.00211564
0.0021319
0.000354538
0.00020668
0.000419059
0.000397925
0.000517908
0.000310644
0.000311327
0.000595173
0.00020913
0.000243241
0.000233198
0.000339362
0.000210151
0.000276279
0.00587666
0.000861087
0.0001971
0.000655124
0.00125235
0.00341285
0.00222069
0.00100078
0.0033628
0.000579768
0.00204049
0.000781772
0.0011388
0.00159931
0.00343442
0.00149324
0.00734929
0.000174568
0.00068387
0.00189762
0.00270559
0.00083932
0.000133941
0.000186296
0.00331087
0.0016057
0.00107899
0.00171943
0.00157286
0.0026345
0.00495574
0.00161184
0.000846583
0.0018168
0.00111849
0.000201811
0.000224576
0.00649993
0.00221136
0.00297433
0.00474014
0.00167143
0.00202237
0.00476033
0.000250335
0.00215146
0.00227056
0.00241108
0.00244138
0.00215167
0.00219446
0.00214931
0.00194089
0.00119017
0.00161705
0.00298083
0.00447346
0.00121247
0.00602046
0.00672173
0.00129895
0.00540511
0.00478433
0.000556071
0.00127237
0.00276694
0.00485029
0.00509697
0.00646147
0.00404128
0.00372393
0.00757377
0.0048356
0.00771971
0.00586915
0.0035501
0.00442736
0.00686302
0.00480645
0.00399429
0.00570597
0.000678216
0.00497691
0.00668274
0.00342367
0.00411572
0.0048598
0.00314558
0.000754337
0.00646432
0.00142393
0.00120137
0.000499228
0.00536629
0.00515728
0.00491443
0.00395434
0.00141624
0.00133873
0.000607566
0.000557278
0.0017005
0.00190349
0.00111703
0.00137301
0.00119381
0.00154553
0.00167683
0.000913539
0.00150667
0.00310992
0.000897692
0.00185941
0.00156802
0.000749244
0.00171462
0.00343658
0.000327672
0.00164407
0.00187565
0.00667584
0.00067317
0.000616819
0.000788425
0.00174308
0.0002332
0.000901968
0.00377543
0.00198475
0.00185852
0.00511681
0.00436723
0.00518364
0.00382929
0.00124508
0.00415955
0.00497503
0.00322006
0.00450522
0.000692025
0.00178748
0.00462615
0.00474781
0.00437411
0.00678769
0.00385475
0.00112617
0.000835215
0.00129337
0.00363083
0.00415993
0.000231292
0.00389928
0.00157816
0.00214365
0.00493509
0.00465348
0.00455461
0.00595481
0.00176766
0.00581299
0.00177512
0.00105001
0.00584877
0.00705076
0.0042283
0.00675232
0.004779
0.0029904
0.000366016
0.00668283
0.00701221
0.000856286
0.00171818
0.000687308
0.00685827
0.00240889
0.00227943
0.00473879
0.00102031
0.00119335
0.00345242
0.00450494
0.0010516
0.0014358
0.00232889
0.00618211
0.00181019
0.00178136
0.00143108
0.000814442
0.00437942
0.0068835
0.000477566
0.00581522
0.00407183
0.00188836
0.00173298
0.00403397
0.000582244
0.00416891
0.00406408
0.00376485
0.00155837
0.000775664
0.00301092
0.00198131
0.000881627
0.00767833
0.000862562
0.00157206
0.00739244
0.00303279
0.00016781
0.000249548
0.00191663
0.0018002
0.000808304
0.00172669
0.00211159
0.00208634
0.00713078
0.00223209
0.00763912
0.000930224
0.00159092
0.00168146
0.00404003
0.0030146
0.00341159
0.00170634
0.00600941
0.00653346
0.00216654
0.00182885
0.00266881
0.00466107
0.000522502
0.00462921
0.00634361
0.000457096
0.00590504
0.000704532
0.00129487
0.00135863
0.000474135
0.00142291
0.00136934
0.00448991
0.000534579
0.000861081
0.00139084
0.00722794
0.00371341
0.00640312
0.00229563
0.000195657
0.00205891
0.00201192
0.00194333
0.00720105
0.000915931
0.00155504
0.00137076
0.0062461
0.000442864
0.00525799
0.00341095
0.00166051
0.00219886
0.00589583
0.00443552
0.00132159
0.000794976
0.00759184
0.0017413
0.00626479
0.00295508
0.00279442
0.00145646
0.00180318
0.00124298
0.00243736
0.000407003
0.00724911
0.00184356
0.000608414
0.00158836
0.00706618
0.00392247
0.00117753
0.00752457
0.00143162
0.00113431
0.000807343
0.00033603
0.00200286
0.000171606
0.000249121
0.00244451
0.00738154
0.00116353
0.00143893
0.000708551
0.00119331
0.000186334
0.00175225
0.000674343
0.0029781
0.000958549
0.00175595
0.000317266
0.000664378
0.000819401
0.00100989
0.005452
0.00182735
0.00302984
0.000730196
0.00123837
0.00128065
0.00146033
0.00233263
0.00373461
0.00146944
0.00144941
0.006623
0.00206903
0.000910167
0.00262574
0.00721057
0.00380557
0.000866748
0.00135458
0.000226478
0.00114181
0.000879864
0.001435
0.000600715
0.00150274
0.00695764
0.000874037
0.00568433
0.00255333
0.00388789
0.00168797
0.00230252
0.00610888
0.00147667
0.00272749
0.000697046
0.00622946
0.00158158
0.00315193
0.000669711
0.00164818
0.000102601
0.000104905
0.00360336
0.000108251
0.000122566
0.000917165
0.00757992
0.000249047
0.000117924
0.000117949
0.000139424
0.000237298
0.00220927
0.000178622
0.00104042
0.00360161
0.00152173
0.00184005
0.000183533
0.00049485
0.00193483
0.00242909
0.0013089
0.00593948
0.002309
0.00164028
0.000585397
0.000164541
0.000603444
0.00165385
0.000393581
0.00103547
0.00198632
0.00169757
0.00017521
0.00180041
0.0017313
0.00292
0.00197601
0.000453281
0.000228374
0.00170727
0.00134851
0.000757445
0.00136892
0.000785815
0.00168411
0.00299403
0.006493
0.0001271
0.000190834
0.00195026
0.000624227
0.00121043
0.00140797
0.00445096
0.000189839
0.000906364
0.00122794
0.000552627
0.000495416
0.000833674
0.00255796
0.00412757
0.000852615
0.00204338
0.000191233
0.000301603
0.00239654
0.00136878
0.00189788
0.00140454
0.000308459
0.00464331
0.000657451
0.00102276
0.00328397
0.00433792
0.000194348
0.00111085
0.00521735
0.000465531
0.00105674
0.000529649
0.000335459
0.000818276
0.00128003
0.00323943
0.0010241
0.00416361
0.00258535
0.000186793
0.000196037
0.00132428
0.00151802
0.00128284
0.00240528
0.000762103
0.00189161
0.000804809
0.00067682
0.000979545
0.00062006
0.00254717
0.00183537
0.000400809
0.000283364
0.000194252
0.00144347
0.00192213
0.00278081
0.000299844
0.00344792
0.00159129
0.00170259
0.00426021
0.00299706
0.00651813
0.00166579
0.00237634
0.00609029
0.000158548
0.00359637
0.00324613
0.000320439
0.00151397
0.000154377
0.00116279
0.00028054
0.00421373
0.000968092
0.00140559
0.000919852
0.000541471
0.000893964
0.00289914
0.00057977
0.00138198
0.000257013
0.0056906
0.00140129
0.00156164
0.00168373
0.000926644
0.000688923
0.00386591
0.00463253
0.000935099
0.00255014
0.00503156
0.0016037
0.000653444
0.00145931
0.000902402
0.00254826
0.00442334
0.00124995
0.00139319
0.00168943
0.000488232
0.000555585
0.00144543
0.00385157
0.00493376
0.00522538
0.0056565
0.00104588
0.00108171
0.0015944
0.00145186
0.00435541
0.00307781
0.00023844
0.00171539
0.00074573
0.00180423
0.00123628
0.000760673
0.00240906
0.00322991
0.000193165
0.00172251
0.000128637
0.00141978
0.0008571
0.00072296
0.000863656
0.000656739
0.00104644
0.00341954
0.00189783
0.00558079
0.000504894
0.00145588
0.00223997
0.00171254
0.00368159
0.00101524
0.00068642
0.000599272
0.00414963
0.000152364
0.00411925
0.00168186
0.00390822
0.00102916
0.000122076
0.000124497
0.000118005
0.000124211
0.000233776
0.000206926
0.000241888
0.000229894
0.000117971
0.000214686
0.000222262
0.000116275
0.000118363
0.000122421
0.00127696
0.000124234
0.000127218
0.00184604
0.000181972
0.00191673
0.000164497
0.000239658
0.00607338
0.00279973
0.000685878
0.000592464
0.000326537
0.0047887
0.000455335
0.00274532
0.00114901
0.000216473
0.00229219
0.000172435
0.00288126
0.00417427
0.000207759
0.00148178
0.000966134
0.000256088
0.000482657
0.00542205
0.00194256
0.00435635
0.00342438
0.00156638
0.0026894
0.000559047
0.000908764
0.000839454
0.00452254
0.00135078
0.00071527
0.000230131
0.00026207
0.00509845
0.00319579
0.000135069
0.00755726
0.00351031
0.00295851
0.000242881
0.000257896
0.00247019
0.00130855
0.00185581
0.000478017
0.000447541
0.00157743
0.000679899
0.00018875
0.00123777
0.000176561
0.000186505
0.00195521
0.000421745
0.00120535
0.00151165
0.000930533
0.000485047
0.00263651
0.000659405
0.000382651
0.000602155
0.000376735
0.00132248
0.00173738
0.00177097
0.00101187
0.000783747
0.00181217
0.00164022
0.00130609
0.00469676
0.000234383
0.000155977
0.00334016
0.00221703
0.000157712
0.00103578
0.00188588
0.00369602
0.000142605
0.00106767
0.00104991
0.000871522
0.00229359
0.000952061
0.000110771
0.00338366
0.00150373
0.00089841
0.00182558
0.00443332
0.00380698
0.000143087
0.00235352
0.00587317
0.00362314
0.000858412
0.000701966
0.00346915
0.00049699
0.000587037
0.000128478
0.00108978
0.000966544
0.000464105
0.00625915
0.00130041
0.00190503
0.000429666
0.000245233
0.00127029
0.000924493
0.00545163
0.00126571
0.00169035
0.000927542
0.00153859
0.000673417
0.00189675
0.000248474
0.000219112
0.00554371
0.000889971
0.00191891
0.00485752
0.00191419
0.00204789
0.000886638
0.00585968
0.00207416
0.00113466
0.00548184
0.000146992
0.000169926
0.00288669
0.00564546
0.00143037
0.00120093
0.000194784
0.0002172
0.00149407
0.0034923
0.00186027
0.000338116
0.000123882
0.000192995
0.00118272
0.000202719
0.00549526
0.00264543
0.00152204
0.000623155
0.00551113
0.000169084
0.000341383
0.000481174
0.000577674
0.00107744
0.000163721
0.000353315
0.00438179
0.000874806
0.000173215
0.000266052
0.000299687
0.00263264
0.000228825
0.00527146
0.000489286
0.000328623
0.000734521
0.00424401
0.000334972
0.000307568
0.00294632
0.000150503
0.00713124
0.00431021
0.000191235
0.000701509
0.00142504
0.000774164
0.00100386
0.0015706
0.000115627
0.00125133
0.00342158
0.000274159
0.000846329
0.000163168
0.000436324
0.000590241
0.000204168
0.00450628
0.000191394
0.00090261
0.000467158
0.000841558
0.0023032
0.0034654
0.0032324
0.000241046
0.00386227
0.00100355
0.000204522
0.000331941
0.000634996
0.00210325
0.000122704
0.00130626
0.00417016
0.000724503
0.000169555
0.00135547
0.00151969
0.00156543
0.000333225
0.00480703
0.000301596
0.00141154
0.000514946
0.000354511
0.000160817
0.000456465
0.00409476
0.00105253
0.00300596
0.00121155
0.00168306
0.000938567
0.000591721
0.000165308
0.00070437
0.0062613
0.00249392
0.00381668
0.000385913
0.00240329
0.000626455
0.00535704
0.00130274
0.0015672
0.00105759
0.000630595
0.000467735
0.00684556
0.00504606
0.00477028
0.000647434
0.00165899
0.00393754
0.00125813
0.00566635
0.00072093
0.00278953
0.00431708
0.00245328
0.00015438
0.00112277
0.000892439
0.00129246
0.00109458
0.00456479
0.000403092
0.000134908
0.00747448
0.0033398
0.000621759
0.000756972
0.000919257
0.000295676
0.000527232
0.000383134
0.00381492
0.00263492
0.000878364
0.000879741
0.000683337
0.00204737
0.000829569
0.00592347
0.00732818
0.0036934
0.00655923
0.00108955
0.000609111
0.00252343
0.00135071
0.00217592
0.00401894
0.00220234
0.00376473
0.00460313
0.000748659
0.00188622
0.00103027
0.00419819
0.00373654
0.000969875
0.000382445
0.00127306
0.00123979
0.00295512
0.000776203
0.000863865
0.00180657
0.000161055
9.73662e-05
0.000684406
0.00333045
0.00102651
0.000329175
0.00744778
0.00332769
0.00287441
0.000525853
0.0007284
0.000820325
0.0032808
0.00115723
0.00115858
0.00284196
0.00111801
0.000729332
0.00268911
0.00200467
0.0010286
0.000979783
0.0012109
0.00685648
0.00282588
0.000992167
0.00500433
0.00467928
0.0031295
0.000105766
0.00362435
0.000191034
0.00308141
0.004249
0.000158566
0.000374985
0.00480693
0.00259203
0.00322376
0.00283556
8.6698e-05
0.00257184
0.00188336
0.000747535
0.000358849
0.000167152
0.000451899
0.00383129
0.000875228
0.000650125
0.00146082
0.00528956
0.00103415
0.000682388
0.0026953
0.000754233
0.0013323
0.00404818
0.00115014
0.00145555
0.00136724
0.00147806
0.000469612
0.00538423
0.000533456
0.000736353
0.00241522
0.000130364
0.00116993
0.0011057
0.000885299
0.000646039
0.00141818
0.00585269
0.00012066
0.00105622
0.000852145
0.000181593
0.000548078
0.00240283
0.00112278
0.000849034
0.00448332
0.000376044
0.00355856
0.00104967
0.000859595
0.00484983
0.00379881
0.00211267
0.00418212
0.000802377
0.000601198
0.000783219
0.000438772
0.00110274
0.000476221
0.00130814
0.00307129
0.00249946
0.00710228
0.000108452
0.000723859
0.000778877
0.00112875
0.00106334
0.00016693
0.000806293
0.000215192
0.00450164
0.00108996
0.000544158
0.000472627
0.000712078
0.000936695
0.00156322
0.00149439
0.000512804
0.000665535
0.00149552
0.000851043
0.00102312
0.000474133
0.000901365
0.000716075
0.00390214
0.00167918
0.000274908
0.00113954
0.000450952
0.00242041
0.000347094
0.00160591
0.00165638
0.00531938
0.000791857
0.000953669
0.00190329
0.000207549
0.000318274
0.000630601
0.00085461
0.000456377
0.000526799
0.00148126
0.00169471
0.000990811
0.000542112
0.000755355
0.00132675
0.00700672
0.0029057
0.00151188
0.00111738
0.000542304
0.000643781
0.000428984
0.00281374
0.00244611
0.000559866
0.0011882
0.000554251
0.000977423
0.000928489
0.000763616
0.00036749
0.000578061
0.00114614
0.000939898
0.000280507
0.00297594
0.000744497
0.00112443
0.00104345
0.000604078
0.00258428
0.00277614
0.00194423
0.000748579
0.00100559
0.000764896
0.00149067
0.00116325
0.000184357
0.00367126
0.00382097
0.0040505
0.000504765
0.00110154
0.00301779
0.00175955
0.00097856
0.000379557
0.000419535
0.000483881
0.000271551
0.000405576
0.000278582
)
;

boundaryField
{
    frontAndBack
    {
        type            empty;
    }
    wallOuter
    {
        type            nutkWallFunction;
        Cmu             0.09;
        kappa           0.41;
        E               9.8;
        value           nonuniform List<scalar> 
102
(
8.1651e-06
8.1651e-06
2.67435e-05
1.70953e-05
1.04723e-05
1.55531e-05
1.89196e-05
2.06382e-05
8.84769e-06
9.11349e-06
9.73073e-06
1.15998e-05
1.11998e-05
1.08615e-05
1.41007e-05
2.70392e-05
1.96244e-05
2.05939e-05
1.79788e-05
1.94628e-05
2.63263e-05
1.21452e-05
2.1251e-05
2.12931e-05
3.53335e-05
2.05819e-05
2.18994e-05
1.67189e-05
1.65536e-05
2.1602e-05
1.26452e-05
1.14491e-05
1.18043e-05
1.09254e-05
1.17747e-05
2.6547e-05
2.30028e-05
2.75867e-05
2.59828e-05
1.09291e-05
2.39681e-05
2.49595e-05
1.08457e-05
1.12763e-05
1.18945e-05
1.2115e-05
1.2484e-05
1.7465e-05
2.72245e-05
2.45202e-05
1.87564e-05
2.34447e-05
2.9354e-05
2.62324e-05
3.01447e-05
1.36949e-05
2.78041e-05
2.96584e-05
1.94969e-05
2.08778e-05
2.74513e-05
1.66371e-05
1.45009e-05
9.78062e-06
1.49397e-05
1.25929e-05
2.8832e-05
2.9088e-05
2.54337e-05
1.84773e-05
2.19965e-05
2.51116e-05
1.1903e-05
2.18777e-05
2.28496e-05
1.84835e-05
1.73975e-05
1.8651e-05
2.6595e-05
1.58636e-05
2.13811e-05
1.06622e-05
2.31617e-05
2.14226e-05
2.82455e-05
1.18848e-05
1.85494e-05
1.70941e-05
1.7952e-05
1.36412e-05
1.67728e-05
7.91732e-06
9.0765e-06
1.67678e-05
6.2633e-06
1.82184e-05
1.30756e-05
1.16023e-05
1.98296e-05
9.53421e-06
1.77778e-05
2.46416e-05
)
;
    }
    inlet
    {
        type            calculated;
        value           nonuniform 0();
    }
    outlet
    {
        type            calculated;
        value           nonuniform 0();
    }
    wallInner
    {
        type            nutkWallFunction;
        Cmu             0.09;
        kappa           0.41;
        E               9.8;
        value           nonuniform List<scalar> 
138
(
8.38279e-05
3.24747e-05
3.71369e-05
4.60984e-05
3.0211e-05
5.5754e-05
9.89749e-05
4.04076e-05
4.56159e-05
3.49161e-05
4.72074e-05
3.98625e-05
2.52952e-05
3.37763e-05
3.33679e-05
2.563e-05
3.3005e-05
1.59909e-05
3.95555e-05
2.76004e-05
2.08365e-05
1.58553e-05
3.75394e-05
2.50067e-05
8.99856e-05
3.15647e-05
1.86235e-05
2.75652e-05
0.000126091
2.19281e-05
2.98137e-05
4.42955e-05
2.84506e-05
2.0385e-05
3.6222e-05
5.18417e-05
4.21207e-05
6.68226e-05
6.18616e-05
2.61784e-05
2.77081e-05
5.73574e-05
4.6898e-05
2.22335e-05
2.77918e-05
1.10365e-05
0.000108243
1.8659e-05
6.41254e-05
3.63226e-05
3.67307e-05
2.95015e-05
4.53234e-05
4.66144e-05
8.10869e-05
2.90899e-05
2.76831e-05
3.27268e-05
4.19464e-05
2.36011e-05
5.07004e-05
4.794e-05
6.28676e-05
3.73828e-05
3.71292e-05
7.17897e-05
2.41106e-05
2.82189e-05
2.70497e-05
4.00708e-05
2.38827e-05
3.25485e-05
2.21655e-05
1.31383e-05
2.06436e-05
2.26976e-05
2.58253e-05
2.90826e-05
0.000141817
6.85473e-05
8.19361e-05
9.15156e-05
6.03514e-05
7.33808e-05
6.73221e-05
4.01552e-05
8.21877e-05
7.57411e-05
2.75229e-05
0.000132229
9.9409e-05
2.68577e-05
4.35267e-05
7.11887e-05
1.79738e-05
2.88857e-05
5.83153e-05
2.16537e-05
7.47645e-05
1.84086e-05
2.89308e-05
3.66882e-05
2.57424e-05
0.000109861
2.86178e-05
5.54166e-05
2.13783e-05
3.54827e-05
2.13206e-05
3.91641e-05
8.19303e-05
3.46759e-05
2.08468e-05
3.83176e-05
3.02278e-05
2.76896e-05
1.59983e-05
1.99115e-05
3.77232e-05
2.06386e-05
7.21115e-05
4.57085e-05
1.66106e-05
8.16766e-05
1.50799e-05
4.16619e-05
3.22281e-05
1.768e-05
2.27921e-05
3.58718e-05
1.61012e-05
3.87542e-05
0.000115755
4.64078e-05
5.9222e-05
3.21157e-05
4.96495e-05
3.3081e-05
)
;
    }
    procBoundary2to0
    {
        type            processor;
        value           nonuniform List<scalar> 
42
(
0.00730985
0.00730985
0.000638167
0.000560732
0.00126283
0.00654454
0.000666845
0.000666845
0.00127666
0.00125282
0.00253515
0.00253515
0.00168353
0.003833
0.00525875
0.00522577
0.00702438
0.00110362
0.00131655
0.00155648
0.00105033
0.000990755
0.000990755
0.000946295
0.00105033
0.000678816
0.00203559
0.000622816
0.00203559
0.00760088
0.00751747
0.000775865
0.00090998
0.000888024
0.000773314
0.000560732
0.00702438
0.000265826
0.0036329
0.000658462
0.000658462
0.000693611
)
;
    }
    procBoundary2to1
    {
        type            processor;
        value           uniform 0.00184663;
    }
    procBoundary2to3
    {
        type            processor;
        value           nonuniform List<scalar> 
29
(
0.00111153
0.0010749
0.000294266
0.000270104
0.000948594
0.00046698
0.000291266
0.00093337
0.00198922
0.00172286
0.000735166
0.00108033
0.000428588
0.00174159
0.00157323
0.00115766
0.00199622
0.00199622
0.0010749
0.00174159
0.00182509
0.00180486
0.000216876
0.0020463
0.000900788
0.00121081
0.00198922
0.00155123
0.00108033
)
;
    }
}


// ************************************************************************* //
