/*--------------------------------*- C++ -*----------------------------------*\
| =========                 |                                                 |
| \\      /  F ield         | OpenFOAM: The Open Source CFD Toolbox           |
|  \\    /   O peration     | Version:  v1912                                 |
|   \\  /    A nd           | Website:  www.openfoam.com                      |
|    \\/     M anipulation  |                                                 |
\*---------------------------------------------------------------------------*/
FoamFile
{
    version     2.0;
    format      ascii;
    class       volScalarField;
    location    "0.5";
    object      k;
}
// * * * * * * * * * * * * * * * * * * * * * * * * * * * * * * * * * * * * * //

dimensions      [0 2 -2 0 0 0 0];


internalField   nonuniform List<scalar> 
5794
(
0.110482
0.0590275
0.224053
2.73886
2.81465
0.100215
0.545665
0.199927
1.50583
0.387254
0.888192
0.248094
0.53607
1.72825
0.1003
0.0536665
5.53503
1.95856
0.0907219
0.080102
1.08359
0.0862333
0.66985
0.106063
0.858295
1.87091
6.48555
1.30995
1.97809
0.0863359
0.393916
0.204833
0.747274
0.159906
0.890991
0.889068
0.196711
0.935284
1.01018
1.92569
1.58391
0.167034
0.27728
0.201661
0.110603
1.03194
0.503111
0.261351
0.269336
0.271883
0.0215659
1.37048
0.200411
0.3256
0.0207487
0.984461
0.344738
0.38615
0.222137
2.9117
0.955506
0.0591049
0.417775
0.339213
1.24973
0.0769466
1.47975
0.446033
1.90953
0.0837502
2.29706
1.63756
8.10387
0.237844
1.91657
0.611794
0.197896
1.50783
0.134401
0.0609764
0.117844
0.1001
1.21319
0.791483
0.584312
0.846824
0.679378
1.02385
0.10669
0.855936
2.41227
0.895933
1.49503
2.37295
1.06311
2.35593
1.84869
1.32741
0.828175
1.04834
0.928872
0.138917
0.251011
1.90242
0.451268
3.50641
0.0581399
0.664042
1.54909
0.0949783
0.245631
0.182708
0.971281
0.123412
0.929745
1.81057
0.0957693
2.58782
0.872492
0.495424
3.14634
0.0649336
0.327814
1.05205
0.162191
1.41868
1.55933
0.0829472
1.56852
0.681802
0.283761
0.663244
0.954161
1.37728
3.66768
0.105815
2.0346
0.0589342
0.0653437
0.288454
0.236341
1.32598
0.203369
1.40653
0.0960013
7.03184
1.26075
0.969271
2.80337
0.659437
0.311884
0.228639
3.60768
0.206186
7.39936
0.867522
0.869831
0.845818
1.30933
0.682587
0.0967397
0.317384
0.178147
0.617688
1.12173
1.21345
0.665865
0.212635
0.231978
0.130874
0.0518499
0.808282
0.45918
0.415708
0.122253
0.586338
0.0711044
0.527681
0.104526
1.26935
0.173235
0.181824
0.171387
0.890934
0.313724
3.9616
0.149959
0.444855
0.243457
0.115065
0.90203
0.182916
0.717882
0.236282
0.587057
0.180834
0.279086
0.171836
0.123633
0.275422
0.534402
1.19786
0.281361
0.324212
0.575023
1.04477
0.221401
1.12941
5.59203
0.975848
0.0708811
0.311763
1.14019
0.625189
0.144348
0.939465
0.82735
1.24205
1.06109
2.08197
0.305184
0.988003
3.61807
1.52813
2.04095
3.2746
0.122424
0.494384
1.11244
0.103633
0.426103
0.706915
0.187361
1.13699
1.21777
4.72299
6.09624
0.904255
0.468012
0.154553
0.0915312
2.18318
0.985804
1.01745
0.343405
0.248516
0.185771
2.95234
1.32857
0.914315
0.676949
0.085773
6.75277
0.0628929
0.21242
5.56559
0.266349
0.450926
0.816079
0.154733
1.56269
1.09218
0.495383
0.0792735
0.366063
0.400705
1.03753
1.68631
0.144162
1.28756
0.717217
0.653232
1.55108
1.98325
0.397699
0.0980304
0.304706
0.215709
0.279877
0.546561
0.251729
1.66659
1.5352
0.162421
1.45679
2.25468
1.3292
1.41547
2.72792
3.20523
0.612281
0.794726
0.160069
0.252102
0.203265
1.96325
1.01887
0.193917
1.18951
0.0753828
0.0853451
0.79118
0.0942347
1.31523
0.11752
1.58515
0.29361
1.72751
1.26592
0.800421
0.792012
1.10989
1.07047
0.112282
0.292685
0.59699
0.847328
1.57851
1.50824
2.27464
0.188158
0.52943
2.28742
3.17499
0.046374
0.75705
0.215775
0.198229
0.562482
0.820842
1.17485
0.279579
0.338272
0.602852
0.176711
0.272849
0.251008
0.202875
0.226666
0.329486
0.0962984
0.652891
1.38775
0.607155
0.0780307
0.152446
1.16772
0.218386
1.39465
1.11942
1.21413
2.53132
0.760205
0.176224
0.197493
2.88487
0.200703
1.24569
0.526995
0.217303
1.00309
0.92025
1.82256
0.858173
0.301367
1.9255
1.10132
0.919114
0.408897
0.272441
0.380268
0.0629901
1.80392
0.124863
1.26092
1.27014
0.819056
0.312478
0.579022
0.149166
0.344852
0.426637
0.323425
0.828721
0.851924
0.168336
2.5736
1.19782
0.359427
0.752834
0.204814
1.14604
0.0704128
0.302059
0.333994
0.337708
0.132547
0.34969
0.101123
0.714265
0.13367
0.808748
4.94989
0.2315
0.16151
1.14272
0.261815
0.123222
0.0775706
1.83919
1.35492
0.846887
1.21187
0.600777
1.12798
0.68239
0.530312
2.16199
1.06827
1.72285
0.807407
1.26088
0.934551
0.348161
0.60693
0.492004
0.145652
0.132686
0.0554283
0.127212
1.38922
0.224492
1.19152
1.4736
0.177005
0.0866521
0.34708
0.648792
0.682668
0.597498
0.165748
0.269791
0.445095
0.205203
0.258246
2.01542
0.99048
0.0413047
0.389756
1.45554
0.234241
0.0665743
1.55849
0.0968132
1.88833
0.0745798
1.89313
2.40139
1.39211
3.34612
0.0917506
0.0726976
0.319023
0.29241
1.15449
0.681374
4.04734
3.07459
0.981754
0.114404
0.0230068
6.09454
1.5306
1.09726
0.308784
1.735
5.56158
1.52832
0.137224
0.0716212
0.436757
0.091113
0.544449
1.09563
0.93879
1.10303
0.310342
0.250401
3.1051
0.113087
0.0858332
2.34524
2.12427
3.34613
0.248356
0.289105
0.0593399
0.332181
0.0483932
1.03356
4.67323
6.2051
0.267279
0.621012
1.29354
0.0720877
0.110816
0.662147
1.40504
0.0835811
2.32941
0.294212
0.394754
0.0570584
0.0855985
0.895819
1.6425
0.0351642
0.222433
5.1414
0.168637
0.0686162
3.1655
2.66094
0.737011
0.0938763
0.112344
1.01193
0.0807477
0.075865
0.441976
0.0863958
3.87597
0.306748
1.63407
0.246493
0.240534
2.36657
0.655749
1.30361
0.107325
1.73005
0.0588625
1.60655
0.196889
0.0467789
0.213988
1.43873
0.131974
0.0947171
1.85816
0.16319
0.0742737
0.106859
0.0947602
0.215248
0.397035
0.0714739
0.0840757
1.42825
11.5795
0.061241
1.46515
0.289599
1.58665
0.257415
0.0552935
0.634226
0.0544023
0.0727487
1.27957
0.894933
1.3673
1.17601
1.54143
0.290034
3.59806
1.35363
0.188943
1.327
1.97667
1.09491
2.95794
3.78717
1.67535
0.976443
0.134467
1.70551
1.00718
2.14164
0.0819031
0.0827267
0.059505
2.18122
1.14212
1.13446
0.117526
0.293739
0.0605573
0.316355
0.114265
1.43204
1.13312
2.31999
0.0863995
0.485705
2.25939
0.270945
0.0240603
0.269868
3.22953
5.01152
1.71127
0.222724
0.160539
0.287431
0.947248
0.580007
0.269393
1.61433
0.0451903
1.2435
1.64681
0.917933
0.0532366
0.0949576
0.121537
1.91071
2.23072
0.128602
0.150931
0.0807092
0.0336533
0.163309
0.0656933
0.660797
1.71718
0.488144
1.39232
1.32523
0.166136
0.295295
1.10308
1.06526
2.02409
2.52441
1.2775
0.740685
0.225239
0.0640504
0.0497816
0.106693
0.337088
0.186764
0.158212
1.59926
6.01503
1.45571
1.94047
0.122091
0.256354
0.450826
0.0925734
0.633272
0.0738076
1.40153
2.79315
2.33822
1.33387
1.18225
0.92715
0.288789
5.03227
0.650079
0.581184
1.19484
2.50426
0.255825
1.72892
0.13254
0.0587748
1.19952
0.328598
0.0508139
1.30486
2.10134
2.15138
0.284204
0.270641
0.0457721
1.30058
3.64381
1.60118
1.32703
0.230758
0.922812
1.1305
0.0717228
0.0580359
0.2903
0.240807
0.394619
0.0842095
0.472439
1.46302
2.33377
1.45132
0.870252
0.26868
2.90811
0.541676
3.69856
1.46502
1.48819
1.36962
0.374243
0.268007
7.61576
1.26995
1.52795
1.90608
2.03097
2.39233
0.234439
5.18256
0.227143
0.385873
0.507989
2.86228
0.644101
1.19051
1.1945
2.78555
0.835561
0.233667
0.505917
4.64554
0.72489
0.875961
1.44356
2.16006
0.0535208
0.0511789
0.341751
0.0826121
2.07454
1.38921
2.48277
0.199624
0.283468
0.0611567
0.102141
0.251507
0.072615
1.06516
2.14283
0.206241
2.53395
1.10778
0.269944
0.242749
6.65396
1.97505
1.38193
2.8299
2.41785
1.36872
1.40274
0.201968
1.57133
0.958651
2.0304
1.5492
0.321616
1.42379
0.0845243
0.0916824
0.121296
1.85618
0.109617
1.293
6.69652
0.25686
0.0938409
0.0767577
2.05226
1.21247
1.28514
2.1138
1.14373
0.0601776
2.22262
2.04111
0.513298
0.197653
1.30497
0.0669106
2.27372
0.108553
1.71288
0.302
0.924184
0.276309
0.116982
0.0633701
0.269992
1.26302
1.6376
1.67524
3.94865
1.404
0.218025
0.0971087
0.671343
3.72041
0.293139
0.757143
0.674829
2.51717
0.0836756
0.0890115
0.346926
0.925404
4.52607
0.131194
0.386694
0.303511
1.01563
0.410509
1.04126
1.82219
2.04146
0.283169
0.257926
2.78407
0.936037
0.113994
8.76676
0.113917
0.0546933
0.178963
0.0675274
0.981034
0.0960876
0.498928
0.11236
0.244052
0.223595
0.316683
6.0447
1.18226
2.44746
0.804507
1.15448
1.64713
1.13088
4.89384
1.25873
0.0778266
0.0712326
0.20552
1.37535
0.10742
1.46998
3.82188
1.59136
1.95403
0.815655
0.231331
2.12146
0.0777931
0.348899
1.35496
0.129748
2.87404
0.325269
0.403345
1.34888
0.411441
0.229576
0.160924
1.92818
0.671933
0.265136
0.0696023
0.348207
0.809994
1.72629
0.0750698
0.299615
1.01266
0.536895
1.31716
2.71931
1.89674
2.24005
2.52398
0.124338
0.0861254
1.29881
0.0803736
0.325885
0.0683347
0.155927
0.763628
0.0539919
0.254572
0.0941925
2.10311
1.20193
0.478874
0.273705
0.497835
0.965142
5.09786
0.864846
1.53355
0.234696
0.0921408
4.8098
0.372437
1.39086
0.259683
1.2261
0.920311
1.05196
0.0455249
1.50186
1.08751
0.139169
0.169073
0.247942
0.0865303
0.0576198
0.738385
1.48614
2.93448
1.63919
0.806518
1.22859
0.98778
0.339602
0.0802772
0.118355
2.20047
0.0718193
6.15163
1.23497
2.10151
0.246702
2.83896
1.20938
0.0697573
0.103297
5.86433
3.2274
0.305197
0.296331
0.475032
1.52565
0.278654
2.47577
0.0638502
0.207531
0.139394
0.0584438
0.0553151
0.145989
0.0594774
0.078002
0.0688722
0.0871667
0.264636
2.24942
0.21625
0.366673
0.0889109
1.25529
0.299719
0.569812
0.195219
0.723164
0.0758015
0.626159
0.199733
0.45195
0.094953
0.449115
1.47104
0.0824429
0.304414
0.168178
0.0690795
0.291904
1.33142
0.431739
4.75983
1.8147
0.0785192
0.318639
0.532507
1.02513
0.574638
1.0328
1.13001
2.26796
0.0953675
0.101552
0.0952644
0.0364983
0.428416
0.399778
1.79581
1.6181
1.33414
0.023342
0.60528
1.38458
1.00308
0.803651
1.01807
0.0584203
0.0895033
0.0688826
0.59263
0.303034
1.36361
0.20068
0.0438186
0.196857
0.205159
0.288175
0.289033
0.082863
0.129811
2.21306
0.817665
0.723439
0.0695442
0.274687
1.60409
0.0814902
0.853212
0.180391
0.373464
0.886254
0.083726
1.42683
0.0539013
0.311854
1.10522
0.0946089
2.74141
0.300844
0.0864199
0.130756
1.88523
0.0660327
1.57256
0.193039
0.167714
0.0694332
0.200134
0.140372
0.0819311
0.309386
0.0807574
0.149188
0.148495
0.551261
0.588023
1.58861
0.571839
0.275338
2.27673
1.15856
0.187096
0.0644988
1.93528
0.148064
1.56743
3.26511
0.239437
0.471533
0.0865937
4.09865
0.267017
1.59111
0.346046
3.13277
1.10959
0.0599633
0.662753
0.131605
0.0198313
0.43456
0.276805
0.618832
0.643195
0.0801044
0.676728
0.0362518
0.0680573
0.218608
0.0725529
0.121117
1.33914
0.201749
1.1264
0.0628709
1.25361
0.356723
0.1695
0.0668056
0.198916
2.01521
0.413116
0.202056
0.570285
0.247014
0.398097
4.42367
1.7425
0.0602158
0.120576
1.62662
0.818513
2.47606
0.236591
1.77063
1.9983
1.49723
0.523953
2.37039
0.271046
0.268298
0.35105
0.138419
0.332353
0.0815575
10.4581
0.693777
0.0860548
0.205487
1.66066
1.61732
0.269183
0.0612528
0.120076
0.87523
0.364777
0.0819688
2.389
0.267523
1.49873
0.19761
1.86539
0.124141
0.0633189
0.346867
0.219683
0.116699
0.598598
0.0663415
0.810743
0.0920526
3.85154
0.198472
0.290903
0.191602
0.503508
0.292706
0.392174
0.33269
0.195184
0.175764
0.386031
0.762133
0.301903
0.212576
0.0844974
0.140454
0.619251
1.74022
0.681308
0.158764
0.493704
0.248273
0.391234
0.262006
0.246515
0.323416
0.190147
0.32319
0.595477
0.0578884
2.27734
0.0615411
8.05432
0.0843298
0.183369
0.238484
0.112057
0.0676757
1.25209
0.483108
0.237006
0.055611
0.0932539
0.641835
1.88648
1.25448
0.360376
0.0697173
0.185173
0.507999
1.63992
1.13844
0.281481
0.281814
0.0492802
2.19446
0.305247
0.397449
1.52646
0.194599
0.286919
0.651641
1.30428
0.0743229
0.852339
2.70584
0.629601
0.312733
1.19651
0.647552
0.0585693
2.4625
6.62453
1.72551
1.2981
0.126527
0.068231
1.07462
0.304776
0.230687
0.0477657
0.337799
1.29675
0.11064
0.0850223
0.155118
0.0760634
0.0739953
0.228123
0.241492
0.897118
0.0815774
0.242805
1.39183
3.42651
2.35492
0.297042
0.89103
0.197794
2.38134
0.114117
1.91638
2.51345
1.24251
1.61486
0.276246
2.28277
1.29219
4.86807
0.263092
0.294244
0.400781
2.62314
0.0821774
0.210409
1.13871
0.45171
0.282904
1.27643
0.385627
0.301601
0.963914
0.0971341
0.042378
0.257659
0.315688
0.104075
0.221581
1.33288
0.294028
1.51346
1.29025
1.51167
0.0597926
3.2281
0.115869
0.997142
0.526111
0.482112
0.205551
0.0783034
0.89404
0.0680793
0.202842
0.058309
2.30173
0.211303
0.278195
1.0822
3.15665
0.388075
1.56929
4.22362
0.507073
0.278248
0.0399944
1.40724
0.145519
1.67051
2.75946
0.190656
0.0491171
0.421677
1.32102
0.610514
1.58878
1.07691
1.30019
1.11282
1.92711
0.0587457
0.164818
1.03967
0.256275
2.64661
0.318578
0.0596346
0.114265
0.531508
0.0574327
0.182837
0.207633
0.16332
0.37654
0.203814
0.29341
0.0781303
0.263747
0.312712
1.00781
0.915496
0.0759631
1.87507
1.35683
2.02769
0.436285
0.241139
0.915092
0.345488
0.0501692
0.0469692
0.218931
12.3296
0.323347
1.15221
0.86204
1.72163
1.8888
0.569376
0.202906
0.0203853
0.043595
0.097018
0.0319968
0.189431
0.1857
0.0498675
0.221944
0.018722
0.0469613
0.176194
0.0821524
0.0607626
0.0528834
0.0246924
0.178605
0.197838
0.0513883
0.133281
0.185233
0.0508476
0.0518146
0.0251898
0.0312083
0.194986
0.113148
0.0759309
0.0387907
0.0697722
0.127692
0.167065
0.0543565
0.0261404
0.0302993
0.0420327
0.0367995
0.189596
0.0478805
0.0137428
0.0869455
0.0474722
0.145816
0.184895
0.390207
0.658388
5.32155
0.0959587
0.145288
1.04734
2.27498
1.74871
0.436047
0.0819439
0.383374
0.44186
0.655821
2.38331
10.137
2.60187
2.4267
0.947832
0.18428
0.187521
0.0581337
0.128069
0.0677805
1.55134
0.107071
0.243022
0.427924
0.151662
0.967263
0.929586
0.257899
0.332006
0.864592
11.3015
0.278675
1.03151
0.256433
0.350891
1.75469
0.354892
1.06085
1.68608
0.907031
0.97028
0.40798
0.754008
0.365568
0.328057
0.362155
12.9525
0.220555
0.19522
0.0517594
1.86582
1.70813
0.0844247
1.63974
1.90181
0.0506661
0.03605
0.18548
0.185351
0.0758685
0.210548
0.0193891
0.0519512
0.0895239
0.0236491
0.158662
0.157115
0.0404724
0.21637
0.0859733
0.0723673
0.182128
0.0525475
0.048893
0.055191
0.0225744
0.212106
0.0379991
1.1901
1.39375
0.198656
0.48984
0.311567
0.362256
1.60625
0.0616408
1.4399
1.7011
1.55571
1.13428
1.69793
0.290383
0.064578
1.67046
0.993555
0.76526
6.13492
2.17563
1.07995
0.0410187
1.9859
0.747403
0.209587
2.08118
0.358743
1.45114
0.136003
0.179524
0.0538271
2.08824
0.145199
1.86204
2.33771
0.112585
2.97185
0.100557
2.90652
0.140981
0.0661282
0.12676
2.35318
0.11556
0.142428
0.155876
0.167364
2.86464
0.315618
1.81418
0.367627
0.245784
0.9968
5.18713
0.0496837
0.280075
0.305309
2.72125
1.12257
0.206223
0.0639148
0.365932
0.315454
1.91737
0.308051
0.19427
0.0364309
0.193859
0.370045
0.0693077
1.71205
0.442877
0.0174856
0.0659163
2.94002
2.5391
0.322236
1.98456
1.88857
0.0293846
1.87731
2.69357
1.78046
1.8479
0.842447
0.184436
2.23814
0.0770125
0.294346
0.261521
1.84096
0.252858
0.243209
0.426164
1.95921
0.490226
0.123828
0.074926
0.225118
0.665379
1.81884
1.82106
4.18156
1.54223
0.618865
1.23613
0.261125
0.810277
0.782955
0.891471
1.09743
2.10028
1.14854
1.79861
1.02428
3.02446
1.27777
0.289337
1.21678
0.947918
0.503042
0.655253
0.536547
3.72206
0.678181
0.263937
1.4021
0.410007
1.29259
0.232709
0.852593
6.77904
0.258714
1.62975
1.25174
0.0828081
0.0930867
0.229894
1.4593
0.131323
0.0679291
0.292025
2.17361
2.61304
3.24057
2.53196
2.73795
3.35378
2.98208
0.16449
2.73868
2.41818
3.40089
2.51095
2.24992
2.55063
2.41299
2.10673
2.30124
0.690349
0.695043
0.367287
4.6117
0.638555
0.221579
0.174017
0.479293
0.076719
0.0842856
0.556243
1.44891
0.154207
0.183122
0.212693
2.41628
1.56184
1.98003
1.12402
0.181849
0.313774
0.138259
0.433481
0.930038
0.40478
1.29769
0.327606
0.282636
0.155712
0.381177
0.130705
1.58778
0.151457
0.791732
0.154672
0.0553715
0.611699
0.268635
0.133237
0.272516
0.135626
0.109208
1.43433
0.101066
1.16569
0.504556
0.425717
1.19048
3.45533
0.113127
1.56736
0.953157
0.581389
3.4435
0.251509
0.0929945
3.35063
1.12638
1.79457
0.119562
0.523849
2.00506
3.50167
1.58005
0.0849822
0.0965406
0.103138
0.542391
0.522348
7.69652
0.104064
0.533775
0.630332
0.102937
0.491202
0.254116
0.450994
1.23785
1.38802
1.30015
7.25763
2.88251
0.108178
3.02176
0.11371
0.720935
1.33301
0.227204
1.99178
0.602712
6.97099
1.41863
0.719781
0.220794
2.18018
6.65681
0.136236
1.25921
1.67783
0.264058
1.21114
0.790255
0.178347
0.406089
1.90623
0.603617
1.75527
4.91794
4.47008
0.354213
1.23907
0.1323
1.23162
0.668939
0.170306
0.287625
2.01786
0.119425
0.340456
0.0640479
1.30295
0.555003
0.255052
0.572138
0.3032
0.58419
0.197384
0.280194
0.416957
0.394223
0.133775
0.286967
0.133818
0.15797
0.84042
0.801339
0.219124
1.07519
0.600515
0.55704
0.141402
0.121102
0.205945
0.408529
0.107376
0.853664
0.124571
0.29291
0.50713
1.84889
0.226638
0.315931
0.141812
0.98465
0.131328
0.120305
0.321641
0.135664
0.132973
0.13631
0.332312
0.729952
0.27942
4.93118
0.128034
0.404153
0.166399
0.136179
0.731575
0.745332
0.204593
0.177114
0.108386
0.137152
0.157549
0.1862
0.905393
0.896665
0.0541617
0.436597
0.117629
0.100863
0.188571
0.175602
0.759919
0.600818
0.613245
0.36084
0.131114
0.205939
0.0453481
0.707782
0.19436
0.248816
0.0649818
0.331992
0.117516
0.0986503
0.517767
0.257241
1.86963
0.322319
0.171242
0.238169
0.13925
0.12021
1.30786
1.25818
1.3658
0.385214
0.151538
0.231702
0.893932
0.143431
0.795774
0.0506072
0.315441
0.0759502
5.07431
0.647307
0.113063
1.40017
0.56925
0.292388
0.317178
0.115985
0.0705528
1.3927
1.1363
0.310493
1.07354
0.296011
0.26834
0.113918
0.080899
1.78542
0.487327
0.216168
1.43999
1.59111
0.884412
0.247985
0.181899
4.93082
0.342043
0.125502
0.54358
1.05408
0.243884
0.289274
1.20943
0.300945
0.618843
0.790199
0.300623
0.273782
0.105506
0.082988
0.864075
0.215122
0.155237
1.39729
1.51607
0.0481802
4.59624
4.43461
0.26489
0.230363
0.680796
0.231768
0.570545
0.903881
0.369273
0.287878
0.691568
0.616279
0.283563
1.26862
0.424282
1.65389
0.177805
0.722164
1.0476
0.255295
0.162025
0.350692
0.354355
1.57266
0.484716
0.347308
1.47947
0.128771
0.479275
0.399123
0.258321
0.763196
0.289432
0.242493
0.0879705
0.0938572
0.466046
1.84586
0.176467
1.4368
1.34429
1.24659
1.83036
1.0551
0.255342
0.195417
0.337188
0.0487265
4.45793
0.295625
0.746403
2.32135
0.206705
0.32618
3.7539
0.107581
0.115348
0.767031
1.3532
0.56212
0.976849
1.48164
1.90606
0.371187
1.38553
1.08261
0.674253
0.0904241
0.51188
0.28158
0.238113
0.208714
0.0695634
0.0891383
0.317097
0.221559
0.0674377
0.0808676
2.07411
2.30725
0.755967
0.0946501
3.56374
2.86225
0.709934
0.144756
1.43758
0.989614
0.244822
0.198804
0.0482529
4.04783
0.302719
0.196027
0.30429
3.35317
2.01524
1.15267
0.498123
3.13037
1.74595
0.916725
0.445281
0.701564
0.416279
0.32525
0.119583
0.137105
0.120261
0.11955
1.71103
1.38961
0.464096
0.130254
0.661738
2.13015
2.17836
3.30636
2.47191
0.875135
0.114704
1.31142
0.120339
0.127893
1.44799
2.88861
3.40808
3.92814
1.12133
0.596656
0.528798
0.279542
0.291816
0.363644
0.112317
0.216906
0.0596533
0.0855459
0.153358
0.130522
0.151207
1.3482
2.55246
0.38456
2.33284
0.185625
0.964674
0.127022
0.335705
0.954635
0.195122
0.85831
0.104452
0.335861
0.225253
2.85243
0.54446
0.315954
0.116489
1.54105
0.169436
0.0736691
0.331533
1.55556
1.57238
0.89718
0.233131
0.980746
1.30538
0.337294
0.268124
0.0614388
0.0470881
0.397315
0.390321
2.74098
0.445754
0.126958
0.0745143
1.26907
0.288916
0.559476
2.58837
0.216612
1.77542
0.115066
0.1235
0.197876
1.82097
1.73318
0.329624
0.126616
0.0809483
3.26073
2.56172
0.336729
0.403705
0.401391
0.191362
0.741895
0.515945
0.0979644
0.328822
0.244104
0.099188
0.406055
0.137841
0.424208
0.320602
0.145247
0.648016
0.151334
0.422681
0.561832
0.530435
0.137499
0.868831
0.765286
0.470661
0.818005
1.74413
0.1132
3.33107
0.265221
0.356748
1.01988
0.303251
3.88553
0.827595
1.51305
0.12705
2.38191
0.261493
1.24529
0.163229
0.0353837
2.38869
0.238528
1.12053
0.520521
0.799912
0.427638
0.21757
1.74105
0.629685
1.73702
0.969557
0.16344
0.79941
0.248033
0.0546521
0.0792638
1.5983
1.54182
1.00505
0.42965
0.0710528
3.41059
0.445662
1.91705
3.30491
1.86802
2.62936
1.75276
0.0498885
0.611989
0.536669
0.185716
2.06934
2.60627
0.245275
0.552689
0.938524
0.167714
1.68129
0.359263
0.940182
2.31377
1.82491
0.303175
0.239872
0.745441
2.14959
0.409608
0.664491
1.60642
2.75582
0.53546
0.244388
0.180535
1.96091
1.25243
0.80342
0.900878
1.49287
0.608074
0.193256
0.677167
0.392192
3.2855
0.796275
0.372859
0.111694
0.0604943
1.54205
1.63391
1.36431
2.52115
1.70445
3.83119
0.200803
0.972275
0.254696
2.50916
0.131461
1.81888
1.02469
0.166289
0.0705916
0.731006
0.180532
0.27439
2.9055
2.66273
2.76367
2.80952
3.75136
1.07901
0.250677
0.534976
3.33898
3.77244
0.670445
6.08442
0.204204
0.265466
0.512112
3.27202
1.15172
1.24265
1.25558
0.316124
0.475772
1.08343
0.982823
0.200991
0.551095
0.0727749
1.13205
0.0902825
2.64794
0.118884
1.22256
0.251851
1.11769
0.462481
1.98666
1.90071
1.35889
0.0693013
3.88043
0.136792
0.127668
0.279207
0.042123
0.109262
1.74623
1.59929
3.95688
0.588632
2.7168
3.88161
0.311336
1.1092
0.142842
0.348628
0.110818
0.0425227
2.14564
1.51557
0.117482
0.133127
1.94058
0.540811
0.421766
0.329784
0.280906
0.779897
0.223581
2.65348
0.264039
1.58699
0.294508
0.63498
0.359929
3.72362
0.2729
2.69657
1.67425
0.189466
0.42455
1.59453
0.212975
0.092499
3.91071
0.217297
0.205103
1.87781
0.309559
3.26891
0.233796
1.52048
2.57531
0.070695
0.714053
0.406038
2.44853
3.2948
0.154054
1.13688
1.14
1.62011
0.359653
0.289484
0.270007
0.385343
0.043714
0.07221
1.75929
1.40792
0.254272
0.138699
2.58803
0.320682
2.13532
2.41476
0.533757
0.20711
1.66322
3.18597
0.312263
0.0403501
0.0498361
1.92965
0.769457
2.09279
0.2341
0.177423
2.24243
3.22813
0.251629
1.28449
2.88028
1.95447
1.11994
1.87726
0.0491763
0.851338
0.388306
0.23163
0.0466564
0.0782796
1.05858
0.25468
0.459475
1.3103
0.394047
0.911279
0.456446
0.223091
0.980666
2.39977
0.246187
0.924745
0.21765
1.2238
1.88087
1.49429
0.268566
0.246162
0.0507777
0.0766852
1.2643
0.448856
1.24911
1.32788
0.437052
0.904218
4.34772
1.50272
2.0514
0.039202
2.49945
0.0480363
0.172989
0.938795
1.32907
0.878813
0.209022
0.17834
0.317502
1.56523
0.068613
0.159491
1.7563
3.84986
0.166
0.688651
0.265612
4.25489
5.51261
1.53951
0.395378
0.817915
1.14745
2.11461
0.545879
1.94134
0.207153
0.701537
0.677928
1.33887
0.194192
1.02089
0.118298
0.818091
0.0501282
0.604643
0.825875
0.22688
0.939362
0.0372871
0.205631
2.09884
0.969523
0.0706856
0.226886
1.76003
1.59681
1.50191
0.814949
0.105485
0.20009
0.0569031
0.066952
0.182965
0.459324
1.25898
0.0760109
0.729628
2.24732
0.0950264
0.482472
0.518456
0.3056
2.60034
0.201448
0.0477932
0.0637787
0.157262
0.867054
0.162008
0.473711
0.148417
0.699279
0.0877435
0.0907194
0.251758
0.72833
0.230115
1.22493
0.550894
0.199776
0.540951
0.25106
1.26811
0.183807
0.0474894
0.0509909
0.123495
0.228877
1.62845
0.452813
1.46011
1.906
0.939633
2.36065
0.201295
0.238608
0.280343
3.31115
0.676296
0.18131
0.235274
0.0461615
0.0711734
0.200743
0.103049
3.23379
2.04546
1.19325
0.051721
0.0633276
0.12355
0.0304192
0.516707
0.367158
2.49197
0.390673
1.85249
2.86102
0.0402513
0.171984
0.402076
3.72657
0.17707
2.29615
0.249231
1.41865
0.109515
0.247384
0.0951218
0.25826
0.921101
0.695118
0.754392
0.428846
0.497984
0.160109
0.110907
0.187635
0.463462
3.60276
2.15602
0.290964
1.78787
0.467659
0.664613
0.352363
1.58553
0.142254
1.65987
0.181898
1.49182
2.25225
3.74671
0.411428
0.108056
0.180058
0.0441973
0.0897384
0.3047
0.534389
0.194524
0.197686
2.40269
0.307988
0.108615
2.02128
0.256649
0.602692
1.23841
0.884117
1.61976
0.122897
0.221128
0.700516
0.256924
0.332192
0.174219
0.573774
1.10792
0.140354
0.244922
0.866533
0.449564
0.320435
0.100874
0.0906492
0.0782095
0.0772889
0.100367
0.0375822
0.152206
0.143254
0.282826
0.275565
0.0430914
0.0488847
1.80534
1.58859
0.359121
1.12309
0.139265
0.841989
0.214921
2.11024
1.56581
1.81118
5.81623
1.71702
1.95062
1.97766
3.44487
1.06943
0.0571214
0.0612361
0.149428
0.0649275
0.0648859
0.264397
1.74692
1.71899
0.0214367
0.0421347
0.168235
0.530929
0.335715
2.12665
0.230382
0.0389231
1.33884
0.330875
0.664128
0.656265
0.159422
0.173518
1.34017
0.466218
3.9994
0.0604262
0.446754
4.47395
1.16738
1.31707
1.92343
0.0256715
0.0552435
0.236614
0.108303
0.0769581
0.275827
0.0914672
0.409552
0.4517
0.389938
0.121771
0.12272
0.29477
2.14966
2.44149
0.0686082
0.431907
0.102178
0.408656
0.694785
0.182338
0.61245
1.6278
0.377741
1.25253
0.427615
1.66323
3.5067
3.15547
1.3323
0.838316
0.226048
0.340568
2.1846
0.474761
0.1198
0.0420106
3.80373
0.501784
3.08207
0.072155
0.211464
0.358897
1.68218
1.97513
0.0827715
0.112325
1.19615
0.214995
0.662139
0.21552
0.269446
0.735193
3.73106
0.123473
1.61039
0.200027
0.0510386
0.0672873
0.0311347
0.209683
0.0217101
1.91074
0.211307
1.53219
3.95414
0.81499
0.269138
5.65977
0.272631
0.206826
1.74832
0.392075
0.926859
6.05984
0.249974
3.91529
0.208295
0.051481
0.0731988
2.19053
0.189178
0.177996
0.103616
0.0850488
0.486511
0.865481
1.82058
0.636346
0.566744
0.462544
3.25696
1.09505
0.56591
1.04924
0.256519
0.362833
1.79249
0.981121
2.19923
0.52649
0.0812545
0.112213
0.226696
1.36046
0.262363
1.46766
0.642666
0.478323
0.221258
0.593599
1.2806
0.197568
0.0565395
0.217352
0.0844794
0.286794
1.12399
0.175013
0.682378
0.241907
0.662275
1.76613
3.80466
0.42133
2.22224
0.941071
0.0816921
0.229836
0.0722573
2.19027
0.0936714
0.42866
0.204954
0.190635
0.137906
2.12283
1.72066
0.214467
0.276425
0.489951
1.79549
0.135981
0.089611
0.167657
0.413585
2.26919
0.374788
0.443615
1.59169
1.54133
1.68193
0.299876
0.218127
1.99706
1.63668
0.960624
0.203374
0.432273
0.0494608
2.03725
0.0396637
0.427402
2.24758
1.23675
0.172799
1.24585
0.178302
0.467946
0.770343
0.0595808
0.478838
0.0950067
0.0305715
0.0351711
0.595463
1.93321
0.976766
0.375154
0.253998
0.0510651
0.158335
0.0685606
0.0223133
0.0311881
0.0532165
0.467603
1.87641
0.469517
0.740155
0.321364
1.62845
1.62649
0.592253
0.112559
0.0586523
0.190836
3.75493
1.99258
1.07548
0.11887
0.0453929
2.27333
0.386025
0.34455
1.01474
1.47875
0.035284
3.0989
1.19934
0.438758
0.195436
2.83127
2.78927
0.394872
1.23763
0.0378353
0.130016
1.60966
1.07895
0.0781211
0.0523587
0.345662
0.247061
0.0934337
2.66758
0.374288
0.238078
2.27184
1.25268
0.12237
1.78809
1.83223
0.313273
3.59452
0.0411361
0.581149
0.0589544
0.516901
1.28809
0.0831778
0.371059
1.65351
0.19114
1.33504
0.055718
0.154391
0.590928
1.97079
1.20838
2.37468
0.404707
2.3791
0.410236
0.455823
2.39882
0.209238
3.78878
0.457977
1.52223
0.413086
0.211108
2.52931
0.798722
1.80582
0.227825
0.0651459
0.0615754
1.39666
0.109807
0.190948
0.127485
0.47998
0.510638
0.0811624
0.0373368
0.125055
0.925305
3.73082
0.146089
0.0383017
0.350121
1.9723
0.523257
0.421662
0.167692
1.61872
1.14602
0.0623881
0.681845
3.19901
0.0193858
0.801092
1.18673
1.9896
0.788169
0.851552
0.891974
0.476325
0.16819
0.0810344
0.415511
0.0929186
0.196579
0.305549
3.53576
0.952897
1.05415
3.08493
1.32283
1.38119
0.163316
0.536732
0.949109
0.110714
1.66194
0.141744
1.47482
3.51422
2.32396
0.667361
1.8009
0.08636
0.89872
0.61376
1.03938
0.0311556
0.0576951
2.20415
0.494256
0.379123
2.00402
2.48701
0.450448
0.969618
1.08003
3.11101
4.43252
2.79745
0.263982
1.50805
0.0422473
0.238777
0.0610589
1.56739
1.33533
1.39134
0.128114
0.0549281
2.88895
0.0898797
0.0497914
0.441636
3.47641
0.568836
1.86731
3.79215
1.3233
0.11281
0.0847099
1.19534
0.967684
1.87464
1.93161
2.3801
0.644334
0.291516
3.90451
1.9459
0.0588643
0.0626628
0.190515
0.0656192
0.105102
0.253595
5.30985
0.646046
0.136242
1.78773
0.631765
0.213809
2.20506
1.83363
2.4089
0.48556
0.528724
0.12091
1.20219
0.77219
1.27951
3.27981
1.98484
1.01062
2.19218
3.05537
2.28614
0.190329
0.0608169
2.4156
2.50593
0.114172
0.845155
0.0371531
0.0550512
0.712167
1.11189
1.97046
1.45636
0.226474
2.2987
0.0475351
0.223767
0.0699273
0.171506
0.0433899
1.70067
1.84905
1.58172
0.380075
3.0997
0.0390521
0.121277
3.67672
1.54681
1.70166
0.752835
0.68029
3.94218
1.82464
0.121764
0.322645
0.779915
1.11574
0.192701
0.379573
0.886731
0.512038
0.583137
1.49287
2.62309
0.356317
1.47231
0.0200761
0.126381
1.25052
0.149707
0.362672
9.35575
0.309683
1.92891
1.74753
0.0667302
0.048761
0.0561761
0.226381
2.34475
1.67424
1.69748
0.195803
1.57329
0.229258
0.728342
0.658229
0.634631
0.225791
0.362766
0.201481
0.196068
0.0354145
0.0240422
0.12148
1.99453
1.73665
0.214924
0.573675
10.007
2.62906
2.05445
1.20482
0.0840173
0.942123
0.402434
0.161725
1.44015
2.92369
0.125652
0.105083
0.0674761
1.96245
1.2458
2.01213
0.255118
0.126452
1.0719
0.460705
0.0572046
0.136705
0.0299315
0.0951686
0.28087
2.09526
0.725776
0.23411
2.16715
1.36008
1.62823
2.14238
0.563363
2.19493
0.122594
1.69521
1.23199
1.43754
1.51417
0.0724623
0.0632303
1.45846
0.201295
0.980321
0.194906
1.32984
0.537553
0.526995
0.0573473
0.517874
0.0595234
0.528286
0.503128
0.508874
0.509331
0.594292
2.22124
1.02761
0.070656
1.86751
0.548121
0.0825467
0.295313
0.0845536
0.152089
0.161409
0.385445
1.32401
0.191339
0.30671
1.81169
0.0510049
0.676021
0.0697712
0.17948
3.8811
3.61381
0.196483
0.072025
0.0608317
0.236422
0.0219951
0.0521819
0.246712
0.0600312
0.0714887
0.234214
0.0747372
1.2694
0.2193
0.395635
0.569829
1.55066
0.610541
0.615638
0.214938
0.630197
1.60389
1.75584
0.93058
0.0509703
1.6754
2.17653
2.07587
0.945019
0.353791
0.0626222
0.0180985
0.102979
1.27994
2.62656
1.23817
0.194592
0.818747
0.271506
0.246381
0.410807
1.39057
2.247
0.120646
2.31371
0.0565897
0.264871
2.44094
1.23972
1.00945
0.505967
0.655823
1.52709
1.29946
1.33835
0.629754
0.169008
0.462629
0.437279
0.242997
0.310847
0.178968
1.26478
1.37721
1.76842
0.925735
1.52583
0.173778
0.12274
0.211205
1.91987
0.962458
0.684451
0.293238
3.22876
0.510585
0.531689
1.60151
0.28731
0.23735
0.653077
3.51817
3.2376
1.12894
1.92798
2.3917
1.57947
0.160542
0.178063
0.0267843
0.237429
0.199544
8.38429
3.25927
0.314707
2.35581
1.22237
0.495866
0.0483092
0.793287
0.119478
0.112458
0.048029
1.84893
0.527326
0.867771
1.55774
1.22404
0.0383113
0.0895599
0.0838434
0.14866
1.63969
1.29192
11.3589
0.514642
0.320665
0.0467409
0.312273
2.99058
1.44574
0.647197
1.54721
0.116892
0.344144
0.225314
0.120486
1.69121
4.56921
0.0756182
0.224059
0.0591411
0.28056
1.37758
0.279591
2.91392
0.265636
8.2659
0.874962
2.15423