/*--------------------------------*- C++ -*----------------------------------*\
| =========                 |                                                 |
| \\      /  F ield         | OpenFOAM: The Open Source CFD Toolbox           |
|  \\    /   O peration     | Version:  v1912                                 |
|   \\  /    A nd           | Website:  www.openfoam.com                      |
|    \\/     M anipulation  |                                                 |
\*---------------------------------------------------------------------------*/
FoamFile
{
    version     2.0;
    format      ascii;
    class       volScalarField;
    location    "0.82";
    object      epsilon;
}
// * * * * * * * * * * * * * * * * * * * * * * * * * * * * * * * * * * * * * //

dimensions      [0 2 -3 0 0 0 0];


internalField   nonuniform List<scalar> 
1431
(
113.935
34.337
1.5253
0.496168
5.49319
37.5995
0.712592
353.619
52.0545
0.661774
113.595
265.957
48.3817
13.2467
21.2419
0.598703
25.099
12.3509
22.5625
17.4093
241.647
16.243
54.1205
301.072
55.7677
30.6447
74.0837
11.3557
70.0477
29.9601
23.9796
37.2278
21.6096
8.01452
45.0692
4.32256
87.5617
0.560494
0.278525
29.945
81.6299
82.8869
41.6565
0.42589
55.873
5.3085
26.1519
60.9358
0.730915
0.413017
35.4098
0.386433
41.8539
300.961
21.7328
27.5132
6.39646
294.169
42.6067
11.4167
13.6522
0.44398
0.70694
0.480035
0.304495
0.804903
5.77504
1.1955
3.41865
23.0714
302.587
10.8585
0.477567
7.03519
16.7169
7.85416
2.43478
0.978333
0.757163
8.43764
30.4066
4.20758
137.648
31.8678
157.537
0.565491
0.670887
22.2248
179.023
194.801
31.3977
6.79104
1.70924
0.496777
19.2735
32.9298
305.275
107.997
0.440849
16.5914
36.467
0.418435
30.0867
6.86341
3.48383
35.4263
49.0458
118.881
45.1048
34.0219
7.20754
55.3236
9.18829
84.1739
31.3534
6.34035
14.6532
0.563503
0.940825
0.56552
29.825
32.3769
377.831
19.8356
242.19
0.577804
1.27838
12.2254
2.03108
2.30481
29.8088
17.9582
1.92279
23.8897
29.0827
0.801394
2.93277
0.588631
158.959
1.65624
0.601447
19.1045
41.0123
5.33282
60.7198
21.5836
1.15312
39.3728
0.554224
6.19911
0.690206
4.22157
32.5201
1.02756
41.6491
1.81874
150.987
62.3106
175.808
0.567783
178.708
56.1303
0.384103
0.521052
249.73
100.422
91.677
28.5773
0.411341
73.8329
178.011
45.6989
25.4664
162.814
46.9787
149.89
1.15163
43.7384
40.9311
46.021
0.970945
0.516841
26.7385
464.379
40.4747
97.8262
136.997
62.77
24.8388
180.668
18.9752
28.0266
28.7777
156.966
0.830259
76.3665
106.728
37.137
2.72004
68.9656
29.2876
0.355974
79.2752
1.03265
50.0633
20.721
40.9264
3.08808
190.382
35.5044
182.268
0.454024
45.6702
37.0467
174.874
28.591
32.0618
37.5532
27.9147
68.7313
42.0986
25.6798
70.2647
0.373456
44.897
246.481
103.099
89.7236
43.0937
41.8017
300.155
22.9471
32.9822
27.3517
38.5389
174.786
41.7203
35.9576
18.5686
19.3619
1.05027
40.5301
213.013
28.1085
26.4931
39.2632
32.2064
82.6859
44.487
0.570614
8.42818
150.62
0.476687
0.33377
19.6591
69.1273
0.399065
297.268
152.861
30.952
43.0037
157.206
27.2077
0.886066
49.9548
90.8612
55.6811
242.842
57.2348
6.74084
47.9763
37.6313
25.038
11.199
172.946
25.3988
164.781
37.3726
52.2417
61.1265
50.8628
79.3546
21.5157
28.43
8.46059
128.258
73.173
129.485
173.55
36.4415
2.71769
56.9409
91.0635
46.9116
28.2536
45.3193
172.074
112.896
25.1706
59.8756
43.1863
18.7602
17.6383
39.6377
45.1305
0.345102
48.4072
30.1274
83.1193
58.5742
88.4469
0.763592
0.490966
97.9027
50.1092
101.752
38.7126
14.2706
1.61838
749.491
47.6466
90.0797
8.99597
42.4161
37.2963
4.32886
12.9569
59.0447
292.939
0.330701
84.4907
2.64157
57.0755
19.6821
0.769286
39.3404
58.0363
164.77
37.4149
97.8259
7.81514
40.1323
74.4545
78.5669
48.8629
24.3501
28.5791
159.821
71.8091
46.231
40.1077
3.37492
41.9548
52.4001
5.06874
23.6134
174.161
129.713
142.956
76.8193
18.6785
79.6326
70.7893
11.0809
2.12833
145.931
56.7599
571.254
46.5204
18.5779
102.984
6.36667
190.189
36.7061
72.81
351.39
57.1873
13.2662
19.7815
428.27
62.5319
37.5107
22.6428
6.78955
752.304
43.5454
44.2359
49.4728
33.8142
37.672
2.19928
47.4216
48.0264
0.318242
169.388
42.8185
61.1677
62.7869
61.1759
39.4172
56.6483
67.6378
128.074
65.444
16.5864
58.199
38.9368
20.089
4.26459
57.5038
65.7738
38.4839
56.9304
44.5169
47.0059
6.55257
44.7405
27.9512
37.5115
56.4822
54.7972
49.4494
28.388
48.1021
56.1991
8.29628
8.62938
31.3241
6.0118
239.662
64.3152
68.3975
73.635
74.0429
75.2855
71.3621
67.454
73.4743
68.4202
72.3476
7.20711
156.511
3.87505
2.36349
3.97999
2.12847
1.63841
1.54267
30.6155
16.4879
16.8185
0.576237
0.677776
6.10941
0.70056
0.657119
20.2851
258.142
8.21511
2.49607
17.7754
0.51932
247.277
0.605756
2.46586
0.752126
5.47939
240.63
0.770436
233.181
0.483517
0.434242
5.49398
28.3573
159.979
147.41
0.99995
1.40983
1.9035
0.441353
25.9598
2.58199
164.847
2.12114
6.65989
26.7895
4.89755
4.69363
1.75579
6.36904
180.322
0.766889
1.9872
8.50798
29.919
4.53342
4.16725
187.681
3.15059
28.7414
34.3524
16.8144
22.7968
54.4371
182.724
152.463
4.0864
8.02201
8.40351
11.6255
9.6806
36.7606
2.99862
3.85517
62.7554
0.339327
30.4621
12.8445
43.4367
161.044
43.9626
14.2134
29.5014
0.312959
19.7671
0.353117
177.749
29.5906
8.56334
16.6929
34.8014
29.3097
31.5146
86.4906
69.8505
6.95063
20.9134
160.127
21.3216
14.5508
57.6376
62.0254
88.3591
22.582
50.7444
19.7874
31.8156
143.019
59.5218
73.7703
41.9858
54.2855
63.544
52.9235
0.59552
80.5958
0.396459
36.4411
144.099
328.966
75.4247
164.189
107.004
42.7182
554.279
45.3051
23.2758
0.430797
38.4308
61.2413
54.7634
91.1861
66.4099
15.5574
75.5993
33.7818
0.32812
153.856
56.4819
62.1221
55.2348
66.1636
53.2717
44.131
49.2579
36.1778
25.1325
27.1627
105.557
17.9341
45.1815
245.643
35.1012
34.4103
48.4683
64.4715
26.7561
43.7139
78.5411
174.344
169.069
30.3359
54.321
27.0158
43.4434
37.311
100.491
57.9241
1.78244
2.06146
0.332388
39.6635
48.3972
56.3946
66.7177
59.0228
208.952
0.66132
25.8169
45.2869
43.8312
40.1405
60.6266
50.118
41.0887
42.076
66.6118
7.0162
57.1378
20.3143
41.9596
35.9285
0.399718
64.5028
54.4946
40.6257
306.401
5.49446
70.1001
27.2922
64.0271
121.162
1.10506
54.0903
186.913
37.4675
36.4705
35.5232
229.976
46.6776
35.3609
77.3877
127.878
47.1598
3.6145
35.4837
52.3716
47.6215
13.2835
174.233
177.773
63.6192
37.2723
46.7502
39.2019
49.7959
18.7752
10.6781
39.2068
4.52488
55.6765
40.6306
276.075
70.8656
31.1233
28.8529
284.756
21.1645
46.9288
15.4223
22.6126
22.3108
44.9096
280.471
0.500208
3.38137
47.146
57.6569
6.62898
52.7022
96.0081
44.2056
83.8818
33.1256
11.3358
77.9349
248.539
45.5178
6.28276
100.549
152.705
41.3156
55.7618
19.8979
146.942
299.54
106.928
198.854
36.0243
44.7383
60.5724
24.7651
30.2669
46.4931
10.6537
91.6342
41.311
65.513
4.29434
71.0012
91.7814
21.9611
147.954
51.4044
23.2141
40.8139
66.746
43.8096
112.154
163.554
0.59414
87.8257
28.0813
2.96849
131.643
41.1789
78.7827
301.765
289.354
0.460793
36.9292
53.0388
7.84975
51.1399
54.2377
37.3747
28.9709
6.44169
63.2656
0.555675
24.3089
23.045
12.2289
0.518434
376.599
59.1114
58.1429
5.82183
41.6358
43.4249
368.105
140.393
43.1358
0.684949
4.14998
51.6078
0.528777
0.633816
54.6923
15.5516
40.5553
34.3205
56.3437
71.0533
62.8529
35.5974
2.3168
40.7446
58.3318
27.2305
42.6799
4.87949
51.4196
0.804534
78.7611
163.102
39.2109
41.1347
26.4231
39.2719
75.7283
12.0577
39.7719
61.8579
34.7162
3.72759
0.501106
31.6884
0.397091
48.6833
30.7877
22.6133
9.50278
56.4014
56.297
709.288
33.3148
41.4247
43.478
40.6578
510.244
1.31214
29.3701
161.732
70.7779
275.845
42.8802
6.80336
82.7455
63.0889
2.17909
80.2851
48.9795
66.5946
111.594
38.3133
62.7041
18.5831
6.58233
1.29603
75.3684
345.849
313.882
28.04
40.7718
284.921
45.5397
82.7846
56.532
22.5101
51.2144
4.73264
2.6019
40.1274
51.4894
179.052
7.63895
326.174
37.8148
155.307
47.0452
18.5304
31.2711
22.7229
4.44632
0.78447
3.97492
51.8977
2.20868
1.64339
22.9177
43.2508
50.8773
32.8638
55.8143
51.2265
53.6215
0.479022
155.747
49.584
67.5663
576.774
60.4005
100.153
32.7434
9.5746
0.808458
113.734
46.271
84.4337
237.884
0.609126
77.7062
190.943
494.03
292.643
371.347
62.0018
55.1935
60.3136
68.3218
64.4871
68.9573
52.2124
40.9079
37.8838
40.0051
39.9432
50.9152
76.1101
36.3212
38.1819
42.2067
33.5842
51.6391
51.0515
32.3858
50.2073
48.6898
32.2023
46.2151
49.3642
135.927
0.435437
15.9069
37.5525
15.1505
12.6964
222.586
47.1432
18.6641
13.8412
31.3267
12.4097
312.286
26.8651
2.19393
150.845
47.812
56.5613
21.5221
0.838298
304.334
5.09128
43.3828
42.1
40.5914
4.27682
14.3227
141.047
35.336
27.4703
49.1243
60.3997
42.8867
44.7919
165.054
1.00664
0.361909
7.13584
0.389559
51.2655
68.9205
29.6928
21.9949
40.947
14.6
25.3333
10.2618
20.5694
53.8365
154.118
59.0475
45.1257
83.2095
6.22202
29.5211
0.726143
42.8214
7.98404
0.869701
45.0288
28.5261
356.419
2.10628
26.5093
8.50343
39.3622
0.644482
817.446
55.2774
35.2617
2.04012
325.478
56.7299
148.777
0.569554
0.825732
0.536715
5.49831
5.14912
53.981
31.4689
375.289
199.78
42.8188
56.0189
0.375086
39.2517
20.4023
49.7284
26.9077
17.0077
51.7654
58.5021
49.0131
87.7741
82.6106
0.560241
0.660285
23.6067
56.6687
58.2439
7.77604
47.6755
40.9159
41.4797
15.6314
45.3337
41.0911
169.426
420.786
0.812623
71.3177
31.3048
0.630792
59.2322
318.58
29.7557
44.3641
22.0811
172.675
148.51
1.20441
13.3077
40.4413
44.0711
385.502
166.082
73.9916
41.79
0.63047
126.565
0.391512
59.9646
30.8665
379.403
86.4705
292.879
170.676
58.808
15.304
49.6623
0.750515
4.93526
0.396865
0.61608
0.350277
47.3647
81.9776
39.8885
35.3929
75.0537
176.331
0.564859
2.69838
61.0225
392.409
50.2668
374.053
86.258
61.7574
419.215
41.7395
432.156
434.222
451.273
345.633
350.41
328.865
453.802
296.805
0.699106
0.463323
0.643723
0.671374
0.740014
0.707972
50.1061
35.7946
76.4075
47.9313
60.842
30.6582
0.319651
42.6026
0.505394
0.738077
47.9177
0.482015
32.6009
18.6782
1.18703
18.0488
4.48448
73.8155
56.5724
44.1601
44.6497
35.5751
6.84263
42.1924
648.925
34.0938
9.96345
25.4555
54.8517
5.01898
28.5763
159.073
4.68978
54.192
0.389295
9.29276
0.44396
33.3838
25.032
7.8818
0.38536
27.0284
6.75421
2.14848
70.5235
81.0493
11.7818
18.2963
33.7327
172.676
0.497445
163.449
235.831
7.21129
186.088
32.3214
14.2643
41.9996
162.048
0.436454
48.7238
58.8955
110.32
72.2193
32.6898
41.8026
5.74215
0.47112
68.5884
33.7424
52.5072
149.78
196.464
196.634
107.309
23.8387
34.0001
56.7354
0.87008
5.56367
1.90003
27.0003
7.66706
221.635
55.2289
5.00125
154.623
45.5155
14.2114
70.3374
9.34584
51.3844
149.615
52.1548
46.6804
0.455179
58.2171
58.9652
187.867
77.7068
357.417
0.375026
7.29222
26.7344
286.888
158.632
101.225
64.6508
53.9616
0.332663
316.24
5.00803
39.1041
25.2556
24.4567
9.76113
67.3261
0.344681
50.3725
40.6693
183.559
9.94734
61.5444
37.4446
19.2206
0.331033
5.26822
1.58141
115.248
25.6489
66.7427
150.267
51.6266
52.4193
44.7432
26.1955
0.361714
24.3267
13.8499
44.0568
411.074
42.6744
641.045
41.0427
7.02175
41.7561
170.476
40.3091
0.619226
19.6157
37.9696
106.533
38.0409
76.887
119.581
58.7618
12.1849
35.1633
10.8893
0.366897
41.1228
213.228
63.3748
229.85
46.0008
30.1703
40.4079
47.852
26.6665
11.9609
24.5247
12.1352
0.351971
41.6278
424.333
42.2055
44.2501
0.70459
3.16934
23.8026
40.9275
24.9058
423.311
62.2445
78.8376
141.121
8.12852
46.5014
49.3397
51.3951
144.258
51.4694
71.0274
34.1272
54.5719
15.3479
74.1172
23.3857
38.7521
316.611
47.5063
6.60822
28.7697
58.7082
85.5727
22.7159
47.8919
10.9977
281.688
25.626
2.24949
0.416228
540.354
38.519
63.852
0.968976
2.64275
246.347
11.7182
280.795
0.881389
0.633727
2.64332
405.447
0.388121
377.848
187.943
9.68508
54.1354
175.338
281.517
83.2516
332.828
4.162
7.88533
28.2731
51.2044
4.65654
168.015
0.5307
56.284
455.778
355.892
31.589
29.0433
0.470698
173.142
0.725458
36.3708
20.694
275.875
0.802314
1.78615
12.7906
93.6148
57.0972
40.4849
4.4553
0.345244
0.834025
202.354
349.505
0.675645
40.4515
5.17991
1.13205
29.0175
34.1545
12.084
48.3418
0.346636
26.7839
25.166
36.2355
197.815
35.4167
0.448576
46.0275
26.101
0.33297
0.621823
51.0179
15.762
0.497316
19.9297
23.2401
32.7035
0.406957
0.524082
199.422
177.863
68.813
25.4003
0.432592
1.93134
0.876017
42.7659
1.06071
1.34266
3.66837
4.7018
5.86897
0.353932
175.13
48.2361
19.2824
56.8538
61.4644
161.894
42.391
0.344993
8.80262
91.0863
53.1888
197.041
8.07749
17.777
28.0315
52.3976
4.8805
28.5554
8.26198
15.0109
1.66483
166.591
230.622
61.8929
100.768
10.3337
80.0732
31.8132
51.874
103.462
11.1744
17.383
46.7558
134.679
4.2061
0.410371
60.6285
52.0365
26.1941
7.96465
)
;

boundaryField
{
    frontAndBack
    {
        type            empty;
    }
    wallOuter
    {
        lowReCorrection 0;
        type            epsilonWallFunction;
        value           nonuniform List<scalar> 
96
(
70.0477
29.9601
32.9298
276.075
284.756
280.471
52.7022
33.1256
11.3358
248.539
6.28276
152.705
19.8979
299.54
198.854
301.765
289.354
36.9292
2.3168
78.7611
3.72759
111.594
38.3133
345.849
313.882
62.0018
55.1935
60.3136
68.3218
64.4871
68.9573
52.2124
40.9079
37.8838
40.0051
39.9432
50.9152
76.1101
36.3212
38.1819
42.2067
33.5842
51.6391
51.0515
32.3858
50.2073
48.6898
32.2023
46.2151
43.3828
68.9205
29.6928
42.8214
0.869701
356.419
42.8188
87.7741
71.3177
31.3048
29.7557
385.502
0.63047
0.391512
379.403
392.409
374.053
419.215
41.7395
432.156
434.222
451.273
345.633
350.41
328.865
453.802
296.805
0.699106
0.463323
0.643723
0.671374
0.740014
0.707972
30.6582
1.18703
33.3838
32.6898
357.417
1.58141
411.074
423.311
71.0274
34.1272
0.388121
332.828
455.778
0.470698
)
;
    }
    inlet
    {
        type            fixedValue;
        value           nonuniform 0();
    }
    outlet
    {
        type            zeroGradient;
    }
    wallInner
    {
        lowReCorrection 0;
        type            epsilonWallFunction;
        value           nonuniform List<scalar> 
126
(
42.6067
11.4167
13.6522
0.44398
0.70694
0.480035
0.304495
0.804903
5.77504
1.1955
3.41865
23.0714
302.587
10.8585
0.477567
7.03519
16.7169
7.85416
2.43478
0.978333
0.757163
8.43764
30.4066
4.20758
16.5914
6.34035
14.6532
0.563503
0.940825
0.56552
29.825
32.3769
377.831
19.8356
242.19
0.577804
1.27838
29.8088
17.9582
1.65624
0.601447
41.0123
5.33282
1.15312
6.19911
4.22157
1.02756
249.73
0.970945
97.8262
136.997
0.830259
182.268
6.74084
52.2417
61.1265
2.71769
172.074
112.896
59.8756
18.7602
0.763592
0.490966
97.9027
4.32886
12.9569
84.4907
97.8259
7.81514
129.713
79.6326
70.7893
20.089
27.9512
54.4371
62.7554
16.6929
160.127
62.0254
143.019
54.2855
144.099
75.5993
153.856
105.557
245.643
169.069
60.6266
0.399718
186.913
127.878
146.942
106.928
43.4249
100.153
113.734
53.8365
196.464
31.589
29.0433
91.0863
53.1888
8.07749
28.0315
52.3976
4.8805
8.26198
1.66483
166.591
230.622
61.8929
100.768
10.3337
31.8132
51.874
103.462
11.1744
17.383
46.7558
134.679
4.2061
0.410371
60.6285
52.0365
26.1941
7.96465
)
;
    }
    procBoundary3to1
    {
        type            processor;
        value           nonuniform List<scalar> 
48
(
89.4593
90.0007
83.1164
88.8614
57.5009
98.6873
90.0007
14.2656
69.1159
4.17675
4.17675
4.63481
4.63481
2.29637
2.09387
4.39135
4.49658
4.63292
4.49658
3.13301
1.54883
2.0575
3.13301
49.0544
3.28414
2.64915
3.61681
2.0575
4.84993
14.606
14.606
9.17177
9.17177
69.1159
2.25321
56.4908
23.4818
3.28414
87.3019
48.4424
2.29637
37.936
51.7567
3.13301
2.17932
69.4405
53.941
1.67672
)
;
    }
    procBoundary3to2
    {
        type            processor;
        value           nonuniform List<scalar> 
29
(
0.917382
0.917382
0.830842
0.978079
9.48796
2.22771
0.492154
1.22386
0.85754
0.897928
1.70075
6.58021
0.964963
0.343485
0.336228
0.351101
0.725363
0.745456
0.965403
0.341211
0.334405
0.725363
0.747557
0.745456
0.38439
0.692644
0.745456
3.08872
3.08872
)
;
    }
}


// ************************************************************************* //
