/*--------------------------------*- C++ -*----------------------------------*\
| =========                 |                                                 |
| \\      /  F ield         | OpenFOAM: The Open Source CFD Toolbox           |
|  \\    /   O peration     | Version:  v1912                                 |
|   \\  /    A nd           | Website:  www.openfoam.com                      |
|    \\/     M anipulation  |                                                 |
\*---------------------------------------------------------------------------*/
FoamFile
{
    version     2.0;
    format      ascii;
    class       volScalarField;
    location    "0.57";
    object      k;
}
// * * * * * * * * * * * * * * * * * * * * * * * * * * * * * * * * * * * * * //

dimensions      [0 2 -2 0 0 0 0];


internalField   nonuniform List<scalar> 
1466
(
0.0645026
0.104687
0.0402158
0.0564362
0.0923279
0.681457
0.191067
0.12445
0.341382
0.286948
0.0376481
0.220156
0.017408
0.0599286
0.0677962
0.0673096
0.0355274
0.0814468
0.117966
0.0543401
0.105732
0.145924
0.0594745
0.0973984
0.0597459
0.0663143
0.0869828
0.162778
0.083681
0.107768
0.120328
0.643826
0.119381
0.206113
0.0929764
0.0760411
0.0543947
0.0585329
0.931973
0.0909914
0.230961
0.225995
0.322112
0.156902
0.262374
0.427235
0.0599662
0.0694309
0.24607
0.09349
0.0386825
0.191966
0.0739953
0.608412
0.0658358
0.273459
0.0530592
0.101388
0.113334
0.314736
0.0644406
0.138275
0.096662
0.618405
0.110933
0.0736878
0.244421
0.115053
0.055903
0.140551
0.0406345
0.0560195
0.0588541
0.0554613
0.0210453
0.409444
0.0572959
0.0721467
0.123178
0.258716
0.0350745
0.0544091
0.0772841
0.260145
0.0586555
0.0710143
0.0457301
0.154018
0.065002
0.104584
0.0581884
0.0702889
0.231538
0.0529931
0.0408712
0.103846
0.12332
0.114673
0.126893
0.0645011
0.138102
0.198347
0.0426302
0.0548502
0.0676239
0.440065
0.114673
0.0760538
0.107796
0.0545139
0.105317
0.0636082
0.0811575
0.063242
0.0203665
1.15342
0.0429913
0.052366
0.113339
0.116913
0.107612
0.0829321
0.0341703
0.181915
0.0667802
0.408792
0.0510303
0.0518299
0.321009
0.122781
0.266691
0.0612468
0.0571764
0.225852
0.0442582
0.215413
0.210931
0.0390317
0.304119
0.0584579
0.187116
0.0701056
0.400441
0.178679
0.287141
0.0610323
0.0596358
0.0610192
0.192654
0.0614916
0.423607
0.0662716
0.0967382
0.12855
0.0591914
0.0547865
0.0606087
0.362532
0.158603
0.06079
0.193665
0.0763621
0.0747471
0.106671
0.208737
0.194046
0.136768
0.0478846
0.0658747
0.0949061
0.0874211
0.0653448
0.0553424
0.191679
0.081233
0.14553
0.231742
0.322198
0.0584687
0.268864
0.0748932
0.0746141
0.329999
0.0669315
0.170608
0.0511874
0.0852069
1.19504
0.0828539
0.0447497
0.0966657
0.0578006
0.0776858
0.101882
0.0663114
0.0613841
0.338514
0.0549791
0.0507587
0.0514028
0.151913
0.0643249
0.0725202
0.066066
0.0689775
0.294735
0.0814576
0.346243
0.0642776
0.0743501
0.0674168
0.204953
0.0627911
0.0658296
0.120566
0.085585
0.0364206
0.0214203
0.0551839
0.0527731
0.0966264
0.089184
0.0632003
0.0640425
0.182643
0.0668149
0.0496049
0.0813006
0.074879
0.177093
0.0492142
0.138677
0.0577555
0.155572
0.0748468
0.0684016
0.171827
0.132669
0.211144
0.0627649
0.240152
0.256102
0.0689442
0.198799
0.25305
0.0530826
0.0221441
0.0680741
0.0266099
0.0601186
0.0561755
0.266976
0.309197
0.165307
0.06265
0.275089
0.0515901
0.137491
1.27739
0.36576
0.0649302
0.0709522
0.327161
0.0588544
0.777874
0.0690328
0.481997
0.106926
0.0662572
0.0536997
0.234177
0.0778968
0.0515209
0.0528594
0.0681724
0.146252
0.137972
0.0769224
0.0586225
0.274047
0.0608046
0.0422547
0.0647036
0.0470315
0.0810511
0.0557812
0.109578
0.0663043
0.127926
0.0580078
0.0665154
0.623062
0.132122
0.352341
0.368557
0.0655648
1.13225
1.27473
0.0706318
0.0387409
0.0891775
0.281738
0.0459094
0.160198
0.0630482
0.058071
0.0511353
0.219524
0.0318392
1.43276
0.18658
0.0443057
0.0684045
0.190071
0.30158
0.061772
0.0888209
0.0616966
0.363958
0.0613038
0.0630185
0.197025
0.382494
0.0482255
0.0421518
0.034538
0.0258021
0.0459381
0.0153436
0.0321682
0.0521063
0.048026
0.0192017
0.0350443
0.0447006
0.046756
0.0338897
0.035385
0.048094
0.0244633
0.061755
0.0517152
0.0193616
0.0330946
0.0406016
0.0153529
0.0594318
0.0477011
0.101812
0.129084
0.35572
0.0613324
0.329397
0.170066
0.186386
0.0615814
0.121677
0.0698254
1.22769
0.0700068
0.120022
0.220788
0.190245
0.0363742
0.0777668
0.0442908
0.0308601
0.0145559
0.0504753
0.063431
0.0160535
0.0432846
0.057337
0.0467944
0.0325919
0.0479724
0.0271425
0.700287
0.0584081
0.0458112
0.0394028
0.172436
0.24333
0.0471891
0.150919
0.0914766
0.0756298
0.0726463
0.158889
0.197508
0.284498
0.18637
0.149503
0.6649
0.0390701
0.0534077
0.162307
0.0413796
0.0631133
0.023164
0.0419315
0.0265337
0.151089
0.0640657
0.31632
0.0893695
0.21849
1.21985
0.0835097
0.0861039
0.0757645
0.14914
0.0549108
0.106719
0.225654
0.377131
0.239542
0.140482
0.262616
0.322208
0.152461
0.0610503
0.182787
0.194143
0.209312
0.236014
0.139525
0.168145
0.21782
0.23979
0.0978219
0.0693032
0.287943
0.349551
0.997016
0.442042
0.172913
0.135023
0.104025
0.113325
0.137259
0.199783
0.286479
0.125482
0.122422
0.139083
0.124566
0.132813
0.947838
0.119927
1.1662
0.169054
0.0992749
0.205549
0.143663
0.0786702
0.152984
0.16611
0.0458719
0.112435
0.118381
0.273796
0.230609
0.130496
0.248555
0.0704407
0.358391
0.0753684
0.0975955
0.0418205
0.292513
0.133016
0.11451
0.0935705
0.644172
0.130657
0.0414909
0.0391912
0.133257
0.646172
0.0982542
0.0844805
0.565211
0.0893344
0.145078
0.0910151
0.0858455
0.0374827
0.499551
0.411172
0.168957
0.0882823
0.0921151
0.0392831
0.147913
0.151509
0.561234
0.126438
0.0845327
0.104109
0.0710557
0.0798694
0.10561
0.132718
0.042388
0.165949
0.398448
0.121545
0.122302
0.132529
0.115696
0.199352
0.113535
0.111781
0.0885584
0.117325
0.0730498
0.078421
0.167959
0.142932
0.185381
0.323301
0.141935
0.803788
0.621661
0.192138
0.187001
0.111668
0.0563802
0.0434038
0.0852683
0.16905
0.114129
0.114178
0.107094
0.117629
0.21922
0.216399
0.0804449
0.12797
0.156156
0.206725
0.142203
0.175217
0.118576
0.0788651
0.033271
0.591459
0.253135
0.0557549
0.0781427
0.0653576
0.251867
0.292285
0.175951
0.167386
0.0873665
0.062989
0.248712
0.116721
0.0814504
0.216692
0.209622
0.711053
0.360694
0.369949
0.0633747
0.073811
0.112994
0.799362
0.0609883
0.109975
0.116286
0.238751
0.0408359
0.130559
0.165479
0.0434827
0.112731
0.123054
0.353226
0.0717725
0.223941
0.163015
0.0589651
1.36651
0.291659
0.0624569
0.903463
0.163197
0.0428199
0.0565668
0.327845
0.039807
0.0543934
0.0725205
0.201347
0.450725
0.46646
0.159355
0.993313
0.0469458
0.0747681
0.0362345
0.0522566
0.279729
0.234224
0.0785583
0.21121
1.0867
0.360615
0.710724
0.135339
1.22257
0.0393264
0.0462405
0.417656
0.0661683
0.096587
0.0512359
0.0610456
0.0702357
0.102967
0.417627
0.0606322
0.142032
0.132765
0.0717977
0.0836738
0.464327
0.301051
0.91298
0.0414904
0.0354034
0.194718
0.404286
0.192117
0.296094
0.0452209
0.0703698
0.0931416
0.101093
0.0551607
0.0967372
0.0311996
0.229534
0.0365004
0.143737
0.820942
0.096289
0.075083
0.7775
0.431038
0.142386
0.118563
0.31258
0.238156
0.177123
0.0933847
0.0393206
0.0684423
0.367842
0.22212
0.135963
0.174008
0.339133
0.212337
0.152872
0.553857
0.44213
0.087618
0.0716395
0.0866595
0.0353364
0.0407284
0.0515802
0.15689
0.388994
0.0618478
0.237687
0.0598205
0.0631499
0.0174853
0.036807
0.199282
0.0323121
0.269968
0.0757168
0.0273044
0.0874461
0.0637529
0.0808516
0.0897763
0.221865
0.35018
0.0584645
0.301854
0.0796145
0.41288
0.383182
0.113254
0.0372307
0.38045
0.107478
0.403955
0.0928469
0.295736
0.602289
0.114477
0.0464643
0.0671144
0.0214047
0.287434
0.0449928
0.0674366
0.0695713
0.337977
0.995773
0.0712188
0.0913946
0.173284
0.235883
0.0713817
0.298103
0.300119
0.0656808
0.181759
0.0656211
0.0994396
0.222817
0.158677
0.0912221
0.315813
0.0489119
0.0414775
0.223397
0.0538965
0.0347325
0.046413
1.08516
0.0359326
0.0577435
0.0202403
0.0240848
0.0450991
0.0730925
0.0453643
0.039675
0.0664339
0.250574
0.036483
0.0509972
0.0457408
0.473085
0.202681
0.132494
1.33276
0.151459
0.0405814
0.0508839
0.055772
0.0460692
0.466349
0.0761249
0.0740026
0.134581
0.257877
0.0535398
0.0368098
0.0363926
0.206425
0.934738
0.0693685
0.0153728
0.475229
0.193029
0.0622374
0.27527
0.0727644
0.145555
0.798504
0.102692
0.0252666
0.0449754
0.47418
0.251804
0.0518421
0.0983912
0.0566066
0.0476892
0.0707193
0.0609531
0.0606738
0.06425
0.116349
0.133209
1.21747
0.0801299
0.194696
0.0288804
0.0472333
0.166125
0.0577881
0.040574
0.0389381
0.0223906
0.132613
0.0583334
0.0498736
0.310848
1.06326
0.0264816
0.102174
0.13339
0.0638127
0.199948
0.0579672
0.0303091
0.118706
0.185442
0.784199
0.0628634
0.237802
0.354463
0.0482687
0.0489577
0.0857834
0.0635184
0.0648508
0.0381159
0.0623986
0.362146
0.0577754
0.0223187
0.0501185
0.0576724
0.405039
0.48435
0.0468807
0.0907885
0.0221148
0.0746621
0.294568
0.128283
0.0738627
0.287644
0.301653
0.270973
0.195906
0.31287
0.12118
0.385118
0.167743
0.148135
0.0274616
0.0413428
0.193557
0.0471373
0.0369772
0.0575489
0.263057
0.0616543
0.542804
0.134826
0.0637157
0.0510707
0.0588003
0.0883343
0.206439
0.0461666
0.067325
0.0643671
0.130598
0.188842
0.0343005
0.0632695
0.0568097
0.114518
1.06865
0.180032
0.0601138
0.0387765
0.0574374
0.0793368
0.0614964
0.0342616
0.119154
0.386708
0.217474
0.119394
0.308381
0.0636053
0.0393058
0.0671857
0.066651
1.04944
0.0585073
0.0693399
0.101414
0.113431
0.096694
0.0890853
0.231845
0.099128
0.211788
0.0382629
0.0686668
0.0716559
0.246073
0.0406238
0.0781417
0.0311607
0.202078
0.0482029
0.389069
0.0231783
0.256792
0.0656023
0.115105
0.0724085
0.131754
0.0615582
0.116573
0.338673
0.162772
0.0633203
0.108837
0.10585
0.359214
0.0865569
0.0580615
0.138689
0.220631
0.150367
0.017658
0.625904
0.0793009
0.261997
0.0856888
0.0209615
0.0213868
0.0198416
0.0202969
0.0568673
0.0515597
0.0598034
0.0593476
0.0215078
0.0610298
0.0640395
0.0213987
0.0223232
0.0233689
0.100719
0.0237494
0.0238985
0.251351
0.0279331
0.218674
0.0390622
0.0656545
0.650255
0.241818
0.0824458
0.0592382
0.0187458
0.151912
0.053676
0.0383035
0.0888063
0.0589143
0.175957
0.0305772
0.0376276
0.168242
0.0576055
0.0713754
0.0557867
0.0657758
0.0734849
0.15169
0.136541
1.18607
0.187259
0.106461
0.0385194
0.242251
0.0905077
0.0635152
0.116474
0.109679
0.172549
0.0604814
0.0650299
0.112907
0.0388222
0.0391968
1.20225
0.121735
0.791753
0.0621274
0.0635572
0.208528
0.100832
0.228551
0.0666286
0.0693186
0.59409
0.0795038
0.0580691
0.10237
0.05336
0.0402986
0.444008
0.103633
0.263164
0.0757082
0.0642819
0.129673
0.212062
0.0610444
0.0523513
0.481562
0.202113
0.218965
0.197677
0.174178
0.162224
0.0860936
0.73685
0.0944392
0.0364116
0.20247
0.0483934
0.0414384
0.267131
0.864579
0.0109187
0.194835
0.12385
1.24389
0.0136331
0.0658501
0.0908033
0.156791
0.191885
0.130984
0.0199011
0.242398
0.077322
0.0751201
0.035422
0.0386569
0.172582
0.05946
0.286256
0.525834
0.0430515
0.075787
0.211731
0.937901
0.0603126
0.0402949
0.0214474
0.07334
0.0887267
0.0583523
1.20599
0.144274
0.228423
0.112106
0.0723103
0.0721283
0.0899046
1.26088
0.0844042
0.208213
0.176641
0.0392241
0.047339
0.123961
0.0508156
0.0477337
0.11413
0.0394202
0.246427
1.11839
0.270127
0.0353214
0.0728935
0.0939522
0.219723
0.0710085
0.80332
0.0647377
0.0337815
0.0539103
0.0747999
0.218957
0.0768665
0.0375132
0.0518586
0.07366
0.118661
0.0721821
0.0303037
0.0192505
0.0486546
0.136261
0.0562348
0.0797311
0.189239
0.0662715
0.0846417
0.100021
0.0501593
0.0610836
0.0739217
0.0649125
0.164188
0.0340594
0.0320551
0.214186
0.0525509
0.0450684
0.0445511
0.0567565
0.0414341
0.13225
0.0931276
0.0398
0.0578207
0.0668495
0.23883
0.0426353
0.0552583
0.289724
0.0477106
0.844077
0.0497004
0.0547606
0.115259
0.192807
0.0710656
0.0793118
0.148903
0.0178945
0.0936862
0.234821
0.0430453
0.0681439
0.043443
0.052963
0.0636505
0.0496613
0.155542
0.052782
0.0410244
0.105392
0.0452483
0.0363824
0.135463
0.406003
0.0979497
0.233649
0.0562769
0.063239
0.066018
0.039325
0.031814
0.0440042
0.068077
0.49201
0.042171
0.0521166
0.127263
0.647456
0.109392
0.062443
0.10952
0.0469327
0.168276
0.0810959
0.0627716
0.0496849
0.0356664
0.109232
0.100491
0.135569
0.115377
0.088791
0.0789712
0.0768022
0.0490101
0.0604678
1.35408
0.136366
0.147834
0.0341396
0.294612
0.0919763
0.0622506
0.533095
0.0621552
0.0628043
0.117764
0.0550404
1.15033
0.0523727
0.99265
0.144296
0.0784365
0.0380666
0.0821008
1.00403
0.069325
0.198992
0.236054
0.206595
0.07383
0.0950891
0.114561
0.111585
0.102502
0.0363723
0.0542474
0.0460959
1.35742
0.135533
0.0646387
0.061963
0.0875858
0.0332072
0.0651412
0.0479816
0.258395
0.0367775
0.255314
0.0553997
0.0364032
0.154354
0.0557211
0.532966
1.10397
0.173212
1.27541
0.0696866
0.088939
0.0389326
0.109507
0.129572
1.24447
0.216474
0.448643
0.187601
0.0786942
0.0672614
0.233543
0.219746
0.0425007
0.0916932
0.0988597
0.0712383
0.160895
0.218911
0.0709125
0.074081
0.135618
0.0469278
0.0186694
0.0609876
0.149627
0.310791
0.0211767
1.44856
0.156332
0.234881
0.111023
0.058052
0.0630323
0.0391892
0.120366
0.254453
1.24018
0.0588159
0.0543068
0.206973
0.191081
0.0745247
0.0702788
0.213238
1.44436
0.155245
0.0384008
0.247122
0.184047
0.217736
0.0185892
0.266312
0.0831184
0.126821
0.507572
0.0108712
0.0831354
0.0460774
0.227662
0.0836296
0.443783
0.0118689
0.172486
0.221624
0.0930613
0.0884897
0.0510868
0.0774546
0.243026
0.0435701
0.114184
0.0600384
0.341834
0.059673
0.0773622
0.236266
0.0717764
0.235138
0.205656
0.0375609
0.194026
0.150142
0.276988
0.0904284
0.471427
0.0604566
0.0818211
0.261237
0.0595997
0.295663
0.0643491
0.0675515
0.0563613
0.109475
0.0927426
0.041561
0.0667873
0.0861607
0.0468151
0.13051
0.0468556
0.060514
0.0594069
0.209988
0.0626924
0.224252
0.0650524
0.076723
0.0886549
0.20037
0.119399
0.0416976
0.18633
0.0584217
0.0862315
0.0519714
0.0391352
0.0270406
0.0898446
0.0428542
0.337359
0.707342
0.0178604
0.0624816
0.0796495
0.0728232
0.0938897
0.042605
0.0638695
0.0497148
0.184263
0.0640458
0.055067
0.0542039
0.0534158
0.111985
0.0670729
0.268799
0.0693074
0.0696656
0.156271
0.105377
0.112194
0.0623759
0.13608
0.046227
0.0916926
0.0611992
0.0158088
0.0655167
0.0907796
0.218249
0.046409
0.28525
0.375159
0.63063
0.0648048
0.0892257
0.211556
0.0401291
0.0845969
0.0738442
0.113603
0.06822
0.0593116
0.104688
0.0625486
0.102313
0.0774745
0.074763
0.191141
1.39238
0.135347
0.675035
0.0642863
0.103672
0.062532
0.0613115
0.252382
0.344643
0.06867
0.0640826
0.0725203
0.10193
0.0714906
0.0672552
0.0623773
0.080301
0.0783844
0.163445
0.0532523
0.083097
0.12517
0.116622
0.312584
0.0550294
0.210977
0.213542
0.0385023
0.0692539
0.114584
0.0655955
0.0824881
0.26032
0.0267953
0.230375
0.281088
0.364578
0.0578253
0.158859
0.311348
0.0367372
0.902568
0.226854
0.388128
0.0866523
0.192011
0.108592
0.18578
)
;

boundaryField
{
    frontAndBack
    {
        type            empty;
    }
    wallOuter
    {
        type            kqRWallFunction;
        value           nonuniform List<scalar> 
102
(
0.017408
0.017408
0.0594745
0.0210453
0.0203665
0.0318392
0.0390701
0.0174853
0.0489119
0.0414775
0.0538965
0.0347325
0.0577435
0.0202403
0.0240848
0.0450991
0.0453643
0.0509972
0.055772
0.0535398
0.0153728
0.0252666
0.0449754
0.0288804
0.0472333
0.0482687
0.0489577
0.0274616
0.0575489
0.0482029
0.0231783
0.0209615
0.0213868
0.0198416
0.0202969
0.0568673
0.0515597
0.0598034
0.0593476
0.0215078
0.0610298
0.0640395
0.0213987
0.0223232
0.0233689
0.0237494
0.0238985
0.0390622
0.0656545
0.0589143
0.0305772
0.0576055
0.0657758
0.0604814
0.0650299
0.0391968
0.0621274
0.0635572
0.05336
0.0402986
0.0483934
0.0109187
0.0136331
0.0199011
0.05946
0.0214474
0.0723103
0.0508156
0.0477337
0.0337815
0.0375132
0.0518586
0.0192505
0.0486546
0.0562348
0.0501593
0.0340594
0.0450684
0.13225
0.0477106
0.0547606
0.0178945
0.0496613
0.052782
0.0979497
0.0440042
0.0521166
0.0496849
0.0490101
0.0460959
0.0469278
0.0186694
0.0185892
0.0108712
0.0118689
0.0510868
0.0595997
0.041561
0.0468151
0.0178604
0.042605
0.0497148
)
;
    }
    inlet
    {
        type            fixedValue;
        value           nonuniform 0();
    }
    outlet
    {
        type            zeroGradient;
    }
    wallInner
    {
        type            kqRWallFunction;
        value           nonuniform List<scalar> 
138
(
0.0376481
0.0355274
0.083681
0.107768
0.191966
0.0739953
0.608412
0.0658358
0.138275
0.0702889
0.138102
0.0548502
0.0341703
0.187116
0.0701056
0.0610323
0.0596358
0.0478846
0.0447497
0.0966657
0.0578006
0.0214203
0.0689442
0.0530826
0.0221441
0.0680741
0.0266099
0.0601186
0.777874
0.0422547
0.0647036
0.0663043
0.0482255
0.0421518
0.034538
0.0258021
0.0459381
0.0153436
0.0321682
0.0521063
0.048026
0.0192017
0.0350443
0.0447006
0.046756
0.0338897
0.035385
0.048094
0.0244633
0.061755
0.0517152
0.0193616
0.0330946
0.0406016
0.0153529
0.0594318
0.0477011
0.0698254
0.0363742
0.0777668
0.0442908
0.0308601
0.0145559
0.0504753
0.063431
0.0160535
0.0432846
0.057337
0.0467944
0.0325919
0.0479724
0.0271425
0.0458112
0.023164
0.0419315
0.0549108
0.106719
0.0610503
0.997016
0.137259
0.0458719
0.0704407
0.0418205
0.0414909
0.0391912
0.147913
0.0845327
0.104109
0.10561
0.803788
0.621661
0.0563802
0.033271
0.165479
0.0428199
0.0565668
0.102967
0.0354034
0.135963
0.0407284
0.0515802
0.0273044
0.0214047
0.046413
0.0359326
0.0693685
0.0476892
0.0223906
0.0264816
0.0303091
0.0223187
0.0907885
0.0221148
0.0471373
0.0643671
0.0382629
0.017658
0.0279331
0.0187458
0.0580691
0.481562
0.202113
0.0414384
0.047339
0.0647377
0.0320551
0.0430453
0.043443
0.063239
0.0469327
0.07383
0.0845969
0.902568
0.226854
0.0866523
0.192011
0.108592
0.18578
)
;
    }
    procBoundary2to0
    {
        type            processor;
        value           nonuniform List<scalar> 
42
(
1.545
1.545
0.0799256
0.064501
0.1684
1.34872
0.0952266
0.0952266
0.128275
0.107863
0.398756
0.398756
0.255332
0.514328
0.67354
1.10851
0.975359
0.10533
0.113359
0.655229
0.541316
0.0978988
0.0978988
0.50481
0.541316
0.0936814
0.590389
0.0754063
0.590389
1.5415
1.23677
0.0542064
0.0463717
0.0515824
0.064381
0.064501
0.975359
0.0475783
0.831549
0.10571
0.10571
0.0819768
)
;
    }
    procBoundary2to1
    {
        type            processor;
        value           uniform 0.764525;
    }
    procBoundary2to3
    {
        type            processor;
        value           nonuniform List<scalar> 
29
(
0.115219
0.122993
0.0573199
0.0532806
0.546374
0.0679101
0.215189
0.114012
0.105723
0.0854219
0.0962081
0.577428
0.107487
0.461384
0.423895
0.424126
0.105303
0.105303
0.122993
0.461384
0.457866
0.0996845
0.172345
0.10041
0.341785
0.0743253
0.105723
0.686521
0.577428
)
;
    }
}


// ************************************************************************* //
