/*--------------------------------*- C++ -*----------------------------------*\
| =========                 |                                                 |
| \\      /  F ield         | OpenFOAM: The Open Source CFD Toolbox           |
|  \\    /   O peration     | Version:  v1912                                 |
|   \\  /    A nd           | Website:  www.openfoam.com                      |
|    \\/     M anipulation  |                                                 |
\*---------------------------------------------------------------------------*/
FoamFile
{
    version     2.0;
    format      ascii;
    class       volScalarField;
    location    "0.35";
    object      epsilon;
}
// * * * * * * * * * * * * * * * * * * * * * * * * * * * * * * * * * * * * * //

dimensions      [0 2 -3 0 0 0 0];


internalField   nonuniform List<scalar> 
5794
(
3.41041
2.55585
4.32733
135.721
44.2029
3.40784
12.9358
24.3982
107.195
12.5122
36.0071
1.98223
9.40793
4.12271
4.3851
0.676016
74.9792
40.3977
4.16325
1.4658
78.6145
3.45219
40.609
17.6321
15.8362
75.7379
53.6849
34.1288
94.9228
1.31783
8.4285
4.70865
26.9315
14.4895
31.7234
36.767
4.40587
1.23408
54.186
22.8585
19.8689
3.98845
9.22576
4.09353
3.80654
43.8271
4.05166
12.6018
6.75005
21.8488
0.291069
66.3808
9.26513
4.36028
0.208795
41.3607
4.69813
18.4096
5.53306
161.417
57.363
1.17118
5.78099
5.2061
30.9562
0.934571
39.9794
18.8914
18.823
1.98215
84.9226
58.2022
86.8194
2.9058
36.4704
33.83
37.9726
49.5379
3.92635
0.470417
1.62377
2.69551
13.0564
33.4174
7.50758
75.6888
33.5842
110.197
6.24859
46.1713
121.519
30.2316
67.2235
114.511
41.0494
74.2089
91.0403
56.0856
29.2756
63.2712
53.231
2.37184
7.08393
13.1252
37.1856
58.7177
0.823913
11.3995
48.3479
3.97616
1.46792
16.154
62.7691
0.86307
33.8663
86.107
2.98393
86.3474
52.0788
21.6481
76.7636
9.00506
5.7849
33.7566
5.46878
49.017
2.63817
3.0445
77.1689
12.6329
4.18958
9.01059
2.03414
40.6242
76.8963
4.91473
119.257
1.20289
0.271324
7.47329
15.3973
25.6972
7.43885
23.6574
0.617567
104.539
70.8971
43.7467
27.5299
59.0679
12.2637
4.29066
64.1548
1.32586
83.0881
6.15157
40.6143
3.51328
77.0695
2.74773
8.87695
24.8592
5.90399
13.8229
68.241
87.5299
9.16101
13.5431
1.95902
27.1805
2.27572
33.1483
20.7275
42.337
4.72784
36.4504
4.69795
17.8572
27.9393
93.035
3.43492
10.9487
8.99881
61.8065
5.48514
57.7547
3.31184
18.1581
10.2087
1.85324
45.295
6.36373
35.3489
9.37488
11.7357
2.94172
22.8004
47.0056
4.11531
6.66749
22.0563
72.7578
9.80956
7.46196
4.75368
52.1551
13.2443
24.096
22.1927
53.9068
4.12971
10.142
24.1689
21.9467
18.5916
18.2901
27.259
2.12824
29.9722
79.0008
9.70315
41.0342
171.978
62.4888
136.545
34.3893
3.86124
15.3727
4.66666
4.17783
27.2252
36.3298
8.18631
37.1212
1.14696
23.3873
24.737
29.1503
10.3981
1.5473
2.97365
64.1709
44.0474
9.33622
1.65513
2.15941
3.53533
15.4812
164.483
90.8304
34.3047
0.804408
88.9771
0.454336
4.87383
38.7243
6.62925
16.3966
21.2803
7.60638
71.0461
20.219
17.499
1.25727
17.7378
20.1909
39.9545
71.3278
11.0262
53.5083
4.70628
9.39555
13.8625
82.4808
16.1294
4.0289
4.44184
5.96787
0.997823
10.2598
47.4693
88.6607
20.5306
3.99015
31.6795
94.7005
36.5239
58.4186
147.281
81.8043
30.763
31.6858
11.9481
5.63068
4.75958
82.6891
42.217
3.92776
45.7698
0.869056
3.3907
55.3368
1.51233
53.6282
2.90144
75.0668
0.571611
11.383
61.3063
5.18169
6.36951
46.1466
60.8152
0.864063
9.85895
34.8781
15.0592
34.9637
50.7405
131.302
15.9572
9.96685
99.9086
31.9769
0.317521
24.1595
3.83857
1.94323
9.86563
33.8342
83.7191
8.49322
6.16555
26.6553
4.74608
12.3589
16.8207
3.89741
8.2864
10.4814
20.2561
17.7625
91.1455
53.9031
4.98441
8.03121
94.0663
14.5866
102.224
1.14925
76.7213
113.626
46.7287
8.56009
9.67
34.0824
4.11476
87.248
15.581
22.9886
18.8203
0.99123
92.6468
13.4287
20.8922
6.53495
76.1866
53.406
4.99808
18.6619
4.80449
1.69004
9.54733
0.218876
24.7467
55.5525
40.3848
9.22048
30.875
0.0905685
6.52068
3.86073
12.546
29.1003
29.4704
13.8028
101.797
17.046
15.8076
7.38812
10.3944
70.1223
1.7864
29.9116
14.1741
47.4998
3.97102
3.28151
6.66571
32.3316
23.8046
16.4092
25.095
1.46049
22.5396
38.9299
13.488
3.56209
0.882689
88.9847
54.0466
26.6444
33.9054
30.9196
69.4216
6.31517
7.68043
9.16217
59.2311
90.0611
29.6144
55.1589
17.2632
5.37557
24.5059
37.3741
7.69904
0.825988
2.24838
2.27195
65.3721
5.78199
31.3213
95.4855
3.63724
4.36156
8.73094
24.5837
17.0798
28.1675
7.59868
8.14026
6.27626
3.74967
6.16865
95.2764
36.4662
0.238586
4.77665
67.4313
18.91
1.54966
121.98
3.50828
72.3279
1.56197
83.043
83.9057
48.8038
170.474
2.8149
1.14806
21.8888
5.58452
70.1663
12.2411
25.3897
33.7627
17.5721
3.52606
0.372287
24.5611
52.5578
8.86215
11.4284
97.7334
31.9796
33.9442
1.77667
1.3265
32.5798
2.54801
5.69106
5.08616
17.431
33.2333
10.0527
6.4422
79.7006
2.17362
2.0073
129.201
114.743
18.6337
19.6016
3.78188
2.11117
4.108
0.465843
33.9472
37.6575
29.4381
8.60788
13.0834
25.5946
1.14298
1.20617
27.4203
40.8083
0.83896
70.902
0.350277
6.53004
0.954977
0.650597
30.1039
75.6284
0.763995
5.51698
26.3055
1.78427
0.699813
43.6593
82.034
11.8419
3.63945
2.02543
47.4594
1.0707
4.41021
25.3003
0.662417
24.5352
3.05941
7.01094
8.32491
6.63088
149.193
11.2005
57.0086
2.49435
117.957
1.92504
2.917
3.95003
0.294928
5.46957
21.6683
0.729009
3.0472
13.9242
0.313178
5.61555
2.44221
3.95953
15.0609
21.7595
4.41
1.05012
46.8481
171.894
1.10782
54.0185
5.48295
2.97774
2.84494
0.873959
14.1107
2.18618
0.877748
78.6284
30.3834
123.459
110.79
110.021
8.8623
40.5774
43.1006
3.9474
40.3624
83.4158
28.4063
112.582
26.7329
100.86
49.0823
0.764715
64.2449
21.8994
100.514
0.825132
3.52975
1.30131
94.4003
32.426
38.1127
0.0810177
9.34935
0.538278
12.5069
2.79923
89.4519
34.201
105.898
1.05796
8.30722
104.821
15.1858
0.250417
6.15151
25.7369
38.0997
7.7005
11.5916
3.10807
4.51345
30.3453
31.7823
7.24688
76.8996
1.08617
40.3183
60.8095
16.3793
1.02631
3.88081
0.267231
46.8087
85.5584
0.694013
2.24843
2.34033
0.666864
1.37633
0.706672
5.55347
46.8309
26.5431
4.17612
34.143
2.78519
8.02688
28.9462
22.9741
121.042
130.546
48.2483
47.4149
0.790064
0.890362
1.73536
1.95053
2.29719
4.59174
3.15155
75.8209
37.8092
45.2685
35.7351
3.52193
0.153748
6.29245
3.01163
50.3823
1.53016
54.8052
149.324
97.0988
38.3535
51.8893
30.9346
3.07622
34.9004
26.386
30.3427
38.2444
117.895
6.07633
7.6433
1.59152
1.94913
31.831
5.17267
0.348282
40.0066
132.487
137.249
4.02103
1.57715
0.451395
9.39757
184.885
40.1979
47.8374
5.38293
43.7251
20.9716
2.15647
0.666933
9.86147
6.48302
9.94056
0.737599
16.706
48.4971
154.054
6.5252
5.27771
1.41
126.75
18.7434
194.013
52.4495
89.8581
42.7872
16.2856
8.73745
63.4154
44.2484
45.202
47.2145
64.2655
149.166
2.60965
38.617
3.19722
13.183
28.3956
103.511
38.1183
47.2888
31.278
136.523
25.2349
5.56771
5.72697
34.6331
11.378
29.728
62.5715
106.303
1.34089
0.748445
7.67189
3.42083
87.2353
32.9817
140.883
16.0215
9.01767
1.72152
1.8593
4.55052
1.29311
32.2368
96.5166
5.06627
120.568
42.4033
7.89996
3.22098
31.6198
80.5024
50.4234
148.848
96.5775
37.791
58.7096
3.28892
59.6059
22.5218
95.9798
49.7862
1.52231
13.7863
1.588
3.33272
1.97342
18.7761
2.77043
26.0324
47.936
16.7001
3.55136
0.947328
84.4748
30.677
25.1321
88.9634
30.1899
0.23361
87.4155
66.831
24.3952
8.93924
34.501
1.81135
179.134
2.65171
50.8536
9.53081
16.1628
4.12081
0.356054
1.87906
5.90575
25.1765
52.2086
79.1899
201.671
50.7589
8.40956
2.67233
30.9769
158.863
3.37115
0.787132
14.4666
77.7642
0.963708
3.71174
19.3735
43.4576
24.9471
0.736421
17.4992
4.73765
8.33586
4.88742
22.0796
68.8325
92.366
9.36055
3.71679
63.6884
7.90659
5.06429
88.5886
2.31276
4.41314
10.114
0.827323
21.3959
1.21869
25.1079
0.518053
17.5305
5.77689
10.7572
35.2758
36.9579
114.377
42.0922
42.9988
68.977
36.6858
24.705
38.3446
0.534535
1.22704
5.0772
43.8433
3.13326
5.74647
206.822
58.6069
49.0621
17.3586
4.21648
48.3063
0.59975
14.1928
48.6069
2.61985
158.842
3.95787
3.19371
38.2608
15.2554
6.33182
1.50908
6.18456
12.7775
6.55998
1.02007
3.27034
52.9146
73.1869
4.15192
10.122
31.6423
11.1292
45.3995
136.004
96.0449
85.7611
41.4161
1.78381
1.91538
43.2552
0.801053
0.21112
0.732242
2.04437
22.5665
1.05188
7.38592
0.806681
26.8394
67.9109
8.33503
8.04256
7.86357
15.9635
30.3459
30.2711
75.2716
6.31814
0.80988
28.7146
11.3059
25.3835
7.38049
109.183
59.1181
69.737
2.34568
117.64
98.6748
4.53323
3.74906
5.14979
2.90857
1.71089
72.6256
24.8926
47.7012
88.3498
30.1719
54.9985
43.7882
11.1367
0.889765
3.44526
18.2573
0.82831
32.0386
24.6118
153.637
6.97216
68.0473
83.2027
1.66262
3.37516
37.2204
35.8907
10.0508
4.58199
22.7232
67.1189
5.15759
47.567
1.39609
4.96154
2.79116
1.06542
1.08832
5.30727
0.240366
0.83883
0.822605
1.87757
7.99086
58.5546
5.37217
1.40142
0.793407
68.3921
9.7227
47.5857
4.34587
51.7128
0.833054
39.9318
4.73283
10.8872
2.77315
14.4795
45.7639
2.05509
10.0101
4.32365
0.314214
9.23888
78.1683
21.61
42.2547
169.283
0.611517
11.0818
28.5525
31.0612
23.6362
26.3158
48.6136
107.631
3.97445
2.47912
0.815952
0.346371
18.1131
10.5743
132.154
150.696
130.177
0.372021
22.1956
127.931
66.7784
62.1364
43.8216
0.926778
4.19759
1.19729
37.7516
11.0582
25.5231
4.53321
2.34143
4.39847
4.82685
10.0619
82.9465
2.53401
2.39815
36.2793
35.0273
12.1015
0.943744
8.21868
40.5916
0.83633
7.47727
4.21516
5.91997
16.3731
0.767292
30.1035
1.04303
10.4046
20.5168
1.82254
41.0441
9.31394
0.514793
5.01582
14.3821
0.384329
86.776
15.5765
0.980477
0.860182
13.3664
0.0923368
0.880341
10.3855
1.96894
0.112266
9.94571
31.5168
21.5643
60.6244
25.3344
8.49988
101.532
35.1599
0.129668
1.43999
16.9943
4.36953
14.7162
70.1443
0.146391
21.6928
0.534956
36.6945
2.29251
57.5515
3.11447
18.637
56.1738
0.62944
35.4391
6.65404
0.154241
5.78844
14.3267
30.1336
33.2115
0.759113
37.2778
0.479099
0.68487
14.7308
0.982293
1.9241
11.3379
2.87054
20.6763
5.87488
69.4653
0.719154
0.718374
0.788751
4.50008
41.6261
17.6864
2.71823
28.2517
7.55958
17.6804
32.1791
8.5645
1.00094
5.06587
11.7168
9.72038
22.8246
6.93974
92.1702
81.9069
60.5545
20.5119
88.8604
8.4759
8.47734
9.12957
3.20548
2.3195
0.513843
449.902
39.4825
0.760251
3.43799
56.8097
53.0095
8.59492
1.97935
1.69854
17.2749
17.2836
1.59957
31.297
10.1335
32.4403
3.99053
34.5441
5.30134
0.294787
6.19551
4.56307
1.67343
31.1328
1.33325
51.0379
4.02828
29.2432
8.64711
15.962
4.30526
21.652
9.26441
17.858
11.3278
4.43239
3.45864
14.8588
37.6908
9.7872
5.54157
2.03257
1.67239
17.8286
5.62548
20.2054
30.9502
12.5971
7.60388
5.50453
6.83419
6.84066
20.8243
12.811
11.1482
23.7543
0.286799
69.7016
1.00998
136.673
0.88464
0.117993
6.84342
0.591174
0.863491
47.3477
5.08901
5.98659
1.64214
1.87854
41.164
197.988
91.6931
2.2447
1.69232
4.11075
4.15977
58.1533
21.5473
5.52287
8.63304
0.561289
64.0822
4.67888
5.63214
38.1271
8.93528
7.57287
34.0948
11.1343
0.736734
34.309
85.5935
31.6439
12.496
9.60462
10.6691
0.728282
67.8143
32.2052
5.10531
82.0301
3.95011
0.531842
36.2535
10.0021
68.2454
0.220104
13.1257
52.2853
0.291452
0.42079
2.13921
0.548646
1.70226
8.67243
5.29504
34.3009
0.680319
3.9728
20.201
126.236
12.7068
7.24602
27.8265
4.414
91.5439
0.24438
26.2815
121.791
25.6269
63.3178
4.23937
49.7335
35.2218
27.1031
6.03151
7.44739
0.545492
14.1841
0.255627
4.59814
13.206
7.10221
6.81849
9.9687
6.03903
4.33124
34.6725
0.335472
1.01532
7.41128
4.47308
0.233239
4.28064
70.17
9.36515
49.1808
41.0885
5.29704
1.23595
121.146
0.305605
29.8857
12.328
5.39668
6.70714
1.74259
33.4006
0.590344
11.1093
0.878918
17.4402
0.121947
7.37389
60.171
24.2332
6.93249
30.5992
22.6261
13.5478
8.87334
0.978625
14.4818
5.16424
11.5122
76.277
6.63595
0.297995
5.46394
32.6769
40.6535
154.351
89.7064
108.707
77.7711
29.9979
0.242218
5.59222
18.8356
4.12609
89.2318
0.295787
0.253491
4.4739
15.3266
0.256981
5.45479
13.1082
3.47747
3.30701
4.14926
4.70556
1.30311
7.61232
4.64047
30.7971
15.6876
0.79062
23.0811
33.9885
55.3162
18.1966
4.48721
54.7295
0.224719
1.21684
0.502612
4.62645
250.244
11.3991
49.0981
24.8865
83.0535
66.1882
16.3215
18.2031
0.453297
0.823528
0.832303
0.244804
12.1375
9.08122
0.981582
15.6619
0.159093
0.652241
5.34582
10.3926
1.99877
1.11624
0.176056
9.91555
10.3093
1.28356
6.0028
3.48557
0.939924
1.21974
0.0976612
0.413245
18.2922
5.36235
4.82746
0.442797
1.93094
10.9481
6.56766
0.852159
0.538213
0.574336
0.345423
0.368084
16.6733
0.791654
0.109944
2.9521
0.702194
7.51234
16.8883
2.7599
13.9069
24.6784
0.185896
3.33719
36.2728
98.3172
24.2641
1.32206
0.378755
16.1402
2.36033
22.1536
84.9213
135.586
24.1378
109.642
28.9817
0.100935
0.104336
0.223841
4.56219
2.35611
15.0167
0.244018
4.53685
6.39172
1.65679
19.5305
40.3682
4.27888
12.9569
13.0322
183.598
4.78148
10.1402
8.30953
12.2417
34.7576
15.4917
67.6442
3.79913
28.22
74.2796
8.57189
26.9353
9.20893
11.5072
13.9064
406.381
4.09406
3.37304
1.52886
15.7732
15.6365
9.14207
63.5202
11.9273
0.864807
0.328383
9.32221
14.7008
0.278831
12.5298
0.151024
0.735214
2.10628
0.224323
12.7864
7.44195
0.40074
19.7835
3.73494
7.84732
4.20738
1.19702
1.27638
1.52823
0.537929
18.9038
0.717799
39.5367
65.2657
9.90497
19.221
5.3323
13.9165
4.89706
0.623656
58.1016
20.4024
17.665
38.7601
18.0184
4.21136
0.206285
18.8646
34.5048
7.02836
34.4976
98.1309
29.2242
0.317525
40.7325
31.3619
4.53141
42.8605
12.8151
60.7603
0.448497
4.59082
0.336405
68.1353
5.15947
8.28555
13.6894
0.245325
125.179
0.357444
95.753
6.20729
0.323671
0.138382
80.5806
0.198953
0.388189
3.87071
4.31694
119.054
10.7442
112.139
20.8674
8.69797
14.3234
33.3261
1.67913
9.14739
7.41067
61.5523
38.612
16.0389
0.916462
79.2725
5.95558
42.8617
10.2611
3.8714
0.141731
6.34668
8.78496
0.935646
3.76621
34.0734
0.104175
5.56785
101.414
103.481
12.367
13.7506
72.3731
0.1237
40.2663
18.0926
6.9368
37.3491
30.2805
4.23615
54.3905
0.279663
7.61265
7.04018
8.23005
7.66869
10.0592
8.01483
12.7211
59.0435
2.38042
0.50387
1.80103
17.7825
5.09946
34.2393
205.358
60.7129
41.4493
32.3019
13.8887
24.9003
23.8347
78.9185
40.0395
14.154
39.6507
31.3127
33.5763
123.38
96.85
10.686
63.1359
30.6163
17.6543
18.7603
4.25185
59.0619
46.9152
11.2258
51.8834
10.7063
99.9673
10.4382
11.5385
61.2946
4.53184
14.7714
15.3603
0.486374
0.727263
12.4493
59.9059
5.56648
0.449604
7.04098
26.9845
27.5745
50.5309
32.3647
33.325
55.9481
29.516
5.76186
34.72
34.17
57.0527
30.9289
29.6646
32.9381
39.5226
33.171
39.2245
21.3604
17.7915
6.20435
25.4757
7.79176
6.1183
5.18984
3.9227
0.372469
7.70934
31.9418
15.3882
7.51679
0.89319
1.43491
50.82
14.6662
20.905
8.30687
5.46989
2.74785
3.15423
13.3822
16.0854
6.10359
98.7087
19.2269
5.17327
2.11267
5.13965
0.383454
23.2156
0.67163
7.22164
0.975903
0.231702
5.81929
1.99341
2.92699
2.06495
2.89013
2.59136
68.4849
2.7944
3.76491
4.19991
3.20499
45.9593
111.274
2.76525
83.9899
28.1668
3.58153
135.914
10.9683
5.00442
118.184
24.589
98.6045
3.73184
4.35322
126.748
117.875
73.5655
4.28839
3.63098
5.06419
5.09156
4.91613
71.1823
3.11587
6.92543
28.9469
2.18349
4.71672
20.2414
4.1351
51.0761
31.8373
19.9519
63.236
87.9377
5.74569
90.8606
2.97049
29.3188
21.1107
20.6661
132.073
6.41952
58.7471
26.2326
34.506
17.5154
62.5602
54.9033
4.25967
91.3747
48.0371
4.42306
29.4312
34.9749
4.58606
5.79392
51.3436
6.12282
57.5993
25.3527
24.207
7.63991
13.3127
5.68654
111.466
8.37256
15.975
18.0876
211.825
4.54784
6.43384
0.448468
32.8842
10.6073
4.84862
12.5496
4.72554
6.28381
0.998284
6.94948
9.88276
5.79544
3.00243
9.24304
8.90184
13.1926
27.042
29.1811
4.18663
47.6404
7.28263
6.27301
3.84131
2.50468
4.08672
15.157
4.13566
12.2496
0.214627
5.13734
6.25036
50.8191
4.98444
3.65299
4.02264
11.1373
1.49537
3.96806
5.49163
7.45042
2.80652
3.84474
22.319
8.60521
6.70046
26.1696
1.89833
6.08026
7.01356
0.765738
9.36835
14.0471
18.8253
0.823567
9.01824
2.69523
4.52389
6.17874
11.1095
12.9395
1.76851
13.9808
1.41569
7.23286
0.850894
0.649995
10.4537
10.1878
12.8193
17.6354
0.730513
4.28751
2.24329
10.7993
7.53223
10.9398
0.576148
6.67351
3.19991
0.434439
5.58616
4.81013
51.5838
9.17509
6.10809
7.57004
2.99947
0.527291
28.9043
57.0783
15.3863
22.0247
1.63254
40.5261
21.9868
15.857
30.4431
0.836662
24.6148
0.333986
28.2109
22.9037
8.12737
14.8215
36.0474
10.2636
6.93081
1.91924
0.554549
35.0537
13.4899
17.4936
16.4513
24.8541
7.21078
1.20174
0.424043
57.7677
5.62689
5.68027
36.0927
80.2365
11.8535
14.7494
7.18575
29.1342
10.0271
12.3155
31.6069
23.6896
13.3813
28.8943
8.6772
37.6789
11.7503
38.5426
30.4593
10.2347
0.865887
0.438618
32.0938
9.27257
66.1962
31.8732
74.7388
0.39215
28.5214
25.4256
4.40688
5.66591
7.38774
5.78479
24.8372
19.5679
63.2512
73.4209
2.35814
14.2472
26.4654
80.9337
18.5766
54.6601
6.66054
50.3238
13.3681
13.2291
79.7179
10.3694
5.58601
20.2792
24.0401
10.6596
22.8597
9.74387
37.0843
14.0169
35.8045
28.2247
27.3636
9.65842
0.563075
0.486159
25.6899
57.3905
6.48434
31.849
66.1413
69.4481
104.129
12.4759
9.79379
41.6055
19.9177
0.380301
26.2751
5.14444
53.3247
81.1119
4.79184
9.56958
160.085
12.4229
6.09911
28.2543
14.7548
36.521
18.3561
1.99334
97.0269
78.9586
5.98662
35.8228
6.43438
7.45755
12.7984
12.3182
6.25919
41.5094
2.49836
2.79259
30.3164
12.1833
0.661633
0.487009
127.886
101.195
12.5033
11.2152
148.221
127.15
20.7295
5.73947
76.9889
10.9624
7.7534
41.7946
0.334659
27.6343
5.78493
3.3218
7.61815
138.441
77.0567
108.946
6.1278
138.444
83.2339
33.7838
6.91076
24.8888
22.5193
11.374
2.42526
3.8252
4.18056
2.67447
17.5372
48.6703
5.49251
6.45872
37.6353
13.348
45.2729
38.5586
27.7723
47.1105
2.46814
40.72
0.950628
0.362521
144.506
62.9666
54.9673
83.3406
66.5589
32.2696
4.55625
4.49631
4.13262
7.79712
3.77659
9.57622
0.51361
0.466999
0.543188
0.373517
0.407311
72.6596
92.4421
16.9669
40.3788
8.51882
18.8896
3.00842
21.0622
31.1681
5.60088
22.7906
4.21414
6.14689
6.27624
80.3016
17.2699
11.3554
0.186232
62.0366
3.28753
2.71411
18.5588
37.5374
92.8427
11.5363
7.62894
64.9399
124.349
20.9581
8.19723
0.193177
0.311212
9.39353
5.60643
20.4984
7.1805
2.22398
0.566087
26.6823
6.47828
13.0736
110.807
3.65128
11.8652
3.2281
3.82845
3.28611
47.1507
167.957
30.6024
0.551901
4.51231
36.344
59.2603
5.9971
13.4686
5.73293
7.0665
14.5674
5.38853
0.76979
9.87406
6.33879
0.17405
5.35644
5.62844
6.32326
9.00713
10.4123
14.2184
3.44893
14.3654
17.4334
4.03924
9.09177
40.4475
4.85399
4.81771
12.3319
37.1905
4.58503
49.1721
60.7653
10.3942
49.5528
4.20314
162.732
25.0841
70.0537
0.277025
114.103
4.38376
18.2279
5.60607
0.360076
93.7245
6.59556
19.0483
4.90269
14.5686
10.3225
5.34513
75.3637
66.4062
19.1882
51.7579
9.9379
16.2406
12.165
0.682326
0.521999
33.2925
17.026
13.2429
5.25727
1.11627
135.139
30.9207
193.497
131.343
38.8967
44.0664
13.7485
2.12498
30.9142
13.3677
11.0412
14.095
22.2359
1.62086
10.8055
34.7179
61.586
69.6633
7.77796
18.0141
79.0367
23.0768
6.50752
6.62033
5.97868
117.898
8.62599
19.6631
79.9702
102.974
28.1377
3.29347
4.82976
45.5455
12.8509
13.0683
30.8868
13.4171
31.6784
4.4029
23.4375
37.797
134.976
11.2192
5.04516
3.61557
0.448902
35.0662
13.282
12.9451
110.048
82.552
218.09
1.14936
10.2782
7.67037
24.6522
2.32088
177.739
41.9435
9.68647
0.567005
13.6177
0.206163
2.65796
27.043
44.5356
20.5102
54.6808
25.5169
62.4734
4.84552
16.4317
124.02
22.4686
41.5674
363.03
4.87379
8.09592
58.5543
115.758
61.4041
25.0165
51.0181
4.10565
2.76847
35.3807
5.15235
15.5418
28.5394
0.805656
12.0808
2.09037
58.745
4.36669
57.3029
6.20239
14.9263
13.4539
38.3876
15.424
80.6597
1.69872
158.265
1.55017
3.67139
5.86057
0.457383
1.64614
72.2771
30.0754
81.4825
12.5606
93.6924
153.927
14.9579
27.6199
3.41563
4.56838
8.9548
0.239269
16.9863
50.2858
3.56509
3.11683
32.6849
71.9447
19.4809
133.52
6.27647
37.8302
5.63266
114.778
5.32828
5.44993
0.210704
10.1572
12.5534
60.1594
5.46123
20.9287
83.1055
10.0397
4.6652
76.9744
3.34017
2.65769
79.4018
2.05698
3.59894
5.85732
11.5176
37.7383
5.97286
25.8389
74.3139
0.947075
8.2469
17.723
21.6145
61.0436
4.14245
29.9155
40.2209
32.1756
13.7262
10.2501
9.04309
4.72332
0.516161
0.494767
14.4351
59.1467
7.49386
5.6747
105.883
7.80717
13.5324
39.043
7.25263
5.02157
2.532
80.447
4.27322
0.387399
1.19488
10.4189
25.6747
11.515
3.78806
3.02935
69.4366
38.9161
4.76306
42.6627
136.517
77.7596
28.0106
79.3181
0.587338
49.7861
155.603
9.6128
0.550166
0.511639
2.04327
5.01179
4.31995
53.3757
1.51719
24.5342
3.98657
9.21199
16.0509
266.539
3.2893
52.4887
3.21839
29.4171
68.1764
23.6113
7.1229
11.9112
0.738524
0.546442
39.7041
13.1475
12.2675
92.1323
14.8023
29.4524
223.184
55.3062
38.345
0.32983
77.3053
0.132588
3.98316
60.4057
28.4148
12.183
1.68375
5.14901
11.7697
43.6001
0.411762
7.62261
14.1485
80.8989
6.765
6.21002
4.97533
41.9969
30.9653
24.8823
2.37712
31.3904
77.0923
125.028
32.5956
30.0597
5.04433
59.1111
21.3442
70.2855
6.93389
10.997
5.86166
10.3219
0.785428
4.41801
16.5735
8.20137
37.4543
0.16087
6.80339
130.548
29.4916
1.15471
8.36883
8.26705
3.80513
51.2024
25.546
1.57373
2.43949
0.742192
0.541911
9.2951
8.53733
75.2147
0.814727
21.8676
11.2853
10.0695
1.02876
22.4137
9.0759
109.501
8.59397
0.594316
0.483601
3.19131
28.3326
4.2322
3.34528
0.0823513
11.4194
2.1881
0.820304
11.267
13.5577
5.92008
24.1338
19.3755
3.40363
49.115
4.92865
10.1124
2.64248
0.40095
3.06992
2.35308
4.52221
19.9862
2.17877
26.6797
6.03579
34.1047
74.463
4.16787
6.36112
6.45416
40.9732
14.6264
11.5996
9.29622
0.631766
0.513273
4.70191
0.816715
42.8597
254.549
9.73734
3.79918
1.62618
2.4839
0.12666
25.9431
5.7841
77.6437
16.308
12.7605
94.7963
0.281058
2.43983
4.11603
60.0078
2.88345
114.235
5.33918
11.354
0.822999
6.8304
2.34719
8.9483
12.6839
20.4501
22.5231
9.21974
1.69402
6.15488
0.328017
5.1571
4.05371
35.1483
37.1717
115.235
19.1793
16.059
40.639
4.061
22.9124
4.27983
15.0688
3.63011
6.78536
40.751
63.5483
10.7363
0.806816
2.77311
0.287105
2.0482
13.0731
0.952754
6.7842
10.7493
99.512
5.99168
9.63862
10.5783
8.19208
31.644
52.0379
35.2845
18.7222
4.80189
11.5244
14.2222
7.24111
11.8089
3.19188
8.89608
34.1033
0.156735
10.6678
14.5921
0.560921
5.68365
0.77115
0.392401
0.715015
0.1003
19.0356
0.258254
2.01335
1.87261
8.69991
3.34378
0.343474
1.19615
32.1702
28.5275
13.6884
22.0477
6.42463
15.6049
11.5135
79.3077
49.7164
8.27702
53.4282
23.2147
44.6342
91.8359
142.054
34.814
0.631521
0.471426
0.195058
0.657125
0.495692
7.65231
46.221
80.2513
0.409655
0.397911
2.18213
9.66178
10.3661
77.9099
0.189323
0.172634
55.5326
10.5512
41.5166
37.5822
5.30785
9.14745
26.5885
22.5485
100.913
0.297936
13.5146
26.7956
20.7648
40.7281
27.6289
0.246278
2.38795
15.7562
3.05081
0.886296
8.95994
0.740403
13.9452
5.98913
14.585
3.29057
0.358716
5.24754
189.614
80.7119
0.859653
3.44907
0.219348
4.42706
18.8349
7.14433
40.4369
6.56615
0.249839
57.6988
7.1583
5.31082
117.441
29.2134
55.5023
27.1318
1.19226
3.85276
22.4498
25.7439
2.50786
0.458714
70.0592
2.07529
57.4273
6.11218
1.00405
9.99317
3.87078
9.47442
2.7708
2.72236
33.0344
4.89065
5.68898
1.26084
9.66016
13.615
145.333
2.94834
4.22937
8.71123
0.690126
0.508217
0.454264
18.5841
0.415621
23.8325
5.54642
9.00906
97.8824
10.9744
9.89921
26.3714
8.11297
4.94339
203.937
3.79194
15.4995
33.69
5.82341
167.382
10.7692
0.784764
0.557519
43.3309
4.12658
8.38952
2.59609
2.0717
3.24635
32.9937
87.9878
31.4433
9.20755
12.9959
139.848
31.094
29.1772
12.0565
5.89387
13.9405
115.019
33.1662
154.01
37.151
0.759773
0.723356
2.75373
37.9515
14.0226
55.3098
41.3942
21.4297
9.43902
10.8676
27.5036
0.982153
0.470536
7.90727
0.4878
2.00426
20.4908
6.53647
5.42077
9.78592
13.9245
28.3516
21.7356
25.1311
65.4987
17.4119
0.558061
2.39714
1.74028
38.6093
2.46894
21.2852
3.73547
6.06968
4.35282
20.7397
87.0201
5.2338
12.8829
20.7942
63.6403
1.77041
2.98116
0.374832
23.8822
68.3426
5.03125
5.51285
38.4333
2.77122
42.9074
9.65195
5.31798
48.9013
81.2781
62.4233
14.9269
9.0402
0.106767
17.6377
0.105653
26.2345
64.3215
14.1763
5.25238
9.2665
30.6886
16.9834
22.3138
0.111269
29.5468
4.41596
0.103944
1.02483
17.0006
87.5788
26.1812
5.87365
5.37532
2.29852
3.37248
0.121483
0.130328
0.923346
6.5566
28.4128
29.0109
28.4024
14.9444
5.51728
11.8326
65.7998
12.2691
0.233174
3.37323
4.19988
161.374
72.9741
47.8632
1.68814
0.77637
113.456
13.3086
18.3528
12.1651
10.1397
1.27535
127.094
8.01223
25.416
8.22057
40.6636
26.0804
5.23903
73.2888
0.223657
1.83549
1.98151
7.24282
2.43248
0.41073
0.781828
2.20491
3.87631
16.2702
5.20073
11.8069
19.119
13.7225
5.28216
12.5644
9.95086
13.004
137.389
0.571107
16.3318
0.885203
14.2748
60.1715
0.607225
19.4699
34.278
7.4695
8.98127
1.48522
1.8019
40.0566
134.226
49.9288
101.697
22.2141
71.8813
0.373615
27.1711
74.3522
5.32159
113.103
19.3971
2.80887
22.597
9.72206
22.5215
38.3352
29.2296
7.50234
0.432839
0.727664
13.5633
5.47812
4.29377
4.29889
28.9642
31.5932
1.25909
0.268815
1.73939
16.1985
77.0129
2.28681
0.22386
13.0558
22.1874
29.1584
18.0512
3.48067
103.551
14.3693
6.87141
56.3426
69.9815
0.384243
46.6818
28.869
9.12059
38.9695
39.4498
8.93827
0.917149
0.160188
1.65903
4.4283
2.0444
7.43091
9.74463
70.2555
77.3992
33.1467
148.954
25.5473
51.0518
30.9375
9.7279
35.1331
4.16313
13.219
7.93232
65.5273
143.803
114.21
29.8701
29.8571
4.18593
42.4193
42.5777
29.0139
0.527765
2.61408
105.728
30.0413
15.0354
68.6941
112.705
1.28528
51.4796
24.2984
80.5814
24.3813
98.7053
0.182868
81.3088
0.525019
10.6065
0.474167
60.5626
32.7139
60.345
0.637661
0.706095
109.004
3.00941
1.37444
65.9733
11.5434
37.7132
60.6619
168.5
60.8527
0.423507
1.20336
47.9817
32.9236
229.791
75.598
107.18
9.77074
11.114
99.3499
90.5123
0.572261
0.666967
9.55361
0.884726
1.20462
7.3592
28.4286
16.8079
3.72444
14.6358
15.9327
10.512
91.5618
133.527
83.3876
5.67395
33.312
5.82545
15.1981
10.0184
25.0311
140.197
105.237
44.5072
111.264
30.0709
63.9116
10.957
0.405375
162.769
86.451
3.45988
13.4455
0.805259
5.26116
40.7434
119.509
15.1515
33.4315
2.93546
87.6226
0.46352
9.67573
0.499138
3.55547
0.254312
2.34913
122.056
22.8718
3.41014
125.792
0.707801
1.63605
62.4418
3.79763
48.5064
5.61997
7.80731
85.2993
4.09013
7.21558
4.30252
28.6973
25.5237
4.27395
34.1883
79.823
31.2704
39.2384
49.986
12.6153
29.153
38.5464
0.213147
5.60996
43.8918
2.86776
13.9622
129.539
10.3439
88.3392
2.9665
1.22466
0.585157
0.4564
11.4935
75.3031
77.97
82.0532
3.51003
14.8298
5.84591
13.7766
12.5508
7.65103
5.67642
4.52405
5.53463
9.33556
0.358883
0.287466
0.627759
122.755
4.25295
8.17104
102.144
125.268
112.044
139.804
47.2631
4.95534
46.2338
4.45069
2.51481
60.9696
162.74
3.96681
4.42725
0.853551
33.6192
48.9723
91.5991
3.90686
4.48113
35.7923
12.2773
2.52096
2.45796
0.284367
1.96278
8.56734
117.404
35.0764
6.07535
91.4183
34.8794
2.41364
102.839
15.9861
89.6988
4.41126
13.5806
24.1006
22.4353
31.7549
0.585766
0.474729
45.124
2.28277
6.16046
0.938712
91.3788
31.1442
37.0605
2.5866
40.4155
2.87033
46.5809
35.0674
27.81
31.8681
54.1355
52.0814
39.4696
2.80867
12.203
35.3564
0.403639
38.0355
0.260694
2.9036
7.61467
17.2487
31.0647
15.3701
4.22099
13.8091
0.552313
6.85345
0.719725
0.749486
168.091
25.8665
10.8702
0.501572
0.460658
18.8871
0.18885
0.423793
13.625
0.588647
0.297159
10.9941
0.846081
43.3657
5.12681
0.58197
27.9045
2.92286
11.4808
29.9543
13.4232
13.7744
17.2699
78.4353
30.9528
1.04485
17.7108
119.57
74.68
58.337
14.5441
5.62354
0.233926
0.221649
47.5296
139.079
27.2071
4.33964
23.8486
7.625
4.85241
19.6316
19.0644
48.6681
3.92851
65.4191
0.119653
8.50478
113.658
40.4213
6.52847
34.6929
16.2742
89.0629
39.0972
32.6813
17.3828
0.626026
4.36929
5.24569
6.39249
16.5053
3.06323
34.0784
23.7813
113.609
28.0644
10.9474
0.716003
5.31175
7.57326
89.3817
34.6093
55.1613
4.90349
116.378
5.65171
5.51211
38.1935
0.26225
2.88451
9.20577
49.7333
79.5247
37.094
21.6536
28.1607
25.157
5.19477
4.37906
0.44817
6.17968
3.19235
451.325
134.245
4.3276
99.9865
37.1242
5.36126
0.357927
14.9619
0.377018
3.55041
0.880864
11.6212
58.1174
43.3385
3.02771
32.7834
0.381881
1.68576
0.310963
4.0619
16.6306
29.1361
272.325
14.1133
11.048
0.142548
4.82374
118.357
63.7116
12.0385
4.12262
2.63704
12.1419
5.66384
1.65007
42.9618
30.0001
0.605043
12.9055
0.966235
13.8765
6.84824
5.57015
53.2085
8.37878
85.178
22.3037
74.8239
91.678
2.69822
2.83261
4.92782
15.2672
0.561701
5.17619
4.87094
40.4837
47.3785
52.398
3.12797
3.42403
46.3749
2.62749
18.3662
12.1791
26.6141
69.2177
91.2913
0.380786
15.3887
0.43898
37.7931
10.4464
16.0243
41.9752
1.99139
42.661
123.158
59.7446
57.1169
4.49052
86.3253
50.6676
26.3909
0.675487
0.570367
37.2469
0.507985
3.88029
13.738
19.0739
41.4535
33.0824
66.0936
7.20472
93.1193
2.0895
36.6433
33.1876
10.9727
84.2875
32.6482
0.206159
0.64693
0.957557
0.979385
16.7576
13.8011
96.3878
22.4886
2.19913
111.834
15.8991
5.24248
98.8091
42.3379
35.9518
64.8487
6.78588
89.223
1.09776
0.515116
10.3976
0.25353
3.18979
14.9663
63.0009
0.381192
33.7878
0.604954
4.36487
31.892
23.0683
14.395
14.6095
84.2084
41.8185
22.5388
10.3939
3.36575
2.63709
11.1794
30.6662
36.7729
145.585
0.206095
1.78931
62.8472
49.3891
2.4872
52.0214
29.1282
5.22562
15.5026
49.4666
25.7411
84.2725
72.9889
10.7542
34.4676
2.88246
56.9915
94.7225
31.2308
132.74
28.9441
17.2052
35.4175
25.7032
16.1765
20.2657
89.5983
12.9415
36.4865
7.94214
0.164351
0.747493
8.1664
0.576114
3.21125
14.1488
17.6333
22.9878
35.6987
3.12596
108.566
117.344
66.3502
2.61039
0.462398
8.86453
0.535743
19.7095
15.2478
32.7213
14.7978
5.95489
102.593
12.0782
9.69035
7.59899
60.8517
76.2788
0.125931
9.64213
10.6694
0.1791
59.508
32.4978
1.48859
3.12882
50.5191
87.3249
25.5184
3.03366
2.85142
0.981787
0.444638
23.4978
0.196234
0.27223
15.2755
2.5964
0.415751
36.2033
2.88538
0.820278
28.0648
1.19321
80.3768
5.66236
113.021
2.06612
0.691902
5.55133
56.6186
58.5249
101.376
14.9159
21.3189
31.2725
6.98748
36.9022
28.1344
5.07215
2.09296
6.39833
0.206022
26.0077
12.5013
25.4977
4.89129
27.4977
36.5836
70.955
14.4323
364.831
13.0583
3.693
0.324058
0.7892
5.26439
0.781725
2.31298
17.3879
2.05312
13.1211
0.512375
0.840741
14.0207
2.6567
5.5615
23.9957
54.1507
2.55848
4.17327
4.8942
0.818624
2.00907
60.4058
5.36106
6.38066
6.01136
100.86
148.827
78.355
5.07624
9.19604
0.803043
4.91952
0.37452
16.9071
11.972
59.9775
0.36593
109.816
288.474
89.4217
1.12839
27.8469
31.5775
42.0295
0.889156
0.593733
11.5007
34.6005
0.159901
14.6837
41.2199
3.21256
0.31293
62.0389
47.6398
3.84465
21.4158
34.6952
10.467
67.9535
15.0904
0.861396
11.5779
83.2192
166.668
5.13758
36.8863
290.847
3.28776
79.3946
0.622152
44.0149
17.7013
4.24442
3.36792
115.306