/*--------------------------------*- C++ -*----------------------------------*\
| =========                 |                                                 |
| \\      /  F ield         | OpenFOAM: The Open Source CFD Toolbox           |
|  \\    /   O peration     | Version:  v1912                                 |
|   \\  /    A nd           | Website:  www.openfoam.com                      |
|    \\/     M anipulation  |                                                 |
\*---------------------------------------------------------------------------*/
FoamFile
{
    version     2.0;
    format      ascii;
    class       volScalarField;
    location    "0.35";
    object      p;
}
// * * * * * * * * * * * * * * * * * * * * * * * * * * * * * * * * * * * * * //

dimensions      [0 2 -2 0 0 0 0];


internalField   nonuniform List<scalar> 
5794
(
77.8513
76.6261
77.3839
71.9208
84.4437
76.1941
71.7589
65.758
76.4838
80.7396
110.005
74.1225
70.633
72.1519
78.7358
75.8376
48.2938
74.7127
79.1464
78.0206
74.1851
76.9784
70.411
75.84
70.1271
39.8964
50.1681
71.5091
76.1193
79.1847
72.0358
70.1635
90.1272
72.4216
66.593
61.6689
83.1743
74.0603
70.9031
74.5593
75.4292
75.8427
100.992
77.8739
78.6141
91.0327
71.1212
70.1267
80.3008
78.7517
76.5439
69.4048
72.0165
80.3157
79.4609
93.094
71.9959
70.7615
101.144
35.1065
88.5421
79.0632
70.429
70.0166
89.4608
78.4917
78.9122
78.891
74.794
79.0842
68.6391
79.1547
17.4781
76.7196
74.9185
70.8764
74.3221
45.8306
77.5775
78.2686
76.9799
77.8703
75.7502
72.1644
73.8284
73.3089
68.066
95.1585
76.3707
75.043
98.4431
71.4386
71.9876
77.4567
73.4165
68.2486
93.9558
72.5142
71.4541
89.4447
63.6512
70.8747
101.191
72.6219
80.0584
68.1055
78.9542
110.953
67.6631
77.4727
70.2009
80.2057
55.2159
78.5923
73.272
75.2191
79.6662
69.8994
87.6986
74.4027
69.088
81.3578
70.7776
70.8921
78.5925
107.996
71.8173
75.9983
71.151
109.766
72.9783
75.293
70.9342
49.5619
69.2429
78.7171
101.164
79.144
76.5878
68.7568
72.9611
78.6645
79.3998
76.4063
76.5169
52.165
71.2191
99.1118
85.2363
80.5136
105.544
81.3109
68.6353
73.7947
50.4924
70.07
73.6439
71.955
91.3144
74.0295
79.0158
66.3238
69.5311
67.2052
67.6627
69.3277
72.0937
65.8216
69.8876
80.5581
79.2773
68.8269
62.8962
69.4846
75.8971
68.0458
79.4653
68.0384
74.3737
71.913
71.9578
71.1062
69.478
91.6367
75.0809
49.466
70.586
91.2804
80.289
71.0907
109.782
70.2911
89.897
71.975
75.5574
73.9676
66.3029
71.5836
79.732
99.4531
69.7655
68.5967
71.0444
75.4303
70.6963
90.852
73.0266
111.151
74.1043
75.5049
77.6974
82.1812
68.0257
65.9018
74.1408
68.5815
65.8585
70.8928
110.432
82.8073
82.2519
69.3061
96.7457
71.9366
95.9363
36.8534
76.554
82.0805
83.6011
79.563
63.6066
70.5052
76.5502
68.2438
74.0113
54.0419
63.4099
103.8
71.5207
77.3317
76.7424
111.488
78.5602
74.193
73.9943
70.4339
79.1074
85.0225
95.0109
72.9959
71.1266
78.2821
49.1973
78.4136
103.735
75.5935
100.124
100.101
111.25
78.5355
101.682
70.157
66.0278
79.104
73.9219
71.8504
79.644
107.511
78.7496
90.5749
70.2656
71.6357
72.2262
67.7794
83.4738
79.5909
80.3183
71.1672
80.6477
70.6203
71.1841
89.2882
75.0524
76.1556
74.1321
71.9176
71.7718
73.5098
73.3023
69.9224
60.7762
68.703
74.9466
80.8953
96.8556
51.8129
74.668
75.8953
70.3491
79.1762
77.832
62.9127
76.9166
77.7163
76.6829
105.902
80.4977
74.5596
90.0805
70.0269
72.0882
90.8205
78.3922
78.9327
82.8986
84.9204
110.976
72.0438
67.5563
77.6933
65.6135
72.4842
69.985
84.4949
75.909
67.6535
76.2702
74.4003
72.8679
110.274
69.5402
102.263
72.7904
90.7831
70.3048
80.4085
82.1379
69.6069
80.2434
91.4084
74.5933
68.8654
74.8993
70.7918
79.6907
70.151
93.9177
71.6734
70.0143
74.0673
70.4031
53.4648
90.1897
70.6277
70.412
48.8141
80.3833
70.573
70.7712
66.0759
111.038
73.8459
102.172
71.5799
65.7161
85.292
68.4743
91.7769
71.4696
70.4248
80.1636
78.9577
85.4425
77.9572
110.984
67.5848
93.4272
72.0955
72.2497
80.6335
75.5588
79.9988
83.3484
63.4681
66.3795
70.5827
75.7568
72.8057
65.6666
73.2873
65.6139
72.9375
78.9116
70.175
64.1384
70.7478
76.8273
77.2942
78.738
68.2848
74.8392
68.7436
50.2904
70.3536
80.4818
105.188
78.8953
76.3934
78.6334
94.5052
71.8143
69.6092
109.182
69.001
90.7775
70.3362
71.6599
74.858
67.8123
94.1264
71.1516
72.4882
110.784
80.3213
62.9925
66.8428
72.1697
78.2904
77.5461
77.092
69.5553
83.389
77.8745
57.4852
79.502
79.5743
73.6231
75.0999
64.8849
66.6654
69.9696
82.9284
75.9823
72.5314
73.1794
75.3215
73.0588
76.5434
76.0491
77.4715
82.9649
77.9121
62.4826
76.9448
72.3664
79.1946
92.4451
71.3457
72.6957
78.0672
76.9309
78.0772
72.0846
70.2104
90.3834
109.623
46.2254
80.0969
109.459
77.3477
79.2378
68.637
109.15
83.6524
80.0335
91.9328
60.662
70.9282
77.1121
78.0372
72.8171
76.9416
81.1958
83.1327
111.03
109.504
81.9463
75.4293
52.0678
76.9191
77.7344
70.9873
69.8174
84.3288
78.5306
69.4771
79.2957
79.748
76.4325
104.567
79.7565
59.98
85.1393
67.147
76.4378
78.0273
76.857
99.0763
109.192
78.2365
67.4716
80.3901
75.0601
79.4467
79.4218
72.7629
73.7321
79.5714
82.1147
48.763
76.505
78.4774
83.206
71.0415
109.402
76.0248
77.5618
81.1841
78.1827
76.9013
75.1912
79.2956
46.6807
79.0047
85.0974
75.1013
83.0935
99.4082
109.452
100.976
76.9886
57.3205
77.7763
71.9961
76.3149
75.9905
83.717
76.6773
79.1053
76.0195
72.9768
80.8932
79.2357
77.1484
76.0854
79.8899
75.811
76.9059
78.2794
83.5683
20.4158
79.2726
106.65
81.2147
72.0103
76.8441
75.7703
78.2247
75.9149
78.5748
91.2941
69.2733
68.3158
72.9122
49.2692
80.6791
81.1639
73.2169
76.0246
75.0002
73.9299
72.9263
108.95
51.9894
70.6871
94.1717
78.0918
72.3031
71.282
93.438
78.2594
76.0837
79.1417
73.563
72.5212
86.6787
80.4149
82.5275
78.5329
75.2149
75.6397
92.1416
73.1126
75.0957
79.2541
109.151
53.4106
81.307
79.4405
72.6551
75.9166
74.8004
73.2464
77.7951
72.1791
74.4957
104.121
109.891
98.3013
70.2985
78.7636
109.045
108.426
110.982
78.994
76.0062
77.9112
85.8786
112.458
78.4712
77.4983
76.9887
78.4821
76.2529
78.6506
81.5034
56.9411
82.5827
84.4415
74.47
76.4771
101.677
110.658
71.6823
100.242
75.5781
73.4755
90.7641
78.7199
79.3713
76.0975
77.4501
78.9229
75.1501
73.254
104.996
46.6149
69.1012
47.1918
76.4949
80.1733
81.1067
76.957
74.5013
77.9725
73.4077
75.3726
72.136
72.0735
89.4721
103.871
77.0921
38.4307
74.3991
73.4024
72.9845
75.1537
75.8583
73.0494
77.358
76.1373
111.496
80.4055
76.3491
81.6835
99.8194
80.3397
79.4549
80.8037
79.722
74.6563
85.0214
59.1205
72.942
80.8088
80.2247
110.976
77.943
76.8551
82.055
80.1904
70.7134
79.0176
100.179
84.4323
102.696
71.1261
82.2336
78.6039
110.954
101.387
79.0928
72.7571
72.2971
109.119
80.8229
84.6131
41.566
107.153
75.66
111.173
57.7954
99.821
78.3297
77.7687
76.9003
98.4812
83.5669
110.762
86.0005
72.7544
58.1247
82.8879
105.437
80.8245
77.405
48.2125
109.263
71.5476
72.1995
95.6006
79.1453
76.1513
73.8254
76.8915
72.5272
71.8606
91.6251
77.0855
82.9151
76.0093
77.2789
80.1518
79.287
73.1922
74.7408
84.5045
78.8027
73.2856
93.4269
76.566
64.9293
73.3985
73.4208
76.1245
73.2599
72.5076
96.6209
77.308
72.4031
71.1033
94.3886
85.851
78.8893
85.2464
79.3982
76.1264
77.5771
79.2145
75.9653
111.105
44.6213
74.0316
76.8818
78.2115
74.0355
72.4207
111.006
73.6224
72.8219
76.5159
105.081
93.0304
70.7644
70.7769
72.4285
77.702
54.4136
76.9629
54.2202
81.394
110.968
74.4276
78.5071
75.9429
81.2564
110.746
111.92
103.876
89.7704
73.304
71.4936
77.6113
92.0351
82.0302
69.8207
73.687
91.7506
110.823
78.4346
76.7287
78.3988
97.9423
53.5472
78.786
83.8334
81.1143
83.0899
80.7186
71.5311
72.4469
92.8645
82.5801
79.1365
70.7462
82.5553
76.5967
36.8241
77.12
77.0588
72.8088
78.8805
109.205
76.533
84.2703
79.4939
73.1464
90.1559
82.5681
69.4071
72.9289
74.875
73.3033
74.8152
107.178
107.459
49.8665
78.1678
79.5143
79.3687
90.3495
82.6058
77.3204
84.5993
87.0949
72.8928
61.7831
109.149
79.7767
74.2301
76.5851
82.2548
106.404
76.1206
54.0198
80.9508
79.6066
53.0723
93.0996
82.2412
73.8729
74.5005
110.084
99.6768
78.7447
79.3182
68.5796
108.001
77.5023
82.8655
107.41
76.133
73.2979
76.0477
78.4639
83.3488
85.32
77.0044
77.6848
85.847
78.449
80.0574
78.6637
76.2884
104.817
78.8986
82.7669
78.078
77.0767
76.0874
72.4755
80.4257
109.247
109.419
58.192
72.8633
73.8083
83.1096
78.1258
56.1235
89.5927
67.7544
102.133
72.6327
72.1455
73.4946
75.9985
75.6321
90.3372
76.1744
76.5508
76.7455
75.2118
79.2706
101.759
75.4314
69.3245
94.7808
70.7205
72.5847
79.4368
96.9284
78.5511
76.4533
85.9316
78.7792
73.5805
110.839
94.6237
83.0101
70.044
57.4859
77.8716
76.919
72.7694
43.8219
83.1185
78.2441
87.1342
80.0293
80.7463
84.0486
79.2016
74.7412
72.6298
78.9058
78.9439
73.7771
78.4764
78.3773
78.8175
79.3789
82.7488
74.6584
83.6901
80.4474
78.2099
94.8847
83.078
73.6754
76.1703
66.4606
78.4873
110.165
85.4305
76.7143
79.6261
76.285
109.082
79.4871
82.796
73.6086
78.5215
82.843
53.137
82.2108
76.7503
89.2686
79.6087
83.4539
76.9615
79.229
95.902
59.9686
72.5877
86.3582
76.0367
77.4128
78.0541
75.8026
87.8251
91.7999
49.5625
65.9256
73.4565
78.5299
72.9024
72.3301
71.6354
88.9196
99.4736
79.0336
76.9509
78.0896
74.0495
83.2338
76.3952
81.6149
76.4938
82.83
83.438
84.3804
73.479
76.5109
77.6677
85.9193
76.447
109.236
79.0807
82.8495
70.8237
79.3638
82.0625
79.4577
76.6903
111.048
79.4884
111.09
78.8182
84.726
110.971
79.3036
82.7323
95.2447
78.1156
76.2034
74.2356
79.7576
78.1176
75.5371
76.6439
78.2188
73.7264
80.2667
78.311
82.0908
79.4007
80.194
73.9207
67.6315
61.7133
82.2281
90.9248
88.8593
74.1691
72.702
80.1138
79.254
74.4569
76.0452
75.4283
69.0654
80.0287
102.16
79.489
81.7682
80.9792
108.955
80.7658
71.2264
78.2044
78.2471
83.8985
72.8986
76.585
76.9416
80.6753
82.772
83.2768
78.7115
83.6905
78.4317
78.2912
72.649
78.1477
76.8296
74.6953
78.1048
110.213
79.2675
53.5729
80.3266
76.4692
78.3489
83.0176
74.1868
86.9411
78.1992
78.4629
82.1436
88.9434
75.2168
73.3124
78.7046
76.905
74.0526
73.4358
85.7205
83.3434
80.1999
79.7783
105.608
98.9669
78.1244
87.85
86.8685
80.1934
70.0836
73.2707
79.6995
27.8543
83.4578
79.5496
78.4753
109.145
109.406
80.3336
75.9142
77.3995
71.0969
77.5792
78.6505
81.7963
74.7848
75.5011
75.4511
74.4471
74.4275
78.4469
76.301
76.5836
77.2971
80.3086
77.9912
70.8262
76.9867
76.3338
75.1956
72.1902
88.8565
89.7555
84.0679
80.6759
82.9409
88.7192
78.6808
75.2873
80.799
90.3355
85.7659
77.5082
77.1291
101.309
72.4669
103.359
65.658
72.0841
88.3896
76.9315
101.669
91.7091
71.5269
74.74
82.7221
97.5276
79.8576
74.4859
78.6443
53.0146
79.4289
80.6014
75.097
76.2852
78.6336
84.1097
80.8285
101.816
76.0827
77.084
86.2689
71.8156
71.4498
80.5978
79.3485
71.0673
74.4604
108.928
110.473
77.0634
82.9827
78.3107
74.8721
68.4915
70.159
89.4661
111.764
100.857
83.6399
84.7476
78.4491
74.3239
69.9092
82.981
65.4866
75.5293
74.8324
79.3823
74.0087
67.7248
72.309
52.3426
75.5999
78.244
100.085
83.7118
71.6192
79.9431
82.272
77.1254
78.342
79.5855
76.4229
76.8451
77.9733
71.91
76.9921
72.7006
79.5581
74.6805
75.4565
75.293
66.4033
75.5469
104.463
82.4317
69.8846
78.1341
74.0493
94.472
70.9175
72.2465
73.4846
85.2451
110.66
54.6592
76.8264
80.102
80.1123
70.9011
78.4398
73.3127
75.0905
72.5678
76.4003
73.4898
74.776
73.8298
79.8988
78.4897
78.6609
82.8375
74.3734
79.0923
73.3645
96.4614
83.4579
110.416
109.815
72.9482
79.394
77.6871
78.2247
111.191
77.3908
74.1264
69.6269
79.1073
79.6384
77.8198
74.5398
76.1855
77.4541
80.2577
71.4463
81.8138
50.3376
76.2865
46.7901
51.572
75.8575
82.6679
79.4382
75.4973
75.9246
74.3464
69.7158
72.342
76.0828
69.9488
89.5798
88.2247
71.6554
73.0421
73.2594
71.1469
86.2078
78.4252
73.6728
110.469
80.0809
72.4162
80.2358
78.4843
74.5792
98.6757
76.5971
71.7038
71.7898
71.1845
73.8767
76.8218
80.4627
79.4239
82.9108
74.2949
116.094
110.04
79.3258
46.4566
110.689
74.9955
72.7013
79.6108
87.7413
79.9181
77.8324
76.0441
74.3639
8.81741
83.3498
72.8403
68.2617
95.5218
51.2375
100.004
76.5752
75.9273
77.6081
75.9089
76.5181
76.1472
75.8348
78.2667
76.6081
76.5718
76.3802
76.256
73.779
75.9808
77.7468
76.5603
76.1248
75.8607
76.0584
74.2653
76.7862
75.9978
77.728
78.4853
76.6097
76.421
72.5436
75.7161
76.4393
75.9614
73.5897
75.6882
77.9547
76.2467
77.7468
75.8887
76.2848
76.4931
77.6652
76.5428
75.9971
78.4453
73.7934
74.3584
73.8261
69.8819
56.1847
78.8899
76.3304
87.6449
78.3042
80.8466
80.2173
79.7601
80.4177
80.3487
76.7675
71.2723
45.9281
78.8719
76.6534
77.4592
80.4365
80.3412
78.4978
74.052
75.7152
74.8712
78.3291
77.3381
76.6991
76.4479
109.333
84.2659
73.5097
66.0629
75.5075
41.824
79.91
73.9745
65.415
91.7114
70.5752
76.2518
76.0959
72.113
105.207
83.1019
77.4076
75.0453
73.0357
81.7687
80.8427
9.40016
79.29
76.894
75.9114
73.1412
75.011
79.1314
125.405
73.3013
77.9008
76.4266
76.0888
76.2385
75.9275
75.9857
76.5722
78.2359
75.972
76.496
73.6739
74.842
78.5092
75.0721
75.9322
74.0471
76.5944
77.6796
76.1461
75.9822
76.053
76.1754
77.6485
86.3569
76.6043
111.531
94.5695
74.4371
81.7109
72.8484
79.6056
105.133
79.1798
85.6777
114.952
74.4106
73.9253
78.6672
74.2682
103.342
81.6225
66.0874
77.8874
78.2588
79.8492
74.1904
84.0215
79.7388
73.6031
83.9487
79.3039
78.1691
76.1523
76.2454
74.919
79.3958
72.4236
74.2427
78.2071
77.2462
79.5611
77.3338
74.4901
78.4295
80.042
71.9748
78.5778
78.6135
77.5852
79.1695
78.204
82.9953
70.7658
73.0318
75.6484
73.3659
71.6099
79.4885
83.0286
92.5716
71.5414
107.796
77.0648
78.6906
80.6049
77.2293
75.119
82.9994
79.1205
76.5901
72.1883
77.041
78.7958
72.2344
83.4801
78.4936
75.3488
76.752
79.534
80.1515
85.8044
81.6877
76.5574
75.3705
75.0504
72.7547
75.2336
69.9715
78.9265
75.7506
79.8403
75.0003
80.0555
73.0366
101.574
70.6444
74.9036
75.5438
83.1147
75.734
77.9434
78.1869
77.4329
72.2456
74.9053
98.2237
72.6208
80.1644
70.571
76.4446
104.342
103.684
77.1914
80.7413
76.3096
85.2461
74.6097
93.4831
80.0055
127.973
75.4858
73.8972
90.284
100.774
69.7244
73.451
69.0291
114.711
70.0503
93.4462
72.1471
117.525
65.3769
73.5423
26.7245
77.4022
74.3875
73.9011
77.4399
75.7309
72.9883
81.1871
75.2096
78.4055
76.0167
67.8033
67.5187
75.5267
74.4513
67.981
74.8631
67.3842
78.7081
68.1997
68.7772
73.9401
71.7053
68.2694
73.2484
69.5822
69.2595
69.8477
73.8466
73.3089
72.4565
52.1181
74.2486
70.8296
69.1827
73.7196
78.6481
79.6308
64.4433
66.1385
75.8537
78.4222
78.0472
75.641
65.8115
75.3099
74.2254
69.3017
73.0576
69.2036
74.4766
75.054
77.7635
106.065
74.8536
77.6495
77.8296
77.7108
78.5232
74.887
78.4604
74.0718
77.8944
78.5513
76.0571
72.9332
70.8444
73.2132
71.0611
79.5616
93.7322
79.4975
70.5186
70.0512
70.5088
91.6144
67.9047
79.5158
93.3468
91.8407
70.2569
69.0053
67.7358
78.6629
67.6053
90.0854
95.8688
79.4261
70.9177
93.6313
67.5925
92.6974
79.0995
79.4882
78.2934
69.9642
71.31
50.2649
79.5728
70.3555
65.7101
79.3768
69.9269
68.1256
71.2922
91.7136
89.9716
68.5844
51.0464
67.1739
78.0858
67.3114
79.3358
66.1781
66.3206
68.6873
93.1186
71.145
51.3267
65.2311
65.9788
68.181
67.256
50.1076
78.2273
132.263
67.9355
78.1753
62.7739
66.2605
78.7116
68.7292
89.5159
70.1477
68.224
50.8045
51.9803
77.8409
74.4368
76.5911
76.7711
75.5797
71.0239
69.6855
71.7525
75.0968
75.7509
78.4219
109.942
73.9918
78.0825
74.0536
73.4037
76.2159
78.0649
75.7483
72.8403
77.8403
70.027
75.6764
76.0197
72.9623
60.9928
67.3499
79.2301
75.9422
76.0151
76.3217
77.251
76.9809
77.8156
74.0866
75.7128
73.668
78.5185
67.6962
70.2552
89.4856
75.6727
73.1278
71.1679
73.7006
77.597
77.2998
77.9174
76.0104
76.3955
76.183
77.5721
75.5163
75.2733
51.0479
77.823
75.1329
75.8628
77.4556
75.2053
75.0945
63.4357
77.9204
76.1756
77.1808
76.0519
75.9426
74.182
75.3741
77.2436
75.185
77.8177
76.1739
78.0001
77.9484
75.3411
75.1289
75.2554
80.075
77.8944
75.9546
76.3477
75.179
71.3908
76.1969
78.3032
75.029
75.5163
77.2194
70.3934
67.3593
89.5492
73.8099
70.0327
76.1973
77.4618
77.8773
110.208
71.4605
71.8409
65.7153
77.3545
79.0428
68.7616
73.9884
63.182
77.3594
70.6882
77.3883
51.3962
101.783
75.9438
71.5285
72.3231
80.1809
74.3076
75.6888
77.9869
110.47
72.8101
65.4285
70.3455
71.1621
73.8487
75.7272
77.6385
90.4199
70.9571
67.9983
110.714
72.2964
73.1934
65.3623
63.3154
51.4661
101.638
76.0993
66.6764
64.4371
63.1914
80.0118
74.2297
69.8378
68.0256
70.6248
70.9119
73.2465
75.7188
77.54
69.3612
63.5043
70.6009
110.538
72.9367
76.1098
51.7656
53.3029
75.899
101.571
74.6256
71.6547
63.3922
71.1877
79.8316
79.9176
73.8537
68.9074
70.9137
70.0891
71.6419
92.6151
69.6892
98.5148
73.5386
65.3668
70.3802
80.0758
80.3177
69.7928
63.3181
65.7138
71.7336
76.5067
66.2333
63.3795
69.0994
69.2573
71.8849
73.4038
75.6529
77.3144
71.052
92.4811
69.9182
110.728
76.737
76.7916
78.5988
74.1226
65.3349
76.3176
75.8178
76.3201
53.1703
75.3664
85.5282
77.5326
81.4737
101.545
81.8707
78.1887
76.3883
72.3032
72.209
71.9724
74.1532
71.2364
81.3857
79.8533
74.1573
85.7591
81.2359
76.2587
75.7251
77.6405
77.7742
78.5476
76.1698
75.9966
71.9596
73.3079
75.6848
77.3322
68.7438
70.4923
81.8553
78.5215
81.1342
81.7139
104.73
79.0219
81.1663
74.3283
65.3826
77.5569
76.4612
51.3646
74.5788
78.741
80.1828
80.946
82.3178
74.1516
76.8457
82.1027
75.0618
73.1663
73.0088
70.7339
83.657
82.985
77.6895
77.6134
77.5435
76.5763
68.1926
76.2451
77.2212
76.524
69.9706
66.8293
85.1917
68.0922
70.1009
80.0829
76.9458
111.465
77.7835
77.5168
72.3867
75.5082
72.7254
73.2982
70.4635
72.6613
76.6225
78.365
78.142
77.5924
77.3104
73.5528
75.6225
77.2409
77.9366
77.9408
77.9829
71.5821
94.6242
70.8414
71.2092
75.8411
74.6413
76.2133
77.6055
75.097
72.8295
74.828
73.1846
77.8188
84.3896
75.9489
76.4528
82.9098
78.7275
103.829
76.1121
76.3582
77.6185
110.848
79.217
74.4039
65.2042
83.5796
72.1384
76.7963
74.7537
78.6659
76.4519
77.3346
77.8055
67.4351
77.0893
75.8423
77.8781
109.607
75.0449
74.5472
80.6699
78.9805
74.0717
77.7151
77.692
76.7088
75.5602
78.5389
73.9749
77.6891
76.3028
67.697
75.7217
81.0625
76.5767
77.6946
76.3523
63.8565
76.6891
79.2271
101.508
102.277
78.7777
77.7019
76.2673
77.4191
101.818
76.2085
75.1004
76.2332
75.9906
102.92
77.2105
76.273
69.1162
73.9724
77.0957
74.091
75.6322
77.5569
71.262
70.8287
69.606
81.8451
78.2587
80.5825
110.329
77.637
77.5984
71.9688
77.2606
73.1293
76.1423
76.1282
79.0758
75.2725
74.1971
76.6278
68.6336
67.9329
82.9124
76.5547
79.9634
74.4659
83.9046
76.0768
74.7688
73.78
75.7008
77.3575
82.4098
69.5026
66.5646
77.5434
78.5836
79.8872
74.0232
68.4526
78.7319
74.9279
70.7059
75.3034
76.7273
82.3639
75.2385
76.2924
66.8889
68.0633
78.3747
65.0088
87.6003
70.81
113.236
75.5987
63.7266
72.481
73.4753
76.8552
68.6297
77.9214
70.0746
77.511
104.849
71.013
94.0151
71.4918
78.8175
76.018
75.389
65.4897
82.3927
91.5263
65.3654
81.4157
86.7716
92.2653
70.1669
79.9725
74.6488
77.7528
75.2037
78.4682
110.907
72.7076
77.9911
72.8125
79.7208
48.0898
77.9708
75.0649
65.3751
68.8444
76.6187
75.1987
68.3252
75.5011
78.5422
73.8543
79.3053
78.6926
67.2289
70.1908
67.1913
75.9692
52.9813
76.9785
74.5574
96.4218
78.4665
71.3829
82.1106
33.0306
88.0243
80.0885
84.78
78.4879
82.7164
110.369
77.6349
77.9979
79.8563
118.005
82.6568
74.0022
69.5584
79.0748
73.3857
79.365
72.9398
77.5182
78.4791
74.9152
73.7355
102.87
75.2725
67.2303
77.4473
78.6296
79.1683
76.4635
77.4325
81.0168
75.9759
77.1407
122.127
75.9821
70.3546
73.9176
72.751
77.8443
75.0994
109.21
77.5215
77.8181
78.6908
76.5203
60.8403
109.791
77.3078
77.3169
69.606
80.1658
85.0594
86.8021
73.5355
76.4494
82.9608
75.0581
76.6771
72.7247
79.6104
80.9905
86.1226
69.6198
78.2931
67.6666
72.2953
76.3713
77.4446
79.9072
76.8463
79.4983
69.7405
78.0799
78.9017
72.5131
81.6306
68.3829
71.9323
69.0052
76.1521
79.0613
75.4734
86.0966
67.0915
75.8626
76.3123
74.0761
71.6719
76.2664
79.6597
82.2214
83.2245
77.6716
75.7125
77.2985
66.0074
77.8768
75.3315
77.412
74.8485
98.0119
66.7586
75.631
76.4423
87.0045
71.5429
69.1031
74.3549
76.157
78.4979
73.7892
96.6858
73.8557
77.0064
76.7909
75.6165
68.9315
80.3816
73.4519
76.7531
72.1352
72.3499
94.8693
75.7674
79.6602
88.7057
73.9386
75.6672
77.2905
73.9086
80.0551
77.0589
80.8413
79.1822
69.1636
77.1068
75.7937
73.6671
71.1401
77.5165
78.8065
78.7104
78.0937
81.187
79.6088
75.2217
74.2008
75.8347
77.473
118.417
93.3099
73.8867
77.5269
86.1678
94.243
93.7687
73.2683
72.4432
75.7752
76.4624
76.5768
78.8181
81.289
109.988
73.3061
78.0248
68.434
70.932
91.0341
78.4658
74.9301
74.6743
74.3036
75.6464
75.7882
73.8272
78.4918
47.8449
63.1615
79.2246
74.8726
79.3271
73.373
74.4349
73.6859
86.0457
79.5417
101.544
76.1831
73.1899
74.8617
77.0941
72.9125
79.3798
76.6615
74.2752
74.6934
84.3741
76.54
75.478
70.7214
109.106
79.1491
76.2628
70.393
72.1158
109.332
110.102
76.4979
76.7447
76.2843
77.8067
74.1291
76.78
18.0166
78.7741
104.421
71.1199
77.9136
79.9513
84.2982
107.649
73.4495
74.4586
75.9284
77.4694
77.7833
100.258
69.9483
73.9201
80.4076
81.3818
79.5144
78.397
75.9827
73.5174
82.8232
109.601
88.7915
78.3165
83.1001
73.8794
73.5443
76.6254
75.7544
76.2884
77.0844
79.7351
74.2465
79.507
69.455
72.8081
102.827
73.9857
79.4074
82.7941
76.6774
44.3208
74.6326
76.2236
74.2294
75.8485
77.4409
90.2932
78.1338
69.8716
71.5543
84.2144
76.3713
78.8214
76.8844
76.5539
80.1204
80.9841
76.6903
67.0635
73.135
77.9979
75.7573
76.6883
77.4359
68.58
76.3375
81.899
73.5077
74.7855
77.9901
82.8187
79.6453
75.5991
73.2766
102.776
104.513
77.0694
79.752
76.0867
78.3902
78.5434
77.7387
83.346
83.541
83.9066
73.469
86.2905
80.9741
77.7359
74.1928
76.3351
74.8586
78.7045
71.7924
72.2255
70.6402
96.0639
77.964
76.5885
75.7739
79.1578
75.9696
73.6539
76.7559
76.1784
75.7967
81.0646
78.3125
68.4573
85.4572
80.5617
84.5907
78.6449
74.1745
76.5191
76.1558
74.0277
83.0927
82.2501
77.8042
76.0839
78.7924
79.8675
75.9237
73.3164
79.866
78.5987
78.033
76.6581
77.9167
80.2137
79.3865
75.7932
76.8541
76.9949
83.2896
74.4351
76.1082
78.0337
69.8661
75.7151
77.9166
74.6683
77.6352
73.7285
76.0549
78.3198
109.774
72.5696
50.0124
86.0401
74.6325
73.607
78.136
77.4158
76.219
77.6768
78.8937
76.3827
77.8114
82.9502
85.1047
100.93
79.3431
75.7529
76.7991
78.7932
101.372
74.5193
80.4927
76.5483
78.9594
100.667
67.61
73.2808
76.3298
72.9207
110.992
82.3248
73.9345
78.4264
91.8517
71.1306
85.225
78.1244
73.6358
75.9839
76.5985
75.1284
76.7977
78.3003
75.5362
78.1774
76.5105
77.6461
74.3906
77.0811
78.4967
75.0037
72.179
77.0857
78.5456
80.5083
79.7911
78.1988
77.5228
74.128
80.3665
71.9232
79.7943
99.8097
78.6443
72.6822
76.3397
43.698
77.8054
106.449
78.3895
77.927
80.1779
69.0435
77.051
75.7622
71.9865
80.0608
69.2506
76.2795
78.5809
102.199
72.4061
71.8243
76.3006
77.7531
111.841
71.0601
74.7628
78.184
75.6727
73.4972
80.8354
77.2245
72.3617
74.1435
76.1317
77.6408
76.4413
75.2323
77.833
74.4797
80.9677
69.3418
74.579
75.1147
65.4442
56.6477
83.0421
91.7978
72.8573
77.5462
109.755
63.2656
95.9465
81.6291
74.2893
76.068
77.6476
73.2151
87.1365
73.6486
76.9038
77.8432
80.2004
71.4379
103.587
113.124
73.8871
95.5899
82.0074
109.042
79.7686
73.3033
74.7294
75.6454
71.9948
79.9609
94.6745
70.3205
78.367
76.4715
78.4189
109.646
73.8977
95.8066
72.8332
71.4074
65.5057
74.119
77.6396
77.9383
75.6442
74.5258
77.2349
78.6264
75.0105
75.563
76.1726
71.5585
75.5779
74.2576
83.3105
83.3772
36.5639
109.24
79.6282
78.2305
79.3307
70.3678
76.4505
68.1564
77.2473
81.2182
77.2794
76.2841
77.9313
93.8188
71.7306
70.9737
92.8107
77.5052
76.3906
78.7501
83.1676
31.28
69.3874
70.0489
89.4266
71.7868
86.2316
84.644
82.7618
85.9338
78.1063
81.4961
72.3461
111.305
80.3223
78.6652
80.2213
83.8462
40.6256
75.6987
75.6684
74.8211
70.7617
66.5902
68.7744
80.4306
92.9669
73.045
80.1168
76.5552
101.058
73.7643
69.5361
75.2129
74.0737
75.9173
77.1011
80.5472
80.0259
78.4688
76.677
92.399
74.7652
91.7537
73.8864
72.7471
84.3592
78.9888
111
78.2543
79.7124
86.1793
96.4376
72.2368
71.4908
77.0107
75.7977
72.8929
77.6376
108.483
73.2959
84.902
76.5439
77.0196
85.2651
107.809
109.029
68.7026
77.0225
80.8479
80.884
75.9199
76.9126
71.1923
85.195
81.4202
78.5641
79.1724
78.4167
76.0978
66.0151
78.5479
108.856
80.9347
74.6239
76.2232
74.0448
73.8333
102.82
79.5637
75.9005
101.194
78.6755
98.1566
92.2159
81.1227
108.32
76.4571
109.096
85.1893
76.0923
77.138
85.2436
73.6718
89.8899
74.4513
83.7857
24.5999
79.6411
107.461
76.5867
87.8884
74.3582
88.7385
72.3358
108.106
108.951
79.1147
93.0903
82.3038
74.5335
76.2378
78.3171
74.4899
76.8156
89.4106
79.241
91.0586
89.4539
81.2786
75.8496
77.0679
110.261
75.0056
76.6116
75.9186
82.2527
73.0768
83.1362
83.5615
78.7961
92.9215
71.8915
76.2414
75.1325
75.8777
79.4703
91.2396
109.405
73.2151
95.4571
87.7496
74.0177
79.6846
79.7381
79.3763
80.6803
79.5207
109.151
82.6557
75.5597
82.5046
74.8299
96.4779
69.4067
73.0019
65.5518
71.9031
75.1206
76.8355
72.7985
76.5512
80.2175
77.2617
71.5412
69.8414
74.3851
76.3262
94.0567
84.8221
85.5105
79.4364
79.588
70.9042
90.2813
77.2457
74.6898
71.0936
79.4514
77.7306
71.6826
76.1737
52.5139
78.8467
80.3114
84.6873
75.822
75.3976
77.3956
108.829
77.9662
101.507
79.3522
76.4913
68.4774
76.5715
79.1147
75.7587
83.3538
86.6469
71.7924
95.731
71.8527
76.7308
77.9715
77.3385
70.4026
72.4875
52.5336
49.8243
75.5338
69.2986
71.7833
73.5035
77.9422
76.2931
74.4665
78.9819
75.812
76.4285
78.2981
71.1638
76.3005
75.8889
65.917
111.271
76.6366
71.3881
73.6762
71.6196
88.6251
77.3928
75.3193
72.695
85.7059
97.5054
72.9763
71.9356
73.8721
74.6618
42.8974
74.8621
78.4838
91.9496
109.7
79.5262
82.9703
78.453
76.8484
73.2307
74.6859
73.6746
86.0887
78.5514
77.4278
75.7301
75.3802
77.3326
76.336
75.9648
71.5224
93.6484
67.8591
69.6926
81.7656
75.8475
77.2683
68.571
72.7168
89.7209
69.9564
71.4884
72.4929
72.6002
78.1997
71.1613
66.7671
62.432
85.2513
77.1079
95.9956
106.21
124.46
85.1911
85.4526
111.52
75.0789
76.0149
78.042
105.927
76.3827
81.6034
8.08963
82.8976
73.529
72.3785
78.9072
76.0541
77.5673
74.9849
73.7547
80.3769
72.8906
78.6205
74.0291
82.4675
74.2634
111.031
78.7405
95.9823
73.6267
71.9377
73.7891
76.6001
77.8807
78.2303
71.4618
72.4844
76.5292
82.5096
30.0966
97.8355
73.4243
73.6116
79.092
80.2172
69.6935
76.4348
73.6199
72.6639
78.2804
78.2586
78.9791
74.0025
85.2457
74.5612
76.2986
76.6323
73.2989
102.323
77.3409
77.2664
75.9742
75.8702
83.6173
90.1897
70.3596
82.5661
72.3634
71.8031
72.0849
74.373
73.8784
74.7679
76.7485
73.6518
74.112
78.9372
110.997
76.466
77.8432
110.778
78.0052
84.8869
78.2266
62.708
84.3177
84.0848
78.7428
81.5581
78.6224
81.6638
81.7809
84.9585
83.1182
81.8897
74.5241
68.9168
76.1022
75.0569
87.7782
79.682
70.7611
79.5366
76.6747
76.4859
83.5838
78.0088
68.8196
77.3576
83.5206
76.071
78.4358
78.5268
78.5816
82.2334
54.6543
73.0308
76.5225
77.8839
77.8054
76.5615
75.8337
75.9108
77.5309
76.721
72.0666
77.9365
107.59
78.8328
79.4239
77.6712
71.8532
75.457
82.6904
77.5912
74.6783
76.6687
73.6799
72.524
78.7867
77.4962
98.9031
95.4364
72.2755
70.7368
75.1312
78.352
79.6007
73.3247
75.5548
109.787
84.4316
74.1624
99.7882
80.2995
65.8728
71.9734
74.0929
76.6098
67.0816
80.1058
84.8011
74.0741
72.3355
85.0541
81.4568
82.8019
71.9576
113.5
69.9823
81.6246
78.0547
80.3642
80.5304
98.0317
108.621
77.8074
75.6811
73.3921
93.5565
65.5553
74.7972
78.1141
76.2285
74.2106
75.1285
73.1155
74.4138
77.2296
79.5237
70.4703
69.9861
89.6118
79.386
78.538
69.0052
68.1739
75.8381
85.8789
67.3787
75.2845
68.5869
76.8124
76.2052
79.1725
82.9243
77.0649
14.1706
81.6272
77.6279
74.3287
72.8796
77.1916
76.3101
73.9513
78.2792
75.8753
78.5157
72.8624
83.8811
105.713
71.871
109.605
76.0429
76.9679
80.9641
76.4129
74.3195
73.2441
47.4712
101.611
82.5859
80.0193
73.992
76.4421
69.3756
67.8579
84.8362
75.9825
83.1609
82.8097
77.1674
84.586
41.9981
77.6747
74.516
76.0342
65.7237
75.1556
75.6071
71.3876
75.4783
49.4511
68.6171
76.3146
70.5781
77.1345
77.4597
73.2426
71.9632
78.1065
81.691
93.3846
79.8433
68.6978
74.9118
72.0517
73.9967
70.5593
78.2712
111.565
102.245
76.9528
67.1133
76.3455
76.5674
72.8638
77.9092
71.3572
101.257
82.3945
84.28
77.029
72.8354
73.9944
72.3331
84.2784
77.8573
95.7257
72.1139
69.3656
75.8766
77.5334
111.015
79.5239
73.9011
72.4209
79.9454
69.223
72.1082
42.8474
92.0404
76.3439
76.4464
62.6577
70.4445
76.2938
74.1072
72.9801
75.9406
79.509
78.106
76.7353
110.821
73.1211
77.875
80.6719
77.8655
51.948
76.3566
70.6089
94.3191
67.9837
76.4215
80.8405
83.0289
76.1181
77.9609
76.7446
71.869
75.8756
76.4662
74.04
108.816
76.4681
77.4681
78.2311
75.7961
65.9052
67.9237
70.3879
69.9406
74.0705
72.4987
74.1549
83.3507
77.7585
76.7998
100.288
62.3637
71.2355
51.6393
75.9873
76.8322
70.233
69.0323
75.9724
81.0203
67.0571
78.7312
102.34
72.6609
69.035
96.1167
107.883
100.213
77.4523
77.9095
84.011
77.1012
74.3624
68.1545
68.1101
67.2565
72.9618
91.58
90.9745
85.032
76.65
75.5408
71.1877
83.2162
79.7803
79.3884
85.5439
78.6783
77.5624
108.744
74.1741
74.4427
74.8306
71.898
75.1669
77.3374
75.2268
79.6642
75.7504
75.1846
77.3925
65.8471
70.7564
69.5738
73.9557
72.548
72.1917
75.4781
71.9095
71.6886
83.4361
91.7664
76.557
75.2441
76.3947
76.5508
97.2246
105.745
76.4914
81.4089
99.5042
70.1879
84.9231
76.1702
77.755
75.7847
77.4998
74.4738
79.0562
77.8189
77.444
78.3275
78.4636
110.314
72.0436
79.1286
80.9891
78.4436
76.5926
80.6647
71.7738
76.931
75.7571
82.7555
104.611
76.7206
74.2019
66.0287
75.8913
70.2025
73.334
73.8363
69.8214
80.4028
79.3584
74.9892
76.5559
54.2731
78.0344
109.315
77.7328
73.4218
70.2604
107.361
77.2253
46.0961
83.4472
78.9453
79.1421
79.3116
80.2194
78.3461
76.7014
77.0296
79.4645
74.3912
76.487
78.1162
75.2039
76.7614
83.533
109.926
74.1257
72.0496
73.8045
76.0838
78.9634
76.7478
90.6269
69.9254
71.8613
82.8703
76.2673
81.5712
69.3425
82.9393
101.861
77.9945
79.1996
78.5177
75.2556
111.071
73.0937
78.9273
72.0082
72.5368
74.8864
76.5815
73.4178
109.885
85.4227
78.0909
76.642
72.8821
83.2256
80.3873
66.6849
75.7972
77.6913
78.6483
74.2761
50.5591
74.6408
75.2217
93.8
110.997
76.317
82.7385
78.8062
109.335
74.397
82.1121
76.6658
47.4914
51.9583
78.0692
51.2599
78.0546
48.1483
72.8725
93.8431
76.8091
76.675
78.8102
78.7351
78.593
78.6645
76.2995
76.3072
76.292
76.2348
78.8957
76.1264
53.9594
73.1021
72.6355
72.0921
72.3047
49.7201
73.6098
72.3153
71.7114
73.2202
72.4609
71.4029
57.2719
44.0463
71.3386
62.6234
59.9171
71.6058
73.7354
78.8964
78.1829
78.5602
79.1176
71.5505
76.0285
77.851
73.1448
78.9847
73.3583
71.5429
74.6015
72.1801
77.6551
79.4131
95.5404
96.8981
73.4358
81.0008
78.3584
71.8356
77.3353
83.1121
95.1986
99.8349
88.6817
85.95
104.053