/*--------------------------------*- C++ -*----------------------------------*\
| =========                 |                                                 |
| \\      /  F ield         | OpenFOAM: The Open Source CFD Toolbox           |
|  \\    /   O peration     | Version:  v1912                                 |
|   \\  /    A nd           | Website:  www.openfoam.com                      |
|    \\/     M anipulation  |                                                 |
\*---------------------------------------------------------------------------*/
FoamFile
{
    version     2.0;
    format      ascii;
    class       surfaceScalarField;
    location    "0.35";
    object      phi;
}
// * * * * * * * * * * * * * * * * * * * * * * * * * * * * * * * * * * * * * //

dimensions      [0 3 -1 0 0 0 0];
oriented        oriented;


internalField   nonuniform List<scalar> 
11117
(
-4.4303e-05
2.80367e-05
2.2017e-05
-5.75071e-06
4.2598e-05
0.000205679
-2.3797e-05
-0.00022448
-8.02964e-05
0.000101649
-4.21745e-06
-1.71347e-05
-0.000502391
5.0796e-06
0.000218914
0.000278397
0.000152776
0.00031906
-0.000233081
-0.000238755
-3.88576e-05
6.72441e-06
-0.000180733
0.000212866
-0.000659623
-0.000136162
0.000610644
0.00018514
0.000463007
6.88782e-05
-0.000423203
-0.000108682
0.00125254
0.000244517
-0.000887453
-0.000609599
0.000334491
-0.000306824
4.66195e-05
-7.42865e-05
-0.000887648
0.000958983
0.000306476
-0.000377811
7.94443e-06
-0.000135951
3.37585e-05
9.42481e-05
-0.000449274
-0.000232939
0.000284761
0.000397451
0.000246382
-0.000318858
0.000174545
-0.000102069
0.000136518
-0.000106523
6.25255e-05
-9.25208e-05
-4.7104e-05
3.70001e-05
-5.87431e-05
6.8847e-05
-0.000136578
0.000423984
-1.73127e-05
-0.000270093
-0.000360471
0.000452731
0.000265348
-0.000357607
0.000139399
0.000213482
-0.000216363
-3.21539e-05
1.69757e-05
0.000131459
-0.000116281
-0.000330791
0.000176759
5.58008e-05
9.82309e-05
-1.74962e-05
1.55961e-05
9.534e-05
-9.344e-05
0.000652751
0.000542745
-0.000493427
-0.000702069
-0.000197532
-0.00024154
0.000218125
0.000220948
-0.000178184
-0.000169922
0.000170819
0.000177286
0.000839063
-0.000863243
0.000309464
-0.000285284
0.000258996
-0.00031316
0.000919495
-0.000865331
-0.000328837
0.000326271
-0.00063751
0.000640076
0.000167146
-7.53224e-05
0.0010193
-0.00111113
-6.04301e-06
8.49084e-06
-1.67997e-05
1.43518e-05
-9.11348e-05
0.000283969
-1.56905e-05
-0.000177144
-5.98305e-05
-0.000232448
0.000210387
8.18921e-05
-0.000109216
-0.000467609
0.000374933
0.000201891
0.000114501
0.000135583
-0.000173657
-7.64264e-05
0.00029071
-0.000190378
7.17542e-05
-0.000172087
-7.4209e-05
0.000109869
5.80839e-05
-9.37444e-05
0.000593893
-0.000819442
0.000999342
-0.000773793
3.68478e-05
-0.000110524
4.27499e-06
6.94012e-05
0.000554403
-0.000140292
-0.000738935
0.000324825
0.000318423
0.000235977
-0.000290998
-0.000263402
-0.000125385
-4.67932e-05
1.2698e-05
0.00015948
-0.000238485
-0.000117393
0.000126
0.000229878
0.00100191
0.000880993
-0.00088501
-0.000997888
-0.000142945
2.81627e-05
-2.18235e-05
0.000136605
0.000109465
0.000122488
-9.25546e-05
-0.000927594
0.000744179
-0.000232085
0.0004155
-0.000391274
0.000277679
-7.68056e-05
0.000190401
0.000359684
-0.000399881
0.000225386
-0.000185189
-0.00018622
0.000180506
-0.000106589
0.000112303
-0.00010603
-4.30265e-05
0.000149057
3.14706e-05
1.95209e-05
-5.09914e-05
-0.000364409
-0.00117838
0.000533191
0.0010096
-3.54298e-05
0.000104944
2.34942e-05
-9.30088e-05
0.000139729
-0.00013293
0.000122477
-0.000129277
1.50826e-05
-1.50826e-05
0.000424144
0.000174221
-0.000554175
-4.41892e-05
0.000136112
8.63772e-05
-0.00019742
-2.50689e-05
-0.000158215
-0.000117306
0.00024141
3.41112e-05
0.000876289
0.00011412
-0.00135334
0.000362933
-0.000430698
0.0007015
0.000568262
0.000854208
-0.000866788
3.71714e-05
-2.45911e-05
0.000208562
-0.000103861
-9.91032e-05
-5.59774e-06
-0.000136526
-0.00015562
0.000201012
2.78315e-05
-2.1138e-05
-6.6524e-05
0.000117912
-2.29357e-05
-0.000204192
-4.69879e-05
-0.000198016
0.000162679
8.23254e-05
9.33085e-05
-5.75539e-05
1.15042e-05
-4.72589e-05
7.13763e-05
-0.000144944
7.35673e-05
-0.000256313
-0.000158599
0.000186958
0.000227955
4.88465e-06
6.74274e-05
6.53469e-08
-7.23774e-05
0.00049949
-0.000157734
-0.000706165
-0.000134256
0.000140824
8.67398e-05
-0.000275749
-0.00130643
0.0013451
0.00023708
6.36956e-05
-0.000136295
6.457e-05
8.02914e-06
-0.000343007
-0.000273777
-0.000375306
0.000255808
0.000372223
-0.000252725
0.000191684
-2.62603e-05
-0.000165424
-0.000830756
-0.000177361
0.000144874
-0.000138908
1.46494e-06
-5.50126e-06
-6.23706e-05
-5.30873e-06
6.76793e-05
3.32229e-06
2.77334e-05
-5.30169e-06
-2.5754e-05
0.000122712
3.97345e-05
4.04739e-06
-0.000166494
-0.000105465
0.000159456
-0.000142465
8.84747e-05
-0.00030252
0.000268381
0.0002952
-0.000261062
-8.67905e-05
-0.000234556
0.000189954
0.000131392
6.20264e-05
-0.000523682
0.000461655
-1.02095e-05
-0.000467764
0.000477973
3.48574e-05
-0.00049099
0.000456132
1.91248e-05
-4.00054e-05
-0.000115809
0.00013669
-7.46709e-05
0.000125617
0.000373983
-0.000424929
0.000532477
-0.00016032
8.17098e-05
-0.000453867
0.000631676
4.14376e-05
-3.66761e-05
-0.000636438
0.000756832
-5.52423e-05
5.99835e-05
-0.000761573
-0.000698746
3.8716e-05
-2.71518e-05
0.000687182
-0.000652191
5.56952e-05
-2.67252e-05
0.000623221
1.87513e-06
0.000206833
-0.000298073
8.93645e-05
0.000596501
2.11246e-05
-2.20023e-05
-0.000595623
0.000724471
4.77484e-05
-3.3638e-05
-0.000738581
0.000588426
5.03059e-05
-2.36297e-05
-0.000615102
0.000827239
5.37378e-05
-2.67686e-05
0.000404606
7.67016e-05
-0.000423799
-5.75093e-05
-0.000129333
6.05377e-05
5.54264e-05
1.33684e-05
0.00030672
-0.000377741
-0.00116408
0.0012351
0.000398952
0.00023146
-0.000492969
-0.000137442
5.27532e-05
-7.40614e-05
3.04949e-05
-9.18674e-06
-0.00103191
0.000257785
0.000955848
-0.000181727
4.65159e-05
-6.36564e-05
0.000161208
-0.000144068
2.74874e-05
1.60095e-06
3.5135e-05
-6.42234e-05
-0.000223071
1.08046e-05
8.52177e-05
0.000127049
-0.000123968
8.55977e-06
-2.35e-05
-0.000260139
0.000117201
0.000136324
6.61387e-06
0.000162513
3.99146e-05
-0.000171668
-3.07604e-05
-0.000416115
0.000340308
-0.000193926
0.000269733
-2.44557e-05
3.89718e-05
4.46231e-05
-5.91392e-05
0.000108821
0.000564871
-0.000647067
-2.66244e-05
0.000119914
0.000648665
-0.00073153
-3.70482e-05
-7.9904e-06
-3.3608e-05
1.65258e-05
2.50726e-05
-0.000563939
0.000507655
0.00102842
-0.000972135
3.09451e-05
-1.72821e-05
-0.000880451
-0.00103614
9.26411e-05
0.000958026
-1.45253e-05
0.00113165
-0.000791004
-0.00090459
0.000166705
-0.00013361
-3.30945e-05
0.000130679
-0.000133925
0.000204057
-0.000200811
-0.000433873
-0.00027027
0.00011501
-4.50116e-05
-8.93079e-05
1.93092e-05
-0.000368384
0.000419873
0.000643204
-0.000694693
-0.000135913
0.000178181
-0.000130729
8.84617e-05
1.492e-05
0.000196429
-0.000180817
-3.05319e-05
0.000571536
-0.000875569
-0.000109231
0.000413263
4.88299e-05
-5.56451e-06
4.81358e-06
-4.80789e-05
-0.000157415
0.000338192
-2.98329e-05
-0.000150944
0.000127745
6.25815e-05
-0.000189731
-5.95604e-07
8.96188e-05
-3.51072e-05
-5.6919e-05
2.40738e-06
-0.000782231
0.000107576
-0.000156101
-0.000357187
0.000326773
-0.000778904
0.000809319
-2.75529e-05
-5.39737e-06
-7.35725e-05
-0.000448252
4.27159e-05
8.62211e-06
0.000396914
7.10979e-05
0.000169961
-3.24973e-05
-2.33748e-05
-2.18351e-05
3.46578e-06
4.17441e-05
-2.46705e-05
2.94171e-05
8.28283e-05
-8.75748e-05
-7.71121e-06
-0.00032204
0.000122839
0.000206913
0.000153815
-0.00087484
0.00089495
-0.000173924
8.42085e-05
-7.30476e-05
0.000165984
-0.000177144
0.000931568
-0.000501802
-0.000436478
6.71318e-06
-2.04501e-05
-2.45047e-05
1.97137e-05
2.52411e-05
-1.2542e-05
0.000394324
-0.000135098
-0.000246685
0.000307102
-0.000163038
-1.33841e-05
-0.000445909
0.00100007
-0.00057473
2.05677e-05
8.19383e-05
0.000257323
-0.000117358
-0.000221903
-0.000510151
0.000909244
0.000163004
-0.000562097
0.000924741
0.000448139
-0.000612236
-0.000760645
-4.66608e-05
3.15283e-05
-4.94044e-05
6.45369e-05
-0.000565239
-7.30171e-05
-0.000393651
4.37232e-05
-8.6583e-05
-4.39078e-05
8.67677e-05
-0.000660949
-0.000379274
0.000670519
0.000369704
0.000457387
-9.96987e-05
-0.000357688
0.000251883
1.21279e-05
6.13029e-05
-7.34308e-05
0.000931058
-0.000224146
-0.000706912
-4.99426e-05
-0.000255043
0.000140338
0.000114705
0.000128381
-0.000512666
0.000384284
0.000285652
-0.000379228
9.3576e-05
-0.000116185
0.000383326
-0.000267141
-0.000457742
0.000519522
-6.17804e-05
-0.00045893
0.000455867
3.06301e-06
-7.76987e-05
-7.88613e-05
0.00015656
0.00030659
2.19242e-05
-0.000328514
-0.00025295
-7.18963e-06
0.000125386
3.71273e-05
5.74153e-06
-2.94875e-05
2.3746e-05
0.000202683
0.000184548
-0.000387232
0.000286402
-0.000324698
3.82959e-05
-0.000362576
0.00041415
-5.15734e-05
-1.8735e-06
8.65542e-05
-8.46807e-05
-0.000700623
0.000839149
-0.000138525
-0.000160676
0.000118692
4.19836e-05
0.00023808
-0.000390297
0.000152217
0.000280497
-0.000532276
0.000251779
0.000945231
-0.00102894
8.37125e-05
-0.000320904
0.000324673
-3.76895e-06
-5.25857e-05
0.000126428
-7.38426e-05
0.00029335
-0.000353019
5.9669e-05
-0.000294682
0.000338995
-4.43127e-05
-0.00016361
0.000236637
-7.30271e-05
-0.000149852
-0.000156961
0.000306812
-0.000147504
1.81711e-05
-0.000211524
0.000118719
9.28055e-05
-0.000279401
0.000220711
5.86907e-05
5.26163e-05
7.92139e-06
-0.000214674
-0.000672974
-0.000178733
-5.37154e-05
-0.000383559
-8.40496e-05
0.000338278
-5.43088e-05
0.000242662
-0.000114916
-9.37314e-05
-6.36835e-05
-0.000394547
5.56313e-05
0.000338916
-0.000784096
0.000209997
0.000574099
6.03807e-05
0.000153101
-0.00108175
0.00138847
0.00058161
-5.56166e-06
-0.000576048
-0.000967817
-0.00021056
0.000146782
0.000212902
-6.74491e-05
-2.34359e-05
9.0885e-05
-0.000346341
-4.4933e-05
-0.000780019
-0.000147574
0.000194085
-0.000335205
0.00014112
3.57067e-05
-1.17225e-05
1.17759e-05
-3.57601e-05
-0.000108058
5.59941e-05
0.000568695
-0.000516631
-0.000833859
0.000865348
0.000596857
-0.000628347
-6.0407e-05
1.73902e-05
0.000113398
-7.03809e-05
-0.00116942
0.001127
-5.21555e-05
9.45718e-05
5.95681e-06
-2.05507e-05
-0.000101591
0.000347816
-0.000289092
6.96572e-05
-0.00031565
0.000479914
0.00039842
-0.000562684
-0.000211717
0.000273828
0.00018423
-0.000246341
0.000222635
-0.000356239
-0.000648039
0.000781642
-7.36952e-05
8.17101e-05
8.16039e-05
-0.000205704
5.06244e-05
0.000600057
-0.000444977
0.000809276
-0.000703144
-0.000195878
8.97451e-05
-0.00138075
-3.51145e-05
0.00024645
0.000254143
-0.000308517
6.42706e-05
-9.89632e-06
0.00024107
1.58546e-05
-4.70453e-05
-0.000209879
0.000716531
-0.000194794
-5.98808e-05
-0.000461856
-0.000381241
-0.000271392
4.71948e-05
0.000605438
-9.55318e-05
5.82091e-05
0.00121125
-0.00117393
-5.98497e-05
9.98465e-06
4.9865e-05
2.72724e-05
-0.000128268
-3.68111e-05
0.000137807
0.000241663
8.91664e-08
5.63282e-07
-0.000242315
8.0781e-05
-7.25791e-05
-5.59634e-07
-7.64226e-06
-8.76267e-05
0.000180116
-0.000190781
9.82921e-05
9.73179e-05
-0.000117804
0.000253528
-0.000233043
0.000143388
-0.000219226
-7.47577e-05
0.000150596
0.000123339
-3.07524e-05
-0.000207717
0.00011513
5.94047e-05
-6.66335e-05
1.67962e-05
-9.56731e-06
2.2136e-05
2.16863e-05
-0.000871751
0.000827928
-5.65279e-05
1.4151e-05
-0.000712846
0.000755223
0.00089173
-0.000895668
6.85173e-05
-6.458e-05
0.000187574
-0.000289572
-0.000156808
0.000258807
-9.7302e-06
-9.84329e-05
1.47298e-05
9.34333e-05
-0.000225697
2.44121e-05
0.000150123
5.11621e-05
0.000160475
-0.000147415
9.33927e-06
-2.24001e-05
4.98645e-05
0.00061206
-0.000335005
-0.00032692
1.4445e-05
9.44538e-05
-6.51756e-05
8.53257e-05
-6.79465e-05
-2.93424e-06
-2.32979e-05
4.04393e-05
0.00010006
-0.000179577
0.000161042
-2.04789e-05
3.90141e-05
0.000286718
-0.000259501
5.47216e-05
5.37241e-05
-0.00055894
0.000505216
5.66254e-05
-0.000580356
0.000523731
2.97728e-05
-0.000403626
0.000373853
0.000116255
-0.000120239
-4.30041e-05
-0.000551805
-2.7007e-05
5.67517e-05
-7.48681e-05
4.51234e-05
-2.32434e-05
3.31948e-05
-0.000955041
0.00094509
-0.000224251
-0.000466825
0.000535073
0.000156004
0.00104876
-0.000448195
-0.000802522
0.000201955
-0.000653759
0.00116399
-0.000867911
0.000357679
2.21726e-05
-4.99007e-05
6.34348e-05
0.000151393
4.21186e-05
-7.85013e-05
-0.000657971
-7.71766e-05
0.000322084
0.000413064
-0.000136712
3.20882e-05
0.000110581
5.34187e-05
0.000350168
-5.57705e-05
7.18029e-06
0.000127953
-5.74308e-05
-7.77021e-05
-0.000186821
0.000105605
8.12162e-05
-0.00034131
0.000408552
-6.72419e-05
0.000902438
-0.000723837
-0.000688753
0.000113179
-0.000405451
0.000355386
-6.31142e-05
-0.000238544
0.000134894
-0.000576244
3.5671e-05
-6.29271e-05
0.0006035
-0.000287633
4.3084e-07
-7.90477e-06
0.000295107
3.72383e-05
-8.64163e-05
0.000228933
-0.000179755
-5.62579e-05
-0.000110732
0.000144288
2.27022e-05
-0.00031398
0.000499556
0.000347615
3.08759e-05
-0.0010643
0.00109091
-5.74828e-05
5.62486e-05
6.16847e-05
-3.71523e-05
-9.01394e-05
0.00013954
9.0329e-05
-4.5634e-06
-4.53541e-05
6.94465e-06
4.29728e-05
9.87865e-07
9.72473e-06
-1.02966e-05
-4.15989e-07
2.8701e-05
0.000248925
-3.91942e-06
-0.000273707
-0.000588312
-0.000398365
0.000202581
-0.00033371
-6.04374e-05
0.000286832
0.000107316
1.88105e-05
-2.87132e-05
-0.000115482
6.39872e-05
-7.96168e-05
-0.000222855
-0.000326743
0.000200578
0.000444587
-0.000579207
1.49847e-05
0.000572667
-8.44478e-06
-0.000629942
1.01959e-05
0.000645113
-2.53666e-05
5.81172e-06
0.000633377
-0.000615392
-2.37975e-05
-3.62037e-05
0.000586899
-0.000575403
2.47078e-05
-0.000663532
0.00113619
-0.000829843
0.000206045
-9.79916e-05
-0.000119805
1.17511e-05
5.28786e-05
-8.07285e-05
0.000123695
-9.5845e-05
-0.000274682
0.000122328
0.000243127
-9.07737e-05
0.000207093
-0.000171047
2.91154e-05
-6.51616e-05
-0.000966007
0.000104129
0.000950851
-8.89724e-05
-0.000110898
0.000651307
-0.000705765
0.000165356
-1.68548e-05
0.000100301
-3.6662e-05
-4.67838e-05
0.000231224
-0.000194737
-0.000195379
0.000158892
-0.000351548
0.000156299
0.000685625
-0.000490377
7.73073e-06
0.000146104
6.23522e-05
-0.000216187
6.20106e-05
-0.000116567
0.000177269
-0.000590322
0.000578813
1.13553e-05
1.43193e-05
-2.23523e-05
0.000264379
-0.000215707
1.19254e-06
-7.27722e-05
-0.00012124
9.83837e-05
9.56285e-05
4.47581e-05
-1.85519e-05
0.000341072
-0.000367278
4.72211e-06
1.34107e-06
-5.07532e-06
0.000197098
-0.000139634
-0.000216063
0.000744348
-0.000389534
0.000345911
-0.000176157
-6.03658e-05
0.000109732
3.82426e-05
-3.91828e-06
6.84393e-05
-0.000102764
0.00040375
-0.000685348
-0.000552261
5.62846e-05
-5.11731e-06
-7.56229e-05
-0.000424576
0.000470352
0.00100813
-0.0010539
0.00084461
-0.000169882
-4.8118e-05
-0.00062661
7.67621e-06
1.51e-05
4.71124e-06
-0.000818031
0.000134168
0.00101013
-0.000223744
6.18592e-05
-6.11861e-05
0.0002775
-0.000832542
0.000722187
-1.97611e-05
-0.000139005
0.000239565
-8.0799e-05
-0.000320909
0.000225711
-0.00035677
0.000451968
-0.000765286
0.000682824
0.000590117
9.40441e-05
0.000316054
3.44521e-05
-4.23584e-05
2.6986e-05
-1.90797e-05
-7.33269e-05
-0.000278133
0.000211168
-5.17554e-05
6.8917e-05
0.000157503
-0.000174664
-8.5787e-05
-0.000206612
0.000818269
0.000140714
-2.25854e-05
-7.98482e-05
5.15009e-05
-6.71913e-05
0.000163409
6.2883e-05
5.50897e-05
-0.000250494
0.000277766
3.27019e-05
3.44906e-05
2.25709e-05
9.6148e-05
8.29649e-05
5.98959e-05
0.000223591
-4.78725e-05
-0.000104427
4.31819e-05
0.000250168
-4.33492e-05
-0.000251333
-5.38436e-05
1.25788e-06
-0.00048532
2.63903e-05
1.29153e-07
-0.000110653
-8.69291e-05
-0.000652006
0.000229995
-0.000242537
-4.4564e-05
-5.23045e-05
-1.4741e-05
-1.50505e-05
-0.00014191
-5.20285e-05
0.000112409
0.000377334
0.000632261
-7.80129e-05
6.84595e-05
-4.77984e-06
-2.21525e-05
1.52099e-05
1.03638e-05
-7.76897e-05
7.16009e-05
0.000552891
-0.000583486
2.61468e-05
4.44855e-06
2.20392e-05
-0.000578918
0.000420717
-2.0431e-05
0.000270365
-0.000181056
-0.000122352
0.000210396
4.33131e-05
-0.000131357
0.000270682
0.000473497
0.00012129
0.000156389
-0.000106537
-0.000293344
1.54413e-05
-2.88381e-07
-6.97062e-05
5.45533e-05
-0.000151249
4.24547e-05
0.000132495
-2.37006e-05
-0.000260748
-5.47211e-05
0.000193116
0.000107216
3.71334e-05
-6.03543e-05
-8.39949e-05
-1.76738e-05
-8.67215e-05
2.77885e-05
7.66068e-05
0.000406041
-0.000110263
0.000140902
-0.000429308
0.00071255
2.26865e-05
-0.00013132
0.000244745
-0.000169906
0.000259233
-0.000247542
-1.04497e-06
5.658e-06
-5.96782e-06
1.35478e-06
-0.00022142
0.000188798
-0.000155604
0.000188226
-2.68905e-05
2.30554e-05
1.92763e-05
-0.000621733
0.001025
-0.000731737
0.000328466
0.000110226
-0.000122661
-6.17742e-05
-0.000116766
0.000253552
0.000153924
7.84932e-06
0.000157583
-5.09316e-05
-0.00105102
0.000937967
3.77288e-05
-0.000308596
3.81571e-05
0.000159832
0.000110607
-0.00018061
-6.10888e-05
0.000155152
8.65462e-05
-4.62191e-05
-3.14797e-05
-2.88415e-05
0.000335431
0.000398969
-0.000182695
-1.69258e-07
1.48045e-06
7.57043e-05
-7.70155e-05
5.56679e-05
-0.000158586
0.000409657
-0.000306739
0.000198775
-0.000265258
0.000141514
-0.000130771
6.98871e-05
0.000129433
-6.85488e-05
-0.000144669
0.000143547
0.00014146
0.000717508
-0.000474226
-0.000321742
0.00120445
5.53059e-05
-0.00115834
-0.000101418
0.000113026
-8.29531e-05
0.000122868
-0.000700694
0.000182822
0.00062659
-0.000108717
7.67941e-06
0.000141364
-8.93607e-05
-5.96829e-05
3.50946e-05
-0.000173179
0.000101541
3.65434e-05
8.97936e-05
-0.000178704
9.36484e-05
-4.73763e-06
-0.000213888
0.000725238
4.5502e-05
-0.000556852
-0.000326017
0.000936729
6.35881e-05
-0.0006743
0.000581182
2.72757e-05
7.33472e-05
-0.000681805
-6.06432e-05
7.13008e-06
8.10858e-05
-2.75727e-05
6.1713e-05
0.00014097
-8.75962e-05
0.000164769
0.000109785
0.0004679
0.000111081
0.000539144
0.000104249
0.00051395
0.000137633
0.000643463
-4.31628e-06
-7.92402e-06
1.76784e-06
1.04725e-05
2.85181e-05
-0.000121037
9.22306e-05
-0.000376893
0.000487119
0.000432656
-0.000549422
0.000313675
-0.000305826
4.72672e-05
2.84123e-05
-3.67077e-05
-1.07715e-05
-0.000166989
0.000179593
-1.83272e-06
-3.47364e-05
-9.5255e-05
0.000120736
9.25524e-06
3.59275e-05
0.00071168
-0.00050309
0.000961894
6.37235e-05
-0.00100969
-1.5932e-05
-0.000686741
0.000626075
0.000963104
0.000130804
-0.000259247
-7.55332e-05
0.000203976
8.29899e-05
-6.21461e-05
5.59058e-05
-1.75012e-06
0.000144142
0.000184434
-0.000116228
0.000173542
9.20307e-05
-0.0009495
0.000921364
-0.000396439
-0.000101029
1.72877e-05
-0.00010167
-2.04161e-05
8.10186e-05
4.10678e-05
-8.4573e-05
0.000723618
2.12762e-05
-0.000660321
-8.00608e-05
0.000641014
1.91223e-05
-0.000580075
3.95326e-05
-3.23328e-05
-4.07816e-05
3.35817e-05
0.000175789
-0.000144866
0.000108028
-0.000138951
1.44724e-05
-0.000110976
0.000154874
-5.837e-05
-2.38127e-05
-0.000226681
-0.000162122
0.000176452
-5.24593e-05
3.81295e-05
-0.000268081
-4.97265e-05
0.000190926
0.000126881
-6.20272e-05
7.42082e-05
-3.66734e-05
2.44924e-05
0.000689903
2.0095e-05
-1.62548e-05
-0.000693744
-5.85399e-06
7.38536e-05
-6.08193e-05
0.000511623
-2.67747e-05
3.32505e-05
-0.000518099
0.000204269
-0.000125474
-0.000130498
5.17033e-05
-0.00056486
-1.10023e-05
-7.08811e-05
0.000646743
-0.000556987
-9.21634e-05
1.483e-05
0.000634321
-3.91743e-05
-1.02168e-05
5.99282e-05
-1.05371e-05
-0.000196566
6.23296e-05
0.000186952
-5.27156e-05
-0.000206682
-9.74431e-06
0.000182009
3.44179e-05
-0.000107166
1.87318e-05
0.000128873
0.000790284
7.25102e-05
-3.55556e-05
5.45656e-05
3.91548e-06
-9.6512e-06
-0.00113498
-0.000169918
0.00112456
0.000180345
0.000459745
0.000625787
-0.000501055
-0.000584477
7.97302e-05
-4.09656e-05
-3.03608e-05
-8.40382e-06
4.13536e-05
-6.86215e-05
0.00012131
-9.40418e-05
-3.25071e-06
-2.60328e-06
-8.70606e-05
4.84477e-05
-0.000635632
0.000674245
0.000135183
-0.000115108
3.1939e-05
-5.20132e-05
-0.000200395
0.000186354
2.60528e-05
-1.20116e-05
-0.000126581
4.06664e-05
5.18303e-05
3.40844e-05
0.000171551
-0.000131962
-1.34663e-06
0.000950487
-0.000852257
0.000111606
-0.000209836
-0.000648647
-0.000328241
0.000339379
-8.74218e-05
-6.71911e-05
6.02502e-05
9.43626e-05
-0.000197997
-2.02135e-05
2.16438e-05
-0.000347746
0.000216052
-7.49882e-05
-2.2375e-05
-2.5831e-07
-1.6541e-05
0.00027034
-0.00025099
-0.000135201
0.00011585
1.11081e-05
-0.000255915
0.000249474
-4.66687e-06
4.49554e-06
-1.44931e-05
0.000230231
-0.000424045
0.00050029
0.00111443
-1.79257e-05
3.04918e-05
5.20755e-05
-9.3429e-05
6.92646e-06
3.4427e-05
-4.03674e-05
0.000270362
5.05707e-05
-5.91995e-05
1.99841e-05
0.000114979
-0.000220317
0.000167349
-0.000832492
0.000410216
-8.01153e-05
-0.00101807
-0.000579705
0.000318235
6.2527e-05
0.000196279
-6.62123e-05
-0.000122387
0.000184394
-0.000216254
8.1993e-06
3.5588e-05
-3.80457e-05
-3.282e-05
2.76021e-05
-2.16725e-05
-3.28487e-05
5.68808e-05
-7.55418e-05
5.15097e-05
-0.000834475
-9.81682e-05
0.000231949
0.00046885
-0.000463245
-0.000101669
9.60642e-05
-5.13823e-05
-0.000838536
9.2446e-06
0.000880674
-6.24361e-05
-0.000998253
0.00102598
3.47076e-05
7.15402e-05
-8.96156e-05
-5.52514e-05
-0.000600612
-0.000734263
0.000648135
0.000140307
0.000100564
-0.000153629
-8.72412e-05
6.13153e-05
-6.37176e-06
-5.15484e-05
-3.39516e-06
-0.000811395
-0.000288274
-0.00017775
-4.24243e-05
-2.22302e-05
0.000242405
0.000150564
-7.35219e-06
-0.000152364
9.15268e-06
0.00021481
-6.97574e-05
1.13637e-05
3.92099e-07
-7.03365e-06
4.34216e-05
-0.000282916
1.80741e-05
8.22293e-05
-7.69328e-05
-1.52057e-05
9.90916e-06
5.86778e-05
3.23665e-05
-1.76495e-05
-7.33948e-05
6.03215e-05
0.000642458
-3.83141e-05
-0.000664465
8.47312e-05
0.000699115
-5.13829e-05
-0.000732463
3.08544e-05
4.06072e-05
1.07678e-05
2.88369e-05
-0.00107434
0.00107451
-2.90112e-05
0.000310919
-0.0015061
-3.56153e-05
0.00123079
0.000116669
8.89598e-05
-9.81875e-05
-0.000107442
0.000222351
1.79319e-05
-4.45553e-05
-0.000195727
0.000470579
-0.000336556
0.000185037
0.000788709
-0.000651057
-0.000801183
4.13481e-06
2.05687e-05
5.5845e-06
-3.0288e-05
-0.000170003
0.000182983
-3.35269e-06
-9.62726e-06
1.98312e-05
-1.11197e-05
-8.95272e-05
8.08158e-05
-0.000740489
0.000237664
0.000481706
2.1118e-05
0.00015593
-2.8627e-05
5.82831e-05
-0.000185586
0.000111924
-1.99441e-05
1.42286e-05
-0.000106208
0.000242818
8.01931e-06
4.2912e-05
-0.00029375
-3.13474e-05
6.97523e-05
-3.84048e-05
0.000311853
-0.00113592
3.05303e-05
-2.97111e-05
-1.11762e-05
1.0357e-05
-2.99604e-05
-0.000235793
5.0059e-06
-0.000317197
0.0003043
4.06964e-05
-2.77992e-05
0.00103444
-0.00145646
0.000183748
0.000238273
0.000506752
9.55066e-06
1.20424e-05
-0.000528345
-5.60225e-06
-4.50599e-06
6.46738e-05
9.03196e-05
8.98605e-05
-0.000991154
0.000810974
-3.21224e-05
-7.70209e-05
0.000111025
-1.88177e-06
1.70461e-05
0.000171967
-0.000229615
4.06021e-05
-3.83651e-05
-9.9437e-05
0.000139501
-1.69859e-06
0.000286704
-0.000176235
-2.85774e-05
0.000149203
-0.000172381
2.51365e-05
6.99657e-05
-6.06501e-05
0.000837309
-0.000574413
4.62194e-05
-0.000309116
0.000212629
0.00079502
-7.6082e-05
6.18308e-05
-3.68937e-05
-2.83041e-05
-0.000142945
3.7117e-05
0.000134132
0.000415348
-5.31587e-05
-0.000333372
-2.88164e-05
4.44623e-06
-8.14525e-06
-6.27266e-06
9.97167e-06
-9.76706e-05
0.000102197
-5.91198e-05
-0.00011585
4.90946e-06
0.00014927
-1.89607e-05
-0.000135218
-0.000166107
7.86484e-05
6.59387e-05
-5.06662e-05
0.000227546
-9.1344e-07
-5.3513e-06
0.000118188
2.4819e-05
-1.49969e-05
0.000146108
0.000468685
-0.000556988
0.000245126
-0.000156823
0.00119946
-0.00120163
-0.000273576
2.15628e-06
-0.000647284
0.000199577
0.000560885
9.23956e-05
-7.05876e-05
-6.84688e-05
0.00017263
-3.78358e-05
0.000151909
6.56523e-05
5.40922e-05
-5.60489e-05
2.10214e-05
-1.64044e-05
-9.95376e-05
9.49206e-05
3.79647e-05
4.67909e-05
-5.61434e-05
-2.86122e-05
4.85828e-05
-7.68868e-05
8.08301e-05
-0.000142393
0.000122654
-6.10911e-05
0.000739588
9.39001e-05
-4.32038e-05
0.000149099
0.000158788
-0.00026617
0.000229966
-0.000456483
0.000462295
-0.000383603
0.000272705
-0.00112302
0.001125
9.33471e-05
-9.53291e-05
0.000179857
0.000750468
-0.000442043
-0.000236247
0.000384358
-8.91465e-05
2.468e-05
-2.27243e-05
0.00050785
-0.000772782
-0.00015348
0.000418411
-0.000820349
0.000397575
-0.00013109
0.000553864
-3.10415e-05
0.000110848
-0.000355931
0.000276124
-4.54661e-05
-3.72678e-05
-0.000948129
0.00103086
7.95182e-05
-0.000360569
0.000786373
0.000172639
-0.000832893
-0.000126119
1.21177e-05
-1.26338e-05
4.77833e-05
0.000763703
-0.000707179
8.11083e-05
0.000631578
-0.000693732
0.000166403
0.000552462
-0.000511166
6.97858e-05
1.96146e-05
0.000148604
-1.76547e-05
-0.000196169
-1.69957e-07
0.000201248
0.000112693
-0.000145742
0.000120945
-8.78971e-05
0.000653582
-0.000552541
-5.69042e-05
-4.41375e-05
0.000694571
-0.000586781
-3.72736e-05
-7.05167e-05
0.000111593
0.00156002
-0.00122593
-0.000445679
2.53345e-06
-1.73591e-07
-1.05785e-05
8.21863e-06
-0.00098807
-0.000636711
0.00105175
0.000573027
-1.09026e-05
3.50469e-06
-3.97597e-05
4.71576e-05
2.96737e-05
-5.37067e-05
3.5179e-05
-1.1146e-05
4.30915e-05
-3.597e-05
2.34022e-05
-3.05237e-05
0.000112507
-4.29825e-05
0.000670063
0.000598187
-0.000846579
0.000357213
0.00060629
-0.000832333
0.000345957
5.20299e-06
0.00013048
-5.81882e-06
1.24035e-05
3.87996e-05
-4.53842e-05
0.000573735
-7.98796e-05
0.000157452
-2.9058e-05
2.59273e-05
-1.08447e-05
0.000157602
7.86612e-05
-8.49555e-05
-0.000151308
0.000413173
0.000904548
-0.000691934
-0.000362891
-0.000336389
0.000475029
0.000460699
-0.000459348
1.95779e-05
-2.09296e-05
0.000153253
6.94332e-05
-8.13221e-05
0.000190422
1.62288e-05
0.000118022
0.00018845
-2.96458e-05
7.78332e-05
-4.18681e-05
9.91235e-05
0.000542679
-0.000653154
0.000110476
-0.000401644
0.000286742
-0.00126856
0.00138346
-0.000119606
0.000161743
0.000209089
-0.000251225
0.000176661
5.322e-05
-9.69583e-05
-0.000132923
-0.000450991
-2.91628e-05
0.000619974
-0.00013982
0.000228362
-0.000194319
-0.000402426
-5.8286e-06
-1.91783e-06
2.96658e-06
0.000186855
-0.000140871
0.000130677
-3.0281e-06
-0.000160292
-6.68237e-06
6.67764e-05
2.88327e-05
-0.000123472
2.78632e-05
0.00030585
-0.000321479
0.000173274
-0.000157646
3.62965e-05
3.31844e-05
9.09945e-05
-8.03025e-05
1.7379e-05
9.13358e-05
3.44449e-05
-3.28384e-05
4.41781e-05
-4.57846e-05
-2.66275e-05
-0.00013897
0.000180472
-1.48751e-05
7.47458e-05
-2.15257e-05
0.000134493
-0.000108014
9.01908e-05
8.47469e-05
-2.45902e-05
0.000162194
-6.84127e-05
0.000268313
7.04402e-05
-0.000611199
-0.000337576
0.00073289
0.000215885
0.00082055
-0.00103777
0.000354494
-0.00013727
-8.2878e-06
0.000248878
-0.000242029
1.43901e-06
0.000235558
0.000667432
-0.0007698
-0.00013319
0.000125817
-0.000129472
5.4151e-06
-1.76091e-06
-0.0013183
0.00116111
-0.000249782
0.000406974
0.00038287
-0.000327919
-0.000130902
7.59505e-05
1.82188e-05
0.000689157
-0.000687811
-1.9565e-05
-0.000379261
2.13281e-05
0.000145007
-0.000551773
0.000530288
-0.000123521
0.000164056
-0.000652341
0.000655935
-0.000167651
-0.000108218
-0.00073372
0.000841938
6.38687e-05
-1.36763e-05
8.15287e-05
-0.000131721
7.37906e-06
-9.13119e-06
7.3983e-07
1.0123e-06
-3.33936e-05
4.90682e-05
1.72292e-05
-3.29038e-05
2.66983e-05
9.43267e-05
-0.000101194
2.79268e-05
-5.55939e-05
5.81974e-05
-0.000211495
4.5096e-06
0.00013434
7.2646e-05
-0.000183842
3.2818e-05
0.000117282
3.37418e-05
-2.51885e-05
-1.04427e-06
0.000377066
-0.000350833
0.0011553
-0.00116399
-0.000117648
0.000126335
-0.00013685
2.23236e-05
-0.000244628
7.5617e-05
0.000169011
7.2973e-05
-3.96287e-05
-5.21575e-05
1.88132e-05
3.03087e-05
-1.80836e-05
-1.91717e-05
6.94656e-06
-5.20987e-05
8.36325e-05
-0.000282523
-1.43772e-05
5.21855e-06
-1.32163e-05
-6.191e-05
1.82208e-05
-0.000304057
-2.64546e-06
2.40188e-05
-0.00021937
0.000654052
5.00116e-05
-7.06859e-05
0.000600523
3.06274e-05
-4.42513e-05
-0.000570142
1.60165e-05
-2.50814e-05
-0.000554957
-2.51244e-05
-4.9861e-05
-0.000359563
-0.000192675
0.000218529
-0.00101372
-0.000171399
0.000289447
-0.000128935
3.01151e-05
-3.19509e-05
-0.000128228
-0.00116991
0.0012026
-7.13874e-05
2.33353e-05
-0.000138769
-0.000137758
-4.58626e-05
-0.00015769
0.000689549
-0.000194862
-0.000574748
0.000692294
-0.000185918
-0.000590949
8.56656e-05
-1.11014e-05
-0.000279008
0.000204444
0.000131072
0.000465954
-0.000136327
9.55629e-05
-9.89984e-05
1.14658e-05
-8.03039e-06
-5.98264e-06
2.2102e-05
-0.000127824
0.000111705
5.03771e-05
-3.87925e-05
1.91215e-07
-0.000208847
0.000131967
0.000105399
-6.47941e-05
-2.54898e-05
4.55777e-05
4.47063e-05
0.000650128
-9.74828e-05
0.000169989
-0.000722634
-0.000357204
-8.81029e-05
6.60465e-05
-0.000437574
0.000320875
0.000394199
-3.75655e-05
3.02506e-05
-2.55052e-05
1.78085e-05
-2.21796e-05
1.40958e-05
4.11014e-05
-8.56243e-05
6.78473e-05
-2.33244e-05
-0.000179464
2.8897e-05
0.000154668
-4.10043e-06
0.000305053
0.000363665
-0.000587508
-8.12098e-05
0.000195118
-0.000541094
-0.000265223
0.000476659
0.000341525
-0.000661931
-0.000156253
-0.000276912
0.00024077
-6.67453e-06
4.28166e-05
0.00011533
0.00016141
-0.00101723
3.96909e-05
-1.83653e-05
-2.71542e-05
0.00013689
-1.55824e-05
-0.000123953
3.34188e-06
-3.45674e-05
1.68483e-05
0.000895472
-2.31659e-05
-0.000763131
-0.000109175
0.000118772
6.17341e-05
-9.84852e-05
-0.000191087
-2.61514e-05
9.59037e-05
-0.000102505
0.001115
0.000151493
-0.000126563
0.000379828
0.00021542
-0.000388489
0.000322123
0.000516932
-0.000450566
0.000163142
-0.000133109
0.000263994
-0.000294027
-3.63953e-06
0.000266242
6.08792e-06
-0.000268691
-0.000112445
8.50168e-05
5.39646e-05
-2.65363e-05
-0.000253812
5.13521e-05
4.32074e-05
0.000159253
-0.00111504
0.00111348
9.14199e-05
-0.000718283
0.000466349
-0.000651482
0.000563282
-0.00041439
-0.000226969
0.000203785
0.000111334
-3.67948e-05
0.000857612
-0.00102458
-0.00026149
0.000428458
-0.00022798
-0.000983349
0.00118377
2.7562e-05
-0.00115109
0.0011812
-0.000158337
-0.00050813
0.00045337
0.000371858
-0.000317098
-0.000347693
0.000352922
4.10451e-05
-4.62745e-05
-0.0001356
-4.77699e-05
3.5955e-05
-0.000656192
0.000722726
-0.000404109
0.000164194
-1.46455e-05
-1.17266e-05
-5.52898e-05
1.79709e-05
4.90455e-05
-0.00011028
0.000112305
3.54235e-06
-6.4099e-06
-0.000126067
-0.000914542
0.000881336
-0.000269821
0.000303027
0.00126473
7.61258e-05
-0.000314422