/*--------------------------------*- C++ -*----------------------------------*\
| =========                 |                                                 |
| \\      /  F ield         | OpenFOAM: The Open Source CFD Toolbox           |
|  \\    /   O peration     | Version:  v1912                                 |
|   \\  /    A nd           | Website:  www.openfoam.com                      |
|    \\/     M anipulation  |                                                 |
\*---------------------------------------------------------------------------*/
FoamFile
{
    version     2.0;
    format      ascii;
    class       surfaceScalarField;
    location    "0.05";
    object      phi;
}
// * * * * * * * * * * * * * * * * * * * * * * * * * * * * * * * * * * * * * //

dimensions      [0 3 -1 0 0 0 0];
oriented        oriented;


internalField   nonuniform List<scalar> 
11117
(
1.48261e-05
0.000275836
-8.00538e-06
-0.000282657
1.73964e-05
0.000186547
-4.42867e-06
-0.000199515
0.000221542
-0.000377492
0.000232059
-7.61089e-05
-0.00019122
-1.28636e-06
9.27352e-05
9.97712e-05
0.000114649
0.00035187
-0.000306846
-0.000159673
-4.3021e-05
9.89387e-06
-0.000232599
0.000265726
-9.68425e-05
-2.83165e-05
0.000110959
1.42e-05
-0.000111372
-3.04273e-05
0.000121961
1.98378e-05
0.0004356
0.000244957
-0.000415152
-0.000265405
-0.000339159
0.000332874
-0.000103207
0.000109493
-0.000106857
0.00013191
4.2206e-05
-6.72594e-05
-1.59153e-05
-7.34261e-05
-2.98018e-05
0.000119143
8.48665e-06
-1.06967e-05
-2.8187e-05
3.03971e-05
0.000636052
-0.000596609
0.000204378
-0.000243821
0.000213154
-0.00018037
0.000170939
-0.000203723
-5.00373e-05
2.76885e-05
-2.55021e-05
4.78509e-05
-0.000180479
0.000399972
-2.94151e-05
-0.000190078
-0.000244112
0.000264159
0.000344218
-0.000364265
0.000140652
0.000328962
-0.00025646
-1.71328e-05
1.07163e-05
0.000168718
-0.000162301
-0.000355173
0.000170615
-7.22705e-06
0.000191784
-7.1588e-05
3.66718e-05
0.0002952
-0.000260284
0.00013152
0.00011987
-0.000104131
-0.00014726
0.000154574
0.000141259
-0.000121794
-0.000174039
0.000114072
9.49749e-05
-0.000140785
-6.8262e-05
0.000794259
-0.000831142
0.000311927
-0.000275044
0.000377666
-0.000419279
0.00100074
-0.000959122
-0.000267427
0.000333757
-0.00029409
0.000227761
3.47695e-05
-2.68369e-05
0.000222257
-0.000230189
-2.0102e-05
-1.0605e-05
2.36088e-05
7.09828e-06
1.20523e-06
1.29035e-05
2.07901e-06
-1.61877e-05
-2.07842e-05
9.03539e-05
8.99225e-05
-0.000159492
3.07253e-05
5.91118e-05
-5.87206e-05
-3.11165e-05
0.000107851
4.92396e-05
-1.096e-05
-0.00014613
6.76299e-05
9.03439e-05
-1.06717e-05
-0.000147302
5.49124e-05
0.000119007
-2.97446e-05
-0.000144175
0.000640646
-0.000739483
0.000928697
-0.00082986
0.000109178
-0.000135081
-5.13001e-05
7.72029e-05
4.2802e-05
-2.30277e-05
-3.93635e-05
1.95892e-05
0.000178128
0.000344504
-0.000395688
-0.000126944
0.000193474
0.000285039
-0.000304301
-0.000174212
0.000176917
0.000230822
-0.000261939
-0.0001458
0.000509334
0.00042349
-0.000422014
-0.00051081
0.000320931
8.10589e-05
-4.00544e-05
-0.000361935
0.000266238
0.000108477
-0.000234063
-7.81028e-05
8.08301e-05
-3.57853e-05
3.3058e-05
-0.000340728
0.000299573
-0.000120452
0.000161607
-3.01346e-05
2.86143e-05
-9.89257e-06
1.14129e-05
0.00017454
-0.000202565
0.000167287
-0.000139261
-7.35709e-06
4.11587e-05
-3.38016e-05
3.47603e-05
4.6986e-05
-8.17464e-05
-6.80569e-05
-0.000178414
8.45957e-05
0.000161876
0.000389137
-0.000313894
0.000291909
-0.000367152
0.000347067
-0.000338391
-9.69827e-07
-7.70599e-06
-4.70012e-06
4.70012e-06
7.30922e-05
-1.34129e-05
-6.87231e-05
9.04383e-06
0.000222703
1.02866e-05
-0.000243728
1.07391e-05
2.57375e-05
-7.29226e-06
-2.04168e-05
1.97149e-06
0.000398987
4.98854e-05
-0.000629269
0.000180397
-0.000418048
0.000628492
0.000583815
0.00070781
-0.000750375
9.09465e-05
-4.83811e-05
9.65361e-05
-1.97064e-05
-6.29032e-05
-1.39265e-05
-1.72589e-06
-1.47115e-05
1.76426e-05
-0.000215351
1.26049e-05
0.000181961
-3.70748e-05
2.46988e-05
4.31012e-05
-2.04925e-06
-6.51851e-05
5.35999e-05
1.36344e-05
0.000261048
-0.000853161
0.000699136
-0.000107023
-1.88685e-05
-0.000404622
0.00042349
-0.000363972
-0.000136015
0.000283857
0.000216131
9.43699e-06
9.4724e-05
-6.68039e-06
-9.74806e-05
0.000115088
-2.73387e-05
-0.000155807
-0.000530604
0.000318051
0.000473601
-0.000273519
-0.00125086
0.00129874
0.000225647
-0.000102555
0.000112912
3.44628e-05
-4.48196e-05
-0.000385612
-0.000222472
-0.000119031
1.12145e-05
0.000207077
-9.92609e-05
-7.09265e-05
1.68023e-05
5.41242e-05
-0.000802291
-0.000168442
0.000139591
0.000282622
5.94864e-05
-2.11776e-05
-4.06927e-05
1.27229e-05
2.79699e-05
0.000261812
0.000126808
-1.69544e-05
-0.000371666
0.000144415
7.58347e-05
-1.17187e-05
-0.000208531
0.000201966
-0.000210538
0.000277808
-0.000269236
-9.13532e-06
3.18343e-05
5.92436e-06
-2.86234e-05
-3.97447e-05
6.70522e-05
3.71447e-05
-6.44522e-05
1.37084e-05
-0.000180137
0.000166429
-1.81653e-05
-0.000507243
0.000525408
2.20016e-07
-0.000124249
0.000124029
-5.92881e-06
3.30532e-05
0.000102903
-0.000130027
-2.363e-05
5.21398e-05
0.000101763
-0.000130273
0.000152646
-2.25557e-05
1.07217e-05
-0.000140812
0.000403961
4.69847e-05
-6.58296e-05
-0.000385116
0.000269828
-5.53294e-05
3.19635e-05
-0.000246462
-0.000232075
1.68157e-05
-1.2841e-05
0.0002281
-0.000299189
7.82784e-06
-5.69597e-06
0.000297057
1.97505e-05
-3.76758e-05
8.23557e-05
-6.44304e-05
0.000145133
1.94181e-05
-1.21756e-05
-0.000152375
0.000281702
1.75735e-05
-1.73104e-05
-0.000281965
0.000433316
6.58406e-09
-2.14946e-06
-0.000431173
0.000648982
0.00010736
-4.85319e-05
0.000522273
6.88595e-05
-0.000506883
-8.42501e-05
-0.00028101
0.000257788
5.38732e-05
-3.06503e-05
0.000157315
-0.000176818
-0.000556565
0.000576068
0.00051675
0.000138577
-0.000596063
-5.92639e-05
-0.000117249
0.000274023
-0.00019543
3.86563e-05
-0.000391768
0.0001711
0.000360165
-0.000139497
3.41415e-05
-5.00175e-05
0.000117347
-0.000101471
-3.15235e-05
3.07491e-05
-4.00165e-05
4.07909e-05
2.49836e-05
-9.66927e-05
-0.000105707
0.000177417
0.000240437
-8.96591e-06
5.11513e-05
-0.0001218
7.80198e-05
8.8933e-05
-4.5153e-05
-0.000186639
0.000224108
0.000117527
-0.000154996
-0.000436495
0.000314601
-0.000325003
0.000446897
5.88919e-05
-5.77681e-05
1.07114e-06
-2.19499e-06
6.07167e-05
0.000305656
-0.000346622
-1.97509e-05
4.78635e-05
0.000179513
-0.000214935
-1.24416e-05
-0.00015307
-0.000140442
0.000254547
3.89658e-05
-0.000218864
0.000195464
0.000259632
-0.000236231
8.13338e-05
-4.18286e-05
-0.00078988
-0.00103816
0.000112005
0.000966097
-3.99401e-05
0.000308871
-0.000186344
-0.000341391
0.000255396
-0.00023314
-2.22559e-05
7.81136e-05
-7.19978e-05
0.000102481
-0.000108596
-0.000211178
-0.00017528
-0.000134354
-7.69443e-05
7.8338e-05
0.00013296
-0.000149234
0.000155672
0.000227731
-0.000234169
-0.000462643
0.000441525
-0.000404977
0.000426095
1.92193e-05
0.000235284
-0.000213824
-4.06788e-05
7.25338e-05
-0.000162688
-6.93968e-06
9.70937e-05
-7.66446e-05
7.19198e-06
-3.94914e-06
7.34017e-05
-1.22479e-05
4.08696e-05
7.15374e-07
-2.9337e-05
-9.199e-06
1.80081e-05
4.48665e-06
-1.32957e-05
0.0001988
-0.000364328
-6.72998e-05
0.000232828
-0.000757559
0.000105206
-0.000149937
-7.84118e-05
8.70774e-05
-0.000323717
0.000315052
0.000147627
-0.000173193
-0.000154804
-0.000364938
9.91798e-06
1.91953e-05
0.000335825
6.96364e-05
5.60987e-05
-2.91989e-05
4.65172e-05
1.22038e-05
-3.94551e-05
-1.92659e-05
5.46766e-05
9.12751e-05
-6.61985e-05
-7.97532e-05
9.29498e-06
2.22124e-05
-2.30387e-05
-8.4687e-06
-0.000111706
-0.000335362
0.000402352
4.47172e-05
0.000174254
-0.00014986
-0.000129649
0.000105254
0.000398436
-0.000282014
-0.000178215
6.17933e-05
5.8555e-05
1.43343e-05
-3.53623e-05
-3.7527e-05
9.06614e-06
0.000492627
-0.000216412
-0.000285281
0.000115413
-0.000101388
6.40885e-05
-0.000304068
0.000587855
-0.000352812
6.90247e-05
7.13912e-05
0.00034585
-8.87078e-05
-0.000328534
7.49253e-05
7.74057e-05
-0.000122253
-3.00777e-05
0.000379556
0.000128337
-0.000282459
-0.000225434
-2.11921e-06
1.14054e-05
-0.000209053
0.000199767
-0.000243299
-6.88873e-05
-7.95817e-05
0.000115615
-0.000174282
-6.70432e-05
0.000125709
-0.000723718
-0.000510431
0.000733439
0.000500709
0.000390636
-8.58557e-05
-0.000304781
3.36666e-05
4.53099e-05
-6.39868e-06
-3.89112e-05
6.36151e-05
-2.07138e-05
-4.29013e-05
6.94333e-05
0.000210443
-9.46409e-05
-0.000115802
3.15095e-06
-4.63288e-05
4.31778e-05
7.50889e-05
-8.93337e-05
1.42448e-05
4.78633e-08
-1.74867e-05
1.74388e-05
-9.08245e-07
3.13911e-05
-3.04829e-05
3.19091e-05
-1.88422e-05
-1.30669e-05
2.13096e-05
-2.45488e-06
-1.88547e-05
4.70416e-05
-2.61862e-06
-4.4423e-05
-8.44397e-05
-3.73601e-05
-0.000104915
-8.17238e-05
-4.25564e-05
5.9685e-05
-1.71286e-05
0.000416652
3.15033e-05
-0.000448155
0.000209885
-0.000154058
-5.58272e-05
0.000162393
-0.000110298
-5.20955e-05
0.000140991
-8.71449e-05
-5.38464e-05
-0.000124354
0.000125569
-1.21557e-06
-0.000256504
0.000145789
0.000110715
-0.000112954
0.000125835
-1.28817e-05
-0.000156143
0.000176791
-2.06474e-05
0.000172446
-0.000253285
8.08395e-05
-3.58017e-05
4.14039e-05
-5.60224e-06
0.000100141
-0.000103442
3.30132e-06
2.15793e-05
-1.62531e-05
-5.32621e-06
2.48379e-05
-3.21584e-05
7.32057e-06
-1.25166e-05
1.16309e-05
8.85685e-07
-0.000230848
-9.81046e-06
0.000240659
-0.000196628
-8.43824e-05
4.34323e-05
-3.42676e-05
-9.16465e-06
0.000247554
-0.000196913
-5.06418e-05
9.53814e-05
0.000162406
-3.68723e-05
-6.99846e-05
0.000101422
-1.10681e-05
3.96802e-05
1.94316e-05
1.22132e-05
6.90275e-07
-7.53149e-06
-1.66751e-06
-2.14264e-06
-1.01053e-05
9.19565e-05
-6.5391e-06
-8.54174e-05
0.000160205
-2.86372e-05
-0.000131568
0.000251054
7.79081e-05
-0.000556656
0.000713971
7.94836e-05
-4.54981e-06
-7.49338e-05
-0.000149689
-2.87254e-05
-2.5414e-05
-4.72061e-06
-3.18983e-05
3.52126e-05
-3.3143e-06
-0.000285929
-5.47992e-05
-5.98397e-05
-1.82631e-05
-5.5087e-05
5.4431e-05
6.56014e-07
-1.02003e-05
-4.15965e-05
4.15647e-05
1.02321e-05
-0.0001166
6.03906e-05
0.000602756
-0.000546546
-0.000734634
0.00062937
0.000712955
-0.000607691
1.92231e-05
1.83221e-05
-0.000269072
0.000231527
-0.00106771
0.00102286
-3.63095e-05
8.11616e-05
5.30146e-05
-4.69392e-05
-6.02758e-06
6.98731e-05
-6.33982e-05
-3.32397e-06
2.02504e-05
-6.40301e-05
-0.000183611
0.00022739
3.0045e-05
-5.62259e-05
-0.000140854
0.000167035
-7.86484e-06
-9.43001e-06
-0.0001449
0.000162194
-0.000391032
0.0004994
9.04321e-05
-4.84508e-05
1.80351e-05
0.000106315
-7.58995e-05
0.000292154
-0.000276553
-7.78863e-05
6.22853e-05
-0.00127063
-3.12888e-05
0.000234212
3.38838e-05
-6.60813e-05
1.57531e-05
1.64443e-05
0.000153885
-5.82424e-05
-2.7814e-06
-9.28614e-05
0.000289817
-4.77863e-05
-4.14168e-05
-0.000200614
-0.000176615
-0.000211029
4.35141e-05
0.00034413
-8.91801e-05
5.76075e-05
0.00115806
-0.00112648
-0.000204729
-0.000229559
0.000434288
1.00968e-05
0.000355139
-1.09458e-05
-0.00035429
0.000266845
-1.46681e-05
1.04084e-05
-0.000262585
0.000113663
-9.00963e-05
-0.000248265
0.000224698
2.49656e-05
-2.6421e-05
-0.000107239
0.000108695
1.99581e-05
-1.84262e-05
-6.92571e-05
6.77252e-05
1.61998e-05
9.01255e-06
1.405e-05
-3.92623e-05
0.000206826
-5.66786e-05
4.27235e-05
-0.000192871
8.22785e-05
-0.000107007
3.08922e-05
-6.16379e-06
4.11979e-05
1.36347e-05
-0.000938892
0.000884059
-6.87402e-05
1.89143e-05
-0.000769895
0.000819721
0.000427216
-0.000434792
4.14987e-05
-3.39229e-05
4.88454e-05
-7.8014e-05
-6.06099e-05
8.97784e-05
-0.00053769
-1.63127e-05
0.000377227
0.000176776
-0.000226437
-4.68332e-05
0.000168805
0.000104465
8.69131e-05
-7.00483e-05
-5.6393e-05
3.95281e-05
0.000270989
0.000915929
-0.00062464
-0.000562278
4.86683e-05
0.000149517
-8.25695e-05
5.87118e-05
-3.11291e-05
2.10856e-05
-3.89155e-06
-2.19306e-05
0.000103842
-6.47267e-05
0.000127577
-0.000230661
0.00016781
0.000343663
-0.000318279
4.60069e-05
1.51997e-05
-0.000122926
0.000107726
2.89504e-05
-0.000232358
0.000203408
1.26231e-05
-0.000380679
0.000368056
5.52038e-05
-5.75083e-05
2.55238e-07
-0.0005769
1.38182e-05
-5.48273e-05
5.37758e-05
-1.27667e-05
0.000212193
-0.00015101
-0.000571322
0.000510138
-0.000224004
-0.000477789
0.000541659
0.000160135
0.000501973
-0.000211387
-0.000394688
0.000104102
-0.00036442
0.000662111
-0.000524636
0.000226946
-2.83058e-05
3.80496e-05
-1.99442e-05
-0.000147473
-0.000130554
0.000143673
-0.000404857
-5.32545e-05
0.000239355
0.000218757
-5.90571e-06
5.75044e-05
1.41591e-06
-6.15104e-06
7.4779e-05
1.24513e-06
1.58173e-05
4.4107e-05
-4.01131e-05
-1.98112e-05
6.19661e-05
-4.02956e-05
-2.16705e-05
6.71404e-05
-5.87374e-05
-8.40297e-06
0.000258275
-0.000111071
-7.22792e-05
5.19008e-05
-0.00029779
0.000275885
-2.9996e-05
0.00019465
-0.000131681
-4.71757e-05
3.95822e-06
-1.20602e-05
5.52777e-05
-0.000287579
-6.49888e-06
1.21237e-06
0.000292865
-2.41018e-05
-1.9367e-06
-1.0584e-06
2.70969e-05
1.97057e-05
0.000137919
-0.0002044
4.67748e-05
-7.11746e-05
9.38895e-05
6.18808e-05
2.81577e-05
-0.000987802
0.00100819
-4.85413e-05
1.13261e-05
0.00025857
-0.000156233
9.04349e-05
0.000310164
-5.35326e-05
9.79649e-06
9.43818e-06
-1.60907e-05
-3.14402e-06
-0.000145153
0.000195256
9.47731e-06
-5.95801e-05
-7.19974e-05
3.74125e-06
3.16759e-05
3.65803e-05
0.000126844
8.44094e-05
-5.10484e-05
-0.000156704
-2.48493e-06
0.000155348
3.84049e-06
-0.000337543
0.00022735
0.000303666
-0.000247845
0.000163199
0.000261563
-0.000395306
0.000248687
0.000324747
-0.000262692
-2.17456e-05
0.000261399
2.30382e-05
-0.000345225
-4.93964e-05
0.000352768
4.18531e-05
-3.45113e-05
0.000310962
-0.000298185
2.17346e-05
-1.56861e-05
0.000244383
-0.000236959
8.26231e-06
-0.000162358
0.000395336
-0.000311389
4.89906e-06
-3.53659e-05
0.000119123
-8.8656e-05
3.31733e-05
-5.09725e-05
0.00010604
-8.8241e-05
0.000123234
-0.000113355
7.9598e-05
-8.9477e-05
0.000301749
-0.000274639
-5.75062e-05
3.03967e-05
-0.000678795
0.000302899
0.000620082
-0.000244187
-0.000118423
0.000532941
-0.000580935
0.000166416
-0.000121841
-2.11455e-05
0.000412414
-0.000269427
-0.000176269
8.22008e-05
0.000361437
-0.000267369
-0.000135347
-2.25177e-05
0.000464897
-0.000307032
2.5819e-05
4.91958e-05
-1.81202e-05
-5.68946e-05
7.90241e-05
-0.00013027
0.000195661
-0.000678853
0.000764631
0.000160044
-0.00026497
0.000366738
0.000982887
-0.00112638
0.000414484
0.000477497
0.000105114
-0.00044852
-0.000134092
2.18706e-05
-8.03894e-06
0.000327332
-0.000341163
-0.000113283
-4.36405e-06
-2.75066e-05
0.000318443
-8.65163e-05
-0.000367942
5.58815e-05
-3.94421e-05
0.000292428
-0.00018937
2.73507e-05
-6.14262e-06
-4.099e-05
8.25754e-05
-6.35786e-05
2.19932e-05
0.000671643
-0.000802023
-0.000604254
1.14137e-06
5.95292e-05
-1.7786e-06
-0.000430571
0.000476689
0.00101332
-0.00105944
0.000821747
-0.000174618
-3.39228e-05
-0.000613206
-3.51491e-05
3.08548e-05
-2.72291e-05
-0.000333175
0.000226672
0.00044026
2.15859e-05
0.000103891
-0.000100493
2.56465e-05
-0.000183226
0.000192349
-0.000103085
-3.96597e-06
-3.16764e-05
0.000138727
-0.000107283
-3.442e-05
-3.19997e-06
0.000144903
-0.00018159
0.0001793
0.000197754
7.88701e-05
0.000381629
1.60933e-05
-1.0665e-05
-4.70363e-05
4.1608e-05
-1.75295e-05
-3.59885e-05
3.04903e-05
6.22354e-05
-6.46667e-05
-2.63944e-06
5.07071e-06
-1.8058e-05
9.55165e-07
0.000118515
1.33954e-05
2.2757e-05
-4.73221e-05
1.16917e-05
-9.61268e-06
-1.52884e-05
-0.000106706
-9.1605e-05
0.000327116
-0.000317019
-9.35085e-06
-2.23728e-05
-7.64744e-06
-2.66202e-05
-1.56939e-06
1.1182e-06
0.000182315
7.16647e-06
-0.000245178
-8.44777e-06
3.00271e-05
5.21208e-06
1.96258e-05
-8.27066e-06
0.000108411
4.58367e-05
-1.39277e-05
-2.40044e-05
-0.000111076
-1.99692e-05
-1.93943e-05
0.000329918
-0.000320852
7.52182e-06
-2.02001e-06
-4.03995e-06
-5.09535e-05
4.11431e-05
0.000228263
2.27906e-05
4.8848e-05
0.000113028
-1.73588e-05
-1.94155e-05
-4.21005e-05
-1.31072e-06
1.81474e-06
-4.8556e-05
-0.000105873
0.000103129
0.000432064
-0.000457176
3.22331e-05
-7.12115e-06
-1.15363e-05
-7.16739e-05
5.48937e-05
-1.15923e-05
-8.26019e-05
6.3767e-05
-0.000149522
0.000252196
5.04448e-05
-0.000153119
1.13039e-05
6.95262e-05
7.39205e-05
0.000225653
2.23892e-06
2.63754e-05
-0.000145133
0.000172054
-0.000101362
7.44414e-05
-4.25667e-05
6.02306e-07
4.14139e-05
5.50544e-07
-0.000339947
-9.41692e-05
0.000284594
-0.000247987
8.2766e-05
0.000157284
7.93695e-06
-1.69477e-05
-8.9435e-05
4.56204e-05
6.07624e-05
0.000124124
-7.11469e-05
-2.95657e-05
-7.857e-05
0.000181228
-1.41665e-05
-0.000236392
0.000473261
-4.19911e-05
-2.83469e-05
9.60755e-05
-2.25492e-05
0.000123143
-0.000111878
1.12846e-05
0.00010455
-0.000345686
0.0002362
4.93664e-06
-9.49595e-05
-0.000127125
7.69512e-05
-0.000630322
0.00104399
-0.000741282
0.00032761
4.22664e-05
3.76153e-05
-2.49693e-05
2.9064e-05
4.88068e-05
-1.02409e-05
2.52546e-05
7.69909e-05
5.60543e-06
-0.000254879
0.000227784
2.58447e-07
-5.78645e-05
-1.05607e-05
5.11379e-05
1.72874e-05
-7.71584e-05
-1.08733e-05
6.01193e-05
2.79125e-05
-5.58223e-06
2.68918e-05
-9.20603e-06
5.62476e-05
0.000105012
-0.000128164
-3.62695e-06
2.43486e-06
9.71362e-05
-9.59441e-05
-4.68089e-05
5.79635e-05
-0.000105714
9.45596e-05
0.00023485
0.000182351
0.000157191
0.000424318
8.43783e-05
-0.000391518
-0.000117177
0.000178908
-0.000119237
-0.000154313
0.000119172
0.00015994
0.000126138
0.00120397
0.000123955
-0.00117701
-0.000150917
8.50414e-05
7.3562e-05
0.000150546
-0.000347156
8.04362e-05
0.000318507
-5.17865e-05
-0.000498193
0.000109888
-7.51999e-05
0.000463505
0.000128618
-0.000355588
0.000191894
3.50758e-05
4.65695e-05
-0.000130996
7.00663e-05
1.43598e-05
-5.97499e-05
0.000172036
1.46689e-05
-0.000126955
-0.000111444
0.000359431
1.65732e-05
-0.00026456
0.000489935
3.76077e-05
2.30644e-05
-0.000550607
-9.46012e-05
-1.37719e-05
0.000125842
-1.74688e-05
8.51026e-05
0.000331549
-8.15086e-05
0.000206208
0.000159157
0.000228015
3.59496e-05
0.000124383
4.43912e-05
0.000401548
6.03936e-05
0.000250258
3.7635e-06
7.10978e-05
-7.34269e-06
-6.75186e-05
0.000220242
-0.000125857
7.76686e-05
-3.67276e-05
7.8994e-05
-6.20219e-06
3.52662e-05
2.71508e-05
-1.89623e-06
-5.74416e-05
1.34251e-06
-1.66901e-06
-3.27906e-05
-0.000197408
0.000230782
-5.83323e-07
-5.78641e-05
-0.00028656
0.000341309
3.11498e-06
0.000229392
0.000301169
-0.000285604
0.000979895
4.10001e-05
-0.00102794
7.04041e-06
-0.000203566
0.000298544
0.000163298
0.000126322
-0.000268547
-0.000106453
0.000248679
0.000279419
-0.000134414
0.000220016
-0.000238672
1.43463e-05
1.76839e-06
-1.6599e-05
-3.72421e-06
1.48081e-05
-0.000947501
0.000917807
-0.000400877
5.49147e-06
5.0679e-06
8.99513e-06
1.96526e-05
-5.61049e-06
-2.30373e-05
-1.04766e-05
0.000223982
-2.27994e-06
-0.000211225
-4.66026e-05
0.000338498
9.12816e-06
-0.000301023
-9.84913e-06
1.30004e-05
-4.36247e-05
4.04734e-05
0.000242461
0.000141881
-0.000278509
-0.000105833
0.000847002
-0.000832814
0.000317555
-0.000331744
-5.15761e-05
0.000378692
-0.000179741
0.000224713
-8.37894e-05
3.88173e-05
-0.000229568
-3.09436e-05
0.000179508
8.10036e-05
-0.000346684
0.000367164
-0.000106165
8.56847e-05
0.000293419
-5.38616e-06
1.2015e-06
-0.000289234
4.33105e-06
4.58191e-05
-3.43329e-05
0.000159244
1.43992e-05
-9.34412e-06
-0.000164299
-4.34499e-05
1.08692e-05
5.28571e-05
-2.02765e-05
-0.000267979
-4.23351e-05
8.54059e-06
0.000301774
-0.000214669
-3.73113e-05
1.2986e-05
0.000238994
-0.000411757
0.000149174
0.000384297
-0.000121715
-0.000192918
0.000121372
0.000160431
-8.8885e-05
-0.000477869
-0.00012553
0.000459515
0.000143884
-0.000145385
0.000112693
1.07613e-05
0.000580604
0.00011993
-5.15522e-05
-8.2942e-05
-4.8598e-06
1.11572e-05
-0.00112445
-0.000134474
0.00109623
0.000162697
0.000383044
0.000513095
-0.000424099
-0.00047204
0.000128005
-7.6811e-05
-2.13989e-05
-2.97952e-05
-4.93085e-05
0.000115243
-0.000380711
0.000314776
4.92637e-05
-4.49326e-05
-0.000102329
5.60214e-05
-0.000677054
0.000723362
0.000162886
-0.000119293
3.10664e-07
-4.39037e-05
-0.000283268
0.000278441
-3.58562e-06
8.41275e-06
0.000211889
-0.000332865
0.000347941
-0.000226965
4.53147e-06
1.75185e-05
-6.30399e-05
0.00101062
-0.000894889
0.000133352
-0.000249078
-0.000295139
-0.000325652
0.000326701
2.70176e-05
0.000130829
-0.000127633
-3.02139e-05
-0.00022031
-6.13835e-05
8.87763e-05
-0.000680626
0.000323998
-0.00012124
-0.00041123
-4.2101e-05
4.15741e-05
0.000287439
-0.00027012
-0.00013807
0.000120751
-8.20464e-06
-0.000282902
0.000281987
9.11974e-06
-5.96267e-05
7.5299e-06
4.91573e-05
-0.000100962
9.40105e-05
0.00101092
1.48172e-06
1.04575e-05
-7.29702e-06
1.79984e-05
-4.49979e-05
3.42965e-05
-8.61063e-05
0.000416025
0.000257542
-0.000431899
0.000334401
0.000138227
-0.000253621
0.000194419
-0.000362878
9.39431e-05
7.7715e-05
-0.000304535
-0.000239934
0.000368431
5.41016e-05
2.30117e-05
-0.000503517
-1.76872e-05
0.000116378
-9.90615e-05
3.90785e-06
-0.000127658
8.1194e-05
-0.000109647
-0.000114544
0.000129231
-1.14867e-06
1.62927e-06
-4.88372e-05
4.83566e-05
-0.000402561
-4.67257e-05
0.00010213
0.000483895
-0.000484995
-8.8208e-05
8.93071e-05
-6.60636e-05
-0.000902041
1.49727e-05
0.000953132
-0.000122869
-0.00100646
0.00102868
0.000100645
4.29569e-05
-4.38419e-05
-1.66445e-05
-0.000220859
-0.000396215
0.000413508
9.82802e-05
0.000142373
-0.000124866
-0.000115787
0.000269849
0.000244391
-0.000310648
-0.000203592
-0.000518605
-0.000149884
-0.000139534
-1.4049e-05
-3.3685e-06
0.000156951
4.80809e-05
-8.81211e-07
-4.93312e-05
2.13155e-06
-5.22106e-05
-1.59481e-05
-2.86797e-05
-7.17875e-05
-1.28154e-05
-0.000261164
0.000186311
0.000179403
7.01262e-05
-5.61894e-05
-2.80067e-05
1.40698e-05
4.50945e-06
5.44095e-05
-5.90263e-05
1.0736e-07
1.60702e-05
0.000349518
-8.79492e-06
-0.000356793
5.79931e-07
0.00019494
1.26584e-06
-0.000196786
6.52728e-06
4.83139e-05
1.52851e-05
5.90288e-05
-0.00102852
0.00102637
-5.68729e-05
0.000260197
-0.00148371
2.06534e-05
0.00120286
0.000368026
7.35863e-05
-8.18448e-05
-0.000359768
0.000132957
2.76205e-05
-3.01476e-05
-0.00013043
0.000460285
-0.000252817
0.000144402
0.00029996
-0.000180074
-0.000282244
5.72542e-05
-8.56823e-05
-1.99995e-05
4.84275e-05
-0.000243842
0.000222884
6.21098e-05
-4.1152e-05
-0.000475148
0.000491378
7.98232e-05
-9.60535e-05
-0.00035144
0.000273879
0.000158992
-8.14306e-05
0.000147796
-4.76365e-05
8.16336e-05
-0.000181793
0.000337584
-7.80442e-05
0.00013903
-0.000398569
0.000396942
0.000148602
-6.36204e-05
-0.000481923
-1.98083e-07
-5.75392e-05
5.77373e-05
0.000292552
-0.0011568
-0.000100475
0.000105604
0.000120651
-0.000125779
-6.04444e-05
-0.000293244
1.37413e-05
0.000122318
-7.80082e-05
2.40405e-05
-6.835e-05
0.00104956
-0.00147347
0.000180232
0.000243683
0.000353436
-5.01263e-05
4.02978e-05
-0.000343608
2.02547e-05
4.04738e-07
-0.000103601
0.000102454
7.1386e-06
-0.000582247
0.000472655
-9.18045e-05
-0.00019946
0.000295548
-4.28331e-06
0.000108801
0.000198342
-0.000308939
1.79665e-06
-4.6194e-05
-0.00013605
0.000196775
-1.45307e-05
0.000558599
-0.00038519
5.30512e-05
2.02085e-05
-1.10243e-05
1.6044e-05
-3.56663e-05
3.57156e-05
0.000768909
-0.00050429
0.000121512
-0.000386132
-4.16749e-05
0.000391411
4.87001e-05
-5.87115e-05
5.96548e-05
-5.59497e-05
-0.00029502
5.5098e-05
0.000295872
0.000404143
2.7874e-05
-0.00034038
-9.1637e-05
1.10014e-05
-2.02714e-05
-0.000137153
0.000146423
-0.000110671
-0.00015168
0.000505425
0.000123752
-3.22725e-05
0.000300985
3.52483e-05
-0.000303961
0.000101835
0.000189946
-9.27558e-05
6.95371e-05
0.000420161
6.43075e-05
-4.11076e-05
0.000314384
3.77387e-05
-2.20955e-05
0.000132152
0.000110357
-0.00022369
0.000209553
-9.62204e-05
0.00122552
-0.0012137
-0.000285337
-1.61941e-05
-0.000332545
8.54255e-05
0.000299021
0.000235386
-0.000241761
4.25615e-06
0.000278121
-0.000177054
0.000457532
-4.84965e-05
-0.000131629
7.75706e-05
2.20053e-05
-1.77171e-05
-5.74295e-05
5.31413e-05
-0.000388477
-0.000800691
0.000506901
0.000682267
0.000205319
-0.000261269
8.29068e-06
-4.61761e-05
4.20978e-05
-4.21239e-06
0.000504678
0.00012633
-5.04035e-05
2.16371e-05
0.000216692
-0.000119752
0.000104066
-0.000157365
0.000122853
-0.000231
0.000112577
-0.00102117
0.00103035
0.000129548
-0.000138729
0.000148089
0.000695239
-0.00025875
-0.000271903
-0.000264506
-0.000159607
-0.000247206
-0.000212179
0.000145153
-0.000258266
-2.18112e-05
0.000134924
-0.000421482
0.000164698
-4.39575e-05
0.000300741
-5.51074e-05
7.82055e-05
-0.00010095
7.7852e-05
-1.74084e-05
-6.25424e-05
-0.000995703
0.00107565
-1.77041e-05
2.00909e-05
0.00053367
0.000154732
-0.000597802
-9.06e-05
1.27938e-06
-2.04735e-06
-5.66736e-05
0.000312748
-0.000300218
4.78633e-05
0.000449687
-0.000461158
5.5862e-05
0.000149868
-0.000154186
4.02673e-05
1.33654e-06
4.74346e-05
-6.90202e-07
-0.000291415
-1.8865e-05
0.000278007
5.3396e-05
-2.81018e-05
2.00665e-05
-4.53606e-05
0.000195783
-0.000168457
-6.14612e-06
-2.11801e-05
0.00034716
-0.000293837
-1.68515e-05
-3.6471e-05
3.3394e-05
0.00035725
-0.00030989
-8.07538e-05
-1.36208e-05
6.86897e-06
-9.67603e-05
0.000103512
-0.000986096
-0.000636015
0.00104672
0.000575391
2.68351e-05
-4.01446e-05
-3.54613e-05
4.87708e-05
-7.98776e-05
0.000122909
9.44091e-05
-0.00013744
1.64168e-05
-2.14505e-05
-2.17268e-05
2.67606e-05
0.0001243
-4.21098e-05
0.000422488
0.000311545
-0.000433925
0.000183097
0.000177482
-0.000267939
0.00013832
1.98219e-05
5.0104e-05
-2.6559e-06
9.44144e-06
-0.000115458
0.000108672
0.000445846
-6.14276e-05
0.000148522
1.58546e-05
-1.02371e-05
5.53693e-06
-0.000193125
-0.000188909
0.000104373
0.00027766
0.000319841
0.000799495
-0.00060624
-0.000351137
-0.000325683
0.000452815
0.000525991
-0.000507127
-3.5535e-06
-1.5311e-05
-0.000484719
0.000307814
0.000286793
3.52175e-05
-9.67588e-06
1.58623e-05
1.06024e-05
-2.50267e-06
3.53118e-06
-1.67638e-05
4.1419e-05
0.000110186
-0.000126291
1.61058e-05
-0.000197312
0.000135141
-0.000657831
0.000720002
-7.85443e-05
7.10075e-06
2.46816e-05
4.67619e-05
9.99536e-05
8.14703e-05
-8.3144e-05
-9.828e-05
-0.000125716
1.80025e-05
0.000176314
-6.85996e-05
0.00013345
-9.8166e-05
-0.000184519
-1.11427e-05
-6.25272e-06
-2.47051e-05
0.000139628
-0.000106181
6.65059e-05
8.20438e-05
-0.000274583
-5.13028e-05
-0.000128588
0.000127094
0.000182647
-0.000181153
0.000226249
-0.000157752
-2.34136e-05
-4.50839e-05
6.86752e-05
-2.35829e-05
4.18208e-05
5.77908e-05
6.16598e-07
-5.70649e-05
-1.05626e-05
-0.000241359
0.000307469
-5.55481e-05
2.9031e-06
-0.00012843
0.0001652
-3.96735e-05
6.66106e-05
1.48597e-05
0.000206859
-8.73588e-05
0.000248526
7.98826e-05
-4.50081e-05
9.80827e-05
-7.39548e-05
0.000285531
7.58624e-05
-0.00052558
-0.000326748
0.000638944
0.000213384
0.000818815
-0.00103668
0.000353623
-0.000135763
-2.1361e-05
0.000284818
-0.000272142
8.68494e-06
-7.08425e-05
0.000274328
-0.000328168
0.000124683
8.79589e-05
-4.77205e-05
-9.63387e-05
5.61003e-05
-0.000587557
0.00051007
-0.000108973
0.00018646
6.95407e-05
-5.67888e-05
-3.12697e-05
1.85178e-05
-3.80494e-05
0.000441199
-0.0004274
2.42499e-05
-0.000299752
3.72681e-05
9.66544e-06
-0.000237352
0.000241882
-1.41961e-05
8.6746e-05
-0.000284086
0.000274462
-7.71221e-05
-0.000118147
-0.00066579
0.000783938
-5.2077e-05
-2.97967e-05
-0.000112989
0.000194862
2.06431e-05
-2.15633e-05
1.40641e-05
-1.3144e-05
-0.000182808
0.000224012
-2.54628e-06
-3.86579e-05
-0.00043637
-0.00014743
0.000108653
-9.1899e-05
0.000132667
-0.000141243
-1.44636e-05
-1.66833e-05
1.67866e-05
1.43603e-05
-4.90141e-05
-3.28557e-05
4.27336e-05
3.91362e-05
-2.74493e-05
4.79431e-06
0.000345162
-0.000322507
0.0011239
-0.00113184
-9.22577e-05
0.000100194
-8.87539e-05
8.92327e-06
-5.26255e-05
4.20787e-05
1.05468e-05
0.000202722
0.00014431
-0.000190023
-0.000157008
-8.34966e-05
-7.98011e-05
7.60368e-05
8.72609e-05
-5.3177e-05
8.76082e-05
-0.000304551
-2.47821e-05
6.02916e-05
-0.000446739
-2.67794e-05
-0.000120719
-0.000533128
4.03488e-05
-1.21661e-05
-0.000248493
0.00032223
-3.89587e-06
-7.37158e-06
0.000246713
2.10085e-05
-2.33388e-05
-0.000256353
-4.7526e-05
4.11879e-05
-0.000296738
-7.57578e-05
2.72713e-05
-0.000153481
-3.88857e-05
3.56623e-05
-0.00052177
-8.55649e-05
0.000172543
0.000449895
6.8336e-05
-9.39132e-05
-0.000115914
-0.00111912
0.00114585
-2.83112e-05
-4.11587e-05
0.000131436
-1.88105e-05
-2.36621e-05
0.000109613
0.000351502
-0.000107254
-0.000290851
0.000241465
-4.07415e-05
-0.000211201
-2.36881e-05
1.80246e-05
2.16461e-06
3.4989e-06
0.000103475
0.000538389
-0.000115872
1.71015e-05
1.94062e-05
-0.000363285
0.000326777
3.43603e-06
3.19865e-05
-0.000170733
0.000135311
-2.10981e-05
2.26185e-05
4.00443e-05
-0.000185737
8.01484e-05
0.000325831
-5.05625e-06
3.51057e-05
5.80443e-06
-3.58539e-05
0.000316741
-0.000219499
0.000264166
-0.000361408
-0.000298868
-7.41467e-05
7.32619e-05
-0.000105598
2.67778e-05
0.000104467
-0.000116887
-0.000106716
0.000113957
0.000170158
1.69853e-05
8.11261e-06
5.05151e-06
-7.04873e-05
7.86068e-05
-1.3171e-05
-0.000322836
1.18339e-05
0.000316676
-5.67402e-06
0.000105599
0.000123664
-0.000211319
-1.79446e-05
0.000188037
-0.00047602
-0.000237596
0.000159108
0.000157337
-0.000279375
-3.70703e-05
-0.000372116
0.000303113
8.26846e-05
-1.3682e-05
0.000266014
-9.91967e-05
-0.000518257
4.72627e-05
-3.73566e-05
-2.10488e-05
0.000195636
7.54522e-06
-0.000162833
0.000277251
-7.83393e-05
-0.000223694
0.000905662
-2.58495e-05
-0.000771124
-0.000108688
-0.000155074
-4.7491e-05
-4.00571e-05
-3.79569e-05
-1.50424e-07
-5.73888e-05
-4.25067e-06
0.000587986
7.83754e-05
-0.000109896
5.96182e-05
0.000160635
-7.99975e-05
2.62772e-06
1.58201e-05
6.15497e-05
0.000204444
-0.000191178
0.000238315
-0.000251582
-1.61857e-05
0.000288973
1.53164e-05
-0.000288103
0.000172816
-0.000136205
-0.000139892
0.000103282
-0.000102357
-7.98768e-06
4.11044e-05
6.924e-05
-0.000560254
0.000537791
2.96017e-05
-0.000298494
0.000189425
-0.000351101
0.00024223
-9.42958e-05
-9.38737e-05
8.25711e-05
9.92847e-05
-3.10001e-05
0.000858313
-0.001025
-0.000263098
0.000429789
-0.000186069
-0.00100653
0.00120501
-1.24151e-05
-0.00112538
0.00116484
-0.000155376
-0.000193237
0.000189137
0.000138282
-0.000134182
-0.000305865
0.000312321
1.14931e-05
-1.7949e-05
-6.77998e-05
2.28726e-05
-2.51211e-05
-0.000474707
0.000578316
-0.000430357
4.69728e-05
7.59582e-06
-0.000170204
-8.01649e-05
0.000135054
0.000115314
-0.000105086
0.000111192
-8.36299e-05
6.52792e-05
0.000468245
-0.000661086