/*--------------------------------*- C++ -*----------------------------------*\
| =========                 |                                                 |
| \\      /  F ield         | OpenFOAM: The Open Source CFD Toolbox           |
|  \\    /   O peration     | Version:  v1912                                 |
|   \\  /    A nd           | Website:  www.openfoam.com                      |
|    \\/     M anipulation  |                                                 |
\*---------------------------------------------------------------------------*/
FoamFile
{
    version     2.0;
    format      ascii;
    class       volVectorField;
    location    "0.01";
    object      U;
}
// * * * * * * * * * * * * * * * * * * * * * * * * * * * * * * * * * * * * * //

dimensions      [0 1 -1 0 0 0 0];


internalField   nonuniform List<vector> 
5794
(
(-0.035366 3.05191 -1.96711e-17)
(0.00207028 1.48691 0)
(0.783365 2.5253 -1.26251e-16)
(-0.502445 0.990362 1.28801e-16)
(2.93912 1.04585 2.88742e-17)
(-0.0641475 2.41362 -8.82374e-17)
(1.3207 0.0550127 -1.9385e-16)
(1.22847 0.0731264 0)
(1.22507 0.155782 1.52088e-16)
(1.99702 0.0767407 1.48084e-16)
(0.465384 0.00912661 1.36154e-19)
(0.868738 0.108021 0)
(0.481696 0.077853 5.59886e-16)
(1.52157 3.01737 2.42092e-16)
(1.60145 0.0698721 3.56418e-16)
(0.307571 0.126381 -1.28798e-16)
(5.52907 -0.242067 5.63308e-17)
(0.444942 2.27753 1.97844e-16)
(1.66908 -0.0178375 3.23913e-16)
(0.146035 1.51215 1.18591e-16)
(-1.47021 5.35556 -2.18448e-17)
(0.199577 3.10454 -9.95241e-17)
(0.772557 0.215806 3.26483e-16)
(0.936555 0.125442 -5.05242e-16)
(0.731416 0.11665 -4.08154e-16)
(2.90245 12.9225 1.90834e-17)
(5.84415 -0.0531942 0)
(0.570243 2.10195 -1.63876e-16)
(0.112592 1.41139 -6.85286e-17)
(1.52166 -0.6757 1.948e-16)
(0.447514 0.0467275 -5.48894e-16)
(1.91235 0.0641454 -4.52068e-16)
(0.457174 0.0438081 -8.41476e-16)
(1.15772 0.0265876 3.35383e-16)
(1.00257 0.0725744 -1.77344e-16)
(1.1508 0.0656962 1.85213e-16)
(5.5839 1.55969 -3.26671e-16)
(0.661048 0.0710049 0)
(0.244581 0.0866549 1.60366e-16)
(0.9498 2.47872 0)
(0.799485 2.25409 -1.07577e-16)
(0.910765 1.95373 1.17126e-16)
(2.16397 0.0291199 2.99187e-20)
(-0.118381 4.99597 0)
(1.64339 0.110793 -3.1201e-16)
(0.505933 0.0389789 1.67625e-16)
(2.32225 0.156418 -2.60528e-16)
(0.580189 0.0774508 0)
(2.05461 -0.0425241 5.18181e-16)
(-0.300821 0.360593 5.79198e-17)
(-0.506498 0.310078 -1.32203e-16)
(1.60625 -0.0486958 -2.76492e-16)
(2.484 7.08935 0)
(2.10679 0.649793 1.13949e-16)
(0.0286407 0.0260678 7.71173e-18)
(0.663158 0.251679 0)
(3.3423 0.876643 -2.04532e-16)
(0.926556 0.430233 1.5066e-16)
(2.03859 -0.00474958 0)
(4.52419 12.5597 -6.30877e-19)
(4.99078 0.363415 2.64528e-18)
(0.430199 0.411658 -1.07718e-16)
(0.400075 0.0804973 -1.495e-16)
(1.94927 0.129063 1.8208e-16)
(0.420413 0.0556437 0)
(0.411025 0.0415808 -2.15548e-18)
(1.00546 2.38551 -2.10075e-16)
(0.0323241 3.17732 0)
(0.173133 1.75935 -2.0671e-16)
(0.0525295 0.837726 1.16596e-21)
(1.54862 0.132385 2.19407e-16)
(0.876703 2.29415 -3.3235e-16)
(10.2153 3.44152 -5.08611e-18)
(0.647466 0.214017 0)
(0.509837 1.99105 1.999e-16)
(0.255436 1.70959 4.25391e-19)
(-0.454149 -0.125202 1.10204e-16)
(1.70957 12.5624 -1.93628e-17)
(0.0589611 5.00403 2.65767e-17)
(-0.287226 -0.0983272 5.5519e-17)
(-0.0201988 3.84229 -1.0751e-17)
(0.11172 1.93026 -1.1182e-16)
(0.547046 2.08634 -1.63092e-19)
(0.32567 0.0754863 -1.04808e-16)
(0.7684 0.101283 -3.49629e-16)
(0.103933 2.18731 -5.69656e-17)
(0.325593 5.79151 3.16129e-17)
(0.0810413 1.06611 -3.31642e-17)
(0.744378 0.447377 -1.39113e-16)
(0.62475 0.60009 -4.69885e-17)
(0.0421196 0.91007 -1.24029e-16)
(0.187718 5.48538 -9.48912e-17)
(0.108529 2.58831 2.15826e-16)
(-0.0119199 1.77408 1.13593e-16)
(-0.0692885 3.53438 4.56907e-17)
(1.52224 0.0406041 6.64114e-18)
(0.00609221 0.897592 -8.4975e-17)
(-0.0963142 2.41671 -2.30981e-17)
(-0.147996 5.27855 0)
(4.66377 0.395381 -4.24055e-17)
(0.951286 13.0336 -3.54062e-17)
(1.58479 -0.752708 -3.28812e-16)
(2.03829 0.0246576 9.66186e-17)
(1.36718 2.57915 -3.39576e-16)
(2.14627 0.625723 0)
(0.464537 2.12083 0)
(0.029429 0.857927 0)
(0.307593 0.0678237 -2.12118e-16)
(1.58165 0.104744 -1.39365e-16)
(0.218598 5.014 -7.27153e-17)
(0.8363 0.164167 -8.97428e-20)
(1.31325 0.168283 0)
(-0.855842 12.6266 3.82674e-17)
(0.429572 0.031066 1.18511e-16)
(0.123601 3.02356 0)
(0.0636378 1.50579 0)
(1.40689 0.10198 -2.57925e-16)
(0.358945 1.96372 2.26499e-19)
(5.35125 0.298052 5.81182e-21)
(9.83971 3.79143 2.64636e-18)
(0.475945 2.03505 1.91463e-16)
(1.76163 -0.060929 0)
(0.5293 -0.281613 0)
(0.312503 2.13236 -2.07725e-16)
(1.41662 0.139128 1.63528e-16)
(0.90631 0.463982 6.39868e-17)
(2.6233 2.84569 0)
(0.0713434 2.45188 5.53813e-17)
(1.89633 0.267306 2.04402e-16)
(0.479068 0.0363165 1.29025e-16)
(0.677886 0.0791361 2.77826e-16)
(0.334534 0.0547561 1.9845e-16)
(2.45377 0.895501 2.03432e-17)
(1.40123 11.9347 -6.24516e-17)
(0.489395 2.13925 2.41027e-16)
(1.57625 0.0424526 0)
(2.09999 0.105337 9.71961e-17)
(0.405202 0.313253 -1.51571e-16)
(0.545967 0.430575 1.46188e-16)
(1.01405 0.159467 0)
(0.988038 0.917032 -4.37259e-16)
(1.66621 2.25561 0)
(1.43819 0.281968 0)
(1.40119 2.07878 3.38516e-16)
(0.560286 0.737279 1.62054e-16)
(5.45868 0.432867 1.67861e-17)
(1.40448 0.724989 2.11851e-16)
(2.29931 0.165331 3.49037e-16)
(2.86066 0.706899 -1.86782e-18)
(0.607084 1.51373 3.76437e-16)
(1.78173 0.0181238 -2.26822e-16)
(1.63277 0.113039 2.33609e-16)
(0.466146 2.15132 0)
(0.589424 -0.747447 1.65135e-16)
(5.71499 0.100353 0)
(1.78343 -0.0195114 0)
(0.266257 0.0554615 -2.63219e-16)
(0.269317 -0.000341375 3.60668e-16)
(0.299671 -0.0177565 -2.92995e-16)
(0.644285 0.0828811 -1.18583e-16)
(1.41801 0.00654779 2.84634e-16)
(0.801941 -0.0233859 -3.1575e-16)
(0.960454 -0.0167565 0)
(0.924529 -0.0249086 -1.27904e-16)
(1.35245 -0.0304554 -3.41946e-16)
(1.37551 0.0181124 1.81607e-16)
(0.870495 0.0413349 1.14932e-18)
(0.717294 0.0584363 -3.40654e-18)
(0.792762 0.0779781 0)
(1.05723 0.0228473 6.84416e-19)
(1.47056 -0.118942 0)
(1.50258 0.0191925 -1.11435e-16)
(0.760982 -0.0732554 0)
(0.718522 -0.0370734 8.40285e-17)
(0.826486 -0.0377757 3.28852e-16)
(0.906648 0.0409162 0)
(1.4264 0.135923 -1.69948e-16)
(0.803832 0.0410026 -2.11898e-16)
(0.973094 0.0441769 -6.77963e-17)
(1.31691 0.150431 9.20521e-18)
(0.392878 0.0453398 -4.74607e-18)
(1.39227 -0.00407623 0)
(0.198126 0.0439359 0)
(0.307412 0.0309288 1.0531e-16)
(0.158197 0.0344087 0)
(5.08836 -0.0965305 6.09211e-17)
(1.62292 -0.261076 -1.17928e-16)
(0.522751 -0.0244543 -7.99221e-17)
(1.89312 -0.163632 9.17945e-17)
(0.768405 -0.977476 2.67049e-16)
(0.374632 -0.0187462 -3.20687e-16)
(1.61705 0.0829508 3.28487e-16)
(0.358566 -0.0201048 5.23886e-16)
(0.3314 0.00050195 5.17295e-16)
(0.304601 0.0154968 -9.1163e-17)
(0.579919 0.00828892 -4.41223e-16)
(1.02256 0.0666108 -1.83482e-17)
(1.12465 0.0626052 -1.35215e-16)
(1.57996 0.087373 -2.11005e-16)
(1.92471 -0.0164462 1.30563e-16)
(1.12997 0.0730818 -1.85484e-17)
(1.41736 -0.067182 0)
(0.462441 0.00161686 0)
(0.405092 0.00489326 9.4079e-18)
(2.04636 0.0781008 -5.8331e-17)
(0.411602 -0.00959542 0)
(0.855625 0.0532448 9.39023e-18)
(0.175301 0.234957 -3.54371e-21)
(4.76628 0.346391 -7.21205e-18)
(2.29359 2.30299 2.21636e-16)
(0.379793 4.33825 7.10361e-17)
(6.57538 0.325194 0)
(1.07297 0.0803422 -1.04016e-16)
(0.927176 0.0888927 1.54596e-16)
(1.02838 0.194271 0)
(0.847763 0.207796 6.76206e-16)
(0.98338 0.221397 -1.61112e-16)
(2.01354 0.769029 9.37168e-17)
(0.44432 0.0540882 1.48033e-16)
(0.608243 1.15096 -2.74353e-16)
(6.43384 0.293911 0)
(0.0722931 0.264402 2.55242e-16)
(0.221664 0.798211 0)
(0.140323 1.75875 4.13553e-17)
(2.83163 0.101621 1.46361e-16)
(8.3005 0.999585 3.12131e-18)
(0.0720826 0.132337 -6.29449e-17)
(1.9573 0.193176 -8.308e-17)
(2.0611 0.0277148 0)
(1.48997 0.113424 -2.32981e-16)
(1.52264 -0.133676 0)
(1.31047 -0.127305 -5.66879e-17)
(1.46799 -0.107556 -8.00383e-17)
(1.63787 0.0954617 1.51414e-16)
(0.28955 0.295012 1.80627e-16)
(5.99534 0.000550006 1.07259e-17)
(5.69042 0.166083 3.00698e-18)
(1.94629 0.110837 3.62464e-17)
(0.514764 -0.238835 -1.5765e-16)
(-0.480811 2.60143 -2.6998e-16)
(-0.352403 1.35172 0)
(0.194444 0.467157 1.11108e-15)
(1.37124 2.92383 2.83873e-16)
(1.98683 1.20367 -2.12448e-16)
(1.65094 0.489105 2.27549e-16)
(0.753299 0.289015 2.3781e-16)
(1.60774 0.215006 -1.09848e-16)
(2.92612 0.479381 8.2861e-18)
(-0.0129777 0.851848 0)
(-0.116879 2.0946 0)
(-0.111761 4.66162 0)
(0.42394 0.04002 2.24782e-17)
(5.70667 0.0296022 -8.73395e-17)
(0.482308 0.0150897 -2.8596e-21)
(1.85336 0.899601 -7.08904e-17)
(4.50866 0.941399 -1.5161e-17)
(2.21644 0.0272654 -2.26085e-16)
(2.19418 0.313863 2.38811e-16)
(0.0976964 0.205931 2.31217e-16)
(1.50977 0.112176 0)
(2.05453 0.0100767 -1.45975e-16)
(0.980573 0.12039 8.88217e-17)
(0.843774 0.124944 -8.7981e-17)
(0.455985 0.0210521 0)
(0.74764 -0.0360008 0)
(1.67034 0.0125658 -4.95865e-19)
(0.756461 1.88961 1.41168e-16)
(1.46221 0.183045 0)
(1.54458 0.0915492 -4.94424e-16)
(0.372932 0.0136445 -1.45726e-16)
(2.07099 0.0688376 0)
(0.403793 0.0532322 -2.63931e-16)
(0.407619 0.849885 -4.76034e-16)
(1.66994 0.0895929 -3.01173e-16)
(5.04568 1.15134 5.30885e-17)
(1.48909 -0.0888082 2.3141e-16)
(2.16391 0.380821 -1.21068e-16)
(0.90604 0.402844 -7.45025e-17)
(1.16462 0.332349 -1.41786e-16)
(0.727314 0.339902 -2.61382e-16)
(1.32477 0.09904 2.69518e-16)
(-0.0528048 0.975705 3.04845e-16)
(1.03555 1.99896 1.13904e-16)
(1.0968 1.70467 -3.29027e-16)
(1.18698 2.20073 6.5914e-17)
(-0.288443 2.73196 1.50792e-16)
(0.29117 5.56277 1.28673e-17)
(-0.148832 3.76839 0)
(-0.175618 1.85633 6.72294e-17)
(0.5725 2.12277 0)
(1.26302 0.180164 -1.50775e-17)
(1.09849 0.191456 -1.1739e-16)
(1.2613 0.15536 1.87903e-18)
(1.87709 0.127783 0)
(2.31232 1.33128 0)
(2.50432 9.46881 5.27197e-18)
(1.52588 2.04773 5.82627e-17)
(1.51549 1.76607 3.41657e-19)
(1.63764 2.21474 -2.26382e-16)
(0.444588 0.0238342 -1.39423e-16)
(0.129864 1.6241 7.85687e-17)
(-0.0292302 12.9192 0)
(0.285938 2.85467 -4.51762e-16)
(1.36561 2.75459 0)
(0.970632 4.88143 -8.57559e-17)
(1.81092 0.162707 1.643e-18)
(1.08857 0.384591 -2.02518e-16)
(0.449107 1.34434 3.47664e-16)
(0.409924 0.023324 3.3059e-16)
(1.98738 0.00723911 0)
(0.396189 0.0413104 -5.64558e-16)
(0.569314 0.220782 -2.43147e-16)
(1.81305 2.77514 -2.27083e-16)
(0.420845 0.0361848 -6.68563e-17)
(6.88705 0.389503 0)
(6.64037 0.302964 -2.82596e-17)
(0.354758 0.0799168 -8.37849e-17)
(0.695656 2.23201 -3.30146e-16)
(1.68491 0.063954 -2.60385e-16)
(-0.278058 1.33883 -6.59545e-17)
(1.43813 0.897952 3.83217e-16)
(1.39471 0.905325 -1.74534e-16)
(0.185505 1.81486 -1.55903e-16)
(3.06866 0.773905 -8.93333e-19)
(0.37811 0.0956024 0)
(0.27344 0.172103 0)
(0.735029 0.0662276 0)
(0.733623 0.0432271 5.96577e-17)
(0.371723 0.00690365 -3.32386e-16)
(0.40676 0.0434047 2.72353e-16)
(1.48171 0.0546285 -9.31103e-18)
(2.06912 0.0382496 3.24356e-16)
(0.424072 0.0369194 7.87968e-17)
(0.433392 0.0331022 4.1966e-16)
(1.65616 -0.0855855 0)
(1.86106 -0.04231 -1.64885e-16)
(1.75085 -0.20341 0)
(0.922798 -0.00111526 0)
(1.83641 -0.102881 -2.2028e-16)
(0.51143 -0.0480977 0)
(0.911341 0.0931043 3.2968e-16)
(0.717007 0.0907751 3.72494e-16)
(1.21308 0.132387 0)
(0.798883 0.0949771 0)
(1.29795 0.212397 2.9673e-16)
(0.0210141 0.0227418 3.38015e-16)
(0.178455 0.0440329 2.77432e-16)
(1.02868 0.0671874 -2.01849e-17)
(1.15521 0.11235 -1.36308e-16)
(0.45288 0.0246973 7.0568e-17)
(0.127417 0.0586239 7.24767e-17)
(4.88034 0.338097 1.9134e-16)
(0.336243 -0.0192064 -1.94815e-17)
(1.38219 -0.0547657 1.33438e-16)
(0.275327 0.0011225 0)
(5.20402 -0.101162 0)
(1.69824 0.224716 1.24959e-16)
(1.56329 0.0342913 2.26721e-16)
(1.11503 -0.0492502 6.53504e-17)
(1.01753 -0.0500521 0)
(0.210021 0.173639 -2.35252e-16)
(0.674365 0.207133 4.76804e-16)
(2.09814 0.0495468 3.80287e-17)
(1.20651 0.267228 -3.49788e-17)
(1.09963 0.279714 -2.43837e-16)
(2.37786 0.202692 3.52233e-16)
(1.32246 -0.0810733 -4.24543e-17)
(0.522286 0.0568361 0)
(2.49267 0.19408 3.21121e-16)
(0.678289 0.0864113 -8.41631e-17)
(1.03325 0.863933 -1.01474e-16)
(0.451267 0.0206598 0)
(2.28208 0.324953 -8.03364e-17)
(0.175334 1.41909 2.34274e-16)
(0.396615 0.105262 7.26108e-17)
(1.47476 0.0911143 1.75076e-16)
(0.787514 0.191657 0)
(3.54292 0.91548 7.7778e-17)
(1.13596 0.436795 0)
(1.12707 0.133511 1.06602e-17)
(-0.0456097 2.34154 1.28668e-16)
(0.922436 0.81345 0)
(6.38933 0.235601 0)
(1.17623 0.0536256 1.40135e-16)
(1.0153 0.0538249 -5.51736e-16)
(1.17181 0.0262499 -2.64984e-16)
(0.211825 1.62637 -5.62085e-17)
(0.908017 0.242022 2.63876e-16)
(0.771807 0.271948 -9.20387e-16)
(0.627159 0.0946426 0)
(0.47256 0.0968296 -6.4389e-16)
(1.11243 0.530021 7.26337e-19)
(0.0279051 0.867069 -1.92155e-18)
(1.21536 0.285777 1.23785e-16)
(0.477213 -0.192276 7.31105e-17)
(0.435908 -0.18951 -7.83757e-17)
(0.680775 -0.188374 8.10119e-17)
(-0.538192 5.28386 0)
(1.51258 0.105739 0)
(0.884839 0.0784312 -2.89366e-16)
(0.984477 0.0341065 1.10357e-16)
(0.815825 0.0544191 -3.95378e-16)
(5.82526 0.242183 5.76915e-17)
(0.627316 0.0852254 1.54445e-16)
(0.946493 0.101419 0)
(1.75793 0.267433 6.42354e-17)
(-0.12045 5.12333 -3.79398e-19)
(-0.173757 2.12064 1.54176e-16)
(0.00402929 0.826155 -3.07116e-17)
(0.0663079 0.884605 -9.01959e-17)
(-0.0289107 2.15504 3.82775e-17)
(0.192314 5.27544 0)
(0.773661 0.200499 1.59257e-16)
(1.29475 -0.172767 2.56793e-16)
(0.392704 0.0364418 2.23055e-17)
(2.03112 0.019149 7.39068e-17)
(0.413184 0.0403923 0)
(-0.421651 1.39091 2.20428e-16)
(1.35417 0.161651 0)
(-0.00317699 0.894016 6.25301e-17)
(-0.126578 5.32241 -7.80779e-17)
(-0.0881582 2.3982 5.08709e-17)
(0.416373 0.0178667 -1.19537e-17)
(1.18944 0.925586 -3.00945e-17)
(0.970835 0.0877248 0)
(0.859739 0.0917437 0)
(1.01038 0.104478 -1.49416e-16)
(0.436335 0.0300469 -1.54614e-16)
(0.00471203 1.71765 -1.00755e-17)
(0.0243545 3.47268 3.40384e-17)
(1.42834 0.21947 4.33345e-16)
(6.14191 0.464549 1.83895e-17)
(1.00916 1.95804 -3.14323e-16)
(1.55199 3.76964 -5.10271e-18)
(1.77444 0.148929 2.28416e-16)
(1.30897 0.130787 0)
(0.767882 0.107472 1.38169e-16)
(0.359375 0.0414223 -8.98686e-18)
(1.03025 0.0605691 -9.18802e-17)
(0.907549 0.0571507 1.82609e-16)
(1.08003 0.0649591 1.82534e-16)
(6.71854 0.540077 -3.9638e-16)
(0.242356 0.0215071 0)
(0.553036 0.0512681 6.47923e-17)
(0.800956 0.179215 -1.9108e-18)
(-0.0113574 1.57754 -1.14674e-16)
(-0.0382783 3.23033 6.33568e-20)
(0.410027 0.132899 0)
(-1.32148 3.91192 1.08373e-16)
(1.74687 3.15062 -7.13154e-17)
(1.70101 -0.0788782 -1.5194e-16)
(0.128338 1.56315 -5.0343e-17)
(-2.0703 7.68734 2.00584e-17)
(0.315197 3.28656 -3.28873e-16)
(-0.196831 2.4467 -4.07953e-17)
(0.486772 0.0335605 -4.38208e-16)
(-0.0397916 0.900638 -3.17411e-18)
(1.20148 0.353438 -2.84367e-16)
(0.400215 3.74464 -4.40174e-17)
(0.165549 1.9414 1.66817e-16)
(0.655609 2.5399 -7.22036e-17)
(0.411479 1.16454 -1.71146e-16)
(0.666096 9.96208 5.36201e-17)
(0.898646 0.378791 -3.03176e-16)
(4.36063 0.394097 1.2659e-16)
(0.481828 0.0445636 -2.20995e-16)
(6.46376 0.792842 -3.37541e-18)
(3.2867 1.64857 6.7311e-17)
(0.503626 0.0482487 -3.50477e-16)
(0.350081 4.89794 -3.39377e-17)
(0.465782 -0.0255562 2.98328e-17)
(5.28089 0.296837 -6.501e-18)
(0.872196 0.19196 -6.65441e-17)
(2.01009 0.128579 2.06448e-17)
(1.89656 0.0411519 -1.41173e-16)
(0.747885 0.00123742 8.81898e-16)
(5.97873 0.481402 -4.9285e-18)
(0.514763 2.2759 1.99981e-16)
(0.686642 1.06524 1.68882e-16)
(0.501797 1.39828 3.90997e-17)
(0.0546412 11.2603 7.78155e-17)
(0.821724 2.99175 0)
(2.05952 0.0692772 -1.30181e-16)
(2.01548 0.0899452 8.87379e-18)
(0.375663 0.042401 1.51471e-16)
(0.459751 0.0268523 5.16391e-20)
(6.71849 0.422201 0)
(0.757376 0.0466873 1.90868e-18)
(4.34318 0.0776376 -3.83003e-17)
(0.225281 3.5482 2.34119e-20)
(0.103033 1.75213 1.43536e-16)
(-0.00197571 1.15745 -1.84031e-16)
(0.345095 1.42695 6.73015e-16)
(3.1367 0.528938 7.98496e-18)
(0.173246 5.40179 9.11466e-20)
(1.00037 0.0842479 1.8794e-16)
(1.68207 -0.0742367 0)
(0.838402 0.895583 0)
(0.398705 0.0480244 -2.79318e-17)
(1.84572 0.23465 5.26522e-20)
(3.89765 0.940128 2.91977e-17)
(5.90293 0.251477 -1.0276e-17)
(5.32672 0.7851 4.7397e-18)
(0.321903 0.235975 0)
(0.93074 2.23149 0)
(0.389734 0.950656 1.75621e-16)
(0.713782 2.11288 1.50603e-16)
(2.25821 0.265832 -6.87835e-16)
(0.607947 0.269869 0)
(0.426795 0.0224797 0)
(1.67388 0.0295329 2.70025e-16)
(1.00766 0.40711 1.27347e-18)
(0.145478 2.22858 -1.44476e-16)
(0.502242 0.0508343 1.5306e-16)
(0.406443 0.0698936 -7.64677e-17)
(0.527516 3.6014 -3.9061e-17)
(0.214932 1.8115 -2.55349e-17)
(0.526169 0.0450825 -2.06142e-16)
(6.60597 0.52281 -8.55271e-17)
(6.06726 0.659055 5.33033e-18)
(-0.188622 1.8957 1.11154e-16)
(0.0509955 0.761384 -3.07679e-17)
(3.21525 1.15395 -1.16152e-17)
(0.662771 2.19794 -2.42927e-16)
(0.477362 0.0230938 8.21474e-16)
(0.243383 1.33459 5.21871e-18)
(0.910228 2.92859 0)
(0.74705 1.04774 1.32962e-16)
(0.208849 1.20623 8.77066e-17)
(0.361122 2.64529 1.6377e-19)
(-0.432061 6.57244 8.37285e-17)
(0.392407 0.037888 0)
(6.4201 0.492933 0)
(0.685955 0.954532 -5.10697e-17)
(2.20002 0.23891 0)
(1.15242 0.0296364 6.35488e-17)
(6.48123 0.298102 -1.46956e-16)
(2.32499 0.188945 8.02397e-17)
(0.501267 0.0280728 9.50967e-17)
(2.08119 0.00292352 1.11451e-16)
(0.201435 3.48196 5.08518e-17)
(-1.27237 4.29632 5.97626e-17)
(0.0881671 1.69982 1.56359e-16)
(1.95747 2.83835 -1.31108e-16)
(0.744547 0.0330114 -6.34554e-17)
(0.399641 0.0791803 0)
(5.08978 1.97844 0)
(1.45905 2.13938 -2.89801e-16)
(0.419623 0.00454794 -1.59975e-16)
(0.237191 2.58859 4.66757e-16)
(1.4037 2.47027 -3.98754e-17)
(1.29646 0.159996 0)
(1.36289 -0.0299065 -3.25721e-16)
(1.28729 4.89649 -9.02069e-17)
(0.691746 1.94696 1.12391e-16)
(1.34156 0.343334 0)
(-0.138049 5.84825 0)
(0.251433 2.51487 0)
(0.135951 1.08781 -1.39545e-16)
(1.19426 1.85124 7.26845e-18)
(9.47532 4.90922 -3.20276e-18)
(1.21247 -0.219494 0)
(1.45698 0.322759 0)
(1.64948 0.309939 -7.30092e-17)
(1.79676 2.46294 1.00713e-16)
(0.562987 0.273117 0)
(0.230553 0.161063 3.49653e-16)
(1.13269 2.57006 1.23448e-18)
(0.318135 2.13508 -1.11615e-16)
(0.440537 0.0203081 0)
(4.07026 0.37006 -8.64414e-17)
(1.75674 -0.0443996 -1.48644e-16)
(-0.0455427 1.50335 8.00745e-17)
(0.208103 2.31919 0)
(1.47896 2.72715 -7.87198e-18)
(7.17018 1.09795 -2.49504e-17)
(3.51411 1.33975 -4.54366e-18)
(1.33892 2.39282 -1.57524e-16)
(1.21868 1.85731 -2.03565e-16)
(1.19072 2.17992 -4.5754e-16)
(0.492894 2.0255 -7.05577e-19)
(0.971392 3.97253 6.54257e-17)
(0.280554 0.73097 0)
(6.42529 -0.0370322 3.60004e-17)
(1.15853 0.232919 1.70028e-16)
(3.08143 0.383584 -1.74899e-16)
(0.442527 0.0297752 1.40331e-16)
(-0.215257 2.28305 0)
(-0.102677 5.04027 -6.34346e-17)
(-0.0135353 0.855635 2.54472e-16)
(0.432981 0.0200882 -6.12969e-18)
(0.41278 1.96757 4.03937e-17)
(0.353121 0.149688 5.58443e-18)
(0.292479 1.64041 -4.85966e-17)
(0.612136 3.09565 -3.99527e-17)
(0.576025 1.06901 9.24302e-17)
(0.978496 0.112926 1.44707e-17)
(8.27799 1.10962 0)
(0.583985 0.128339 3.79715e-16)
(1.60908 0.28218 -7.61537e-17)
(0.691689 0.233618 -2.85275e-16)
(3.78994 0.344865 2.23513e-17)
(-0.0978392 2.88766 -6.69825e-17)
(-0.0326907 1.42478 3.60118e-16)
(0.464413 0.0197336 2.38055e-20)
(0.672012 0.102418 -8.8182e-17)
(1.68814 8.07305 0)
(1.73037 -0.0804587 0)
(0.0298397 0.075101 -1.5545e-17)
(0.39323 2.10414 0)
(3.59581 2.04012 -6.75074e-17)
(4.48184 1.27927 0)
(1.45897 2.69423 -2.1944e-16)
(0.25317 4.6907 3.29051e-17)
(0.374022 0.145651 3.4407e-16)
(0.101467 0.116424 4.76685e-17)
(1.90845 0.170044 -1.91145e-17)
(0.522181 -0.0140805 -2.17811e-16)
(2.2285 0.0647744 -4.15583e-16)
(-0.289424 0.351255 0)
(0.439229 1.03163 -6.32479e-17)
(0.754213 0.50181 2.28782e-16)
(0.910244 0.346712 -8.34424e-17)
(0.231699 0.145183 -3.3955e-16)
(0.459325 0.721897 4.77453e-16)
(0.392316 1.43089 2.57191e-17)
(0.359222 1.45129 -3.43534e-16)
(2.27558 1.2689 -1.01998e-18)
(0.121764 0.531425 -2.29692e-16)
(0.431114 -0.00863916 1.49787e-16)
(-0.223247 3.03503 6.14939e-17)
(-0.126418 1.55711 0)
(0.706474 0.435234 -5.65926e-17)
(-0.464201 1.9713 -5.79964e-17)
(-0.0753584 0.75861 2.44604e-16)
(1.97095 0.0577753 -7.5703e-17)
(2.39912 9.86031 -3.77977e-17)
(8.77687 0.393313 -1.01674e-16)
(2.19227 0.0419575 7.10677e-17)
(0.94152 2.19119 -6.05996e-17)
(0.811104 -0.127706 -1.125e-16)
(2.0831 0.0459632 4.69647e-16)
(0.479675 0.0336266 -2.90725e-17)
(-0.236456 5.43091 3.88803e-18)
(2.28662 0.064003 2.52747e-16)
(-0.23263 1.3492 -2.5432e-16)
(-0.385556 2.83155 1.1006e-16)
(-3.00584 1.46752 0)
(0.535851 1.09352 -9.26015e-17)
(0.15013 0.123593 2.19089e-17)
(0.845159 2.56379 0)
(1.4035 3.22662 -1.11594e-16)
(0.640271 0.947335 4.90508e-17)
(-0.019396 0.0245431 2.56442e-16)
(0.437696 -0.171538 2.49197e-16)
(1.95099 0.080254 -4.26804e-17)
(6.45111 1.34672 -1.64452e-18)
(-0.0954521 0.694623 -1.67227e-16)
(3.67301 -0.199193 3.07276e-16)
(0.568187 1.65569 -2.45016e-16)
(0.839884 0.41369 9.03301e-17)
(2.08886 0.028249 0)
(0.723847 3.38907 -7.02926e-18)
(-0.874224 10.4199 -7.87669e-17)
(0.429271 1.69367 -2.96729e-20)
(-0.425064 3.43971 3.38466e-17)
(-0.159464 1.7027 -5.17553e-18)
(0.193084 2.84666 -1.53834e-16)
(1.52057 5.58189 3.1117e-17)
(-0.0116764 1.05985 -1.91549e-16)
(1.9654 0.0685953 9.09502e-17)
(-0.00158854 5.39336 0)
(7.66508 1.77468 0)
(0.918625 0.343862 3.53906e-16)
(1.72001 0.794336 4.10632e-16)
(-0.30462 3.19085 2.04332e-16)
(-0.181027 1.61848 -2.46961e-16)
(0.668384 0.0714101 1.06709e-16)
(1.54938 2.89214 -5.36472e-17)
(0.0873498 1.86623 3.573e-17)
(-0.107678 0.93092 1.79433e-17)
(0.132799 0.308401 -5.74326e-20)
(1.37248 1.04327 -4.69871e-17)
(0.351065 0.0739843 -8.57253e-18)
(1.42789 2.66424 -5.20679e-17)
(2.40903 -0.000325496 -4.316e-16)
(-0.289996 0.696648 8.81338e-18)
(0.762402 0.943538 1.23571e-16)
(1.26036 0.328212 0)
(0.539751 0.0713742 0)
(0.338859 2.42691 0)
(0.188052 1.63595 4.27722e-16)
(1.81625 9.0203 2.67119e-16)
(0.354891 3.24677 3.46633e-16)
(1.89799 0.0571185 2.68755e-17)
(0.794649 1.14055 -7.19434e-17)
(0.288739 0.144065 0)
(0.705069 1.81886 6.28052e-17)
(0.895116 3.34465 2.06144e-17)
(6.62385 0.239147 -1.17733e-17)
(1.60043 -0.0909828 -7.10359e-17)
(0.4864 0.0100162 3.25407e-18)
(0.412314 0.0316947 -1.25973e-16)
(2.13872 0.197915 -2.62983e-17)
(1.41357 1.45258 0)
(0.0317865 0.17739 -4.32582e-16)
(1.39543 0.190915 2.60661e-16)
(1.96816 0.0412626 0)
(0.631085 1.00578 5.59351e-17)
(0.122921 0.709222 -3.42816e-16)
(2.08854 0.0808314 0)
(0.518284 1.91562 -8.76444e-16)
(1.00482 3.57421 -1.85747e-16)
(0.0803714 0.73054 0)
(0.84974 0.19282 0)
(9.10895 0.367857 6.87531e-17)
(5.83491 0.673696 5.1237e-17)
(7.12768 2.41881 2.68271e-18)
(1.13263 0.438973 5.34281e-20)
(0.464972 1.75035 0)
(0.271618 0.359604 2.06315e-16)
(4.2781 8.68599 -2.73617e-17)
(2.25481 0.0998428 0)
(0.755176 0.993536 -3.53515e-16)
(4.20218 0.930173 3.22752e-17)
(0.364761 5.34624 -6.87647e-17)
(2.43606 0.476889 -8.25302e-17)
(7.59841 -0.0600003 1.16679e-16)
(0.188665 0.6329 -2.0444e-16)
(6.55566 0.294665 -2.23663e-17)
(0.261709 3.29696 2.45908e-16)
(1.18691 9.32322 4.62017e-17)
(0.150931 1.67421 -2.196e-16)
(0.918507 0.657098 0)
(1.88696 0.0542863 1.05857e-16)
(1.65507 2.06785 -1.31977e-16)
(5.15821 -0.416553 3.59618e-17)
(0.557142 0.0667499 1.01915e-16)
(-0.0131445 5.45426 2.31274e-20)
(-0.0218164 2.54365 2.10782e-20)
(0.0153033 0.909455 1.17613e-16)
(-0.287474 0.261109 0)
(-1.26716 0.707235 0)
(-1.19945 1.06776 6.65075e-17)
(0.41546 2.14352 1.07076e-16)
(-0.215351 2.39204 -1.40781e-16)
(-0.619097 5.03976 -3.60486e-18)
(-0.00356699 0.908066 0)
(0.637275 4.86679 -2.46396e-17)
(7.00106 0.576213 1.36361e-16)
(0.971399 1.51797 0)
(1.75127 3.59803 -2.41688e-16)
(1.21686 1.18408 5.23021e-17)
(0.494141 0.0397978 2.03006e-16)
(0.150416 2.93606 9.9729e-17)
(0.0840022 1.4654 3.01905e-16)
(4.65769 1.97355 0)
(0.0154923 1.76933 -6.77094e-17)
(0.00616094 3.49128 -4.41247e-17)
(2.95287 0.832697 -1.49235e-16)
(0.701945 0.123696 -6.33752e-20)
(5.61693 0.467187 1.11786e-17)
(0.434464 2.52036 4.58959e-19)
(-0.400856 3.27981 0)
(-0.0987019 1.66732 4.62234e-18)
(1.00033 2.47243 -1.36515e-16)
(2.46711 4.71973 -3.94293e-17)
(0.273779 1.01621 1.98692e-16)
(0.150412 5.15647 2.36821e-17)
(-0.14495 2.24197 3.94681e-16)
(0.0242517 5.07756 0)
(-0.00645877 0.865782 -2.46731e-16)
(1.96442 1.04685 2.70941e-17)
(0.587166 0.95161 -1.12667e-16)
(2.12962 0.309703 5.94087e-17)
(0.208547 0.112268 3.51395e-18)
(0.0800703 1.28178 9.90131e-17)
(0.424971 2.67478 0)
(1.82624 2.1885 1.52594e-17)
(0.147145 2.65703 -1.63219e-17)
(0.418495 0.0350813 -1.01214e-16)
(6.71549 1.81573 -1.14414e-18)
(0.638247 7.09362 -1.75822e-17)
(0.335463 2.30859 -1.61825e-16)
(0.216579 1.02077 -1.5464e-16)
(0.599095 2.21936 -3.82797e-16)
(1.45565 4.97529 0)
(0.262971 0.199226 2.29476e-16)
(0.516187 1.80374 1.36424e-16)
(1.02664 3.42503 2.84647e-17)
(-0.142779 0.487859 -6.74798e-17)
(0.323152 0.871352 -2.18548e-16)
(0.146332 0.297054 5.00816e-16)
(0.704044 0.715716 5.62086e-16)
(-0.104333 0.371351 -2.40565e-16)
(1.6059 4.37878 3.05368e-16)
(0.13658 1.67483 -2.7787e-16)
(-1.45798 8.85541 -4.52909e-17)
(0.208476 3.51933 -7.68732e-17)
(2.15796 10.9563 0)
(6.86572 0.617552 0)
(0.303354 0.109627 -2.48771e-16)
(0.833186 1.63925 1.54552e-16)
(0.779372 0.869146 -5.52327e-17)
(0.672872 1.27313 0)
(1.74475 0.235343 8.59047e-17)
(0.448467 0.0743524 4.87145e-21)
(0.11098 0.375795 -5.52389e-16)
(2.06033 0.066702 2.65105e-16)
(0.356684 1.50836 1.82706e-16)
(0.713707 2.85582 -4.56302e-16)
(0.958148 0.611799 3.33724e-16)
(0.771323 3.60263 -1.00151e-16)
(3.56432 0.536616 -2.08772e-17)
(0.589373 1.21268 2.82944e-16)
(0.964443 0.174637 1.43991e-16)
(0.71417 0.326178 0)
(0.46507 0.190548 4.68894e-17)
(0.313304 0.523603 -7.84191e-16)
(0.131478 0.916659 -1.95523e-17)
(0.138701 2.24411 2.08312e-16)
(0.027677 5.27651 1.65172e-17)
(2.43776 0.260138 -1.98015e-16)
(5.9404 0.024134 -2.83221e-19)
(0.426068 -0.00375318 1.46017e-16)
(6.48482 0.323234 0)
(1.53777 0.35456 -3.7619e-18)
(1.98551 0.0966919 2.0063e-18)
(1.94323 0.0186507 -1.33312e-17)
(-0.186289 5.14867 4.67725e-17)
(-0.212293 2.36545 5.99315e-17)
(-0.0433832 0.898345 2.4161e-17)
(6.48995 0.208198 2.20543e-17)
(0.715865 0.967969 1.63256e-19)
(0.167961 2.42786 -7.24917e-17)
(1.96568 0.073044 1.67013e-20)
(0.575882 1.61333 0)
(7.67142 3.15583 -6.32028e-18)
(-1.55991 0.749987 0)
(-0.881525 0.400166 6.96818e-17)
(-1.67698 1.83584 3.26117e-17)
(-0.00271461 0.906441 3.95383e-18)
(0.649862 0.189034 2.01222e-16)
(0.703799 0.908589 2.6931e-16)
(4.28292 5.6388 -2.23277e-17)
(0.39912 0.0432868 2.04479e-16)
(1.115 1.346 2.44933e-16)
(3.5225 1.09927 1.5159e-16)
(7.84903 2.3079 4.85837e-17)
(5.18859 0.956864 4.13229e-17)
(-0.247754 2.99335 -6.30301e-17)
(-0.110988 1.45298 4.13618e-17)
(-0.566887 2.03505 1.30299e-16)
(-0.264617 0.986313 0)
(1.55458 0.176241 5.34009e-17)
(0.863727 0.574807 1.34618e-16)
(5.92887 0.378494 -3.38715e-17)
(1.26756 2.65809 9.54686e-17)
(0.385548 0.112832 2.02041e-16)
(0.158675 0.178649 0)
(2.8443 1.65582 0)
(1.18887 2.32081 0)
(0.81295 4.66702 1.91937e-16)
(2.13972 0.20681 6.64252e-17)
(0.709223 1.67557 3.43456e-16)
(1.40908 3.02675 3.48361e-17)
(2.44031 8.09329 -5.90243e-17)
(0.696421 0.111943 0)
(0.824975 1.28778 6.63561e-17)
(0.708625 2.48908 -1.90524e-16)
(0.736964 0.475712 -6.0646e-16)
(8.5143 0.241422 1.47547e-16)
(1.55508 0.310049 0)
(-0.200069 2.45431 1.30123e-16)
(1.09877 6.91023 0)
(1.42007 0.367173 1.20612e-16)
(0.764122 0.852209 -1.81386e-17)
(1.39784 11.1044 5.92781e-17)
(3.12835 0.65413 -2.13198e-17)
(5.47075 1.9703 1.70927e-16)
(0.508864 -0.109084 0)
(0.182848 1.07629 -5.95744e-17)
(0.468657 0.0270819 0)
(2.20444 0.106884 0)
(0.402206 0.025533 -1.10537e-16)
(0.712733 0.909256 1.77352e-17)
(-1.69153 12.9423 -5.31207e-17)
(1.26161 0.216982 -1.37486e-16)
(0.339946 4.99491 1.00682e-16)
(7.48234 0.607994 2.09399e-20)
(0.767451 0.621945 -1.28302e-16)
(0.209226 2.38963 -4.61062e-20)
(-0.271571 3.24828 8.61839e-17)
(-0.0951364 1.67678 -1.08819e-16)
(1.29494 2.40336 -1.25929e-16)
(0.566444 1.15494 -3.7343e-16)
(2.72017 0.911303 -1.33251e-17)
(0.00360907 3.75771 -2.1521e-16)
(0.0324888 1.82496 -1.48687e-16)
(1.9032 0.815773 5.15243e-17)
(0.444068 0.0199149 1.73596e-16)
(0.764995 0.52308 -2.27899e-16)
(-0.0214517 0.806521 -4.29647e-16)
(-0.384751 2.2117 -2.79266e-16)
(0.842794 0.7008 1.33655e-19)
(0.636673 0.504125 4.49848e-16)
(6.5458 0.294554 -9.45956e-17)
(0.435938 0.0164887 0)
(0.662553 2.746 -9.18792e-20)
(1.50096 1.43506 -1.20798e-16)
(0.24611 2.14786 0)
(7.02083 1.86328 4.66478e-17)
(0.579822 0.076415 2.28317e-16)
(0.511413 0.0727347 -2.04866e-16)
(6.09872 0.260133 0)
(0.530232 3.98783 -8.5694e-20)
(0.160843 2.01164 0)
(6.35904 0.313357 0)
(0.427866 0.0288319 -4.18777e-17)
(6.08337 0.0598898 -9.7246e-17)
(1.09762 1.02056 -4.16328e-16)
(1.92159 6.06757 2.40947e-17)
(1.82277 1.38246 -1.34974e-16)
(-0.293517 2.25291 -7.69461e-17)
(-0.469292 2.55601 1.81114e-19)
(-0.349013 2.58683 -7.57956e-17)
(0.362025 2.49526 0)
(-0.159794 1.65991 1.16579e-16)
(-0.0773923 0.923435 0)
(0.339017 3.88151 0)
(0.0793597 3.63055 0)
(-1.13809 4.25302 -1.04615e-16)
(-0.475403 2.49509 0)
(-0.163424 0.811741 9.89249e-17)
(-1.36815 9.48218 -1.12751e-16)
(0.989869 2.40074 0)
(0.418902 2.48283 2.81449e-16)
(-0.0181139 0.893345 -4.64204e-17)
(-0.0384461 5.30193 1.06402e-16)
(-0.0641017 2.34054 -7.34342e-17)
(1.84858 1.93823 2.26598e-16)
(2.59415 0.609396 -4.17248e-17)
(0.017314 0.823509 1.67937e-17)
(-0.080395 2.16106 -5.81652e-17)
(2.52402 0.520219 0)
(0.425728 0.0271212 -1.98176e-20)
(4.79006 0.639441 0)
(0.447903 0.00366067 5.11207e-21)
(3.03049 0.116346 -5.18766e-16)
(6.50817 0.266739 4.97956e-17)
(0.19911 2.22741 1.77297e-16)
(-1.96647 10.8691 -9.48254e-17)
(0.187828 1.61601 0)
(0.379202 3.3978 5.81458e-16)
(4.82815 0.957483 -4.94672e-17)
(7.50877 0.715859 0)
(7.89933 1.74396 3.13686e-17)
(-0.218787 4.91676 8.67841e-18)
(3.11082 3.68642 0)
(0.731288 1.07063 2.20632e-17)
(1.89217 0.0544622 -3.56751e-17)
(2.72309 1.32258 -3.01205e-17)
(0.360121 0.0857065 -1.14093e-17)
(-0.0889748 0.0362884 -2.76338e-16)
(-0.101815 -0.00326676 -2.03536e-16)
(0.384712 0.109194 -1.09456e-17)
(0.389819 0.179446 -5.13619e-18)
(0.385999 0.787757 -8.09135e-17)
(0.428102 0.490648 2.40025e-16)
(0.4376 0.0188131 -5.06571e-17)
(-0.047508 0.871331 1.9937e-16)
(0.221885 0.163221 0)