/*--------------------------------*- C++ -*----------------------------------*\
| =========                 |                                                 |
| \\      /  F ield         | OpenFOAM: The Open Source CFD Toolbox           |
|  \\    /   O peration     | Version:  v1912                                 |
|   \\  /    A nd           | Website:  www.openfoam.com                      |
|    \\/     M anipulation  |                                                 |
\*---------------------------------------------------------------------------*/
FoamFile
{
    version     2.0;
    format      ascii;
    class       volScalarField;
    location    "0.11";
    object      k;
}
// * * * * * * * * * * * * * * * * * * * * * * * * * * * * * * * * * * * * * //

dimensions      [0 2 -2 0 0 0 0];


internalField   nonuniform List<scalar> 
1431
(
0.199586
0.113699
0.0645101
0.159512
0.120311
0.114229
0.141572
2.35888
0.105037
0.125094
1.22081
2.22137
0.241359
0.255989
0.16744
0.126269
0.223563
0.0655743
0.205896
0.0906685
2.12817
0.405232
0.127323
1.47815
0.116146
0.189832
0.940127
0.1371
0.107066
0.208518
0.201612
0.13394
0.189347
0.212966
0.154832
0.0896925
0.082886
0.0727317
0.114158
0.124333
0.109985
0.0926882
0.265503
0.166413
0.140701
0.0814099
0.233394
0.846025
0.152149
0.10761
0.120592
0.139709
0.170989
2.9262
0.0933776
0.0984409
0.10789
2.84302
0.243971
0.0725846
0.143066
0.150629
0.0832893
0.0704396
0.0993677
0.142423
0.112515
0.135344
0.0586291
0.163531
1.6505
0.213572
0.10936
0.174339
0.228307
0.0660263
0.0607046
0.0799156
0.112686
0.0564589
0.229154
0.0722853
0.145077
0.194834
0.668083
0.184727
0.0969553
0.152129
0.423121
0.282127
0.162682
0.131564
0.0743067
0.123451
0.0837306
0.166605
2.87866
0.220669
0.191313
0.0666585
0.135551
0.211039
0.228803
0.0662571
0.0730329
0.347627
0.201782
0.881823
0.135692
0.235472
0.0668362
0.197839
0.112394
0.125262
0.0988895
0.0863325
0.237498
0.121252
0.11451
0.0700498
0.124908
0.177581
0.959685
0.202342
1.13322
0.0996659
0.0617678
0.147766
0.0729208
0.0854037
0.213418
0.0518639
0.0863342
0.20042
0.124614
0.15389
0.0803786
0.239835
0.884411
0.0634888
0.08961
0.223645
0.234673
0.052806
0.167787
0.184324
0.122175
0.186691
0.11192
0.100574
0.141404
0.0641945
0.130352
0.112721
0.182881
0.0809496
0.644752
0.264847
0.214101
0.100261
0.699444
0.180751
0.109845
0.094147
1.29537
0.158349
0.142325
0.0863538
0.0966706
0.145858
0.516453
0.310942
0.148299
0.833348
0.140518
0.624392
0.0855256
0.122552
0.155867
0.210691
0.130342
0.12068
0.286035
3.07358
0.121883
0.212324
0.45249
0.191655
0.271758
0.54515
0.307356
0.23542
0.16258
1.45635
0.126858
0.359272
0.308659
0.20089
0.0616501
0.170871
0.147912
0.107783
0.970224
0.0916555
0.223642
0.312993
0.21155
0.0695519
1.01092
0.173509
0.723511
0.111895
0.196447
0.344858
0.757876
0.102778
0.156098
0.207437
0.112108
0.956251
0.156693
0.227424
0.254596
0.101193
0.196478
1.39785
0.924203
0.166863
0.142806
0.733831
1.58842
0.199822
0.418138
0.155362
0.136968
0.415116
0.188511
0.368771
0.291124
0.13508
0.0963814
0.196654
1.16261
0.356479
0.275456
0.295446
0.386343
0.898134
0.168158
0.0867075
0.133014
0.708785
0.103301
0.120027
0.311738
0.09061
0.106655
1.79639
0.447518
0.164899
0.243895
0.826318
0.166698
0.086598
0.231095
1.08184
0.108842
2.42297
0.840151
0.095914
0.166907
0.175518
0.103591
0.123865
0.7509
0.150511
0.763533
0.761913
0.210387
0.176047
0.253065
0.0847749
0.18265
0.112867
0.0891857
0.211918
0.0928753
0.318791
0.663428
0.135335
0.0510825
0.0956029
0.22693
0.205108
0.597106
0.131232
0.535617
0.240508
0.164378
0.227052
0.234962
0.0646864
0.100926
0.198228
0.626187
0.110298
0.186809
0.213038
0.0885145
0.130451
0.462903
0.0908893
0.147638
0.795282
0.10049
0.37156
0.207056
0.0907771
0.0779245
6.9608
0.26206
0.367574
0.0666844
0.21945
0.147463
0.0621601
0.0610546
0.0956188
3.77319
0.116719
0.286314
0.0766195
0.0982411
0.426665
0.0963839
0.209666
0.0876673
0.352391
0.137399
0.370296
0.0669036
0.219216
0.424992
0.113889
0.105036
0.434644
0.116942
0.697239
0.416991
0.188342
0.154837
0.0897522
0.281933
0.315985
0.10674
0.0924472
0.797227
0.567324
0.675267
0.0996746
0.489411
0.190328
0.254051
0.100107
0.0750352
0.533783
0.107097
4.19738
0.114639
0.334997
1.04381
0.153304
0.404763
0.210406
0.107584
3.24239
0.321366
0.12513
0.264417
4.02093
0.137141
0.117926
0.157044
0.10886
6.67222
0.103105
0.225439
0.113771
0.147515
0.147173
0.097235
0.282414
0.293033
0.11384
0.542303
0.296469
0.141888
0.130174
0.10756
0.108818
0.336844
0.102963
0.438564
0.0886585
0.0975483
0.150201
0.111386
0.128923
0.0878097
0.154331
0.375935
0.170785
0.158021
0.23608
0.11129
0.0805169
0.225558
0.0981264
0.11658
0.163997
0.214546
0.21718
0.110547
0.262975
0.173422
0.163197
0.111717
0.290645
0.0909949
1.12172
0.112981
0.100237
0.093848
0.092404
0.0923626
0.0970625
0.104404
0.0944976
0.103021
0.0958878
0.12434
0.863949
0.0972504
0.0850644
0.0810436
0.0796584
0.0840824
0.0815542
0.212989
0.313882
0.255907
0.13967
0.180678
0.117576
0.197908
0.1615
0.366132
2.24668
0.125315
0.112456
0.370979
0.129965
2.14056
0.181824
0.134415
0.136281
0.0930266
2.07293
0.143762
2.01884
0.155957
0.149353
0.0751939
0.355989
0.913854
0.785794
0.147353
0.0880755
0.0794155
0.127394
0.428597
0.085068
0.948941
0.0987397
0.0800274
0.332868
0.0746084
0.0757053
0.0767772
0.0771633
1.08
0.112109
0.0757942
0.0807409
0.315014
0.0793648
0.0780703
1.1605
0.109719
0.156229
0.271628
0.0918969
0.116511
0.118559
1.11323
0.797745
0.091515
0.10259
0.104289
0.131953
0.0814232
0.384163
0.100597
0.0804168
0.135681
0.16654
0.277286
0.0841438
0.384047
0.855758
0.208026
0.103193
0.142608
0.116261
0.102438
0.125634
1.041
0.123268
0.134447
0.116793
0.148851
0.104157
0.167232
0.455266
0.097464
0.117964
0.199969
0.190264
0.106132
0.160778
0.179675
0.112909
0.13438
0.105367
0.151685
0.252445
0.238817
0.204734
0.159186
0.0868233
0.195375
0.100914
0.0995047
0.186606
0.134881
0.393258
0.120203
0.267975
0.191831
2.98328
0.0871685
0.877391
0.489383
0.137499
4.70696
0.105811
0.125076
0.0975711
0.25465
0.0859611
0.201841
0.53222
0.106983
0.104441
0.0832169
0.159715
0.135332
0.165405
0.124956
0.107965
0.196521
0.376403
0.162525
0.252338
0.2851
0.163958
0.315945
0.109014
0.0807821
0.133001
0.192831
0.164406
0.116668
0.116939
0.192256
0.126292
0.376542
0.238703
0.210508
0.907101
0.257871
0.153162
0.142145
0.0975823
0.240748
0.130244
0.795825
0.343758
0.126227
0.0796838
0.131075
0.107267
0.292506
0.129636
0.132692
0.0923897
0.65424
0.0978264
0.26427
0.223181
0.110597
0.213353
0.113881
0.218062
0.147476
0.18084
0.104537
0.119476
0.329059
0.164802
0.204167
0.112952
0.106446
0.113392
0.210022
0.230601
2.26633
0.0983847
0.146936
0.160417
0.105839
0.496813
0.107931
0.155212
0.156443
0.157422
0.18856
0.150731
1.12486
0.301461
0.258381
0.0836704
0.163092
0.27452
0.0819567
0.134081
0.113801
0.232858
0.228235
0.49983
0.619096
0.111913
0.21606
0.186423
0.263066
0.315975
0.171526
0.166542
0.139471
0.0897059
0.188453
0.0918279
0.584062
0.0991018
0.261493
0.163487
0.601309
0.379499
0.131653
0.115806
0.11494
0.0905261
0.25403
0.571222
0.10883
0.0833337
0.190369
0.13287
0.114605
0.0948209
0.569515
0.216049
0.128532
0.0934862
0.092385
0.0880347
0.114755
0.182795
0.0926471
0.548691
0.103336
0.238748
0.19179
0.0926144
0.150235
0.623479
0.161367
0.10818
0.27346
0.105595
0.133623
0.0970633
0.624953
0.149537
0.073855
0.138796
0.247922
0.174552
0.123727
0.125678
0.13963
0.310031
0.701622
0.217513
0.0688945
0.0856822
0.581854
0.246198
0.775685
1.55033
0.0935513
0.129516
0.244295
0.108922
0.549482
0.231588
0.121607
0.124045
0.557156
0.115117
0.125986
0.121053
0.110118
0.152068
0.133348
0.140651
0.282113
0.0850584
0.130008
0.210791
0.106965
0.165635
0.0827665
0.181444
2.11497
0.126822
0.092015
0.112436
0.109572
0.0835726
2.35933
0.51255
0.286791
0.222613
0.118674
0.204738
0.138064
0.145471
0.133999
0.133521
0.258761
0.381208
0.12705
0.112249
0.102026
0.118279
0.0938716
0.241842
0.100371
0.129606
0.211851
0.0713305
0.212445
0.153385
0.0967659
0.825828
0.126281
0.151506
0.142106
0.138475
0.433206
0.139786
0.181678
0.104305
0.23634
0.09327
0.14201
0.531586
0.155487
0.22485
0.127627
0.379898
0.126734
0.127491
0.12434
5.98214
0.295801
0.103324
0.170605
0.124281
5.97169
0.0888379
0.208771
0.702062
0.0821154
2.4409
0.196358
0.139725
0.0841976
0.122139
0.0726557
0.918626
0.256476
0.116721
0.0996872
0.12277
0.0870753
0.240949
0.130778
0.115519
0.0906635
0.136054
0.542107
0.136614
0.26334
3.1764
0.243945
0.0859077
0.186929
0.109329
0.22253
0.0796238
0.0825571
0.312545
0.237241
0.475972
0.0728019
4.0003
0.210962
0.624746
0.115799
0.283379
0.151837
0.31395
0.0982327
0.123005
0.0838177
0.222988
0.0728364
0.0848221
0.208491
0.200944
0.170163
0.145989
0.169425
0.109558
0.161445
0.100035
0.685509
0.114988
0.108748
5.70892
0.0946593
0.166251
0.249618
0.106172
0.15412
0.144594
0.104185
0.156932
1.91541
0.171007
0.124756
1.46087
5.89295
2.8218
2.30713
0.44073
0.110441
0.110518
0.107265
0.108545
0.501779
0.109612
0.137464
0.129339
0.132879
0.148732
0.35835
0.54868
0.157461
0.26972
0.299825
0.161375
0.108687
0.107886
0.163649
0.107455
0.10856
0.165374
0.110058
0.188843
0.701395
0.117613
0.226885
0.131157
0.382983
0.285319
1.23355
0.115114
0.386445
0.334344
0.148321
0.090026
3.50711
0.366431
0.0817624
0.708406
0.167838
0.134341
0.208341
0.0945014
2.75223
0.116582
0.111211
0.155373
0.15931
0.110541
0.0951981
0.632655
0.23154
0.27479
0.207115
0.0958738
0.160529
0.200748
0.847399
0.146346
0.154132
0.103974
0.214759
0.213937
0.106425
0.195195
0.270763
0.15261
0.085756
0.259452
0.124445
0.0844877
0.0746155
0.664196
0.175719
0.223049
0.188665
0.0765325
0.285273
0.105657
0.113993
0.164439
0.0966961
0.255892
0.483423
0.516204
0.078617
0.232528
0.0722651
0.201621
0.20678
7.33059
0.128985
0.356787
0.103128
2.69359
0.123893
0.284669
0.160221
0.0928961
0.110762
0.15015
0.0724776
0.205763
0.450459
4.11715
0.88845
0.112196
0.125158
0.214456
0.530738
0.402147
0.157064
0.532131
0.145947
0.207387
0.744067
0.144167
0.607221
0.085743
0.134546
0.147418
0.297681
0.202458
0.415112
0.0716926
0.20437
0.280506
0.170277
0.134204
0.26628
0.162255
0.731948
3.2509
0.146962
0.107103
0.22124
0.0910559
0.119328
3.25195
0.185253
0.109736
0.194772
0.724905
0.693098
0.128479
0.256491
0.139979
0.220254
0.151046
0.556647
0.0827521
0.18413
0.0979969
0.390214
0.10092
0.0878057
0.265859
0.724386
0.0823608
2.39684
0.82745
0.0919879
0.167151
0.127595
0.0884415
0.0767724
0.103634
0.107222
0.104806
0.257608
0.0835637
0.104962
0.208479
0.0826468
0.770705
0.0941783
0.0743807
0.131358
0.3063
0.111887
0.339882
0.083891
0.149155
0.286676
0.118441
0.196455
0.209863
0.228155
0.354107
0.369274
0.383733
0.261257
0.401746
0.104261
0.104043
0.1057
0.104704
0.103857
0.105498
0.218939
0.281852
0.0879373
0.313427
0.0843144
0.179847
0.116803
0.164175
0.129328
0.164882
0.307137
0.123994
0.153734
0.0838192
0.0955376
0.145309
0.120716
0.0961386
0.11605
0.141289
0.115146
0.762169
0.122868
0.180722
6.79673
0.155784
0.0962099
0.152768
0.101428
0.0802887
0.102987
0.687123
0.0785976
0.099144
0.104816
0.158365
0.149557
0.167894
0.288917
0.113831
0.107719
0.259449
0.0746353
0.0716111
0.113094
0.0843375
0.0719108
0.362
0.110705
1.38677
0.113928
0.665871
1.06115
0.0829118
0.541898
0.233051
0.125243
0.217711
0.697165
0.101447
0.159497
0.271672
0.563331
0.0820433
0.174549
0.328901
0.139717
0.113778
0.0818167
0.112382
0.221036
0.622362
0.826307
0.846612
0.159428
0.257452
0.191585
0.18766
0.119759
0.105745
0.0859157
0.222626
0.0693164
1.73941
0.209748
0.103627
0.601309
0.240726
0.440756
0.085226
0.0936805
0.249036
1.1812
0.82255
0.128757
0.103195
0.130158
0.142609
0.660024
0.0835138
0.41114
0.172656
0.0852309
0.259825
1.93638
0.17927
0.15539
0.0846158
0.0995339
0.141427
3.71014
0.127428
0.184567
0.383097
0.230279
0.074035
0.0822241
0.160381
0.267211
0.427336
0.413788
0.296699
0.156058
0.260264
0.429136
0.138478
0.109202
0.0946882
0.121433
0.177719
0.0915884
0.586754
0.144931
0.215057
0.218624
0.152298
0.221604
0.214399
0.0750737
0.1088
0.167283
0.241828
5.61379
0.239455
0.0860154
0.210212
0.84276
0.236698
0.273529
0.0920719
0.206044
0.165323
0.0835525
0.166252
0.177642
0.198262
0.306419
0.247427
0.320601
0.158707
0.164781
2.27565
0.0834363
3.53294
0.103779
0.140712
0.174124
0.24428
0.228828
0.128369
0.158927
0.364078
0.159527
0.208349
3.21179
0.234373
0.264728
0.141042
0.121213
0.465275
0.236669
0.181093
0.182139
0.0896609
0.0874195
0.651707
0.298456
0.267327
0.120329
0.220643
0.724432
0.256725
0.106739
0.236921
0.403391
0.140873
0.2518
0.30928
0.173235
3.41618
0.238095
0.0744529
0.30112
0.135833
0.881547
0.429148
0.359208
0.15866
3.42803
0.144347
0.088567
0.108948
4.99215
0.116427
0.0974312
0.137745
0.14583
0.634577
0.0845948
2.05451
0.127406
0.158485
0.0890965
5.04183
0.102461
2.82851
0.249877
0.0790891
0.271937
0.785511
2.69319
0.0835672
0.66075
0.0876785
0.117412
0.0840915
0.227644
0.127364
0.775569
0.0992363
0.0898659
0.471187
4.69536
0.0561307
0.193685
0.0994469
0.552899
0.125091
0.235413
0.137421
3.579
0.166529
0.0888491
0.0850689
0.106187
0.310246
0.285677
0.122136
0.152629
0.141639
0.317005
4.37662
0.148954
0.117118
0.139579
0.135089
0.204533
0.130231
0.295282
0.103743
0.179759
0.154576
0.195111
0.13166
0.301633
0.130366
0.107458
0.128299
0.569771
0.140891
0.128751
0.104241
0.391005
0.197017
0.225114
0.241263
0.150463
0.105806
0.107198
0.310474
0.434541
0.165496
0.0976852
0.199847
0.0804072
0.0972862
0.133926
0.148831
0.152744
0.132013
0.136813
0.114366
0.180858
0.517552
0.119302
0.405965
0.192309
0.215854
0.556642
0.216826
0.159092
0.311685
0.248678
0.138983
1.04476
0.0632975
0.102275
0.0773362
0.0728096
0.0740066
0.077785
0.0869957
0.0865748
0.105039
0.397448
1.4067
0.26485
0.198978
0.137868
0.192636
0.0887653
0.143922
0.151224
0.0890362
0.0883184
0.176974
0.158896
0.0708923
0.0967861
0.246762
0.19221
0.100884
0.105449
)
;

boundaryField
{
    frontAndBack
    {
        type            empty;
    }
    wallOuter
    {
        type            kqRWallFunction;
        value           nonuniform List<scalar> 
96
(
0.107066
0.208518
0.166605
0.584062
0.601309
0.571222
0.0948209
0.0934862
0.092385
0.114755
0.0926471
0.103336
0.0926144
0.623479
0.10818
0.124045
0.557156
0.125986
0.0938716
0.0967659
0.09327
0.0996872
0.12277
0.136054
0.542107
0.44073
0.110441
0.110518
0.107265
0.108545
0.501779
0.109612
0.137464
0.129339
0.132879
0.148732
0.35835
0.54868
0.157461
0.26972
0.299825
0.161375
0.108687
0.107886
0.163649
0.107455
0.10856
0.165374
0.110058
0.111211
0.106425
0.195195
0.113993
0.0966961
0.516204
0.112196
0.607221
0.107103
0.22124
0.185253
0.151046
0.0979969
0.10092
0.724386
0.3063
0.339882
0.286676
0.118441
0.196455
0.209863
0.228155
0.354107
0.369274
0.383733
0.261257
0.401746
0.104261
0.104043
0.1057
0.104704
0.103857
0.105498
0.179847
0.0955376
0.167894
0.174549
0.41114
0.0946882
0.167283
0.182139
0.106739
0.236921
0.102461
0.66075
0.471187
0.0994469
)
;
    }
    inlet
    {
        type            fixedValue;
        value           nonuniform 0();
    }
    outlet
    {
        type            zeroGradient;
    }
    wallInner
    {
        type            kqRWallFunction;
        value           nonuniform List<scalar> 
126
(
0.243971
0.0725846
0.143066
0.150629
0.0832893
0.0704396
0.0993677
0.142423
0.112515
0.135344
0.0586291
0.163531
1.6505
0.213572
0.10936
0.174339
0.228307
0.0660263
0.0607046
0.0799156
0.112686
0.0564589
0.229154
0.0722853
0.0666585
0.0863325
0.237498
0.121252
0.11451
0.0700498
0.124908
0.177581
0.959685
0.202342
1.13322
0.0996659
0.0617678
0.213418
0.0518639
0.0634888
0.08961
0.234673
0.052806
0.122175
0.100574
0.0641945
0.112721
1.29537
0.130342
0.212324
0.45249
0.126858
0.723511
0.095914
0.210387
0.176047
0.0510825
0.535617
0.240508
0.227052
0.0646864
0.0908893
0.147638
0.795282
0.0621601
0.0610546
0.286314
0.370296
0.0669036
0.567324
0.190328
0.254051
0.128923
0.0981264
0.118559
0.135681
0.116793
0.190264
0.112909
0.204734
0.100914
0.191831
0.0832169
0.165405
0.0807821
0.164406
0.257871
0.113881
0.106446
0.156443
0.163092
0.150235
0.161367
0.0835726
0.166251
0.144594
0.0746155
0.826307
0.0561307
0.193685
0.248678
0.138983
0.0632975
0.0773362
0.0728096
0.0740066
0.0869957
0.105039
0.397448
1.4067
0.26485
0.198978
0.137868
0.0887653
0.143922
0.151224
0.0890362
0.0883184
0.176974
0.158896
0.0708923
0.0967861
0.246762
0.19221
0.100884
0.105449
)
;
    }
    procBoundary3to1
    {
        type            processor;
        value           nonuniform List<scalar> 
48
(
0.0835236
0.12818
0.104608
0.0864862
0.212222
0.154936
0.12818
0.267834
0.0935832
0.114301
0.114301
0.10273
0.10273
0.102551
0.135643
0.0835329
0.0746838
0.0763601
0.0746838
0.0763352
0.0773196
0.0764661
0.0763352
0.130662
0.108976
0.0914478
0.0823583
0.0764661
0.0982986
0.130032
0.130032
0.172617
0.172617
0.0935832
0.0799213
0.245445
0.264629
0.108976
0.0844159
0.11817
0.102551
0.180886
0.124387
0.0763352
0.148536
0.105351
0.164681
0.0834944
)
;
    }
    procBoundary3to2
    {
        type            processor;
        value           nonuniform List<scalar> 
29
(
0.155588
0.155588
0.133088
0.154969
0.137824
0.156573
0.124563
0.130355
0.17366
0.162198
0.159126
0.142345
0.135104
0.193924
0.123468
0.206726
0.21166
0.169974
0.13176
0.151197
0.146049
0.21166
0.103488
0.169974
0.110072
0.328561
0.169974
0.150169
0.150169
)
;
    }
}


// ************************************************************************* //
