/*--------------------------------*- C++ -*----------------------------------*\
| =========                 |                                                 |
| \\      /  F ield         | OpenFOAM: The Open Source CFD Toolbox           |
|  \\    /   O peration     | Version:  v1912                                 |
|   \\  /    A nd           | Website:  www.openfoam.com                      |
|    \\/     M anipulation  |                                                 |
\*---------------------------------------------------------------------------*/
FoamFile
{
    version     2.0;
    format      ascii;
    class       volScalarField;
    location    "0.27";
    object      epsilon;
}
// * * * * * * * * * * * * * * * * * * * * * * * * * * * * * * * * * * * * * //

dimensions      [0 2 -3 0 0 0 0];


internalField   nonuniform List<scalar> 
1431
(
14.5186
4.18536
142.768
70.7242
12.0245
7.06617
48.8883
4.42676
6.95913
28.5213
8.96157
16.7558
15.1024
56.1165
19.8473
12.2565
36.5443
2.84372
1.50047
8.94081
6.53823
22.6671
8.37085
61.6211
52.5106
9.28202
59.1298
51.1525
22.1017
4.59908
41.1686
12.9339
36.5584
12.6384
42.0274
72.0507
11.8188
10.3942
8.31188
9.92281
132.671
1.97706
12.3823
54.4653
55.3006
4.46964
53.3909
4.91858
15.5258
16.4711
4.19781
30.5674
9.04903
12.4958
49.3617
4.84374
45.1076
12.172
55.5103
4.25329
62.5898
6.92848
83.1254
9.82735
34.7122
4.8205
131.454
9.51459
6.19928
12.4948
10.5384
53.28
6.67018
6.55231
13.1649
35.2495
9.81422
81.2116
5.76133
86.4004
8.11803
3.43232
8.40019
76.941
104.838
14.722
13.0074
21.6695
68.0091
8.43342
3.91621
31.247
11.8814
10.3237
4.30419
8.44804
20.4747
8.515
6.65063
25.8157
7.85281
5.58787
5.92236
13.0503
24.7435
19.6288
6.60943
147.08
55.2056
10.3289
105.224
6.05189
5.5732
6.18565
21.5826
11.5832
3.08124
11.409
75.8405
41.6627
9.11713
9.56151
43.41
45.909
9.33509
13.0275
85.8966
10.8585
9.00171
26.4125
5.33284
122.247
49.1589
5.5075
13.5509
47.2163
6.92194
6.3868
4.2318
133.217
3.88751
1.70993
9.82228
15.913
18.2428
16.2192
8.69054
147.763
7.35462
12.3191
28.2226
37.8527
5.60067
11.4435
7.91522
15.3879
8.98995
4.92755
5.15333
7.4775
2.77653
7.35363
5.86007
18.2153
12.8839
153.921
11.2918
9.79746
4.50046
8.01385
29.17
21.1688
40.6963
17.4196
9.32472
7.26779
6.5947
25.6711
4.94969
5.58435
10.7438
35.2248
5.22875
8.054
14.1395
14.3005
6.4787
50.0573
10.0416
10.0889
5.01107
107.387
6.8939
7.36307
6.41679
8.27876
6.29748
7.75987
11.7957
10.2368
10.4812
74.1571
10.4258
150.14
6.94995
74.4009
14.9735
10.0444
7.6571
23.1643
7.96593
5.35088
64.3586
9.71928
63.7467
20.6562
4.80322
6.16859
19.2523
9.99706
9.23163
70.9863
21.4906
222.314
11.061
29.2421
22.0061
6.80172
17.5623
41.465
17.1056
36.0896
11.0151
4.57582
4.40759
4.81577
10.009
8.46985
8.2034
7.20309
10.3678
8.75231
11.3607
111.476
22.2078
19.6284
10.3685
36.6974
12.2719
23.9865
8.1857
8.7254
25.7234
26.2395
72.8975
36.6407
4.29452
6.52067
31.0755
34.2903
38.5737
18.289
9.18988
7.4944
4.49969
17.2887
29.0747
7.8896
20.7066
13.5758
7.23382
19.2612
8.25451
8.31323
40.8962
8.84886
4.70769
12.0579
6.40157
37.0783
6.77984
7.86759
7.05517
4.54909
32.0476
47.8901
16.6574
4.31724
20.638
9.25158
17.789
11.5859
4.37468
5.21434
9.33582
5.73147
6.32621
8.10698
6.25704
6.5344
11.1143
22.0071
8.33791
5.86491
4.57949
5.64976
8.6178
35.2251
32.6458
0.704684
9.98783
13.0841
61.8963
1.66638
7.60686
5.15732
34.1129
11.4395
4.43193
4.21861
6.04343
3.32231
3.44881
8.30235
14.6425
5.113
7.39478
6.82717
65.7036
9.35923
14.5962
15.4048
7.188
5.0488
8.84538
9.57484
5.96583
2.45681
5.91737
16.0681
10.0519
7.60537
6.57379
18.3416
67.3401
10.1475
11.3846
15.2277
0.390936
0.379689
7.79179
9.63165
13.0911
4.041
16.9096
5.20366
10.0551
13.2803
4.591
18.8841
6.10543
15.5139
3.86825
0.349637
0.410349
12.2906
3.66184
15.742
28.6097
32.8081
4.39311
6.68719
4.32157
11.5622
5.44525
80.4659
9.59726
11.4955
13.9057
4.95828
12.5892
9.4649
0.449556
11.5682
15.2045
3.72741
16.2091
15.5547
4.25465
0.35994
16.8835
78.6271
17.9282
13.9163
5.47218
6.40708
1.42482
10.7397
5.21488
9.11126
13.2989
7.97572
10.253
5.76782
12.5464
13.1363
13.0793
7.88761
0.920451
21.3824
41.3333
20.5334
8.96249
71.0619
17.0194
56.5031
4.88071
13.6224
12.9927
0.78082
9.72889
4.52136
15.1975
5.92087
5.78528
5.24304
5.09907
4.40666
78.4878
4.84119
70.4193
7.75375
9.08919
4.96349
8.70955
4.84959
4.4856
4.84513
7.48249
11.8334
49.2178
5.1515
5.03145
4.68006
7.90046
10.9085
12.5463
11.0505
27.7193
5.24231
5.81987
11.5751
9.74256
17.8904
3.35107
16.1635
11.2739
9.17251
14.9946
9.60249
75.6028
3.5732
9.7862
8.97542
10.3017
11.048
1.11243
76.1155
10.7134
9.54389
72.5764
3.35545
5.57486
60.3356
12.7415
8.43378
85.3892
98.7357
124.536
8.49869
4.89685
3.34564
64.2439
4.8474
9.28658
39.6737
11.4392
8.16846
5.35872
19.9879
13.1348
3.32887
13.482
111.885
4.8592
3.42768
58.8432
5.4535
11.3718
6.98624
14.5248
117.451
4.65154
4.66346
4.36137
11.492
8.75641
11.4226
2.78891
3.29709
3.27
11.996
6.52562
22.3545
11.3195
3.49542
124.925
81.5253
3.00493
14.5687
11.1949
11.596
6.85208
0.864112
4.58591
3.36248
4.89963
3.7373
10.3846
5.18308
9.49434
6.19072
9.32115
8.36133
7.09919
2.99679
4.47812
6.3278
9.33492
58.7207
4.37099
84.3195
5.33634
32.5853
8.19764
9.93
4.98699
5.33964
8.91575
14.2648
9.16652
2.9056
31.8461
3.83417
7.97965
9.61537
4.6536
8.96587
32.6125
4.44957
7.22661
5.96035
5.57317
81.7803
48.501
0.313661
9.11558
4.78889
57.4784
4.434
12.9266
5.49641
66.3875
6.85842
113.139
4.28105
6.74515
4.94168
4.87974
22.5659
3.58084
5.62623
8.03703
5.687
7.21434
7.4795
4.90869
12.2716
3.83216
17.4372
37.0836
12.3472
13.7244
10.9383
9.65564
6.84172
0.548212
4.73404
4.93431
5.49552
5.34769
3.55388
9.62834
5.64619
4.97692
5.98012
7.06129
14.308
7.50906
106.38
72.7356
10.149
0.67061
4.50081
90.91
4.97865
25.798
12.3687
4.29182
6.65349
12.5034
8.40202
3.38601
11.8142
5.63181
9.514
13.1528
0.372161
4.82647
5.91455
5.70671
3.83126
5.94791
6.35215
7.1172
5.1738
10.4342
4.6327
29.2518
4.44392
6.07594
15.2636
6.81826
7.34799
8.54631
4.61226
5.46875
10.4175
28.1769
4.9033
9.74935
4.6869
8.74598
34.647
12.5412
3.9853
7.23511
11.8067
4.96269
4.80392
5.42215
0.340537
4.50341
4.08144
8.6947
6.8083
13.684
14.7969
4.95242
38.789
0.295548
7.65042
3.95362
7.80105
9.89421
9.9461
16.4472
47.0524
13.3517
25.8103
35.8456
3.27806
19.9152
8.35237
5.30558
5.49845
5.44009
4.62095
22.1468
1.53635
55.8418
6.1807
4.76294
8.87896
8.03603
10.9557
0.3446
16.2498
8.10946
4.81887
5.11072
13.2479
4.10284
11.5648
9.83142
37.175
32.3792
5.87506
13.9298
147.704
4.52616
0.878514
12.1577
20.4095
4.34305
25.1488
3.82992
5.16337
5.04992
5.34542
23.8911
9.62179
5.33693
63.1523
18.8062
26.2653
22.2515
6.14666
29.9099
8.63192
3.52977
6.38774
28.941
28.992
47.425
4.18341
4.29988
13.5769
11.2743
4.51989
4.76999
13.3904
13.6079
3.98612
40.2672
22.2179
5.49457
18.6406
35.9401
10.4608
12.1244
4.32642
29.5498
32.0979
4.26141
5.05584
13.0553
29.0278
18.415
99.1191
10.0924
48.1056
46.3968
46.5297
9.95028
11.4041
3.62076
48.7937
42.6983
30.5941
8.69832
116.272
0.440257
19.8056
3.90595
38.0089
0.678525
55.1792
5.18197
11.9792
8.14084
5.59323
33.7538
6.34688
0.511814
189.919
0.673261
19.9831
5.79325
116.743
4.28597
4.2691
81.0202
47.6463
13.9624
10.3416
0.327639
19.5533
70.4268
5.91944
8.04025
5.59233
5.4211
14.1
0.343521
6.69455
57.9584
2.72239
12.9532
11.2051
8.55746
6.14149
12.1104
0.283988
84.5519
31.1899
37.1622
40.5414
46.5985
35.101
27.8148
31.8642
35.7283
3.25138
3.82166
17.1869
6.86948
5.07702
16.0855
0.271245
14.6481
0.718297
20.2711
0.345343
13.2549
28.8562
5.33026
30.8744
10.5212
6.545
4.34709
7.17842
8.44157
34.6908
89.3565
6.0515
12.066
5.11619
3.2221
6.18323
3.78627
4.79778
5.76325
0.320388
50.0724
4.06556
31.3505
10.4008
11.0458
12.4126
5.66242
4.2898
19.5615
4.64337
13.1612
13.8172
5.24176
4.98907
0.24761
19.0461
9.91718
49.8756
3.68693
4.63185
0.92839
7.6565
13.5837
47.9269
6.7948
6.78293
1.96716
14.9176
5.82741
0.633961
10.3455
16.17
4.22957
90.2261
68.6052
11.1941
20.6544
56.0577
7.73482
7.93504
8.95
97.8376
1.02504
19.9893
4.76385
11.6836
4.26069
4.0289
8.86936
5.12365
61.4895
51.417
25.406
9.01224
1.04678
0.424979
3.63889
5.56414
11.3853
5.41059
9.48245
10.5648
19.4827
13.3443
25.1637
17.1678
5.6542
5.54063
4.78491
6.01273
5.07264
43.5776
17.5717
34.6513
25.8876
34.5567
4.07544
4.21419
7.81685
12.2947
16.1633
14.4109
9.52619
17.8944
20.1134
4.1472
0.400718
9.2919
6.90167
22.8632
15.6934
4.16856
104.258
9.52521
2.8828
35.5647
11.5559
12.3313
19.7637
6.07824
145.559
22.4438
25.0646
3.45169
7.43911
4.89061
11.4143
8.76242
19.5742
3.10733
2.64297
30.0863
25.5724
70.2314
17.7893
40.266
14.1008
8.83935
3.15725
34.4921
16.6596
9.53723
6.35079
28.6515
26.8058
7.05867
4.24973
18.5081
6.18618
18.2817
47.731
51.0335
3.90968
110.565
28.9527
35.2372
14.8466
6.98117
7.50465
4.37217
11.6686
24.4804
4.71603
43.4489
130.815
10.4708
16.776
52.2287
23.0076
14.7108
54.8606
4.54624
8.04873
66.8048
13.0651
4.11544
5.42177
20.4429
5.77285
8.40181
55.1441
38.4495
55.6953
2.97049
3.83802
5.77092
6.18263
9.3991
8.83551
56.3323
43.0534
22.2041
5.43843
4.6601
6.77168
140.58
9.36809
20.2348
4.63032
117.439
9.29695
6.06976
86.2576
10.7635
5.29786
6.47091
38.6379
12.4204
0.257347
24.3531
6.25294
10.5604
80.0574
7.26386
4.24478
10.8064
18.8329
30.6585
7.69014
29.9938
11.3649
64.7553
3.26485
17.7714
10.8273
4.5613
6.12885
31.6479
12.9899
40.7614
5.03865
3.97382
14.8506
11.0871
11.4813
5.13647
5.05125
4.61565
25.3801
49.208
6.54022
6.03787
4.88541
71.1157
14.1821
14.1383
13.7093
8.02181
5.02428
0.363713
6.4247
13.1192
26.6385
52.8964
22.596
6.61988
2.4589
17.9327
4.42663
4.62536
43.428
29.3098
9.61974
12.0805
9.69041
81.7843
103.47
22.446
19.695
82.5496
3.84706
14.7192
6.86839
0.279013
18.9965
44.9077
13.433
13.7393
5.47412
58.5989
7.97228
78.5511
4.69397
12.2706
24.7386
7.46947
10.1934
3.79017
15.3083
20.1401
109.437
28.0352
6.81858
2.03682
11.3562
46.6241
14.4667
0.28712
15.2766
4.21349
2.90898
7.58858
2.90183
31.1165
8.00076
0.487427
22.5526
5.5296
4.77888
31.0362
4.53956
4.8338
61.1537
4.12533
71.8623
7.37451
73.337
0.287401
24.5555
7.45145
17.3009
4.86873
8.10316
46.733
44.1026
8.90824
115.691
20.4279
0.70788
18.4555
13.291
51.0263
108.817
0.35016
23.9882
28.7202
12.1216
8.78337
8.39084
101.649
39.0626
14.3826
4.76409
0.288893
3.78515
7.22194
103.7
72.7079
4.23776
7.80967
6.43938
43.7749
128.367
4.30146
28.4275
1.25122
12.4011
87.6804
30.6349
20.3266
23.5075
15.0055
65.5602
11.8853
8.0225
10.9421
7.51292
67.8991
15.5545
4.95072
10.9308
46.4746
12.6657
15.2646
7.08517
13.2127
14.2276
64.1791
7.90859
7.85791
4.80217
0.483521
94.3566
3.68803
11.0055
83.0213
6.3265
7.97352
35.2596
4.19942
38.6057
4.32618
7.04802
7.47652
19.7931
12.6215
36.9316
102.75
11.4124
96.2691
20.4353
13.0621
56.7036
12.2883
12.0726
4.10108
2.75523
104.989
58.5243
15.7997
59.6872
13.9839
3.0439
13.3203
38.4257
9.25841
13.4164
20.4645
4.63797
3.50052
145.262
9.47247
79.4179
30.9191
12.1923
3.63492
13.4453
6.19732
82.2318
9.22851
18.3087
12.387
9.74503
76.6245
13.1453
16.4309
4.84507
10.7965
0.495635
7.63744
9.2957
5.65676
16.0479
9.2429
34.4781
40.2312
6.55963
2.56633
5.94625
15.8712
5.07255
110.195
11.1406
7.1539
23.7839
4.72641
99.408
59.3078
6.64572
18.4244
14.0099
13.0987
3.30797
16.5468
14.8576
0.353936
12.4089
6.0149
38.3827
4.47826
23.1073
6.40551
18.2005
12.5359
5.4093
17.4808
11.862
20.0541
6.30394
4.96805
3.82535
5.14787
5.80109
4.12155
4.15972
6.60424
5.87634
25.9138
8.41287
23.0482
7.02444
99.2186
52.8871
13.3336
12.5825
4.1539
6.55832
4.99132
5.63101
16.6739
5.34662
25.2109
75.1093
5.90044
31.7553
14.2011
7.20236
2.17652
4.95665
130.94
19.4667
26.6682
5.77746
5.08237
7.92042
23.792
25.3936
35.8911
6.58073
2.90683
4.5793
18.171
3.25467
29.9878
11.5291
4.40321
6.22453
10.2796
7.42375
9.74339
90.5826
2.90849
10.938
4.93119
12.8344
20.1608
37.074
13.0492
9.33859
6.32434
3.67124
3.77587
9.46578
10.7204
6.9014
20.8786
10.0981
66.1059
12.0356
144.048
6.13345
43.9578
99.6478
12.0945
1.64493
9.98091
20.5719
10.2047
55.2982
1.25783
14.3926
13.6668
46.0151
11.8205
20.3213
11.8048
13.8906
12.607
8.25069
57.5453
4.38647
59.6414
41.3892
33.9639
41.3888
4.83681
6.45702
9.05957
4.81414
24.9017
11.81
12.3101
4.19095
26.3454
5.3881
26.6988
13.1396
23.7129
4.99944
59.4081
19.3204
8.94175
31.1681
195.718
71.8735
76.3013
13.0395
)
;

boundaryField
{
    frontAndBack
    {
        type            empty;
    }
    wallOuter
    {
        lowReCorrection 0;
        type            epsilonWallFunction;
        value           nonuniform List<scalar> 
90
(
12.2565
25.1488
23.8911
26.2653
29.9099
28.941
28.992
40.2672
22.2179
29.5498
32.0979
42.6983
30.5941
38.0089
33.7538
81.0202
31.1899
37.1622
40.5414
46.5985
35.101
27.8148
31.8642
35.7283
34.6908
61.4895
51.417
34.6513
34.5567
12.2947
16.1633
14.4109
9.52619
17.8944
20.1134
22.8632
35.5647
12.3313
19.7637
25.0646
30.0863
25.5724
70.2314
17.7893
28.6515
26.8058
28.9527
35.2372
14.8466
43.4489
55.1441
6.77168
30.6585
40.7614
25.3801
13.7093
13.1192
26.6385
52.8964
17.9327
43.428
29.3098
22.446
82.5496
44.9077
58.5989
78.5511
20.1401
109.437
28.0352
44.1026
20.4279
108.817
28.7202
101.649
103.7
28.4275
30.6349
20.3266
65.5602
35.2596
96.2691
20.4353
30.9191
6.55963
25.9138
130.94
19.4667
35.8911
20.1608
)
;
    }
    inlet
    {
        type            fixedValue;
        value           uniform 14.855;
    }
    outlet
    {
        type            zeroGradient;
    }
    wallInner
    {
        lowReCorrection 0;
        type            epsilonWallFunction;
        value           nonuniform List<scalar> 
138
(
16.7558
1.50047
36.5584
12.6384
42.0274
1.97706
131.454
9.51459
10.5384
53.28
35.2495
49.1589
11.4435
7.91522
7.26779
6.5947
11.7957
10.2368
10.4812
74.1571
222.314
36.6407
4.29452
31.0755
34.2903
38.5737
29.0747
40.8962
32.0476
35.2251
32.6458
10.0519
10.1475
15.2277
0.390936
0.379689
7.79179
9.63165
13.0911
4.041
16.9096
5.20366
10.0551
13.2803
4.591
18.8841
6.10543
15.5139
3.86825
0.349637
0.410349
12.2906
3.66184
15.742
4.95828
12.5892
9.4649
0.449556
11.5682
15.2045
3.72741
16.2091
15.5547
4.25465
0.35994
16.8835
13.2989
20.5334
56.5031
9.08919
5.1515
7.90046
27.7193
3.5732
60.3356
8.49869
64.2439
19.9879
13.1348
3.32887
4.8592
58.8432
117.451
3.29709
3.27
81.5253
8.19764
2.9056
31.8461
32.6125
12.9266
5.49552
5.94791
6.8083
3.27806
0.3446
16.2498
8.63192
6.38774
13.6079
10.0924
3.62076
3.90595
5.59323
47.6463
0.343521
14.6481
30.8744
10.5212
0.320388
0.424979
43.5776
0.400718
9.2919
4.16856
34.4921
51.0335
3.90968
16.776
52.2287
10.8273
4.88541
71.1157
3.84706
0.28712
2.90898
61.1537
4.12533
0.288893
3.78515
4.19942
12.3101
59.4081
19.3204
8.94175
195.718
71.8735
13.0395
)
;
    }
    procBoundary0to1
    {
        type            processor;
        value           nonuniform List<scalar> 
29
(
29.3351
49.6523
15.1982
15.1982
66.431
66.431
121.054
7.64215
130.551
8.74776
7.09216
65.7563
20.6446
30.2874
59.0091
22.5021
94.1771
74.3376
10.6594
51.415
9.85801
5.87411
73.7777
10.7076
10.7948
74.3376
8.39573
65.9244
10.7076
)
;
    }
    procBoundary0to2
    {
        type            processor;
        value           nonuniform List<scalar> 
42
(
25.9559
17.2321
11.1566
8.30102
2.52486
25.9559
11.1566
5.08092
1.80757
0.899138
3.54357
3.94358
3.54357
5.09867
6.74401
30.0456
6.74401
0.965201
1.17644
41.2339
41.2339
0.965201
1.33514
36.5758
36.5758
1.4491
33.2044
1.12398
32.3733
15.3526
15.3526
0.673003
0.419732
0.313702
0.292309
11.1566
10.6091
9.96848
32.3733
5.08092
0.885324
0.396334
)
;
    }
}


// ************************************************************************* //
