/*--------------------------------*- C++ -*----------------------------------*\
| =========                 |                                                 |
| \\      /  F ield         | OpenFOAM: The Open Source CFD Toolbox           |
|  \\    /   O peration     | Version:  v1912                                 |
|   \\  /    A nd           | Website:  www.openfoam.com                      |
|    \\/     M anipulation  |                                                 |
\*---------------------------------------------------------------------------*/
FoamFile
{
    version     2.0;
    format      ascii;
    class       volVectorField;
    location    "0.27";
    object      U;
}
// * * * * * * * * * * * * * * * * * * * * * * * * * * * * * * * * * * * * * //

dimensions      [0 1 -1 0 0 0 0];


internalField   nonuniform List<vector> 
1431
(
(-0.88192 -0.247521 -2.69556e-17)
(1.0357 0.0296969 -1.53662e-16)
(5.77813 1.21142 9.81613e-17)
(-2.85829 1.57572 -4.42991e-17)
(0.0380148 2.57648 -1.10959e-16)
(2.77633 0.131612 2.48912e-16)
(-0.313156 1.01364 -1.59856e-16)
(9.75956 0.531506 -2.12021e-16)
(0.458986 2.36 0)
(-4.24692 -2.66762 -9.08897e-17)
(0.438927 -2.99309 0)
(0.58656 -0.274483 7.06073e-17)
(1.73593 -0.227063 0)
(9.29635 0.417096 1.83608e-18)
(0.322097 0.162189 -2.81148e-16)
(0.280053 0.389858 0)
(0.274949 0.776749 -4.00345e-16)
(-2.22818 0.191712 0)
(-0.162083 0.00413365 1.49308e-16)
(0.206379 -2.98774 3.55885e-17)
(-0.25993 0.173448 -2.00334e-17)
(-3.95202 -1.24534 -1.2605e-18)
(2.16026 0.567452 -4.52e-17)
(9.0585 0.46327 -2.96508e-17)
(1.77269 3.24379 -1.18942e-16)
(0.018861 -2.96109 -9.74039e-17)
(-1.32597 4.71911 1.07993e-16)
(9.51158 0.373476 -2.3621e-20)
(10.8297 0.610114 5.84561e-18)
(-2.81102 -0.671273 -3.63319e-16)
(8.17876 0.279924 2.21868e-16)
(7.38794 -0.177861 -1.67516e-16)
(-2.07099 0.500026 -1.06428e-16)
(0.812296 -0.294914 0)
(2.86853 -0.131622 7.22646e-17)
(2.37203 7.66427 1.29455e-16)
(-0.419823 -2.33906 8.9628e-17)
(9.72123 -0.019171 0)
(1.92707 0.0562608 -1.50336e-16)
(9.64133 -0.0120892 0)
(5.76756 0.115026 1.21971e-16)
(0.388691 0.044857 -7.91791e-17)
(1.24742 -0.360938 0)
(0.454542 -0.327637 -5.44766e-17)
(-0.893717 0.655901 1.44001e-16)
(-2.10384 0.329068 -3.5924e-16)
(1.16923 3.79076 2.28519e-16)
(7.49295 1.12511 -5.47249e-17)
(9.08309 0.479315 1.53846e-16)
(9.48459 0.0897409 3.54402e-17)
(-2.81591 -0.383364 -7.03025e-17)
(-4.54239 -2.8891 8.62084e-17)
(0.904645 2.2887 6.62975e-17)
(1.34114 -0.310664 -1.47598e-17)
(-1.81809 0.0812307 -8.82426e-17)
(8.23465 1.57811 0)
(-2.75668 -2.23261 4.69104e-17)
(1.67128 2.89171 -2.16732e-16)
(-0.420497 6.38452 0)
(0.00760255 -0.432226 -8.21816e-16)
(0.466759 1.25719 0)
(-0.988704 -1.44798 -1.41708e-16)
(1.47695 6.41532 -1.46472e-16)
(10.5867 0.117271 0)
(10.0551 0.278748 -1.75952e-17)
(-2.00434 0.114793 0)
(6.13017 0.552405 0)
(2.72256 -0.0147491 0)
(-1.03984 -0.161081 1.75825e-16)
(10.7719 0.078716 0)
(-0.20706 -0.397811 8.69059e-17)
(2.46351 -0.609666 -6.80153e-17)
(0.742948 -2.2989 0)
(2.68815 -0.0474013 -2.58954e-16)
(1.69761 -1.87351 4.7214e-19)
(-1.04004 0.468388 2.57743e-16)
(-0.526629 2.14526 4.13191e-17)
(5.39724 1.42317 2.61514e-16)
(9.9937 0.139093 1.25608e-17)
(1.04687 -3.04374 -2.02172e-17)
(9.94388 0.0965413 -2.45334e-16)
(-2.6497 -0.0946545 -1.87062e-18)
(1.25606 -2.4536 1.54145e-16)
(0.790375 0.142408 -8.58579e-17)
(-2.60555 1.19984 4.50365e-17)
(-0.0015223 1.86818 -4.16649e-16)
(-0.189887 0.935658 -1.04026e-16)
(-0.217992 1.11303 1.71586e-16)
(8.75664 0.506604 8.88393e-17)
(-0.256791 -2.52444 -4.52974e-17)
(-2.14869 0.102925 1.54847e-16)
(-1.29649 1.19681 2.46812e-16)
(-0.200929 0.472052 0)
(9.78125 0.0181646 0)
(-2.00136 0.196239 1.98946e-18)
(-0.260932 0.770522 1.54892e-19)
(1.65459 -1.12216 -2.06407e-19)
(10.3735 0.465133 3.19802e-18)
(-0.381377 0.715035 2.17736e-16)
(9.18162 0.45954 -4.29103e-16)
(-1.48702 -0.137386 -1.68156e-16)
(9.88835 0.143232 -6.5273e-17)
(-1.45291 -0.590196 0)
(0.0708832 2.57661 -3.95141e-20)
(-0.323706 2.04115 1.73899e-16)
(2.74578 0.323248 6.40434e-17)
(10.0227 0.0546585 -1.02511e-16)
(5.45254 -0.00398556 7.08086e-17)
(7.53815 0.0673023 9.03621e-17)
(-0.124301 2.53215 5.85976e-17)
(-0.594521 -2.64991 1.71928e-16)
(-1.73861 0.0974178 -6.65071e-17)
(9.70899 0.733471 0)
(-1.00298 -1.42739 -1.38871e-16)
(0.606588 1.94589 0)
(0.127458 2.85686 0)
(-2.14633 0.192984 0)
(0.206615 -0.480615 -6.24268e-19)
(8.37031 0.531056 -6.07156e-17)
(-1.48048 0.779077 -1.45178e-16)
(9.89145 0.230404 -1.97073e-17)
(1.28177 2.82926 -1.56567e-16)
(-2.70345 -2.3927 -4.07097e-16)
(9.22798 0.746037 -1.12894e-16)
(10.1245 0.169061 0)
(1.74679 0.726296 -7.9845e-17)
(7.91086 0.531079 1.59364e-17)
(2.25545 -2.09473 4.71785e-17)
(-1.46347 0.80228 7.17826e-17)
(10.6469 0.424282 -7.10304e-17)
(-1.40086 0.112982 -1.28689e-16)
(4.85505 -0.126939 2.31752e-16)
(7.22158 0.305118 0)
(-1.39165 -0.78394 -1.51841e-16)
(-0.0895593 0.156005 -1.1603e-17)
(-2.02646 1.43491 -2.59992e-16)
(0.372533 -2.16018 0)
(-1.71329 -0.0151659 1.11082e-16)
(-2.0471 0.0894689 3.98122e-17)
(4.07236 -0.057808 -3.73055e-16)
(0.772256 -0.20178 0)
(-0.7941 -0.31944 3.37613e-17)
(10.532 0.0530498 -7.39786e-18)
(9.10638 0.356979 -1.9783e-17)
(8.88177 0.176993 0)
(11.387 0.282792 4.29298e-17)
(10.3597 0.311247 3.31377e-17)
(5.24556 -0.0280014 0)
(0.0979545 -2.13506 -1.06891e-16)
(9.3952 0.823086 -5.11048e-17)
(10.8695 0.0421701 7.70409e-17)
(9.98029 0.390472 -1.52409e-17)
(2.60392 0.491833 -1.34929e-16)
(1.18683 -1.18499 8.52231e-17)
(-1.00677 -0.486064 1.57466e-16)
(2.52049 -1.76194 -2.92507e-17)
(10.0891 0.109413 8.47016e-17)
(-1.32732 -0.82735 -3.55682e-16)
(9.6087 0.826981 0)
(9.49173 1.0065 -9.48722e-17)
(-2.23902 0.18887 -2.90912e-21)
(0.1629 -2.60216 3.34292e-17)
(-1.59667 -0.286339 0)
(1.24104 1.06787 -3.51052e-17)
(-0.0530242 1.96826 -1.7888e-16)
(-0.706303 -0.553564 -1.8419e-16)
(-0.185686 1.82781 -1.0161e-16)
(9.83246 0.085266 0)
(-2.86073 -0.516471 3.12258e-16)
(-1.05857 -1.23009 -1.35734e-16)
(9.93294 0.804044 -1.31326e-17)
(0.934225 0.413601 3.19024e-17)
(8.94759 0.524549 -1.09763e-16)
(11.0631 0.0428174 0)
(10.5159 0.0327685 1.40269e-17)
(-1.94176 0.101575 0)
(-0.437407 0.165649 8.46274e-17)
(9.33921 0.634972 -1.74087e-17)
(-2.84742 -0.769734 2.47208e-16)
(9.51926 0.947373 9.69879e-17)
(9.7421 0.30971 4.02607e-17)
(0.0220406 -0.149608 1.23322e-16)
(8.97337 1.53491 0)
(-0.656666 -2.03319 2.65839e-16)
(11.2518 0.115292 9.39998e-17)
(9.95884 0.957818 -1.31907e-17)
(9.8529 0.6091 1.0046e-16)
(-2.70364 4.76957 -1.26545e-16)
(-0.118595 -2.9133 1.30832e-16)
(10.2755 0.105183 -1.62388e-20)
(-1.25276 -0.523423 -2.1544e-18)
(0.379821 1.09965 -1.3491e-16)
(-0.580555 1.38805 -3.11068e-16)
(10.0674 0.037797 -6.19365e-17)
(0.866059 2.85312 -2.11748e-19)
(10.0346 0.368947 3.92831e-17)
(10.0238 0.0712267 0)
(7.56192 1.99034 -1.02396e-16)
(-0.476179 -1.46197 0)
(-0.0654155 -1.18906 0)
(0.322159 -1.74098 -1.57873e-16)
(2.85719 2.65005 -2.72334e-16)
(9.37948 0.907784 -2.66997e-17)
(4.3846 0.127615 -4.16746e-16)
(10.0427 0.0448032 3.40611e-17)
(-2.23252 2.41133 -2.84686e-16)
(-0.086983 1.05539 8.39495e-16)
(9.78767 0.220101 2.41975e-17)
(1.15978 -2.61839 1.11686e-17)
(9.23474 0.260172 0)
(10.1327 0.0630161 7.68229e-18)
(9.93734 0.28698 6.08224e-17)
(8.53261 0.624636 1.30408e-17)
(9.86495 0.199671 2.32422e-17)
(-1.1619 -1.51267 0)
(2.09113 2.65852 2.76784e-16)
(9.50548 0.908611 0)
(-0.953627 -0.834637 0)
(-0.517819 -0.527829 0)
(10.118 0.236555 -6.07486e-17)
(9.88688 0.169573 0)
(0.297267 1.15561 1.39164e-16)
(11.1308 0.0268831 -1.23617e-16)
(3.40768 1.05911 -7.71661e-17)
(10.724 0.352759 0)
(9.36516 0.946118 0)
(9.6321 0.838298 -7.04754e-17)
(-1.05401 -1.36727 0)
(10.6228 0.535104 0)
(8.24134 0.24029 -6.82752e-17)
(-0.0214857 1.49056 0)
(-2.50582 2.26095 3.16409e-16)
(10.6307 0.0752678 7.79249e-20)
(9.89173 0.421229 -1.83491e-16)
(9.78757 0.366937 8.43097e-17)
(9.81843 0.326008 4.73959e-17)
(10.4948 0.212278 -2.54804e-17)
(-1.39846 -0.038673 1.82577e-16)
(9.85494 0.108111 0)
(2.30033 0.411217 1.63123e-16)
(9.53268 0.202318 -3.09205e-17)
(9.44197 0.981694 8.03873e-17)
(-0.154054 1.17244 -3.00524e-16)
(0.87797 3.06184 -3.17198e-16)
(2.51441 -0.984052 -1.60943e-19)
(2.29261 -0.151253 7.10534e-20)
(10.5368 0.273703 -1.71987e-16)
(1.63465 0.358244 0)
(1.18426 -0.386686 0)
(10.1859 0.769849 0)
(10.1037 0.826614 -9.07979e-17)
(0.129217 1.77647 0)
(-4.54859 -2.4709 9.50948e-17)
(6.44925 2.95651 2.03224e-17)
(1.19005 4.46709 -1.68585e-16)
(8.17326 0.0532312 -4.32455e-17)
(-0.349261 0.00536266 1.89555e-17)
(2.42388 0.429571 1.60647e-19)
(8.30942 0.00255155 5.49525e-20)
(8.26402 0.0187992 8.39444e-17)
(8.13657 0.071559 8.31432e-17)
(1.36401 0.489822 2.5254e-17)
(-0.207267 1.31703 3.81568e-16)
(1.08349 0.0811455 -5.97312e-17)
(9.77687 0.268712 -7.40004e-17)
(10.7243 0.451955 6.54833e-18)
(8.13185 0.00105584 -7.85197e-17)
(9.91986 0.774647 0)
(8.44458 2.38592 2.7293e-17)
(0.361162 0.149839 -2.21378e-17)
(9.82389 0.896779 0)
(9.29621 0.659349 2.92979e-16)
(10.2437 0.716316 2.66339e-17)
(10.2887 0.628338 0)
(8.08895 0.0831821 -5.14685e-17)
(9.9968 0.5547 8.68608e-19)
(-1.71226 -0.31987 -9.65576e-17)
(-0.853104 -0.632961 8.283e-21)
(-1.65706 -0.295626 -3.24758e-17)
(-2.6245 -2.32893 1.60072e-16)
(0.739058 2.90619 0)
(2.46023 0.52632 -3.22531e-17)
(-0.493014 -0.536346 0)
(-1.62132 -0.427661 2.54443e-16)
(8.2067 -0.014765 -4.27389e-17)
(-3.29426 3.38159 5.38166e-17)
(-0.033587 1.54318 9.54682e-17)
(9.23489 1.02565 4.97957e-17)
(10.3679 0.705216 1.98243e-19)
(9.65683 0.184353 6.4529e-17)
(11.163 0.435054 1.47202e-16)
(9.55565 0.00606322 -5.79594e-17)
(9.44692 0.895075 0)
(-2.49516 -0.773824 0)
(10.0697 0.89236 -4.25352e-17)
(9.50029 1.19226 4.58519e-18)
(-1.08375 1.47623 0)
(9.18566 1.80735 1.41165e-18)
(2.13125 0.327427 -1.54917e-16)
(9.53311 0.994887 2.73678e-17)
(9.65599 0.367356 2.75723e-17)
(9.48861 0.74185 7.03217e-17)
(2.47819 -2.08762 0)
(8.09826 0.139056 0)
(-1.20634 -0.709472 -2.14308e-16)
(1.66401 0.217399 1.38636e-16)
(9.92917 0.124415 7.82465e-17)
(8.22181 0.0340836 -8.4841e-17)
(8.2719 0.00923376 -8.17005e-17)
(-0.0842434 0.237172 1.96711e-16)
(9.66702 0.251377 -1.28845e-17)
(10.8085 0.208332 5.20285e-17)
(0.219634 -0.143169 -1.67008e-17)
(-0.652631 -0.0475821 -1.86587e-17)
(-0.268418 0.35551 -2.61701e-19)
(1.37604 0.137605 -1.59836e-16)
(-1.38212 -1.39291 -5.05669e-17)
(2.34622 0.571505 -6.3558e-17)
(9.81002 0.27576 -4.44612e-17)
(-1.15923 1.00978 -1.50976e-16)
(1.57992 0.197547 -2.44448e-16)
(-0.703063 0.653562 2.42311e-16)
(0.704826 0.136293 4.06308e-19)
(1.88218 0.335281 -1.49489e-20)
(-0.568418 -0.481998 -1.87139e-16)
(-1.43369 0.983088 -7.95794e-17)
(9.85123 0.0717336 1.67731e-16)
(-1.61147 0.531878 -7.43874e-17)
(8.34115 0.452306 0)
(9.77541 0.178614 -6.48361e-17)
(-0.346953 -0.633673 -9.19837e-17)
(2.11187 -1.01294 0)
(2.719 0.674269 0)
(-1.84909 -0.652886 1.68969e-16)
(10.2954 0.111219 0)
(-0.589882 1.09508 -1.53442e-16)
(-2.65955 -0.511368 -4.68628e-17)
(-0.500502 0.515209 0)
(-2.35044 -0.326977 -1.41506e-17)
(1.07646 -0.486761 1.42822e-16)
(0.203305 -1.29443 0)
(9.83221 0.0900591 -7.56374e-17)
(-1.78013 0.863865 8.06443e-17)
(10.0693 0.220737 3.15021e-17)
(6.26577 3.07569 -2.52797e-16)
(-0.96444 -0.138633 1.58821e-16)
(10.5223 0.2422 1.38576e-17)
(0.603583 -0.159206 1.60317e-16)
(-0.384778 -0.0786855 -8.42726e-17)
(0.167862 -0.0303343 -8.08603e-17)
(0.812864 0.115077 -1.17355e-16)
(-0.954646 -0.0644363 -3.95204e-16)
(-0.570487 -0.225602 0)
(-0.983016 0.210564 -1.46945e-16)
(-1.47042 0.371624 0)
(0.584812 0.078887 0)
(-0.9606 -0.0623109 0)
(-1.30907 -0.0427067 -3.05284e-16)
(-1.40182 0.170219 0)
(0.834687 0.154834 4.25228e-16)
(-0.516458 -0.191942 -1.78823e-17)
(-1.15048 0.594599 1.15595e-16)
(-0.775217 0.217985 2.3263e-18)
(-0.649843 -0.027814 -8.61783e-17)
(-0.170223 -0.118417 2.76099e-16)
(0.760154 -0.0560551 -1.55395e-16)
(-0.439123 0.128159 0)
(-0.235076 0.534022 0)
(-0.388397 -0.236675 -2.36898e-17)
(0.0596033 -0.275161 0)
(1.35993 0.161568 5.05173e-16)
(2.64213 0.550713 9.31717e-17)
(-0.914958 0.674507 -1.4202e-16)
(10.0383 0.94039 4.94115e-17)
(-2.06078 -0.855472 0)
(-0.743843 -1.60747 1.79519e-16)
(-0.346775 -0.770028 9.07684e-17)
(9.81771 0.29692 2.99092e-17)
(10.0045 0.0336235 7.81298e-17)
(-1.52319 0.177828 5.35938e-16)
(-1.04025 0.0291432 2.44422e-17)
(0.787384 0.00669848 3.67278e-17)
(0.0637684 -0.0976671 -2.59793e-16)
(-0.775576 -0.13495 0)
(-0.475919 0.631607 1.15627e-16)
(-0.59674 0.195374 0)
(0.322958 0.505553 0)
(-1.52688 0.150942 1.47886e-16)
(-1.19118 0.195514 1.35728e-16)
(-0.540894 -0.0454469 1.60858e-16)
(0.328806 -0.268183 0)
(3.87789 5.37611 1.65248e-16)
(9.85324 0.931968 -2.66757e-17)
(9.98784 0.00196295 0)
(-1.21933 0.645039 -4.45662e-20)
(-1.39237 0.0473359 -1.48302e-16)
(-0.301074 0.365732 -1.65036e-16)
(9.95654 0.193811 0)
(-0.414194 -1.60132 0)
(10.4502 0.0688576 0)
(1.31567 0.141252 -5.04535e-17)
(-0.4946 -0.660656 1.61788e-16)
(10.0165 0.210551 2.63193e-17)
(-2.1833 -0.166014 2.65424e-17)
(-0.59497 -0.534369 1.07335e-17)
(9.98425 0.748965 0)
(2.60149 0.631782 8.25913e-17)
(8.95163 0.0125058 1.5674e-16)
(-0.142832 -0.0259212 -3.39111e-17)
(-0.125795 -0.526941 -1.28958e-16)
(9.7233 0.0759788 6.16361e-17)
(-0.174784 -0.834609 0)
(-1.25003 -0.23586 -2.44288e-20)
(2.90833 7.2781 -3.78535e-16)
(9.01496 0.230466 -2.08765e-17)
(1.79079 4.59967 6.17784e-17)
(-0.0422609 -0.624885 -1.56682e-16)
(0.151734 0.668099 3.08419e-16)
(2.58602 0.700174 -1.64837e-17)
(-0.166672 0.327625 4.83498e-19)
(2.08379 0.443797 3.8009e-17)
(-1.43021 -1.16339 1.27723e-16)
(-2.30629 -1.29524 5.19558e-17)
(2.47041 0.533373 -2.0907e-16)
(-1.39274 -1.21195 0)
(0.195376 -0.531563 1.58855e-16)
(2.65828 0.641043 3.78182e-17)
(0.154859 1.22167 1.11639e-17)
(0.405608 0.494046 -1.12489e-16)
(1.80172 0.545057 -3.2314e-16)
(2.61245 0.918944 0)
(2.01 0.415522 -1.67085e-16)
(-0.25556 -0.378806 0)
(-0.886165 0.546429 2.57706e-16)
(2.63435 0.660827 -7.14219e-18)
(1.03247 0.0423533 0)
(-1.3359 -1.24226 -2.04942e-16)
(0.134614 0.849435 2.89255e-18)
(1.97374 0.47816 5.35981e-16)
(1.20598 -0.281506 1.63193e-16)
(-2.98198 0.597327 2.81868e-18)
(0.541883 -0.000129863 -5.2889e-17)
(-0.382854 0.423371 0)
(0.081852 0.271628 5.72223e-17)
(0.161323 0.112743 0)
(-1.93251 -0.559494 8.08613e-18)
(-1.71234 -0.302955 -4.42832e-18)
(0.846866 0.124133 -1.17605e-16)
(0.511153 -1.46581 0)
(-0.608547 1.03865 1.55591e-16)
(-1.15877 0.515032 -1.00584e-16)
(-1.84277 -1.05598 4.03496e-16)
(-1.80507 0.0652384 -1.3544e-16)
(-2.85582 -0.996923 -1.33352e-16)
(-0.741696 -1.23937 7.83685e-17)
(-2.88452 -0.342735 -1.94705e-16)
(-2.06077 -0.562598 -3.0223e-16)
(-1.36293 -0.906905 -7.36801e-18)
(-2.51032 -0.497711 0)
(2.86493 0.802479 0)
(4.41621 3.20111 2.1383e-16)
(-0.177712 -0.280424 0)
(1.46796 -0.0236649 0)
(2.08938 0.652974 -1.88603e-16)
(3.14669 0.864943 1.45616e-16)
(3.32335 0.770241 -3.17381e-16)
(-0.384626 -0.417147 -1.68967e-16)
(3.56032 4.47053 8.61467e-17)
(2.04837 0.337563 -1.90973e-16)
(3.09524 0.858423 -3.92041e-16)
(2.93599 5.83694 1.47882e-16)
(-2.24304 0.0825116 0)
(8.12884 0.094665 -1.46939e-17)
(1.05359 7.04508 -5.47048e-17)
(2.23457 0.648013 2.52469e-16)
(3.62032 0.559318 -1.25546e-16)
(3.28545 6.29943 -2.75448e-16)
(2.6194 6.23094 2.66696e-16)
(0.893508 2.3898 1.95243e-16)
(-0.195597 -1.49264 0)
(-0.703111 -1.20119 -4.42944e-17)
(-2.30536 0.0168925 0)
(0.671765 8.34753 -4.52323e-17)
(9.93628 0.311408 -1.75347e-17)
(8.79166 0.149189 -3.06529e-17)
(-4.57995 -1.88876 -8.61678e-17)
(2.05155 0.854301 -1.18417e-16)
(-1.16964 -1.66545 1.3456e-16)
(-0.767844 -1.06565 -1.1161e-16)
(0.420168 -1.09943 0)
(0.264905 -0.520291 -1.15338e-17)
(-0.128777 -0.591079 0)
(2.69636 0.268217 1.69944e-17)
(2.40385 4.53307 6.49775e-17)
(-0.238189 -0.813552 0)
(-2.38459 -0.065976 0)
(0.0932286 3.33822 0)
(0.487389 -0.285986 4.31578e-17)
(9.92659 0.156967 -1.29754e-17)
(1.00313 -0.214526 0)
(2.02165 1.42838 -1.09144e-18)
(-0.738419 3.39773 1.69986e-17)
(0.82359 1.39765 7.19487e-20)
(1.93667 0.84798 0)
(2.22784 0.814072 1.85372e-16)
(0.555565 -1.26178 0)
(3.70196 0.219332 -2.91979e-19)
(-1.68065 -1.55341 -7.01298e-17)
(-0.307834 -0.747621 -4.60478e-17)
(0.332838 0.794694 -9.56877e-17)
(0.274037 1.08886 0)
(0.630895 -0.798196 3.21447e-17)
(9.70011 1.04804 0)
(-0.517271 -0.322491 3.91224e-17)
(10.5174 0.118653 -9.01979e-17)
(-0.42514 -0.458845 0)
(1.53133 3.61577 -4.39111e-16)
(-0.225916 3.37162 8.80168e-18)
(-0.396596 -0.948855 4.5113e-17)
(2.61946 0.535431 0)
(0.319362 -1.34352 1.04064e-19)
(1.08699 0.0601517 -1.20144e-16)
(0.388303 -0.850468 6.00933e-17)
(0.112812 -0.197693 -1.79626e-16)
(-2.04549 -0.11259 9.3764e-19)
(-0.716347 -1.36791 0)
(-0.317473 -0.354527 1.64843e-16)
(-0.530412 -0.918236 0)
(1.01483 -0.554582 3.89906e-17)
(0.647443 0.296508 -1.09556e-16)
(8.74929 0.175396 4.22694e-17)
(8.06747 0.1504 -1.2184e-16)
(1.50297 0.311038 4.93492e-17)
(0.785328 -0.793297 -1.52362e-17)
(-1.04692 -1.19667 2.17173e-17)
(-0.498895 -1.12011 -4.21541e-17)
(1.28872 1.94744 3.44809e-17)
(1.17814 0.360134 0)
(-2.10229 -0.262551 2.97515e-16)
(2.55905 3.33228 0)
(2.19177 1.16 -1.11238e-16)
(0.548285 1.60271 1.87733e-16)
(-0.287231 -0.669843 1.61527e-16)
(-5.64602 -2.55569 0)
(-1.05999 0.0584648 4.10579e-17)
(-1.27323 -1.77241 5.71598e-17)
(0.755496 0.849826 2.62879e-17)
(9.78935 0.0849254 0)
(-1.39518 -1.35319 0)
(2.7563 -0.147937 -9.05614e-20)
(1.32711 -0.0812518 -4.46774e-17)
(-0.759531 0.0152585 2.07396e-16)
(8.16277 -0.0519493 4.11748e-17)
(-0.590652 -1.2946 8.20239e-17)
(2.7754 0.83093 2.4597e-17)
(-0.636198 -0.520097 -5.32947e-17)
(1.44582 2.21451 -6.68105e-17)
(-0.256112 -0.801394 -1.66486e-16)
(8.06278 -0.0494863 -4.62534e-19)
(9.33574 1.04312 4.45856e-17)
(-1.77587 0.17174 -3.06686e-16)
(2.45414 0.767946 0)
(1.16242 2.41182 0)
(0.658498 1.70122 8.45563e-16)
(-2.38816 0.454155 -1.06428e-16)
(0.0811226 0.102007 -5.40603e-16)
(-2.22761 -0.677824 0)
(9.69541 0.812864 1.25664e-16)
(0.727355 0.468601 0)
(2.46241 0.998669 1.14761e-16)
(-0.382906 -0.288906 -5.63753e-16)
(-0.253041 -1.54514 2.19524e-16)
(1.50455 1.76017 0)
(-0.719895 -1.70029 1.08618e-17)
(1.71519 5.05982 0)
(-1.50094 -0.406359 2.18976e-16)
(-2.06886 -1.01271 1.04127e-16)
(-2.43232 -0.807788 9.17063e-17)
(2.55549 0.785961 -1.12268e-16)
(8.74941 2.06094 -2.83899e-17)
(-2.46348 -0.168024 -3.75816e-18)
(9.78999 0.0683127 2.12868e-16)
(-0.60278 -0.531113 0)
(1.27773 0.291792 -1.17264e-18)
(0.901535 0.0682757 -2.2732e-17)
(1.59728 0.448778 0)
(-0.32575 -0.406093 3.17282e-16)
(9.87629 0.853849 0)
(-2.74147 -0.244905 3.61985e-18)
(10.8119 0.370667 -3.15696e-18)
(-4.38618 -2.64332 0)
(1.57589 2.2162 -9.53371e-17)
(10.0003 0.0728799 -1.06394e-16)
(9.82282 1.06387 0)
(9.71235 1.32283 -5.03486e-18)
(2.0128 0.691249 0)
(-0.677346 -0.420728 -8.582e-17)
(-0.196339 -0.253953 -1.88514e-17)
(9.74577 0.732854 6.8711e-18)
(-0.397911 0.144562 -1.9481e-16)
(-0.413584 -0.522748 -2.04045e-16)
(0.110455 -0.249941 -4.23774e-16)
(3.82066 -0.250615 -2.81308e-17)
(1.28864 0.918458 -5.25685e-18)
(1.33103 1.45119 5.59587e-19)
(-0.69441 -1.70138 -9.80588e-17)
(0.416912 -2.60645 0)
(2.90285 -0.624068 -3.1924e-20)
(-0.60632 -1.61568 6.08063e-17)
(5.40116 1.05716 -4.47154e-17)
(6.66474 2.0131 6.24915e-18)
(-1.37138 -0.999332 -1.40485e-16)
(-0.0521579 0.19823 0)
(-0.13225 1.32809 -1.58797e-16)
(6.00958 1.47683 0)
(9.79588 0.635959 -1.27257e-17)
(0.643269 3.35135 0)
(-0.135856 0.436318 6.14096e-17)
(0.839937 1.89793 -9.72532e-17)
(-0.956386 -1.5422 9.12169e-20)
(3.80076 -0.646147 6.84076e-17)
(1.41861 0.222266 0)
(-2.24611 0.188403 2.45652e-16)
(3.6141 -1.53234 -4.13063e-17)
(-0.140309 -0.797039 -6.23959e-20)
(6.9413 1.58486 -5.81997e-17)
(3.67645 -1.00378 5.69979e-17)
(-0.770086 -0.294266 8.62306e-17)
(-0.905907 -1.39648 -1.35712e-17)
(9.7952 0.0467395 0)
(-0.0430637 -1.36992 6.04974e-17)
(-2.15786 0.186802 -7.74563e-17)
(-1.88036 0.0618673 -1.08496e-16)
(9.80117 0.0415317 -4.44696e-17)
(1.81955 0.282667 6.04908e-17)
(-0.724814 -1.43191 3.94929e-17)
(3.89364 -0.752236 -5.28204e-17)
(9.16371 1.06177 3.55961e-17)
(8.82244 1.43213 2.02955e-17)
(-2.05637 0.172104 1.86369e-16)
(1.75177 0.979515 -1.69201e-17)
(-1.01024 -1.25287 0)
(9.81336 0.0545421 1.75898e-16)
(-0.647217 -1.29426 3.7963e-16)
(-0.0894644 -1.04649 -1.90997e-17)
(1.65636 1.88717 0)
(2.17247 1.08909 2.72576e-17)
(0.5683 1.76717 -8.67253e-17)
(-4.87181 -2.82727 4.41349e-17)
(-1.98847 0.164473 2.46302e-16)
(-1.13202 -0.365509 0)
(1.12564 0.117717 2.48669e-17)
(9.49593 1.57383 4.20144e-17)
(8.56847 0.88066 0)
(0.372581 1.15629 1.18989e-16)
(-0.602458 -1.5297 -7.12523e-17)
(9.78998 0.0679402 7.90498e-17)
(9.9154 0.1633 -2.16992e-17)
(-0.808187 -0.176311 -2.71754e-16)
(-0.581931 -1.48151 -4.24721e-16)
(1.50068 0.615392 1.72763e-17)
(-0.769459 0.0743182 9.58618e-17)
(-2.02424 0.120179 -2.67516e-16)
(-2.13038 0.109563 -2.84501e-19)
(9.79558 0.1331 0)
(-0.489438 -0.106223 1.69362e-16)
(10.0122 0.0756863 3.74664e-17)
(-1.83258 -1.75748 -5.35702e-17)
(-0.596163 -1.64268 1.56412e-16)
(0.229904 0.0101922 -5.11247e-17)
(-0.829472 -0.184752 -8.49352e-17)
(9.81467 0.0861268 -2.47484e-17)
(-2.16644 0.17089 -1.37884e-16)
(1.06945 0.549442 -2.28219e-17)
(8.68665 0.257782 0)
(8.81628 0.656368 7.67998e-17)
(2.10549 1.88673 5.24671e-17)
(-3.10202 -1.9231 1.02484e-16)
(3.53146 -1.44783 0)
(8.84111 1.73002 -3.06626e-17)
(0.0313375 -0.21219 -1.7475e-16)
(-0.907038 0.0701612 1.8113e-18)
(1.73409 0.67503 -2.65414e-17)
(-1.32917 -0.13298 1.83016e-17)
(-1.37512 -0.877093 -1.80121e-16)
(2.68549 0.553707 -1.9735e-19)
(-2.10661 -1.07357 3.22162e-16)
(1.88066 1.69143 -3.35545e-17)
(-0.148633 -0.559676 0)
(-0.228292 0.24758 1.63431e-16)
(7.70955 0.146074 2.07698e-17)
(1.47319 0.922171 0)
(2.10249 1.42233 -1.50823e-17)
(-1.16539 -0.555798 -5.84057e-17)
(-1.67978 -1.03723 1.05591e-16)
(3.95639 -1.19253 -2.54714e-17)
(-0.732375 -0.0142323 -7.269e-17)
(-0.0815142 -0.325672 3.24198e-16)
(9.80809 0.11223 0)
(9.05879 1.09434 -5.7666e-17)
(1.76945 1.46803 0)
(3.20405 -1.10334 1.02847e-16)
(9.43664 0.891284 -6.35652e-17)
(3.91022 -1.46958 4.74921e-17)
(-0.0307772 -0.0209287 3.1841e-16)
(4.92154 2.76456 9.16794e-17)
(8.73068 1.14042 -3.20464e-19)
(-0.251816 -1.35863 -2.05005e-16)
(10.0073 0.0862142 -1.08555e-17)
(6.14314 0.330747 2.24651e-16)
(-2.65159 -0.743262 1.94635e-16)
(-0.536485 -0.623852 3.99662e-18)
(3.80198 -0.217048 -6.94996e-17)
(-2.48779 -1.65495 -3.11255e-17)
(0.342067 1.77895 -9.42793e-17)
(8.1167 0.300068 5.17929e-21)
(0.297984 -0.349468 3.06899e-16)
(0.773398 2.91194 -1.10716e-16)
(8.92305 1.09465 -8.63971e-19)
(-1.82322 0.122777 7.12126e-17)
(8.49703 0.33231 0)
(9.54777 0.117881 2.15539e-17)
(9.7927 0.0892823 1.20881e-17)
(-0.623839 2.56642 1.94079e-16)
(1.86526 -0.831694 -3.53274e-16)
(7.6897 0.296467 -2.24564e-17)
(-3.87636 -1.57956 0)
(-0.640154 1.39836 1.23213e-16)
(2.4805 0.163333 -2.40252e-16)
(-1.20691 -0.517115 0)
(-0.59965 0.353173 0)
(-1.6814 0.0626748 1.26262e-16)
(2.97724 0.168975 2.24549e-16)
(3.36073 0.19132 0)
(-0.0605342 1.82201 -2.54727e-16)
(9.52752 0.79562 -6.88591e-18)
(-1.65864 -0.119732 1.35886e-16)
(0.225599 -1.20123 1.11933e-16)
(-0.959897 -0.851118 0)
(-1.8315 0.0363115 -2.59751e-16)
(1.86663 1.32195 1.31167e-16)
(-0.329497 0.591893 1.584e-16)
(6.1521 -0.276713 0)
(-2.28035 0.120275 0)
(5.40079 0.0855691 0)
(8.92574 0.354064 7.52258e-18)
(9.26108 1.38802 1.03819e-17)
(10.507 0.618471 -1.2962e-17)
(9.60639 0.804979 6.93749e-17)
(1.71792 -1.21432 1.7049e-16)
(0.692483 0.468819 6.05552e-17)
(9.09529 1.17466 -1.26861e-16)
(3.76801 0.189084 0)
(4.45085 0.147936 4.5528e-17)
(-1.95627 0.000579381 0)
(-1.4172 0.129531 -1.01287e-16)
(9.94505 0.0386117 5.69744e-18)
(10.9464 0.043582 0)
(9.46206 0.108607 5.18734e-18)
(7.38404 0.500103 -1.52213e-16)
(2.34525 -0.0964088 -3.15712e-16)
(6.95273 0.786406 1.18502e-16)
(4.33503 4.10038 0)
(2.74313 4.81253 1.71658e-18)
(9.58015 0.00498588 9.86276e-17)
(1.54631 0.876453 -1.75162e-16)
(0.359984 0.0394415 -6.62878e-18)
(2.08758 6.22486 -3.54484e-17)
(5.54443 0.149096 6.50457e-19)
(4.143 0.173661 7.34756e-19)
(-1.01107 -0.892342 -8.40128e-19)
(0.919489 3.35476 0)
(-0.620864 -0.282504 1.61694e-16)
(2.88589 -0.460284 1.18555e-16)
(0.0101085 -0.083592 -1.75741e-16)
(5.16996 0.0745604 0)
(-0.645195 0.190266 8.21913e-17)
(0.660919 1.21835 3.23531e-17)
(-1.30023 0.0196893 -1.50848e-16)
(2.76022 -1.4424 -1.31798e-17)
(2.17616 -2.46321 -8.19742e-17)
(-1.01402 0.064386 5.69754e-17)
(4.71401 0.118317 -4.73557e-17)
(1.33452 0.0804236 0)
(-0.0362696 0.0674149 1.86848e-16)
(2.69789 1.88568 -4.46109e-16)
(-0.457471 -0.417097 -9.23257e-17)
(2.92998 -0.159189 -1.03314e-16)
(-1.39905 0.0823275 -7.78265e-21)
(6.71343 0.437227 -1.15978e-18)
(-1.87439 -0.134958 1.30372e-16)
(9.59557 0.71299 0)
(2.04393 0.0320204 0)
(3.45278 1.72643 -9.28382e-17)
(9.99391 -0.0109412 2.71231e-18)
(9.86142 0.214145 0)
(-0.727652 -0.197847 -8.3402e-17)
(2.72366 -0.720926 0)
(0.207581 1.87445 -1.4592e-16)
(9.85217 0.096312 2.42354e-17)
(-2.29888 -0.425965 1.95049e-16)
(1.49952 1.47194 0)
(8.78579 1.0499 2.72693e-17)
(3.42511 -1.20208 -7.66279e-17)
(-0.783219 -0.0211012 7.99979e-17)
(1.25529 0.146657 -1.83231e-16)
(1.67444 7.09997 9.93929e-17)
(-2.27385 0.177645 -3.10198e-17)
(1.47656 1.56766 4.19662e-16)
(-0.796992 1.90556 0)
(9.6969 0.145308 -8.11531e-17)
(9.82427 0.0654519 -2.62817e-18)
(0.879883 1.35868 -9.53333e-17)
(-0.842155 -0.0278656 9.14669e-17)
(2.42262 -1.74102 -1.16605e-16)
(6.17382 0.044295 3.15701e-17)
(5.6915 0.21503 -4.36276e-17)
(4.65956 -0.293602 -1.96597e-16)
(5.24091 0.171187 0)
(5.60929 0.0558089 -1.45345e-16)
(7.24753 -0.0472913 0)
(6.10793 -0.0796975 3.62459e-17)
(4.94885 0.0914872 5.46272e-18)
(0.109361 -0.203445 -8.17424e-16)
(0.491327 -0.0313156 -4.10591e-16)
(11.1064 0.438762 4.99904e-17)
(1.3317 -2.44393 -2.13092e-17)
(1.55895 1.88704 1.82253e-17)
(2.76145 -1.16099 4.10826e-16)
(-0.825099 -0.0299388 4.47084e-20)
(-0.301327 -0.333516 0)
(-0.155255 -0.280394 -2.01508e-16)
(1.81699 0.0397897 -3.24487e-17)
(-0.738832 -0.0194857 0)
(-0.0729341 -0.119681 3.01121e-16)
(8.95335 0.515003 2.93771e-16)
(-1.77352 -0.355606 -2.01182e-16)
(8.30918 -0.0234204 3.98037e-17)
(1.91245 0.220293 -5.56854e-17)
(-2.38969 -0.540344 -1.10979e-16)
(9.66605 0.625201 0)
(8.62401 0.799757 -3.93094e-17)
(10.3664 0.392954 0)
(5.92391 0.1165 0)
(1.67017 4.46682 3.53054e-18)
(8.68079 0.952544 1.16412e-19)
(3.70293 0.199766 2.83703e-17)
(1.71164 0.275331 -3.47464e-16)
(0.844185 0.0629256 3.15451e-16)
(9.71315 0.0215734 1.04426e-17)
(-0.0311792 -0.408455 1.33934e-16)
(1.97825 0.420694 2.32991e-16)
(2.44332 0.452547 1.21345e-16)
(0.172536 0.031698 -3.539e-16)
(3.1641 4.68824 3.44644e-17)
(-1.25633 -0.273187 2.02944e-16)
(-5.05482 -2.94232 -3.05091e-17)
(1.01442 1.96238 0)
(9.88538 0.20379 0)
(9.53363 0.0180461 5.68455e-17)
(9.77709 0.0493224 -8.31959e-17)
(-1.79167 -0.169653 -1.69811e-16)
(1.51855 -0.657501 -3.11168e-17)
(-2.02494 -0.0229656 3.01716e-17)
(2.08852 0.44369 0)
(-0.965902 1.39398 0)
(9.92239 0.217989 6.22995e-17)
(8.62846 1.59815 0)
(-0.783096 -0.0474844 -8.05754e-17)
(0.662979 -0.410275 -2.44311e-16)
(8.58309 0.37497 1.55143e-17)
(1.6576 6.84337 0)
(-2.22603 0.137226 2.19104e-16)
(1.33179 0.22418 0)
(0.0250014 -0.385976 1.93032e-16)
(8.76762 1.99921 -9.67339e-17)
(1.79222 -0.218045 0)
(-2.13437 -0.589458 -7.61723e-17)
(-1.60823 -0.677014 -6.55421e-17)
(9.77976 0.0566946 -7.46834e-17)
(-0.491905 0.40488 1.79531e-16)
(2.31258 -0.833141 0)
(-1.73866 0.132059 6.90318e-17)
(0.165027 0.0818286 -9.14636e-17)
(10.5328 0.0780819 0)
(-0.921121 0.284304 0)
(-1.38341 -0.018458 2.04521e-16)
(0.689467 1.24626 -1.00775e-16)
(2.1358 1.55847 0)
(7.07003 0.0787935 1.72727e-16)
(9.35958 0.127885 0)
(-0.162916 3.03594 -1.82538e-17)
(2.17079 0.472309 -1.16474e-16)
(9.72924 0.121202 6.11052e-17)
(-0.671901 -1.93594 -1.4353e-16)
(5.53562 2.55305 -2.38105e-16)
(-0.250607 -0.510248 -1.20786e-16)
(2.83831 0.111314 0)
(-2.76637 -0.792398 -1.84303e-16)
(3.16904 -1.98039 2.14489e-17)
(-2.57675 -0.519659 0)
(-2.56411 -0.399946 -1.51966e-17)
(-1.47632 -0.562 2.09588e-16)
(-0.766703 -0.581256 7.96677e-17)
(2.04708 0.0596569 0)
(2.28515 0.000929854 3.23077e-19)
(11.2154 0.161572 -4.66859e-17)
(-1.04554 -0.975141 3.12414e-17)
(-0.0623843 -0.538065 5.79196e-16)
(-0.0452604 0.0332477 1.10102e-16)
(-2.24697 0.166421 2.62873e-16)
(9.78714 0.0711787 5.82102e-17)
(0.668557 3.05011 0)
(-2.10177 -0.00685538 1.97515e-18)
(-1.95651 -0.0238318 -2.04256e-16)
(0.00477592 -0.611861 -3.05252e-16)
(-0.453233 -0.536526 -9.39231e-17)
(9.51001 0.0345709 8.93645e-20)
(1.71193 -0.213551 0)
(3.21007 -1.51808 3.57765e-18)
(-2.40994 -0.716394 -8.70944e-17)
(9.96224 0.195356 2.74308e-17)
(-1.61753 0.0928235 1.97165e-16)
(9.77801 0.0316068 -2.02155e-21)
(9.78728 0.11384 0)
(7.84565 0.122392 4.7166e-17)
(2.82917 -0.852324 0)
(5.84244 -0.0465393 -1.93782e-16)
(-1.79557 -1.8599 -1.70241e-16)
(2.44713 0.0780155 0)
(0.802074 2.33419 -7.19143e-17)
(8.63025 1.25775 -1.91945e-17)
(-0.229839 -2.16431 8.14434e-17)
(0.41473 -1.63213 -8.19788e-18)
(0.229863 -2.77566 0)
(0.349174 -2.27868 7.34813e-18)
(0.37659 -0.915904 2.09158e-17)
(0.100414 -3.08567 2.66269e-17)
(0.000302839 -3.18481 -5.4653e-17)
(-0.196052 -0.260755 2.02758e-16)
(-0.84217 0.0178807 0)
(-0.970291 -0.236003 3.00955e-16)
(9.75276 0.0687958 1.0695e-17)
(-0.0620696 -3.13217 1.72743e-20)
(-0.971751 0.826281 0)
(-0.670249 -0.161199 7.17153e-17)
(0.325933 -2.70745 1.35157e-18)
(-0.326079 2.46307 -1.59273e-16)
(-2.43283 0.108531 -3.80374e-18)
(-0.304934 -1.46264 -1.60087e-16)
(-1.27717 -1.78483 -9.2064e-17)
(0.0945308 2.59182 -9.09735e-17)
(0.401535 1.1646 6.74241e-17)
(-1.61773 0.0895491 3.06935e-16)
(2.04725 2.99008 0)
(1.20956 -0.326595 -1.47264e-16)
(-0.111464 -3.0388 -7.91989e-18)
(-2.20111 0.133551 3.13088e-17)
(-2.10826 -0.197611 -1.0027e-16)
(-1.99626 0.152696 -3.41327e-17)
(0.965658 0.743444 1.58499e-16)
(-0.923119 0.966638 7.69562e-17)
(0.779863 0.614561 1.13144e-16)
(-2.54413 0.0295833 1.90079e-18)
(0.518942 -0.0335536 -2.47943e-17)
(-0.265168 -1.87091 1.45487e-16)
(-0.166692 -2.86954 -1.60541e-17)
(-1.62467 0.32395 -6.33329e-17)
(-0.00376089 3.00916 0)
(-0.0800477 -0.229566 3.93407e-17)
(-1.22947 -0.542196 1.90596e-16)
(-2.01434 0.33537 1.04642e-16)