/*--------------------------------*- C++ -*----------------------------------*\
| =========                 |                                                 |
| \\      /  F ield         | OpenFOAM: The Open Source CFD Toolbox           |
|  \\    /   O peration     | Version:  v1912                                 |
|   \\  /    A nd           | Website:  www.openfoam.com                      |
|    \\/     M anipulation  |                                                 |
\*---------------------------------------------------------------------------*/
FoamFile
{
    version     2.0;
    format      ascii;
    class       volScalarField;
    location    "0.73";
    object      k;
}
// * * * * * * * * * * * * * * * * * * * * * * * * * * * * * * * * * * * * * //

dimensions      [0 2 -2 0 0 0 0];


internalField   nonuniform List<scalar> 
1431
(
0.0336539
0.482749
1.49181
0.942839
0.0420214
0.464345
0.248531
0.196737
2.30474
1.15004
0.289636
0.0718683
0.0866489
0.933509
1.35573
0.426269
1.49248
0.167789
0.311385
0.264521
0.039293
1.34048
0.730251
1.01974
0.881223
0.249635
0.868293
0.855831
0.499722
0.0831574
0.90032
0.31414
0.828815
0.15298
0.16563
0.964939
0.262612
0.313372
0.361675
0.306302
1.96011
0.244928
0.154083
0.171287
1.18466
0.0405224
0.906763
0.210923
0.42509
0.397791
0.0896683
0.8875
1.60828
0.229879
0.204284
0.203324
0.756458
1.1089
0.763443
0.0401807
1.08609
0.20869
1.06748
0.292258
0.593483
0.147516
1.38375
0.3774
0.711698
0.322712
0.122451
0.132997
0.221988
0.400261
0.217342
0.618704
0.0456629
1.37806
0.224006
1.29123
0.269435
0.100568
0.171681
1.14057
1.26635
0.0531424
0.0551317
0.245611
1.11774
0.239903
0.183593
0.461312
0.0607625
0.312492
0.141474
0.050059
0.194912
0.265039
0.0551341
0.617307
0.853389
0.223002
0.19734
0.0423528
0.418873
0.12776
0.240093
2.30349
1.22973
0.0473688
1.49856
0.140031
0.215171
0.212609
0.388334
0.0409901
0.181987
0.81629
1.233
0.93859
0.292765
1.39262
0.874507
0.910422
0.29355
0.197494
1.374
0.109284
0.0418708
0.486934
0.124067
1.99873
0.737718
0.260833
0.0624234
0.692616
0.250433
0.11519
0.085713
2.07217
1.48811
0.0629149
0.289761
0.445364
0.514602
0.37357
0.266963
2.33903
0.267836
0.361907
0.506404
0.638793
0.259438
0.100065
0.167282
0.0908608
0.283073
0.223414
0.207202
0.258403
0.150794
0.281004
0.0998337
0.206286
0.0491348
1.85981
0.0536511
0.304476
0.0849133
0.265182
0.632117
0.365307
0.860187
0.38569
0.282652
0.0327973
0.0788897
0.498394
0.0869826
0.218069
0.316461
1.03898
0.207035
0.239915
0.348329
0.387464
0.231282
0.760638
0.253292
0.299191
0.222729
1.6855
0.0469341
0.254151
2.48116
0.276589
0.234253
0.261346
0.178434
0.141411
0.0941444
0.728932
0.320363
2.03882
0.246267
1.00601
0.0553556
0.305094
0.265275
0.474179
0.264218
0.215712
1.17482
0.299664
0.405954
0.562835
0.200432
0.121573
0.415139
0.304255
0.291791
1.15867
0.430521
1.78659
0.318484
0.531748
0.53417
0.254697
0.415627
0.946246
0.050026
0.602009
0.302376
0.201019
0.196764
0.204772
0.28706
0.0466139
0.274437
0.215823
0.311142
0.28565
2.38391
1.48232
0.0900825
0.100565
0.309228
0.19104
0.187892
0.541905
0.266888
2.41068
1.15521
0.493835
1.06917
0.664173
0.0754365
0.207725
0.62208
0.64566
0.677463
0.12383
0.0511157
1.55993
0.198716
0.403798
0.574963
0.250284
0.418682
1.98323
0.239637
0.490337
0.265197
0.264073
0.693679
0.272004
0.223252
0.10473
0.118424
1.14327
2.07552
0.22428
0.309537
0.244395
0.602966
0.750989
0.0529205
0.191123
0.48058
0.292449
0.391513
0.333549
0.193257
0.112275
0.290073
0.214624
0.0443461
0.252683
0.256758
0.23802
0.32262
0.549718
0.0899286
0.229407
0.18603
0.317756
0.281581
0.653626
0.63242
0.0981231
0.30452
0.337369
0.955055
0.0739496
0.119777
0.3552
1.17519
0.217104
0.197843
0.714944
0.299236
0.546683
1.25604
0.268279
1.6134
0.822791
0.25735
0.853093
1.23996
0.29392
0.470262
0.076883
0.188293
0.175932
0.277832
2.31414
0.0884111
0.3787
0.0956542
0.0882621
0.107162
0.263594
0.95076
0.437914
0.926704
0.0336118
0.323243
0.0584995
0.0508389
0.0984691
0.0532486
0.0449042
0.0526996
0.110646
0.0657098
0.061283
0.047143
0.0379434
0.120844
0.103877
0.0647796
0.0864046
0.102936
0.0182707
0.0678182
0.055169
0.0855284
0.113119
0.592096
0.68857
0.433185
0.174838
0.638588
0.333584
0.0928135
0.895444
0.470126
0.327885
0.362147
0.124485
0.0404073
0.0518629
0.081263
0.0485672
0.11245
0.0944836
0.115797
0.0495884
0.116831
0.0327504
0.0619771
1.3388
0.457693
0.362254
0.728579
0.0861276
0.226202
0.315572
1.15898
0.279539
0.0797789
0.432281
0.307959
0.104483
0.447946
0.327005
0.191094
0.250904
0.085034
0.542095
0.617711
0.228974
0.105727
1.16198
0.476239
0.684489
0.508196
1.97364
0.1654
0.138653
0.24685
0.434399
1.31037
0.267219
0.329099
0.571789
0.379652
1.07467
1.75188
0.719796
1.79824
0.211582
0.201433
0.687946
0.225388
0.688488
0.532448
0.693949
0.258593
0.294798
0.256646
1.09633
0.55331
0.456676
0.0928681
0.809863
1.13104
0.180343
0.0785364
1.03021
0.835688
1.1363
1.04379
1.3219
0.509869
1.28233
1.08194
0.955999
1.21095
0.212995
1.28148
0.380529
0.315607
0.373376
0.19385
0.171332
0.0737621
1.59233
0.252153
0.175168
1.44132
0.122216
0.223602
0.718603
0.248266
0.158547
1.27594
1.22741
1.74208
0.160297
0.402047
0.114925
0.738398
0.207195
0.313579
0.256011
0.441587
1.23785
0.758194
0.0663282
0.0619384
0.273753
0.15024
1.40404
0.201457
0.109208
1.03816
0.262559
0.325231
0.265109
0.565509
1.34891
1.08287
0.839668
0.681839
0.103437
0.146945
1.28058
0.459769
0.937138
0.811533
0.139044
0.22793
0.491403
0.315542
0.522528
1.56725
1.19845
0.426096
0.164589
0.091576
0.192689
0.133864
0.095187
0.122989
0.626381
0.359841
0.60785
0.162388
0.45215
0.314611
0.235777
0.294537
0.1417
0.924982
0.556724
1.45228
0.458622
0.75799
0.945333
0.907109
1.32213
0.460298
0.460495
0.0420976
1.41084
0.717113
0.217291
1.10798
0.133345
0.278386
0.0427799
0.615728
0.698015
0.205106
0.407402
1.70155
0.525609
0.611959
0.193534
0.838675
0.403492
2.06258
1.60343
1.06052
0.240647
0.55768
0.201692
0.985612
0.675927
0.0626886
1.36579
1.06422
1.38564
1.34661
0.196398
0.438588
0.0866148
0.504607
0.443564
0.104346
0.223301
0.362175
0.763473
0.181277
0.462469
0.390773
0.315126
0.0948292
0.399288
0.658762
1.09018
0.359632
0.295227
0.275474
0.450715
0.0591391
0.278894
0.204581
0.0731338
0.421639
0.403278
0.132862
0.726156
1.06916
1.18933
0.293543
0.115672
1.57147
1.31295
0.962549
0.856119
0.241269
1.22915
1.15534
0.205268
1.24876
1.04337
1.49487
1.05291
0.115392
0.247923
0.162124
0.0785451
0.134774
0.306394
0.102363
0.0567082
0.715711
0.229883
1.58912
0.144731
0.0609917
0.238348
0.279367
0.86647
0.117049
0.198154
0.537831
0.149842
0.715243
1.57994
0.247102
1.02035
0.0970885
1.35784
0.678429
1.86815
0.88471
0.151408
0.106989
0.324053
0.26166
0.612726
1.94156
0.791216
0.256774
0.33216
0.3315
0.948332
0.887981
0.0682678
0.168408
0.202168
0.282719
0.0475374
0.359068
1.43096
0.989328
0.792796
0.0571902
0.264314
0.164483
0.983
0.319881
0.313636
0.521841
0.341888
0.0784507
0.488834
1.11605
0.0438573
0.188454
0.102337
0.103365
0.261349
0.300108
1.23562
0.600255
0.389474
1.18288
1.03526
0.9676
0.0607012
0.632979
0.100423
0.0170676
0.0642104
0.272535
0.202726
1.02566
0.0978937
0.188061
0.0833971
0.0531388
0.660113
0.582626
1.24375
0.362715
2.10902
0.0832313
0.0651901
0.127721
1.45624
1.46423
0.421459
0.492834
2.67446
0.208734
0.0619382
0.413648
0.299178
0.218121
1.5469
0.0910865
0.427626
1.44489
2.0557
0.478963
0.0552187
0.596347
0.0775941
0.472242
0.476326
1.51886
0.189942
0.178869
0.083801
1.14825
0.172135
1.11104
2.26153
0.316258
0.0916245
0.592667
0.404732
0.21108
0.440631
0.747754
0.0770915
1.64617
0.190722
0.487362
0.516973
0.218352
0.156364
0.350117
0.521468
0.421375
1.54832
0.578766
0.794021
0.771199
0.808209
0.30635
0.974181
0.181668
0.86933
0.614341
0.501354
0.0974218
1.49127
0.0566813
0.111649
0.249843
0.571785
0.0658723
0.972837
0.452103
0.0697316
0.136063
0.0431285
0.534024
1.33022
0.366843
2.38584
0.0641619
0.118267
0.0926907
1.76689
0.22858
0.192127
0.899458
0.604704
0.362676
0.309646
0.0521758
0.10414
1.58916
0.22979
0.537363
1.33204
0.218133
0.0918878
0.0262822
0.28807
0.927917
0.13719
1.07064
0.041053
0.280635
0.23446
1.36174
0.0614925
1.18871
0.537771
0.527582
0.518751
0.528243
0.503227
0.508799
0.509202
0.55227
0.371996
0.20279
0.38486
0.183986
1.50122
0.0899813
0.0557183
0.0612838
0.0693133
0.100932
0.076482
0.0930503
0.577038
0.297757
0.619163
0.0692628
0.334601
0.194323
0.258633
0.263406
0.505867
1.49293
0.233062
0.138848
0.362575
0.377586
0.237082
0.451284
0.456484
0.255524
0.122108
0.858617
0.168561
0.771983
1.39976
0.320633
0.344829
0.225102
0.231739
0.0927879
0.130811
0.17379
0.0374068
0.215703
0.204012
0.0461511
0.10318
0.316763
0.872064
0.148775
0.591547
0.0889849
0.247755
0.191247
0.184669
0.100458
0.248244
0.0573302
0.0759821
0.15694
0.117884
0.293123
0.0338675
0.155607
1.3415
1.3639
0.292594
0.447166
1.48497
0.436588
0.269669
0.281681
1.36609
0.0756939
0.122971
0.0859383
0.0735618
0.0898499
0.0946238
0.909035
0.671472
0.804494
0.756497
0.489731
0.137004
0.0801721
0.282154
0.185861
0.223006
2.03357
0.115818
0.994322
0.741623
0.509787
0.356948
0.183093
0.0705812
0.178156
0.219579
0.152352
0.233139
0.211541
0.712708
0.0749908
0.530311
1.50654
0.528819
1.96416
0.19008
0.262076
0.342096
0.300622
0.321984
0.361853
0.275845
0.244865
0.330395
0.0427794
0.0580758
0.250563
0.203474
0.034939
0.0967674
1.53813
0.0483604
0.115061
0.0242477
1.55673
0.0227994
0.453288
0.612231
1.94618
0.10852
0.147986
0.12946
0.638005
0.15175
1.26146
1.90851
0.182634
0.106918
0.39493
0.0249717
0.0852626
0.74382
0.02252
0.724624
1.30642
0.990092
0.383049
0.575436
1.30763
1.19382
0.239891
0.035977
0.0493367
0.0857572
0.54376
0.403911
0.419902
1.11609
0.891704
0.612731
0.0524595
1.39154
0.0209413
0.586848
0.0225542
0.252563
0.365774
0.489542
0.328068
0.126312
2.2673
0.659991
1.65523
0.0475348
0.692691
0.870045
0.455935
0.220468
0.228878
0.19837
0.554378
1.63497
0.350426
0.215483
1.52449
1.42777
0.228223
0.264134
0.78219
1.3746
0.943385
1.1607
0.153968
1.76006
0.718534
0.969356
0.208547
1.00832
0.726207
0.1435
0.312821
0.111943
0.403164
2.11638
1.43842
1.39396
0.413108
1.49835
0.166423
1.4082
1.24436
0.316443
0.121175
0.114472
0.626453
0.0403854
0.0365708
0.0997004
0.211522
0.192747
1.42245
1.83637
0.189693
1.26844
0.165797
0.461063
1.88144
0.851775
0.171222
0.176981
0.183222
0.398528
0.0519092
0.204245
0.268444
1.76224
0.349466
0.57517
0.212923
0.132407
0.363231
0.309254
0.327413
1.76923
0.15282
0.202149
0.484958
0.843723
0.244081
0.0916626
0.0343635
0.773346
0.353087
0.355093
0.0208961
0.118049
0.0918848
0.171297
0.245119
0.0225788
0.52354
0.802846
0.448581
1.79968
0.527703
0.385007
0.086714
0.206598
0.507708
0.0207536
0.154099
0.334496
0.0427223
1.16181
1.28954
0.0230073
0.36681
0.840621
0.0464535
0.375218
0.806237
0.0506875
0.0976177
0.63686
0.143105
1.71838
0.144636
0.683801
0.0991674
0.896659
0.590027
0.153609
0.457033
0.24918
0.131049
0.0996503
0.366564
0.0270233
0.976142
0.0209804
0.109555
0.593192
0.236033
0.202358
0.355924
0.211722
0.0356752
2.40888
0.140271
0.234612
0.327983
0.563066
0.112302
0.0597526
0.102462
0.157984
2.74325
1.45126
0.147653
0.207089
0.718294
0.0431217
0.999558
0.259448
1.36648
0.043147
0.101495
1.55336
0.132747
0.128659
1.9306
0.78603
0.513321
0.287285
1.296
0.0261096
0.102092
0.101542
1.64046
1.03362
0.982905
0.051444
0.102435
0.0210568
0.336462
0.309328
2.28721
0.873556
0.602796
0.36632
0.204572
0.157156
0.0901431
0.808233
0.859843
1.2757
0.192133
0.0428101
0.762587
0.633931
1.53077
1.86552
0.4326
0.0739134
0.15055
1.15286
0.544573
0.0247662
1.98195
2.08186
0.749521
1.12443
0.141045
0.300594
1.23377
0.807321
1.05332
0.0989196
2.02302
0.676626
0.345968
0.0669399
1.63713
0.351685
0.359977
0.86805
1.67243
0.254653
0.105895
0.160539
1.64106
0.281517
0.204982
1.06901
0.117592
1.6988
0.431015
0.031551
1.59539
0.196144
0.287016
0.266235
0.412094
0.344099
0.610416
1.34808
0.0436503
0.912083
0.0270451
1.51656
0.782038
0.0579358
0.213366
0.0496318
0.125366
1.43209
0.823206
0.216156
0.247096
1.28947
0.0629419
0.103517
0.745466
0.269987
0.0512114
0.227305
0.20186
0.167016
1.76945
1.42383
1.0814
0.462278
1.8397
0.13595
0.0658922
0.190332
1.46364
1.28828
0.395566
0.340813
0.626204
1.20773
0.127275
2.07106
0.608494
0.105885
0.129435
0.264921
0.315634
0.226127
0.391898
0.259107
0.566485
0.6788
0.382142
0.3595
0.229922
0.390762
0.325177
1.39445
1.70487
2.5134
1.37361
0.139499
1.476
0.744687
1.30625
0.0684064
0.0457513
0.350865
0.17853
1.48551
0.0753872
0.0657745
2.08904
0.228923
1.28535
1.78781
1.4737
1.163
1.36479
0.328311
0.316813
1.541
0.33369
0.419722
0.0314578
0.652309
0.414634
0.0375673
0.647186
1.94492
0.137673
0.115845
0.0386225
0.0217173
0.159324
1.52694
0.139252
1.29659
0.777419
0.355792
1.20721
0.183601
0.207002
0.359967
0.0412563
0.198873
0.21294
0.0908365
1.17708
0.231434
0.485402
0.0453754
0.239414
0.379261
0.0857815
0.993775
0.0239018
0.131889
0.106252
0.212572
0.0621602
0.0779474
0.1083
0.522195
0.204098
0.433432
0.117167
0.194802
0.184022
0.536087
0.280823
0.544572
0.12498
0.188946
0.243174
0.199253
1.34979
0.494337
0.256722
0.204638
0.0704648
0.394978
0.625641
0.184998
0.243528
0.0848802
0.451536
0.163003
0.946765
0.0685155
0.243401
1.5889
0.33723
0.972146
0.204189
2.21
0.234769
0.710559
1.24716
0.336531
0.350525
0.0424696
0.369869
0.249062
0.880908
0.496591
1.8475
0.0645815
0.765772
0.0669592
0.0276957
0.353193
0.0929174
0.342475
0.275925
0.913747
0.598731
0.900565
0.635275
0.586932
0.648336
0.206333
0.190624
1.08876
2.30802
1.49355
0.312665
0.297337
2.42843
1.54227
2.67543
1.40889
0.934619
0.460497
0.206348
0.750791
0.387065
0.138577
0.647995
1.49381
0.127621
0.522342
0.763072
)
;

boundaryField
{
    frontAndBack
    {
        type            empty;
    }
    wallOuter
    {
        type            kqRWallFunction;
        value           nonuniform List<scalar> 
90
(
0.426269
0.421459
0.413648
0.427626
0.478963
0.472242
0.476326
0.592667
0.404732
0.487362
0.516973
0.614341
0.501354
0.571785
0.534024
0.899458
0.537771
0.527582
0.518751
0.528243
0.503227
0.508799
0.509202
0.55227
0.505867
0.804494
0.756497
0.530311
0.528819
0.342096
0.300622
0.321984
0.361853
0.275845
0.244865
0.203474
0.0242477
0.0227994
0.453288
0.147986
0.0249717
0.0852626
0.74382
0.02252
0.035977
0.0493367
0.0209413
0.586848
0.0225542
0.659991
0.78219
0.403164
0.461063
0.57517
0.484958
0.0208961
0.0225788
0.52354
0.802846
0.385007
0.507708
0.0207536
0.0230073
0.840621
0.63686
0.683801
0.896659
0.0270233
0.976142
0.0209804
0.513321
0.0261096
0.982905
0.0210568
0.873556
0.859843
0.4326
0.544573
0.0247662
0.749521
0.431015
0.912083
0.0270451
0.462278
0.382142
0.0217173
0.993775
0.0239018
0.522195
0.394978
)
;
    }
    inlet
    {
        type            fixedValue;
        value           uniform 0.375;
    }
    outlet
    {
        type            zeroGradient;
    }
    wallInner
    {
        type            kqRWallFunction;
        value           nonuniform List<scalar> 
138
(
0.0718683
0.311385
0.828815
0.15298
0.16563
0.244928
1.38375
0.3774
0.122451
0.132997
0.618704
0.737718
0.100065
0.167282
0.0327973
0.0788897
0.178434
0.141411
0.0941444
0.728932
1.78659
0.664173
0.0754365
0.62208
0.64566
0.677463
0.574963
0.693679
0.602966
0.653626
0.63242
0.107162
0.0336118
0.0584995
0.0508389
0.0984691
0.0532486
0.0449042
0.0526996
0.110646
0.0657098
0.061283
0.047143
0.0379434
0.120844
0.103877
0.0647796
0.0864046
0.102936
0.0182707
0.0678182
0.055169
0.0855284
0.113119
0.124485
0.0404073
0.0518629
0.081263
0.0485672
0.11245
0.0944836
0.115797
0.0495884
0.116831
0.0327504
0.0619771
0.0797789
0.228974
0.684489
0.201433
1.09633
0.0928681
0.0785364
0.380529
0.718603
0.160297
0.738398
0.0663282
0.0619384
0.273753
0.201457
1.03816
1.34891
0.937138
0.811533
1.19845
0.0420976
0.0427799
0.615728
0.611959
0.0626886
0.0731338
0.0609917
0.0475374
0.0438573
0.0170676
0.0642104
0.0552187
0.0775941
0.316258
0.578766
0.181668
0.249843
0.0431285
0.604704
0.0262822
0.0612838
0.619163
0.0692628
0.122108
0.282154
0.712708
0.0427794
0.0580758
0.0967674
0.575436
0.612731
0.0524595
0.692691
0.870045
0.0519092
0.0343635
0.773346
0.0464535
0.211722
0.140271
0.718294
0.0431217
0.157156
0.0901431
0.031551
0.297337
0.750791
0.387065
0.138577
1.49381
0.127621
0.763072
)
;
    }
    procBoundary0to1
    {
        type            processor;
        value           nonuniform List<scalar> 
29
(
0.226216
0.302594
0.281055
0.281055
1.6212
1.6212
2.01887
0.311745
1.27546
0.395296
0.354233
1.11229
0.182162
0.191103
1.32042
0.617172
2.2957
2.13862
0.380737
0.321516
0.330643
0.223916
1.43713
0.293693
0.292352
2.13862
0.258543
0.826143
0.293693
)
;
    }
    procBoundary0to2
    {
        type            processor;
        value           nonuniform List<scalar> 
42
(
1.15957
1.30355
0.0482559
0.0456247
0.363792
1.15957
0.0482559
0.0511256
0.203571
0.0806264
0.596742
0.821939
0.596742
0.915368
1.05507
0.896569
1.05507
0.0733942
0.113719
0.264346
0.264346
0.0733942
0.0652051
0.218841
0.218841
0.0704509
0.323461
0.0633528
0.660235
1.33759
1.33759
0.0593089
0.0577179
0.0581355
0.0610222
0.0482559
1.25947
0.0254763
0.660235
0.0511256
0.0566511
0.0607365
)
;
    }
}


// ************************************************************************* //
