/*--------------------------------*- C++ -*----------------------------------*\
| =========                 |                                                 |
| \\      /  F ield         | OpenFOAM: The Open Source CFD Toolbox           |
|  \\    /   O peration     | Version:  v1912                                 |
|   \\  /    A nd           | Website:  www.openfoam.com                      |
|    \\/     M anipulation  |                                                 |
\*---------------------------------------------------------------------------*/
FoamFile
{
    version     2.0;
    format      ascii;
    class       volScalarField;
    location    "0.19";
    object      epsilon;
}
// * * * * * * * * * * * * * * * * * * * * * * * * * * * * * * * * * * * * * //

dimensions      [0 2 -3 0 0 0 0];


internalField   nonuniform List<scalar> 
1466
(
49.4714
59.544
0.41371
10.4063
0.329816
1.97477
7.1934
1.17903
9.66252
2.63379
51.3629
1.45038
5.92094
0.292042
5.38465
43.7204
4.09708
25.1192
12.7007
22.2457
25.8157
24.0046
11.423
13.9262
7.5741
1.63414
19.7755
32.036
0.632575
71.0052
39.2323
9.78828
0.956023
6.60192
123.659
0.642063
8.34522
1.58751
69.1776
0.669891
2.26068
9.4716
12.6068
3.67446
1.33798
11.6329
103.327
0.305034
0.445175
0.648656
0.905501
79.3577
0.553349
0.314996
0.603859
7.03487
29.1149
60.177
8.2424
5.27783
1.66637
8.02736
1.5086
34.3403
63.1823
0.506756
42.1811
5.9985
36.9636
0.489119
3.85441
19.3073
7.18444
7.23129
1.96671
78.4726
8.72396
2.22266
22.8729
73.8249
28.7987
43.3355
0.418755
17.4941
13.3211
39.5234
5.82195
74.5688
49.0232
26.7165
1.80412
9.48541
1.31185
33.4253
0.999717
0.452991
49.7998
86.1745
8.90034
0.496421
0.8427
0.893604
0.352833
0.486106
10.5675
0.70758
0.466185
0.303961
49.1878
35.8328
1.50473
97.4233
43.2406
11.1112
1.16347
5.52359
8.61286
2.67688
6.27066
0.715967
60.8953
22.3981
11.1694
4.8699
1.73978
1.70371
49.37
23.3202
7.33194
30.2863
21.4886
7.04891
11.4849
11.9898
6.58381
1.77735
0.879492
3.90922
3.53151
0.729747
0.60522
28.0332
11.5911
14.8529
20.6363
39.2494
10.8812
26.2123
56.6601
86.1329
2.51518
46.1563
43.7686
0.703017
38.9414
23.4919
36.8588
5.15692
14.7006
48.002
11.2641
66.2378
41.4338
24.5388
9.69376
14.8
8.37909
21.7235
25.0463
55.8023
23.781
8.49907
0.63417
39.2475
11.3708
7.91641
63.0598
78.9362
1.56981
4.56657
9.02865
26.0936
31.5513
2.32775
77.0956
39.4763
15.5047
9.32392
38.0231
28.3056
26.1519
2.22613
0.738211
43.7595
44.463
2.17547
0.589983
220.398
7.18004
42.9618
0.673827
42.3402
63.3213
13.7905
3.09152
6.34224
31.8174
45.6012
15.5658
18.9178
12.2776
9.6407
59.8587
26.7882
27.1584
19.2619
38.0738
17.5666
10.868
7.90709
19.8756
8.68353
21.6348
2.05315
24.3408
12.047
0.7998
3.87883
1.92585
9.24762
2.80081
81.9942
48.6588
45.5483
6.55447
5.6318
9.77837
18.4125
22.2045
23.9367
35.0877
72.2778
59.6556
44.5395
15.9187
60.5072
7.19656
7.26268
75.5139
54.92
33.6422
66.4339
42.064
14.1723
8.93872
21.3591
35.5005
14.4586
24.6362
36.8188
21.4841
11.429
10.9219
13.1914
61.8609
0.82679
33.325
43.4865
26.0257
16.0004
40.0978
29.2297
10.9878
15.8024
3.44757
1.91034
3.11123
53.2238
23.6944
67.6775
18.2621
9.73652
65.2903
66.6449
8.83087
2.31001
65.1868
58.8629
16.6151
31.502
27.3873
60.5451
7.53565
21.2175
46.5772
8.41158
43.6406
1.333
69.5968
11.338
0.264957
3.44306
0.339008
8.66352
5.28222
44.0271
30.0314
7.06945
58.4686
134.038
40.6369
44.5796
6.75838
43.9061
62.272
62.5924
38.6701
53.0716
8.87473
14.7786
5.94692
35.2824
40.5347
12.2982
8.12715
26.0044
1.22122
55.8551
11.5104
13.3384
21.1221
28.6537
0.773245
40.5536
78.3266
15.9606
92.2339
24.0535
31.717
20.1575
21.0381
48.6518
6.04627
126.859
56.6931
0.369432
64.4077
69.7359
41.364
84.3241
33.4737
13.7436
126.776
84.9931
14.1565
72.8582
1.04137
16.9854
9.9768
66.015
27.7428
65.4169
57.8259
24.4816
12.6009
45.417
40.627
37.0333
25.8544
43.6606
51.4654
57.2169
219.861
40.7574
1.72612
10.0933
1.54151
219.632
27.0801
55.4168
57.3399
67.1762
77.393
87.4171
65.5335
75.1385
4.84937
3.18249
3.91176
4.60176
91.5027
32.2267
26.6144
36.8158
25.4235
35.3097
5.70684
209.287
25.3078
32.5324
8.30996
2.80726
92.0491
0.721141
66.1518
47.7938
112.677
21.4697
42.2207
60.1735
25.0538
122.229
161.337
56.1246
103.169
0.645109
0.632975
64.4186
28.4976
21.1277
59.018
50.6317
19.1189
166.427
16.3264
1.37937
52.9451
212.359
11.3159
0.766668
7.13743
31.5239
23.6914
289.169
39.4732
25.3187
10.945
12.8706
0.285695
3.12409
12.5077
138.437
2.9406
16.4046
31.0743
28.3465
25.9759
32.2372
27.1774
1.50314
23.4475
28.4244
190.608
11.1881
55.1195
152.005
0.467425
0.576733
171.045
25.3027
2.16395
114.38
0.446706
0.75901
1.27448
29.4304
59.7385
140.542
101.49
66.4195
150.28
0.504782
0.920218
3.14088
21.2683
25.762
44.7986
16.467
20.7843
9.43045
43.4571
1.74541
4.30969
20.9737
13.4693
39.0933
27.3475
47.3948
50.383
61.1118
12.7749
36.2125
3.17609
48.3394
12.363
27.5167
13.0539
47.6438
59.4304
41.0633
71.0766
75.5039
0.67154
1.753
9.94144
32.2281
113.79
18.5627
26.5128
19.3712
36.1717
14.429
16.8336
186.63
13.2249
34.3184
76.177
10.0784
20.6626
2.92706
43.0883
64.7937
34.3704
46.0734
15.4893
65.569
73.9363
40.2237
59.9225
21.5754
12.6784
258.442
47.725
32.0865
26.2897
80.6659
38.307
132.026
65.5577
3.39512
35.3975
2.19176
13.7944
18.7478
51.1026
37.257
42.9992
29.8874
58.8764
14.6815
26.0288
27.6491
46.2473
34.4366
223.234
15.5246
18.6811
33.2634
61.0511
25.1447
22.4076
17.5488
22.0037
65.6242
16.109
18.7742
38.8608
36.0211
140.47
9.62541
7.00182
40.1658
25.9827
66.2322
8.76536
148.398
13.5746
12.1369
21.6615
28.7437
10.1729
8.31427
14.9741
22.2876
44.2895
11.1837
111.266
10.5955
24.4193
24.0013
5.46683
34.7658
7.32893
18.7203
32.7474
16.1808
11.7209
87.0788
7.91432
65.2905
69.8544
19.5825
17.5992
39.9202
52.8313
12.4684
37.4731
1.03896
0.659421
98.9809
10.1569
1.76039
33.5698
39.1681
1.99
52.6041
70.2828
44.6806
30.4777
152.223
41.3457
2.63375
36.5102
23.9904
39.5117
26.7843
2.652
8.7864
8.95739
9.21011
8.91296
35.3282
32.8845
19.0214
16.6713
16.3541
122.903
71.2016
54.6214
5.18535
62.0079
103.657
110.542
3.88383
77.3643
19.0658
8.69904
42.6534
99.1996
43.4658
26.6065
11.6937
52.5488
1.39121
22.0292
106.476
29.2031
3.21354
16.52
6.65658
34.8439
91.72
18.5893
20.624
11.9811
27.6619
6.44326
39.5001
3.23234
28.1781
8.93313
24.117
12.3441
3.52599
0.667462
0.278683
7.63401
1.33112
22.6414
27.6425
2.42751
1.76929
2.23773
9.34689
22.8165
72.3164
34.3679
6.83018
7.68545
7.14155
26.4208
25.3879
23.6625
91.2169
27.7724
6.93365
74.1876
19.1378
35.7238
17.9887
73.9395
31.5356
6.78843
10.6954
90.7574
46.5701
33.9179
27.2945
7.00667
64.7611
11.333
46.4432
76.1649
165.328
64.5524
3.94906
53.072
50.9884
8.24024
67.9622
67.5515
40.864
23.2533
8.9866
3.4205
10.0868
5.84315
62.8388
32.7237
0.449246
12.4344
0.991672
16.1262
0.444571
5.79379
8.639
13.22
74.2091
0.615449
56.1907
8.28362
26.6602
37.2792
0.610864
0.78015
11.5925
38.4802
2.12153
13.8659
54.9179
4.26572
23.8115
1.80568
12.8508
2.9235
10.682
40.7757
3.09211
16.2135
36.1037
11.3706
15.6114
3.6209
54.3286
41.5279
65.7771
37.6568
166.548
2.19087
33.0064
37.5957
12.0631
6.90293
20.0905
29.8645
24.2952
55.8178
14.775
61.9126
164.837
46.6778
38.7757
29.4176
11.0462
12.874
0.377641
16.769
10.8873
51.3352
50.3702
52.5777
10.8393
21.7101
20.2848
46.3534
19.787
71.5802
62.7954
0.635426
50.0544
33.3143
24.2351
7.8721
1.73024
41.6039
0.994989
1.0775
14.9485
20.2064
4.40056
14.5549
57.7976
22.5484
6.25552
3.20764
0.833062
79.8245
36.7861
4.16423
77.4428
144.292
45.504
24.9029
75.7236
3.60515
23.3099
23.8796
15.2339
20.9409
21.7012
75.0476
81.0114
13.4326
46.7243
18.4069
31.1273
10.7891
9.10074
19.0366
22.3098
15.7083
109.385
24.9845
33.5924
26.4987
137.666
39.4363
6.49382
62.0126
10.7179
29.7564
62.6326
25.4543
25.7618
29.6368
37.4117
68.8078
14.1205
66.5618
185.422
48.1271
7.27767
10.5534
39.1359
1.59438
13.4523
58.0347
1.86167
44.7633
21.9364
29.6249
2.14876
9.05299
15.5599
21.049
54.32
31.5014
11.0287
13.4067
9.32262
12.4874
15.4827
12.6693
13.7586
29.2883
17.3969
17.0066
30.1193
29.4761
29.2882
31.8953
17.9213
16.492
31.5948
31.9665
15.2124
12.8737
6.16563
9.35589
28.5308
26.3135
23.5233
7.88817
95.5284
6.25179
0.590552
10.7044
8.35126
2.61241
32.0617
0.268579
1.96103
109.49
20.7542
16.3141
6.76129
37.7407
15.5945
0.989581
41.1196
7.80209
32.1574
96.6582
36.9986
73.4181
47.0092
29.4789
21.2144
12.5642
5.04073
8.97434
7.55841
8.15726
32.7711
48.8202
7.68677
7.60435
0.56834
0.96403
14.403
1.02462
14.9416
9.15666
8.70094
9.53364
1.22992
40.8764
22.9454
42.7692
19.9128
4.84718
56.1684
76.1054
70.5103
0.629583
7.74658
1.51245
15.0667
51.9991
98.3464
56.6702
8.3585
19.3843
40.841
8.63325
71.821
1.60029
7.02864
51.1023
13.4441
0.587185
19.1298
31.7071
20.1889
21.4784
42.496
6.91485
3.11866
0.659545
7.77187
58.3058
8.73371
76.3239
11.9596
20.9575
20.1327
120.381
30.4663
46.0783
8.89644
2.64322
0.443408
0.770641
93.715
47.5558
51.4995
76.5959
23.5362
0.481502
3.86218
41.655
7.77749
8.79868
14.4326
4.22999
10.6025
0.914647
0.530953
0.454184
8.12686
16.0481
3.85409
15.563
1.00988
67.1571
17.1211
29.2831
31.0511
103.874
93.6373
27.6863
7.66631
51.2607
141.477
6.92724
21.6051
4.58542
11.8503
16.2463
4.08595
17.2836
29.2193
10.7555
8.68703
7.34191
12.8552
39.815
1.60229
8.47974
7.82271
8.67277
44.0074
7.87422
3.9446
43.8377
1.24466
2.48918
1.40855
0.525945
63.4451
22.4365
20.8322
5.31673
5.52894
42.9074
42.7146
38.7107
9.8702
18.6914
14.0753
10.2061
8.34809
36.7004
45.5749
1.62139
28.5142
4.43477
27.5969
18.7055
0.179578
7.77287
39.9072
2.12996
12.3245
5.41351
25.7157
8.02705
4.55423
6.50836
25.2097
59.7281
8.52072
17.0707
2.88683
3.95
2.29787
3.72308
44.4717
48.2885
7.83441
7.88857
8.15341
7.50064
69.0591
9.83805
6.78085
36.4295
25.3135
27.3958
74.0689
27.5402
22.3252
5.50219
33.6201
17.0549
2.2495
0.397976
27.7229
71.3198
67.9125
34.1474
7.19972
43.6248
76.7589
57.1352
3.90328
120.46
96.5876
30.0123
20.0529
12.9316
2.19088
131.873
6.73558
20.9386
7.72118
1.884
14.9897
65.7681
47.0992
64.6391
72.5446
3.09996
49.8386
31.2726
31.7283
41.858
32.8697
5.90505
48.5324
39.0505
1.02245
0.320769
0.494505
10.4234
56.7965
25.3478
74.0898
35.2764
65.4438
18.1908
51.5368
60.2822
8.96686
8.74745
0.38305
11.0069
80.6715
54.5329
34.8938
22.5663
22.3804
21.7216
6.4396
22.9971
21.528
50.566
32.8242
65.2914
2.72951
16.6533
26.5335
28.7232
11.594
30.5885
24.121
68.7751
7.61126
36.1138
44.6195
21.4038
38.1589
10.3578
25.1933
40.4307
37.9479
12.3328
39.288
59.7209
8.92709
17.2549
17.991
33.1819
6.05954
26.1242
14.8397
61.1819
21.1389
12.9182
1.61528
73.2216
9.21942
13.1998
52.2939
52.8726
30.2615
33.7727
7.00234
8.9004
19.0664
123.149
1.71908
49.0132
15.7884
6.29706
6.79786
1.19718
68.5849
2.00276
9.02162
105.177
0.391945
87.3226
7.65206
8.73047
12.7243
0.634616
1.4245
1.66673
30.796
7.88498
74.494
27.2458
23.0289
23.1611
86.0354
38.0193
4.91759
0.302146
1.59078
16.0344
37.8397
10.1112
188.517
9.4995
8.92617
0.462793
0.937138
131.584
9.22402
7.72753
6.28413
4.10807
8.46827
34.3445
41.5928
39.8962
1.14953
6.36708
13.2538
7.41351
16.8127
30.1065
5.22599
47.0579
37.3052
16.0104
1.30277
181.898
1.15268
7.48815
41.1133
72.0273
7.88878
54.7869
57.0641
70.5134
65.1321
19.6055
48.1123
5.41125
7.03167
26.3056
46.369
1.08931
38.9318
0.549823
40.1602
37.5347
15.9462
109.238
7.31477
154.837
118.047
21.7341
29.8349
17.749
12.5658
67.6318
12.271
13.702
35.786
7.36538
31.5501
50.5133
7.00531
6.3951
47.7812
25.3854
2.23262
28.6954
52.3471
11.4371
3.80069
23.9383
23.9268
74.6041
10.3716
1.04815
11.1755
15.309
76.0538
84.4879
56.0102
0.345696
88.8285
3.01231
7.20255
0.495368
0.486348
1.62292
23.9698
1.36017
83.7574
35.4667
32.313
0.380494
0.631637
60.9805
11.5109
6.21446
37.8674
8.79014
32.8834
42.8796
149.094
63.7485
49.1731
7.91998
21.1408
1.74509
18.9288
36.2777
29.77
0.569804
72.5745
104.008
8.09892
67.2049
58.1136
97.9466
22.5809
66.583
1.72591
64.4127
56.7828
8.28807
0.966308
0.519492
1.63577
9.72656
26.432
78.2926
7.14947
55.5662
6.58997
35.3461
36.4329
7.39231
48.0907
54.2931
11.5616
56.0057
42.5757
0.562495
28.121
26.9383
5.25089
11.271
3.19316
33.2289
12.7086
26.564
25.2776
25.855
94.3268
27.0861
72.896
24.4793
4.78945
0.269361
0.839846
9.7993
21.0405
48.9222
14.0332
9.15908
12.3709
24.6837
28.0651
3.57194
62.448
41.8911
27.2485
0.42547
38.4357
10.1402
15.4625
11.4644
70.6529
54.8059
209.928
44.382
18.5098
3.89623
10.8006
75.8426
20.4612
16.8818
6.27187
251.31
34.3192
54.8729
8.13558
8.60353
21.7435
24.0007
19.6606
35.9887
130.03
0.874247
4.90441
34.047
1.10014
2.76894
13.2495
8.98427
221.977
110.073
1.96481
9.28412
141.097
10.844
8.18294
7.52406
2.60019
22.4956
0.847806
0.651705
0.788543
0.814056
143.419
0.561905
122.992
17.8502
28.6261
)
;

boundaryField
{
    frontAndBack
    {
        type            empty;
    }
    wallOuter
    {
        lowReCorrection 0;
        type            epsilonWallFunction;
        value           nonuniform List<scalar> 
108
(
25.1192
19.3073
7.18444
0.339008
0.369432
22.8165
34.3679
6.83018
7.14155
27.7724
6.93365
35.7238
31.5356
6.78843
7.00667
0.449246
13.22
38.4802
2.12153
14.775
1.0775
14.5549
9.10074
39.4363
11.0287
13.4067
9.32262
12.4874
15.4827
12.6693
13.7586
29.2883
17.3969
17.0066
30.1193
29.4761
29.2882
31.8953
17.9213
16.492
31.5948
31.9665
15.2124
12.8737
6.16563
9.35589
28.5308
26.3135
23.5233
7.88817
0.590552
37.7407
21.2144
7.55841
22.9454
19.3843
40.841
20.1327
4.22999
1.00988
27.6863
21.6051
4.58542
44.0074
43.8377
1.40855
42.9074
36.7004
45.5749
4.43477
0.179578
0.179578
2.12996
5.41351
4.55423
6.50836
17.0707
2.88683
3.95
2.29787
3.72308
44.4717
48.2885
7.83441
7.88857
8.15341
7.50064
69.0591
22.3252
5.50219
7.19972
3.90328
6.73558
20.9386
51.5368
60.2822
21.7216
6.4396
68.5849
7.88878
29.8349
67.6318
1.04815
3.01231
1.36017
0.519492
1.63577
6.58997
)
;
    }
    inlet
    {
        type            fixedValue;
        value           nonuniform 0();
    }
    outlet
    {
        type            zeroGradient;
    }
    wallInner
    {
        lowReCorrection 0;
        type            epsilonWallFunction;
        value           nonuniform List<scalar> 
126
(
1.58751
69.1776
0.669891
2.26068
9.4716
12.6068
3.67446
1.33798
11.6329
103.327
0.305034
0.445175
0.648656
0.905501
79.3577
0.553349
0.314996
0.603859
7.03487
29.1149
60.177
8.2424
5.27783
22.8729
0.452991
49.7998
86.1745
8.90034
0.496421
0.8427
0.893604
0.352833
0.486106
10.5675
0.70758
0.466185
0.303961
49.1878
35.8328
11.1112
1.16347
4.8699
1.73978
21.4886
7.04891
1.77735
0.879492
3.90922
0.60522
41.4338
11.3708
0.589983
24.6362
36.8188
21.4841
0.82679
33.325
40.0978
29.2297
10.9878
60.5451
21.2175
8.41158
43.6406
5.94692
35.2824
40.5347
16.9854
25.8544
219.861
219.632
209.287
32.5324
212.359
23.6914
289.169
25.3187
12.8706
138.437
190.608
152.005
171.045
186.63
258.442
223.234
2.652
3.21354
3.4205
13.4523
1.86167
7.66631
42.8796
1.74509
251.31
54.8729
8.13558
8.60353
21.7435
24.0007
35.9887
130.03
0.874247
4.90441
34.047
1.10014
2.76894
13.2495
8.98427
221.977
110.073
1.96481
9.28412
141.097
10.844
8.18294
7.52406
2.60019
22.4956
0.847806
0.651705
0.788543
0.814056
143.419
0.561905
122.992
17.8502
)
;
    }
    procBoundary1to0
    {
        type            processor;
        value           nonuniform List<scalar> 
29
(
0.752719
0.752719
2.66838
8.35694
60.6851
7.07495
126.598
9.71172
107.32
9.24444
9.46879
7.07495
2.66838
0.899508
63.8303
21.0862
60.6851
60.6987
8.35694
0.868934
10.5584
6.09827
70.8099
11.2064
11.2064
70.8099
7.57334
82.0186
7.57334
)
;
    }
    procBoundary1to2
    {
        type            processor;
        value           uniform 0.827632;
    }
    procBoundary1to3
    {
        type            processor;
        value           nonuniform List<scalar> 
48
(
8.40929
4.74164
5.61412
5.61412
5.24303
2.68065
2.68065
43.2054
14.7023
0.776336
0.708597
0.776336
0.558309
3.22689
2.02153
0.558309
0.275038
0.275038
0.386564
0.386564
11.7733
18.4622
1.00411
0.740681
0.740681
2.88749
33.056
33.056
41.9608
8.71896
7.04081
41.9608
43.2054
19.3293
1.36561
8.71896
27.3136
0.708597
10.9352
5.43453
5.49336
22.6894
19.3293
1.36561
1.15835
4.30533
4.62251
5.49336
)
;
    }
}


// ************************************************************************* //
