/*--------------------------------*- C++ -*----------------------------------*\
| =========                 |                                                 |
| \\      /  F ield         | OpenFOAM: The Open Source CFD Toolbox           |
|  \\    /   O peration     | Version:  v1912                                 |
|   \\  /    A nd           | Website:  www.openfoam.com                      |
|    \\/     M anipulation  |                                                 |
\*---------------------------------------------------------------------------*/
FoamFile
{
    version     2.0;
    format      ascii;
    class       volScalarField;
    location    "0.68";
    object      k;
}
// * * * * * * * * * * * * * * * * * * * * * * * * * * * * * * * * * * * * * //

dimensions      [0 2 -2 0 0 0 0];


internalField   nonuniform List<scalar> 
1431
(
1.95468
1.72028
0.174148
0.19097
0.425524
2.02155
0.176787
6.38672
2.05831
0.119897
2.64932
6.42636
3.15829
0.596254
0.754082
0.133575
0.858725
0.396225
0.832463
0.618889
4.35269
1.03626
1.81532
7.75383
1.89248
2.01002
2.05631
0.5881
0.75471
0.484386
0.655855
0.951543
0.601023
0.32963
2.49938
0.0866573
3.42086
0.0627959
0.0485438
0.786656
2.19121
2.49818
2.76519
0.0888958
1.59351
0.527663
1.23716
1.84193
0.205435
0.114612
1.55842
0.0749259
1.94111
7.01344
1.43912
0.85876
0.319439
7.19663
1.04219
0.375886
0.638254
0.0779191
0.077682
0.0564095
0.0455745
0.0937641
0.27544
0.116653
0.313881
0.617514
3.9028
0.377512
0.149288
0.25655
0.55318
0.459968
0.190882
0.0473967
0.0900958
0.234222
0.872006
0.20634
4.36564
1.40662
3.41098
0.304083
0.39805
0.996253
4.54779
5.32959
0.749531
0.451685
0.0756528
0.110079
1.50209
0.480867
6.73293
4.47379
0.0895951
0.297768
1.46739
0.0818124
1.06443
0.316713
0.0473526
0.946887
1.14129
2.36244
1.44079
1.04605
0.354312
3.45624
1.09599
2.02978
1.82732
0.43848
0.486511
0.166421
0.171634
0.0585185
0.751439
0.899603
2.91443
0.560799
2.86224
0.0690864
0.146947
0.740961
0.230165
0.676461
0.769192
0.445088
0.609448
0.731484
0.77117
0.206711
0.0691116
0.128686
4.97226
0.0519123
0.0384202
0.588146
0.938852
0.24772
1.91912
0.583122
0.130579
1.72223
0.108439
0.456112
0.158126
0.39296
0.85204
0.178106
1.11823
0.0835928
4.14079
2.60574
5.09766
0.481023
5.78388
3.59391
0.202276
0.439327
2.90257
1.90685
1.91745
1.88158
0.104907
3.40469
5.88242
2.02712
0.695152
5.11121
2.18924
3.97367
0.559292
1.79689
1.91536
2.45865
0.101362
0.0583291
0.895127
10.9296
1.82435
1.10041
1.62618
2.75572
0.752136
3.83271
0.676041
0.786941
0.806054
2.88939
0.175486
3.11857
4.28466
2.10227
0.299525
0.843228
1.23894
0.264791
2.33956
0.489791
3.08585
0.720276
0.913491
0.213342
5.8916
0.705987
1.88408
0.127072
1.09001
0.965509
5.02778
0.530352
0.881676
2.14063
0.859087
2.18423
1.10914
0.937862
1.60076
0.35798
1.18512
7.26009
2.65444
3.93712
1.07536
1.44247
4.84176
0.639726
0.963314
0.774007
0.993284
6.00518
1.03305
1.00043
0.64879
0.786589
0.493082
1.75167
6.4763
0.856547
0.783072
1.45776
0.941933
2.26862
1.16504
0.0916274
0.633049
4.7433
0.462996
0.157182
0.699524
2.26505
0.433432
8.28317
5.56096
0.844446
0.812689
4.90871
0.826108
0.523101
1.28614
2.74227
2.83147
3.98731
1.78694
0.280641
1.54652
0.977909
1.36265
0.496998
5.48125
0.668269
5.21687
1.4911
0.675368
0.914606
2.38361
3.56137
0.57905
0.946063
0.864746
4.98299
2.30738
5.04126
3.34167
1.63601
0.217788
2.5615
3.83085
2.04482
1.07531
1.07156
2.02724
1.25778
0.654001
0.746315
1.96836
0.0390661
1.04692
2.32604
1.43793
0.393339
2.08614
0.808898
2.68671
2.84686
3.54382
0.0590398
0.0915815
1.38861
2.27195
4.00976
2.13867
1.11674
0.338001
12.1838
1.98447
3.58838
0.165174
1.52714
2.1234
0.253241
0.187774
2.20318
7.44854
0.175373
0.959971
0.488194
2.24475
1.25847
0.491162
2.46759
2.12794
5.82274
2.09722
1.26261
0.0405094
2.59454
3.1785
2.07487
2.0913
0.83855
1.34898
5.12177
3.10762
2.19804
1.81555
0.485494
1.58826
2.28494
0.536063
0.435241
3.74709
1.66441
4.338
2.25112
1.13786
0.985828
0.84177
0.771763
0.385954
2.63277
2.03807
12.0238
1.10242
0.643019
2.47684
0.568659
4.98693
1.48995
2.05419
9.52542
2.40114
0.358822
2.27411
10.7036
3.84396
2.00455
0.309538
0.575591
13.5655
2.11691
2.17331
2.04298
1.97882
1.5952
0.510849
2.30714
2.32493
0.345776
5.87344
1.77707
3.42601
3.44698
2.00377
2.23749
2.57187
2.00454
4.83126
2.21856
0.363837
3.19383
1.96232
0.151755
0.69789
3.1434
2.80335
2.19192
3.07504
3.26989
2.00421
0.260903
2.14741
0.107238
2.19216
2.99803
1.37934
3.33205
0.983061
2.20534
2.9198
0.579911
0.535988
1.2993
0.838392
6.57131
3.85193
3.85559
3.89831
3.93799
3.92934
3.90699
3.92599
3.86598
3.9781
3.90695
0.556799
4.80672
0.510528
0.451919
0.304098
0.31038
0.228758
0.29064
1.3671
0.962297
0.962015
0.150534
0.191741
0.261834
0.196285
0.182132
1.18876
7.45832
0.274797
0.361366
1.03849
0.127406
7.09433
0.161023
0.422542
0.15974
0.274388
6.82356
0.170441
6.50888
0.110968
0.0945152
0.275878
1.56212
4.97009
4.64369
0.208625
0.0854359
0.205862
0.0919498
1.53232
0.196816
5.02466
0.0733303
0.179287
1.52775
0.354738
0.168715
0.23665
0.070343
5.20237
0.0779187
0.245669
0.137458
1.4824
0.428273
0.418278
5.14811
0.071212
0.855461
2.48676
0.944671
0.459055
1.15299
4.93702
4.71874
0.552267
0.095336
0.115099
0.590215
0.303198
1.5987
0.326381
0.536783
1.23433
0.206132
2.50202
0.387097
1.70685
4.77609
1.60774
0.261101
0.988058
0.293532
1.07924
0.393567
4.60538
0.770854
0.544368
0.18904
1.49573
1.12967
1.95622
2.49883
3.66413
1.1071
0.434751
1.88428
0.979601
0.650736
3.27397
1.2588
2.10866
0.626574
1.38085
0.599522
1.18289
1.68302
3.37808
3.53351
2.07333
1.11868
1.9648
2.69683
0.150025
1.88209
0.426815
2.46466
1.7341
5.47287
3.60363
4.41169
4.05792
1.6219
8.42723
1.11129
0.449894
0.401676
3.10567
2.20626
2.79006
3.19255
3.99987
0.252892
0.446862
1.9944
0.307573
1.75479
3.82101
3.77136
2.89571
2.5519
1.69217
2.26305
2.39223
1.0108
0.783791
0.917762
0.607975
0.832645
3.51915
1.8213
1.54436
1.40077
1.25676
3.62681
1.34518
2.1832
3.36459
5.44912
1.82627
1.78218
2.88809
0.899322
2.34273
1.8991
1.62945
2.74853
0.23129
0.453385
0.353578
1.27678
2.32638
3.83897
1.97399
2.16623
3.38517
0.488917
2.66229
2.40851
2.30374
1.66405
0.37249
2.52864
1.72907
1.86822
3.54413
0.560683
2.74014
0.685787
2.31235
1.52807
0.058808
3.99809
2.70627
2.25387
6.08872
0.588431
1.76791
1.10868
1.94924
4.50986
0.423911
2.84495
1.59343
1.68176
2.10715
2.03462
3.47424
1.97208
3.05883
2.87589
1.54514
2.45244
0.578044
1.94474
1.96829
2.04565
1.7825
5.41633
5.98964
3.39893
2.46724
2.09661
2.5172
1.59499
0.748017
1.48914
1.77552
0.474009
2.82469
2.33548
2.29557
3.93181
2.93051
1.09509
2.34782
1.32766
1.65309
0.750689
1.0712
0.428356
1.96428
2.31231
0.0828316
0.249178
3.55744
1.70507
0.592423
0.907441
2.78611
1.13173
2.04482
0.729403
0.49568
3.82489
2.05971
1.65431
0.414883
3.69081
1.54127
2.18572
3.01668
0.601409
1.45002
2.45601
1.39277
1.79408
1.44059
2.43652
2.04673
0.253936
1.16103
1.21252
0.593544
2.07978
3.15651
1.45547
0.352073
1.86389
2.17993
0.737503
4.62931
2.70116
0.0796152
2.1057
1.88794
3.00492
2.37177
3.29214
0.0966491
3.87824
2.70634
0.421033
3.34413
1.13456
2.01117
2.34692
2.33824
0.449833
0.510177
2.05936
0.512866
1.6882
3.67891
1.8216
1.42518
0.302153
1.90651
0.126021
0.958507
0.872918
1.18868
0.120664
8.96779
1.83956
1.98099
0.364402
1.95038
0.105821
9.47681
3.10778
1.21144
0.183033
0.239339
1.1816
0.126152
0.163497
2.92354
0.551156
2.7117
0.954683
1.72863
1.97717
1.97688
1.53196
0.331542
1.06012
2.89519
0.567609
2.11537
0.0546949
2.57974
0.187836
1.10232
4.45945
1.76129
1.95793
0.72642
1.76653
2.31178
0.53187
0.926891
3.1619
0.864993
0.363021
0.405551
0.999009
0.363202
2.9363
0.819195
1.33254
0.31773
3.67413
3.7714
10.7135
0.877264
2.13074
1.04342
1.77277
11.2511
0.544634
1.15448
4.62184
2.73009
7.93165
3.44685
0.570933
3.72554
1.89056
0.334933
2.65437
2.21399
3.76951
1.31119
0.521919
2.19745
0.584469
0.545329
0.0649923
3.75133
2.59024
2.3874
0.756549
1.70643
7.01907
1.3746
3.87599
3.14474
0.565829
2.83401
0.109794
0.0791478
0.938583
2.49868
6.01019
0.0584722
8.71048
1.12819
5.32323
1.16414
0.608261
1.69163
0.731691
0.264686
0.094536
0.777427
1.97902
0.229064
0.0694506
0.545426
1.96762
1.98279
1.24479
3.71078
2.65977
3.72419
0.0879861
4.95956
2.6973
3.92807
9.42982
2.8853
1.26993
1.32873
0.332676
0.219975
1.3919
2.4362
1.72893
6.28292
0.320575
1.794
2.49425
9.38327
7.53989
5.8899
0.859979
0.64409
0.663314
0.661137
0.660619
0.99124
0.618563
0.482937
0.49912
0.488338
0.498203
0.691717
1.09634
0.506399
0.54102
0.582999
0.502652
0.594589
0.572595
0.495579
0.553618
0.551024
0.488517
0.548709
3.60136
4.52478
0.119916
1.91444
1.8218
0.962543
0.744269
4.59085
1.06066
0.669934
0.768352
0.512972
0.160947
8.16656
1.44206
0.335153
4.9832
1.70504
3.84083
1.12041
0.441549
8.59756
0.379277
0.537073
2.39449
1.82779
0.169711
0.262619
4.10582
0.753965
1.31468
3.46806
1.95138
1.54831
2.29674
4.08198
0.202237
0.0704661
0.567229
0.2842
2.4899
0.793312
0.479212
2.31449
1.93457
0.316973
1.25588
0.289956
0.363798
0.351842
4.32884
3.4911
2.14677
1.22925
0.283035
1.48797
0.444126
0.513665
0.594173
0.242679
2.10141
0.930089
2.40275
0.28273
1.1652
0.350274
3.3021
0.172103
13.318
2.95619
0.945461
0.0554518
6.44209
3.01172
5.47738
0.146827
0.0776784
0.459452
0.54917
0.348309
2.66789
0.963131
6.11878
5.67781
0.522074
2.98276
0.263206
1.08293
1.2341
1.28752
0.971584
0.876205
1.32495
1.9874
3.48119
1.23101
2.85718
0.412733
0.171941
1.15891
1.35636
1.12041
0.16647
2.49821
1.68366
2.00227
0.415242
2.3007
1.93594
4.01511
6.30074
0.181576
0.713977
0.488563
0.469921
3.12026
7.91161
0.476708
1.9694
0.621602
5.45758
4.4482
0.36619
0.816627
1.03584
2.35238
2.80037
3.5366
2.80543
2.02996
0.219066
2.31429
0.177299
2.5186
1.17721
3.05119
3.48325
6.39081
4.80529
2.54167
1.42398
2.72091
0.497035
0.19962
0.279396
0.456245
0.310431
2.4028
3.38247
2.16593
3.06623
3.22513
5.48007
0.0730852
0.236501
3.91636
2.97789
2.68306
3.08371
3.86405
3.69874
3.04393
0.5241
2.97662
2.89518
2.92057
2.95736
2.80563
2.65727
3.0476
2.53695
0.050815
0.134427
0.114333
0.0551163
0.0609034
0.100054
2.90641
1.38622
3.64297
1.08644
2.45534
0.478421
0.230428
3.26595
0.1374
0.220149
2.22047
0.0765903
0.918402
1.40267
0.269309
0.434729
0.45074
2.95627
3.65605
1.14342
2.52659
1.43593
0.301391
1.98927
12.2056
0.964837
0.298908
1.07963
2.83518
0.0817662
0.944499
3.63478
0.0687847
2.56554
0.129384
0.645953
0.38749
0.473863
1.26741
0.279351
0.120316
1.30293
0.438675
0.226904
3.35255
3.05188
0.0595083
1.01976
1.44876
2.89471
0.12345
3.35596
5.57451
0.947858
4.03959
1.24266
0.353752
1.69965
3.34943
0.319224
2.61798
1.44028
2.30101
3.08809
0.477913
0.993135
0.556665
0.0913329
2.68026
1.06143
2.52773
3.18003
2.20899
4.70762
4.42974
0.717261
1.39457
0.908171
0.192385
0.296926
0.258916
1.0675
0.290063
6.15871
3.21272
0.0799396
2.93711
2.13941
0.809319
3.30633
0.146917
1.3325
3.94597
1.69437
2.60303
0.102205
1.65663
2.04251
3.37398
3.35536
2.39984
0.069874
0.488663
1.20399
5.47993
4.79432
2.13371
2.90349
2.27229
0.174197
8.37668
0.426077
1.58013
1.48102
1.00443
0.506887
2.8201
0.27042
0.762444
1.09164
4.77007
0.52491
3.5855
2.34125
1.2255
0.253583
0.327529
0.301404
3.89111
1.11702
3.30029
3.72947
2.75971
3.27077
2.16253
0.649178
0.23648
0.877652
0.559686
2.46501
2.94213
2.18589
13.2801
0.905379
0.903668
2.10889
4.06346
2.15215
0.132184
0.344504
1.83139
1.39183
0.81376
2.0145
2.13403
2.14002
0.636023
1.41372
0.680138
0.337213
2.34214
4.67702
2.42828
4.58559
2.10576
1.29363
2.29468
2.44606
1.26513
0.312093
1.53103
0.71952
0.307313
2.10056
5.84924
2.243
2.27368
0.12517
0.365097
0.840098
2.15651
0.635805
2.98603
2.90779
3.87913
4.20296
0.46628
2.31654
2.70968
2.44675
3.7983
1.30563
0.676952
0.499834
0.939029
0.834788
1.19225
0.756559
1.0634
8.10064
2.0828
0.311741
1.5198
3.19712
2.24231
0.801527
1.16476
0.605454
7.25134
1.61531
0.260246
0.101576
11.9984
2.228
3.22407
0.186111
0.43724
3.30972
1.12647
5.94083
0.214046
0.334148
0.647141
10.136
0.156216
5.87885
5.27882
0.104318
1.37375
4.07622
6.48123
3.61659
2.69624
0.752771
0.369248
1.72936
0.873485
0.44356
3.97537
0.359624
2.52625
2.38017
8.34439
0.589049
0.657798
0.197832
3.67327
0.399911
1.26161
0.408106
7.24524
0.238302
0.601797
0.729284
3.41252
1.51043
0.919399
0.514338
0.204835
0.336534
4.91567
9.23316
0.337358
2.33618
0.535205
0.22359
0.68992
0.878293
0.595003
2.45876
0.236567
0.650264
0.665584
0.91878
5.25627
0.897468
0.220898
1.07878
1.00487
0.199883
0.409144
2.53436
0.957412
0.287483
0.601342
0.689574
0.934051
0.243273
0.157266
5.09236
4.37867
1.42815
0.548568
0.275689
0.237849
0.0915492
1.09536
0.146649
0.172251
0.344407
0.345214
0.376306
0.262048
5.68586
1.06096
0.699873
3.36196
1.7151
4.41799
2.28634
0.235333
0.504784
1.30826
0.600447
2.72362
0.249377
1.00947
0.841638
0.184148
0.072373
0.39004
0.0602651
0.107083
0.164312
2.00412
3.03252
1.0962
1.58298
0.316659
1.19202
0.573479
0.704637
1.37643
0.314079
0.348658
0.904121
1.24006
0.23004
0.0631003
1.12646
1.09203
0.461797
0.363558
)
;

boundaryField
{
    frontAndBack
    {
        type            empty;
    }
    wallOuter
    {
        type            kqRWallFunction;
        value           nonuniform List<scalar> 
96
(
0.75471
0.484386
0.480867
2.29557
2.34782
2.31231
0.907441
0.729403
0.49568
2.05971
0.414883
1.54127
0.601409
2.45601
1.79408
2.34692
2.33824
0.510177
0.331542
1.10232
0.363021
1.31119
0.521919
2.59024
2.3874
0.859979
0.64409
0.663314
0.661137
0.660619
0.99124
0.618563
0.482937
0.49912
0.488338
0.498203
0.691717
1.09634
0.506399
0.54102
0.582999
0.502652
0.594589
0.572595
0.495579
0.553618
0.551024
0.488517
0.548709
0.537073
0.793312
0.479212
0.513665
0.242679
2.40275
0.522074
1.23101
0.713977
0.488563
0.476708
2.80037
0.219066
0.177299
3.05119
2.97789
3.08371
3.04393
0.5241
2.97662
2.89518
2.92057
2.95736
2.80563
2.65727
3.0476
2.53695
0.050815
0.134427
0.114333
0.0551163
0.0609034
0.100054
0.478421
0.269309
0.473863
0.477913
2.39984
0.301404
2.94213
2.98603
0.676952
0.499834
0.156216
2.69624
2.38017
0.197832
)
;
    }
    inlet
    {
        type            fixedValue;
        value           nonuniform 0();
    }
    outlet
    {
        type            zeroGradient;
    }
    wallInner
    {
        type            kqRWallFunction;
        value           nonuniform List<scalar> 
126
(
1.04219
0.375886
0.638254
0.0779191
0.077682
0.0564095
0.0455745
0.0937641
0.27544
0.116653
0.313881
0.617514
3.9028
0.377512
0.149288
0.25655
0.55318
0.459968
0.190882
0.0473967
0.0900958
0.234222
0.872006
0.20634
0.297768
0.43848
0.486511
0.166421
0.171634
0.0585185
0.751439
0.899603
2.91443
0.560799
2.86224
0.0690864
0.146947
0.769192
0.445088
0.0519123
0.0384202
0.938852
0.24772
0.130579
0.456112
0.39296
0.178106
2.90257
0.101362
1.10041
1.62618
0.175486
1.88408
0.280641
0.675368
0.914606
0.217788
2.02724
1.25778
0.746315
0.0390661
0.0590398
0.0915815
1.38861
0.253241
0.187774
0.959971
1.26261
0.0405094
1.66441
0.985828
0.84177
0.151755
0.107238
1.15299
1.23433
0.18904
1.88428
1.2588
1.68302
1.11868
1.7341
0.446862
1.75479
0.607975
1.8213
1.82627
0.37249
0.058808
1.59343
1.54514
1.45002
1.39277
0.105821
1.26993
1.3919
0.351842
2.20899
0.589049
0.657798
1.30826
0.600447
0.249377
0.841638
0.184148
0.072373
0.0602651
0.164312
2.00412
3.03252
1.0962
1.58298
0.316659
0.573479
0.704637
1.37643
0.314079
0.348658
0.904121
1.24006
0.23004
0.0631003
1.12646
1.09203
0.461797
0.363558
)
;
    }
    procBoundary3to1
    {
        type            processor;
        value           nonuniform List<scalar> 
48
(
3.32513
2.10861
2.19074
2.88309
1.41783
1.78339
2.10861
1.86956
3.83978
0.241531
0.241531
0.259819
0.259819
0.355881
0.41911
0.257715
0.308412
0.268162
0.308412
0.351537
0.246039
0.29072
0.351537
0.805771
0.225269
0.258548
0.559598
0.29072
0.889319
0.4916
0.4916
1.42374
1.42374
3.83978
0.28075
1.30954
2.47369
0.225269
3.78635
1.24358
0.355881
3.11166
3.56737
0.351537
0.44384
0.82862
1.37118
0.275245
)
;
    }
    procBoundary3to2
    {
        type            processor;
        value           nonuniform List<scalar> 
29
(
0.23442
0.23442
0.123729
0.13925
0.291161
0.175138
0.139169
0.256324
0.255409
0.234322
0.207703
0.341234
0.163379
0.201908
0.144321
0.206642
0.197845
0.227611
0.239637
0.169232
0.160598
0.197845
0.0476366
0.227611
0.107879
0.147258
0.227611
0.437373
0.437373
)
;
    }
}


// ************************************************************************* //
