/*--------------------------------*- C++ -*----------------------------------*\
| =========                 |                                                 |
| \\      /  F ield         | OpenFOAM: The Open Source CFD Toolbox           |
|  \\    /   O peration     | Version:  v1912                                 |
|   \\  /    A nd           | Website:  www.openfoam.com                      |
|    \\/     M anipulation  |                                                 |
\*---------------------------------------------------------------------------*/
FoamFile
{
    version     2.0;
    format      ascii;
    class       volScalarField;
    location    "0.68";
    object      nut;
}
// * * * * * * * * * * * * * * * * * * * * * * * * * * * * * * * * * * * * * //

dimensions      [0 2 -1 0 0 0 0];


internalField   nonuniform List<scalar> 
1431
(
0.00419998
0.0109084
0.000872372
0.0011905
0.00160886
0.00938414
0.00199674
0.00955886
0.00769326
0.00103862
0.00439444
0.0122341
0.0152472
0.00218308
0.00180707
0.00158802
0.00205218
0.00114868
0.00208475
0.0016522
0.00580216
0.00510024
0.00604084
0.0152332
0.0063399
0.0110184
0.00390807
0.00179156
0.000862236
0.000713713
0.00201073
0.00251375
0.00187478
0.00121719
0.0129578
0.00114671
0.0117955
0.000726258
0.000480537
0.00226375
0.00552233
0.00742829
0.0136849
0.00106023
0.00391182
0.00192483
0.00354563
0.00371155
0.00232029
0.00140585
0.00996013
0.000963123
0.0117105
0.0130642
0.00945285
0.00555592
0.000963719
0.0135906
0.00182085
0.00106314
0.00162211
0.000544559
0.000483237
0.000458002
0.000297098
0.000415876
0.000900571
0.000616154
0.000955484
0.00126465
0.00385407
0.00115997
0.000648921
0.000847089
0.00149696
0.00107511
0.000701838
0.000376759
0.000620423
0.000914181
0.00176609
0.000737023
0.0119634
0.00409029
0.00633491
0.0030154
0.00238423
0.00339733
0.00998665
0.0125548
0.00167617
0.00155425
0.00100115
0.00146942
0.0087956
0.000667126
0.0119683
0.0185713
0.000971491
0.001041
0.00861066
0.000742683
0.00266379
0.00107559
0.000497193
0.00231393
0.00288899
0.00344302
0.00460072
0.00229084
0.0011246
0.0160388
0.0053488
0.00468813
0.0110951
0.00137022
0.0013819
0.000764651
0.000677725
0.000383639
0.00134586
0.0017009
0.00237854
0.00126294
0.00265326
0.000454743
0.000701401
0.00297281
0.00115976
0.00451791
0.00136909
0.00105515
0.00526194
0.00155477
0.00178023
0.00171462
0.0010243
0.00112411
0.0127801
0.000359328
0.000354282
0.00190795
0.0015326
0.000721126
0.00586419
0.00175054
0.000623706
0.010355
0.00129926
0.00116941
0.00129664
0.00121585
0.00239674
0.000733675
0.00322551
0.00123751
0.00964756
0.0145772
0.0128217
0.00476636
0.0169537
0.0163253
0.00131688
0.00362584
0.00280664
0.00408849
0.003987
0.0101943
0.00126734
0.0162061
0.016786
0.0120407
0.00214893
0.0130169
0.0129058
0.00903338
0.00471424
0.00668945
0.0117179
0.0133581
0.0004595
0.000734474
0.00592198
0.0185452
0.00727629
0.00128367
0.00154836
0.0149787
0.00239554
0.00710621
0.0022951
0.00239218
0.00249296
0.00383837
0.000686112
0.0159947
0.0186761
0.011889
0.00120902
0.00152761
0.00814951
0.00197637
0.00446345
0.00291773
0.0152926
0.00240813
0.00225855
0.000796619
0.0144211
0.00216933
0.0019699
0.000603426
0.00286033
0.00233373
0.0118759
0.0016877
0.00266587
0.0120863
0.00625724
0.0043339
0.00305739
0.00576676
0.00270905
0.00290275
0.00335252
0.0163576
0.00466904
0.0174535
0.00271916
0.00324459
0.00601079
0.00200337
0.0024112
0.00242587
0.00262143
0.0181155
0.00284183
0.00262728
0.00219569
0.0052783
0.00506992
0.0113272
0.0153385
0.00255957
0.0024338
0.00430627
0.00268832
0.00416768
0.00321994
0.00125162
0.00286092
0.0131449
0.00453459
0.00125305
0.00237382
0.00726189
0.00420725
0.0172891
0.019308
0.00253684
0.00167702
0.0125943
0.00595172
0.00441099
0.00357096
0.00513647
0.0121812
0.00472119
0.00366417
0.000674067
0.00482596
0.0028198
0.00920436
0.00368703
0.0156723
0.00199961
0.0147889
0.00357524
0.000970727
0.00146189
0.0134614
0.0131084
0.00173697
0.00655464
0.0067677
0.0177033
0.00707276
0.0193397
0.00551643
0.0104844
0.000657038
0.0101195
0.0177891
0.0121648
0.00280632
0.00251633
0.00187283
0.00144266
0.00205621
0.00101776
0.0117208
0.000290903
0.00763238
0.0130815
0.00333915
0.00377556
0.012561
0.0023846
0.00850683
0.0147012
0.0161385
0.000375615
0.000493264
0.00138862
0.00925825
0.0181319
0.0121
0.0079931
0.0018659
0.0143318
0.0122337
0.0171946
0.000746696
0.00936294
0.0108346
0.000894852
0.000674762
0.00773769
0.0139784
0.00134589
0.00113988
0.00217636
0.00820019
0.0058576
0.00501714
0.0135268
0.00738398
0.0183231
0.0102807
0.00132652
0.000301462
0.0138482
0.0137305
0.00518588
0.0083184
0.00241238
0.0089712
0.0145142
0.0151911
0.0126269
0.00707564
0.00179063
0.00966033
0.0135539
0.00182504
0.0033597
0.00683971
0.00186322
0.0114229
0.00632638
0.00530676
0.00127962
0.00106842
0.00622506
0.00199488
0.00454845
0.00704786
0.0182045
0.00257562
0.00204004
0.00418618
0.00260429
0.0112751
0.00992748
0.00545691
0.0188672
0.013921
0.00169058
0.0132791
0.0192174
0.0166329
0.00919723
0.00175604
0.00172406
0.0175636
0.00922036
0.0130626
0.00796935
0.0104667
0.0104962
0.00512259
0.01336
0.0133612
0.00323921
0.0188516
0.010804
0.0151362
0.0148226
0.00643939
0.0107852
0.0143458
0.00558432
0.0190433
0.00736657
0.00308651
0.0146333
0.00877083
0.00046298
0.00588982
0.0147494
0.0150658
0.0117795
0.014771
0.0152098
0.00801521
0.00117932
0.0130508
0.000386569
0.0108661
0.0147431
0.00359426
0.0156243
0.0068375
0.0132796
0.0146894
0.00250376
0.00206428
0.00366539
0.00508915
0.0141214
0.0159131
0.0155115
0.015211
0.0152328
0.0151935
0.0155226
0.0159833
0.0151153
0.0161517
0.0154842
0.00206386
0.012631
0.00194052
0.00188099
0.00146539
0.00165334
0.00160845
0.00180865
0.00432814
0.00424044
0.00386118
0.00159367
0.00207705
0.00173102
0.00199351
0.00209141
0.00528994
0.0161984
0.00181332
0.00229017
0.00472137
0.00136996
0.0154279
0.00180927
0.00281342
0.00156477
0.00139415
0.0147357
0.00167665
0.0139517
0.00136042
0.00120574
0.00121652
0.00602709
0.012757
0.0126286
0.00184447
0.00124934
0.00145645
0.0012657
0.0061916
0.00146003
0.0127163
0.00111878
0.00119357
0.00587222
0.00145197
0.00118593
0.00133874
0.00118239
0.0123762
0.00116224
0.00154369
0.00186766
0.00479447
0.00182507
0.00239905
0.011698
0.00107163
0.00235963
0.00964507
0.00656813
0.00139982
0.00129553
0.0112705
0.0127815
0.00220703
0.00131254
0.00141147
0.00214251
0.00296069
0.0050185
0.00164505
0.00368739
0.00119644
0.00220368
0.00996978
0.00361889
0.00533669
0.0123414
0.00404907
0.00246266
0.00317178
0.00262546
0.00753629
0.00416794
0.010359
0.00222099
0.00191152
0.000509982
0.00967791
0.00730791
0.0112453
0.00623584
0.0147732
0.00807482
0.0022743
0.00176709
0.00710246
0.00199896
0.0154498
0.00164719
0.00502606
0.00463146
0.00379631
0.0027943
0.00807272
0.00160726
0.0153827
0.013633
0.0127169
0.00136846
0.00570553
0.0141197
0.00145441
0.00407365
0.0045639
0.00976738
0.00166204
0.00673343
0.0137529
0.0106052
0.0171858
0.00980962
0.00955039
0.00566032
0.00331388
0.0032933
0.0144451
0.00773343
0.0146059
0.0104766
0.0165518
0.00231916
0.000870594
0.0104397
0.00309608
0.00169347
0.0168129
0.0157474
0.0148175
0.00871067
0.00433566
0.0132196
0.0137262
0.00305746
0.00243954
0.00629176
0.00103923
0.00307191
0.016385
0.00157732
0.00972512
0.00940353
0.00345429
0.0154768
0.00508871
0.013117
0.0166638
0.013652
0.00170188
0.0107934
0.0141021
0.00602885
0.0115726
0.00838298
0.00188824
0.014235
0.00163426
0.00201646
0.00367638
0.00769222
0.0132601
0.0169844
0.00564146
0.00749108
0.00472479
0.00492344
0.014119
0.0133534
0.0129104
0.0105804
0.000789148
0.0137222
0.010451
0.00699253
0.0146112
0.0024779
0.0126895
0.00372593
0.0129803
0.00927931
0.000342288
0.0168608
0.0144014
0.0125666
0.00993217
0.00539142
0.00454471
0.0072337
0.00587672
0.0181849
0.00470904
0.0141847
0.00159434
0.010251
0.0108055
0.0106977
0.00429172
0.0122838
0.0144106
0.00998002
0.00153293
0.0133029
0.00238827
0.0093711
0.00715576
0.00744324
0.0117883
0.0144613
0.0183516
0.0142799
0.0130893
0.0122995
0.0101494
0.00416116
0.00241065
0.0094452
0.0107232
0.001593
0.0145777
0.0116778
0.00171073
0.0158525
0.0143828
0.00339776
0.00173473
0.00609275
0.00514661
0.00557547
0.00740796
0.00332776
0.012317
0.00170615
0.000728968
0.00104015
0.0164609
0.0051032
0.00232541
0.00100288
0.00578307
0.00277509
0.00494032
0.000897844
0.000703266
0.0144719
0.00148444
0.00436619
0.000611223
0.0136428
0.00126653
0.012862
0.0150468
0.000803907
0.00165844
0.00179824
0.0014363
0.0013709
0.0095377
0.011329
0.00660167
0.00166729
0.00302499
0.00325472
0.00153146
0.00471924
0.0146207
0.00327942
0.00320363
0.00500401
0.00521064
0.0024164
0.0127354
0.0143517
0.000794764
0.00791667
0.00398977
0.0141721
0.00360884
0.00480052
0.00131997
0.0155577
0.0147084
0.00432217
0.00685634
0.0029841
0.00502386
0.00161507
0.00168776
0.00485099
0.000748363
0.00761543
0.00445519
0.00461909
0.0162061
0.00784094
0.00501649
0.00129022
0.00556602
0.00127588
0.00691418
0.0054238
0.00750593
0.00136722
0.0159198
0.00556605
0.00638508
0.00164083
0.00835364
0.000391228
0.0179128
0.00610086
0.00332601
0.00177582
0.00162303
0.00292318
0.00161138
0.00196347
0.0139542
0.00338646
0.012135
0.00236017
0.00507631
0.00531775
0.00598644
0.00999816
0.000577296
0.00548882
0.0120508
0.00180127
0.0128843
0.000738162
0.0140378
0.00174715
0.0011026
0.0113991
0.00697122
0.012142
0.00224174
0.0113221
0.00594259
0.00173568
0.00238733
0.0131629
0.0023697
0.000560791
0.00449133
0.00256956
0.00396454
0.0148875
0.00235774
0.00581431
0.00139066
0.0159565
0.0164794
0.0120496
0.0024748
0.00963169
0.00535842
0.00671589
0.0175587
0.0031672
0.00744817
0.0109981
0.00983943
0.0170555
0.0162209
0.00241527
0.0135777
0.00567742
0.00171508
0.00530752
0.0128765
0.0158098
0.00118547
0.00075949
0.00752795
0.00190984
0.00236474
0.000921325
0.014383
0.00173054
0.00161858
0.00227862
0.0110556
0.0136914
0.00304129
0.0142362
0.0152712
0.00422338
0.0146864
0.00156738
0.00125922
0.00239315
0.0137613
0.0175369
0.000897518
0.0175305
0.00583534
0.0179879
0.00283352
0.00196251
0.0104745
0.00410597
0.00101272
0.000628658
0.00539836
0.00555663
0.00107591
0.000904428
0.0036123
0.0123549
0.00633476
0.00856719
0.016678
0.0118383
0.0168194
0.00115199
0.0139336
0.0126743
0.0163215
0.0111695
0.0116196
0.00123639
0.00387119
0.00137246
0.00232616
0.00190178
0.0110177
0.00374188
0.0129674
0.00322187
0.00428518
0.00351324
0.012558
0.014573
0.00713225
0.000853006
0.000835257
0.000803941
0.000700022
0.000743365
0.000992892
0.000821414
0.000578796
0.000691163
0.000617809
0.00062824
0.000714802
0.00109213
0.000708345
0.00064745
0.0006548
0.000744429
0.000772622
0.000727912
0.000739566
0.000692941
0.000700084
0.000712986
0.000724779
0.0165303
0.0149039
0.00140954
0.01051
0.00782184
0.0047008
0.00254624
0.007671
0.00235617
0.00211074
0.00347731
0.00138653
0.00161436
0.0162949
0.00525918
0.00173941
0.016285
0.00473751
0.0170223
0.00378908
0.00264408
0.0180029
0.00130082
0.000733875
0.0125078
0.0116849
0.00059319
0.00232431
0.0103392
0.0017576
0.0045251
0.0160503
0.00593168
0.00945217
0.0129392
0.00997288
0.00181495
0.000798534
0.00224826
0.00288575
0.0138095
0.000958674
0.00071501
0.01095
0.0119364
0.00316377
0.00445044
0.00158967
0.00326426
0.000689489
0.0102391
0.0159336
0.0128202
0.00201274
0.00121841
0.00528247
0.00497315
0.000672267
0.0028291
0.000550606
0.012403
0.00248213
0.00143918
0.0016247
0.00353345
0.00119846
0.0159948
0.00179141
0.0157367
0.0137715
0.0026459
0.000695762
0.0107755
0.013407
0.0182436
0.00176883
0.00106215
0.00501673
0.00284426
0.00121453
0.0142715
0.00246154
0.00718249
0.0129802
0.000702502
0.0135482
0.00264375
0.00255898
0.00540065
0.00341288
0.0026596
0.00316303
0.00356819
0.004331
0.015897
0.00119615
0.00947208
0.00461589
0.00164811
0.00451488
0.0026692
0.00216152
0.000789506
0.013503
0.0108341
0.012431
0.00108757
0.0133831
0.0121564
0.00805589
0.00715644
0.00180774
0.000766516
0.000684553
0.0038911
0.0134971
0.0148112
0.00071268
0.00811829
0.00197423
0.0164181
0.0115724
0.00397659
0.00315559
0.00269849
0.0132379
0.00181915
0.00655077
0.00993381
0.0125515
0.000511591
0.00376584
0.000446369
0.0094866
0.00774662
0.002131
0.0121828
0.0111762
0.0129747
0.00974983
0.00528934
0.0132957
0.00415907
0.00198341
0.00166834
0.00505334
0.00244667
0.0135029
0.0120298
0.0101334
0.0154818
0.0119465
0.0160722
0.000796949
0.00103803
0.0169698
0.00199246
0.0122881
0.00225047
0.0138393
0.0162219
0.00195111
0.000711781
0.00181574
0.00170713
0.0016673
0.00223691
0.00198108
0.00188992
0.00180821
0.00190853
0.000245811
0.000350122
0.000287886
0.000231168
0.000181745
0.000265096
0.0147936
0.00323391
0.0137963
0.00245052
0.00908952
0.000701958
0.00188749
0.0155959
0.00151303
0.00243137
0.0128577
0.00108126
0.00283337
0.00615221
0.000589364
0.00165415
0.00199162
0.00957272
0.0157665
0.00304721
0.0123068
0.00349694
0.00201931
0.01243
0.0162389
0.00296372
0.00151027
0.00372851
0.0131234
0.00136347
0.00671413
0.00709965
0.00110161
0.0105575
0.000774354
0.00289165
0.00426333
0.00063281
0.00462858
0.00152951
0.000856016
0.00422647
0.00160513
0.00112309
0.0143917
0.0105386
0.000927281
0.00442264
0.00908673
0.00361085
0.00131423
0.00590525
0.0105974
0.00637287
0.00767741
0.00347045
0.00133471
0.00488129
0.00618502
0.00192718
0.013558
0.00366678
0.00380874
0.0115445
0.000658884
0.00257337
0.00290476
0.00130007
0.00977527
0.00575029
0.0139238
0.00636856
0.00196302
0.00934057
0.0167205
0.00228913
0.00902824
0.00156281
0.00101645
0.00154617
0.0014854
0.00296078
0.0011238
0.0133359
0.0155202
0.00104215
0.00500935
0.0126808
0.00381637
0.0128454
0.00137561
0.00366074
0.00674318
0.00357406
0.0129948
0.0013053
0.00445453
0.00683805
0.00520271
0.0123035
0.00141459
0.000654465
0.00189098
0.00352725
0.00866954
0.0125838
0.00481192
0.0112289
0.00873327
0.00157156
0.0169157
0.00169677
0.00461717
0.00583813
0.00279326
0.00166816
0.0105874
0.00281754
0.00121911
0.00288595
0.0106897
0.00239319
0.0158545
0.0112219
0.00566093
0.0024205
0.00160719
0.000608706
0.0111937
0.00370489
0.0131914
0.00804904
0.0138302
0.0156925
0.0129537
0.00183689
0.00238353
0.00213237
0.00162893
0.0117524
0.0018806
0.0130326
0.0193691
0.00220528
0.00439601
0.0127945
0.00955595
0.012662
0.000975377
0.00266431
0.00694874
0.0020452
0.00472743
0.00487967
0.00424971
0.00630955
0.0020668
0.00923649
0.00336691
0.00363081
0.0124183
0.00811007
0.00881716
0.00642793
0.00879653
0.00843408
0.0123446
0.0135189
0.00427953
0.00151151
0.00350223
0.0035864
0.00326421
0.0127535
0.00767049
0.012974
0.0132803
0.00125387
0.00213258
0.002424
0.0127199
0.00188821
0.00187391
0.0114919
0.0146004
0.0108471
0.00213914
0.0133873
0.013026
0.0136952
0.00690187
0.00336692
0.00069936
0.00064628
0.0016191
0.00320636
0.00219253
0.00242339
0.00314747
0.0157288
0.0123544
0.00120458
0.00553351
0.0142762
0.00403963
0.00236948
0.00284654
0.00214559
0.0145434
0.00884546
0.00137541
0.00120512
0.0188878
0.0110206
0.0131561
0.00167993
0.0029961
0.00385227
0.00526364
0.010546
0.00135988
0.0034025
0.00300305
0.0183351
0.000402689
0.00745523
0.0128152
0.00155543
0.00365444
0.00718639
0.0116858
0.0130466
0.00193005
0.00365618
0.00140575
0.007037
0.00162225
0.00192198
0.0091765
0.00217906
0.00880658
0.00109807
0.0139825
0.000953485
0.000999348
0.000481204
0.00679286
0.00451912
0.00319881
0.00133325
0.0144492
0.00257812
0.00319619
0.00512249
0.0103697
0.00255433
0.00228826
0.00255354
0.00199399
0.00348275
0.010282
0.0180616
0.00347465
0.0115419
0.00252123
0.00188232
0.00181885
0.00239933
0.00247782
0.0108057
0.00251352
0.00182461
0.00198696
0.00242982
0.0119922
0.00239339
0.00124438
0.00250951
0.00268571
0.00179907
0.00462555
0.0108949
0.00447078
0.00280461
0.00191545
0.002202
0.00289914
0.0014162
0.000700177
0.0111833
0.009347
0.00238896
0.00348116
0.00265106
0.00126749
0.00121071
0.00285792
0.0013036
0.00135108
0.00199578
0.00186314
0.00114597
0.002735
0.0158636
0.00229671
0.00216783
0.0158084
0.00354311
0.0105161
0.0129628
0.00239492
0.00248707
0.00134455
0.00095381
0.003744
0.000920839
0.00534567
0.00127502
0.000612074
0.000381264
0.00191848
0.000353851
0.000840122
0.000458951
0.00236867
0.00298319
0.00178437
0.00194627
0.00075574
0.0013118
0.000931131
0.00109354
0.00155229
0.000683821
0.000770713
0.00165485
0.00152007
0.000674691
0.000362725
0.00149302
0.00171047
0.000979542
0.000848702
)
;

boundaryField
{
    frontAndBack
    {
        type            empty;
    }
    wallOuter
    {
        type            nutkWallFunction;
        Cmu             0.09;
        kappa           0.41;
        E               9.8;
        value           nonuniform List<scalar> 
96
(
0.000102721
8.61984e-05
8.06736e-05
0.000195832
0.00019838
0.000195348
0.000120498
0.000108933
8.66868e-05
0.000172412
7.57652e-05
0.000149093
9.83048e-05
0.000205109
0.000160293
0.000186274
0.000193408
8.99011e-05
7.17845e-05
0.000131463
6.97129e-05
0.000140407
9.11596e-05
0.000198442
0.00018607
0.000102158
9.97041e-05
9.61104e-05
8.40988e-05
8.91328e-05
0.000117963
9.81306e-05
7.0095e-05
8.32859e-05
7.46989e-05
7.59667e-05
8.62572e-05
0.000129017
8.53787e-05
7.8413e-05
7.92636e-05
8.96029e-05
9.25442e-05
8.73909e-05
8.90732e-05
8.33369e-05
8.41784e-05
8.60128e-05
8.70573e-05
8.81324e-05
0.000113615
8.6342e-05
8.09959e-05
6.84984e-05
0.000166866
8.45028e-05
0.000140473
9.17762e-05
8.27908e-05
8.60594e-05
0.000207722
6.37051e-05
5.56755e-05
0.000240007
0.000225641
0.000252336
0.000221345
8.56075e-05
0.000207254
0.000195757
0.000191504
0.000250924
0.000224387
0.000214841
0.000206374
0.000216773
2.94489e-05
4.3625e-05
3.55627e-05
2.78428e-05
2.15244e-05
3.36004e-05
8.47931e-05
7.32406e-05
7.66513e-05
7.97311e-05
0.000164272
7.55981e-05
0.000214132
0.000213397
8.40097e-05
7.82867e-05
5.02488e-05
0.000219004
0.000129602
5.99676e-05
)
;
    }
    inlet
    {
        type            calculated;
        value           nonuniform 0();
    }
    outlet
    {
        type            calculated;
        value           nonuniform List<scalar> 9(0.0182045 0.0175636 0.00188824 0.0159198 0.0120496 0.00715644 0.002131 0.00361085 0.0105974);
    }
    wallInner
    {
        type            nutkWallFunction;
        Cmu             0.09;
        kappa           0.41;
        E               9.8;
        value           nonuniform List<scalar> 
126
(
0.000207514
0.000126677
0.000188216
6.60496e-05
5.86653e-05
5.58838e-05
3.51283e-05
5.02946e-05
0.000109156
7.29676e-05
0.000114622
0.00014793
0.000413772
0.000135985
7.98332e-05
0.00010085
0.000172811
0.000127591
8.6313e-05
4.58181e-05
7.39877e-05
0.000106815
0.000201547
9.08695e-05
0.00012041
0.00016002
0.000160245
9.33374e-05
8.28333e-05
4.64815e-05
0.000156937
0.000196366
0.000263985
0.000147623
0.000293932
5.43476e-05
8.64103e-05
0.000159077
0.000123316
4.30665e-05
4.26239e-05
0.000176801
8.83052e-05
7.47869e-05
0.000139277
0.000143686
8.938e-05
0.000309242
5.52163e-05
0.000149629
0.000178696
8.39196e-05
0.000223668
8.14464e-05
0.000114931
0.000168843
7.95622e-05
0.000212996
0.00016685
0.000120197
3.51e-05
4.47255e-05
6.00585e-05
0.000161561
0.000101441
7.9424e-05
0.000133818
0.000154856
3.66226e-05
0.000211934
0.000149163
0.000125877
5.60211e-05
4.64265e-05
0.000150233
0.000139389
6.1813e-05
0.000201712
0.000187627
0.000184633
0.00015812
0.000190583
9.83491e-05
0.000194601
0.000116661
0.000181445
0.000194342
8.98941e-05
4.09204e-05
0.000183342
0.000177546
0.000190262
0.000167183
4.63915e-05
0.00014543
0.000216052
8.01337e-05
0.000222927
0.00011298
0.000118407
0.000156745
0.000113684
0.000105223
0.000146596
6.87288e-05
4.51587e-05
4.20666e-05
5.62086e-05
0.000262943
0.000327068
0.000202881
0.000220602
9.0802e-05
0.000110878
0.00012815
0.000179807
8.27025e-05
9.20974e-05
0.000189674
0.000175287
8.29178e-05
4.34286e-05
0.000172757
0.000197244
0.000116886
0.000101806
)
;
    }
    procBoundary3to1
    {
        type            processor;
        value           nonuniform List<scalar> 
48
(
0.01116
0.00452967
0.00557665
0.00913682
0.00355361
0.00340464
0.00452967
0.0122434
0.0152585
0.00159428
0.00159428
0.00150233
0.00150233
0.00225757
0.0029178
0.00140296
0.00137277
0.00127572
0.00137277
0.00163925
0.0015367
0.00214343
0.00163925
0.00187347
0.00132144
0.00152361
0.0046031
0.00214343
0.00719773
0.00135639
0.00135639
0.0103297
0.0103297
0.0152585
0.00166123
0.00298539
0.0140465
0.00132144
0.013356
0.00312926
0.00225757
0.015301
0.0157627
0.00163925
0.00315762
0.00102922
0.00353946
0.00171395
)
;
    }
    procBoundary3to2
    {
        type            processor;
        value           nonuniform List<scalar> 
29
(
0.00189038
0.00189038
0.00052164
0.000576247
0.000749313
0.000638464
0.000553216
0.00205718
0.0026917
0.00221678
0.00142413
0.00160817
0.00111399
0.00227023
0.00127425
0.00207804
0.00184521
0.0024481
0.00197923
0.00174504
0.00151438
0.00184521
0.000247835
0.0024481
0.000913245
0.000946401
0.0024481
0.00292739
0.00292739
)
;
    }
}


// ************************************************************************* //
