/*--------------------------------*- C++ -*----------------------------------*\
| =========                 |                                                 |
| \\      /  F ield         | OpenFOAM: The Open Source CFD Toolbox           |
|  \\    /   O peration     | Version:  v1912                                 |
|   \\  /    A nd           | Website:  www.openfoam.com                      |
|    \\/     M anipulation  |                                                 |
\*---------------------------------------------------------------------------*/
FoamFile
{
    version     2.0;
    format      ascii;
    class       volScalarField;
    location    "0.65";
    object      epsilon;
}
// * * * * * * * * * * * * * * * * * * * * * * * * * * * * * * * * * * * * * //

dimensions      [0 2 -3 0 0 0 0];


internalField   nonuniform List<scalar> 
5794
(
0.40098
0.684974
3.70766
80.4761
25.6949
0.621415
3.68139
3.24226
88.5913
3.42077
37.4825
10.5715
6.96165
40.0915
1.17714
0.182159
386.359
50.5602
0.994834
0.562426
56.7826
0.420331
8.66636
2.48015
10.8844
142.313
316.339
53.3299
98.8337
4.8551
5.53164
14.3534
19.9079
2.79835
5.83655
5.32883
4.43762
32.6288
29.7724
62.6953
20.091
10.6842
9.46295
7.8775
0.809038
47.5061
31.5145
8.95621
2.37254
2.90744
3.60204
61.1891
1.28639
1.21058
0.143845
43.2014
28.9645
21.7336
6.04702
287.988
60.6455
0.678717
5.82324
18.5317
24.2639
0.308215
34.4938
23.9696
50.5524
0.719336
85.3341
46.7903
374.236
1.45231
51.6819
26.3323
14.4941
97.4128
7.56995
1.08611
0.34416
0.664721
25.5719
17.4067
19.9183
57.0452
31.5345
95.3026
3.94771
11.3497
104.565
19.1087
62.9294
109.62
30.7317
68.2925
78.0711
50.7305
17.3682
67.7292
49.8973
7.49425
7.5784
40.7855
0.516748
91.7851
0.646873
8.52581
44.4521
7.52907
0.566566
0.410191
52.1632
0.557502
23.1828
84.4009
2.65573
77.2126
54.4569
22.2292
75.6691
0.83048
6.29304
44.0911
0.552571
53.1016
62.0818
0.624915
73.9209
10.4197
13.8468
6.81523
41.2563
82.7618
88.9916
1.48113
126.022
0.656684
0.374937
0.808551
0.949987
20.6545
0.435711
25.4345
0.477642
347.013
43.2956
54.1955
23.2573
9.83283
12.17
0.723686
91.344
9.91462
358.802
53.1248
19.7561
14.1352
82.771
26.3779
0.951095
6.58553
1.28519
6.74806
61.1048
75.5964
8.70018
6.20172
0.698791
0.563639
2.76712
30.4998
6.99544
7.33008
3.01845
7.70958
1.71725
9.86397
1.38412
76.8361
9.92687
27.5424
5.13923
45.7006
4.84183
376.611
10.4204
15.083
3.94411
6.32533
48.2175
18.0649
25.8617
5.90206
8.62472
18.578
6.34883
0.605071
0.88593
6.92419
5.68109
64.3436
5.18109
7.59353
37.7527
56.5781
7.37885
17.6667
153.39
42.8444
4.24722
10.3165
4.45378
5.78928
2.9494
7.43229
5.91797
46.7734
28.72
80.1996
9.87642
23.4944
151.458
49.3128
153.831
169.039
5.46607
3.581
8.34365
2.16502
4.39835
5.16337
4.17351
33.3328
29.5758
193.252
214.281
37.5687
8.29581
0.975607
0.386706
52.3648
33.61
34.6953
12.845
0.536106
0.584478
28.3406
140.164
73.1693
32.9354
0.360037
352.482
0.279858
4.97875
101.521
7.20499
19.7495
13.694
0.633993
85.6579
4.38922
5.81437
0.363114
34.4369
5.60693
19.6181
71.8933
0.731241
58.9991
37.7742
9.88925
9.40865
79.8622
16.4415
2.03458
1.29633
0.778877
0.893303
7.21073
0.47718
77.6282
19.9828
10.4411
46.7985
95.7529
35.7137
39.6252
143.359
76.9184
4.72388
5.21688
3.7978
1.39016
4.83521
147.672
21.0469
9.3825
49.4369
0.297564
0.76226
53.7439
0.320222
37.186
4.49196
75.0708
0.99394
43.1925
66.4104
42.6163
11.6712
42.8529
45.4587
0.500015
9.81981
35.2672
11.4011
62.3755
46.8165
131.02
11.9935
13.5866
77.7874
30.4642
0.173032
12.7862
1.20531
13.1355
7.39455
34.5637
70.6959
8.74195
6.77822
20.6658
14.7282
4.066
4.70961
0.913222
4.26355
10.1687
2.7794
13.1334
73.6934
10.3295
2.7476
4.16964
72.1772
38.7732
86.7166
49.3198
42.1242
296.632
33.8834
22.4186
6.29131
292.002
0.749883
81.3017
4.12082
3.92475
13.9318
19.108
101.431
4.34081
5.23015
12.6701
66.5673
56.3332
37.6703
13.4366
1.3815
0.359732
8.5829
0.704151
19.4882
50.6307
41.6046
29.7903
30.0633
0.671967
9.33852
1.66314
12.5036
5.19865
5.57257
2.45418
86.3026
4.01938
4.04029
11.8072
5.99597
54.9767
0.728833
0.441633
4.82563
5.21453
2.2972
6.53657
1.26682
7.05903
1.83831
8.64523
180.945
0.715889
0.409856
47.7551
4.66409
0.60928
0.795274
75.4432
46.1606
16.905
31.6651
28.2013
75.8262
50.5906
10.0645
60.0328
54.5616
76.9232
17.6232
49.0671
13.1286
1.21962
7.56508
7.60812
1.79317
0.582243
0.569169
0.369144
58.7302
5.76041
21.9989
76.1978
0.627632
2.5032
19.4575
9.41205
5.55148
5.74347
1.797
8.11258
5.71343
12.231
0.842251
92.7089
25.7303
0.230185
6.24071
47.3062
4.58071
0.58885
79.1021
0.456039
65.0401
0.482692
71.2026
75.4905
33.8204
163.432
0.339153
0.570943
8.98859
0.545636
76.1697
10.4275
164.804
40.2879
16.9706
6.02432
0.437586
192.874
49.0961
5.613
2.44686
94.8695
182.071
66.8459
2.51492
0.642108
20.7451
0.329336
4.30219
6.45339
13.1407
32.7648
10.2067
0.761254
282.326
0.390846
0.635487
78.0171
81.4918
36.8189
3.96784
0.793783
2.83383
1.54043
0.150053
42.8328
68.2378
193.926
8.75372
6.72625
24.3762
0.55208
0.388418
33.6278
38.1291
0.37024
65.9374
1.06212
12.4432
0.560612
0.395468
19.3992
73.0605
0.598289
5.5604
188.327
0.75792
0.427928
34.0034
74.0152
11.0653
0.466348
3.44754
47.7641
0.524512
0.357747
15.7416
0.802625
161.813
1.48965
8.07348
1.25598
6.60729
165.823
9.82694
70.6221
0.36252
92.3198
0.608729
45.079
1.15937
0.184965
5.51767
25.1794
0.540964
0.951656
36.9843
0.641597
1.6186
4.40172
0.837406
0.38098
13.2021
0.342255
0.574633
11.3615
614.575
3.8921
61.3191
0.899889
42.6874
1.81127
0.150487
8.24404
0.474337
0.346966
86.6563
27.1309
124.254
82.7509
157.147
8.9727
45.8027
47.949
9.91572
22.4044
77.4052
21.7312
97.6557
190.994
84.6683
58.5058
0.566807
55.0055
19.1228
84.2791
0.380206
1.00971
0.50166
89.4327
23.4326
41.8305
0.613113
9.33124
0.409486
2.19212
0.425125
100.092
23.051
101.837
0.359977
8.19981
195.072
4.97138
0.166371
14.4605
52.4913
90.1924
31.8325
2.28577
6.90217
3.9142
39.0499
28.7831
7.7719
43.4744
0.690071
45.4951
62.0584
12.0703
0.66727
0.571167
0.658417
16.3725
68.5986
0.563594
0.45206
0.576187
0.376239
0.79832
0.455489
4.68235
112.372
26.3821
10.3239
49.2867
0.813141
9.45997
26.8053
20.5003
129.416
129.049
32.8118
48.6497
1.77997
0.220732
0.414365
4.07596
1.86714
3.4681
4.78938
78.2676
226.653
21.0465
172.96
2.25039
0.941293
4.50157
0.39819
40.9851
0.687963
36.5639
146.156
99.4392
36.5807
45.8449
39.4669
6.68566
198.843
50.163
11.9244
25.6146
114.039
1.05357
32.5378
2.50165
0.204003
22.6505
1.1526
0.159908
10.0573
141.258
107.285
1.34904
0.832967
0.466505
28.6166
171.637
101.377
34.8111
1.86729
43.9016
16.3507
0.725071
0.296656
9.82274
2.87771
8.49652
0.797228
20.4269
13.0457
162.435
86.2498
5.5873
2.05033
104.448
23.3277
185.185
36.5889
67.2997
40.0038
16.2045
8.77379
305.401
49.8896
26.2196
39.8259
138.591
164.29
0.927375
84.4165
6.36037
15.8316
28.2119
86.4682
38.747
36.4567
58.8537
127.028
31.0411
1.60669
3.14278
367.14
11.0105
18.2821
57.9696
91.7223
0.933735
0.447005
6.7184
4.26537
81.7339
36.8285
122.575
1.59035
8.98288
0.354811
3.90676
1.16539
0.521902
21.6773
92.8539
5.11261
114.542
32.1579
8.94371
1.19498
188.16
74.6901
33.1196
145.633
96.8111
34.8466
52.369
5.88002
50.6985
18.3459
80.5007
11.0687
2.03016
5.58826
0.336443
0.3896
2.338
22.5419
0.753371
20.7848
258.225
5.29368
0.381076
0.503919
78.0608
26.7988
20.04
82.8497
23.1643
0.702387
77.1728
56.764
45.6485
4.07216
30.5311
0.596645
120.174
0.401964
112.862
9.66635
12.2671
7.62612
0.693501
0.295352
0.91959
19.8589
39.4304
84.1279
185.026
36.5958
0.849597
4.51108
35.6963
145.369
0.626269
14.2517
13.6092
66.7809
0.700741
0.383512
10.7749
52.9998
157.596
0.554096
17.43
0.899284
5.55404
2.94116
19.73
60.4079
77.9549
9.32499
1.19546
64.1687
5.38056
3.85598
377.354
1.66978
0.570636
2.07016
0.700395
20.2869
0.558963
25.6121
0.505815
1.78184
6.20319
10.7409
149.066
24.8778
110.311
33.5582
49.9903
71.3197
42.0616
179.004
19.8555
0.372507
0.257611
5.10483
9.66816
5.53153
7.51886
197.3
40.6661
135.546
16.6423
1.16448
59.3593
0.44895
14.1278
56.827
0.756469
298.167
0.923757
1.92442
79.0946
17.783
6.39108
10.6177
48.5306
10.0388
7.24788
0.324262
1.71131
47.4307
70.5719
7.59731
10.0803
37.5119
4.37079
29.8753
132.519
65.1063
87.2056
20.0674
0.355667
0.582581
6.89478
0.386835
1.12142
0.593013
0.851775
28.0203
0.579612
7.35847
0.449558
70.9281
58.0435
12.8588
8.12655
7.6918
15.2482
175.88
19.3681
72.4594
6.29419
0.41885
168.593
12.7594
59.6798
7.28247
108.837
40.7651
49.9798
0.605305
120.54
86.6625
4.91311
5.18468
4.39003
0.685059
1.12395
72.8116
30.6431
89.6821
75.3782
17.5484
48.6528
11.4925
13.1557
0.779248
0.52226
12.8364
0.345794
133.699
19.8451
169.579
6.94912
68.0464
58.1403
0.625511
0.493531
122.818
186.416
10.043
6.00986
23.105
66.1776
2.26896
22.7092
0.443501
3.90279
6.30868
0.416796
0.492447
3.23781
0.426528
0.367705
0.71434
0.398986
7.9607
59.9931
5.35375
1.21283
0.424224
81.5203
9.71856
10.2985
7.96561
21.7731
0.338697
38.6105
4.78209
2.34857
0.621856
6.64492
42.7834
0.506467
9.99346
4.18954
0.395929
9.22985
59.6809
21.4879
76.3106
134.441
0.426746
11.0554
29.1612
22.1109
28.6045
38.2877
39.0431
98.2205
0.691112
4.91639
0.453257
0.13164
19.3103
12.8414
200.091
150.893
96.5292
0.281552
15.244
130.186
47.2633
53.7048
55.1082
0.6555
0.405955
0.528196
29.2917
11.0265
25.187
4.57043
2.98698
4.41371
4.82052
10.1032
0.618423
0.586939
0.616576
15.0338
28.9411
11.7588
0.686856
8.19948
60.8238
0.301198
5.0919
1.20135
3.4375
12.2833
0.303163
24.1156
0.473846
10.3559
15.9319
0.77687
30.031
10.7929
0.482303
8.68436
62.8108
0.450432
61.1101
1.48055
0.62429
0.451232
1.81681
0.611985
0.336627
10.3639
0.504312
0.585558
2.15215
6.16445
5.84446
60.3294
28.6582
9.18032
97.9743
24.5771
0.642578
0.646159
63.701
10.3788
20.2109
77.2444
0.729417
18.5205
0.769117
52.7776
0.789062
54.8202
1.00291
67.0939
41.75
0.472637
36.4413
1.30505
0.454732
3.19152
0.712474
30.9396
34.1339
0.758941
38.3361
0.190788
0.612397
2.59306
0.498914
0.464227
31.5924
1.64369
18.2063
1.54352
126.751
1.27199
0.659109
0.428893
4.50222
51.3565
18.5322
1.78256
28.9533
7.50459
15.446
79.3831
32.0461
0.411265
1.92664
45.7791
14.714
17.3911
6.89732
66.0909
80.1417
67.2189
24.8226
68.9144
8.93065
8.79358
2.58138
6.74499
2.91822
0.44185
954.925
40.6055
0.385424
2.44726
54.5113
50.6476
8.70013
0.245767
3.31586
14.9983
1.4688
0.382573
26.9482
0.948103
20.4893
10.4692
60.8258
1.72285
0.429575
3.38034
3.05847
3.33657
31.9535
0.554692
43.4164
0.459635
65.8651
17.7226
3.19489
4.38067
24.028
9.24897
17.7732
11.5597
4.5484
1.45973
2.65173
14.8206
10.8327
5.54219
0.580779
0.371733
22.1669
36.8822
25.7482
2.65528
3.41639
7.402
3.5143
7.90299
7.55809
3.4977
26.4229
11.1042
29.314
0.345336
57.7449
0.421862
375.596
0.379638
0.678639
3.21709
0.51619
0.577056
47.5807
3.32445
6.70287
0.427924
3.82994
36.9791
214.835
69.7227
1.10054
0.499517
11.4921
3.94076
56.5863
17.2738
3.76309
8.61375
0.276089
56.7505
5.66023
23.9435
32.1347
5.55737
8.84337
35.052
5.56339
0.702566
32.7857
76.3659
32.5032
25.251
15.3948
7.02055
0.239475
55.8673
175.066
38.4195
111.982
0.43212
0.558918
41.5173
9.98472
0.63958
0.225242
13.0739
27.2606
0.525651
0.71732
2.13854
0.278796
0.69315
2.21304
3.65281
36.6015
0.319082
10.4552
21.8981
110.488
62.7394
2.76134
34.5317
4.43395
73.5577
0.681508
48.2724
103.495
28.7972
52.505
6.24463
18.8467
34.5889
166.507
4.04668
2.13479
1.48175
54.16
0.493122
3.98641
30.2836
13.5824
4.11029
44.5951
20.9098
8.5394
25.5
0.417535
0.437582
7.39112
10.5094
0.495363
4.76691
85.2143
9.35809
51.1561
46.2901
41.6387
0.303831
109.467
0.704262
36.0191
4.62901
8.12122
14.3405
0.415763
17.1069
0.387822
1.58749
0.200932
32.2248
0.823869
15.9379
4.68892
186.252
2.56258
137.552
152.298
3.66834
8.8391
0.360652
20.6299
8.67287
62.6524
71.7245
1.04193
0.213986
21.3952
27.1014
34.7757
161.274
66.3966
110.755
57.279
10.5675
0.500668
2.67223
15.5076
1.34614
76.0349
1.19327
0.379937
1.97798
18.5054
0.391978
0.864608
1.08279
7.52749
3.18532
4.97423
2.23927
0.326923
7.60399
12.4371
37.377
13.1553
0.315837
129.396
29.2036
53.9588
18.4301
1.1426
42.2823
1.20195
0.79709
0.461295
1.7399
752.823
11.3807
40.7849
19.1613
71.2188
132.545
20.0795
1.88163
0.764931
0.384749
1.78517
0.146861
1.65202
1.05101
0.660983
1.84498
0.419119
0.135228
1.13206
0.998039
0.666325
0.695399
0.126262
1.54778
1.27515
0.19202
0.763176
1.69765
0.526099
0.769045
0.578722
0.582657
3.79101
1.29307
0.439755
0.156262
0.621764
1.46081
1.08922
0.590266
0.179841
0.146049
0.994598
0.27064
1.84186
0.436119
0.311276
0.548113
0.591281
1.2596
3.06369
12.1273
8.35528
206.922
0.592856
3.28448
37.4378
95.6825
18.6128
1.56074
0.424259
16.6397
1.45686
9.645
68.5558
457.408
34.9256
105.68
18.6071
0.74305
0.761253
0.384725
3.5008
0.492003
17.2605
0.551731
3.76739
2.64211
1.36815
18.7052
7.4096
5.09223
32.992
23.2232
567.609
1.2724
7.07846
3.7158
13.9283
77.119
1.82671
46.4836
40.0739
34.199
4.79779
2.79162
11.8357
19.7261
11.4929
13.9055
981.846
1.10189
2.05512
0.214445
44.7543
28.9005
0.777104
76.2135
48.1721
0.500769
0.204185
0.655235
1.81526
1.21415
1.5282
0.170926
0.531806
0.520241
0.214294
2.23259
1.15971
0.532163
3.31696
0.478474
0.660755
1.32629
0.736472
0.216856
0.601575
0.386787
2.0292
0.252113
43.4754
60.7411
6.41729
22.8891
14.4207
13.9162
33.0944
0.543135
65.3861
20.2403
5.97515
46.3959
30.9605
6.94423
0.645238
31.1333
43.6456
4.73921
170.431
95.2061
20.109
0.320768
67.2226
32.2831
1.30371
70.5899
13.6531
64.5676
1.37875
0.706195
0.188254
56.7571
1.09856
42.2693
38.842
0.609715
120.741
0.571008
80.4703
1.39731
0.500399
0.435845
63.7578
1.24377
1.61766
1.11567
1.15612
114.134
10.7385
75.657
20.4119
16.8843
29.239
111.889
0.50293
9.1154
8.73819
60.9229
45.1901
2.09933
0.363524
3.44651
2.24252
59.3617
10.2508
1.14287
0.306086
0.775297
3.10414
0.32962
40.5261
4.54319
0.352495
1.17054
88.9346
100.03
12.0965
9.86552
72.0229
0.259794
56.1761
44.2376
35.2702
52.8285
57.2069
1.28392
37.6231
0.361514
2.27462
1.80821
46.0877
7.92866
8.79348
13.8634
29.5117
2.6514
0.385819
0.616585
1.32671
7.28299
39.9544
49.4439
183.249
46.1831
41.373
58.519
6.45929
30.4423
29.4637
65.3706
12.2004
30.6053
40.9676
46.2437
37.6927
117.667
118.911
1.06033
58.0939
32.9238
21.7269
10.2575
13.5644
100.94
39.1274
13.7988
53.2003
39.5003
121.958
6.57575
9.73766
288.535
2.65427
44.9941
14.6165
0.577247
0.36986
1.41905
59.4253
0.659002
0.51651
3.45605
86.5754
89.8466
49.3989
52.4022
93.1971
59.3863
95.6806
1.51085
94.4077
90.521
68.6524
67.6088
88.9009
60.423
90.5933
88.963
89.7436
9.21605
7.52327
15.6374
169.094
5.09991
13.7485
11.7465
5.33203
0.564836
1.71257
36.2149
57.3879
11.6388
2.18054
1.55926
28.8067
57.8977
15.6085
10.9023
8.94753
4.07861
7.26266
6.77845
28.6346
3.27406
119.483
6.69978
3.36323
0.732549
4.22679
1.5685
13.8629
1.9351
20.8884
0.876103
1.18152
16.4957
2.5686
3.09181
2.30817
4.65917
2.37689
72.2009
2.36007
40.1679
18.6069
4.08476
49.983
108.754
2.18856
87.905
29.4569
21.0727
136.235
1.17897
1.56676
119.483
24.7223
100.56
2.22866
4.38288
126.33
117.431
75.3164
1.79778
2.18175
1.31213
22.8995
4.83738
324.473
2.36068
4.70303
7.05787
2.56748
19.3949
0.929093
4.44173
51.7942
32.1481
6.18192
307.757
85.1276
1.19126
87.3982
2.98627
8.08913
6.75374
1.31692
133.211
5.60133
298.196
6.2077
7.52715
1.41249
58.4265
286.528
0.671362
112.409
44.0655
6.08707
5.966
7.15108
0.539733
6.20506
53.1674
35.3764
55.3215
180.783
157.747
2.9016
10.9919
4.53422
89.7184
12.225
2.31728
0.52918
227.29
0.670179
3.0393
0.453857
30.9051
13.2739
4.89327
8.6045
8.66659
10.6412
2.00963
9.47621
31.2826
3.43675
3.51762
12.2971
9.99125
2.97733
5.2019
5.77252
0.474004
66.3489
9.21886
7.36868
0.534805
0.691715
3.12869
9.73265
12.8006
18.1726
1.02816
6.17542
33.6273
47.0358
7.80081
6.81918
2.4832
27.8199
0.470062
0.512946
2.82988
7.78125
1.89762
3.18265
4.20158
18.365
20.7028
184.968
0.58221
22.6349
8.94803
0.569625
15.5381
22.8229
53.866
1.37606
8.24157
0.727782
4.46591
6.7263
23.3133
27.4319
1.49863
7.81596
0.512674
6.4478
2.0072
1.62749
25.1944
19.5923
17.6167
0.369489
0.681906
7.46561
7.51086
23.7531
1.75072
11.9516
0.502957
2.58673
0.383357
0.475625
34.741
7.42983
52.6369
18.4291
2.77838
9.01906
0.493964
0.590246
26.4038
50.6642
4.24023
4.77324
0.685449
19.4008
6.15711
3.36168
5.56204
0.902307
0.399267
0.576272
203.675
28.7056
5.26648
6.47103
5.5347
0.38242
2.13669
0.340962
0.560028
31.8487
3.64405
3.80152
5.80368
0.528466
1.69673
0.351839
0.570227
60.3488
40.0263
9.6913
31.8179
79.8153
4.21431
3.3555
57.3444
210.271
12.0586
5.25576
4.24357
45.4322
55.3726
0.382862
31.5659
47.9467
5.85073
25.8779
6.41864
1.6138
0.330633
0.548703
13.8098
55.9742
73.1074
27.9676
74.7819
0.177091
199.249
160.03
1.13212
6.36944
5.11146
14.0126
37.7014
4.92166
0.55764
0.803341
16.4837
7.50761
1.18082
30.8125
43.8206
52.2706
6.90936
41.6317
6.25836
3.70632
88.9193
2.67262
2.50445
59.5974
37.6536
36.6956
54.0004
6.42759
4.46238
37.8742
46.565
14.8444
1.53309
1.38223
0.415804
0.608707
48.657
50.6293
4.10898
26.9888
58.1768
53.9725
73.1815
6.68699
3.65326
9.95008
7.29677
0.181401
169.658
1.18255
43.6973
51.1548
4.833
11.3979
119.011
2.39932
6.96984
5.76534
6.46461
6.89525
29.0794
62.4958
57.449
2.23023
30.9315
37.7631
4.35226
6.51699
12.8921
3.62712
3.01319
14.5378
8.59415
10.3163
7.8682
1.26991
0.375663
0.591645
82.6866
86.5184
4.5929
1.11499
106.96
82.6888
25.7811
1.06107
59.2105
9.76933
6.86028
11.8103
0.195967
186.346
1.13706
0.999549
2.33665
130.256
77.4718
79.3375
4.42535
94.2515
82.0619
22.6615
15.97
13.2097
6.51561
11.3712
0.464858
0.554959
0.466878
1.34566
64.3172
26.9999
4.177
8.11973
11.0572
72.9642
19.9479
97.0937
73.321
14.3676
0.747784
45.4197
0.496218
0.491378
108.161
43.5948
77.3005
88.8069
47.1117
23.0025
14.9747
7.35529
6.43629
2.63755
0.505249
1.2146
0.412077
0.541414
1.04952
0.789503
1.20212
90.4657
83.1036
16.6143
82.3775
13.2338
29.137
5.22969
8.39034
48.5837
24.4029
38.4368
22.6085
2.77883
6.25164
62.6199
7.84684
11.3103
1.11103
72.7616
6.33644
4.29938
8.93377
32.0499
66.3864
11.7424
9.19958
7.53854
94.5412
7.78108
1.78023
0.861343
0.178539
2.54631
2.81055
87.2498
2.62793
0.475075
0.576179
25.3717
1.21454
10.3257
69.4514
1.07867
179.177
0.464396
0.491119
2.69769
29.8936
175.799
6.49236
0.478521
5.0491
98.069
41.1601
1.06747
9.53512
2.70207
7.85811
43.3063
6.76518
0.435496
11.7273
7.06293
0.809223
4.02278
6.2477
2.65609
10.7938
10.0334
17.5173
3.24493
8.77951
22.0492
19.3064
8.03577
22.9709
21.8858
6.33409
16.6252
57.3412
0.45291
83.5032
69.3934
35.6635
38.2659
8.50932
132.363
30.7321
48.617
0.490878
78.1767
2.20371
9.45061
0.583933
0.319606
57.9677
15.2987
34.9729
10.0061
47.8415
39.6871
5.34191
65.5923
6.85796
48.5521
11.7984
11.8001
23.261
1.25843
0.350277
0.602597
14.4624
155.413
51.4928
4.05213
0.343661
96.4575
16.3506
206.072
122.044
62.9202
84.6412
27.7502
0.529707
31.7452
11.8227
10.0922
71.3409
82.7773
1.75547
41.6673
35.6607
65.9393
82.4436
2.4535
44.9428
59.9009
40.8485
2.84476
1.33575
24.5264
98.2463
3.0849
23.9553
81.2611
90.1531
25.4782
1.08846
5.12402
24.9264
54.682
4.78949
32.4042
57.2735
32.5395
4.45885
25.1785
46.8602
121.287
17.1267
4.71137
0.659751
0.389789
29.1971
161.246
40.2786
99.411
60.3055
394.472
1.79295
13.3332
15.055
78.5472
1.40164
188.131
38.8523
1.65691
0.577018
11.4849
0.597248
1.32855
91.0849
87.2802
88.3908
33.0058
165.838
59.3756
14.8294
18.9656
89.6181
84.0032
14.9624
666.212
5.01812
2.07822
10.2
99.1082
5.13064
21.9197
37.5382
6.82997
2.02757
43.0639
6.05011
1.79824
53.7783
0.33418
36.8678
0.529392
57.8677
0.466947
43.4872
16.6139
35.8783
16.9504
19.8878
68.3654
57.8305
0.408456
128.534
0.900027
0.52049
1.22544
0.197554
3.16049
86.151
40.5629
100.885
7.78363
79.2265
126.044
1.55535
25.8127
0.668137
5.27276
3.28963
0.225993
82.3932
52.8875
0.521292
0.626672
86.6561
2.12859
17.1312
7.80226
1.01199
20.53
5.62694
104.201
2.9813
33.615
0.828956
4.02348
13.4113
99.6523
5.88071
85.7029
78.8786
2.14545
5.92873
43.5731
2.28182
0.584222
99.3775
1.29311
1.10985
173.417
11.2149
95.7825
0.795559
77.4063
53.4234
0.309556
25.949
18.321
85.0918
45.0738
9.49208
15.6007
43.582
43.8939
13.7238
9.95409
8.77456
5.43643
0.430948
0.407466
63.6997
32.5806
18.9038
1.39302
91.1239
9.61957
74.3711
22.8983
4.94237
5.17052
63.9066
74.2133
4.23902
0.374181
0.836702
32.6162
27.9188
35.0909
2.07354
2.60673
55.2948
92.5901
1.96084
29.1204
131.324
72.0609
23.4719
69.931
0.149273
11.1417
12.4954
1.16732
0.385126
0.535833
22.8186
1.15255
9.25084
59.3465
2.09846
64.5947
13.3904
15.0335
28.785
192.132
6.23932
30.7048
0.992824
20.7049
69.374
17.6722
20.5148
1.42706
0.290079
0.560592
46.1402
15.3879
40.7331
75.923
16.1155
31.9319
202.382
39.8325
74.7645
0.126475
63.7958
0.318078
2.14503
48.11
26.8059
19.8372
1.54035
4.61901
31.665
37.6405
0.54065
1.31113
29.3158
79.2965
10.9827
20.5879
16.7578
62.309
204.386
168.21
2.06435
15.7594
62.2901
122.125
18.7806
49.3022
5.14924
10.5456
24.5697
56.6685
12.9358
27.4632
2.81782
13.1393
0.201207
21.8827
22.5661
1.14447
38.0737
0.27185
13.9149
105.266
35.5181
0.756615
3.28715
41.0257
39.5196
54.4852
30.5667
1.72324
1.49886
0.192943
0.419667
1.24891
2.52942
125.296
0.374116
27.7645
45.0776
3.56257
1.87899
3.34684
9.03196
96.6151
1.1925
0.352339
0.370244
0.757329
31.4896
11.1602
4.3022
0.619863
4.32908
0.518795
0.442433
14.5044
13.7157
5.91369
22.9231
20.9177
2.12399
10.7001
15.7207
43.1107
1.24711
0.145849
0.372133
2.17471
1.0984
31.1264
2.22411
76.1825
64.1113
43.2273
57.0997
1.14813
6.35046
4.31742
223.39
16.5001
11.9948
1.27604
0.318213
0.500935
4.91576
0.48317
88.3667
203.988
5.58913
4.14962
0.367815
0.706307
0.455451
23.4454
1.0604
62.0682
42.1458
35.4445
76.484
0.135575
1.31856
8.36683
101.188
2.70482
71.4215
11.8542
30.3306
0.507606
6.81577
0.527356
18.6278
24.2051
25.4118
28.592
2.16838
2.20172
5.76666
0.490459
2.67243
16.3762
40.1334
21.8397
7.17423
36.7176
17.4559
16.4216
7.31282
46.6665
10.439
18.0926
1.07935
44.1196
77.3362
97.3831
13.237
0.526782
1.17849
0.145547
0.701704
1.02473
12.6535
4.30961
13.6256
92.402
1.11848
2.3377
50.6015
7.95493
29.7812
11.5212
28.8966
44.3053
8.79348
12.1734
14.9863
7.23408
11.8061
1.33754
6.01231
20.2677
0.38332
16.3079
21.47
1.65351
7.62497
0.524064
0.279655
0.404928
0.413736
0.803841
0.133166
1.83126
2.05528
8.69379
2.91423
0.408943
0.816224
83.8408
38.2013
13.6825
33.9705
1.36455
21.4783
13.9705
78.9161
47.614
34.6154
344.607
7.44369
63.5091
95.9405
126.195
22.8316
0.26634
0.327735
0.970323
0.220049
0.374579
7.65057
14.8221
84.3324
0.270069
0.125619
1.61974
10.3827
12.3057
58.4247
0.834717
0.163761
60.7528
12.4831
13.4518
8.12542
7.78211
1.04078
21.5715
20.0316
97.1619
0.5674
15.4426
99.9802
4.23033
22.1516
46.8696
0.317984
0.679008
4.21081
0.425893
0.490301
1.06344
0.465108
1.85948
3.1458
5.98388
0.646213
1.1284
8.39408
146.685
63.1131
0.397828
1.29664
0.327144
13.4648
6.82064
2.44575
16.4152
35.9693
1.20275
70.1161
10.1679
34.1276
95.9326
259.246
62.0295
31.2526
2.15629
9.96566
26.3118
52.6867
0.733414
0.122754
95.3249
1.87834
76.7232
5.3525
2.05389
12.1963
149.608
38.5264
0.642792
0.951784
35.0173
14.3223
4.56372
1.89021
15.9041
12.5292
122.761
0.576485
36.5041
1.30391
0.245631
0.422908
0.172556
1.96778
0.15632
49.6327
1.83494
48.9095
91.4278
17.5034
21.8827
190.34
8.1091
5.26898
150.516
11.6482
13.6383
181.869
6.39245
138.596
1.45886
0.226403
0.492442
72.4198
4.20565
1.17369
0.425227
0.701944
1.64922
35.2506
94.7712
28.2583
8.43665
15.7167
99.1408
29.4736
26.9484
32.7849
17.7834
13.9262
101.15
23.2105
176.106
47.5521
0.415079
0.565731
0.870365
35.748
0.955873
55.616
52.2967
21.742
15.816
16.1014
23.5859
1.71861
0.461887
1.07738
0.46219
1.75248
33.526
12.7815
23.5475
15.9046
9.39836
42.79
47.816
25.1538
279.754
16.7471
0.346804
0.950949
0.586469
87.9877
2.70865
49.1452
2.88728
1.19021
1.14207
74.8417
67.2893
5.69149
6.9477
33.1004
51.9162
1.40121
0.348724
1.44774
23.8935
288.749
5.79851
25.3051
34.4232
50.3039
10.2268
9.61122
5.33232
14.8775
64.8855
4.61397
1.10771
5.70431
0.895819
26.0635
0.638383
26.2739
284.744
30.032
9.64154
46.5964
0.712637
6.99027
5.66367
1.08395
30.3547
1.20739
0.387813
0.940107
21.1886
92.8117
65.0273
21.9914
4.76549
0.28857
1.8145
1.21354
0.192559
0.447023
0.476815
28.4232
52.8241
28.0718
6.97435
15.315
88.7063
52.2101
9.466
0.709175
0.799771
4.27041
147.801
126.957
41.2319
2.57233
0.134597
74.6667
1.97219
18.3174
29.6793
68.6315
2.82771
121.995
43.205
26.5344
7.99168
93.6854
276.565
1.08921
44.0954
0.157376
2.16823
61.423
35.7058
0.920955
0.269345
1.69974
1.24225
1.0178
85.5486
11.0117
11.5187
187.558
17.2644
6.45057
60.9328
31.2352
12.971
120.963
0.174009
20.7086
0.43518
17.7439
66.0252
1.10634
19.8229
48.0091
7.4054
53.7867
0.208498
2.70238
40.1981
117.788
54.5545
89.3385
22.2188
305.394
1.41005
28.8271
49.2832
5.33707
102.653
21.0959
130.151
23.2314
9.38258
230.503
44.9783
18.0115
2.55976
0.278882
0.517552
35.3742
5.65054
4.36328
3.56376
28.5415
31.2734
1.00957
0.140311
2.31619
13.3959
69.5897
0.819521
0.197152
13.0552
47.4693
29.1566
18.3765
1.12925
117.436
13.8384
3.51021
16.5842
52.461
0.160564
47.612
27.1385
58.9079
31.6442
31.7883
9.14286
1.96111
0.448765
0.361444
1.16671
0.455152
7.45375
9.92437
57.7793
3.12551
16.3751
130.274
43.8066
39.1391
9.67067
7.59703
23.7456
7.37987
10.1141
3.07165
70.0898
126.764
80.7767
54.9273
62.5993
4.07064
37.0213
42.8135
4.10516
0.251669
0.666609
91.9102
29.6421
1.28182
62.695
80.6451
2.11956
50.7653
21.2555
65.2599
154.978
77.1411
1.00823
61.5139
0.472814
1.13663
0.309636
56.5487
37.9125
74.5824
0.523627
1.59609
109.896
7.30482
0.936037
0.605177
58.7813
37.7424
86.8894
150.978
50.6379
0.328726
0.687657
34.7436
50.9505
175.405
142.616
200.965
8.55951
0.629114
98.5404
95.0903
0.380227
0.19984
1.36992
0.594923
0.538145
4.80695
94.0494
43.1613
0.764879
25.0627
45.9442
7.23029
75.2674
101.23
74.0685
4.86786
33.1022
2.2617
31.4771
13.2743
4.56701
130.296
149.403
39.027
70.7326
326.185
294.6
2.70135
0.618779
142.037
76.1479
2.32408
4.85627
0.435243
0.40325
31.633
112.632
51.3497
6.46124
0.894259
85.2406
0.542383
1.0701
0.365938
0.876713
0.212204
59.7713
139.711
76.6578
4.20162
115.277
0.15718
2.91629
96.0702
38.3999
55.401
35.3378
7.21727
92.9868
60.3842
1.01415
5.60621
7.8064
6.22174
4.32902
6.1296
83.5513
34.3227
33.4326
12.5302
21.5851
18.518
20.0542
0.291036
0.824951
52.4465
2.59715
13.9625
479.402
10.3411
93.3284
56.1368
0.320117
0.359342
0.263205
1.22002
54.9115
58.0448
75.6595
2.37147
14.5282
5.89027
11.3908
9.41612
16.0486
6.31006
5.45881
6.76073
1.19104
0.270599
0.198614
0.554934
114.013
41.9527
4.24325
2.20103
477.49
111.917
141.07
40.2362
1.74746
37.6154
4.00731
2.13992
41.9717
157.377
0.723603
1.04299
0.68171
51.8387
8.6783
95.1215
1.02197
9.27488
35.5682
15.8913
0.58438
0.403806
0.33193
0.734496
8.55576
102.34
47.066
6.12085
89.1974
36.2033
54.9723
64.4854
7.58004
57.9049
9.45522
13.8398
37.2238
19.8632
26.494
0.237998
0.308759
45.2631
1.49603
25.023
2.23356
75.8392
31.2094
37.1575
0.793888
40.5009
0.782733
46.6233
35.1142
27.8225
31.8696
13.0996
63.4114
16.1624
0.743176
28.9565
35.2658
0.354087
0.425
0.438014
2.91506
1.84479
17.1717
34.4143
1.87687
4.96685
116.259
0.183048
19.6954
0.453917
1.89132
149.608
155.586
1.16115
0.231489
0.235613
2.24578
1.25945
0.697575
1.19825
0.368652
0.281299
1.3409
0.375023
48.9384
4.20023
1.61681
28.4996
41.3872
6.13298
30.7557
1.90612
6.81958
25.8416
76.0301
20.2592
0.470743
22.91
123.066
70.2586
78.6333
15.503
7.69228
0.275017
0.361275
31.8319
135.836
25.9865
4.38157
10.4061
8.86737
1.72359
4.73633
3.98937
68.7164
2.03859
61.4089
0.293984
8.58056
111.105
28.3312
30.4102
34.6954
4.26032
88.8103
42.5856
38.2908
4.06265
1.98688
1.40424
1.2447
7.2695
16.4709
1.10446
44.8538
47.4739
122.073
41.9579
11.3537
2.16192
4.76868
1.15399
87.2095
24.1653
44.2863
3.73168
95.173
4.9369
26.4447
38.1606
0.999248
0.992806
7.27518
100.112
63.7934
40.0936
78.9807
43.7705
78.1464
3.77476
4.04713
0.560368
6.1799
2.38604
865.5
99.0932
4.3347
98.1575
28.0883
3.27546
0.173858
8.4191
0.872074
2.40311
0.773858
43.4103
10.6376
38.156
43.8223
32.1371
0.234643
3.13925
1.18266
10.438
17.7977
42.4263
682.053
18.1082
11.0453
0.192307
10.2713
107.624
59.2291
7.37884
11.7522
0.699025
12.3893
5.66208
2.74059
15.1248
180.842
0.4524
1.62709
0.242599
20.9094
11.8215
1.35626
70.6598
2.00691
348.963
63.6698
64.6577
91.1962
0.61051
0.421891
13.5017
7.52182
0.526712
5.21827
4.92179
40.5832
94.8968
57.2454
6.20086
3.08917
126.257
1.04491
11.6775
15.4701
26.3447
64.9894
94.1798
0.207628
1.37246
0.191186
79.5529
12.3635
148.59
35.2517
2.49437
32.4364
117.185
58.7329
59.209
4.65744
73.1969
42.9151
16.7405
0.608895
0.422353
31.5255
0.916493
12.1271
7.94059
0.372416
90.2976
367.72
320.656
7.04225
87.5397
1.73007
4.10069
4.74979
4.70452
82.1022
21.5761
0.191794
0.323254
0.497107
0.522788
12.326
12.397
91.9651
21.8383
0.996353
332.989
0.880885
56.8065
103.414
98.3598
52.5404
6.26797
6.78303
73.3284
0.586021
0.405861
0.919812
0.174179
1.02091
26.0568
61.158
1.02884
41.8594
0.545362
0.566663
7.21367
5.99443
0.554748
0.465749
90.8074
32.2256
34.4076
10.3844
0.40424
0.660885
14.2127
194.241
0.398107
406.721
0.201466
2.02677
54.1646
43.489
0.756942
16.5735
143.216
3.87739
20.0175
41.4447
17.7925
71.7259
71.7862
10.9126
16.9568
1.21672
11.3893
90.6361
14.1112
133.881
6.25064
8.10296
0.956425
26.9513
14.2961
20.6043
70.2454
3.74557
7.28653
7.93416
0.737401
0.332705
13.6615
0.375916
5.82625
14.0505
10.1464
12.531
16.9318
66.5076
97.5079
88.0176
56.998
0.576615
0.58039
1.11231
0.423215
5.52181
4.60554
0.483897
1.71666
12.6289
94.5576
1.17685
0.782515
0.80083
7.04956
88.107
0.329789
14.8262
9.83742
0.379308
60.7739
35.9092
0.648808
0.598089
55.4906
84.5527
25.6422
0.72813
2.49423
0.425351
0.567128
8.59149
0.751974
0.54894
26.1015
1.11409
0.966617
38.2699
58.6309
0.37599
15.2369
0.36019
61.2127
1.16836
104.631
1.95943
0.125456
5.56114
63.9869
72.5854
105.622
60.1068
22.6511
70.0764
0.748104
53.7424
70.3094
0.469033
0.681341
15.8464
0.230952
162.689
6.73526
24.1712
1.20726
50.5203
84.0321
67.4283
5.43749
725.632
13.3214
0.857345
1.15956
0.275906
1.48147
0.451387
0.576469
3.74445
0.456116
0.908406
0.475227
0.452746
3.7567
1.16466
5.54165
21.7127
65.9672
126.183
6.2391
4.79625
0.676501
1.40436
66.2928
41.0214
7.91435
6.01286
100.418
138.485
95.2265
5.07458
11.0329
0.544929
1.6786
0.503773
31.5306
8.36905
47.9663
1.29185
113.902
242.025
95.4401