/*--------------------------------*- C++ -*----------------------------------*\
| =========                 |                                                 |
| \\      /  F ield         | OpenFOAM: The Open Source CFD Toolbox           |
|  \\    /   O peration     | Version:  v1912                                 |
|   \\  /    A nd           | Website:  www.openfoam.com                      |
|    \\/     M anipulation  |                                                 |
\*---------------------------------------------------------------------------*/
FoamFile
{
    version     2.0;
    format      ascii;
    class       volScalarField;
    location    "0.65";
    object      nut;
}
// * * * * * * * * * * * * * * * * * * * * * * * * * * * * * * * * * * * * * //

dimensions      [0 2 -1 0 0 0 0];


internalField   nonuniform List<scalar> 
5794
(
0.0006855
0.000829695
0.00513421
0.00426721
0.0112778
0.000855576
0.000943425
0.000925202
0.00219815
0.00132336
0.00204391
0.00161729
0.00135792
0.00941433
0.00178256
0.000445367
0.00947741
0.00801846
0.000889865
0.000541373
0.00140315
0.00066205
0.0013857
0.001386
0.00119757
0.00436136
0.0121903
0.0144961
0.00364976
0.000865739
0.00132759
0.00210819
0.00235572
0.00167614
0.00235972
0.00283182
0.000785845
0.00189057
0.00175113
0.00507888
0.0045897
0.00524053
0.00074626
0.000646536
0.00137155
0.00231046
0.00202067
0.00108233
0.00155329
0.000546279
0.000569272
0.00299526
0.000809725
0.00214497
0.000116985
0.00229826
0.00202107
0.00158199
0.000737389
0.00574091
0.00133604
0.000565666
0.00160594
0.00485387
0.00555855
0.00076471
0.00343918
0.000659555
0.00623877
0.000726064
0.00615099
0.00344686
0.0153473
0.000812919
0.00656111
0.00971219
0.000466571
0.00388121
0.000632501
0.00019543
0.00037402
0.00061734
0.0073348
0.00164674
0.0018754
0.000850325
0.000727919
0.00100573
0.00247107
0.0020127
0.00496684
0.00201676
0.00327432
0.00540973
0.00248643
0.00811762
0.00391511
0.00305164
0.00187156
0.00143765
0.00141404
0.00117945
0.00076424
0.0123494
0.0010514
0.0121391
0.000497438
0.00409799
0.00512709
0.000642534
0.000675702
0.000445518
0.0013129
0.00153506
0.00223087
0.00401059
0.00279664
0.00563848
0.00124274
0.00101137
0.00757803
0.000242825
0.000845225
0.0128979
0.000909501
0.00382311
0.00380302
0.000755453
0.00351855
0.00386286
0.00192309
0.00169624
0.00339197
0.00368656
0.0100156
0.00216608
0.00304276
0.000628947
0.00158651
0.00132785
0.00126891
0.00906989
0.000820112
0.010358
0.00189275
0.0132343
0.00187111
0.00153825
0.0102746
0.00467702
0.000725686
0.0018576
0.0114494
0.00098386
0.0137138
0.00182228
0.00151469
0.00111824
0.00214563
0.00171156
0.000542365
0.000993225
0.0005
0.000994621
0.00195887
0.00189854
0.000912293
0.000820912
0.000475528
0.000288792
0.000535576
0.00194143
0.000738212
0.000731065
0.000557093
0.000952138
0.00040969
0.000983632
0.000548715
0.00187925
0.000991402
0.00127077
0.000728572
0.00151163
0.000750678
0.00393367
0.00114149
0.00108919
0.000709523
0.000824537
0.00167388
0.00148973
0.00167502
0.000990955
0.000820323
0.00109896
0.000780229
0.000393088
0.000571237
0.00101442
0.00075621
0.00209914
0.000861881
0.000916105
0.00175754
0.00200974
0.000835688
0.00573704
0.0120043
0.00179421
0.000738025
0.000857624
0.00313684
0.0024134
0.00183002
0.002733
0.00341418
0.00393417
0.00349456
0.00550357
0.000856324
0.00191287
0.00825934
0.00351067
0.00242543
0.00628945
0.000594348
0.00347633
0.00270508
0.00263981
0.00115816
0.00107025
0.00135553
0.00361709
0.0035466
0.00989753
0.0125044
0.00220952
0.000920305
0.000894572
0.000783522
0.00752581
0.00196056
0.00174217
0.00157245
0.000824069
0.00126787
0.0096022
0.0011233
0.000909596
0.000677714
0.000791245
0.0120656
0.000547032
0.000808914
0.0183751
0.000919089
0.000912497
0.00383286
0.00085213
0.00267209
0.00298495
0.00228388
0.000599225
0.00130677
0.000927866
0.00715496
0.0038313
0.000682878
0.00288186
0.00259041
0.00112623
0.00249669
0.00515002
0.000868337
0.00209409
0.00210385
0.00136421
0.00265641
0.00125346
0.000534912
0.0032052
0.00332277
0.00439297
0.00331309
0.00516289
0.00230905
0.00285768
0.00525557
0.00753676
0.0023435
0.00182411
0.00169188
0.00179496
0.000769568
0.00346062
0.00213067
0.00278878
0.00212241
0.000927589
0.000417349
0.000983513
0.000312767
0.00249022
0.000666077
0.00320812
0.00270582
0.00476833
0.00250335
0.0022499
0.00116257
0.00273772
0.00202255
0.00145187
0.0007828
0.000904927
0.00503544
0.0155064
0.0045985
0.0039547
0.00430363
0.00344759
0.00478424
0.0117202
0.00056387
0.00174601
0.00112455
0.00139645
0.00107284
0.0018772
0.00178856
0.000824953
0.000897886
0.0014657
0.00136497
0.000828087
0.000724486
0.000398019
0.000618118
0.000893033
0.000561857
0.000814328
0.00229095
0.000829555
0.000568862
0.000652232
0.00168196
0.00135878
0.00222125
0.00178345
0.00181825
0.00231281
0.00145303
0.00126332
0.00081272
0.00269795
0.000422951
0.00190152
0.000808094
0.000789346
0.00571464
0.0030819
0.00308385
0.00207246
0.0012409
0.00516468
0.00175324
0.00155358
0.00135916
0.0009872
0.00287383
0.000555323
0.00597483
0.00125351
0.00642546
0.00302084
0.00166235
0.00151135
0.00179577
0.00146083
0.00686581
0.0031486
0.000749917
0.00223453
0.00190152
0.00158162
0.00592735
0.00286972
0.00191365
0.00103906
0.000832917
0.00153776
0.000682373
0.00111372
0.000695057
0.000669379
0.000550598
0.00106652
0.0010713
0.00190325
0.00129404
0.00169848
0.0126035
0.000360805
0.000360116
0.00278876
0.00075673
0.00112379
0.000570196
0.00402361
0.00321941
0.00192407
0.00449512
0.0011741
0.00175173
0.00152738
0.000789748
0.00606693
0.00194649
0.00344579
0.00174089
0.00281801
0.00521336
0.00259072
0.000906697
0.000913418
0.000573733
0.00148267
0.000736724
0.000626447
0.00283994
0.000783835
0.00879362
0.00200321
0.00110946
0.00221573
0.00125419
0.00102095
0.0014126
0.00132596
0.00124807
0.000805327
0.000952491
0.00125849
0.00131668
0.00458233
0.00236466
0.00119801
0.000865306
0.00207041
0.000780291
0.000633686
0.00184979
0.000772626
0.00471772
0.000423048
0.00447535
0.0082318
0.00320927
0.00713582
0.000966144
0.000648129
0.000562376
0.00120222
0.00154807
0.00390374
0.00954065
0.0139936
0.00530734
0.000704249
0.00017162
0.0127906
0.0045545
0.0053285
0.00270535
0.00305835
0.0163742
0.0159269
0.000914801
0.000682963
0.000693879
0.000912354
0.00167154
0.00414273
0.00533129
0.00342282
0.000861145
0.000865189
0.0028464
0.000647767
0.000709955
0.00414854
0.00405208
0.0108714
0.000704334
0.00118361
0.000953003
0.0028259
0.000613512
0.00255221
0.0162627
0.0164712
0.000727902
0.00163901
0.010169
0.000541603
0.00116113
0.00115209
0.00495971
0.000926441
0.00811058
0.00266634
0.00802407
0.000471385
0.00114905
0.00213525
0.0036544
0.00051319
0.000804759
0.0129088
0.00139326
0.000540121
0.0129605
0.00575667
0.00448642
0.000756645
0.000937311
0.0021296
0.000502509
0.000685519
0.000875563
0.000316332
0.00891807
0.00250934
0.005345
0.00245214
0.00078513
0.00308083
0.00389856
0.0022183
0.000605964
0.00222601
0.000574979
0.00659871
0.00116163
0.000630353
0.00075465
0.0104839
0.00118605
0.000883536
0.0124257
0.00141493
0.000434946
0.000725407
0.000835583
0.000663137
0.000862209
0.000624681
0.000466148
0.00539709
0.0187816
0.000708304
0.00352688
0.00219759
0.0071297
0.000871122
0.000566018
0.00374918
0.000283482
0.0010231
0.00166989
0.00279718
0.00145646
0.00127282
0.00155987
0.00085844
0.0147616
0.0028177
0.00368489
0.00296817
0.00469167
0.0024274
0.007725
0.00701179
0.00333692
0.00141641
0.00123173
0.00423262
0.00234765
0.00479818
0.000994159
0.00101858
0.000693348
0.00521954
0.00240644
0.00321856
0.00139144
0.000831112
0.000758037
0.00246573
0.000811385
0.00181052
0.00248667
0.00550264
0.000588488
0.00281461
0.00383585
0.00073817
0.000136664
0.00545148
0.0151661
0.0182455
0.0110195
0.000768591
0.00126085
0.000770595
0.0023495
0.00103032
0.00087509
0.00157308
0.000288458
0.00351561
0.00428323
0.00549593
0.000426448
0.000787979
0.0014519
0.00806754
0.00607379
0.00111669
0.000777168
0.000915506
0.000258764
0.00123227
0.000576451
0.00245001
0.00444472
0.000808924
0.00327077
0.0141284
0.000945752
0.00086787
0.00390926
0.00245617
0.0029232
0.00532307
0.00225704
0.00101232
0.00286919
0.000666659
0.000400454
0.000883376
0.00290348
0.000592414
0.000774759
0.00313359
0.0144033
0.00225177
0.00200949
0.00309658
0.00221473
0.00089076
0.00068235
0.000858377
0.000687003
0.00283433
0.0055498
0.00538703
0.00232401
0.00274624
0.00218915
0.00100766
0.0118428
0.00155624
0.00155613
0.00265238
0.00579971
0.000966923
0.0112008
0.00101191
0.00065056
0.00506326
0.00234389
0.000728475
0.00562667
0.00286518
0.00359704
0.00240981
0.00257341
0.000580728
0.00423319
0.00813802
0.00431198
0.00303597
0.0015253
0.00193082
0.00620117
0.000313782
0.000463516
0.000769418
0.000586334
0.000655005
0.000305464
0.000980285
0.00544117
0.00329938
0.00268991
0.00347835
0.00305917
0.00685464
0.00116675
0.0076857
0.00333642
0.00277788
0.00450817
0.000775133
0.000732917
0.0164623
0.00329361
0.00519146
0.00756535
0.00466789
0.00318736
0.00178792
0.0174025
0.000914878
0.000818838
0.000818472
0.0079837
0.000957261
0.00269349
0.00323261
0.00638799
0.00240371
0.0016817
0.00311221
0.00595548
0.00447321
0.00200902
0.00325223
0.00455939
0.000294542
0.000233835
0.00043333
0.000482371
0.00471997
0.00245362
0.00455349
0.000706356
0.0008028
0.000607715
0.000750506
0.00172523
0.000433192
0.00241576
0.00508536
0.000755499
0.00590991
0.00259529
0.000709907
0.000825894
0.017818
0.00472756
0.00282273
0.00581278
0.00579448
0.00262805
0.00343303
0.00072151
0.00387033
0.00224119
0.00452949
0.00553322
0.00305004
0.00565043
0.000790379
0.000735345
0.000916769
0.0104719
0.000856488
0.00633331
0.0153789
0.000602254
0.000921129
0.000553656
0.00489013
0.00259471
0.00660207
0.00508549
0.00246193
0.00130124
0.005692
0.00680627
0.00426141
0.00110682
0.00271345
0.000691212
0.00262783
0.000712727
0.00416239
0.000862623
0.00551716
0.00580827
0.00127306
0.000617253
0.00198621
0.00628252
0.0055675
0.00319082
0.00872436
0.00319593
0.00124391
0.000939963
0.00109498
0.00962427
0.00120841
0.00290811
0.00296901
0.00802196
0.000486203
0.000790585
0.000861289
0.00141799
0.0128136
0.00119839
0.000768548
0.00242243
0.00515689
0.00157283
0.00242624
0.0045591
0.00471667
0.000771169
0.00204469
0.00757144
0.00489673
0.00363225
0.0174516
0.000378115
0.000226254
0.000356079
0.000659996
0.00461991
0.00200925
0.00087522
0.00108755
0.00108082
0.000709724
0.00083916
0.0188385
0.00252758
0.00572487
0.00163559
0.00236355
0.00370445
0.00316009
0.0124476
0.00311695
0.00102372
0.000655922
0.000752377
0.00534809
0.000790362
0.00494914
0.00749526
0.00355689
0.00512224
0.00395858
0.00129294
0.0124748
0.00172638
0.000772971
0.00327429
0.00100563
0.00469007
0.00262723
0.00314173
0.00363873
0.00082404
0.000752354
0.000678658
0.00501842
0.00379965
0.000911124
0.000730846
0.00283218
0.00108542
0.00405071
0.000669139
0.000799195
0.00290182
0.00395926
0.0028036
0.00588758
0.00329762
0.00597733
0.0098336
0.000607245
0.000789562
0.0041326
0.0011565
0.00229576
0.000573854
0.00125609
0.00224802
0.000433121
0.000789966
0.00109004
0.00586063
0.00344173
0.00448126
0.000845055
0.00301849
0.00555928
0.0150965
0.00198896
0.00316643
0.000784496
0.000895989
0.0142573
0.00109704
0.00364844
0.000832354
0.00133429
0.000956677
0.00144687
0.000255335
0.00193996
0.00124139
0.000566252
0.000515165
0.000487061
0.000202216
0.000250275
0.00066045
0.0117441
0.0135692
0.00318439
0.00172612
0.00270435
0.00591782
0.000761914
0.000544192
0.00104484
0.00769525
0.0011021
0.0175815
0.00608631
0.00233981
0.000785476
0.00733505
0.00158519
0.000690452
0.000741045
0.0189896
0.00546747
0.000834151
0.000829685
0.000878097
0.00343994
0.00143395
0.0105116
0.000748766
0.000530733
0.000659829
0.000647471
0.000599741
0.00264969
0.00106024
0.00102818
0.000634417
0.000778836
0.000789214
0.0106187
0.000782149
0.00295201
0.00114871
0.00169495
0.000831588
0.00114849
0.00105814
0.0011629
0.000702427
0.000936357
0.000756268
0.0023947
0.000767854
0.00109618
0.00484075
0.000858148
0.000833681
0.0034377
0.000941819
0.000830211
0.002055
0.000776663
0.0174994
0.00206985
0.000602501
0.000825739
0.000875201
0.00983862
0.0010007
0.00281378
0.00249064
0.00531591
0.000813482
0.000852018
0.000999843
0.000603939
0.000835427
0.00128416
0.00188185
0.00166145
0.001432
0.000203556
0.00182711
0.00141431
0.00100245
0.00106881
0.00168962
0.000481144
0.000848038
0.000633531
0.000966173
0.000746588
0.0101611
0.000796203
0.00368078
0.000789865
0.000782935
0.000736026
0.000317903
0.000897296
0.000825566
0.00841304
0.0110416
0.00426365
0.000645008
0.000826663
0.00346921
0.000869808
0.00451774
0.00117011
0.00327349
0.00507171
0.000861419
0.00683218
0.000503802
0.000841393
0.00606827
0.000753688
0.0122271
0.000728755
0.00053585
0.00500696
0.00641846
0.000644796
0.00286616
0.000661484
0.001365
0.000541597
0.000638091
0.00190216
0.000840005
0.000830367
0.000814283
0.00179738
0.00113958
0.00116326
0.00125493
0.00408455
0.000990868
0.000723738
0.00537354
0.00239026
0.00175858
0.000713561
0.00578908
0.00534117
0.00518585
0.00875553
0.00174844
0.00108115
0.000332506
0.0148781
0.00242901
0.0044254
0.00280683
0.0151432
0.00218431
0.000239329
0.00109517
0.000375007
0.000325598
0.00285787
0.000355094
0.00113115
0.0011048
0.000292985
0.00108317
0.000179473
0.000263462
0.000607106
0.000541098
0.00116655
0.0041621
0.00281578
0.00593645
0.000500676
0.00139835
0.00287146
0.00134115
0.000557469
0.000789411
0.00963965
0.000813645
0.00289036
0.00103209
0.000743702
0.000939005
0.0175049
0.0112164
0.000574067
0.00298078
0.00576309
0.00475528
0.00892015
0.00074224
0.00624267
0.00483956
0.00328359
0.000970846
0.00873246
0.000726138
0.000725883
0.0024542
0.00187576
0.00127609
0.000638662
0.0143967
0.00107223
0.000588946
0.00317572
0.00484676
0.00494415
0.000764257
0.000614703
0.000904638
0.000917357
0.00163698
0.000741848
0.0115897
0.00154172
0.00407025
0.00488633
0.0043148
0.00169192
0.00112216
0.00346028
0.00132697
0.000803892
0.00102905
0.000636099
0.00115203
0.000778565
0.0164658
0.000978764
0.000804105
0.000753563
0.000918748
0.000832234
0.000776228
0.000868249
0.000746065
0.00267685
0.00186444
0.00693811
0.000733961
0.000743522
0.000840304
0.000565759
0.00184624
0.0103015
0.00185806
0.000655703
0.000666481
0.000759457
0.0036656
0.000801662
0.000703618
0.000602001
0.000854285
0.000843632
0.0010476
0.000675443
0.00818046
0.000519214
0.0144643
0.000575964
0.00205864
0.000952379
0.00100482
0.000635895
0.00322978
0.00186676
0.000743485
0.000573116
0.000631213
0.00102469
0.00158003
0.00112463
0.00291367
0.000786893
0.00224015
0.00138529
0.00458077
0.00597173
0.00434122
0.000828413
0.000198588
0.00864556
0.00146818
0.00561732
0.00647517
0.000479169
0.000888947
0.00110265
0.00554449
0.000281037
0.011743
0.00564647
0.00111301
0.0116855
0.00846649
0.00123319
0.000516364
0.00781233
0.0180549
0.00986478
0.00134157
0.0014404
0.0015205
0.00298069
0.000835866
0.000331451
0.000743593
0.00078352
0.00185708
0.00135217
0.000383156
0.00329925
0.000995925
0.000434853
0.000684787
0.00459241
0.0123676
0.000810009
0.00459223
0.00379148
0.00802532
0.0127507
0.00325473
0.00239305
0.000794787
0.0053211
0.0015762
0.00862531
0.00549388
0.002492
0.0037975
0.00583798
0.00928708
0.00469776
0.0140864
0.00426042
0.00246107
0.00283124
0.0141511
0.00121722
0.00446185
0.00338178
0.00385889
0.00391367
0.00859854
0.00724849
0.00682996
0.0103903
0.00103175
0.000327735
0.000806419
0.00753928
0.000476084
0.00470157
0.00182975
0.00083083
0.00446685
0.00373497
0.00668965
0.000501055
0.00922321
0.00160883
0.00300091
0.00173443
0.00127804
0.00188173
0.000806334
0.00743112
0.000700761
0.000701925
0.000922854
0.0126315
0.00217863
0.00188872
0.00291774
0.00643421
0.00282077
0.00187649
0.0112064
0.00329824
0.00078592
0.00015476
0.00581966
0.00541593
0.00799602
0.00651105
0.000902536
0.000644338
0.00504662
0.00569482
0.00094135
0.00149352
0.00126733
0.00150126
0.00105345
0.0070608
0.001209
0.0028997
0.00570073
0.00131019
0.00578793
0.00262698
0.000923212
0.00140536
0.00162689
0.00143597
0.00102603
0.000984655
0.00199584
0.00133158
0.000491905
0.00171544
0.000672754
0.000822361
0.00781745
0.00298613
0.00540223
0.00103056
0.00422656
0.0051308
0.00736286
0.000936477
0.00198046
0.00158655
0.00222611
0.000266983
0.00022109
0.000326484
0.018436
0.000826286
0.00255175
0.00206631
0.00388126
0.00418435
0.0017257
0.000388835
0.000310207
0.000246512
0.000441583
0.000180256
0.000508665
0.000252657
0.000319474
0.000398734
0.000309012
0.000210224
0.000377002
0.000293784
0.000253436
0.000258498
0.00018838
0.000499879
0.000315198
0.000222935
0.000248297
0.000426147
0.000225606
0.000257651
0.000192475
0.000398257
0.00036189
0.000384186
0.000175394
0.000213333
0.000338684
0.000450321
0.00036186
0.000336273
0.000181718
0.000168894
0.000431921
0.000207335
0.000388887
0.000329638
0.000284737
0.000272338
0.000281974
0.000366634
0.000477887
0.00263679
0.00172313
0.0111886
0.000836253
0.00403398
0.00292075
0.00525359
0.0091506
0.00310228
0.000672976
0.000856809
0.00315876
0.00156129
0.00562405
0.0191347
0.0131092
0.00546059
0.00162502
0.00221044
0.00218831
0.000890365
0.0019264
0.000255544
0.00428502
0.0013377
0.004985
0.00253197
0.00273709
0.00482143
0.0018513
0.00544637
0.0127109
0.00942023
0.0195027
0.00244218
0.00427217
0.00292382
0.000767485
0.0165005
0.0015637
0.00115979
0.00897006
0.00254051
0.00155423
0.00267593
0.00149973
0.00178918
0.000841891
0.000848842
0.0177428
0.00166559
0.000496508
0.000241721
0.00951839
0.011875
0.000264313
0.00383696
0.00820616
0.000364345
0.000190487
0.000219921
0.000411191
0.000485895
0.000359008
0.000222614
0.00034992
0.000344038
0.000243263
0.000549672
0.000359758
0.000270627
0.000496436
0.000258645
0.000243492
0.000401519
0.000251718
0.000165124
0.000234559
0.00023716
0.000409926
0.000204041
0.00348805
0.00254806
0.000433589
0.000906929
0.00802474
0.000848691
0.00978886
0.000583666
0.00312256
0.00966128
0.00580035
0.00304781
0.0120274
0.00642184
0.000258496
0.0119658
0.00225279
0.00399179
0.0183239
0.00485728
0.00873887
0.00059505
0.015061
0.00172577
0.000888117
0.0149262
0.000925226
0.00336921
0.00226254
0.000754423
0.000638397
0.0067283
0.000854812
0.0108653
0.0133368
0.0014332
0.00715747
0.000834542
0.00987673
0.00188344
0.00127749
0.00136939
0.00578128
0.00180608
0.00252034
0.00274383
0.00101037
0.00702713
0.000834635
0.00292744
0.000639397
0.00756142
0.00894261
0.0184416
0.000170245
0.000771669
0.00106455
0.00773052
0.00302915
0.000355521
0.000652438
0.00280718
0.0027574
0.0143866
0.000832665
0.00125356
0.00126929
0.00111964
0.00218486
0.000990317
0.00888309
0.000464138
0.000196204
0.000283731
0.00919271
0.00630712
0.000779356
0.00673378
0.00485312
0.000638012
0.0143378
0.0141051
0.0110895
0.014189
0.0148056
0.000856152
0.00728685
0.000711368
0.00307155
0.00219717
0.00823368
0.000727485
0.00141646
0.00124688
0.0120804
0.000383257
0.00152702
0.00161931
0.00233427
0.00178073
0.0106762
0.0139792
0.00934306
0.0035554
0.000830514
0.0150978
0.000458422
0.00226685
0.00217967
0.0011809
0.00620803
0.0123193
0.00320466
0.0137472
0.00293936
0.0076844
0.0014789
0.00122926
0.00198122
0.00279969
0.00106231
0.00163557
0.00261602
0.0130267
0.00100926
0.00219434
0.00380173
0.00348443
0.0014757
0.00374593
0.00343555
0.0141856
0.00417464
0.00499279
0.00415264
0.00133519
0.00131285
0.0024366
0.00349237
0.00142459
0.00138791
0.00356233
0.0162214
0.015918
0.0108078
0.0121012
0.0156213
0.0112244
0.0156735
0.000651734
0.0155856
0.0158448
0.0117274
0.0134217
0.0162655
0.0127193
0.0154765
0.0163541
0.0158114
0.00151479
0.00148674
0.00217465
0.0122893
0.00122217
0.0020164
0.00196078
0.00123377
0.000225615
0.000325098
0.00831232
0.0151611
0.00684488
0.00308021
0.00257081
0.00810213
0.0149729
0.00834479
0.00359995
0.00166552
0.00131515
0.00173913
0.00460556
0.00951306
0.00329583
0.00151592
0.00285079
0.00451215
0.0018093
0.00447979
0.00235163
0.00730657
0.00281386
0.000786043
0.00189587
0.000395091
0.00749064
0.001381
0.00146259
0.0012259
0.00172023
0.00315301
0.00281635
0.0026164
0.00411824
0.00392113
0.00172758
0.00296396
0.0113803
0.00302552
0.00275999
0.00299077
0.00357025
0.00952248
0.00143583
0.00200161
0.00952641
0.00475496
0.00306113
0.00285759
0.00199731
0.00316638
0.0106718
0.00332887
0.00195554
0.00247993
0.0019564
0.00499058
0.00172084
0.0162852
0.00289305
0.00199268
0.00247846
0.00232178
0.00440003
0.00135184
0.00156431
0.003027
0.00558168
0.00375429
0.0154728
0.00959919
0.00169797
0.0104534
0.00207808
0.00308671
0.00422849
0.0014626
0.0029282
0.0016098
0.0147593
0.00437507
0.00321501
0.00149821
0.00783492
0.0139538
0.0011839
0.00151549
0.00602237
0.00601985
0.00400901
0.0032098
0.00103142
0.00133248
0.00652004
0.00578646
0.00511598
0.012542
0.0123234
0.00192049
0.00553508
0.000480997
0.0016515
0.00689614
0.00158653
0.00129574
0.00172105
0.00117898
0.00342763
0.00123133
0.00481932
0.000642819
0.00553796
0.00636869
0.00146804
0.00661097
0.00292249
0.00651725
0.00116241
0.00358404
0.00138485
0.00744549
0.00657479
0.00170234
0.00333681
0.00273585
0.00107992
0.00107282
0.00615544
0.00552269
0.00171786
0.00206551
0.000441043
0.00081956
0.000689904
0.00820012
0.00162572
0.00137814
0.00596623
0.00680626
0.00474435
0.00172554
0.00130839
0.00874579
0.00123577
0.00174292
0.00174105
0.00595653
0.00302121
0.00369034
0.000482215
0.00784118
0.00841627
0.012463
0.00156237
0.00842636
0.00615559
0.000855689
0.00758738
0.00944004
0.00104144
0.00237183
0.00617275
0.00149132
0.00428152
0.0054013
0.00852581
0.00947919
0.000326868
0.00546317
0.00137982
0.00556055
0.0028857
0.00256462
0.00933767
0.00919996
0.00890007
0.00101338
0.00161447
0.00459679
0.000635168
0.00936396
0.0010515
0.00728218
0.00135888
0.00329513
0.0012909
0.000212154
0.00565126
0.00139393
0.00643905
0.00157109
0.0011277
0.00641003
0.00145431
0.001405
0.00553777
0.00281546
0.0027593
0.00146323
0.00107302
0.000722588
0.00278449
0.00186068
0.00344529
0.000283256
0.00119481
0.000242572
0.0121002
0.00137536
0.00255689
0.0021763
0.00218731
0.00101728
0.00314338
0.00145727
0.00148597
0.0051657
0.00213008
0.00141332
0.00241816
0.00147037
0.00293976
0.0015362
0.00156396
0.00525714
0.00460982
0.00174525
0.00538977
0.00279878
0.00197954
0.00158569
0.0011481
0.0113803
0.000901483
0.00224927
0.00254954
0.0126663
0.00108816
0.000985613
0.00246351
0.00946449
0.00151541
0.00142925
0.00443651
0.00279612
0.00146506
0.00141004
0.00148985
0.00109326
0.00122896
0.00577023
0.00242289
0.000626852
0.0108951
0.0123943
0.00116414
0.000744855
0.00141667
0.00227646
0.00812926
0.00191092
0.00120961
0.00135551
0.00218776
0.00133261
0.00184182
0.00193475
0.00475592
0.00519307
0.00175099
0.00104912
0.00291486
0.00243317
0.00113029
0.00276863
0.00183333
0.0140019
0.0078539
0.00778069
0.0132877
0.00228748
0.00180589
0.00756857
0.00977997
0.00146665
0.00215388
0.00256501
0.00129725
0.00144949
0.00514699
0.00630929
0.00151207
0.00617136
0.00237385
0.00230333
0.00325265
0.00387328
0.00317127
0.000583075
0.00317256
0.00080181
0.0119279
0.00129745
0.00105711
0.00723459
0.000799648
0.000850898
0.0107209
0.000502144
0.00284248
0.00156801
0.00190651
0.00170776
0.00934494
0.00394238
0.00591848
0.0022539
0.00331512
0.00314094
0.00332357
0.00565456
0.00791482
0.000447787
0.000426798
0.000688576
0.000644534
0.000673802
0.00516262
0.00204119
0.00111892
0.00128726
0.00346211
0.00459021
0.00498432
0.000318419
0.010213
0.00874109
0.00213064
0.000710119
0.00273595
0.00526733
0.00579847
0.000637186
0.000977367
0.0098955
0.00135965
0.00142371
0.00207158
0.00861821
0.00523281
0.00118696
0.00406064
0.00965944
0.0038177
0.00218569
0.00201128
0.00164329
0.000514519
0.000837183
0.00134943
0.00176271
0.00150487
0.0026292
0.0146873
0.00457831
0.00397644
0.00259448
0.0016021
0.015918
0.00952305
0.0146712
0.0142036
0.0065109
0.00213399
0.00393795
0.00126707
0.000780136
0.00142638
0.00872131
0.0122576
0.0111392
0.00208299
0.00925144
0.00735225
0.00625601
0.00610019
0.00124217
0.00177565
0.0022115
0.00109633
0.00127572
0.00203953
0.00170965
0.00216781
0.00613172
0.00751135
0.00140794
0.0151237
0.00711571
0.00948346
0.0040198
0.00368594
0.00103404
0.00108008
0.00094258
0.00082342
0.00138355
0.000741731
0.00857547
0.00134079
0.000792279
0.00191941
0.00353693
0.00435619
0.00371035
0.00387508
0.00610311
0.00296334
0.00537376
0.00658434
0.0020987
0.00131085
0.00351052
0.00283041
0.000355113
0.000864977
0.00130776
0.00279998
0.0158349
0.0024162
0.0015529
0.00156049
0.00578969
0.00130017
0.00713979
0.00790033
0.00147585
0.00176519
0.00142012
0.00155268
0.00265435
0.00618039
0.00165736
0.00461384
0.00111724
0.00496321
0.0150673
0.00806019
0.00229259
0.00638782
0.00255434
0.006044
0.0118439
0.00539027
0.00130275
0.000829784
0.000743426
0.00124239
0.00408382
0.00545748
0.00240181
0.000888315
0.00667686
0.0088844
0.00368994
0.00604138
0.00140676
0.00752777
0.00619157
0.00171115
0.00209797
0.00532347
0.00790635
0.0148162
0.00154028
0.01314
0.00155962
0.00916297
0.001856
0.00649289
0.0103565
0.00245254
0.00284496
0.00079846
0.00515017
0.00366029
0.00182948
0.000259664
0.000223646
0.00735522
0.00706822
0.00900886
0.00652188
0.0129542
0.0107368
0.000795546
0.0045877
0.00415515
0.00392985
0.00271046
0.00699127
0.00943115
0.00161149
0.000985822
0.00121755
0.0073974
0.00159921
0.0136171
0.00401206
0.000877893
0.00980206
0.00146989
0.00171901
0.00882523
0.0150474
0.0141449
0.011693
0.000417375
0.00108028
0.00763859
0.0067858
0.0156741
0.0153574
0.00276404
0.0113076
0.00245486
0.00130023
0.0037349
0.00302544
0.0123154
0.00591718
0.0130634
0.00241302
0.0012961
0.00694434
0.00394399
0.00322442
0.00200219
0.00416891
0.00799936
0.00131299
0.00179684
0.00460983
0.00704103
0.0141962
0.005321
0.00252575
0.0146638
0.00104127
0.000757122
0.00185737
0.00955096
0.00871974
0.00790317
0.00476407
0.000979429
0.00100005
0.00647391
0.00165973
0.00636425
0.00827881
0.00330298
0.0066876
0.00276088
0.00711872
0.00921364
0.0148713
0.0026847
0.00170124
0.00249158
0.00184822
0.00116905
0.00716215
0.000911247
0.002279
0.0157096
0.0142485
0.0159817
0.00891097
0.0100393
0.00196916
0.00661417
0.00158611
0.00959844
0.0162626
0.00716279
0.0094913
0.000738113
0.00216869
0.00370592
0.0102558
0.00287827
0.00587194
0.00202567
0.00613044
0.00332094
0.00301275
0.00384223
0.00041198
0.0141015
0.00114613
0.0088081
0.000785496
0.00817351
0.00164695
0.00207467
0.00707735
0.00889506
0.00124192
0.00789445
0.0152628
0.00253126
0.000556715
0.0103155
0.0023701
0.00184047
0.00191922
0.000518267
0.000692276
0.00385961
0.0132233
0.0113292
0.00591571
0.00603043
0.0102752
0.00130953
0.00462499
0.00203929
0.00534797
0.000653706
0.00111336
0.00973445
0.00434118
0.00186361
0.00211921
0.0166498
0.0020562
0.000951495
0.00063551
0.00140714
0.00268052
0.000797559
0.00584958
0.00208004
0.00974546
0.00141335
0.00392004
0.000950034
0.0128614
0.00572978
0.0156599
0.00405125
0.00177753
0.00527136
0.0049682
0.00338461
0.000759679
0.0112561
0.00234994
0.00120138
0.00172755
0.00077809
0.0146053
0.00137455
0.0167681
0.00800455
0.000946214
0.00862993
0.00079857
0.0161473
0.00976834
0.00322882
0.00203204
0.00220689
0.0135798
0.000848174
0.000768473
0.000759239
0.00516068
0.000872799
0.000968598
0.00811781
0.00449233
0.00762916
0.00252658
0.00589984
0.00108216
0.0160675
0.00872031
0.00434657
0.000736919
0.00419718
0.00744964
0.000430714
0.000226571
0.000297451
0.0122349
0.00218638
0.0127205
0.00341525
0.00400999
0.00898028
0.0143218
0.00178875
0.00304435
0.00655986
0.00477708
0.00247382
0.00456108
0.000573084
0.00567954
0.000769123
0.00175063
0.00094644
0.00116788
0.00317894
0.00207088
0.0064208
0.00302452
0.00307065
0.0161035
0.00717549
0.00737317
0.00914452
0.00157901
0.000779051
0.00301067
0.00139828
0.00881503
0.00549128
0.00860317
0.00816094
0.00107304
0.000914315
0.00111582
0.00372837
0.00136008
0.00828881
0.00182356
0.00119382
0.00264435
0.00946649
0.00342527
0.0155339
0.000647595
0.00921835
0.00145446
0.00301556
0.00151939
0.00590304
0.00840157
0.00259274
0.00161537
0.00488518
0.00595224
0.00133667
0.00208301
0.0119996
0.0107829
0.00663419
0.00800725
0.00647066
0.0163931
0.0135852
0.0016779
0.00310239
0.00300004
0.00170298
0.00358442
0.00847549
0.0135846
0.000742401
0.0052657
0.0019862
0.00223349
0.00263329
0.00288607
0.00291184
0.00421777
0.000436427
0.00781566
0.00926853
0.00136303
0.00229374
0.0012064
0.00696606
0.00351168
0.00285533
0.000592027
0.00311223
0.0107441
0.00799441
0.00414796
0.00237175
0.00297657
0.000772724
0.00099414
0.000783856
0.000735043
0.00256499
0.00186969
0.00124379
0.00198382
0.0132036
0.000503055
0.00307665
0.00186496
0.000924264
0.00585759
0.00103999
0.000822771
0.000913296
0.0019381
0.00250619
0.00209894
0.00127251
0.00189611
0.00451866
0.000875101
0.00132927
0.00774147
0.0079542
0.000804228
0.00593701
0.00147404
0.00308544
0.00513142
0.00653649
0.00830121
0.000751526
0.00058904
0.000209865
0.000571898
0.00162064
0.0118011
0.00324805
0.0168405
0.00571099
0.00197902
0.00792567
0.00140439
0.000805083
0.00412039
0.00468734
0.00869031
0.0070978
0.00121063
0.00087805
0.00109754
0.000729749
0.00129452
0.0138323
0.00177623
0.00544977
0.00459734
0.000579237
0.0021157
0.000727392
0.00103278
0.00252059
0.00949584
0.0136965
0.0123825
0.0101338
0.000631312
0.000687609
0.00629254
0.0129197
0.00357885
0.00732731
0.00526101
0.00568252
0.00117866
0.000806236
0.000773661
0.00808193
0.00875256
0.00201919
0.00207308
0.00176896
0.00324642
0.00516789
0.00124567
0.00284579
0.00717222
0.0132961
0.0100694
0.00059876
0.012544
0.00126244
0.00774177
0.00612455
0.00392577
0.00480953
0.00376377
0.00154281
0.00659091
0.0149062
0.0124741
0.00131888
0.00104472
0.000774172
0.000597091
0.000724624
0.00147631
0.00248997
0.00435826
0.00732473
0.00586115
0.00209112
0.000593954
0.0117716
0.000756403
0.00108017
0.00370218
0.0109813
0.00441179
0.00463313
0.00732377
0.00834565
0.000820256
0.00084107
0.00273797
0.004931
0.00808637
0.00107847
0.00781944
0.00875479
0.0026736
0.00585271
0.000939649
0.00118376
0.000648094
0.00119655
0.000332962
0.000629457
0.000666282
0.000754522
0.000827448
0.000391285
0.000221438
0.000280471
0.0168459
0.0129222
0.000848068
0.009095
0.00204137
0.00901308
0.00750904
0.00595317
0.00493982
0.0116399
0.00980983
0.00618446
0.00462976
0.00365328
0.00897618
0.0019171
0.00091468
0.000891571