/*--------------------------------*- C++ -*----------------------------------*\
| =========                 |                                                 |
| \\      /  F ield         | OpenFOAM: The Open Source CFD Toolbox           |
|  \\    /   O peration     | Version:  v1912                                 |
|   \\  /    A nd           | Website:  www.openfoam.com                      |
|    \\/     M anipulation  |                                                 |
\*---------------------------------------------------------------------------*/
FoamFile
{
    version     2.0;
    format      ascii;
    class       surfaceScalarField;
    location    "0.51";
    object      phi;
}
// * * * * * * * * * * * * * * * * * * * * * * * * * * * * * * * * * * * * * //

dimensions      [0 3 -1 0 0 0 0];
oriented        oriented;


internalField   nonuniform List<scalar> 
2708
(
-0.000605224
5.56475e-05
0.000195962
0.000353614
0.000208653
9.03215e-05
-4.45252e-05
-0.00025445
-0.00027537
-5.3161e-05
0.000241892
8.66388e-05
-3.40237e-05
8.65432e-05
-3.42874e-05
-1.82322e-05
-0.000331718
-0.000224662
0.000266547
0.000289833
0.000898668
-0.00112402
0.000519985
-0.000294634
0.000118965
-0.000112086
7.68414e-05
-8.37205e-05
-5.54756e-05
-6.28641e-06
-3.51956e-05
9.69576e-05
-0.000686774
0.000678042
0.000786085
-0.000777354
0.000107832
0.000156373
-0.00014524
0.00103646
-0.00106683
0.000274042
-0.000243668
0.000201654
-0.000317435
0.00060158
-0.000485799
-0.000242533
0.000328207
-0.000234174
0.000148499
-0.000109323
-0.000323351
0.000315062
0.000117612
0.000445319
-0.000656394
-0.000136201
0.000347277
0.000120203
0.000110033
-0.000122403
-0.000724396
0.000524465
-0.000146364
0.000346295
-5.37283e-05
-9.40521e-05
0.000116601
3.11792e-05
0.000285188
0.000136332
-0.00038477
-3.67503e-05
-8.56609e-05
-2.01529e-05
0.000113564
-7.75023e-06
-0.00038499
0.000899415
0.000522031
6.27102e-05
-5.13757e-05
-0.000120658
-0.000825758
-0.000436914
0.000684429
0.000578243
-0.000283387
-0.00125254
0.00129346
0.000242462
-0.000851063
-0.000661468
-4.46375e-05
-4.49643e-05
0.000283871
-0.000194269
-0.0010453
-0.000153004
0.000131477
-0.000279901
0.000115909
0.000310194
-0.000146202
4.88101e-05
-0.000516738
0.000467928
-1.48367e-05
-0.000667241
0.000682078
0.000779649
6.29482e-05
-6.21662e-05
-0.000780431
-0.000667783
5.09609e-05
-2.69756e-05
0.000643797
0.000749045
5.50707e-05
-3.29585e-05
-0.000771157
-0.000250394
0.000203204
7.18891e-05
-2.46995e-05
0.000785838
0.000338562
-0.000809784
-0.000314616
-2.7169e-05
4.63278e-05
-3.00159e-05
1.08571e-05
0.00028279
0.00068965
-0.000192414
-0.000342705
0.000221861
0.000274495
-0.000153651
-5.12351e-05
0.000138486
2.27156e-05
-0.000109967
9.88994e-05
0.000609938
-0.000687096
-2.17416e-05
-0.000544779
0.000528688
0.000818174
0.00086012
-0.000121611
-0.00016556
-3.15397e-05
-7.26399e-05
3.72723e-06
0.000100452
-0.000554573
0.000837074
-0.000653361
0.000370859
6.56065e-05
0.000104362
-0.000146225
-2.37433e-05
0.000168073
-0.00010607
-6.88849e-05
6.88238e-06
-0.000998932
0.000104732
-0.000151102
2.77866e-05
-4.53691e-05
-9.45037e-05
0.000155079
0.000101532
-0.00014897
-0.000107641
6.25205e-05
-0.00040204
0.000438004
-9.84847e-05
0.000146521
-0.000130314
-1.19991e-05
-4.20777e-06
0.000507027
-0.000288023
-0.000242621
2.36177e-05
3.97991e-06
0.000138796
-0.00013022
-1.25558e-05
0.000129603
2.00354e-05
-0.000175223
2.55839e-05
-5.88369e-05
0.000247683
-5.70716e-05
-0.000131774
0.000131819
-0.000223231
-0.000104813
0.000196224
-0.000212518
-0.000316036
0.000352745
0.000175809
0.000835575
-0.000171944
-0.000663631
0.000530191
-2.7818e-05
-0.000502373
0.000165418
2.38891e-05
1.93092e-05
-4.31983e-05
0.000180316
-0.000203457
2.31402e-05
-0.00022369
-0.000119015
-1.03554e-05
-4.08797e-05
7.62359e-05
3.52309e-05
0.000397985
-6.03937e-05
0.000123295
-2.99631e-05
-0.000183699
0.000247363
-6.36647e-05
-0.000132686
0.000187404
-5.47181e-05
-6.76805e-05
0.000351475
-0.000283795
-0.000243482
-6.91223e-06
-1.81013e-05
-6.11294e-05
4.219e-05
0.000161014
-0.000242271
-8.10806e-05
0.000157779
-9.21725e-05
0.000247677
6.09933e-06
-0.000253777
4.27342e-05
3.90027e-05
-8.17369e-05
6.53703e-05
9.10027e-05
-0.000164444
0.000110715
-0.000638128
-8.62681e-05
-2.98229e-05
-6.74504e-05
9.72733e-05
-0.000186846
9.31973e-05
0.000437514
-0.000343865
-0.000226454
0.000174745
0.000219782
-7.50494e-05
5.50236e-05
0.00125359
-0.00123356
1.78512e-05
2.53288e-05
-1.56243e-05
-2.75556e-05
-0.000254726
5.18722e-06
-1.09193e-05
0.000260458
0.000248306
-0.000277842
3.71576e-05
-7.62171e-06
2.22508e-05
3.08101e-05
-0.00107078
0.00101772
-0.000157497
6.32301e-05
-0.000733783
0.000828049
7.1307e-06
0.000278446
-0.000153758
0.000203417
-0.00018325
-1.30361e-05
-4.71344e-06
-8.50732e-05
0.000311647
-0.000115795
0.000140633
-0.000101425
7.65873e-05
-1.34826e-05
5.92973e-05
8.37885e-05
4.39254e-05
-0.000587027
0.000543102
-7.85444e-05
-0.000319464
-0.00031559
0.000386443
0.000248611
-2.83858e-05
-6.60048e-05
6.28509e-05
-0.000161625
0.000183188
-2.15624e-05
0.000375303
-0.000204543
-0.000229596
9.89776e-06
-1.43945e-05
-0.000517117
7.71233e-06
-1.63945e-05
0.000525799
-0.000278567
-9.02143e-05
0.000132588
0.000236193
-2.10572e-05
1.29514e-05
5.084e-05
-0.000646578
-4.49164e-06
0.000657513
-6.4434e-06
-3.17986e-06
0.000620289
-0.000603205
-1.39037e-05
-0.00010894
0.000771019
-0.000821531
0.000159453
0.000656522
-0.000375435
-0.000718002
0.000630416
-0.000311957
0.000254658
-3.03443e-06
-0.000349414
0.000244371
0.000433251
-0.000108326
0.000133036
-0.00016445
0.00013974
-0.000660148
0.000587318
0.000601519
0.00015186
7.68287e-05
-0.000173939
7.15803e-05
-5.2125e-05
0.000122597
-0.000104746
-4.3374e-05
-4.05194e-05
-9.21666e-05
-9.38068e-05
-0.000562587
-0.0001092
0.00011318
-5.48665e-05
-1.48805e-05
0.000366356
5.45204e-06
5.99182e-05
-2.76922e-05
-8.4609e-05
-0.000270716
0.000219124
2.0566e-05
-0.000261015
0.000187288
2.54106e-05
-0.000151932
-7.48986e-06
0.000134012
0.000215751
0.000308714
1.14926e-05
-0.000105545
0.000209438
-3.99329e-05
-0.000144094
5.09695e-05
-0.000271964
0.000506182
-0.000105056
0.000113295
-9.38997e-05
-3.66595e-05
0.000114052
8.16826e-05
3.87774e-05
-3.42418e-05
-8.44163e-05
7.98806e-05
7.08885e-05
2.4182e-05
-7.57613e-05
0.0011862
0.00013737
-0.00114418
-0.0001794
0.000269781
4.26593e-05
9.5827e-05
0.000747262
3.73784e-05
8.58361e-05
-0.000870477
-0.00020719
0.000437737
0.000453882
0.000126583
0.000666387
0.000155429
-0.000263965
0.000334533
0.000304734
9.541e-05
0.000135595
6.60243e-05
-7.93365e-05
-9.10099e-05
0.00067529
2.48412e-05
-0.000609121
-8.25191e-06
0.000130849
-0.000559599
-2.4808e-05
-5.44391e-05
0.000638846
-0.000292593
0.000266272
-5.87521e-05
-0.00123726
-0.000105057
0.00118339
0.000158931
0.000535472
0.000202011
-0.000173031
-0.000564452
-0.000189844
9.73979e-05
-0.000549387
0.000641832
0.000185021
-0.000175363
-1.53709e-05
5.71299e-06
0.00109073
-0.000924168
0.000274
-0.000440565
-0.000283986
-0.000266854
0.000316667
-0.000213437
0.000156817
0.000183537
-0.000126918
6.67717e-06
0.00022662
-0.000223423
-9.87495e-06
-6.02394e-05
-4.89609e-05
-0.000950057
0.000346674
-1.8405e-06
4.09674e-05
9.74102e-05
0.000211263
-0.000175198
0.00029148
-0.000244945
-0.000234729
0.000188193
-0.000186232
-0.000951716
9.11433e-05
0.00104681
-0.000277193
-0.000399924
0.000413152
3.12882e-05
0.000730539
-2.60581e-05
-0.000735769
0.000245543
-0.0014931
6.32429e-05
0.00118432
0.000195932
-0.000359114
0.000253504
0.000315653
-0.00130737
-2.70724e-05
0.000198903
3.76072e-05
0.00114017
-0.000796076
8.07307e-05
0.000462053
-3.57567e-05
0.000618059
-0.000114957
-0.00046284
-4.0262e-05
-6.90043e-05
2.72913e-05
0.000141945
0.00025812
-0.000280339
6.46814e-05
-4.2463e-05
0.00112208
-0.00108226
-0.000323216
0.000632134
-8.17649e-05
0.000589802
-0.000429162
0.000425982
-0.000421252
0.000312312
0.000277255
0.00045415
-0.000864953
0.000364379
-0.000111599
0.000612173
-2.16268e-05
-6.25574e-05
-0.00115086
0.00123504
0.000728202
-0.000777268
0.000175648
0.000709242
-0.000601816
-7.88502e-06
-9.95411e-05
0.00062189
-0.000854538
0.000331548
0.000704638
-6.55109e-05
0.000131891
-1.8203e-05
7.87317e-05
0.000819641
-0.000696362
-0.000247935
-0.000365574
0.000294045
0.000746573
-0.000701133
-0.000199775
0.000154335
0.000175872
-2.0434e-05
9.1925e-05
-0.000278387
0.000190237
0.000410325
-0.000322176
0.000144736
-0.000219494
0.000242199
-0.000167441
0.000121375
-0.000226257
-0.000108555
-0.000751261
-0.000402902
0.000892478
0.000261686
-1.08776e-05
-0.000240641
0.000247336
4.18263e-06
-8.42351e-05
0.000309287
-0.000349312
0.00012426
9.87273e-06
0.000763713
-0.00075877
-1.48154e-05
0.000182693
-0.000622946
0.000611533
-0.00017128
-0.000193205
1.55893e-05
0.00012866
4.89557e-05
0.00104867
-0.00108484
-2.94173e-05
6.55943e-05
-0.000250162
2.74227e-05
0.000291756
-1.77292e-05
-0.000274027
9.53043e-06
-8.14873e-05
0.000228774
0.000638669
4.43491e-05
-6.27294e-05
-0.000568479
-5.64089e-05
-2.16903e-05
-8.51008e-05
-0.00116727
0.00117732
-0.000104755
-5.91341e-05
2.2643e-06
0.000690877
-0.000205009
-0.000576878
-3.25046e-05
0.000750039
2.90388e-05
0.000307673
-2.02314e-05
3.8561e-05
-0.000326002
0.000245055
-0.000651682
-0.000344634
0.000443108
0.000348557
-0.000650615
-0.000141051
-3.68948e-05
0.000238621
5.63941e-05
0.000327808
-0.000303281
0.000523265
-0.000547792
4.0398e-05
-0.000232328
-3.90602e-05
0.00023099
-0.000659263
0.000542772
-0.00102304
0.00103881
-0.000100873
-0.000730495
0.00082942
-0.000501827
-0.000228486
0.000204376
-0.000459971
4.68778e-05
0.00076165
-0.000571639
5.63643e-05
0.00076033
-6.97791e-05
-1.0224e-05
8.71678e-05
-7.16464e-06
-1.56689e-05
1.55583e-05
0.000779759
-1.02233e-06
-0.000655648
0.000666543
0.000402496
-0.000143532
0.000362926
-1.18593e-05
-0.000685051
2.91281e-05
-0.000729737
-0.000286638
0.000835214
0.000181161
0.000651272
0.000126602
-0.000139205
-1.89953e-06
-0.000391688
-0.000174891
-0.000152451
0.000475396
0.000405258
4.79161e-07
4.01959e-07
0.000221327
-0.000222208
0.00015023
-0.000134937
-4.23657e-05
-0.00012077
0.000406304
0.000131273
-0.000416807
8.58338e-05
-6.02076e-05
-0.000385351
0.000581863
-0.000198412
-0.000124422
-0.000166087
-3.98878e-05
0.000101541
0.000104434
-0.00041266
0.000202333
-0.000263016
0.000953161
0.000278312
-0.000547818
-0.000381109
-0.000234981
-6.30022e-05
4.73094e-05
-6.89163e-05
-0.000384153
0.00128376
-0.000877358
0.000193909
-2.21095e-06
-0.000204431
-5.34026e-05
8.83946e-05
4.15158e-05
-0.00103403
7.93934e-05
0.000831035
0.000123605
0.000199077
1.48587e-05
-2.00261e-05
-0.000174959
0.00105998
0.000153793
-0.00053667
0.000720492
-0.000513901
0.000330079
1.90325e-05
0.000269019
0.000166111
-0.000118875
-0.000316255
0.000115599
-0.000422499
-4.01488e-05
6.74828e-05
-1.74449e-05
0.00020547
-1.24348e-05
-0.000368516
-0.000772336
-0.000609841
0.000363941
-0.000498972
-0.000527699
0.00066273
-6.35901e-05
0.00016542
0.000602808
0.000109795
-0.000906394
-8.21169e-05
-0.000141114
0.000297676
0.000151656
0.000621534
0.000201997
-0.000172258
-1.43611e-05
-0.000205387
2.9816e-05
0.000149103
-0.00017844
0.00128647
-0.000381966
-5.10728e-05
0.000670012
0.0015763
-0.000233872
-5.596e-05
-0.000823683
-7.36731e-05
-3.56478e-05
0.000933004
-0.00041639
0.000415368
-0.000470332
0.000596934
-0.000392274
0.000446702
-0.000331621
-0.000282179
0.000244603
-0.000461731
0.000499307
-3.45519e-07
0.000514282
0.000360493
-0.000207178
-8.10688e-05
-7.22463e-05
-6.86414e-05
-0.000116139
0.00010747
7.73103e-05
-0.000301177
0.000491611
-0.000377279
-0.000874665
0.000187349
-0.000346718
-0.000451405
6.52572e-05
-7.99076e-05
0.00121322
-0.00119857
3.75416e-05
-3.79535e-05
-0.000254038
-1.73331e-05
-0.000566359
0.000490164
-0.000641656
0.00071785
-7.26399e-05
-0.000403781
-1.19728e-05
-0.000336069
1.25167e-06
0.00034679
1.38323e-05
-0.000930105
4.51276e-05
-0.000646149
0.000255127
-0.000676379
8.52409e-05
-0.000514403
-1.12135e-06
-0.000175143
7.15093e-05
-0.000412772
-3.6185e-06
0.000292054
0.000338418
-0.000295939
5.83388e-05
-3.95217e-05
-1.88171e-05
0.000148711
2.68868e-05
-0.000189959
-0.000293273
0.000368604
3.37766e-05
-0.000109107
-0.000310351
-0.00062045
0.000158387
0.000772413
0.000202504
3.69709e-05
-0.000494604
-0.000663555
0.000464234
0.00039555
0.000747361
-0.000157337
0.000189647
-0.000772994
0.000830565
2.11601e-05
2.05088e-05
-1.50567e-05
3.00057e-05
-0.000246801
0.000183211
0.000761924
-0.000696786
0.000612904
-0.000574938
0.000136724
-0.000449815
-0.000551996
0.000300678
0.000105653
5.64788e-06
-8.91386e-05
0.000184254
-0.000100763
-0.000738844
0.000570991
0.00081705
-0.000649198
0.000171991
-0.000219704
-0.00044689
6.03426e-05
0.00018436
-0.000100435
5.8219e-05
-2.52346e-05
0.000326214
-3.81656e-05
-0.000300021
-0.000663433
0.000348014
0.000503911
-0.000188492
0.000191218
5.06742e-05
8.27528e-05
0.000787218
-0.000664204
-0.000699301
0.000576286
0.000186419
-0.000216704
3.16009e-05
-1.3152e-06
-0.000263471
-6.0631e-05
0.000119671
0.000417263
-0.000473672
0.000157296
-9.93317e-05
-0.000121629
0.000789867
-0.000652648
-0.000703577
-3.64247e-05
1.64256e-05
5.96143e-05
-3.96152e-05
0.000163424
-3.06387e-05
-0.000282929
-9.45791e-05
-0.000688637
0.000547232
0.000574172
-0.000432768
-0.000303222
-0.000616358
-0.000818249
0.000471097
-0.00031628
3.72815e-05
-8.94181e-05
-0.000279316
8.58048e-05
-0.000115579
0.000272477
-0.000813737
0.00065684
-0.000339059
0.00102091
-9.4529e-05
-0.00065378
0.000515308
0.000900397
-0.000907715
0.000577565
0.000805546
-0.000160625
-8.27152e-05
0.000767176
-0.000532902
0.00134203
-0.000132524
-0.000756049
-2.26209e-05
0.000329361
1.09907e-05
-0.000317731
6.95185e-05
-1.00433e-05
0.000909753
-0.000969228
1.42e-05
0.000213026
-5.33981e-05
-0.000173828
0.000433088
-5.3948e-05
-5.29265e-05
0.000556436
0.000165634
-0.00055344
-0.00016863
-0.000237088
0.000262433
-1.11446e-05
0.000224857
-0.000170806
-2.18664e-05
-3.21846e-05
0.000390766
-5.19958e-05
0.000769814
-0.00110858
0.000172015
-0.000241794
0.000126845
-0.0013985
0.00125003
-9.62362e-06
-1.34308e-05
8.57646e-05
7.14237e-05
-0.000160676
0.00014251
-0.000680977
0.001031
0.000234244
-0.000584265
-0.000714229
0.000653032
-0.000630836
0.000477168
0.000100529
-0.000653189
0.00060147
-3.96601e-05
-0.000793781
0.000818605
0.000940399
-0.000961512
-0.000170214
-7.76154e-05
2.31679e-05
-0.000619471
0.000107386
0.00116855
-0.000656466
-0.000383234
-9.39063e-05
0.000356371
0.000889689
0.000318566
0.000790072
-0.000784288
-0.000106658
0.000163974
-0.000135097
2.84587e-05
-2.70863e-05
0.000133724
0.000178793
-0.000165682
7.83457e-05
-9.14559e-05
-0.000219336
0.000834449
0.000353796
-0.000282001
-0.000355782
-0.000748849
0.000562734
-1.6086e-05
0.000161454
2.29975e-05
-0.000168366
1.44156e-05
-0.00102916
-0.000708666
8.5925e-05
0.000759064
-9.29054e-05
-0.000752084
0.000491654
0.00021057
-0.000208696
-0.000493528
0.000722656
-1.09684e-06
-0.000488113
-0.000233446
0.000914617
-0.00104816
-6.62349e-05
-0.000421812
-0.000118043
0.000156621
-0.00010592
-6.89494e-05
-0.000446462
7.04044e-05
3.3727e-05
0.000342331
-0.000590363
8.50713e-05
5.88291e-05
0.000208857
6.70746e-05
-7.34278e-05
0.000842571
-0.000425301
-0.000171379
-0.000615264
0.000447219
-0.000198267
0.000366311
-0.000352446
-4.1217e-05
-0.000221601
-0.000717195
0.000851765
0.000249811
-0.000808488
-0.000261844
0.000820521
0.000664911
-0.000665878
0.000166601
9.89459e-05
0.000870137
-0.000645073
0.000487714
3.1212e-05
0.000749834
4.99888e-05
-5.13982e-05
9.78073e-05
8.56947e-05
-0.000132104
0.000477997
-0.000129165
-1.43088e-05
-0.000334523
-0.000921228
4.70188e-05
-8.15916e-05
6.86592e-05
1.29324e-05
-7.7066e-05
4.0442e-05
0.000504883
-6.02436e-05
3.33577e-05
0.000771549
-0.000479213
5.5678e-05
0.000486258
-3.99572e-05
5.85821e-05
-0.000191506
4.15138e-05
-4.2828e-05
0.000192821
1.13511e-05
0.00079723
8.44165e-05
6.21394e-05
-8.83369e-05
0.000555446
0.000100089
-0.000535018
-0.000120517
-9.76776e-05
0.000273153
-0.00110377
0.000470792
-4.77589e-05
6.32244e-05
-8.55286e-05
0.000574752
0.00016483
-0.000204632
-0.000183833
0.000100773
0.00032224
0.000148289
-0.000146282
-6.69686e-05
7.598e-05
0.000461781
0.000101124
-9.06391e-05
-0.000180699
-3.41001e-05
-4.66855e-05
6.06327e-05
0.000193752
0.000270723
-0.000328143
-0.000194658
-9.91286e-05
0.00018546
-0.00022016
-0.00119381
0.000161432
-0.000103401
0.000325537
-8.08565e-06
-0.00021405
0.000328173
-0.000298901
0.000117789
-0.000147061
0.000429572
-0.0002048
0.000102899
-9.73682e-06
0.000258437
0.000120901
0.000264794
4.38769e-05
-0.000394777
0.000357237
-0.00022383
0.00026137
5.1661e-05
-0.000155513
0.000380184
-0.00024194
1.72692e-05
0.000349827
-0.000148103
2.70956e-05
-0.000103893
0.000456982
1.6199e-05
-0.000337932
0.000184506
0.000137227
0.00107923
0.000511289
-0.00028214
-0.00130838
1.26881e-05
0.000265944
-2.40093e-07
0.000225955
9.9498e-05
-6.84796e-05
1.01194e-05
-0.000130678
9.43211e-06
6.26579e-05
5.85876e-05
0.000118275
-6.46987e-05
0.00022189
-0.000187529
-0.000289152
0.000254791
-3.69433e-05
2.63763e-05
3.28952e-05
-2.23281e-05
-6.90122e-05
-4.60222e-05
7.8091e-05
-0.000176883
9.71477e-05
-6.4188e-05
0.000143923
-8.82374e-05
0.000101497
-1.52925e-05
2.03288e-06
-3.07489e-05
-4.82245e-05
-1.39489e-05
1.73905e-05
0.000111893
-2.40229e-05
3.671e-05
-2.23108e-05
-0.000890997
5.58186e-06
0.000826375
5.904e-05
-5.21383e-05
4.4139e-05
-2.27496e-05
-0.000211813
-0.000204019
0.000240979
4.99568e-06
-2.64223e-06
-0.000125734
0.000118591
-8.96388e-05
9.67818e-05
-0.000959651
0.000131898
1.4033e-05
-9.35432e-05
9.69006e-05
1.53876e-05
-0.000261902
-3.31853e-05
2.6388e-05
-0.000118936
-0.000265149
-0.000174804
-0.00105911
0.00021506
-7.38818e-05
-0.000136187
-0.00026699
-0.000654752
0.000103722
-6.97728e-05
-0.000106589
-2.28648e-05
-0.000294623
-0.000141546
6.56918e-05
2.00024e-06
-9.36939e-05
2.60019e-05
-0.00129354
0.00027621
0.000842714
-0.000681996
0.000918515
0.000149512
0.000104837
-2.82697e-05
0.000205819
-0.000138772
1.05483e-05
9.0032e-06
0.000147226
-2.94573e-05
-7.35928e-06
3.66263e-05
6.0218e-05
1.29882e-05
-0.000872566
0.000421741
-3.74499e-05
5.44332e-05
-4.41522e-05
9.02951e-05
-5.16395e-05
1.7343e-05
0.00012668
-0.000151382
-0.000158547
-0.000124026
3.08187e-05
0.000274187
-0.000298828
-1.43683e-05
-5.07599e-06
-5.98085e-05
7.92528e-05
-0.000678712
0.000109371
1.97834e-06
-0.000148799
0.000188145
-6.6721e-05
-1.86082e-05
0.000111924
-0.000155617
6.23017e-05
0.000164769
-0.000228064
3.96668e-05
2.36286e-05
6.66176e-05
-5.31796e-05
-9.475e-05
7.8763e-05
-8.52755e-05
-0.00110671
0.00014586
9.63124e-05
6.88195e-05
-5.57613e-05
0.000132451
0.000355799
-0.000284833
-3.37373e-05
-0.000158906
0.000141902
5.07414e-05
-0.000115257
0.000347816
-0.000277524
0.000426926
0.000171584
-4.47189e-05
1.09815e-05
-0.000302712
-0.000796233
-7.76702e-06
-0.00120507
-0.00048747
0.000175105
-5.53869e-05
-8.63887e-06
0.000159384
0.000106921
-8.95001e-05
0.000209654
6.89171e-05
-0.00014612
0.000163112
-0.000296978
0.000176695
9.51163e-05
-7.80587e-05
2.65152e-05
-2.36472e-05
7.02716e-05
-0.000114991
-0.0002076
-4.59862e-05
7.63028e-05
-0.000164937
0.000113382
0.000161655
-4.11698e-05
5.17774e-05
-0.000740602
-0.000278817
0.000406358
-0.000233611
0.00019609
-0.000420312
0.000254531
0.000109776
0.000220457
0.000204137
0.000257061
-0.000145705
0.000149074
3.36018e-05
-0.00134275
-0.00019408
0.000461412
4.99398e-06
-3.88825e-05
1.43406e-05
5.43186e-05
-0.000269927
0.000113557
-0.00022219
-0.000139856
0.000248489
0.000267774
-0.000153054
-6.5121e-07
5.26584e-05
-9.3177e-05
0.000421729
-0.000460826
-0.000482158
0.000521254
9.13558e-05
0.000148911
2.5475e-05
0.000805621
-0.000736102
9.88605e-05
0.000245414
-8.72134e-05
-5.51264e-05
0.000256201
-0.000402704
0.000508488
-0.000234949
-3.9367e-06
-1.54811e-05
1.94178e-05
4.02925e-05
0.000816539
-0.000757886
0.000100145
0.000209502
-0.000615577
0.000551063
2.81554e-05
-0.000340151
0.000310926
-0.000863099
0.000973656
-0.000110557
0.000232338
-0.000187822
-0.000540342
-3.99592e-05
-0.000165656
0.000745957
-0.000380359
0.000372852
-0.000328211
0.000335718
7.04484e-06
8.0992e-05
0.000820357
0.000414754
-0.000492524
0.000541425
-0.000463655
-0.000159149
4.6928e-05
0.000135362
0.000138241
-0.000178781
-0.000143349
1.25027e-05
2.02656e-05
0.000128681
-5.74783e-05
-0.000862151
0.000714742
-0.00023758
-8.19216e-05
-0.000431325
-0.00128229
-0.000294337
0.000803529
8.73783e-05
-4.96368e-05
-0.000260619
0.000287635
-0.000503967
0.000664538
-6.15277e-05
-0.000230244
0.000242135
0.000227624
-2.57336e-05
3.25525e-05
-0.000216262
0.000203975
0.000220809
-0.000625233
1.41353e-06
0.000403011
-0.000413786
0.000377946
-3.11285e-05
-0.000946451
0.000492297
0.000726631
-9.39089e-05
0.000339842
0.000143458
0.000116072
-0.000131503
9.93448e-05
3.21582e-05
0.000872069
-0.000157251
0.000174323
9.27031e-05
6.9711e-05
0.000627665
-0.000697376
-5.13553e-05
0.000308573
-0.000405321
7.72465e-05
-0.000273248
-0.000432178
-2.93666e-05
0.000234593
-0.000228033
-0.000953012
-0.000571894
0.000845804
-0.000552727
0.000661623
7.63713e-05
-0.000637905
0.000144034
0.000642302
-0.000654071
0.000844802
-0.000284629
0.000128531
-0.000126207
-0.000193031
-7.23008e-05
0.000178857
0.000147975
0.000261623
-0.000280425
0.000682037
-0.000641745
-0.000402378
-0.000540125
0.000187974
0.000390711
-0.000562286
-0.000201794
0.000216262
-0.000405335
0.000319574
-0.000329578
0.00041534
-0.000136445
4.18955e-05
0.000146327
0.000307306
0.000448202
-0.000263854
0.00120825
0.000272055
0.000506694
-0.000529776
9.90615e-05
0.000111188
0.000859312
-0.000861129
-0.000135216
0.000137033
0.000796533
0.00023301
-0.000558446
-0.00122742
0.00115195
0.000182457
-0.000771906
-7.08313e-05
2.13217e-05
-3.22376e-05
8.17472e-05
2.58602e-05
5.88979e-05
4.69621e-05
-0.000145423
-0.000131784
-0.000361121
0.000220936
-0.000450177
-4.22522e-05
0.000256917
-0.000711027
0.000792089
0.000774303
-0.00069846
0.000582577
-0.00065842
0.000142943
0.00114954
-0.000976828
1.32251e-05
-2.51648e-05
0.000209431
-8.92693e-05
5.8631e-05
0.000738813
-0.000159497
3.87425e-05
0.000172995
-0.000343653
-0.000145978
2.77229e-05
7.16218e-05
-0.000528492
0.00060391
-0.00043654
-0.000193789
-1.9868e-05
-7.42615e-05
0.000926536
-0.0004132
-0.000442902
0.000450766
-6.63859e-05
0.000190206
-0.000198642
9.38974e-05
0.000307187
-3.24804e-05
0.000276066
-4.57615e-07
0.000154389
-0.000121556
0.000307009
0.00015026
0.00025077
-2.30835e-05
6.33217e-05
0.000763088
0.00043965
-0.000502893
-0.000111562
-0.000514352
-0.000792096
0.000690871
-0.000252884
3.37917e-05
0.000842409
-0.00073231
0.000295181
-9.12901e-05
0.000100433
-5.15086e-05
-8.42375e-05
7.12399e-05
0.000519692
-5.47345e-05
0.000736772
-0.000245314
-0.000726423
0.000132336
2.94553e-05
-0.000458336
-0.000157184
-0.000220019
5.4499e-05
0.000783583
-0.000126224
-0.000533755
0.000627944
-2.79046e-07
0.000574021
0.000710548
-0.00010285
-0.000133617
-0.00101876
-0.000368235
0.000350099
-0.00038297
1.93422e-05
-2.60504e-05
-1.30321e-05
0.000126232
0.000232352
8.93401e-05
-2.45922e-05
-0.00012715
0.000121541
0.000280096
0.000527803
0.000109317
0.000104646
0.000995802
-0.000940779
0.000571411
6.57144e-05
-5.84597e-06
3.3767e-05
7.362e-05
0.00108686
-9.10624e-05
-3.29499e-05
0.000854983
3.04745e-05
3.01764e-05
0.000157727
-0.000227761
-0.00013514
-0.000469478
-0.000873483
-6.72961e-05
-7.86469e-05
0.000131514
-4.52681e-05
-7.59905e-06
-0.000219837
0.000339103
-0.000106477
-1.27892e-05
5.6363e-07
0.000218807
-0.000828407
-4.9293e-05
0.000178412
9.23797e-05
-4.62755e-05
-4.61042e-05
-0.000279323
8.22219e-05
0.000249759
0.000187157
0.000260048
0.000842797
0.000132492
-4.01124e-05
0.000183638
-0.000163151
-2.04867e-05
-0.000241215
-0.000199394
0.000279469
-8.00753e-05
-0.000139474
0.000319378
0.000196015
-1.23772e-05
0.0011703
0.000127457
-6.37542e-05
-6.37023e-05
-2.41725e-05
-0.000584694
-1.79555e-05
-0.00045418
-3.06591e-05
-8.5822e-05
0.000822594
-0.000105702
0.00119257
5.19192e-06
0.000622752
-7.19371e-05
0.000112313
-8.25327e-05
0.00032659
0.000104195
-9.90781e-05
-0.000687813
0.000682696
-0.000489459
-0.000222665
-3.25048e-05
-0.000790856
-7.24878e-05
-0.00064604
0.000142772
0.000603797
-0.000172604
0.000199372
0.000853664
-0.000520739
9.25226e-05
8.20247e-05
-0.000144731
-0.000666881
-0.000503454
6.41341e-05
1.75331e-06
-0.000776192
-2.41747e-05
0.00062594
0.000378345
-0.00038531
-4.41702e-05
-1.88539e-05
2.35024e-05
5.26032e-05
-2.09889e-06
5.88125e-05
-0.000451432
-0.000153214
-0.000100139
4.87217e-05
-0.000161718
-0.000232979
0.00029268
0.000144674
0.000226377
3.25269e-05
-6.77169e-05
0.000111454
-9.12793e-05
6.2047e-05
0.000234703
-3.03113e-05
-1.72353e-05
0.000899814
-0.00014284
0.000372666
-0.000808226
-7.23312e-06
-0.000138327
-0.000606109
0.000580051
-0.000462264
5.47801e-05
0.00065155
-0.000217026
0.000306844
-9.79041e-05
-0.00123269
0.000197223
9.67071e-06
-0.000273893
0.000247828
-0.000318854
0.000186293
0.000829996
-3.81862e-05
7.0527e-05
4.5696e-05
-4.14364e-05
0.000241154
-2.20809e-05
3.84937e-05
9.92043e-05
6.57462e-05
-6.52506e-05
0.00033943
-5.63088e-05
0.000891497
0.000306283
-0.000774111
9.69827e-05
0.000151003
-0.000129712
-0.000847431
-0.000130106
-0.000130182
-0.000242437
0.000179168
0.000164638
-3.36787e-05
0.00024379
8.46536e-05
-4.00916e-05
7.92261e-05
-9.79818e-05
6.63318e-05
7.68816e-05
-0.000543433
-1.03146e-05
1.45319e-05
-0.000101703
0.00104022
0.00105749
0.000148612
0.000906258
-0.000138067
3.59464e-05
-0.000215999
0.000249684
-3.36851e-05
-0.000235857
0.000225415
-0.000683854
0.000543062
0.000630956
0.000174924
-9.80871e-05
-0.000461104
1.59911e-05
0.000368321
0.000157313
6.32772e-06
-0.00127349
-0.00085927
0.00114706
-0.000487039
0.000559542
2.91684e-05
-0.000772822
-0.000486488
0.00025265
-0.000206421
-0.000374972
-0.000405749
7.37426e-05
-1.99836e-05
-4.98986e-06
-7.02946e-05
6.80513e-05
-0.0004461
0.000180955
-0.000355305
-6.49297e-05
6.90873e-05
2.94442e-05
0.000251982
9.10815e-05
7.22661e-06
7.32284e-05
0.000177581
-0.000313287
-4.68156e-05
0.000202984
-0.000793687
-0.000247258
0.000611951
8.83876e-05
0.000774871
3.84361e-05
-0.000302071
0.000546512
-0.000463777
2.99501e-05
-0.000232984
-0.000284788
7.03974e-05
-0.00116907
8.76356e-05
-2.80074e-05
-0.0006555
0.000115818
0.000567689
-1.67932e-06
0.000798637
-0.000272742
0.000189058
0.000250392
-0.000447731
0.000217102
-0.000654713
0.000604503
-2.34628e-05
-0.000200914
-0.000362738
0.000362326
-5.74265e-05
-0.000576941
9.65937e-05
0.0007516
1.51479e-05
-1.94856e-05
-6.24964e-05
-0.000144997
0.000116527
0.000264033
0.000466125
-9.34587e-05
-0.000698326
-0.0001099
5.15157e-05
0.000383477
-0.000117675
0.000196232
0.000512472
3.72257e-05
-8.43081e-05
-0.000433555
0.000313063
-5.93582e-06
0.000199743
3.04123e-05
-0.000421658
-2.67479e-05
-3.9581e-06
0.000164652
-1.75845e-05
0.000411096
-0.000556484
-0.00010187
0.000332964
-2.48767e-06
4.11049e-06
-0.000490204
1.147e-05
0.000477055
-3.3174e-05
0.000204641
-0.00102285
0.000996658
-5.10377e-05
9.40281e-05
2.28964e-05
-6.50778e-05
0.000208644
-0.00021295
-8.84178e-05
0.000266566
-4.46878e-05
8.93359e-05
-0.000130278
1.87874e-05
-0.000321877
0.000209218
-0.000203964
0.000316623
-0.000289195
4.88304e-07
-9.40347e-05
6.04585e-05
-0.000458722
-0.000488395
-0.00060353
0.000770048
-0.00022414
-0.000241694
-0.000130373
0.000629567
7.18748e-05
-0.00057107
-0.000156864
-0.000154475
0.000131459
0.00017988
5.36594e-05
0.000101669
-2.28012e-05
-0.000616138
0.000593941
-0.000245196
-0.000340904
0.000551679
-0.000492863
-0.000523765
0.00052105
0.000168349
-5.10895e-05
-0.000429217
6.19828e-05
-0.000383872
0.000117494
-7.71196e-05
0.000971206
-8.94121e-05
-0.000691306
-0.000776093
-0.000411527
0.000707285
1.2087e-05
-0.000602145
3.77967e-05
1.2165e-05
-0.000441299
-0.000201676
0.000414497
-0.000328743
7.29687e-05
0.000881415
-0.000765794
-0.000115621
-0.000536148
0.000558307
-2.21595e-05
-0.00048927
0.000444142
-0.000416707
-2.7435e-05
0.00099121
0.000546448
-0.000474011
0.000479419
-5.40795e-06
0.000528978
5.49672e-05
0.000547692
-6.8273e-05
-0.00070943
0.00109594
0.00061064
0.000695598
-0.000672905
-2.26929e-05
0.000626198
0.000519472
0.000497538
2.19344e-05
0.000619985
6.21302e-06
0.000489467
8.07051e-06
0.000510105
-2.06374e-05
0.000534946
1.91148e-05
0.00100676
0.000250914
6.67681e-05
0.000145068
-0.000114982
-0.000142124
1.71458e-05
7.36079e-07
-8.67668e-05
0.000581375
-0.000105898
-4.62768e-05
0.000128307
0.00051944
-9.28157e-06
0.000792238
8.29126e-05
0.000120464
-0.000275575
0.000412359
5.34535e-05
7.27697e-05
8.96302e-05
0.000506198
-0.000491975
-4.97349e-05
0.000279096
0.000367398
-8.17964e-05
-1.21699e-06
-6.17287e-06
-4.58583e-05
-7.68949e-05
-0.000211167
0.000542173
0.000944034
-0.000409972
0.000149786
-4.3599e-05
-9.31982e-05
-9.59771e-05
-0.000137225
0.000912243
-0.00119752
0.000110847
0.000255155
-0.000127855
0.000979333
0.000101105
0.000115703
-0.00119614
4.83354e-05
-7.96855e-05
-2.15136e-05
5.18802e-05
-7.57749e-05
-1.03927e-05
0.000338444
-0.000644345
-0.000109139
-0.000123471
0.000182435
-0.000107994
0.000173949
7.8984e-05
-0.000220038
0.000161046
7.70517e-06
-0.000124612
9.68287e-05
3.84478e-05
-0.000438109
-0.000169743
0.000409586
-0.000425421
0.000460069
-0.000424788
-0.000140498
-0.000196874
8.8544e-05
6.97147e-07
0.000153437
0.000113416
-4.36221e-05
-0.000520431
0.000525425
0.000103665
-0.000157685
-3.66192e-05
0.000282599
-0.000283816
0.000316732
-0.000703945
-2.81224e-05
-0.000555383
0.000167992
0.000321921
-0.000440228
-2.80568e-05
8.96083e-05
-0.000150035
0.000177028
-0.000304932
-9.12473e-06
-0.000560833
7.59824e-05
-0.000179504
0.000667032
6.61717e-05
0.000118433
-9.97114e-05
0.000657848
-0.000308216
0.000205332
-2.65581e-05
-0.00012714
-2.91132e-05
0.000155946
-0.000207205
-0.000296342
4.11459e-06
-7.60708e-05
0.000137306
6.09649e-05
-6.12097e-05
-0.000319967
7.86618e-05
-0.000100573
6.3807e-05
-0.000697546
-0.000116217
0.000155237
4.52117e-05
1.99237e-05
-0.000255965
-0.000232009
0.000632652
-2.88016e-05
-6.80512e-05
0.000112229
-6.42139e-06
-5.26706e-05
-0.000219863
0.000570209
-0.000368469
-0.000130278
0.000479633
-0.00011736
8.05937e-05
0.000135704
-8.76376e-05
-0.000167965
0.000517101
-0.000557832
0.00021553