/*--------------------------------*- C++ -*----------------------------------*\
| =========                 |                                                 |
| \\      /  F ield         | OpenFOAM: The Open Source CFD Toolbox           |
|  \\    /   O peration     | Version:  v1912                                 |
|   \\  /    A nd           | Website:  www.openfoam.com                      |
|    \\/     M anipulation  |                                                 |
\*---------------------------------------------------------------------------*/
FoamFile
{
    version     2.0;
    format      ascii;
    class       volScalarField;
    location    "0.03";
    object      k;
}
// * * * * * * * * * * * * * * * * * * * * * * * * * * * * * * * * * * * * * //

dimensions      [0 2 -2 0 0 0 0];


internalField   nonuniform List<scalar> 
5794
(
0.236579
0.174751
0.428492
0.302846
0.226821
0.193194
0.191522
0.190967
0.226792
0.200958
0.179009
0.188583
0.173891
0.202604
0.17902
0.179218
0.675489
0.19645
0.178379
0.176515
3.80411
0.213035
0.198163
0.186971
0.187537
1.25209
0.399005
0.206617
0.206599
0.242592
0.181422
0.22003
0.185178
0.190004
0.189485
0.194228
0.233248
0.18604
0.182988
0.188873
0.18529
0.187005
0.179986
0.877868
0.178707
0.183528
0.19598
0.183464
0.198728
0.175088
0.169352
0.193109
0.681607
0.229195
0.117537
0.181345
0.212424
0.192573
0.178915
2.19086
0.478666
0.189575
0.179998
0.201591
0.180573
0.17778
0.238381
1.16292
0.239253
0.167524
0.181265
0.231879
0.393853
0.205399
0.208778
0.242752
0.134056
0.78818
0.694772
0.120679
0.297738
0.197429
0.181263
0.179625
0.182025
0.179229
0.287529
0.150557
0.230991
0.264432
0.175619
0.27795
0.205873
0.183837
0.222231
0.187047
0.16997
0.190847
0.277671
0.472386
0.818882
0.371145
0.176137
0.185099
0.20638
0.178755
0.171041
0.169014
0.215367
0.568131
0.191254
0.180665
1.30578
0.177829
0.196446
0.171655
0.192781
0.190203
0.481923
0.425599
0.182124
0.177692
0.197831
0.227731
0.184405
0.187104
0.229929
0.187647
0.188018
0.170781
0.181529
0.177719
0.270374
0.604342
0.179851
0.180597
0.176283
0.188174
0.186393
0.17952
0.223535
0.225935
0.181372
0.219126
0.207163
0.363193
0.2176
0.216426
0.205488
0.272796
0.24037
0.185152
0.17886
0.2382
0.433565
0.200828
0.1891
0.176278
0.178732
0.194066
0.201263
0.191314
0.186754
0.192479
0.198965
0.196354
0.188665
0.186581
0.192798
0.181303
0.196767
0.222189
0.188326
0.181697
0.182047
0.18707
0.184493
0.182168
0.186428
0.202292
0.182417
0.196807
0.169974
0.173266
0.174359
0.380689
0.230657
0.178752
0.201872
0.275776
0.174633
0.210921
0.190872
0.188287
0.172115
0.179257
0.182254
0.187251
0.193363
0.196929
0.184162
0.201754
0.182275
0.181279
0.201863
0.185094
0.185574
0.180587
0.235596
0.259764
0.358714
0.358382
0.183625
0.182961
0.191134
0.193144
0.202652
0.299888
0.179508
0.17853
0.392479
0.198739
0.186049
0.205809
0.272791
0.248224
0.206867
0.186298
0.168899
0.18607
0.24124
0.238989
0.221914
0.244431
0.228058
0.23152
0.246342
0.178322
0.194837
0.365133
0.227179
0.18143
0.291769
0.243632
0.241277
0.19036
0.180706
0.198656
0.143878
0.187326
0.274792
0.178153
0.515996
0.17532
0.269708
0.255749
0.186653
0.215104
0.176742
0.187916
0.178699
0.18335
0.182791
0.175227
0.174064
0.200334
0.294632
0.179759
0.195119
0.179096
0.188401
0.178358
0.2375
0.187315
0.758878
0.181417
0.223224
0.185059
0.184396
0.215004
0.184352
0.180177
0.19501
0.195955
0.198923
0.225796
0.385306
0.263394
0.204211
0.182933
0.224405
0.224038
0.209388
0.18754
0.27532
0.797908
0.207151
0.208221
0.212115
0.177917
0.1825
0.888653
0.280931
0.331035
0.5659
0.177981
0.184378
0.249912
0.180184
0.193469
0.179018
0.198685
0.262889
0.177877
0.322403
0.493357
0.174448
0.193797
0.208657
0.256448
0.231762
0.217201
0.209613
0.213076
0.178474
0.182043
0.185904
0.192923
0.186941
0.190418
0.200161
0.18803
0.177883
0.187916
0.220108
0.207499
0.208072
0.184925
0.196626
0.176846
0.180079
0.174494
0.210046
0.181768
0.185668
0.164883
0.167321
0.191519
0.19895
0.186909
0.184008
0.338926
0.180155
0.202056
0.17643
0.392361
0.201294
0.195778
0.192841
0.191562
0.180072
0.195909
0.174506
0.182031
0.182115
0.181918
0.195291
0.17594
0.200994
0.176307
0.185157
0.166792
0.1833
0.19877
0.178479
0.203659
0.183116
0.250489
0.214391
0.177421
0.223619
0.183196
0.36657
0.189599
0.185832
0.186846
0.18903
0.181311
0.181585
0.18665
0.184194
0.210711
0.167829
0.18167
0.195823
0.188604
0.1864
1.02602
0.186282
0.189046
0.182695
0.182956
0.251959
0.181925
0.187156
0.180371
1.54885
0.199436
0.177701
0.172177
0.183177
0.275804
0.181914
0.204976
0.173939
0.19521
0.167078
0.305523
0.206339
0.167823
0.27223
0.186312
0.176021
0.189129
0.189025
0.186341
0.188182
0.1778
0.180243
0.214542
0.225291
0.273762
0.252713
3.10836
0.1823
0.193307
0.189856
0.184038
0.188115
0.185567
0.18565
0.300037
0.184801
0.188951
0.179354
0.173712
0.206917
0.178887
1.2623
0.469469
0.209024
0.17647
4.28081
0.214141
0.212284
0.169167
0.179792
0.193664
0.285184
0.222444
0.208702
0.19012
1.16846
0.183481
0.462053
0.171616
0.229833
0.248658
0.178997
0.501634
0.131518
0.246001
0.182424
0.178565
0.192515
0.197117
0.331953
0.196176
0.354714
0.185853
1.23893
0.212059
0.174579
0.17519
0.176348
0.178716
0.328636
0.177475
0.312391
0.252977
0.185029
0.245244
0.218582
0.204721
1.4971
0.181632
0.211906
0.181391
0.177182
0.17948
0.237642
0.270978
0.272958
0.185135
0.219953
0.196495
0.215733
0.22393
0.183277
0.17784
0.190914
0.184206
0.205744
0.17456
0.178157
0.196434
0.183364
0.175551
0.263248
0.23126
0.23209
0.186854
0.236063
0.188163
0.175739
0.20819
0.298488
0.219317
0.178291
0.206845
2.54506
0.158516
0.231175
0.178996
0.180517
0.18523
0.293705
0.203332
0.172751
0.18523
0.213275
4.35015
0.175993
0.216725
0.188126
0.178659
0.240665
0.21175
0.175618
0.213343
0.186259
0.17931
0.182957
0.466804
0.200144
0.180955
2.82164
0.206637
0.176216
0.279666
0.515137
0.211095
0.183977
0.188218
0.211204
0.215507
0.181738
0.33673
0.219431
0.1778
0.446648
0.264966
0.188317
0.230948
0.444138
0.287457
0.24434
0.201897
0.199435
0.197783
0.205827
0.255881
0.193079
0.249079
0.199462
0.286546
0.177774
0.195553
0.340925
0.17642
0.177864
0.191501
0.180626
0.193558
0.225757
0.180471
0.176312
0.303808
0.178491
0.182637
0.181033
0.426659
0.214416
0.183113
0.176757
0.169976
1.52362
0.205127
0.127523
0.183187
0.255907
0.267558
0.189392
1.09276
0.183574
0.177562
0.178812
0.164327
0.193674
0.25219
0.15645
0.187807
0.185946
0.178587
0.175976
0.2074
0.188046
0.264652
0.171853
0.175197
0.253584
0.190858
0.163911
0.268313
0.189549
0.173979
0.60761
0.536139
0.173723
0.200185
0.209255
0.17826
0.178482
0.365174
0.181045
0.188955
0.258508
0.875131
0.183276
0.176541
0.205243
0.317602
0.179476
0.182052
0.191506
0.17807
0.230282
0.242272
0.410718
0.17948
0.183808
0.176891
0.222586
1.2955
0.179754
0.27557
0.201619
0.23589
0.377261
0.183489
0.17796
0.872515
0.246011
0.208313
0.277429
0.233149
0.184617
0.178776
0.195091
0.375438
0.229819
0.176277
0.198688
0.177873
0.240064
0.191573
0.257737
0.179695
0.184676
0.177961
0.194239
0.210915
0.539636
0.237941
0.18189
0.224685
0.178847
0.17506
0.239559
0.328246
0.200599
0.160781
0.156799
0.200298
0.321147
0.200891
0.302587
0.173903
0.179772
0.177976
0.185003
0.227556
0.286961
0.226303
0.181939
0.405035
0.28829
0.255075
0.188354
0.187137
0.182986
0.652959
0.190119
0.17987
0.244539
0.728483
0.245691
0.589041
0.183455
0.496315
0.218411
0.418939
0.196456
0.191502
0.184043
0.286573
0.564263
0.177224
0.285488
0.201541
0.173582
0.162038
0.227387
0.934537
0.288052
0.220307
0.548482
0.177183
0.969076
0.309358
0.208446
0.351124
0.199337
0.17159
0.205716
0.181155
0.242958
0.189324
0.226351
0.261401
0.190044
0.275355
0.236151
0.277279
0.196613
0.252706
0.402664
0.19012
0.725255
0.190038
0.319661
0.175016
0.262467
0.180509
0.181429
0.178727
0.206845
0.294159
0.202908
0.21493
0.178025
0.237403
1.23274
0.208984
0.186212
0.226801
0.384545
0.180085
0.203246
0.248105
0.203525
0.197972
0.184738
0.221047
0.22089
0.384756
0.179284
4.13094
0.226368
0.617293
0.304167
0.176565
0.230154
0.195411
0.219036
0.187665
0.177794
0.17101
0.176978
0.209672
0.229526
0.195022
0.335458
0.300458
0.178816
0.181358
0.221262
0.183837
0.187834
0.176445
0.200681
2.8418
0.243657
0.268181
0.175365
0.439688
0.187663
0.178335
0.178707
0.355689
0.204201
0.177883
0.322013
0.178753
0.188124
0.178249
0.181399
0.295741
0.339504
0.186663
0.37332
0.177145
0.181369
0.211593
0.59122
0.177415
0.244976
0.25516
0.334397
0.297818
0.223904
0.18399
0.293585
0.215664
0.17922
0.188875
0.237886
0.332104
0.178383
0.177736
0.28058
0.24486
0.426237
0.178671
0.227302
0.290625
0.61521
0.178259
0.192872
0.182296
0.196033
0.377499
0.182958
0.224972
2.56135
0.1867
0.180959
0.545022
0.267881
0.245468
0.176542
0.266419
0.170678
0.185339
0.17801
0.179737
1.43878
0.181584
0.481322
0.321884
0.188851
0.22873
0.259467
0.190947
0.264394
0.178856
0.215348
0.258022
0.191359
0.23302
0.178002
0.184128
0.18324
0.241058
0.190992
0.185838
0.302379
0.178022
0.186167
0.225007
0.197087
0.276373
0.169221
0.178133
0.33571
0.202971
0.186798
0.287879
0.178074
0.3164
0.219128
0.435456
0.293275
0.190406
0.235663
0.226604
0.211415
0.187684
0.159988
0.635783
0.766506
1.06611
0.242833
0.163136
1.00622
0.199743
0.182352
0.166501
0.269359
0.184189
0.238632
0.254039
0.178104
0.201736
0.193811
0.17797
0.253322
0.177938
0.32595
0.298268
0.186841
2.49324
0.178027
0.224035
0.272298
0.260054
0.314441
1.31566
0.733308
0.201606
0.180361
0.247063
0.179008
0.153196
0.163034
0.179537
0.182714
0.212314
0.187057
0.177851
0.177866
0.180182
0.306614
0.182569
0.258106
0.18479
0.178013
0.273147
0.304783
0.206496
0.206229
0.218033
0.178349
0.148049
0.248607
0.260448
0.159808
0.580771
0.183461
0.177013
0.311152
0.22896
0.190074
0.299961
1.72005
0.496772
0.256054
0.243179
0.178572
0.324514
0.505081
0.228093
0.257282
0.344422
0.197974
0.18855
0.204081
0.3878
0.178039
0.227589
0.305683
0.211637
0.525096
0.200531
0.252108
0.154793
0.294371
0.193304
0.229494
0.160491
0.201634
0.1725
0.203488
0.182397
1.73547
0.345074
0.226542
0.235813
0.22139
0.236681
0.247576
0.307656
0.190019
0.189578
0.267913
0.209318
0.231325
0.177748
0.174629
0.293632
0.491664
0.178179
0.178258
0.185449
0.228579
0.1752
0.178386
0.181105
0.186317
0.390039
0.17804
0.180089
0.247031
0.259725
0.174772
0.184278
0.185016
0.179144
0.265565
0.867673
0.240364
0.194727
0.857807
0.181704
0.17779
0.316028
0.180282
0.182149
0.197979
0.19688
0.205705
0.179958
0.301064
0.259001
0.189257
0.219998
0.18298
0.184256
0.187101
0.185862
0.184162
0.180927
0.183921
0.314613
0.161927
0.230908
0.185441
0.183369
0.186136
0.279129
0.268501
0.153877
0.687479
0.172229
0.175152
0.282786
0.204743
0.517763
0.596867
0.155504
0.735262
0.154163
0.154003
0.923154
0.193338
0.218215
0.196873
0.182043
0.177927
0.196276
0.608507
0.184283
0.260997
0.194038
0.246108
0.189109
0.312606
0.184655
0.409564
0.249947
0.336011
0.27135
0.1862
0.180648
0.180886
0.184658
0.187486
0.199668
0.25714
0.191125
0.182795
0.177919
0.236138
0.190954
0.25945
0.261425
0.192435
0.183973
0.181467
0.179032
2.00136
0.779996
0.178241
0.190521
0.184267
0.183932
0.264645
0.225423
0.29232
0.192899
0.208012
0.173193
0.245882
0.179309
0.186354
0.188397
0.190234
0.191932
0.182514
0.196464
0.487595
0.290559
0.432683
0.179142
2.04292
0.206304
0.265704
0.179811
0.183014
0.254899
0.301046
0.321329
0.420337
0.513154
0.247607
0.201662
0.244193
0.251544
0.26305
0.271427
0.195226
0.259321
0.196732
0.18637
0.181398
0.194096
0.195371
0.307054
0.338107
0.178612
0.259422
0.178656
0.159371
0.37397
0.250036
0.179328
0.188111
0.182685
0.336348
0.177673
0.182697
0.90611
0.29596
0.195327
0.181643
0.178237
0.189518
0.201261
0.381995
0.171789
0.223671
0.339412
0.185513
0.179709
0.183475
0.180412
0.184583
0.17788
0.391468
0.29702
0.15401
0.186581
0.179758
0.188427
0.179523
0.132979
0.178376
0.640435
0.179822
0.154693
0.221459
0.186602
0.555714
0.220837
0.208299
0.17841
0.169547
0.190268
0.272633
0.189436
0.441264
0.179795
0.178732
0.183342
0.328469
0.184942
0.178897
0.356996
0.450357
0.198588
0.169864
0.201107
0.224551
0.184411
0.673165
0.430702
0.217814
0.178576
0.188891
0.186573
0.179491
0.303483
0.182203
0.186607
0.23912
0.20834
0.19126
0.205579
0.178001
0.480723
0.191378
0.221707
0.232337
0.184648
0.286911
0.349835
0.201876
0.183828
0.26046
0.195622
0.225831
0.232692
0.22632
0.203512
0.180505
0.179971
0.212503
0.239776
0.195018
0.177277
0.295069
0.206434
0.191026
0.230193
0.255469
0.305437
0.185081
0.187283
0.245113
0.166641
0.190205
0.190528
0.187401
0.46005
0.178989
0.179348
0.175914
0.252584
0.181538
0.623035
0.203903
0.220528
0.18331
0.178866
0.246219
0.434254
0.199416
0.397392
0.241147
0.226325
0.312572
0.124734
0.182901
0.182049
0.182554
0.187856
0.20404
0.176394
0.206145
0.178681
0.163932
0.205398
0.215308
0.18366
0.288834
0.203571
0.187379
0.214397
0.177683
0.232743
0.193595
0.183953
0.182602
0.192635
0.193603
0.185142
0.18607
0.464189
0.184295
0.180593
0.907337
0.184119
0.171016
0.285264
0.198254
0.187565
0.177083
0.17817
0.455706
0.178674
0.193476
0.412335
0.18043
0.35228
0.184398
0.146441
0.148759
0.532835
0.941051
0.327446
0.177825
0.27239
0.177587
0.972992
0.195777
0.191288
0.157251
0.157497
0.164849
0.156104
0.180801
0.146974
0.166045
0.155008
0.160546
0.167659
0.168093
0.172957
0.147423
0.147592
0.159646
0.179369
0.149609
0.16662
0.350754
0.172079
0.145076
0.144824
0.152947
0.183152
0.156865
0.177002
0.15885
0.166991
0.165016
0.174254
0.168461
0.164923
0.16049
0.155861
0.170722
0.154468
0.173824
0.170493
0.171673
0.165563
0.164843
0.169984
0.170988
0.183785
0.177879
0.241733
0.19716
0.198357
0.180294
0.192305
0.215897
0.184015
0.179617
0.206911
0.184793
0.640944
0.215714
0.300705
0.239878
0.218167
0.474395
0.182658
0.182726
0.186535
0.212152
0.228783
0.18851
0.200204
0.404546
0.229159
0.207565
0.180473
0.284896
0.223041
0.22554
0.206422
0.378812
0.182928
0.193605
0.194716
0.266945
0.189619
0.254846
1.1699
0.197793
0.191569
0.296137
0.463235
0.179098
0.180473
0.341135
0.362442
1.59354
0.178966
0.185418
0.168018
0.201699
0.193979
0.183359
0.189786
0.24267
0.176271
0.154273
0.146436
0.173042
0.17599
0.153208
0.161693
0.172749
0.173153
0.168471
0.179631
0.16899
0.162535
0.170306
0.164171
0.221879
0.168433
0.144353
0.149323
0.144137
0.155434
0.236876
0.155221
0.182092
0.319066
0.126067
0.264605
0.191657
0.362352
0.195132
0.178139
0.177216
0.206562
0.185212
0.185567
0.193583
0.222116
0.157648
0.194873
0.17777
0.17834
0.309626
0.21141
0.238627
0.178412
0.183403
0.209874
0.218873
0.182713
0.217609
0.188957
0.184275
0.181155
0.175421
0.193297
0.197337
0.191483
0.223111
0.200267
0.199206
0.172984
0.198675
0.192007
0.182085
0.18202
0.21438
0.188398
0.189287
0.180733
0.182836
0.185586
0.31779
0.206676
0.202094
0.18031
0.182227
0.289318
0.12488
0.318972
0.217549
0.188784
0.184417
0.17057
0.17876
0.222876
0.42911
0.185333
0.312102
0.179579
0.180241
0.180437
0.484117
0.177665
0.206859
0.184515
0.157781
0.169876
0.208192
0.180383
0.277611
0.187733
0.179067
0.177588
0.18616
0.242035
0.183549
0.186675
0.221999
0.181792
0.181254
0.179881
0.181818
0.203648
0.236865
0.190044
0.180896
0.179298
0.195563
0.176474
0.178837
0.178405
0.179833
0.469981
0.191474
0.186659
0.189131
0.208738
0.683032
0.209202
0.371872
0.193731
0.191235
0.170336
0.251298
0.204658
0.17955
0.186249
0.182156
0.179194
0.174455
0.17474
0.267464
0.180184
0.190571
0.17832
0.180222
0.179355
0.274447
0.194709
0.183191
0.217752
0.174504
0.202302
0.194837
0.31421
0.445446
0.187899
0.192788
0.178091
0.178256
0.194694
0.186927
0.182384
0.179593
0.186761
0.185873
0.181332
0.182746
0.188172
0.181519
0.182491
0.179746
0.188977
0.182107
0.184497
0.182671
0.189158
0.185473
0.188568
0.1851
0.189026
0.184659
0.178215
0.178451
0.179306
0.29594
0.178493
0.179069
0.179595
0.179117
0.149251
0.193867
0.262913
0.203187
0.180218
0.181125
0.180755
0.183075
0.211207
0.202858
0.255649
0.180641
0.181222
0.182164
0.25553
0.183098
0.272948
0.178195
0.288064
0.431603
0.180747
0.262913
0.19272
0.209727
0.185179
0.176122
0.181529
0.181756
0.184792
0.186445
0.197114
0.186394
0.193722
0.200701
0.195954
0.213069
0.286986
0.245105
0.189333
0.192423
0.181315
0.215399
0.196761
0.192815
0.268073
0.180842
0.179677
0.183469
0.183893
0.178621
0.202105
0.234057
0.181979
0.203858
0.181931
0.187756
0.188
0.192657
0.180668
0.206123
0.179095
0.265654
0.198794
0.190126
0.178752
0.224457
0.221525
0.179065
0.181022
0.189138
0.178326
0.179167
0.275566
0.188113
0.180649
0.185113
0.223445
0.179317
0.180202
0.179642
0.202105
0.17841
0.290754
0.181163
0.180008
0.180309
0.207137
0.311691
0.180004
0.179802
0.227972
0.274296
0.186536
0.183845
0.181169
0.178487
0.178361
0.184654
0.237214
0.267155
0.270079
0.309672
0.229295
0.40109
0.184084
0.19409
0.187742
0.180313
0.21459
0.182848
0.186145
0.179752
0.178289
0.175552
0.344435
0.210777
0.182032
0.189234
0.180825
0.228516
0.232093
0.259266
0.186467
0.195931
0.183827
0.196236
0.204579
0.200913
0.181505
0.247844
0.195383
0.203328
0.215141
0.187811
0.228463
0.199896
0.219997
0.185999
0.194205
0.178919
0.183895
0.178579
0.263052
0.188031
0.198538
0.183506
0.204082
0.191312
0.289429
0.18474
0.182072
0.180575
0.220068
0.184282
0.182048
0.284211
0.181583
0.181232
0.182075
0.207422
0.188664
0.188337
0.183688
0.181849
0.189735
0.233512
0.18139
0.18353
0.185532
0.182781
0.197048
0.254032
0.185422
0.190145
0.18179
0.182151
0.184521
0.191973
0.197607
0.191585
0.182478
0.241863
0.18702
0.188235
0.202211
0.194923
0.178847
0.184091
0.180193
0.166779
0.182959
0.179041
0.178585
0.184935
0.184604
0.229228
0.211496
0.185546
0.178112
0.289014
0.180499
0.180643
0.213458
0.188552
0.212353
0.19934
0.215468
0.17564
0.188505
0.166743
0.316698
0.181506
0.220922
0.240747
0.250856
0.184368
0.182794
0.179093
0.17851
0.178231
0.182365
0.183074
0.233087
0.197518
0.18314
0.178439
0.178228
0.179196
0.187663
0.180899
0.17816
0.306224
0.189102
0.191665
0.214034
0.347063
0.180845
0.222493
0.250822
0.228455
0.172784
0.18737
0.231999
0.251609
0.203407
0.221373
0.235749
0.18546
0.1783
0.17815
0.236432
0.177886
0.204932
0.178126
0.281514
0.178139
0.361195
0.29886
0.180406
0.184105
0.178637
0.179963
0.25687
0.253938
0.197226
0.195328
0.256333
0.218917
0.204793
0.233518
0.201233
0.181941
0.193661
0.269054
0.188346
0.192376
0.235564
0.186434
0.183002
0.206312
0.23666
0.242593
0.204761
0.2347
0.259693
0.225029
0.268578
0.214061
0.210764
0.193359
0.178316
0.178081
0.207871
0.182839
0.203043
0.178078
0.300767
0.27703
0.25693
0.192553
0.199247
0.231163
0.256967
0.17812
0.326237
0.17916
0.266908
0.184218
0.241112
0.183882
0.18166
0.185024
0.237748
0.245801
0.253322
0.269898
0.182425
0.258473
0.186642
0.212609
0.260674
0.179363
0.178461
0.198505
0.216587
0.192986
0.186769
0.177131
0.181351
0.197643
0.240685
0.221548
0.178499
0.178125
0.214297
0.196136
0.178813
0.180876
0.182751
0.183292
0.189466
0.190538
0.298359
0.20205
0.217487
0.195819
0.178291
0.399559
0.179019
0.181568
0.187895
0.178664
0.178648
0.238289
0.231755
0.182155
0.17116
0.193478
0.179143
0.178261
0.210182
0.326255
0.193156
0.179267
0.193536
0.180664
0.204175
0.190807
0.239169
0.238137
0.259772
0.190203
0.258323
0.179614
0.1885
0.251437
0.182931
0.186902
0.192542
0.213247
0.266413
0.179787
0.182781
0.181228
0.221675
0.231968
0.18552
0.242836
0.246689
0.325489
0.184292
0.212558
0.178757
0.178144
0.182293
0.184117
0.183227
0.277233
0.18817
0.242871
0.182283
0.179942
0.182556
0.232283
0.271784
0.232748
0.225187
0.222456
0.216481
0.298217
0.265578
0.179646
0.794022
0.335531
0.191337
0.187044
0.228679
0.231589
0.272908
0.178294
0.265615
0.206905
0.224837
0.319096
0.250331
0.253245
0.183547
0.17489
0.178225
0.320021
0.275438
0.181862
0.249385
0.178628
0.178329
0.178192
0.178945
0.21872
0.184448
0.178699
0.318327
0.185282
0.181132
0.667614
0.18365
0.193716
0.242441
0.200972
0.210112
0.179436
0.180229
0.193368
0.23428
0.271444
0.221465
0.239441
0.204176
0.177965
0.188872
0.198882
0.193463
0.247612
0.214149
0.259355
0.179495
0.189885
0.198308
0.183187
0.243868
0.178166
0.186005
0.199616
0.17952
0.182344
0.206369
0.189305
0.188892
0.184983
0.182561
0.204559
0.271279
0.343502
0.217782
0.183267
0.187079
0.286439
0.211874
0.283825
0.43638
0.245713
0.155753
0.156031
0.185006
0.179196
0.180335
0.190105
0.240167
0.265527
0.278172
0.202392
0.231074
0.233547
0.371886
0.183717
0.187601
0.281569
0.179467
0.178306
0.23914
0.296826
0.235154
0.245792
0.17631
0.183141
0.224079
0.203105
0.181829
0.185532
0.181456
0.191615
0.211841
0.470296
0.219594
0.199413
0.194556
0.1848
0.179191
0.251393
0.184433
0.184493
0.186517
0.186924
0.231692
0.208547
0.18582
0.612871
0.182368
0.187194
0.197799
0.453775
0.18825
0.333561
0.189717
0.234254
0.178628
0.182966
0.185883
0.22728
0.178771
0.181801
0.219185
0.451668
0.254353
0.187952
0.252841
0.185259
0.189838
0.239537
0.183803
0.180186
0.178167
0.301045
0.186366
0.197074
0.247414
2.65081
0.181591
0.214601
0.231656
0.186792
0.186739
0.196271
0.22751
0.179024
0.175154
0.192079
0.194783
0.178809
0.180044
0.182234
0.181097
0.181596
0.407651
0.206853
0.17927
0.191111
0.182526
0.290597
0.256325
2.72702
0.245247
0.194343
0.23476
0.184778
0.257598
0.178045
0.446826
0.222105
0.182431
0.186695
0.174388
0.294754
0.240452
0.178092
0.180659
0.181298
0.187516
0.18129
0.395577
0.179536
0.18052
0.178258
0.195762
0.199567
0.263999
0.164289
0.182996
0.211587
0.179616
0.190597
0.21436
0.296557
0.187836
0.193855
0.179971
0.203962
0.197222
0.181956
0.258604
0.181761
0.178631
0.24831
0.208286
0.178765
0.439992
0.185638
0.181545
0.178837
0.189689
0.216473
0.350413
0.17874
0.179473
0.20651
0.28579
0.182982
0.678729
0.204471
0.1883
0.1791
0.226257
0.17982
0.297566
0.183106
0.189165
0.182327
0.210453
0.189603
0.569498
0.164108
0.179632
0.181857
0.179544
0.274944
0.290502
0.180143
0.181009
0.200366
0.180808
0.177618
0.181552
0.322649
0.181599
0.180718
0.219906
0.225373
0.228904
0.194633
0.360553
0.301911
0.307999
0.218829
0.181996
0.178585
0.372001
0.191801
0.180207
0.185571
0.185865
0.196035
0.186764
0.189432
0.223708
0.242286
0.245274
0.182855
0.81784
0.193642
0.15498
0.197269
0.184034
0.207619
0.443083
0.495006
0.214945
0.180914
0.187323
0.262652
0.202097
0.231206
0.369819
0.185139
0.181307
0.235723
0.220209
0.262889
0.180575
0.178413
0.258059
0.186893
0.192225
0.213268
0.181688
0.220313
0.187704
0.179779
0.182424
0.262112
0.888486
0.200925
0.179157
0.228578
0.191598
0.221136
0.180701
0.392377
0.182916
0.178817
0.190967
0.204078
0.179888
0.413159
0.217509
0.181129
0.203429
0.219524
0.183895
0.209606
0.215066
0.181995
0.212128
0.399653
0.178115
0.184416
0.182475
0.183074
0.191598
0.180139
0.18012
0.187164
0.190536
0.180861
0.180122
0.18406
0.179987
0.251103
0.228913
0.323959
0.18026
0.205966
0.423183
0.22365
0.237088
0.183264
0.240635
0.258911
0.186489
0.205849
0.199656
0.205335
0.18686
0.203231
0.166694
0.183997
0.187236
0.322965
0.19239
0.179731
0.179257
0.195214
0.187764
0.178287
0.18632
0.237139
0.197176
0.186323
0.185757
0.207235
0.232707
0.223195
0.183741
0.570997
0.249289
0.820061
0.178026
0.183317
0.237268
0.214065
0.183522
0.199357
0.302836
0.184573
0.415024
0.19213
0.180001
0.179241
0.182525
0.182155
0.180493
0.181243
0.1789
0.177932
0.17802
0.186329
0.192696
0.288822
0.178187
0.197329
0.185986
0.25284
0.179634
0.18009
0.220085
0.182445
0.163725
0.264202
0.183289
0.1974
0.181345
0.2001
0.271847
0.177886
0.190448
0.180529
0.291602
0.256184
0.286747
0.198384
0.189538
0.355912
0.187316
0.179236
0.256683
0.178022
0.181853
0.221469
0.179033
0.20988
0.166732
0.1967
0.181146
0.3667
0.192278
0.208015
0.249934
0.18548
0.190925
0.191221
0.252988
0.197093
0.179073
0.193542
0.184458
0.184381
0.181904
0.178027
0.293646
0.167623
0.181702
0.182581
0.19587
0.18552
0.308903
0.182605
0.186824
0.194908
0.192183
0.190404
0.221703
0.255072
0.175289
0.188494
0.213748
0.27693
0.20633
0.194339
0.191481
0.190831
0.185683
0.261709
0.182206
0.180528
0.208071
0.178045
0.225647
0.183138
0.166344
0.177061
0.252874
0.372404
0.184018
0.184218
0.192869
0.205408
0.270922
0.309399
0.318031
0.348708
0.22996
0.191181
0.188899
0.190495
0.196394
0.282765
0.3341
0.18008
0.214703
0.251739
0.183565
0.182354
0.18524
0.184204
0.259964
0.17809
0.231242
0.202541
0.175301
0.188929
0.208459
0.286563
0.319762
0.2959
0.695654
0.159182
0.149453
0.189939
0.192906
0.361709
0.180341
0.198121
0.18656
0.18487
0.188615
0.183827
0.203819
0.504981
0.192911
0.21118
0.230964
0.184378
0.433765
0.216566
0.184575
0.193459
0.241241
0.188157
0.283993
0.274275
0.224566
0.140602
0.192588
0.2719
0.250813
0.197076
0.196166
0.183424
0.176588
0.194984
0.228835
0.236207
0.225288
0.225587
0.480639
0.178866
0.364666
0.181113
0.185337
0.200869
0.295437
0.182377
0.309689
0.183321
0.165949
0.210841
1.24777
0.212212
0.186947
0.172498
0.178207
0.258542
0.282991
0.241223
0.210285
0.193169
0.220892
0.246221
0.198295
0.179205
0.186098
0.18145
0.198714
0.439826
0.205505
0.288765
0.217489
0.185335
0.190009
0.235669
0.187873
0.179477
0.493173
0.203458
0.184173
0.179577
0.201719
0.226882
0.251123
0.180989
0.200271
0.181293
0.18353
0.182569
0.197739
0.181281
0.178272
0.261488
0.216988
0.191234
0.287567
0.18856
0.182662
0.181169
0.179845
0.185917
0.19105
0.179318
0.180167
0.191789
0.46689
0.206698
0.181749
0.173078
0.286749
0.157683
0.22059
0.17829
0.286592
0.18007
0.211179
0.226247
0.25169
0.288937
0.259379
0.206134
0.192548
0.177019
0.315494
0.19817
0.182385
0.516218
0.194493
0.180198
0.181968
0.245262
0.517961
0.249299
0.181496
0.184374
0.220487
0.175254
0.319575
0.228513
0.205325
0.181358
0.178346
0.346036
0.180948
0.179837
0.371381
0.208712
0.234997
0.34459
0.245559
0.178502
0.212176
0.181613
0.182585
0.24388
0.18806
0.268459
0.221983
0.237935
0.212447
0.23155
0.182009
0.179163
0.244616
0.178202
0.179099
0.180493
0.179585
0.183494
0.180018
0.179081
0.18634
0.211765
0.418323
0.316192
0.179813
0.178978
0.181555
0.181619
0.184165
0.210411
0.258794
0.449937
0.181784
0.180547
0.184777
0.197663
0.260675
0.21902
0.205216
0.184165
0.30551
0.209325
0.187958
0.41219
0.319241
0.178558
0.190048
0.178627
0.228723
0.227645
0.398847
0.276983
0.227859
0.247568
0.262186
0.473157
0.165346
0.147924
0.207331
0.147985
0.421849
0.313163
0.18111
0.181498
0.182681
0.180946
0.179671
0.181212
0.148108
0.242054
0.186657
0.146691
0.188421
0.199291
0.20288
0.215366
0.182209
0.222289
0.15514
0.205794
0.149183
0.139392
0.14892
0.187811
0.254765
0.223501
0.266772
0.178727
0.180428
0.203545
0.23382
0.158706
0.193968
0.117219
0.240197
0.190499
0.422659
0.241019
0.264546
0.203556
0.258995
0.28306
0.159131
0.181555
0.198636
0.212827
0.215192
0.191321
0.166623
0.140816
0.182274
0.237829
0.190122
0.193563
0.214609
0.269643
0.280531
0.189371
0.163255
0.17664
0.185307
0.179099
0.199843
0.365823
0.213211
0.144775
0.222637
0.185028
0.182368
0.183263
0.191555
0.213281
0.180081
0.229179
0.193078
0.184227
0.202566
0.189688
0.158095
0.162661
0.193762
0.14053
0.194457
0.212866
0.392431
0.411367
0.234031
0.189691
0.197379
0.404191
0.325405
0.185913
0.169243
0.182489
0.279385
0.181933
0.301999
0.250105
0.164772
0.141985
0.230015
0.295954
0.23872
0.822815
0.270223
0.18889
0.195998
0.187792
0.259782
0.215962
0.279345
0.309584
0.160869
0.227654
0.293122
0.177206
0.180306
0.242253
0.185905
0.350322
0.1861
0.546757
0.794793
0.19536
0.402049
0.261517
0.167743
0.177164
0.179153
0.153317
0.994409
0.181716
0.27848
0.319638
0.310161
0.254723
0.183844
0.185789
0.178327
0.187796
0.170316
0.140618
0.432821
0.180129
0.23673
0.19783
0.187915
0.413209
0.192662
0.208662
0.214925
0.275538
0.236605
0.224637
0.153549
0.188132
0.183188
0.232076
0.229591
0.216614
0.203059
0.304646
0.447004
0.201138
0.122856
0.122761
0.191187
0.293286
0.261229
0.201651
0.290529
0.182883
0.209484
0.36699
0.1791
0.259574
0.186548
0.183856
0.306354
0.183117
0.293668
0.178681
0.180664
0.210824
0.181581
0.17611
0.195812
0.180846
0.455196
0.155537
0.204813
0.201132
0.379779
0.507865
0.188867
0.224428
0.246201
0.208134
0.377353
0.224599
0.211415
0.615379
1.79981
0.204902
0.179432
0.182852
0.219527
0.186211
0.243757
0.652407
0.176537
0.270132
1.1414
0.234114
0.238208
0.163386
0.194491
0.200604
0.127587
0.195728
0.197902
0.195811
0.178278
0.329151
0.203911
0.246573
0.241227
0.19012
0.191882
0.372316
0.248448
0.234899
0.24569
0.312751
0.184051
0.176165
0.373117
0.19485
0.199859
0.178801
0.15805
0.194805
0.207128
0.165372
0.252822
0.205988
0.17999
0.18611
0.179412
0.228951
0.178102
0.190281
0.179218
0.254438
0.371705
0.195566
0.22331
0.184962
0.235856
0.292126
0.178974
0.226606
0.178222
0.186847
0.178338
0.181412
0.254069
0.182481
0.190318
0.188962
0.192348
0.23622
0.252816
0.213118
0.176949
0.288894
0.306323
0.193382
0.117555
0.190793
0.167389
0.180595
0.181542
0.186512
0.362637
0.59075
0.313192
0.209831
0.237542
0.175959
0.19473
0.180949
0.375615
0.196276
0.241279
0.197513
0.198917
0.199953
0.278204
0.19418
0.16586
0.201892
0.258731
0.209442
0.262946
0.49374
0.178994
0.159248
0.175008
0.21418
0.214704
0.206736
0.214941
0.38936
0.205274
0.454015
0.27447
0.188662
0.284141
0.204745
0.191199
0.268419
0.211629
0.179266
0.179399
0.175519
0.183656
0.282517
0.241354
0.182521
0.225981
0.246177
0.179843
0.179838
0.211763
0.160453
0.234817
0.313162
0.179125
0.237432
0.294272
0.225817
0.459041
0.225381
0.213375
0.226585
0.201018
0.198929
0.213213
0.205748
0.223695
0.17983
0.248805
0.195075
0.184767
0.182659
0.188128
0.180117
1.5901
0.507663
0.480956
0.121803
0.457679
0.120269
0.548042
0.517718
0.531132
0.534741
0.328119
0.180913
0.239598
0.182075
0.191679
0.352476
0.179618
0.183168
0.178188
0.517504
0.175533
0.408177
0.211265
0.183024
1.12434
0.209166
0.17806
0.192589
0.180005
0.184566
0.179634
0.421381
0.473711
0.228374
0.195146
0.160538
0.173031
0.177786
0.188939
0.177076
0.210124
0.411159
0.191773
0.188694
0.236028
0.186141
0.373854
0.209818
0.212264
0.490339
0.198534
0.20153
0.201455
0.177985
0.191961
0.187254
0.204143
0.198777
0.185561
0.247605
0.228996
0.199258
0.172878
0.183359
0.265084
0.187574
0.178588
0.23391
0.222282
0.241259
0.193046
0.179971
0.179935
0.180961
0.179527
0.195672
0.173868
0.279354
0.191679
0.232908
0.188711
0.528839
0.179577
0.279996
0.187223
0.472101
0.180255
0.182389
0.186126
0.189064
0.252786
0.154338
0.179295
0.206746
0.200734
0.190581
0.225152
0.224831
0.181209
0.193316
0.205757
0.172851
0.200962