/*--------------------------------*- C++ -*----------------------------------*\
| =========                 |                                                 |
| \\      /  F ield         | OpenFOAM: The Open Source CFD Toolbox           |
|  \\    /   O peration     | Version:  v1912                                 |
|   \\  /    A nd           | Website:  www.openfoam.com                      |
|    \\/     M anipulation  |                                                 |
\*---------------------------------------------------------------------------*/
FoamFile
{
    version     2.0;
    format      ascii;
    class       volScalarField;
    location    "0.03";
    object      p;
}
// * * * * * * * * * * * * * * * * * * * * * * * * * * * * * * * * * * * * * //

dimensions      [0 2 -2 0 0 0 0];


internalField   nonuniform List<scalar> 
5794
(
96.5513
97.4763
88.7584
101.67
86.8931
97.2217
101.692
99.9932
104.777
91.0798
109.992
98.2233
103.797
91.0275
94.6884
97.8114
46.8031
96.6656
94.5551
96.749
62.3014
96.7286
101.006
97.8259
99.66
51.3222
51.7233
97.4216
103.169
91.8784
101.436
91.5386
107.115
97.0397
98.8432
100.017
99.2557
99.1235
104.204
98.3632
97.7331
96.7574
114.665
91.6816
94.56
107.159
92.4105
102.026
91.215
97.6922
97.0888
104.256
65.6568
92.7786
96.8835
107.107
92.4651
102.319
114.547
44.2026
107.108
96.7468
101.569
91.925
107.143
96.5728
99.6595
88.9738
97.9631
96.7663
104.185
100.507
17.6124
97.2074
97.4114
97.9088
97.5659
58.8448
92.692
96.625
96.252
96.433
97.8192
104.2
99.1385
101.366
89.3781
106.7
98.0645
100.92
107.933
94.3751
101.453
104.456
98.5924
104.091
107.55
101.324
93.2705
108.382
66.6408
87.0787
113.832
92.1338
93.9746
99.6809
96.6867
109.435
102.194
93.4391
97.9512
94.7081
46.4756
96.4094
99.0104
104.169
95.4271
100.192
105.97
73.3845
100.035
92.4473
99.5346
97.5383
94.5906
110.367
89.0388
96.6867
104.515
110.01
98.9775
104.15
90.715
63.8344
100.07
94.7013
115.243
96.7663
97.8324
97.7415
98.5612
91.8706
94.6875
93.0447
97.8255
56.7983
99.5516
116.67
87.6119
94.9705
118.402
93.8404
99.8614
95.5254
52.8608
92.5212
104.231
101.749
107.202
99.1714
94.538
99.4096
97.5309
100.879
103.501
104.564
101.618
99.8638
97.8458
94.6422
94.2706
100.161
98.9553
98.0938
96.2631
100.883
94.9122
99.5175
97.6452
104.15
99.1932
92.4857
101.706
107.246
104.253
52.1652
90.0367
106.964
91.3081
86.039
110.068
92.1602
107.157
101.536
104.065
98.8002
99.778
97.737
94.5853
113.267
101.341
104.128
101.924
104.334
92.3745
107.174
99.4735
109.297
74.9845
99.3867
94.6554
98.3387
101.056
99.5343
97.5965
99.3638
100.661
92.6324
109.812
106.699
99.3598
104.271
107.081
101.916
115.585
37.7847
82.7369
90.781
90.3992
94.905
97.3043
96.8412
95.4808
100.944
99.4234
54.2782
63.3634
111.769
102.781
98.5149
97.6113
109.06
100.844
95.325
95.9531
98.0339
94.64
87.3825
107.439
101.467
93.2732
96.5622
51.0854
96.4931
117.13
77.1624
112.487
117.004
109.323
94.5451
114.871
101.316
99.6999
96.3671
104.489
100.095
94.4685
110.94
94.6299
107.185
92.3759
101.78
99.6877
104.313
105.6
94.9583
92.2826
98.2947
95.2229
103.424
97.7857
107.671
97.9195
96.8193
98.6399
100.263
92.2852
97.188
103.916
100.132
99.3459
98.3562
96.7762
92.7318
114.415
63.7057
97.1013
96.0585
97.7722
96.3629
96.274
64.8591
95.959
99.5091
94.9465
111.476
95.4323
98.643
107.188
92.4356
101.758
106.819
100.182
96.3878
102.063
102.166
109.444
97.1048
102.805
103.452
100.068
101.978
100.45
86.6053
97.6659
104.16
97.0954
98.5573
103.935
109.922
104.055
114.261
101.28
107.052
90.697
91.1607
90.8288
97.6811
91.4566
106.937
97.839
99.5767
104.512
101.105
95.2169
101.673
107.282
92.6843
105.076
99.2063
104.221
60.1301
107.201
92.276
101.644
49.868
94.4521
104.393
101.573
99.9216
109.34
99.0287
114.214
101.628
99.9452
89.4729
103.984
107.151
92.4517
102.159
95.2254
96.4411
89.6138
96.4734
109.439
103.1
106.889
91.5587
102.327
95.3399
97.2129
95.4874
101.192
100.43
99.1206
97.295
102.883
101.82
100.026
101.924
100.017
102.891
96.8283
97.8592
97.0631
96.6641
95.1836
94.5536
94.5696
100.78
97.6574
99.4729
52.0129
98.0384
94.7242
111.062
85.3286
97.6454
97.0344
107.152
101.477
91.566
110.513
97.0592
107.186
92.4973
101.815
98.6187
102.695
107.442
93.1004
101.401
109.623
94.8605
100.301
99.0039
97.2819
96.4302
96.7245
96.5622
103.963
99.6595
94.2142
46.3806
94.5638
95.8114
99.2796
104.266
100.618
99.2385
97.4087
102.537
104.204
99.1006
97.9426
104.241
98.7762
97.7836
92.6778
95.9419
90.5401
96.6588
44.8218
96.5066
101.082
96.3574
107.644
105.528
98.5033
104.566
96.5767
96.8445
75.2658
97.9912
109.738
110.064
47.7309
84.0324
110.24
94.1654
96.3444
69.1872
110.596
90.4324
91.4363
106.459
60.7884
97.2833
96.8375
96.589
78.0387
96.1242
91.1459
90.5505
109.467
109.946
96.9721
97.6874
57.0564
96.1058
96.4418
101.551
101.074
86.4039
82.5545
97.806
93.7391
95.5745
97.7863
111.197
81.6931
59.7731
102.748
104.098
93.9268
97.0386
97.1975
116.757
110.421
96.5125
103.712
95.5794
97.4015
96.3064
96.345
98.4635
103.506
96.278
96.4156
50.3007
98.166
97.1342
85.5793
100.024
110.211
97.6676
95.4894
108.273
96.9299
97.0154
85.1874
96.372
48.5134
95.8942
89.8574
82.7575
100.191
116.582
110.118
115.594
96.4874
41.6203
96.6585
90.2167
96.95
97.6024
99.839
92.666
96.3877
96.3864
91.9118
94.9358
94.6524
94.0206
96.7071
94.6873
88.3018
97.3554
97.0193
89.4131
20.326
93.5444
110.791
93.8091
91.0781
97.5374
97.9207
97.7486
96.0406
96.4377
111.09
98.5827
103.097
95.8696
62.1281
92.9716
83.5648
97.9555
96.2456
97.3499
102.962
97.8123
108.674
52.4072
105.461
114.703
96.449
101.349
93.1838
107.411
96.4869
96.9507
96.7367
103.811
99.004
106.755
95.6547
103.575
96.9175
86.1872
98.5509
112.322
99.1724
104.231
96.3488
110.462
63.9291
91.1163
96.8799
97.1942
81.0109
76.8528
88.5417
82.6619
99.2372
104.268
111.437
109.31
111.516
101.809
96.3423
110.17
110.502
109.364
96.6511
97.4761
96.4596
89.48
108.966
96.4304
97.0688
97.2674
95.8648
98.1903
97.1051
91.0818
75.3837
102.637
90.0159
96.829
96.47
113.577
109.67
93.1867
115.332
104.269
98.9552
124.785
96.0066
96.8647
95.8792
93.5667
95.9594
104.292
99.0994
111.911
47.7643
101.733
43.4539
96.7873
95.8497
91.2432
95.9992
78.3905
96.4139
97.8984
104.192
100.066
92.6811
107.673
112.162
94.5261
39.3766
104.336
100.151
98.6753
104.215
97.4029
86.9796
98.5284
98.0896
109.251
94.3152
97.6584
89.3434
115.621
104.217
95.6881
94.978
96.2341
98.0585
105.369
78.9316
99.6843
92.1669
108.137
109.363
95.8637
95.5243
100.37
91.3492
103.24
96.3927
116.66
90.4004
107.185
94.0603
90.8357
96.0565
108.696
115.654
104.571
98.3279
104.125
110.567
101.42
101.361
42.1364
110.509
103.328
109.16
76.2313
116.169
96.0568
79.5124
93.5501
116.638
102.468
108.823
103.244
99.4252
76.8706
105.153
110.052
92.438
92.2062
43.1031
110.333
93.8729
101.218
107.771
97.332
99.4419
85.3606
93.5468
101.153
92.2654
107.53
75.4723
102.879
96.879
92.0967
94.464
96.3361
99.165
104.101
101.436
104.622
98.8383
114.112
97.2514
65.3148
102.007
98.3349
104.248
101.714
95.577
108.04
93.2579
101.488
93.0272
107.331
90.3629
96.0032
89.9772
96.8375
97.7603
96.9277
88.3564
96.5785
109.491
45.4807
79.9188
97.5966
97.0703
102.647
96.3236
109.321
103.455
98.6553
97.604
108.436
107.271
92.8733
101.621
97.3471
96.536
41.3582
96.1891
69.831
95.0826
109.401
98.0933
96.5468
97.4598
93.455
109.546
109.15
112.316
105.817
100.434
98.4943
94.2344
112.63
106.23
97.9003
98.9034
107.05
108.969
97.0654
97.6164
87.2076
116.678
53.8199
96.409
101.712
94.2007
90.5672
91.5935
93.2689
101.242
107.536
100.785
95.809
98.6506
90.7003
96.9772
37.2404
100.735
98.1944
78.6531
96.8636
110.424
97.7226
108.346
96.3454
98.5952
111.103
103.644
71.0027
98.9328
104.222
98.9825
104.405
111.016
110.164
51.4287
98.7291
96.3244
96.8645
110.853
88.872
94.1556
90.0676
105.382
99.8335
82.3183
110.498
95.0035
95.8269
97.8301
102.457
110.868
97.2166
65.092
94.5741
95.7427
69.1406
113.987
98.077
96.5297
99.224
109.889
112.048
96.6116
95.8154
59.872
110.823
94.0472
103.208
109.984
97.6142
98.5214
104.187
100.091
106.498
87.9882
96.5836
96.6589
90.4318
96.4304
95.8943
97.0201
97.6369
109.823
96.5637
100.922
96.4789
97.96
104.599
97.3623
90.1738
110.348
110.184
58.1382
97.9217
103.144
99.879
96.5314
55.669
109.193
88.3323
114.945
100.914
91.9227
98.131
96.0115
104.094
107.502
93.7224
93.9019
102.784
93.9279
96.5542
115.478
93.6433
98.2913
107.357
92.8584
101.469
92.633
116.088
97.0384
97.6134
88.9615
96.4049
74.7832
109.603
115.108
100.618
99.342
43.9853
96.5594
96.2793
74.393
44.7635
104.877
89.5607
114.968
108.063
91.9562
87.197
96.6994
104.21
99.2176
96.6808
96.7192
98.5396
96.8932
96.4607
96.9538
96.8362
101.23
96.6828
99.7882
95.4091
96.4542
115.443
104.685
95.7686
95.052
96.3554
96.5968
109.668
103.961
97.5008
96.7144
68.2149
110.475
96.7124
104.011
98.6541
96.8651
104.411
43.8721
101.071
79.0666
105.705
96.284
104.346
94.1282
93.3166
115.837
79.7847
99.8598
105.478
97.1326
93.3332
96.5043
97.8071
106.598
109.245
61.8184
102.508
95.0394
96.4634
100.403
100.438
92.1126
107.611
116.578
96.6038
96.6034
96.7082
70.1339
100.493
93.5708
96.0004
96.7234
98.0467
99.5477
100.991
97.7692
97.5567
97.1069
88.8256
96.5683
110.388
96.7298
103.627
92.3997
96.3436
90.8339
95.4351
87.3544
109.502
96.3222
109.268
96.6851
109.502
109.413
96.8039
86.1296
115.27
96.482
97.0179
98.6794
96.2307
100.722
71.7079
98.1995
97.1518
71.2835
95.8397
96.5406
103.168
96.797
95.901
96.7432
98.4742
99.607
107.425
111.275
109.235
104.129
99.411
95.9514
96.7838
98.5845
96.946
97.9138
99.7419
95.9832
112.861
96.3532
83.6759
94.7051
110.649
94.9145
77.8143
100.263
96.4664
105.405
98.1761
97.8381
88.6704
94.1807
100.246
102.686
96.4137
105.381
96.4716
96.4531
72.2731
97.0895
97.7575
98.8197
95.8493
109.848
94.429
62.1366
95.5901
98.738
97.2258
98.4064
95.9129
105.227
95.7204
88.275
97.2365
109.719
77.8186
89.4921
96.6556
96.8426
98.6375
97.797
88.3951
98.7576
105.523
107.549
111.391
116.895
106.116
107.372
105.632
91.2844
99.4758
104.381
96.2619
29.4402
106.91
96.2985
95.3874
110.441
110.366
94.5294
97.781
95.2581
100.011
97.9575
96.5668
86.5731
97.8704
97.4056
96.4295
97.9682
98.5165
96.9228
86.6587
65.5102
92.975
93.4358
96.6475
56.6882
96.4891
79.7252
104.385
99.6255
109.808
109.662
107.888
100.974
101.442
109.726
95.5188
98.3768
92.6721
111.248
105.834
96.9072
96.8987
109.834
91.2778
110.851
100.081
101.84
109.38
88.5029
114.063
112.648
99.7881
104.43
104.661
116.288
96.192
97.0139
96.6139
58.5559
96.324
95.3701
76.1661
99.2506
97.2934
107.77
91.3974
116.4
96.1761
92.5556
107.047
98.2314
89.8963
95.183
96.7488
99.2683
104.288
110.536
109.674
88.0095
104.012
96.4691
96.8975
101.71
92.3092
107.181
109.385
112.354
104.293
90.1405
96.4341
97.1594
100.226
101.371
100.318
102.523
104.287
96.8657
97.0535
68.5474
91.4656
63.2593
98.3302
96.9262
107.668
106.766
97.848
96.1293
102.719
79.9391
96.724
96.3342
97.3119
95.3522
96.3147
76.79
86.652
97.3408
96.3064
96.4581
97.3882
102.852
74.1157
84.8168
110.566
96.9251
99.9396
96.6056
95.4831
107.249
92.838
101.498
98.2726
88.4681
110.319
54.1967
86.3622
91.3775
95.7765
79.0191
96.9123
98.3152
97.7443
96.9342
86.0011
98.1655
97.5326
98.0239
94.0975
96.8331
96.3204
101.989
97.7879
96.1927
98.5288
115.992
105.939
110.211
110.099
87.2419
96.8712
107.079
96.6078
109.723
88.0761
104.37
99.4037
96.6306
93.3732
97.1359
70.1255
98.7453
85.1798
95.8027
99.2397
89.5316
47.6804
87.2979
41.5157
52.6248
98.0247
101.379
96.8691
97.9457
96.9709
98.4535
99.8306
98.5427
97.5466
91.7936
107.135
107.414
99.2599
97.1647
103.877
91.3845
89.3148
96.9322
98.4086
109.746
93.4491
100.321
95.7333
96.9097
98.6129
109.341
97.865
98.3453
68.8979
99.3116
104.312
98.1915
91.8766
96.8398
103.304
97.8813
109.59
109.887
96.3444
41.8859
109.41
97.0412
70.963
95.5208
108.732
95.9884
97.141
98.8118
77.4136
8.83306
104.081
101.394
89.6923
106.669
63.6922
109.604
81.0288
97.9106
96.857
98.155
97.6159
83.2165
97.5274
96.8994
97.8136
97.4833
97.8106
97.6025
82.3622
98.447
96.9976
97.6054
83.7056
97.6446
97.9187
80.4502
97.6353
98.6054
97.0733
96.8612
97.8379
87.5814
98.3507
98.5997
97.8024
98.4332
83.2092
97.7087
96.9717
97.5656
96.7129
98.0378
97.5739
81.8423
96.8849
97.8171
98.5015
96.946
98.0003
85.0064
98.5837
103.971
56.0655
95.9992
97.1476
107.576
107.63
88.9742
95.6114
96.2408
105.79
95.4121
64.1128
99.5166
46.5764
84.6665
107.369
94.9054
95.6227
95.7277
96.8902
98.6605
95.4395
98.213
96.8102
88.8155
88.1284
97.5362
110.351
90.5958
98.0601
99.7849
102.072
42.0266
95.3459
102.172
100.176
112.71
97.2793
98.3536
74.2166
91.5222
110.175
87.3992
89.6245
104.245
99.2741
100.995
97.8517
9.15953
95.7026
97.8135
98.0186
93.9713
91.0331
95.1401
109.298
94.4572
96.8956
97.6049
97.3169
82.5647
98.1124
97.7585
97.576
96.9551
98.4516
97.8039
84.0018
97.8435
96.9232
86.031
98.5513
81.6141
97.5569
97.028
97.8598
98.4972
97.7278
80.132
96.8111
106.607
104.226
109.389
115.062
97.8532
99.8204
89.3315
96.2682
111.631
89.1403
89.8021
108.641
92.1502
97.8901
95.8192
92.4412
112.573
90.9605
67.2546
107.788
94.2717
96.183
96.4543
108.512
94.5862
96.6632
108.036
103.419
96.4853
97.1172
97.5971
97.0815
95.2619
92.1232
83.1098
96.7505
107.313
96.3269
106.876
98.382
96.9258
96.0423
98.4986
95.5592
95.9826
96.3226
95.7992
107.307
103.645
100.177
102.549
97.102
97.6841
73.9467
96.8434
101.079
109.334
97.9417
108.132
89.0741
96.6349
94.8703
79.1977
95.6126
104.092
95.8167
97.832
98.1552
67.7129
96.4184
91.4085
87.8078
96.7635
98.5296
106.896
107.225
93.499
89.3464
107.138
97.6209
95.1693
82.1578
90.7729
94.596
96.8389
96.0045
102.962
96.2083
84.2702
91.9314
93.5198
116.278
99.5774
104.372
86.6341
87.6865
98.3056
96.9278
96.1131
94.621
91.5093
94.0632
106.928
101.979
99.0505
97.3561
70.4335
110.276
110.39
104.155
91.6733
85.814
107.292
93.6812
107.26
106.93
108.815
97.8082
99.8924
107.319
116.226
104.084
98.8196
100.175
111.727
102.301
107.159
92.7259
108.204
100.257
102.129
27.4817
88.1362
98.9603
98.2295
96.9602
98.3417
82.8263
107.923
98.3546
96.9234
85.3833
98.8194
99.2695
101.844
101.31
99.0047
101.617
99.6444
96.2099
98.7357
98.1753
101.347
100.667
98.4915
101.008
97.8803
97.8586
97.6358
104.213
104.192
99.0529
52.4818
104.26
99.1971
99.3568
104.338
96.0737
93.8405
98.7889
99.9947
96.8956
96.1696
96.1559
102.714
99.8172
102.613
101.303
99.5804
104.424
99.5402
97.2046
97.54
94.6971
107.431
96.5555
92.0936
96.279
95.0849
96.1782
102.471
96.2122
101.349
96.3094
94.7093
97.5416
104.506
99.7707
104.449
99.5396
95.3546
106.987
94.8253
93.0536
91.5653
101.234
106.638
104.16
95.2152
107.086
107.066
91.5317
104.498
97.5946
94.6725
103.785
107.139
107.172
95.009
101.429
107.229
103.94
107.255
94.5702
94.7129
94.665
92.047
101.412
51.8514
95.038
101.5
99.6149
94.5013
91.8094
97.6781
101.229
107.196
107.149
101.115
52.722
103.534
94.6296
103.75
93.8672
99.4907
100.914
97.5805
107.126
101.575
53.2254
100.81
99.4068
97.5046
102.826
52.7265
94.6234
109.381
102.379
96.0299
100.402
99.1256
94.6248
101.735
107.178
92.2843
103.219
52.4931
52.5787
94.2918
101.686
67.4085
104.422
97.7517
97.3111
97.8615
103.484
98.4561
85.8723
96.927
109.9
100.871
94.8964
97.4948
104.447
97.3637
96.2197
97.2119
95.5312
95.3521
99.7414
97.3463
96.8882
97.2244
100.124
98.9565
94.6352
96.4616
97.54
97.1008
96.3817
96.775
94.3327
99.7167
93.2105
98.0647
95.939
101.797
92.3825
107.19
96.569
104.509
99.9593
98.133
95.8415
96.5578
94.7786
96.9808
96.911
96.9216
95.0766
97.8959
97.5426
52.5281
96.3062
97.6086
96.9835
95.2473
97.936
97.396
98.5782
96.2651
96.8169
95.7198
96.9661
97.0353
98.1102
97.6252
93.3688
96.4251
96.262
96.947
96.243
96.2845
97.6877
97.5446
97.1454
94.422
96.3509
95.372
95.8373
97.6065
100.03
96.9331
96.9327
85.0911
98.4074
95.939
92.452
101.893
107.192
104.474
99.7996
96.6384
95.9685
96.3329
109.841
103.981
101.642
99.9455
94.9712
95.7191
99.0939
97.3415
100.239
94.6681
97.9585
95.4075
52.3927
115.065
97.8115
99.6214
100.677
94.552
84.2647
98.3627
96.934
109.777
101.856
100.089
99.3707
98.0988
83.5104
98.3043
96.9312
107.197
92.5886
102.061
109.644
102.594
102.029
100.221
95.7621
52.2009
115.019
97.3545
100.065
99.2101
97.5339
94.605
97.0827
95.2986
104.135
103.759
98.1656
83.3559
98.3319
96.9427
101.459
97.0723
94.3425
109.706
101.297
97.7254
51.7932
53.3544
97.4049
115.686
104.211
99.11
97.9398
98.883
94.3852
94.7357
97.9014
103.978
98.1655
100.931
92.7866
107.21
102.216
107.048
102.086
100.22
93.3115
91.5213
91.7319
100.23
97.5116
98.7873
100.596
97.1544
99.5594
97.3647
96.6251
104.127
98.0653
82.5896
98.2679
96.9431
92.8678
107.27
102.08
109.631
103.294
102.126
101.223
102.236
100.312
93.0462
94.951
97.7305
53.0843
97.5636
102.459
103.927
94.3854
115.654
105.414
96.5671
97.7522
98.2294
99.2063
100.432
97.4432
90.6396
104.895
94.5605
98.5874
107.097
91.0676
96.6825
96.6843
94.446
94.5528
94.867
95.1375
94.309
98.0168
81.9531
98.3276
96.9722
100.713
100.475
90.8607
96.025
105.047
105.134
109.572
95.8436
103.926
102.351
100.371
94.1807
97.7392
51.3784
97.7205
96.0507
91.7271
106.67
106.903
97.3131
96.4217
105.445
104.091
99.0397
99.0846
104.155
88.4847
103.028
96.0891
96.3332
96.2463
96.812
99.9701
103.662
96.1421
97.4508
99.8309
99.9836
88.4045
100.016
100.353
94.4591
96.698
110.026
96.1644
95.6752
96.9157
102.601
101.009
101.361
104.006
97.9942
97.388
96.8446
96.2689
94.2192
96.5345
81.7937
98.2377
96.951
96.3473
96.4164
96.3861
92.9117
107.257
102.306
97.2269
96.8943
97.4368
95.508
95.1502
96.4558
95.5694
97.0453
96.0115
94.484
101.929
103.131
65.7003
103.417
95.8236
107.592
95.2157
96.0587
95.9282
109.56
102.384
102.318
100.343
87.5198
96.4946
94.7968
83.6536
95.3651
97.705
95.1771
95.5306
99.9864
95.8874
98.2376
96.9156
110.089
97.6466
96.9899
104.759
95.8656
86.4853
96.2316
96.3193
63.0194
103.121
103.169
97.7373
96.0169
96.472
99.8955
102.784
93.6427
96.1699
95.3506
96.2097
98.7279
96.7793
96.366
116.309
117.086
95.736
95.7996
96.2038
95.3715
114.469
96.7466
97.0138
96.9739
96.0218
112.853
97.6078
96.5396
104.167
99.0232
96.5847
98.0581
95.7682
96.3393
100.652
95.2604
100.082
104.854
97.1574
104.915
109.398
99.8021
96.0858
97.7876
83.1768
98.6447
97.1161
97.5153
104.341
96.9846
97.5316
97.1123
100.064
99.7997
99.3183
104.219
94.4019
97.8401
89.0078
96.8596
97.2801
80.8908
98.3319
96.9891
89.3554
77.8885
99.6442
96.0286
96.4611
104.627
100.79
103.292
107.018
96.1812
97.4205
89.4764
94.5789
98.0427
96.6617
96.5221
99.9243
100.058
96.0949
99.1079
108.179
94.8918
108.159
86.3276
98.8143
97.5688
93.0714
61.0366
97.5865
97.9494
100.354
92.3843
109.295
92.8334
107.341
101.882
95.9211
97.0253
102.833
99.4818
90.7326
107.948
99.5845
96.2603
106.908
108.626
94.7739
104.62
98.0474
95.7251
98.5361
96.9194
109.493
82.4213
98.1202
105.18
101.784
59.063
96.1762
102.431
100.32
100.144
96.9708
103.507
101.258
98.1039
96.8675
98.0547
96.1681
95.9746
99.7926
97.6656
99.9018
102.569
52.3485
104.293
96.9591
109.031
104.196
76.1441
93.241
38.7717
108.259
91.8072
91.6219
106.84
88.232
109.777
99.5311
96.5248
95.6834
109.161
90.6886
78.0197
96.4584
96.3688
97.7932
96.8335
97.3685
96.4116
102.671
97.121
97.6549
112.469
102.704
99.8827
101.24
96.5175
104.439
97.6971
96.4509
92.9743
96.6164
91.2198
108.737
93.7047
100.395
97.9121
100.809
104.006
98.5892
110.456
96.367
95.9401
95.0682
97.7482
66.2896
110.268
96.5304
96.4862
97.5749
93.9266
107.443
91.1707
97.8772
103.809
99.6921
103.111
61.6687
87.0815
96.1376
91.1022
108.718
100.305
96.815
100.029
104.515
84.4067
96.4502
104.505
63.6641
96.6781
100.239
96.1104
95.9665
89.1813
94.6902
100.103
98.1116
97.7043
103.328
96.3818
97.7211
103.967
99.5267
102.255
96.9091
97.9605
98.9296
94.0544
94.8997
98.5663
103.186
96.1399
98.0656
96.9238
74.0168
104.081
97.2704
96.6661
103.029
109.977
99.9822
102.643
97.0344
106.361
90.9348
100.102
74.4773
99.592
97.3041
85.6983
108.386
84.2826
69.5614
68.4457
106.429
100.197
92.0133
98.4339
104.351
101.182
94.9393
107.893
97.8242
93.7069
89.9405
80.5953
98.2114
96.9607
99.1065
95.0061
96.9508
104.698
95.9817
97.3276
97.2922
96.9621
97.5514
94.502
92.8174
104.277
95.9855
92.761
104.704
89.7829
97.4478
79.0606
98.3566
97.0139
109.751
109.292
97.7061
94.3548
108.735
107.659
106.252
101.15
96.9431
97.8027
106.469
97.8157
94.9948
105.169
110.019
97.9674
96.08
101.955
92.7329
107.252
96.9012
98.2135
90.3664
101.665
96.9521
97.8359
97.2827
81.1643
49.2412
68.1456
95.9106
103.363
101.206
103.724
97.608
93.5176
104.448
94.706
108.857
97.7287
96.4277
97.2695
97.0776
97.8926
96.8763
97.6347
97.2738
78.9984
108.354
97.7544
96.9117
99.8194
109.853
96.6864
84.8409
80.8879
91.4243
110.336
109.013
97.2839
96.8109
98.4881
97.1023
66.5631
96.9251
23.5067
96.3959
110.797
80.6189
96.375
95.806
90.4164
116.564
103.051
76.296
97.9566
96.9185
96.2808
108.068
99.3321
104.316
95.6577
90.9809
96.7558
96.4226
97.0606
97.5838
100.602
110.13
108.767
95.6692
93.8822
97.1002
97.9004
96.6528
97.7476
98.3013
99.4055
95.2978
92.8362
95.8693
97.3967
92.0997
113.793
96.9048
95.5771
101.088
86.5895
46.0007
97.0055
96.764
78.5922
98.1825
96.9749
111.036
96.4465
100.362
99.1197
90.2914
96.7943
96.4637
97.094
97.5444
99.6016
94.0995
106.613
99.2248
91.6131
106.67
97.7337
95.9386
96.8562
100.068
97.2245
105.206
96.7921
97.4956
96.4696
101.562
96.7735
97.2934
97.8206
110.051
110.648
96.7445
95.8345
97.0538
96.7499
95.412
97.6646
85.3059
88.1041
91.4649
92.6914
108.664
94.4334
96.7715
98.7896
96.9899
98.058
96.1796
83.4706
97.0223
100.514
109.839
96.4945
96.4155
97.6146
96.7587
97.8857
98.5943
84.1175
96.9176
103.119
93.2543
95.5934
77.6096
106.772
87.8078
90.7421
95.5985
99.0064
97.1558
96.6976
97.2291
103.293
101.517
96.1144
97.5777
94.6626
96.134
97.0713
97.6374
95.9275
97.274
96.5198
95.65
96.5645
95.9
94.6955
97.5751
94.5715
95.4644
105.52
73.0739
99.1318
97.2284
97.4095
93.5623
89.914
97.5003
96.6451
97.4164
96.888
104.082
110.298
84.8412
49.2052
89.6086
97.2684
100.706
104.12
97.8255
97.6908
96.9041
95.9614
98.0094
97.0315
103.682
89.9468
106.73
96.3202
97.849
96.0293
98.3238
116.828
96.848
95.504
97.6445
103.729
117.243
98.4069
97.2676
96.5996
62.76
109.369
104.305
101.698
96.8885
109.059
74.422
90.1356
99.178
93.2074
96.8009
95.7006
80.5334
97.7851
97.0918
97.6852
96.5475
98.096
93.6169
97.8874
96.8341
96.338
97.6703
95.1543
106.461
96.6119
95.1694
96.2165
97.734
96.0172
98.1092
95.2993
84.0632
96.0251
116.142
98.0392
90.1722
103.319
36.5697
104.043
108.536
96.1341
97.2798
86.8867
97.1036
96.6278
97.9382
100.8
95.6419
98.5851
96.8553
96.0602
112.656
89.5927
82.6421
97.6057
96.4588
110.337
99.1984
104.254
96.1693
97.3239
97.8809
106.408
96.5542
91.2635
74.8188
98.1116
96.9943
96.9154
79.0846
96.4544
96.6662
92.0229
79.2376
101.97
102.292
100.165
56.2949
104.483
112.477
99.7529
97.2694
110.003
63.7122
109.679
105.35
74.9439
98.4031
97.049
96.7967
107.212
67.7473
95.9728
96.411
95.4367
97.7258
113.049
114.592
100.12
109.551
105.705
110.608
93.5577
97.8181
97.2622
82.1851
103.382
93.4718
115.069
95.2963
96.5781
97.8581
96.0649
110.371
98.5971
107.08
92.6006
102.471
100.153
102.205
93.8013
96.1944
98.1359
80.6965
96.9261
96.0227
97.5372
96.8941
97.7233
99.4256
104.307
93.4628
85.1632
103.722
37.4176
110.316
96.2902
96.0952
96.7919
97.4283
97.1629
98.2902
84.1449
92.6628
96.5922
97.96
105.389
114.057
101.389
92.9545
107.345
97.9733
97.7682
95.9503
103.369
32.0904
101.658
92.173
107.165
90.9762
89.7075
110.034
98.9338
89.4161
99.8472
90.4894
68.3649
109.391
95.791
87.1468
95.9053
104.13
41.4428
97.736
96.9449
98.2226
97.6868
99.6382
101.128
95.6449
113.627
98.4419
95.9751
97.7656
110.138
99.9957
97.0691
97.6746
97.5802
98.1616
98.4782
95.4872
96.0548
97.015
97.3838
112.756
97.8891
111.73
104.158
99.004
86.2861
100.625
109.489
96.7292
96.7761
105.256
107.136
93.0277
102.296
91.3604
98.1228
97.0328
97.1583
110.825
98.0312
87.2006
96.7143
106.676
88.4558
110.997
110.544
98.4691
77.7533
94.5241
104.726
96.855
92.716
92.3013
88.9223
93.9943
96.4936
96.0363
96.0491
96.4369
73.1766
97.7883
110.645
82.0402
98.0011
96.9908
98.6276
87.147
117.172
106.692
97.3715
110.24
96.5363
109.803
106.976
94.5991
110.89
94.5952
110.493
87.9025
98.263
99.0763
103.45
96.4656
106.81
105.542
103.735
25.3823
96.0518
111.075
103.583
108.61
102.009
108.087
90.6428
110.939
110.595
80.0245
113.76
89.1408
69.0671
99.5075
97.2954
99.1365
97.2109
110.083
92.6997
110.586
108.165
94.3049
97.4135
93.8797
109.819
101.903
95.5741
97.3266
100.848
93.4712
100.87
107.705
95.8334
113.37
99.9058
97.8127
100.938
102.464
96.2935
115.514
110.349
93.7645
109.686
106.321
100.521
95.9534
96.2033
96.8632
94.8757
96.8075
110.438
100.53
102.09
88.1795
103.03
106.662
90.588
101.521
99.9619
101.708
100.73
98.0498
99.2515
83.698
103.106
103.777
100.658
96.4659
96.3694
97.0571
107.057
102.798
90.3793
96.8836
96.8115
99.9679
109.37
97.7174
96.9593
99.2479
95.9686
106.056
93.3409
102.817
53.1341
106.411
95.6958
103.663
97.9125
79.7954
96.8793
110.725
94.4628
115.213
96.3668
97.0121
104.316
67.6644
96.7063
97.4176
85.0744
104.819
93.1928
107.231
102.093
96.3813
96.7865
100.513
97.1806
99.6551
66.6285
62.1958
97.8022
97.8214
100.762
100.318
97.2129
99.0326
62.859
96.9505
97.1754
83.4054
79.7314
100.475
96.8465
102.205
99.8005
109.398
105.849
99.095
105.902
101.419
107.032
97.1825
98.9103
97.8188
90.0439
107.075
92.8079
102.486
96.9887
75.234
43.9257
97.9321
96.8281
105.47
108.846
95.7527
90.5936
97.0419
97.5221
98.3024
103.462
94.9434
89.9535
96.0277
103.732
98.0318
81.035
96.9
96.8504
97.4699
92.4264
114.24
98.7352
100.991
105.181
97.8213
95.0544
99.9796
90.5252
107.177
92.2704
101.696
101.109
91.6339
94.5849
100.563
99.1708
100.422
103.108
97.1029
115.413
111.469
116.102
90.7544
88.1381
109.34
102.915
96.1372
94.5902
110.969
97.0437
100.353
8.59626
103.908
100.107
91.4202
96.421
97.7265
96.8448
77.9644
97.1381
102.494
104.561
95.1024
98.5646
97.5832
98.0894
109.471
98.2567
115.292
104.516
99.4943
72.1566
95.8877
96.271
96.4512
103.698
91.8771
85.0095
86.6957
30.3312
106.933
92.2008
102.505
94.6131
100.674
101.363
97.184
96.759
103.644
94.6054
94.6503
96.7578
93.9638
90.9123
101.558
97.3839
97.5799
99.9936
111.175
96.9378
96.8088
97.2646
96.2582
106.704
107.656
96.4003
98.5816
100.902
92.2824
90.4841
96.9582
100.798
96.639
97.3799
98.6963
99.5596
90.7477
109.31
97.2564
96.8982
110.228
95.9475
89.6804
96.2226
53.4532
102.069
101.964
96.5043
99.7303
96.5199
100.151
100.299
103.415
102.254
91.8062
96.4295
101.626
96.9125
87.5448
105.986
96.2756
97.8609
96.2961
67.4191
84.1671
104.098
93.886
97.4064
91.0065
85.1135
97.7697
98.1219
96.5808
96.0714
106
54.3269
69.0343
96.4073
96.697
97.7751
97.3273
98.0629
82.1707
96.8929
94.9461
74.1328
96.1214
110.365
94.4189
96.0512
83.3274
91.8358
97.8208
99.1457
91.2473
98.1952
90.8374
103.752
98.6996
96.602
89.6343
107.221
107.17
92.8433
102.465
98.04
96.468
96.2723
98.5484
104.134
110.154
101.279
102.528
116.906
92.2427
99.9112
101.618
96.6294
96.7548
103.168
95.9959
101.885
104.264
99.2773
89.3324
101.251
90.636
95.4957
110.04
92.1794
90.8862
96.3411
95.1784
94.8558
116.222
110.755
96.1545
96.4252
100.926
106.883
99.7141
102.294
96.2992
97.0694
81.8491
104.199
98.8802
101.543
89.6897
106.564
101.569
92.1101
107.16
96.1161
96.0062
101.628
99.8479
102.655
106.931
99.0353
101.589
98.1984
81.4541
97.1129
96.3661
101.456
76.1381
15.5902
105.92
93.1028
104.083
99.73
90.5783
97.6933
101.155
96.5884
98.1607
96.8899
93.0479
91.4492
110.99
91.6732
110.013
95.7582
91.7552
94.865
96.9878
98.1716
98.9503
49.0599
110.568
102.698
96.0704
98.0433
103.343
103.979
103.935
89.7564
96.8425
102.637
100.031
92.9151
90.1568
43.11
97.0768
76.9808
98.5648
100.375
102.629
97.4784
97.6611
84.1105
50.8358
97.8912
105.159
100.289
97.1313
96.9289
98.903
104.117
96.4686
95.2874
112.779
107.684
98.7617
97.343
99.2796
104.286
90.3754
96.0648
109.371
112.041
93.851
103.445
102.714
95.9447
74.2474
96.4296
97.1624
117.08
83.7184
103.418
97.9543
98.4728
103.658
97.5301
105.449
93.2382
107.032
101.524
91.1726
98.1375
96.9022
109.24
96.3041
98.7501
104.036
94.6738
98.0798
72.5345
44.5013
111.452
105.458
97.3662
98.4269
97.5319
96.3468
103.925
98.9057
96.9322
96.3247
97.1557
98.1369
109.562
99.0685
103.513
88.257
96.208
56.0476
98.1392
93.2423
107.283
99.2298
95.2162
93.3654
102.699
103.025
97.0851
97.5334
61.3926
97.5598
96.6401
104.485
110.649
97.4018
95.1447
96.914
98.2504
99.6067
101.123
98.0834
97.9479
104.375
100.074
93.1781
100.418
96.8333
97.387
110.505
62.3953
97.8535
54.4019
96.2652
92.0147
99.9393
102.559
96.4754
93.2612
69.4467
94.9553
110.891
101.522
90.6782
106.87
110.883
115.711
97.0691
96.0875
89.1734
106.698
102.699
104.256
100.979
99.5627
97.6454
107.157
107.078
112.247
98.2915
97.7939
100.81
105.082
96.1128
96.3466
89.1703
96.4448
94.2486
110.695
101.867
102.257
102.707
95.2141
102.658
103.814
104.564
96.7409
98.1088
81.9957
96.9081
99.8591
101.485
97.7959
98.6948
96.6691
105.475
67.7188
98.3507
98.1986
87.9843
106.497
97.8051
97.354
96.6659
97.838
116.081
111.62
97.7327
93.8199
116.618
100.184
102.037
97.5676
95.5506
98.2235
96.9196
97.8089
96.0573
96.279
87.5519
96.0011
96.7561
110.118
93.5019
96.3713
89.2575
96.5126
105.112
94.4516
104.925
96.7513
98.0064
99.4992
111.918
97.8514
103.359
99.9444
102.464
97.3399
97.9794
95.0386
97.2707
94.5152
96.8271
97.6249
97.8041
54.2263
96.6473
110.26
96.274
93.7701
97.3208
111.081
78.4588
52.443
104.03
96.5837
96.0599
96.8198
91.2328
97.1132
97.9186
80.9631
96.8015
61.9754
98.8401
97.2336
98.3224
96.6942
99.6425
109.378
96.7674
89.9251
98.3776
97.0793
96.8143
93.3099
107.183
92.3081
101.677
101.381
103.069
106.442
100.145
98.9928
113.07
96.4651
94.7341
96.6952
101.667
109.385
98.6788
95.9991
103.322
99.2319
96.5882
97.7315
94.2263
110.14
114.759
97.1835
98.3972
61.806
101.234
95.6385
99.9003
102.524
96.2654
96.3022
96.0254
52.5025
96.6948
97.502
114.476
109.453
105.859
90.6103
96.3945
110.273
96.1977
105.712
97.8163
42.8361
58.4014
95.908
53.687
96.4858
43.1123
100.806
113.673
93.7398
103.523
96.8972
96.9447
96.9639
96.9648
97.3174
97.2491
97.3024
97.1614
96.8511
96.9636
71.0607
99.1856
99.4804
100.369
99.9047
65.1245
98.965
101.375
96.3678
97.9523
97.2962
95.325
75.7133
57.3176
94.4874
82.7307
79.3836
94.0398
98.8581
89.1486
91.4615
90.2141
88.438
101.509
96.7909
92.6305
101.439
96.8175
102.798
101.875
103.174
102.347
93.5233
104.685
107.661
107.769
98.7759
104.897
104.533
93.8835
104.406
105.162
107.554
107.912
105.863
105.5
108.11