/*--------------------------------*- C++ -*----------------------------------*\
| =========                 |                                                 |
| \\      /  F ield         | OpenFOAM: The Open Source CFD Toolbox           |
|  \\    /   O peration     | Version:  v1912                                 |
|   \\  /    A nd           | Website:  www.openfoam.com                      |
|    \\/     M anipulation  |                                                 |
\*---------------------------------------------------------------------------*/
FoamFile
{
    version     2.0;
    format      ascii;
    class       volScalarField;
    location    "0.29";
    object      p;
}
// * * * * * * * * * * * * * * * * * * * * * * * * * * * * * * * * * * * * * //

dimensions      [0 2 -2 0 0 0 0];


internalField   nonuniform List<scalar> 
1466
(
89.3611
88.7102
88.6583
90.02
91.3176
80.3529
92.3261
91.8175
87.4265
85.7283
88.9826
88.4501
91.1439
90.5808
89.8689
90.8362
90.0233
89.9959
89.9651
90.6758
90.5309
92.9006
89.1443
88.5097
90.6761
89.2942
89.331
90.8291
92.1665
91.4617
91.5486
78.5507
92.7312
90.1164
89.6607
89.5266
89.6032
90.7058
83.24
92.7435
87.9156
91.3196
87.6318
90.8443
89.1563
87.7672
90.7869
89.8914
91.318
90.7093
88.7346
85.7863
91.6361
78.1193
92.9237
91.212
90.4775
89.8326
91.2916
91.2641
90.7568
90.2656
91.6498
79.153
88.9867
90.5424
91.0182
90.2501
89.859
93.1715
89.2415
89.9447
90.7532
89.9664
90.7613
85.7068
89.913
89.823
92.2788
91.1911
89.1952
89.955
89.8177
91.3047
90.8905
90.8658
90.9321
89.1726
90.4447
88.9707
90.0725
90.833
90.8455
89.9113
88.84
90.767
88.5148
91.2916
88.6632
90.1757
92.3465
90.7184
88.7793
88.363
90.405
87.7857
89.9178
89.9891
88.7318
90.6638
91.247
90.1513
89.8671
90.8027
91.1228
85.593
90.2317
90.5258
88.826
89.7159
90.3888
89.6476
89.7658
88.8587
90.619
90.4685
91.0817
88.6368
90.7499
88.0343
91.2321
89.8662
89.3888
90.5173
89.109
91.0811
91.306
90.9723
88.1795
89.7381
85.5262
90.7321
90.4445
90.431
88.5937
91.2997
89.0629
88.6388
90.4876
90.821
90.6662
91.1193
89.1714
88.3659
90.1294
89.1344
89.846
88.2466
90.176
88.7036
90.3709
90.3296
89.457
90.6251
91.0138
90.937
87.5474
90.2819
90.74
89.4215
90.8789
90.8882
91.0618
90.5448
89.3348
88.5316
91.1809
91.1586
90.1035
91.026
89.902
90.3905
91.2201
90.5743
88.8512
90.3518
89.8251
85.7791
89.4698
88.5505
87.6033
91.0482
90.4491
88.897
90.6063
89.912
87.7596
90.7178
90.3021
90.3779
89.9078
90.1453
90.2049
90.7143
91.0748
91.3285
90.1198
88.4952
89.7158
91.2488
91.0924
89.7592
90.1555
90.9335
88.7257
89.5805
88.7642
89.8097
90.6596
90.0179
88.5361
89.4068
90.8148
90.86
90.5958
90.8976
90.2091
90.9365
89.5678
87.2445
90.9813
89.4108
90.1935
91.2191
89.7664
91.0816
91.1987
91.556
91.1866
90.8339
87.3519
91.1747
90.8852
91.2664
91.2838
89.7685
89.2972
90.5427
89.702
89.9957
90.0972
90.6113
91.3135
89.2341
90.3751
90.6845
90.0061
88.3097
85.6141
85.8118
90.9602
90.9185
91.4699
88.8423
82.1747
90.097
87.2597
89.9457
90.1398
89.9664
91.3613
89.8678
91.023
89.9163
90.8829
91.2992
89.0703
90.7229
88.6347
91.3213
90.9627
89.6628
90.2813
91.1052
90.1231
91.0614
89.9687
90.8928
88.8061
89.7962
90.9148
86.6013
89.8297
85.5629
91.2758
90.0782
85.444
83.7998
90.099
90.0173
90.6775
89.594
91.0514
89.8765
90.5792
89.6831
89.4146
91.2404
91.1547
83.5294
87.3021
88.9057
90.1145
89.3658
91.2769
90.1483
89.9354
89.3156
87.3012
91.1612
90.8433
91.0702
91.1832
89.7211
89.5237
89.4551
89.1572
90.078
89.1378
89.1694
89.7388
89.6054
89.1702
88.9451
89.6615
89.5387
90.1615
89.3406
90.2605
89.1877
89.7179
89.9087
89.5293
89.0424
89.6062
89.2583
89.9008
90.2063
90.5845
88.4278
91.3145
90.9835
91.3278
91.2758
91.2541
90.1612
89.9103
88.0717
83.4854
90.0002
89.1664
91.1509
90.9642
88.9679
89.2846
89.8423
89.1201
89.1651
90.1559
89.7702
89.2193
90.1778
90.0598
89.484
88.9618
89.7296
89.4301
86.5417
90.9292
90.5286
91.016
90.0113
89.8419
89.0293
90.3151
89.9118
90.8723
90.1428
91.1398
90.3943
90.3626
90.0213
90.6864
85.7563
91.2165
89.9808
90.8199
89.2873
90.5481
90.183
90.3755
89.1671
90.7519
91.02
86.2002
89.9538
90.2017
85.4263
89.2006
89.2963
90.1603
90.4795
90.4927
88.888
87.8668
90.2082
89.9951
89.478
90.2469
90.2003
89.4896
90.3952
92.65
92.6256
92.574
92.4931
92.649
92.6677
92.4795
92.4803
89.8404
90.1353
89.9076
86.9619
85.2159
85.8407
87.8158
91.2879
89.789
89.4282
86.7883
90.3
87.6817
89.9039
89.758
87.9441
88.3967
87.9212
83.8102
89.5902
83.4308
87.8985
89.8822
89.5071
87.7947
89.7793
87.8957
87.9387
89.7998
89.7079
88.0055
89.7398
89.5657
89.5905
87.2683
88.5059
86.1604
90.1058
89.6505
89.4113
86.7968
89.9028
89.692
89.874
77.5106
91.1187
89.8149
89.7193
90.1521
80.9014
89.4371
89.9254
78.4005
89.6379
90.3776
89.1919
89.4518
88.9433
77.7083
86.7899
89.781
89.2889
89.066
89.128
89.4148
89.6291
80.0735
87.8268
87.8608
86.9959
89.5474
88.9613
89.0362
90.4332
89.1949
90.7711
86.5986
89.8594
89.4389
89.8776
88.5257
89.123
89.0997
89.8099
89.828
89.543
89.5592
88.8707
89.529
89.616
89.5922
87.4279
87.7647
84.7065
84.5456
90.4852
87.3767
88.1957
90.4693
89.1688
89.9002
90.8461
89.7427
89.5858
89.8566
87.9398
90.4861
87.0761
90.8135
90.5262
87.5258
87.4101
88.2626
87.4236
89.7365
89.7575
88.9309
86.7298
87.4594
89.7078
88.9661
90.3055
86.8691
90.3173
90.7652
87.9963
89.8372
90.1175
89.7827
89.0335
90.194
90.8226
90.6412
86.7108
86.4291
91.2465
90.7638
91.0294
89.56
85.8939
90.2307
89.3739
89.3758
89.5916
88.6107
89.4594
92.5013
89.211
89.4085
89.1913
91.0317
91.0511
90.11
90.8087
90.7235
84.0335
88.1997
88.976
84.7327
89.6098
89.2337
90.5845
87.3755
88.6759
89.7199
88.9118
90.9653
90.8771
86.6741
90.7215
83.6569
89.6673
89.1318
88.7567
89.2698
91.7086
89.9726
90.1612
87.7903
85.3355
90.9427
84.4783
88.5717
85.9995
91.0521
89.2173
87.4389
90.7645
88.8484
89.4563
89.6509
90.6592
90.853
91.2503
89.1849
89.6532
91.2548
91.1863
90.4065
85.4792
91.3304
85.9292
88.6098
89.5204
90.9255
91.0993
90.8576
86.8805
89.6977
89.1161
90.0929
88.2229
90.4157
89.5684
89.1395
90.8735
88.6791
88.6392
86.1492
89.7477
91.3417
84.4287
91.2028
88.0468
90.0105
92.0482
87.4769
90.793
89.4623
88.6385
90.8699
86.9031
90.0323
91.9971
87.3783
86.2549
90.2457
91.0733
85.4549
91.2034
89.3235
89.7653
91.1765
88.693
89.369
90.0252
90.2518
86.2939
89.4464
90.5952
89.5654
89.6495
90.8327
88.7405
91.299
89.1716
88.8591
90.1192
88.7106
89.6328
90.2319
89.3526
89.7663
90.1959
87.5626
89.7438
91.3092
91.0065
91.1377
90.2474
89.0761
88.826
91.2943
88.0689
90.3672
89.2169
90.1039
84.7748
89.1913
89.6245
89.3896
89.6442
88.0953
89.5606
89.3918
89.8376
91.3077
85.153
89.5129
89.3559
90.5906
89.6286
88.9284
90.533
87.7866
90.9342
90.375
90.9624
88.5864
89.2988
89.2697
89.4406
90.4841
91.2161
91.1789
87.5569
91.2471
91.1305
89.3865
84.0488
89.1011
91.2742
91.0863
90.3344
89.2985
89.9854
91.4004
88.9862
89.1001
91.1129
88.6959
91.0226
89.787
90.8304
90.4284
88.6363
84.5859
87.2602
88.6379
89.9756
91.2462
89.4004
91.0982
89.173
90.3884
87.6701
92.4326
91.1614
88.7162
88.727
91.57
84.3012
90.6525
90.8918
91.1537
91.0322
91.0481
91.2467
91.2496
89.0995
82.3305
88.2601
91.1323
91.3132
91.0444
91.2733
89.1302
90.8467
88.8731
90.8693
89.853
89.8997
89.302
90.9101
88.3742
88.9822
85.8389
90.1486
92.9185
90.3381
89.7204
90.6504
89.098
88.7897
88.7446
88.6878
88.6679
90.5448
89.3184
91.5031
83.9867
89.713
90.0862
88.8783
90.7515
88.5871
89.7982
88.7501
88.1821
87.9629
81.7144
89.6774
89.9977
90.0586
90.3163
90.1889
88.7141
90.9527
90.8821
88.8228
89.698
90.3287
89.7209
89.0699
89.4731
89.7855
91.9675
90.9935
90.1806
90.4546
90.1544
90.9249
87.4671
87.9442
91.1328
89.7534
91.2692
91.1511
90.0165
89.8843
88.162
90.9225
90.5841
88.2666
90.6841
89.1073
89.9267
90.1984
88.6288
91.2889
87.7762
91.0982
87.7505
88.3369
89.4365
89.5631
89.7071
89.7833
90.4629
89.7539
89.5316
90.8392
89.0487
90.1391
88.7075
90.895
90.0827
89.6244
84.5258
89.5468
89.8901
88.7217
89.0245
90.113
89.498
88.6934
88.3231
92.11
89.9561
90.783
91.0887
90.8642
90.0159
91.3157
89.2656
85.1601
89.2491
89.2647
89.4257
90.8642
89.0551
89.508
90.6995
89.8309
90.6942
90.135
90.786
90.0407
90.9055
88.8769
90.9953
89.2611
90.4003
90.4125
90.7771
90.9739
86.0115
90.2902
89.4432
91.1794
89.3165
90.13
88.5674
88.8414
88.1273
90.7884
89.7864
90.1433
90.6246
89.3942
90.0799
89.512
91.284
89.7541
90.0082
87.0355
90.6668
90.8256
89.433
90.6861
90.6265
90.4596
90.5497
88.757
88.6297
88.8308
88.7055
90.7384
88.515
88.4438
90.7841
90.8266
90.8653
88.919
90.9013
90.9385
87.9286
89.6784
89.7725
90.5386
88.4962
85.7114
89.993
90.9961
89.6054
88.6456
88.2938
89.8594
88.6793
89.3249
88.9741
90.7285
90.2594
89.1744
89.736
89.0811
89.2121
89.6987
88.5947
90.8328
88.4689
88.3425
85.7121
87.4952
90.1418
88.6177
85.7891
89.434
89.9394
89.7554
88.5479
87.6802
88.8881
88.6912
89.2804
89.2271
90.0131
83.3023
87.97
85.3176
88.8207
88.7568
92.6837
89.4841
90.5639
90.7718
90.8099
85.4769
90.9803
89.8467
89.6131
89.4552
90.1292
90.6288
91.1445
88.5154
89.131
89.7588
91.223
91.2232
90.4413
89.934
83.3779
92.7248
89.6171
90.0147
92.3646
91.303
90.658
81.2464
90.4526
88.8603
87.7802
90.1075
90.4069
91.1912
84.6108
90.9986
91.1286
89.0411
84.8346
90.9902
90.0969
89.6752
91.2961
91.0783
88.5988
91.0896
90.8887
89.1726
89.6404
89.096
89.1895
87.7138
91.3015
90.0866
85.6905
89.1579
90.2651
88.5797
85.1059
90.0769
89.6325
91.0029
89.8179
89.3276
90.3371
85.2172
90.2128
89.3794
91.1898
88.6299
89.5216
89.3976
85.6698
90.846
89.6765
90.8857
88.745
89.4935
92.3799
90.7064
90.4838
89.3671
89.1541
88.9617
85.5469
88.3655
88.6988
89.4798
89.1321
92.3939
90.8856
86.5613
89.8814
90.2219
89.6949
89.2013
88.4964
90.193
90.1656
89.6728
90.8902
88.8259
90.0686
90.9985
91.0259
90.8117
90.0468
89.2092
89.2741
90.8526
90.9562
89.5766
89.5289
89.7702
90.3554
88.6533
89.5059
89.5976
90.611
88.8204
89.6662
89.5454
90.4521
90.1622
90.0252
89.1551
88.0477
89.5629
90.1934
90.2156
91.0634
90.3531
90.1568
90.1171
89.9196
89.9126
84.4672
89.2487
89.3365
91.2981
90.9495
89.9846
89.3346
90.5842
91.0424
88.5754
90.3238
90.1959
89.2251
90.6578
90.5372
91.0191
91.2162
89.6693
91.4355
90.207
90.1684
89.3118
88.6819
89.1113
87.5362
88.2822
89.756
89.0691
89.9426
90.7935
89.4575
89.2379
89.9108
89.8622
87.3409
89.3031
89.5605
90.9651
79.1037
88.6696
90.7055
89.7592
90.2232
91.0567
89.7662
90.6599
90.2864
91.0565
89.821
88.4694
88.4699
88.4413
89.1502
91.0604
90.942
89.8631
89.7415
84.7288
87.6166
89.6121
91.0714
92.3265
91.1035
89.2206
87.258
90.9168
89.9309
89.5533
90.6724
84.73
89.2198
85.6653
91.2747
90.1777
89.1788
88.7862
85.9153
90.1578
91.2384
90.0645
91.8189
90.1106
92.2803
88.0476
88.4658
91.059
89.189
89.9874
89.9178
83.2498
87.692
89.8928
90.1049
89.7308
91.0974
89.795
90.5749
89.6526
89.0218
89.3086
89.9038
89.0877
92.5989
90.0173
87.4191
84.0772
89.8203
84.7138
89.7807
89.5463
88.5798
91.0111
88.7519
85.4981
90.1191
87.1645
89.5084
91.033
90.1998
89.4347
89.6223
89.0636
92.8269
91.2154
90.0943
91.1467
91.8186
91.0401
89.4091
92.773
88.8708
90.3868
90.763
89.155
85.1187
90.9757
83.3313
87.4554
87.3952
91.2723
90.6416
90.8142
88.949
89.2577
92.3475
85.4238
89.7398
89.4337
92.0971
91.5744
88.9656
89.7976
89.0522
83.7687
87.3477
88.9054
87.8257
87.7637
91.1347
91.066
90.7852
89.931
88.5605
87.1857
90.9914
89.9819
89.1745
92.4589
89.8826
88.4642
91.0361
90.0672
89.9468
88.8646
89.8342
89.665
91.1015
90.1272
88.9344
89.9487
90.193
87.8466
90.1703
90.0409
92.321
89.996
86.0969
89.6682
88.9165
92.3627
90.2698
88.4094
89.6355
87.4751
90.161
89.8358
92.431
91.2942
91.1395
89.3254
89.7334
90.0433
88.6168
89.3236
89.9472
89.4699
89.6323
90.416
91.154
89.1152
89.5028
89.6062
89.7103
90.5916
90.4961
89.3157
89.7655
89.6951
89.7938
92.3922
89.1898
91.3147
90.1432
89.6733
90.792
88.773
90.9558
88.6487
88.9966
90.0564
84.4739
91.0528
90.1368
89.9378
90.0013
89.4542
90.4835
89.7867
90.9206
89.7658
90.0068
89.2667
90.6191
90.3997
91.1732
90.901
92.2541
90.9593
90.6206
90.5625
91.0982
91.0596
90.1366
88.7659
89.0998
89.525
90.9244
90.9506
90.1567
89.2677
92.7938
91.0544
86.1394
87.3177
87.1802
90.0509
89.5632
93.7146
91.0689
93.2832
90.2689
91.2522
90.9084
90.8366
88.8124
90.9095
88.5407
90.9623
90.0789
91.8181
83.6888
87.5907
77.0127
89.9559
89.3683
90.7636
90.1919
92.0846
92.078
90.9923
89.8117
89.3881
88.4781
89.0945
89.5307
90.4908
88.8369
88.8627
88.5458
90.8876
89.837
87.9013
88.3672
87.7295
91.0426
92.5515
92.2099
88.8023
90.7854
90.6035
90.4809
90.2396
89.0985
91.0055
89.7529
87.6779
87.7715
90.9019
91.2639
87.4861
88.969
85.2783
88.5741
87.2918
88.1357
92.3041
94.6169
84.3589
)
;

boundaryField
{
    frontAndBack
    {
        type            empty;
    }
    wallOuter
    {
        type            zeroGradient;
    }
    inlet
    {
        type            zeroGradient;
    }
    outlet
    {
        type            fixedValue;
        value           nonuniform 0();
    }
    wallInner
    {
        type            zeroGradient;
    }
    procBoundary2to0
    {
        type            processor;
        value           nonuniform List<scalar> 
42
(
83.7195
83.7195
89.8342
89.7099
90.1445
82.8368
89.7413
89.7413
90.0552
89.6792
89.299
89.299
90.1444
88.7984
87.9839
81.7848
85.6627
89.46
89.8968
76.514
76.7583
89.2586
89.2586
77.8282
76.7583
89.4059
79.5453
89.6641
79.5453
84.4493
85.4233
89.7948
89.7772
89.7254
89.6956
89.7099
85.6627
89.7967
80.077
89.7128
89.7128
89.7041
)
;
    }
    procBoundary2to1
    {
        type            processor;
        value           uniform 77.1108;
    }
    procBoundary2to3
    {
        type            processor;
        value           nonuniform List<scalar> 
29
(
92.4552
91.8034
92.0648
92.4702
79.0302
92.4864
85.6924
92.0573
92.4509
92.2019
92.3455
77.4469
92.5829
85.8555
87.0144
85.5904
92.1647
92.1647
91.8034
85.8555
86.5401
92.0471
87.8373
91.9545
87.3589
92.0814
92.4509
76.9456
77.4469
)
;
    }
}


// ************************************************************************* //
