/*--------------------------------*- C++ -*----------------------------------*\
| =========                 |                                                 |
| \\      /  F ield         | OpenFOAM: The Open Source CFD Toolbox           |
|  \\    /   O peration     | Version:  v1912                                 |
|   \\  /    A nd           | Website:  www.openfoam.com                      |
|    \\/     M anipulation  |                                                 |
\*---------------------------------------------------------------------------*/
FoamFile
{
    version     2.0;
    format      ascii;
    class       surfaceScalarField;
    location    "0.29";
    object      phi;
}
// * * * * * * * * * * * * * * * * * * * * * * * * * * * * * * * * * * * * * //

dimensions      [0 3 -1 0 0 0 0];
oriented        oriented;


internalField   nonuniform List<scalar> 
2776
(
1.9154e-05
0.000204468
-6.51512e-06
-0.000217107
-2.27895e-05
-6.64095e-06
-0.000279049
0.000308479
-6.95493e-05
3.00757e-05
-4.74409e-05
8.69145e-05
-3.00156e-05
1.60908e-05
0.000179694
-0.00016577
-3.02902e-05
3.57661e-06
1.63129e-05
1.04007e-05
-0.000536026
-0.000526529
0.000663748
0.000398806
-2.85092e-05
2.7858e-05
-3.15894e-05
3.22406e-05
0.000228803
7.46746e-06
-0.000186004
2.39878e-05
-1.29386e-05
0.000174955
-0.000122946
0.000110409
-3.03223e-05
4.28594e-05
2.31371e-05
6.09434e-05
-8.40805e-05
0.000379685
-0.00034471
0.000126431
-0.000161406
1.31253e-05
-1.31253e-05
0.00024432
-0.000122515
-0.000116495
-5.31022e-06
-2.94165e-05
-0.000226558
0.000187616
6.83588e-05
9.84105e-06
8.57435e-05
-2.69836e-06
-9.28862e-05
-5.15128e-05
-3.18489e-06
5.46977e-05
0.000135756
5.88114e-05
-4.70703e-06
-0.00018986
0.000122462
-2.64956e-05
3.09206e-05
-0.000126887
5.14093e-05
-7.65901e-05
0.000190916
-0.000165735
1.70784e-05
1.62738e-06
5.20991e-05
-7.08049e-05
-6.59359e-05
-0.000110867
0.00012314
5.36626e-05
0.000276303
-0.000233488
-4.28147e-05
7.39718e-06
0.000256543
-0.00024164
-2.23e-05
8.1519e-05
0.000198494
-3.56933e-05
8.95559e-06
-1.33944e-05
-1.79002e-05
2.2339e-05
3.09059e-05
-1.79346e-05
-2.9246e-06
-1.00468e-05
-4.18946e-05
3.25119e-05
-0.000145181
0.000154564
1.86431e-05
2.06809e-05
0.000326012
-0.000288628
-3.73837e-05
-7.33725e-05
0.000105528
1.65249e-05
-0.000391028
0.000504905
0.000671183
-0.00078506
0.000114489
-7.56248e-05
-7.2932e-05
5.66105e-05
-7.62826e-05
-0.000266245
0.000285918
-0.000267979
-1.14835e-05
0.00018678
9.26817e-05
0.000144589
-0.000148718
-2.52871e-05
-2.26962e-05
5.94413e-05
-7.2156e-05
3.54108e-05
2.1482e-05
9.98051e-05
-6.87455e-05
-5.25416e-05
-0.000438638
-0.000408576
0.000524281
0.000322932
6.46115e-05
-0.000104544
-6.29824e-05
0.00037688
6.57872e-05
-6.87428e-05
0.000100995
-6.29095e-06
-2.59613e-05
-6.71935e-05
6.76418e-06
-0.000125575
-0.000190264
0.000110798
9.82641e-05
-1.8799e-05
0.000362283
-0.00030767
1.55829e-06
-5.61716e-05
0.000242208
-0.000248079
-0.00010581
0.000111681
2.70365e-05
0.000105091
2.28456e-05
-0.000154973
7.5726e-05
-0.000135539
0.000195569
-5.00714e-05
-3.70661e-06
-1.49647e-05
4.68976e-05
3.34782e-05
-6.32974e-05
4.45408e-05
-5.26495e-05
2.01812e-05
-1.20726e-05
2.48064e-05
3.47678e-05
7.76331e-05
-0.000227551
-5.72073e-05
8.87004e-05
-0.000126608
9.51145e-05
-0.000130169
3.20984e-05
0.000111361
-1.32907e-05
7.34509e-05
3.33457e-05
-4.105e-05
-6.57466e-05
-1.25397e-05
6.56492e-05
-6.04232e-05
7.31374e-06
-8.61404e-05
-3.65074e-05
6.54405e-05
1.13557e-06
2.68432e-07
9.71741e-05
-9.85781e-05
0.000382622
8.51187e-05
-0.000291137
0.00016814
3.78779e-05
9.62128e-05
-0.000204468
0.000107129
1.12606e-06
0.000143711
-0.000183553
0.000128543
1.95944e-05
5.20062e-05
-6.99732e-05
-2.43674e-05
-0.000202361
0.000231471
-4.74257e-06
-0.000143234
0.000149471
-7.21728e-05
1.94684e-05
-1.61144e-05
-4.21401e-05
3.87861e-05
-0.000189125
0.000224398
-7.96142e-05
4.43408e-05
5.71448e-06
7.82499e-05
-6.24823e-05
-0.000218331
8.58598e-05
0.000209352
-7.68807e-05
4.03675e-05
-3.4653e-05
-2.10848e-05
-0.000140065
-0.000104585
-0.000220615
-3.86723e-05
4.09564e-05
0.000134671
-0.00024336
0.000184415
3.97848e-05
4.94931e-05
-7.06349e-05
-0.000103182
-2.22028e-05
3.92447e-05
-2.69097e-05
4.88434e-05
-8.14216e-05
5.94878e-05
0.000154843
0.000127551
-0.000170817
-0.000111577
0.000160956
2.68722e-05
-0.000171886
-1.59423e-05
-6.75875e-06
-3.30105e-05
-1.03023e-05
0.000102415
-8.93745e-05
-3.01366e-05
1.70956e-05
3.70246e-05
5.21511e-05
-4.7793e-05
-4.13828e-05
2.7433e-05
5.88894e-05
1.60931e-05
0.000179946
0.000105074
-0.000111029
-0.000173992
0.000248066
2.60779e-05
-5.24883e-05
-0.000221656
-0.000245198
0.000243729
1.75182e-05
-1.60491e-05
0.000189983
-4.65751e-05
8.17334e-05
-0.000225141
-2.46563e-05
-4.79416e-07
2.51357e-05
7.49779e-06
-4.65877e-07
7.26642e-05
-7.96961e-05
-4.80024e-05
-0.000136569
0.000196847
-1.22757e-05
3.21925e-05
4.78583e-05
-3.551e-05
4.54739e-07
2.17866e-05
-2.14484e-05
-0.000239454
2.89108e-05
0.000231992
9.6057e-06
-1.70578e-05
-7.33109e-05
8.0763e-05
-1.94657e-05
0.000253863
8.11407e-06
-0.000242512
3.80213e-05
-2.40309e-05
0.000175993
1.12756e-05
0.000200941
-0.000183758
-5.90776e-05
1.18456e-05
-3.41905e-05
-9.13449e-05
0.00011369
0.00014462
-0.000166069
7.9137e-05
-0.000133674
0.000109444
-5.49077e-05
0.000373009
-0.000197995
4.44522e-05
-5.53816e-05
3.05239e-05
5.15856e-05
0.00014922
-3.98494e-05
-0.00028262
-1.24302e-05
0.000275584
0.000130749
-0.000165033
0.000135341
-0.000101057
-4.29847e-06
3.60369e-06
-5.723e-05
5.79247e-05
-6.05911e-06
6.4813e-07
-2.49946e-05
3.04056e-05
-1.60017e-05
6.42404e-05
0.00010398
-0.000152218
2.33389e-05
0.000103503
2.21871e-05
-9.06186e-06
0.000105421
9.94058e-05
-3.37626e-05
-0.000171064
0.000208972
6.83071e-05
-0.000117621
-0.000159658
0.000222181
-0.00016752
0.000154311
2.93561e-05
-0.000251994
-2.25605e-05
3.27937e-05
4.66742e-05
-7.80107e-05
-1.4572e-06
-2.46064e-05
2.86449e-05
4.79676e-05
-5.33754e-06
-0.000144129
0.000183833
-3.43664e-05
9.21538e-05
-2.38467e-05
0.00016272
-0.000110169
0.000127395
0.000104229
-3.85194e-05
0.000182357
1.19544e-05
6.09864e-06
2.93078e-05
-4.73608e-05
9.32739e-06
-1.54356e-05
5.84103e-06
2.67202e-07
-0.000139352
0.000162647
-3.18023e-06
-2.01155e-05
1.35549e-05
3.30326e-05
-3.90898e-05
0.000270518
1.6619e-05
-0.000220113
-6.70235e-05
-1.50809e-05
-5.02743e-05
2.06235e-05
4.47318e-05
1.03941e-05
1.18993e-05
-0.000242908
8.45073e-06
2.82579e-05
-0.000181501
0.000144793
-0.000294921
0.000161139
0.000277492
-5.13503e-05
3.20848e-06
3.31399e-05
1.50019e-05
-0.000115262
-9.06621e-06
2.11456e-05
9.65015e-05
-1.1531e-05
1.60245e-05
3.44762e-05
-8.88845e-05
8.46549e-05
-3.02466e-05
-0.000465773
0.000395005
2.89859e-05
4.17822e-05
0.000162409
-8.55241e-06
-0.000143463
6.26322e-05
4.7777e-05
-2.79475e-05
2.74681e-05
-1.15517e-06
-5.20798e-06
1.88235e-05
-1.24604e-05
-3.38335e-05
-0.000164617
5.26634e-05
0.000145787
-9.93702e-05
-4.1195e-06
-0.000107978
8.83708e-05
1.96067e-05
-6.64396e-05
-4.94739e-05
0.000115913
0.000190625
-2.53458e-05
-0.000176519
1.12399e-05
-0.000268784
5.84082e-05
-8.45456e-05
1.22143e-05
-6.60071e-06
1.90005e-05
-4.33405e-05
2.34596e-05
2.92082e-05
-1.07762e-05
0.000245016
9.48981e-06
1.54651e-05
-0.000207202
0.000149281
4.2456e-05
8.36447e-05
0.000133885
-0.000179508
1.60692e-05
-7.90763e-06
1.85061e-05
-2.66677e-05
0.000195512
-0.000108843
0.000117589
-0.000173005
-7.86908e-05
0.000134107
-3.25109e-05
4.39724e-05
1.41284e-05
-2.55899e-05
0.000197069
2.29121e-05
-4.66257e-05
0.000227264
2.03029e-05
0.00022274
-1.25121e-05
-2.46884e-05
-0.00018554
0.000315319
8.15272e-06
-7.18504e-05
-0.000180292
-6.95357e-05
6.60697e-05
8.27554e-06
-0.000124003
0.000109453
-8.49375e-05
8.05098e-05
-0.000105025
7.70814e-05
-8.80065e-05
1.09252e-05
-0.000170904
0.000107834
-3.01389e-06
6.60845e-05
-3.25332e-05
6.08127e-06
5.73579e-05
2.67618e-05
-3.99248e-05
5.01877e-05
-2.49947e-05
4.62263e-05
3.09195e-05
2.19026e-05
-2.92744e-05
-8.06382e-06
-0.000267209
3.84407e-05
-4.00154e-05
-1.69327e-05
7.95374e-06
0.000329274
-0.000218989
-0.000133074
-3.8179e-06
-0.000124026
-5.24484e-05
-6.28507e-05
5.0569e-05
-9.92106e-06
-5.06832e-05
-2.68357e-07
-0.000175606
7.47197e-07
-0.000208916
0.0001032
-0.000113502
8.94385e-05
-4.19742e-05
4.84977e-05
-2.16044e-05
3.21873e-05
0.000168254
8.59092e-05
0.00016193
-1.87994e-05
0.000118465
0.000122341
-0.000130357
5.96011e-05
-1.11448e-06
6.7643e-05
3.9275e-05
-0.000105804
0.00013702
4.42657e-06
3.14266e-06
5.26873e-06
0.000120782
4.22508e-06
-0.000125007
-0.000151726
0.000123501
2.82252e-05
4.43502e-05
0.000129257
-9.83783e-05
8.6565e-05
0.000115014
-7.90189e-05
8.54063e-05
6.78013e-07
1.54432e-05
0.000378883
-0.000116548
9.15292e-05
-0.000130485
0.000155504
-0.000126836
0.000141038
-0.000176279
-9.5616e-05
0.000106863
-2.60615e-05
9.23848e-05
8.24215e-05
1.09254e-05
-4.06418e-05
4.62804e-05
-1.6564e-05
6.8358e-05
-5.2812e-05
1.34336e-06
-0.000139531
-3.27168e-05
4.82332e-05
-6.9671e-05
-5.42135e-05
7.25756e-05
-2.20687e-05
7.71973e-05
-9.24622e-05
-0.000283238
0.000127621
-0.000145975
-5.34266e-05
-7.88116e-05
9.42359e-05
-3.37861e-05
1.83618e-05
-0.000117026
0.000129744
-0.000223667
0.000100599
9.70064e-05
5.86927e-05
-2.34251e-05
-2.43422e-05
7.95559e-05
-5.84624e-05
-2.10173e-05
-7.61908e-08
-2.34765e-05
3.35354e-05
1.82629e-05
-3.45144e-05
-2.07062e-05
3.69577e-05
-7.20241e-05
2.79456e-05
4.40785e-05
0.000157817
-8.12362e-05
-0.000194202
-0.000206282
1.63635e-05
0.000151246
-0.000225386
-3.21318e-05
0.000294019
-3.65011e-05
-0.000252594
1.45123e-05
0.000257235
-0.000112756
0.000174007
6.66626e-05
2.12675e-05
1.71611e-05
1.64721e-05
-0.000265161
-1.85199e-05
2.53564e-05
9.14152e-05
-5.01089e-05
6.91402e-05
-0.000163901
8.51817e-05
6.66963e-05
-0.000134522
-1.73555e-05
5.52849e-06
-7.69167e-05
-6.79454e-06
7.81827e-05
-3.26058e-05
2.42565e-05
-4.93541e-05
5.77034e-05
-4.3833e-05
6.72078e-05
1.11014e-05
7.48394e-05
-0.000109799
9.89933e-05
-6.40341e-05
0.000166847
-0.000184423
5.27223e-05
-3.51462e-05
-4.06222e-05
5.54354e-05
1.92652e-05
-3.40783e-05
2.01562e-05
9.06566e-05
-0.00011942
7.69969e-05
-1.76239e-05
5.14222e-05
-7.44204e-05
0.000205365
-9.10087e-06
-5.87974e-05
0.000161437
-5.85586e-05
-0.000113952
0.000105334
-3.85875e-05
-1.24876e-05
4.68813e-05
-2.17456e-05
8.87031e-05
3.98055e-06
-9.63276e-05
-3.92293e-05
-9.82574e-05
0.000103786
1.01599e-05
-2.02038e-05
1.00439e-05
5.6113e-05
-9.47203e-05
-8.16832e-05
-1.65742e-05
5.97148e-05
0.000178773
0.000300217
5.95475e-05
-0.000288182
-7.1583e-05
-4.45326e-05
-1.64397e-05
9.38066e-05
-0.000129996
0.00019655
-8.2191e-05
4.47248e-05
-7.49079e-05
0.0003304
-0.000115675
9.57012e-05
0.0001353
0.000118447
-0.000144294
3.40591e-05
-0.00012786
-0.000145814
0.000239615
5.22815e-05
-1.65586e-05
-9.46337e-05
6.15277e-05
-0.000317211
0.000323309
3.86261e-05
2.32285e-05
0.000191359
0.000455503
0.000208245
0.000171057
9.99751e-05
-0.000202673
7.93529e-05
0.000280718
8.52737e-05
9.06871e-05
-2.07229e-05
3.51678e-05
-5.50867e-05
-0.00023643
-0.000116722
0.000214756
0.000138397
2.19334e-05
-0.000200086
-3.07642e-05
-1.11199e-05
1.4203e-05
6.41246e-05
-8.8853e-05
4.23183e-05
4.91249e-05
-6.71202e-05
5.45555e-06
-8.2802e-05
5.0053e-05
-5.75775e-06
-3.00429e-05
9.55128e-05
9.06565e-06
-2.55702e-05
3.96454e-07
-5.37961e-06
1.08242e-05
-5.8125e-05
6.38979e-05
-8.22977e-05
7.65247e-05
-6.37953e-05
4.59767e-06
5.99016e-05
-7.03944e-07
3.93869e-05
-7.74994e-06
4.28508e-05
-7.44877e-05
7.36431e-05
-0.00018841
0.000197394
-0.000226202
0.000217218
1.72309e-06
0.000201643
7.27888e-05
-2.39096e-06
0.000328783
0.000143341
-0.000392771
-5.43463e-05
-5.11986e-05
5.2812e-05
5.27328e-05
-3.40022e-05
-6.32038e-05
1.51537e-05
4.38789e-05
-1.05348e-05
-4.38834e-05
-7.02795e-05
8.5196e-05
2.89668e-05
4.56003e-05
2.96948e-05
-7.64096e-05
0.000167787
-4.41485e-05
-0.000165311
4.16722e-05
5.60558e-05
-4.12464e-05
7.90916e-05
-5.73721e-06
4.2514e-05
-3.16255e-05
3.55409e-05
-4.64293e-05
9.68758e-05
7.1184e-06
-6.14021e-06
1.64088e-05
-1.7387e-05
-5.18921e-05
3.69327e-05
-0.000147694
1.04985e-05
0.000136927
-5.86157e-05
-5.99625e-05
8.06615e-05
3.79167e-05
1.47419e-05
5.66729e-05
-5.41278e-05
-1.7287e-05
3.16252e-05
4.04205e-05
-2.18671e-05
2.22636e-05
-0.000687118
-6.11252e-05
1.23115e-05
-6.33058e-05
7.52508e-05
-3.6792e-05
1.61972e-05
5.27874e-05
-5.60658e-05
3.20667e-05
-0.000328874
5.3613e-05
0.000333669
1.53529e-05
2.69847e-05
-3.74295e-05
-1.0278e-05
-9.91881e-05
0.000110269
7.41929e-05
-1.51127e-05
-1.52144e-05
0.000301367
0.000106383
-0.000407071
9.78778e-06
8.29222e-06
-8.83148e-05
5.5367e-05
0.000148435
-0.000161241
3.39521e-05
2.0782e-05
-5.55381e-06
-3.68326e-05
0.000184434
-0.000167612
-1.68218e-05
-2.57268e-05
1.2407e-05
1.33198e-05
-0.000117266
0.000110045
7.22059e-06
1.46947e-05
-1.90258e-06
-1.27921e-05
6.01446e-05
-2.21996e-05
-3.7945e-05
-3.6554e-05
-1.61967e-05
5.27507e-05
6.36074e-05
4.78171e-05
-0.000111425
-8.88628e-05
5.15334e-05
3.73294e-05
0.000173323
-0.00018387
1.05463e-05
2.6302e-05
-1.16073e-05
-0.000174186
0.00011735
5.68362e-05
-3.87528e-05
1.30261e-05
0.000190993
-6.55837e-06
-6.15557e-06
2.61675e-06
3.53882e-06
-4.95281e-06
-7.29605e-05
9.63027e-05
-2.33422e-05
3.66977e-05
-0.000201969
0.000113106
0.000180795
-7.4713e-06
-8.90937e-05
6.06368e-05
2.84569e-05
-1.39857e-05
-1.84388e-05
3.24245e-05
-0.000119137
1.87133e-06
-2.60519e-05
5.84808e-06
0.000194792
-0.000170954
-2.38381e-05
-7.45665e-05
2.3815e-05
5.07515e-05
2.58061e-06
4.11877e-05
-1.25429e-06
-0.000210527
-0.000159009
0.000181126
5.32322e-05
-2.5793e-05
8.03181e-05
-1.69351e-05
7.35583e-05
-4.23949e-05
-5.31855e-05
-1.72563e-05
3.91855e-05
3.12563e-05
3.3875e-05
-1.30044e-05
8.38326e-05
-4.52872e-05
-2.28826e-05
-0.000865332
5.06001e-05
2.6846e-05
0.00015395
0.000200004
-0.000156559
6.10716e-05
-0.000169394
1.64286e-05
-0.000136883
-3.73026e-05
-1.46059e-05
0.00030593
-0.000291325
-5.89928e-05
-1.58883e-05
-1.0252e-05
0.000106228
-7.17689e-06
1.06458e-05
6.07207e-06
1.77429e-05
-0.000173056
2.10191e-06
7.12291e-06
9.73642e-05
1.99855e-05
1.27806e-05
2.09517e-05
0.000204423
0.000111915
-1.20019e-05
1.45826e-05
9.73975e-06
-0.000330113
3.96806e-05
-3.46175e-05
-3.21537e-05
2.6842e-05
3.99293e-05
-1.57877e-05
-3.94431e-05
-0.000328247
4.22522e-05
6.66771e-05
4.13062e-05
-3.43402e-05
-6.08282e-05
3.99302e-05
3.28403e-06
8.97874e-06
-7.10601e-05
-3.26975e-06
1.35583e-05
6.2738e-05
-7.30266e-05
5.41008e-05
-5.48969e-05
-2.47364e-06
-0.000128273
0.000122119
-0.000140061
0.000146216
-4.20544e-06
-0.000244219
-1.67369e-05
-1.18955e-05
5.39093e-05
-4.30713e-05
1.05752e-06
-1.20794e-05
-8.66094e-05
8.16721e-05
-1.3693e-05
-0.000205694
0.000215182
2.68452e-05
-3.20156e-05
-4.16316e-05
5.26977e-05
-1.19386e-05
5.78307e-06
-2.0906e-05
-5.20545e-05
3.57266e-05
-2.98184e-05
-1.61602e-05
-7.32984e-05
-0.000166265
-4.65535e-06
3.61322e-05
5.83889e-05
0.000393923
-6.63258e-06
-0.000421292
-7.89331e-05
-6.38152e-05
8.46233e-05
-0.000128137
-2.31089e-06
9.66149e-05
0.000477642
-6.25257e-05
-0.000381058
0.000121142
6.00653e-05
-9.11192e-05
-9.00884e-05
-8.61688e-05
5.60352e-05
0.000113914
-8.37806e-05
-5.39106e-05
5.69803e-05
-9.2445e-05
0.000321151
-0.000302005
-4.36274e-05
0.000345611
5.4953e-05
1.28956e-06
-5.72171e-06
-5.05208e-05
1.94751e-06
-5.33592e-06
-1.99455e-05
2.33339e-05
-9.21889e-06
-0.000107227
-1.16914e-05
2.06281e-05
-0.000215755
-5.4271e-06
0.000200554
4.59636e-06
-9.28793e-06
5.87924e-05
-3.76667e-05
4.42105e-05
-0.0001099
-1.5206e-06
0.000132049
-5.0282e-05
6.38403e-05
-9.26334e-05
1.31508e-05
-3.13843e-05
3.84909e-05
4.08757e-05
4.00281e-06
-8.33695e-05
-7.00552e-05
1.59127e-05
-3.97484e-05
5.59895e-05
-8.62963e-05
2.4726e-05
-6.69819e-05
-3.33688e-05
7.87525e-05
4.29918e-06
-4.00447e-05
-3.31883e-05
-1.98219e-05
5.73094e-05
8.41943e-05
7.00846e-05
-6.75419e-05
-4.14553e-05
-3.80607e-05
4.44665e-05
-1.56248e-05
-7.71832e-05
6.39528e-05
0.000208903
-0.000195673
2.24001e-05
2.32002e-05
0.000165708
-3.33361e-05
-0.000209555
0.000125375
-4.26357e-06
-6.61581e-05
-7.23358e-05
0.000123711
-3.14852e-05
5.32929e-05
-0.000145518
0.000205139
0.000367506
-0.000285256
-0.000287389
1.20435e-05
0.000215468
-0.000227512
1.09278e-05
4.25223e-05
0.000217305
-1.7035e-05
-0.000136317
-3.16713e-05
-8.35032e-06
6.51808e-05
-2.51592e-05
0.000104274
0.000224576
3.3229e-05
-5.30536e-05
0.000145199
2.60164e-05
0.000367794
-0.000231421
-0.000162389
-0.000222372
0.000166133
8.22558e-05
-8.79293e-05
-0.00010967
7.87272e-05
0.000118872
-0.000118311
8.40882e-06
-0.000105853
0.000234166
-0.000134143
-0.000187952
0.000125464
-9.24926e-05
2.57575e-07
1.25053e-05
-7.05656e-06
-3.712e-05
2.13533e-05
-8.83051e-05
-3.98063e-05
0.000106758
0.000138223
-2.49054e-05
-0.000117582
1.67e-05
-1.48046e-05
-3.33806e-05
1.3625e-05
-0.000168854
-6.71435e-05
-0.000106944
0.000137157
9.52506e-05
1.57928e-05
-1.38729e-05
-1.91991e-06
-4.60593e-06
-7.62553e-05
-3.74496e-05
-6.12707e-05
0.000146441
2.05996e-05
-2.22654e-05
-3.63949e-05
-5.69613e-05
8.40151e-05
-5.70041e-06
-7.39511e-05
-2.75404e-05
-8.05375e-06
0.000237402
-0.000207569
1.0438e-05
0.000197131
5.56418e-05
-1.81536e-06
0.000111881
-6.67323e-05
-8.31073e-05
7.58487e-05
5.905e-05
2.84465e-05
2.93046e-05
-5.77511e-05
0.000256491
-4.49981e-05
8.99407e-05
-4.57633e-05
0.000488531
8.32655e-05
-5.0073e-05
-2.09295e-05
7.51706e-06
8.45857e-05
1.28285e-05
2.50476e-05
-0.000499812
0.00055306
-0.000491886
4.52884e-05
-8.66273e-06
-0.000137003
0.000451726
-0.000463006
-0.000169121
9.66431e-05
6.97069e-05
4.73648e-05
-3.24861e-05
0.000102245
-0.000118248
-1.62338e-05
-3.17449e-05
3.31465e-05
-3.65814e-05
-6.8841e-05
7.2276e-05
0.000361012
-0.000213085
3.06877e-05
-5.07977e-05
4.25032e-05
7.80015e-05
7.79554e-05
-3.84212e-05
8.22527e-05
3.24166e-05
6.32832e-05
-6.25533e-05
0.000315157
-0.000407602
6.76424e-05
-0.000105612
0.00039917
-1.95636e-05
-0.000156779
0.000151437
-0.00021275
5.18071e-06
2.71872e-06
0.000100618
9.93743e-05
-8.60782e-05
2.85472e-05
-8.34927e-05
-3.61737e-05
2.38329e-05
4.06562e-05
3.16064e-05
-3.9846e-05
0.000153058
-0.000102476
-0.000216848
-0.000375584
-4.49954e-05
2.55188e-06
0.000107624
-0.000214426
-0.000233424
0.000123475
0.000324375
0.000149219
6.11023e-05
0.000309913
-3.22051e-06
8.45181e-05
2.56274e-05
0.000133319
0.000295289
-5.15767e-05
-2.21267e-05
2.7756e-05
-5.7359e-05
0.000128816
0.000229078
7.83367e-05
-2.8695e-05
1.88209e-05
-6.8643e-05
-2.11828e-05
-4.95092e-05
-4.66136e-05
-3.15305e-05
2.20429e-05
2.61314e-05
-4.68847e-05
-0.000231591
0.000221821
1.49503e-05
5.16363e-05
-2.92363e-05
3.97113e-05
1.1925e-05
-2.34652e-05
-4.3104e-05
-6.45741e-06
8.5305e-06
6.873e-06
-3.56995e-05
-1.2185e-05
3.4456e-05
1.83852e-05
3.28005e-05
-2.58697e-05
7.76924e-05
-7.26856e-06
-0.000175819
0.000159584
-8.94092e-05
-0.000160695
-4.89798e-05
-0.000196215
0.000183525
-0.000223234
0.000257036
-9.28796e-05
0.000210283
5.47384e-05
3.98839e-05
-5.41986e-05
-1.7977e-05
2.90183e-05
-2.35067e-05
-2.41836e-06
-9.16566e-05
-6.35437e-05
-0.000154253
-0.000151267
0.000188626
4.48762e-05
-7.29306e-05
4.86217e-05
-3.97628e-05
0.000104902
1.70351e-05
-8.21745e-05
-4.65336e-05
9.22958e-05
8.42857e-05
-7.72073e-05
-1.18375e-05
-7.17622e-05
1.06972e-07
-3.72257e-05
0.000142003
-0.000157589
4.10744e-05
-0.000137603
6.14752e-06
-4.44477e-05
4.27123e-05
-4.41214e-06
2.52993e-06
-0.000133802
-0.000159933
8.88296e-05
-9.77502e-05
0.000126699
5.36547e-05
-5.93438e-05
-1.9541e-05
2.20903e-05
-0.000108718
-0.000222439
-0.000225207
-3.39968e-05
4.47864e-05
-3.10434e-05
2.02538e-05
2.62011e-05
4.86924e-05
-3.93526e-05
8.83789e-06
-8.6004e-05
0.000139257
-7.25402e-05
-0.000106479
-8.62459e-05
-2.31558e-05
3.72175e-05
-0.000122497
5.70274e-05
5.90412e-05
-3.00805e-05
-9.86317e-05
0.00018894
-0.000161009
-1.08964e-05
0.000103903
-1.11532e-05
1.31776e-05
0.000163296
-0.00016532
8.70246e-05
0.000154715
-8.77897e-05
0.000177241
-0.000221724
-0.000277263
2.82134e-05
-5.86203e-05
-1.55574e-05
7.12058e-05
-4.44085e-05
-0.00024578
0.000228603
0.000140652
-9.39825e-05
-6.74798e-06
0.00010073
3.02775e-05
2.07973e-05
-6.88263e-05
0.000136896
-0.000253653
0.000185113
3.50059e-05
3.36913e-05
-1.07309e-05
-5.79663e-05
2.35279e-05
-4.36196e-05
0.000114328
-0.000225885
0.000154577
5.96162e-05
-5.72912e-05
-0.000137154
0.000190836
-0.00054906
-0.000134397
-9.79567e-05
0.000126544
2.13216e-05
3.5145e-05
-3.07755e-05
-2.56911e-05
4.14029e-05
-4.21487e-05
5.46551e-05
-6.69429e-06
0.000123027
-0.000157282
4.09497e-05
-1.6481e-05
-3.29928e-05
0.000142033
-5.36618e-05
-0.000464331
-8.95464e-06
-4.87491e-05
8.14256e-05
-1.92109e-05
-0.000207027
-8.55744e-06
1.18339e-05
-9.87716e-06
9.51409e-08
-0.000214926
-1.81841e-05
1.74466e-05
-2.17249e-05
-0.000105391
6.30143e-05
7.45154e-05
-5.3244e-05
-4.39021e-05
-5.5773e-05
2.79128e-05
-2.29638e-05
2.34817e-05
1.77451e-05
1.55664e-05
-6.6215e-06
-0.000344706
0.000225423
-0.000117148
-2.56984e-05
-0.000178096
5.74226e-05
-5.14892e-05
-2.86358e-05
-6.95785e-05
-0.000167063
4.48391e-06
7.53299e-05
8.72491e-05
2.52224e-05
0.000115454
-0.00012777
5.20269e-05
1.45591e-05
0.000114046
-6.96736e-05
9.45663e-06
1.393e-05
-1.90769e-06
-4.90394e-06
1.14283e-05
-1.05824e-05
2.94317e-05
-4.46695e-05
-8.43897e-05
-5.5073e-05
4.53697e-05
-0.000191642
-0.000184793
0.000150233
9.60963e-06
-7.41081e-05
7.92404e-05
-7.25996e-05
3.88255e-05
-2.48416e-05
-8.45882e-05
7.71052e-05
-0.000114536
-6.29045e-05
0.00017744
-1.06129e-05
-3.48963e-05
3.49743e-05
5.30952e-05
3.47074e-05
-5.26576e-05
3.29406e-05
0.000286007
-6.53243e-05
4.37695e-05
4.2321e-05
-6.38346e-05
-7.90762e-05
8.39264e-05
7.58132e-05
2.27115e-05
-0.00010034
5.5901e-05
-0.000313564
-3.87025e-05
-2.2613e-05
-1.33582e-05
2.70166e-05
0.000114118
-3.70366e-05
-0.000213091
1.73466e-05
-2.04524e-06
2.09834e-06
-5.26805e-05
8.48855e-05
-1.00178e-05
-7.93919e-05
7.75129e-05
1.58073e-05
0.000135586
-0.000149322
-1.80726e-05
6.62822e-05
-0.000182013
-0.000171658
3.9479e-05
-1.99491e-05
-0.000185907
-0.000106862
-1.43201e-05
-1.68255e-05
8.53248e-06
-0.000175036
0.000194492
0.000197762
-0.000111935
-0.000142639
0.000116977
0.000137597
-8.05579e-05
6.07671e-05
1.8782e-05
-3.10675e-05
5.46065e-05
2.31605e-05
3.5689e-05
-1.64221e-05
-0.000120841
0.000159097
3.67418e-05
-5.51737e-05
0.000244791
-0.000282872
-2.22349e-05
-8.49532e-05
-0.000183322
-0.000221158
-8.09425e-05
3.392e-05
-1.83245e-05
-9.35373e-06
-5.02558e-06
1.89343e-05
7.18348e-05
-4.43401e-05
-6.68524e-05
-0.000121284
-2.24811e-05
-4.91079e-05
5.00911e-05
-6.94684e-05
0.000307708
-0.000310612
7.23728e-05
1.3397e-05
6.85431e-05
-4.49725e-05
-3.69676e-05
4.69295e-05
-2.12766e-05
7.16223e-06
-8.12454e-05
3.44559e-06
4.23195e-05
-3.6452e-05
-4.39488e-05
3.80814e-05
-1.35326e-07
-6.4752e-05
4.75566e-06
6.01317e-05
1.95078e-07
-3.99843e-05
-4.07408e-06
-2.55799e-05
8.36929e-05
-2.35705e-05
7.18673e-05
2.92789e-05
-6.64388e-05
-5.05216e-05
-1.05593e-05
-8.98609e-05
9.3395e-05
1.69806e-06
-7.51335e-05
8.35782e-07
5.25817e-05
-1.14586e-05
4.34727e-05
-4.63358e-05
7.05566e-05
-1.38628e-05
-2.75629e-05
-0.000142341
2.45709e-05
6.49184e-05
4.22579e-05
-5.09861e-05
8.72824e-06
0.000146849
0.000193622
-2.22586e-08
-8.18387e-05
-2.46939e-05
-9.30528e-05
1.38167e-05
5.08219e-05
-2.45405e-05
-0.0001911
0.000113017
8.55168e-05
-7.6425e-05
0.000102755
-5.92395e-05
-6.15121e-05
5.24816e-05
4.51626e-05
1.1709e-05
-3.85394e-05
-4.39638e-06
0.00020845
1.80129e-05
3.25155e-05
-2.6229e-05
4.63988e-05
0.000105974
1.08325e-05
-0.00025117
-1.22e-05
-2.29201e-06
-9.79872e-05
0.000123621
-3.75286e-05
6.35476e-05
3.43477e-05
2.62891e-05
-0.000352684
7.58555e-06
0.000360542
-3.71213e-05
4.66001e-05
-4.72032e-05
0.000152599
6.94444e-05
6.62384e-05
-4.97485e-05
4.93105e-05
-1.68221e-05
-3.5413e-05
-0.000116034
0.000133315
0.000135063
-0.000152344
3.4351e-05
-5.90538e-05
9.43797e-06
-2.13925e-05
-0.000123826
6.78054e-05
-1.15752e-05
-0.000126074
-0.00010815
-0.000277557
-2.22013e-05
0.000200388
-0.000167109
-5.52557e-05
-4.21316e-05
4.41016e-05
-1.97007e-06
-4.22669e-05
9.59598e-05
5.13826e-05
-8.34894e-05
-6.38529e-05
4.77053e-05
-4.53697e-05
3.1028e-06
4.04533e-06
-8.99814e-06
0.000163885
-2.27653e-05
-5.40709e-06
5.31124e-05
-2.52384e-05
-2.01313e-05
-8.42296e-05
5.5477e-05
2.87526e-05
-0.000267157
0.000147401
0.000119757
-7.36005e-05
1.20423e-05
8.84043e-05
-7.51583e-06
2.62979e-05
4.6041e-05
-3.82109e-05
-4.61326e-05
3.83024e-05
0.000183767
-0.00014155
-9.68057e-05
2.94433e-05
-1.66559e-05
-2.83447e-05
-0.000107008
0.000124041
-1.70331e-05
3.89099e-05
4.84771e-05
-3.71954e-05
9.04245e-06
3.99869e-05
6.19873e-06
-0.000234864
-1.08277e-05
-4.00785e-05
0.000494838
3.32235e-05
-6.04577e-05
4.87606e-06
8.92419e-05
-3.36565e-05
-5.34044e-05
-1.79215e-06
9.09958e-05
-7.87528e-05
-1.2243e-05
-6.57548e-05
-4.53026e-05
7.40208e-05
1.94333e-05
2.72816e-05
-4.31156e-05
-7.26792e-05
8.55997e-05
-8.92085e-05
7.25878e-05
8.09366e-05
-8.62669e-05
-1.60123e-05
-6.06326e-05
-4.48685e-06
5.59703e-05
9.14916e-06
0.00023228
-0.000202403
0.000174821
-0.000204697
-0.000323342
0.00037027
-1.66476e-05
-9.84809e-06
6.96774e-05
1.01734e-05
6.53508e-05
1.08291e-05
-6.27828e-05
-4.54249e-05
-7.80244e-05
1.95952e-05
-4.23705e-05
9.87313e-05
-9.39615e-05
-0.000110381
0.000620864
0.000302588
0.00013341
9.13833e-06
-1.74897e-06
2.2763e-05
-7.86254e-05
7.81769e-05
-2.52426e-05
5.99175e-05
0.000162944
-3.03445e-05
-0.000132599
0.000132586
-0.000116686
2.64187e-05
4.70489e-05
-4.83216e-05
-5.86898e-05
1.43773e-05
5.98173e-05
-1.75217e-05
5.02375e-05
7.37885e-05
0.00016952
0.000152195
4.55446e-05
-3.84816e-06
-3.61307e-05
1.43696e-05
5.49877e-05
-0.000175824
1.20543e-06
-9.67417e-05
-2.89473e-05
-7.0229e-05
1.04154e-06
-1.46965e-05
6.85131e-06
9.17642e-05
5.7572e-06
3.65007e-05
-0.000177702
-0.000108281
-0.000119194
-1.42507e-05
9.18127e-05
7.00165e-05
-4.44971e-05
-3.51545e-05
1.37578e-05
-0.000320447
-0.00060741
1.73329e-05
1.70148e-05
6.68495e-05
-0.00021202
-0.000166467
0.000200786
-0.000183876
-5.47056e-06
2.6402e-05
-0.000188562
8.13393e-06
-5.5473e-05
0.000134001
-0.000163823
8.39837e-05
-0.00010669
-6.44307e-05
1.85762e-05
-0.000161951
-0.000214173
0.000301216
-9.3924e-07
-5.74915e-06
-0.000104717
9.35641e-05
-0.000115604
1.08868e-05
-5.59571e-06
1.20575e-05
0.000262522
-0.000268984
7.32039e-05
-2.23336e-05
5.92975e-05
-5.94184e-05
-3.92599e-05
3.93807e-05
4.56351e-05
8.06409e-05
-9.55867e-05
-3.06893e-05
2.97254e-05
-6.38321e-05
-4.55491e-05
-5.53337e-05
-3.13298e-05
-7.89169e-05
-1.87271e-05
9.95153e-05
-3.37633e-05
-8.46237e-06
-0.00024191
-1.74107e-05
0.000224166
-1.16629e-05
9.03997e-05
-0.000111306
-3.47062e-05
2.27676e-05
5.68387e-05
-5.2129e-05
5.45878e-05
-0.000475084
0.000215967
-6.94633e-05
0.000124014
-7.12855e-05
9.63629e-06
-6.22529e-06
7.32298e-06
-2.33631e-05
0.000105319
0.000155838
-0.000379727
0.000310034
2.2465e-07
-2.27893e-05
4.82295e-05
0.000165186
-3.60669e-05
1.4139e-06
-2.52222e-07
-4.97678e-05
-2.82882e-05
6.08859e-06
-3.37811e-05
-1.63852e-05
-6.91471e-05
6.7938e-06
-4.2553e-05
-3.55263e-05
0.000114655
0.000150466
1.24411e-05
0.000109631
9.98127e-05
2.7449e-05
-6.18602e-05
-2.93889e-05
-0.000177704
-1.55412e-05
4.68303e-06
-2.66414e-05
-0.000240871
0.000174413
-6.19795e-05
3.61664e-05
-7.8844e-05
-3.62394e-05
-1.365e-05
8.03271e-05
0.000182477
0.000146347
-0.000111831
4.46798e-05
2.00187e-05
-7.97603e-05
5.23746e-05
-0.000116206
0.000110555
2.0777e-05
0.000129978
-0.0004348
5.42792e-05
0.000184985
-3.87106e-05
0.000143931
-1.53532e-05
4.8515e-05
0.000102642
-2.66554e-05
4.32097e-05
6.61156e-05
0.000184077
-3.14576e-06
2.35373e-05
4.3828e-05
4.1507e-05
3.00732e-05
0.000175513
4.19352e-05
-0.000247521
-2.46738e-05
6.60342e-05
1.60806e-05
-6.57761e-05
-2.02318e-05
4.71184e-05
-5.27897e-05
-2.15126e-05
-6.55447e-05
1.06477e-05
2.46184e-05
-2.15822e-05
1.25302e-05
3.34725e-05
1.34849e-05
0.000103802
2.34503e-05
-0.000130806
0.000139868
-0.000259984
-7.23503e-06
-8.07051e-06
-3.08355e-06
6.93473e-05
-0.000289525
0.00020099
-0.000152335
-4.0712e-05
-1.08008e-05
-6.29473e-05
0.000166474
-0.000169238
0.000220171
3.94669e-05
3.90896e-05
-0.000126029
-3.11609e-05
-4.22819e-05
0.000154333
8.7356e-06
-0.000148088
7.54682e-05
7.26197e-05
5.41884e-05
-7.74721e-06
1.60682e-06
6.14039e-06
-5.50475e-05
-0.000338076
0.000330141
-4.1613e-05
-2.34113e-05
-6.49716e-05
-0.000136559
7.44952e-05
-2.01274e-05
0.000344545
0.00016633
-0.00024246
0.00014241
-7.49066e-05
2.84782e-05
-2.30927e-05
-3.04129e-05
3.3139e-05
-1.16266e-05
1.80803e-05
-6.11495e-05
-8.48701e-05
-0.000118183
4.36042e-05
0.000173244
-4.91395e-05
4.60689e-05
-5.19254e-05
-4.62433e-06
-3.57788e-05
3.36086e-05
-2.94008e-05
2.92427e-05
1.58046e-07
-2.9517e-05
1.16197e-07
3.07394e-05
-3.10759e-05
3.36479e-07
1.22241e-06
-0.000173522
0.000190304
-1.67825e-05
-0.000146006
-2.75155e-05
0.000183663
0.000160602
2.30614e-05
2.95112e-05
0.000152034
8.56814e-06
0.000158765
-6.73163e-06
2.83285e-05
1.18261e-06
2.56302e-05
2.06046e-05
-1.63626e-05
-0.000266182
1.40033e-05
6.60134e-06
6.25606e-06
-7.44933e-06
0.00027895
0.00010538
0.00017258
-0.000239797
3.86573e-05
6.55247e-06
-4.52098e-05
0.000166162
0.00016272
-0.000181789
0.000130985
-4.61549e-05
2.59329e-05
-2.95458e-05
-2.12339e-05
3.47333e-05
7.16823e-05
1.0357e-06
-0.000173704
-1.39411e-05
-4.35958e-05
2.1069e-05
-2.22477e-05
0.000147984
-0.000152848
4.86365e-06
-0.000110731
-0.000106311
9.56956e-06
5.41344e-05
-6.78443e-05
6.685e-05
3.29798e-05
-4.70177e-05
0.000147502
4.81667e-07
0.000118042
9.68329e-06
-8.13914e-05
-3.37128e-05
0.00016891
-2.74806e-06
-0.000111705
-1.97239e-05
7.63559e-05
-0.000128063
-0.000241623
3.29467e-05
7.53246e-05
3.6018e-05
-1.34965e-05
1.19747e-06
6.38722e-06
-8.20209e-05
0.000252096
-0.000177252
0.000183345
-0.000160823
8.37061e-05
2.92727e-05
-7.39377e-05
1.37975e-05
-0.000265351
0.000280465
0.000257198
0.000142026
-0.000159379
6.53153e-06
0.00016899
-7.99684e-08
-0.000206434
-2.78517e-05
0.000131635
-0.000115544
1.19195e-05
-5.72007e-05
0.000116156
-0.000163395
4.01558e-06
-0.000105035
-5.4876e-05
3.18962e-05
0.000285889
0.000104513
-0.000221201
-0.000299341
-0.000133936
-2.77868e-05
-0.000148366
4.90294e-06
-0.000139992
0.000136847
-4.52821e-05
0.000176917
7.44502e-05
-6.52518e-05