/*--------------------------------*- C++ -*----------------------------------*\
| =========                 |                                                 |
| \\      /  F ield         | OpenFOAM: The Open Source CFD Toolbox           |
|  \\    /   O peration     | Version:  v1912                                 |
|   \\  /    A nd           | Website:  www.openfoam.com                      |
|    \\/     M anipulation  |                                                 |
\*---------------------------------------------------------------------------*/
FoamFile
{
    version     2.0;
    format      ascii;
    class       volScalarField;
    location    "0.68";
    object      p;
}
// * * * * * * * * * * * * * * * * * * * * * * * * * * * * * * * * * * * * * //

dimensions      [0 2 -2 0 0 0 0];


internalField   nonuniform List<scalar> 
5794
(
94.2832
96.3863
92.8719
96.0061
93.9762
95.6928
91.3204
94.3475
91.3179
95.3682
126.41
91.1641
90.3449
94.3489
97.2682
96.5363
36.232
96.7496
97.3013
96.31
94.5641
94.8491
90.7432
97.2594
92.6488
45.1276
42.276
98.2728
92.9036
96.371
94.5838
88.2236
106.889
96.9263
91.6188
90.3472
100.065
92.5821
90.3682
93.0642
94.0327
96.8746
117.833
93.1831
97.3171
108.161
89.5963
95.4941
96.0476
92.3338
96.8427
84.7102
92.0724
96.1646
96.7415
110.358
91.4393
93.2719
118.012
40.4877
105.798
96.5487
94.4097
87.9787
106.458
96.4699
92.6814
92.6235
96.7734
96.6043
83.9155
92.9717
20.5341
93.4443
96.2688
98.3098
95.1647
50.9727
93.6957
96.679
94.4103
96.0864
93.8764
91.5353
93.2422
95.8448
88.5083
112.113
97.2009
91.5976
115.27
91.1124
93.8072
93.8273
96.7974
83.6338
111.102
94.6958
91.3679
106.697
82.7831
89.1094
117.975
95.9416
97.3493
94.1513
96.5286
127.577
83.1189
94.1275
98.0903
97.49
76.5493
95.9812
96.0887
92.4266
96.9219
94.5585
104.948
94.13
94.4056
95.902
94.5052
98.2227
97.3652
124.477
91.6989
96.092
86.5385
126.224
95.5873
92.5155
89.8994
55.1903
94.0738
97.2101
117.95
96.5983
96.9134
97.8659
93.391
96.3744
97.4803
96.962
96.9621
50.5361
95.179
116.019
94.4019
97.816
122.674
96.0993
94.3366
93.999
45.7203
88.7823
92.021
93.6541
107.74
94.0987
97.165
92.9487
97.7159
90.6004
83.0532
84.6755
91.2181
94.5841
98.0298
97.4134
96.9043
84.3772
90.8448
92.9258
96.7093
90.4858
97.2179
92.1951
97.3924
87.2347
96.9292
90.1295
94.6943
108.737
91.6736
44.4553
88.8105
107.722
95.904
89.2045
126.14
88.4248
106.901
95.5314
93.0513
94.9948
93.8325
97.8202
97.3959
116.196
90.7956
83.9043
95.7939
92.7784
89.2158
107.814
95.6973
127.825
88.6221
90.4649
94.4708
99.144
90.5006
92.7325
97.015
91.7648
90.4449
90.7126
126.776
99.5366
99.2427
88.3185
113.942
94.2099
112.985
39.9221
93.0761
94.9134
94.6016
97.075
91.1545
93.4433
95.9435
83.7715
92.9022
51.2156
71.2752
120.472
90.3713
94.179
96.1442
127.885
94.1677
94.6389
93.6015
98.1783
97.4044
94.626
112.116
95.0717
91.4704
96.4243
42.2082
96.2152
121.272
88.396
116.89
116.979
127.87
97.3139
118.358
90.7229
93.6484
96.2448
91.2003
95.591
97.7948
123.897
97.2836
107.268
88.7041
94.9589
94.116
82.9683
100.586
97.1466
96.1032
93.3282
96.3173
89.4896
97.961
106.559
94.217
96.7917
92.6294
94.6243
90.2473
97.369
89.4099
94.0987
90.5398
92.1978
96.2789
95.9828
114.269
53.7745
94.4295
96.2974
92.0569
96.1531
96.109
83.0736
94.4561
93.0981
93.0086
122.335
96.3599
94.8789
106.565
88.0989
94.5909
107.124
93.6407
96.0139
100.012
102.068
127.532
98.175
82.9971
93.7927
94.0601
91.3364
94.4318
94.2751
96.586
87.9364
92.6519
92.4658
91.7408
126.645
84.9325
119.134
94.2753
107.286
88.4657
95.6448
95.0531
97.8769
96.0724
107.967
97.3066
92.5639
89.8051
90.5323
97.2062
93.9357
110.814
91.6307
85.3754
92.6935
89.5548
52.059
107.365
89.0045
95.529
41.1056
97.3839
85.8845
91.0912
94.3248
127.738
90.8015
118.937
91.0457
94.3153
94.4571
83.8404
108.925
90.1849
94.7643
96.4313
96.2377
94.4186
97.1768
127.481
83.0312
110.56
90.8364
94.6106
96.3883
93.5609
96.4915
100.418
90.3811
91.8088
97.3431
92.5834
91.0219
94.1797
91.5962
94.6875
91.5017
96.5545
98.0257
91.1242
93.3883
96.3539
92.3461
97.1615
90.7224
97.1915
92.0791
47.973
98.1493
97.5687
121.775
92.124
95.4951
96.5161
111.733
94.3552
90.6669
125.573
84.5459
107.518
88.9173
95.4359
98.7434
83.3005
111.31
91.3609
94.7227
127.154
96.3699
90.5304
92.2847
97.2783
95.9963
96.1519
94.4798
84.6079
100.412
97.712
77.4413
97.3769
96.8262
95.237
92.7706
90.4559
92.2461
97.5
100.037
92.6338
97.1101
93.3443
92.0488
96.2331
96.8014
92.3642
93.2111
94.8342
96.2471
85.4052
94.7395
94.6106
96.3612
109.623
86.8062
96.4638
94.401
94.9742
96.2674
92.3345
98.1579
107.619
126.086
47.7446
92.0509
125.89
93.9699
96.4142
80.9532
125.538
94.5765
95.9251
108.856
63.8244
98.0338
93.8475
96.2713
92.7813
94.895
95.4729
94.6745
127.494
125.932
98.8642
93.3313
52.2036
94.5411
96.1255
95.1478
94.2592
94.6117
92.0215
97.9486
96.8776
96.5414
96.718
121.176
92.1414
63.0352
102.212
87.4096
97.6783
96.2552
95.0934
115.98
125.595
96.3428
82.857
96.391
93.5403
96.4339
96.2008
94.456
92.7888
96.4266
99.0185
49.1477
95.3886
96.4653
93.4744
94.7594
125.83
96.3992
94.2331
97.5244
96.3103
95.0149
93.0584
96.2057
46.8594
96.6639
94.4136
92.2629
100.14
116.192
125.915
117.844
94.6411
79.6755
96.195
93.1565
92.6395
96.5908
100.59
96.8925
96.0686
96.0572
95.9351
96.2956
97.2911
93.5543
96.5552
97.5471
92.6504
95.1011
96.3861
95.0812
24.0921
96.9016
123.113
96.1037
93.9311
93.7884
96.4387
92.7899
95.9062
96.1505
108.496
84.8179
84.0786
97.3182
48.3558
97.4636
92.349
91.9456
96.5451
93.804
93.8184
93.915
125.25
49.5196
86.0075
111.273
96.0779
94.6289
91.3128
110.702
96.2664
96.6151
96.6165
91.8563
94.9737
103.206
96.4251
99.7518
96.5072
92.1969
94.5795
109.299
96.1248
92.2203
96.2748
125.536
56.3371
95.2751
96.7367
95.5735
89.1101
87.0077
93.6323
92.1189
96.6178
91.1977
120.773
126.315
115.054
94.3061
96.3266
125.531
124.845
127.677
96.4596
96.4862
97.1841
94.5052
128.543
95.9997
94.2986
96.2378
95.9708
95.4728
96.5616
95.2787
67.7765
99.8988
94.4862
98.2713
92.6302
118.437
126.974
91.1288
117.138
92.089
96.7301
106.725
96.7535
96.7008
96.2723
94.1585
96.6979
91.6669
96.6953
121.515
49.4557
94.094
36.1301
97.4713
96.4486
95.6095
94.7854
94.0331
96.2568
97.0238
91.6037
94.7934
90.3819
106.752
120.571
92.4484
42.0542
91.6866
95.8545
96.2668
91.7352
93.0228
92.4169
94.0221
96.1698
128.069
96.3078
96.6674
95.3598
116.71
94.9914
96.5832
96.2703
96.4119
93.6978
101.612
72.8541
96.3544
95.8726
96.4804
127.653
96.2686
94.7898
99.1504
96.1553
89.9481
96.1173
117.072
95.1497
119.666
96.7677
94.9246
96.7917
126.93
118.256
95.3104
96.5238
90.0186
125.509
98.027
101.678
45.663
123.708
91.4528
127.749
68.6782
116.621
96.6886
90.6043
92.7236
115.618
100.721
126.957
103.184
96.2654
70.485
99.4637
122.106
95.9398
92.2627
34.7014
125.656
91.1673
94.2573
112.623
97.0773
95.3413
91.8242
92.4884
94.6698
91.0765
108.753
91.8782
100.046
96.4194
93.7996
96.3818
96.4044
95.9337
92.323
101.369
95.1985
96.7142
110.563
93.1458
73.2418
94.7245
96.8634
92.3796
94.6314
91.9237
113.577
93.0132
94.6782
91.7892
111.653
94.7597
96.7149
94.4121
96.7042
96.3082
94.1877
94.205
95.8603
127.515
48.1807
92.3601
95.115
96.3353
94.4486
92.4258
127.698
92.6624
94.5924
96.8306
121.6
110.253
90.8639
93.2969
93.0278
96.1779
75.9161
94.6128
60.8999
98.2498
127.617
94.4205
96.9015
96.3505
96.0618
127.118
128.331
120.494
106.407
96.4474
93.3648
94.3635
109.194
98.6475
98.0475
90.6743
108.003
127.214
96.4597
95.2959
92.016
114.917
49.6165
95.9965
100.918
96.146
94.6662
95.7462
91.2116
94.6578
110.056
99.6561
96.6173
95.2115
94.7738
97.5451
41.1605
93.99
96.2332
92.2807
96.5561
125.6
97.0427
101.645
96.2994
93.5544
107.22
100.109
80.6659
96.1598
91.6701
96.6138
91.4267
123.579
124.045
49.6056
93.0654
96.308
96.7172
107.454
95.1378
94.0728
94.4603
103.616
96.4238
77.4538
125.541
96.4469
97.3954
96.9719
99.4408
122.924
95.6657
57.5952
96.2016
96.5883
60.5851
110.227
99.062
93.2491
95.4366
126.524
116.442
96.5225
96.6244
90.3057
124.398
94.3315
100.018
123.981
92.7999
96.6536
92.3708
93.0362
99.926
94.2795
94.4627
96.1467
94.7186
96.0866
96.5037
96.5211
95.5351
121.493
96.294
99.8328
96.222
92.8482
91.7614
95.3739
97.138
125.636
125.859
58.0029
94.0018
93.5278
100.147
96.3877
53.2676
106.071
87.4357
119.841
94.9509
90.9472
96.9638
95.8087
91.8039
107.544
93.1146
92.8925
92.5074
95.7189
96.8749
119.793
97.5036
95.869
111.946
91.4013
94.7795
96.8101
114.084
96.5094
95.3902
94.4082
96.0871
86.8112
127.181
111.716
100.062
94.9096
79.8531
96.2104
94.6823
85.1046
45.9688
100.503
92.3167
104.002
96.4507
95.8264
93.7222
96.6361
91.3712
96.692
96.5244
96.4987
94.6159
96.7905
96.1947
96.5688
96.712
99.832
97.1355
100.69
96.3647
96.1351
111.928
100.402
94.2959
95.9748
91.795
96.4412
126.517
102.3
92.4457
96.7442
92.7265
125.476
96.7116
100.099
94.5108
96.8877
100.091
73.0598
99.3202
89.2818
105.352
96.3508
100.778
94.9375
97.7168
112.986
74.4995
95.9062
103.013
96.5473
94.1385
96.3183
96.1638
105.009
108.26
46.7921
81.1793
97.9541
96.1564
95.8096
94.895
90.2123
106.095
116.3
96.5595
94.8865
96.303
93.6036
100.302
97.3314
98.4313
96.5414
99.7387
100.403
101.447
98.2293
96.3093
94.232
94.3898
98.1971
125.629
96.6189
99.9941
93.2399
96.2119
94.9036
96.4895
92.2794
127.43
96.2402
127.765
96.3274
101.893
127.559
96.7111
93.3676
112.402
96.2784
97.3582
93.1394
96.4202
92.8637
91.8591
95.2493
96.3335
92.0431
96.4119
96.4077
99.3483
96.71
96.4081
96.7495
92.4168
90.5813
98.9395
108.104
105.962
91.8497
95.6192
96.4461
96.6689
93.1863
97.1338
94.0634
94.6238
96.4923
120.268
96.3432
93.2835
96.2216
125.346
96.2552
85.4788
93.6729
96.248
100.928
93.4707
96.9295
92.2057
97.3172
99.7516
100.273
96.0866
100.775
96.2225
96.1896
92.3459
96.3183
95.1535
93.327
97.3765
126.633
97.0143
55.4777
96.4093
95.3098
96.4272
99.9794
96.865
104.115
97.2701
95.0952
98.9129
106.199
87.6492
94.3887
96.366
97.6277
93.0398
94.9396
94.4245
100.112
96.3125
96.4616
122.09
115.98
94.4583
104.947
103.958
95.9416
95.7049
90.1809
96.4054
32.5334
100.373
96.3254
97.2896
125.531
125.8
97.0451
96.2728
94.0595
93.4393
92.4538
96.4897
93.1145
92.9791
93.9186
96.6322
92.8227
94.6062
96.6145
92.2534
92.9196
93.8908
97.0815
96.2913
92.1276
94.8305
89.0595
92.4579
95.6593
105.872
106.944
101.194
97.9448
99.9713
105.738
96.8114
93.1982
97.7796
107.445
102.599
96.1607
94.388
118.022
95.5103
120.063
94.3372
91.4243
105.44
92.4038
118.514
108.811
95.6008
91.8307
100.246
114.619
96.4429
96.0219
96.1885
55.4986
96.3143
96.3667
91.9496
95.3454
96.6576
100.701
95.64
118.807
96.4384
93.1236
103.331
95.4888
88.3712
96.3118
96.6833
96.5583
91.154
125.323
126.848
92.5981
100.163
96.2464
96.5427
94.5742
88.2714
106.646
128.085
117.597
100.63
94.4516
96.1183
98.2877
94.7076
99.9836
93.7815
90.8204
91.7763
96.6969
96.2248
78.3402
95.2007
53.7175
94.5747
96.2603
116.822
101.004
98.051
96.4179
99.5061
93.0342
97.0995
96.479
96.7645
94.9766
96.2593
92.3434
92.7473
98.1596
96.2851
96.4535
93.8121
91.3596
80.218
92.4066
121.108
99.3378
94.0802
97.1621
96.4034
111.743
92.3858
94.5499
94.0851
94.2977
127.014
51.2087
92.6593
96.01
96.491
85.8728
97.0055
94.4746
93.8215
95.4777
92.4416
93.0296
94.6433
93.8509
97.7039
96.9968
96.0276
99.9319
93.5916
96.7105
94.359
113.462
100.704
126.769
126.216
93.2095
96.7664
94.3942
97.112
127.537
93.0779
90.845
95.5275
96.6113
97.7709
96.2068
92.1923
95.1244
91.7956
96.4149
94.8503
95.6292
39.9557
92.078
35.8757
48.4783
92.9568
99.7681
96.7192
94.1747
97.3088
93.1546
94.5384
93.5925
96.6052
87.8687
106.374
105.544
95.1152
96.8902
89.3148
88.5888
94.3987
96.8241
94.6375
126.856
96.3487
93.5402
96.4386
96.6445
94.5767
115.313
96.9563
93.4732
92.154
96.2195
90.6735
92.544
95.8227
96.7062
100.031
93.689
132.439
126.47
96.1556
40.6515
127.099
96.3022
92.9092
96.5362
105.044
96.5536
96.2766
95.1416
92.3417
11.5465
100.741
95.5233
89.0441
112.451
55.7214
116.696
92.4477
94.9542
96.2685
94.7526
96.6972
92.3647
93.028
96.2507
92.6771
96.8093
96.6798
93.4245
92.3849
94.8825
96.2623
96.7226
92.4529
92.9791
96.5557
92.3699
93.8793
95.0953
96.2659
96.6214
96.9837
92.1406
93.5681
94.5191
96.7306
94.7272
92.3962
93.4247
96.2605
95.0307
96.2502
94.8582
96.6468
92.3826
96.2428
96.8518
94.5845
96.4057
93.4299
92.396
90.2975
89.9589
55.7094
96.6976
96.6434
104.27
94.8553
94.6734
96.4474
96.457
96.7614
96.3918
93.0694
94.8607
50.0962
91.7681
92.8794
93.119
96.4115
96.4055
96.7843
94.565
95.8391
94.4232
97.0959
92.7352
92.0557
96.8623
125.732
95.3374
94.1649
94.0375
90.9587
46.6134
96.4886
91.3135
94.2221
108.834
97.6966
92.8298
92.6231
94.6038
121.817
94.7583
93.0022
92.7873
95.3108
99.5115
98.7758
12.3625
96.5698
94.1966
96.4293
96.8498
95.7772
96.4226
141.766
96.353
96.2243
96.6733
93.0067
92.346
94.7735
92.8424
96.7657
96.3201
94.622
96.7813
92.4127
93.4258
96.4795
92.3448
94.5607
92.376
93.5369
96.2635
96.6281
95.0087
95.0023
92.5169
96.2647
102.725
91.574
127.948
111.687
93.8599
99.5112
94.2825
96.3802
121.643
94.9063
94.4021
131.597
96.3035
93.8125
96.7137
96.4912
120.028
95.0598
75.3818
94.2577
97.9084
96.4254
97.9359
100.437
96.4112
98.2743
100.247
96.0796
97.0731
92.8884
96.6354
95.8309
96.4536
95.5947
89.769
97.1793
93.7596
96.524
93.9368
94.6726
96.5897
96.446
94.8693
96.7369
96.7803
97.599
96.5361
94.9411
100.451
94.9101
89.1192
95.4196
93.0476
83.3447
96.7285
100.092
109.151
95.4898
124.508
92.017
96.4658
97.7298
93.0567
97.9489
100.366
96.559
96.8991
93.4188
93.1167
96.1424
94.7674
94.5909
96.6678
94.5475
93.2672
96.3769
96.7953
94.3952
98.484
96.7768
97.7394
89.4316
95.3713
97.6001
97.2994
96.5501
91.1704
96.4792
92.3573
95.9638
96.5525
118.567
95.5787
91.873
92.6889
94.516
94.5415
96.1881
96.8251
93.0097
94.696
97.5152
115.2
94.9325
97.2418
97.9997
92.7138
121.042
120.407
93.6963
96.4427
92.1192
101.911
97.436
110.138
96.9358
144.315
92.8674
89.0097
106.94
117.673
89.9441
90.4983
93.3963
133.324
92.4383
110.806
92.2423
134.397
94.078
91.2572
30.3648
92.926
92.9549
94.6137
96.1927
94.6462
92.323
97.7102
94.6308
96.4059
92.4343
94.9628
94.5139
91.1662
91.4486
94.9131
91.3815
93.8405
96.5045
94.9146
95.8351
91.6606
92.0693
95.304
91.7219
96.5997
96.4706
96.8127
91.9465
91.397
92.7888
45.9041
91.334
94.8905
95.5617
90.4934
96.7137
96.3757
93.146
93.5186
96.274
96.8834
96.895
90.7282
93.3282
90.5681
90.3553
95.3788
89.9085
95.3527
93.4941
93.1984
92.2006
123.121
93.697
92.8867
97.2778
92.398
96.8509
90.5613
96.8803
89.816
97.2284
96.6613
92.7976
90.0006
95.4438
90.234
95.7283
96.8517
110.264
96.8617
90.3939
88.4661
91.5924
107.949
83.2153
96.8019
109.909
108.134
88.9493
84.2239
97.6808
97.1645
82.9412
106.485
112.498
96.7596
91.428
110.072
82.9145
109.083
97.0587
96.9913
97.2277
88.1136
92.2052
51.5216
96.9325
91.4327
91.9919
96.8152
88.0394
97.7141
92.262
107.954
106.59
90.331
51.2604
82.518
97.2349
82.6617
96.7236
91.3745
90.1806
97.5463
109.681
92.7206
50.6906
90.2305
91.3256
97.4868
82.6785
47.3419
97.3601
148.514
83.3669
92.6649
90.2432
91.2325
97.4155
94.0594
106.546
88.1916
83.6199
47.0296
46.9779
92.0304
90.5134
92.838
93.2333
92.9315
97.0543
98.0092
87.3539
94.5847
92.2826
96.4374
126.348
90.015
92.7214
93.2476
90.1453
92.9083
96.9765
94.8757
95.6529
92.263
95.2891
94.8025
96.2999
96.7301
90.3364
91.5131
97.4365
94.0795
92.8185
92.6979
97.2229
97.2249
91.7766
90.3468
95.6462
93.1512
96.7877
94.2531
88.3885
106.705
95.0088
90.096
95.3253
93.0767
97.1952
97.2586
91.9006
96.4686
97.2416
97.2588
90.8733
93.1352
94.3193
46.2818
97.2233
94.0848
96.6731
97.2183
93.0393
93.2615
92.5169
97.1978
96.2098
97.2383
97.1804
96.796
93.1719
93.3183
97.3211
93.359
97.1849
96.371
97.0517
97.1456
93.3409
93.267
93.2811
97.4589
97.1977
95.5195
96.7834
93.3225
95.3419
95.1472
96.296
92.3211
94.5498
97.1109
88.5619
93.8295
106.78
90.5941
95.2654
95.3509
97.224
97.1765
126.605
86.5717
90.8476
94.0579
97.2532
92.2412
91.9678
96.69
90.487
97.236
98.2239
97.1758
44.7295
118.615
96.9022
93.4516
91.2421
97.4834
92.3122
94.5102
96.1977
126.827
91.0657
94.1588
92.7672
98.3676
92.2821
94.5321
96.1505
107.735
89.5632
92.6895
127.036
87.537
91.2084
94.1296
92.0623
42.7696
118.473
96.4578
90.8769
93.0787
92.4449
97.572
93.9811
96.3039
87.5897
89.3997
98.4192
92.2896
94.5525
96.1536
93.1006
92.3226
96.8896
126.888
88.1979
96.6413
43.0448
48.0314
92.959
118.5
91.7645
95.3769
92.6573
93.1282
97.5201
97.665
92.2229
88.1463
98.4026
94.3324
91.7141
109.958
92.1538
116.607
91.1337
94.0497
96.2505
95.7844
95.7771
92.1336
92.3297
91.7872
91.8059
96.2074
91.165
92.0547
95.5625
88.235
98.4297
92.277
94.6256
96.138
91.3
109.802
92.5826
127.061
91.5475
91.3054
92.9042
91.115
93.9993
93.5583
93.5185
96.6854
46.0444
93.1316
102.627
93.0669
98.296
118.459
97.9327
96.3928
96.7319
93.5535
93.6541
91.3091
93.0332
90.3037
97.0285
97.6187
93.1725
102.453
95.2466
96.1851
93.1919
91.267
91.5938
92.7945
96.4767
96.0942
98.4409
92.3279
94.7561
96.1986
93.755
94.8349
94.9132
96.4389
96.9192
97.5871
121.343
96.4963
96.0895
91.0767
93.9184
93.3161
96.7293
42.049
93.2439
96.5216
95.8009
97.86
99.1249
91.5197
92.4085
98.2932
92.6386
95.785
92.5217
90.6554
94.4952
100.533
97.1936
97.3492
97.2316
97.367
92.4817
91.9212
92.2727
96.3181
91.3334
93.4049
94.2877
93.7923
92.3476
97.6238
97.3143
127.796
97.1685
97.1869
86.9938
90.6415
92.1162
91.844
89.0993
98.6004
92.7345
92.5692
92.6018
91.6111
97.2976
92.2929
94.7586
96.1811
97.1988
97.193
97.175
93.2534
111.881
92.8758
97.3584
96.0754
93.0962
96.218
93.2127
94.0161
95.8859
94.2339
96.137
91.7365
101.16
91.4626
92.9508
100.1
96.7089
120.726
95.8866
96.4635
93.276
127.178
93.6281
91.1143
93.896
94.7835
87.8152
93.3563
92.3163
96.6857
96.7116
91.5985
92.111
93.5585
92.1331
94.5845
96.1585
126.044
93.182
93.1822
96.2345
96.5926
94.2605
97.2179
97.2764
92.9609
91.2326
95.9938
98.4362
97.17
96.2595
93.7828
90.9578
96.115
93.2464
92.0286
95.6882
92.3011
92.5692
96.0936
118.466
119.347
96.6882
92.2521
96.0347
92.0015
118.731
95.9871
93.1602
97.1538
93.2599
119.65
92.6542
95.9791
89.5135
91.1468
92.4495
93.1847
97.8769
97.2638
92.2738
97.6005
91.5664
98.331
92.4839
96.3396
126.875
92.6685
97.1767
93.8105
92.9884
93.9073
92.9282
96.6232
94.516
95.9104
93.0463
92.6932
91.9117
91.7238
99.9286
92.8637
97.6111
94.2423
95.012
96.0009
93.1306
92.3439
94.9065
96.226
94.9518
83.0995
92.2349
92.2415
96.2371
95.4934
90.436
84.3677
95.6186
97.9517
96.6246
94.82
92.7247
99.2847
93.1604
95.7178
93.1929
93.1107
96.8331
92.0015
104.107
97.3221
130.053
92.1693
92.6505
94.8012
96.9758
93.0808
97.7486
92.5887
94.3276
92.9418
121.464
92.3136
111.283
93.6866
96.6464
97.046
90.775
92.5851
94.7861
108.089
92.9701
98.2717
103.689
108.772
96.8378
95.7184
93.1237
92.4196
94.5691
96.4829
127.288
88.6872
92.6406
88.2562
93.9802
53.7597
97.0153
90.9431
93.8195
92.7484
97.1885
91.891
83.8592
94.9142
96.5268
93.2326
96.6886
96.7116
93.7847
96.4634
93.4856
90.8688
45.8062
93.2181
95.9998
113.002
94.0419
84.5466
97.6685
38.5689
105.062
95.9023
97.4301
95.3046
95.1874
126.756
93.3322
92.4947
96.5473
134.539
94.7876
92.5083
96.4327
96.0747
92.9726
96.7233
96.3078
97.3189
94.3951
95.5852
93.0001
119.687
90.6021
92.8576
91.9349
96.3884
94.8415
96.9398
97.3835
96.0281
96.3154
93.4404
138.689
97.5999
93.1657
93.3274
92.6301
93.5353
93.0851
125.604
97.4381
92.4871
97.5102
96.7685
72.1115
126.162
97.3493
97.4626
96.8198
97.406
101.91
97.217
93.2644
92.0294
99.9953
91.1283
93.0057
92.4215
96.6505
95.2374
102.434
93.0848
92.7228
93.3614
87.7989
92.6403
92.396
95.2495
92.9968
96.7076
93.4638
96.8309
96.5688
96.0436
98.2628
93.363
93.3315
96.0862
91.7732
96.1515
93.8031
103.251
94.0648
90.9198
96.3584
94.2066
91.9568
97.6127
97.7966
98.8092
99.8703
92.3849
94.9451
96.2286
78.9524
93.2601
95.1288
97.6659
91.5703
114.801
93.5327
90.5982
92.5991
104.026
91.4106
93.854
91.9581
95.2512
96.6343
91.6409
113.229
90.5321
93.0286
92.9662
91.8045
93.0627
95.8786
96.9507
93.0661
94.2602
91.7542
111.982
96.4493
97.3217
96.8936
92.3124
94.9141
96.2235
92.3928
96.4335
92.5564
96.8751
96.667
96.197
92.6183
95.8047
93.0062
91.6347
92.6481
94.0748
96.591
96.8092
97.0445
95.2934
94.5774
92.347
95.0166
96.2347
134.549
109.891
93.0669
93.473
102.603
110.89
110.409
96.1274
97.9389
96.2127
92.9294
96.8808
96.8518
97.7476
126.418
93.0573
96.9476
92.8105
90.0807
108.399
96.5571
94.7882
95.3447
91.6066
96.5753
92.9322
95.3409
90.7652
49.5531
73.0007
96.6535
90.9261
95.4501
91.0167
98.4516
97.1592
103.056
97.5998
118.112
93.1401
96.1659
93.9797
97.6639
95.025
96.751
92.7862
93.0537
92.3226
100.81
96.7997
96.217
94.6602
125.638
96.6144
92.5801
86.3975
94.8816
125.738
126.715
96.7376
93.263
95.1242
96.1907
92.0709
92.3737
20.9827
96.0295
121.148
86.903
97.7744
96.5477
94.8417
125.426
90.0459
92.3182
95.0507
96.2555
97.3617
116.884
95.9659
90.7435
96.4064
95.063
96.7214
96.0168
95.1599
93.0788
99.859
126.038
105.261
97.4253
97.798
95.668
93.1181
92.778
96.4365
96.2348
94.0602
96.4885
97.0023
96.6244
96.673
96.1269
119.614
95.4777
96.5276
99.8534
92.4778
44.0671
93.094
95.7798
92.3158
95.0307
96.2432
107.357
96.0676
92.7155
91.6071
94.505
96.3791
96.2731
97.1681
96.8256
96.4546
96.1619
93.113
94.5237
95.7266
94.6294
96.3355
92.6981
92.4932
93.5837
96.8334
97.9058
96.1461
93.413
96.1685
99.901
96.7597
94.9555
92.9981
119.478
121.251
91.9972
96.5959
96.6204
97.0668
97.4688
92.5544
93.9339
93.9281
97.5515
96.7367
102.737
97.8145
92.4961
93.0118
97.0896
94.1348
96.4804
88.7285
97.6264
92.8544
112.682
96.2899
92.5633
96.4488
96.6349
92.6838
91.1305
92.7237
95.6899
92.3438
96.0707
97.6124
83.3537
102.28
97.035
95.3731
98.1385
93.1076
97.351
95.3616
93.077
100.177
99.9122
97.5433
92.7884
97.812
96.5206
95.3108
93.063
96.5987
92.5465
96.3743
95.1139
96.2368
96.4108
97.3526
96.2713
93.1546
93.625
100.464
92.215
95.1837
96.3601
97.0946
97.6407
96.4023
93.1108
97.672
93.0302
95.4903
94.2228
126.178
90.5666
38.4392
94.3875
94.7697
92.9063
93.9017
92.9871
95.1005
96.247
96.6857
95.1286
96.2012
100.09
94.4983
117.545
96.4425
96.2684
93.1673
92.6198
118.351
95.3166
96.3791
96.7266
95.4678
117.743
91.4873
93.9918
95.9004
91.8822
127.614
98.8698
91.8749
96.7657
108.388
83.3045
94.4558
92.7472
96.7523
96.443
92.6667
92.2044
95.1911
96.3878
93.0044
96.3894
92.6216
92.1958
93.5462
97.189
96.8736
94.6547
92.7368
93.439
96.3332
96.3305
96.5021
92.4918
92.9757
94.8145
98.0282
89.5071
96.6015
116.65
92.5012
94.9564
91.9639
35.2745
94.0239
123.074
96.8683
92.497
93.1092
95.8355
97.3904
96.1958
92.7538
96.4968
94.7046
96.3433
96.8065
119.049
95.4654
88.5944
96.3989
94.2766
128.047
96.399
91.5436
96.9039
94.7825
93.1834
97.7654
97.3924
95.5354
92.2696
95.0953
96.2306
95.0585
92.551
96.243
96.7689
95.8384
84.1219
91.5989
90.9048
93.8332
56.1973
100.199
108.91
93.8547
92.5347
126.208
69.5362
112.608
97.5495
92.2924
95.0856
96.2201
97.7288
104.11
92.0817
94.5806
96.1607
96.438
98.3151
120.198
131.607
90.2115
112.216
98.4635
125.443
96.0851
92.9853
95.3412
94.7525
90.6041
97.6979
111.698
97.2678
96.3601
96.9397
96.5712
126.043
93.2061
113.125
93.9162
93.393
93.9204
91.1151
97.403
97.1167
94.7935
92.3024
96.1771
96.7629
93.1406
96.4124
92.9162
95.7785
92.584
97.4446
94.4255
100.839
39.3414
125.646
96.3657
96.6916
96.6999
97.2995
96.5893
95.1192
92.9055
95.9517
97.6344
93.0189
93.785
110.994
94.1166
90.2162
109.927
94.1649
96.2283
96.7279
100.675
34.2472
93.9498
88.0358
106.433
92.7963
94.5053
101.624
99.7521
94.5041
92.248
96.029
92.1595
127.828
96.4428
93.2489
96.4257
101.267
43.0361
93.577
97.067
93.0843
97.6835
92.7084
90.433
96.453
110.035
93.6942
96.4124
97.072
117.754
95.4702
96.6851
93.9204
94.3388
96.3061
94.0906
96.4463
96.4086
96.4566
95.3229
109.492
95.1201
108.887
91.7847
93.3896
95.6331
93.0061
127.437
97.0836
96.7795
103.13
113.57
94.7929
93.5574
93.2599
96.1623
94.1762
91.8018
124.868
93.1541
95.3616
96.6794
93.3228
94.8809
124.183
125.425
95.5548
92.8602
96.2142
96.34
96.2862
93.2065
91.2433
94.7116
96.126
96.111
96.6671
96.7643
96.4651
79.9326
92.495
125.254
95.3186
94.5384
97.5609
93.0023
92.7802
119.856
96.5208
96.2394
117.997
96.0663
114.807
108.794
96.2426
124.701
97.7135
125.487
95.1067
96.1691
93.9547
102.481
94.7235
106.304
90.0947
101.339
27.4866
96.647
123.835
92.2207
104.851
92.0159
105.926
94.8933
124.482
125.349
94.4077
110.225
94.5381
91.8994
95.2534
96.4821
92.6565
97.5472
106.442
96.4663
108.235
106.698
96.1799
96.2183
93.635
126.682
91.3329
92.6324
96.4948
99.9874
96.8502
100.228
100.594
96.6093
110.034
94.0785
97.294
91.5796
91.0132
96.4411
108.443
125.809
96.1333
113.528
105.06
90.3154
96.6307
96.6186
96.7416
96.2694
96.7293
125.54
99.6583
91.1494
95.043
90.9025
113.31
90.7823
95.6113
94.2546
91.576
92.0741
97.1494
94.1176
92.8151
97.408
93.1012
95.3873
96.9159
94.6806
96.4544
112.011
102.038
94.6212
96.7252
96.7503
94.5413
107.497
92.3302
95.1416
93.9783
96.6476
93.8545
90.9238
91.5261
48.432
95.4874
96.4101
100.517
94.9877
92.3594
96.2509
125.216
97.7102
118.274
96.1786
96.7674
83.7102
92.9173
96.6764
98.3738
95.0677
103.905
94.1263
112.993
93.9605
95.1171
96.2513
92.9357
97.9008
93.0092
55.8133
54.7959
92.9569
97.9585
92.8325
93.8617
96.2262
95.1642
91.8245
96.7719
95.5351
92.2189
91.705
91.6626
92.7906
90.8347
93.9797
127.795
92.6364
94.8183
89.3651
93.3291
105.885
97.6157
93.2368
95.0763
94.451
114.574
95.162
94.0584
95.0689
90.5608
44.692
95.0211
96.7017
109.112
126.181
96.7605
94.6788
96.4784
95.2475
94.6982
93.8017
96.0524
94.4706
96.5919
93.3953
94.8616
92.3181
96.2048
92.7055
96.5663
93.0904
110.729
95.2653
92.4262
97.5727
96.1756
93.9318
94.0673
96.2594
106.401
88.0066
93.7549
92.2763
95.6661
97.2449
93.3578
91.1669
90.2461
102.194
98.3426
113.029
122.626
143.225
95.0196
94.5745
128.028
90.8391
96.3735
97.299
122.493
97.1082
99.3204
10.179
100.336
94.6852
94.7591
96.1856
95.0599
96.2652
92.3837
95.9383
95.1264
88.3848
97.0566
94.3073
99.4099
93.242
127.521
92.5005
113.208
90.6045
95.8078
92.2467
95.0686
96.2497
96.0735
89.9228
95.3137
92.6314
94.0641
34.425
114.984
94.3676
95.9094
97.082
96.3799
91.6444
97.0103
97.5656
88.5227
97.3436
97.2748
96.5608
97.3557
95.1092
92.2979
93.103
96.7601
91.9452
119.14
96.1886
94.4131
96.5296
95.8263
100.712
107.296
97.6582
99.5265
94.6191
90.8014
93.8122
95.6311
90.3303
95.5212
97.1358
94.1985
92.5421
95.8861
127.652
95.1212
96.227
127.151
97.2398
94.5194
96.9438
82.5215
101.434
101.203
96.3842
98.6302
96.411
98.7506
98.8834
102.146
100.294
97.7445
97.5029
93.5553
96.5424
93.3114
105.043
96.4588
98.0661
96.6038
92.9211
92.7615
100.929
97.6704
97.3827
92.2059
95.7724
96.6182
92.5069
96.2053
96.8151
98.6126
49.5059
92.1642
95.1063
96.2408
92.5246
96.8355
94.7728
92.3025
96.1634
95.077
92.3692
96.2595
124.157
96.9791
96.6604
94.1999
94.3183
92.9973
99.6498
91.9681
93.2377
95.7235
92.1229
94.7416
96.1644
95.2234
115.849
112.694
94.0301
92.7397
94.1616
96.7279
96.6095
96.6436
91.9034
126.217
101.374
90.4895
116.999
95.947
93.9353
90.816
97.3572
97.5853
82.4801
96.4018
101.861
91.2242
95.6216
94.5935
98.6276
94.7181
87.6233
129.726
92.2133
94.9696
97.0717
96.3738
96.3109
115.274
125.011
97.4601
98.0875
91.5565
110.363
93.5107
90.5883
97.0124
96.5099
92.2738
92.0556
96.1546
90.705
92.7267
96.3914
93.4492
87.9728
106.407
96.6695
96.6668
92.1596
94.1971
91.1527
102.49
94.6412
91.2176
95.8221
92.7849
96.736
96.3679
99.9373
92.9733
18.0107
98.289
92.664
92.2107
95.6938
92.3368
96.6729
90.3587
97.0662
94.8317
96.3461
96.4788
97.5616
124.282
94.0337
126.036
96.3594
92.9778
96.3066
96.7898
94.2591
92.26
53.0459
118.381
100.146
96.4026
93.9743
92.5406
84.728
88.4318
94.4714
95.7594
100.194
99.8394
93.7084
94.7698
45.1326
96.2242
92.3487
95.0829
93.7398
90.7403
93.0557
96.1183
92.3954
51.8823
95.6944
92.6776
93.6655
96.2334
94.3646
91.5255
91.1033
96.195
98.5498
110.651
96.0256
95.5002
95.4217
96.2512
90.8171
90.8566
96.6725
128.001
118.975
97.738
82.5052
93.1474
95.0848
92.3585
96.2464
97.7246
118.229
95.7158
101.21
93.8972
94.7679
92.6453
95.8595
100.202
92.7802
112.859
94.6262
90.4979
94.6544
96.1199
127.668
96.6653
91.7615
91.4732
97.5783
96.0707
87.4518
43.5151
109.354
92.503
96.9253
90.9099
93.0741
95.9716
92.164
95.3888
96.4024
96.256
96.2891
95.192
127.191
94.4988
94.0564
94.0223
97.3038
51.7018
92.6262
91.4256
110.957
94.4784
97.9632
97.2355
100.106
91.5231
96.2182
95.1491
91.8651
96.5432
92.546
91.0315
125.205
96.8057
97.8453
96.2408
94.6288
92.1249
90.3359
98.2846
98.135
91.3748
95.9006
97.1785
100.414
94.2954
96.3285
117.038
68.1098
98.157
53.6184
96.3413
92.8318
85.7785
84.4517
95.9398
97.8966
77.4304
97.3155
119.086
95.2247
90.137
113.147
124.261
117.159
98.4302
97.3818
95.1203
93.2826
90.5355
83.4221
90.4779
92.45
97.575
107.699
107.287
101.868
90.75
97.026
90.9794
100.337
96.5945
96.1569
94.4681
96.0322
94.3705
125.139
90.4203
90.4711
90.6007
100.43
91.1009
92.9631
90.0555
96.7576
94.7289
92.2764
96.1552
94.1646
90.8515
97.9242
93.3695
95.7182
87.6492
91.7426
93.1347
93.1598
95.0328
108.441
96.8656
93.3068
93.4317
96.8913
114.135
122.19
97.0015
96.0983
116.299
93.9683
102.037
96.49
94.3511
94.5766
96.1095
95.3145
96.6776
97.1721
93.5489
96.7186
96.7827
126.704
98.0666
96.0553
95.0828
96.365
92.962
96.2519
87.1036
93.66
96.2363
99.7565
121.179
93.1298
91.4374
93.7012
90.607
97.647
93.3977
97.5085
97.2325
97.402
96.7302
93.3796
96.8275
51.0834
92.927
125.737
97.6266
97.1507
97.2286
123.733
93.1099
52.4376
100.491
96.5657
96.6675
96.72
96.1258
96.4077
95.2809
92.0502
96.7174
91.6585
95.2549
96.2905
93.1779
97.4538
100.546
126.352
97.2105
94.18
94.3226
96.8742
96.5884
92.8053
106.986
88.3882
92.8664
99.9208
93.3173
98.3787
93.7417
99.94
118.658
96.1157
97.1809
96.9475
91.1303
127.727
89.4006
96.6933
89.707
91.0566
96.1394
97.065
97.0262
126.299
101.741
96.2758
95.2238
91.7794
100.331
96.3976
93.6437
90.5905
97.4529
96.1304
94.6356
45.2421
96.417
93.548
110.835
127.558
92.71
94.7613
95.9944
125.741
95.0785
98.4636
92.8336
36.3368
57.5175
97.4994
47.7685
96.3173
35.3336
91.453
111.065
93.1299
92.3247
96.5308
96.5109
96.4749
96.4921
95.591
95.4943
95.6897
95.7875
96.5541
95.8901
63.401
96.477
96.099
95.4115
95.7157
56.7305
96.8371
94.3316
92.3883
94.4158
93.4726
91.572
69.2604
49.2991
91.1484
78.9207
74.1941
91.3623
96.9069
92.9301
93.757
93.3119
92.6858
93.4556
96.0029
94.1272
95.1176
96.5794
93.5322
93.0382
94.1888
93.0127
94.3299
95.8641
112.563
113.797
96.6744
97.5162
94.8035
91.7876
93.8183
99.7232
112.272
116.489
105.516
102.666