/*--------------------------------*- C++ -*----------------------------------*\
| =========                 |                                                 |
| \\      /  F ield         | OpenFOAM: The Open Source CFD Toolbox           |
|  \\    /   O peration     | Version:  v1912                                 |
|   \\  /    A nd           | Website:  www.openfoam.com                      |
|    \\/     M anipulation  |                                                 |
\*---------------------------------------------------------------------------*/
FoamFile
{
    version     2.0;
    format      ascii;
    class       volScalarField;
    location    "0.26";
    object      k;
}
// * * * * * * * * * * * * * * * * * * * * * * * * * * * * * * * * * * * * * //

dimensions      [0 2 -2 0 0 0 0];


internalField   nonuniform List<scalar> 
1431
(
0.74552
0.350379
2.31503
1.1213
0.453561
0.313998
1.55073
0.196724
0.473062
0.808706
0.400918
0.452363
0.48591
0.901563
0.734226
0.263988
0.986577
0.315112
0.0496267
0.436643
0.288756
0.566188
0.422009
0.977454
0.92463
0.473028
0.978948
0.832073
0.498262
0.309417
0.78193
0.324649
0.865917
0.395332
0.768214
1.57819
0.593569
0.315701
0.51955
0.30815
1.79648
0.0915818
0.606092
1.51654
1.66749
0.342806
1.4406
0.208833
0.382139
0.399609
0.26339
0.875832
0.52363
0.826913
1.43097
0.202687
1.1695
0.505169
0.78994
0.194888
1.83601
0.378206
1.83856
0.292357
0.589166
0.475848
2.07536
0.291937
0.318524
0.322667
0.360229
0.854418
0.386336
0.389104
0.47432
0.6761
0.456375
1.90251
0.224078
1.4189
0.269516
0.238028
0.308531
1.81892
1.58778
0.565541
0.537401
0.481814
1.06241
0.519115
0.394185
0.557677
0.527286
0.315353
0.251349
0.396147
0.621978
0.262795
0.338517
0.54364
0.339259
0.223779
0.516723
0.44615
0.5727
0.812379
0.240158
2.12861
1.07072
0.444303
1.6826
0.517059
0.216305
0.491731
0.510627
0.390194
0.29798
0.640533
1.16139
1.27183
0.296185
0.469973
1.06064
0.80992
0.2936
0.556074
1.28241
0.451235
0.539907
0.48724
0.386641
1.88986
0.746179
0.500293
0.557814
0.691002
0.405335
0.533789
0.389457
1.9604
0.228937
0.112091
0.289801
0.397681
0.456637
0.373723
0.266233
2.17214
0.425489
0.326102
0.506539
0.63196
0.337904
0.259995
0.248226
0.550313
0.283171
0.459787
0.20807
0.242989
0.306089
0.455653
0.499672
0.478947
0.476279
2.25941
0.491098
0.307636
0.283484
0.600439
0.575583
0.527545
0.755194
0.385611
0.282697
0.249812
0.182329
0.500737
0.31917
0.211419
0.316518
1.30969
0.208627
0.559679
0.348455
0.35375
0.233009
0.80771
0.505578
0.299301
0.4624
2.51052
0.341515
0.25423
0.375561
0.280107
0.234337
0.27004
0.332661
0.286384
0.284096
0.740806
0.292443
1.90414
0.246311
1.24215
0.593274
0.305121
0.379246
0.476474
0.264301
0.215748
1.0442
0.299678
1.45336
0.514162
0.200962
0.531114
0.709681
0.3043
0.29182
1.33182
0.430581
2.4605
0.318526
0.534399
0.473334
0.545006
0.399015
0.816528
0.619198
0.677661
0.302308
0.201286
0.196733
0.20476
0.286232
0.586455
0.274498
0.427764
0.311382
0.264482
0.648681
2.59013
0.667815
0.568514
0.309269
0.926197
0.649757
0.49982
0.256574
0.564795
0.761665
0.644121
1.79641
0.669767
0.17551
0.397461
0.626837
0.650747
0.683464
0.502108
0.397192
0.398138
0.19872
0.391979
0.57911
0.256312
0.518039
0.622839
0.244978
0.437052
0.258344
0.25931
0.700231
0.275014
0.45613
0.718583
0.510222
0.896947
0.416307
0.448807
0.439685
0.450473
0.607008
0.823579
0.615824
0.190472
0.449178
0.292509
0.391671
0.335275
0.191317
0.399967
0.274799
0.217596
0.324942
0.265607
0.393262
0.227163
0.322806
0.48087
0.31275
0.218516
0.401202
0.372925
0.281642
0.658923
0.637295
0.0817897
0.304584
0.337477
1.62653
0.13891
0.289156
0.360081
0.666356
0.556519
0.19789
0.288275
0.383925
0.262938
0.213509
0.45634
0.648489
0.272488
0.25741
0.31049
1.08838
0.293946
0.770821
0.529983
0.407808
0.44111
0.277921
0.601124
0.286033
0.209575
0.274172
0.565714
0.2755
0.263622
0.247968
0.436644
1.38457
0.2683
0.32327
0.337635
0.0311966
0.0340384
0.251736
0.257488
0.362179
0.171549
0.380012
0.188113
0.285692
0.318261
0.188158
0.339807
0.220782
0.412349
0.164817
0.0294674
0.0360582
0.291023
0.159349
0.358297
1.01004
1.19139
0.337039
0.394334
0.300613
0.310103
0.433619
1.36565
0.63112
0.327931
0.362151
0.20817
0.307378
0.252244
0.0409933
0.326633
0.398726
0.160069
0.36945
0.351142
0.179312
0.0295147
0.370771
1.95743
0.410996
0.362255
0.322103
0.416336
0.128249
0.315586
0.320201
0.279557
0.295006
0.551763
0.307986
0.268667
0.664605
0.34282
0.606341
0.250717
0.0985144
0.985713
0.617497
0.405963
0.594013
1.50591
0.42449
0.851632
0.432107
0.672948
0.51143
0.0815755
0.501572
0.342985
0.344831
0.285018
0.407925
0.441442
0.271549
0.394251
2.36083
0.34264
1.84413
0.297457
0.254645
0.453625
0.475232
0.384537
0.331728
0.433537
0.356288
0.824333
1.3732
0.156752
0.46557
0.451718
0.258552
0.517352
0.576947
0.450174
0.581571
0.449778
0.476199
0.34172
0.553385
0.37276
0.30263
0.333239
0.326124
0.335276
0.314051
0.503256
1.93644
0.122777
0.598808
0.491478
0.524654
0.545939
0.10719
1.61144
0.602835
0.437472
1.52262
0.345687
0.213141
0.897832
0.671219
0.407041
2.0542
2.27352
2.77225
0.270634
0.394693
0.321716
0.932616
0.207678
0.287928
1.09307
0.55416
0.313949
0.255209
0.468459
0.362414
0.130321
0.511709
2.68664
0.183272
0.303039
0.728828
0.47433
0.325237
0.473199
0.637303
1.22886
0.38083
0.313496
0.287854
0.498355
0.406451
0.331571
0.208148
0.1219
0.119453
0.48317
0.232298
0.838412
0.315649
0.217091
2.81728
0.925928
0.262032
0.647192
0.5564
0.493724
0.503302
0.08977
0.420864
0.268569
0.402297
0.225849
0.498335
0.450316
0.288414
0.224543
0.434454
0.491333
0.303311
0.239641
0.333009
0.441689
0.521751
1.43016
0.273916
2.24092
0.457387
0.965769
0.239735
0.297529
0.417275
0.217303
0.3379
0.520328
0.47654
0.156848
0.620019
0.235504
0.429596
0.571599
0.311821
0.604101
0.615903
0.193588
0.499086
0.311044
0.342711
1.94822
1.13587
0.0490051
0.463783
0.199199
1.57061
0.262963
0.319054
0.310961
1.64419
0.282584
2.52291
0.421203
0.381223
0.387954
0.272572
0.541112
0.292709
0.223329
0.509309
0.401169
0.345124
0.420122
0.417029
0.331931
0.248287
0.390934
1.04825
0.609845
0.359641
0.311609
0.290766
0.356185
0.0518492
0.470512
0.202029
0.170966
0.442257
0.333953
0.418932
0.401248
0.362172
0.292686
0.42342
0.517687
0.265821
1.78544
1.37527
0.50355
0.07386
0.405514
1.6168
0.203469
0.600166
0.367083
0.349513
0.299832
0.545637
0.42502
0.377943
0.450378
0.508059
0.314718
0.546458
0.0463767
0.347746
0.229915
0.298759
0.418871
0.254288
0.238389
0.419767
0.259415
0.43564
0.195037
0.631535
0.460866
0.36923
0.328936
0.247151
0.474521
0.608451
0.312385
0.314648
0.611021
0.829541
0.48799
0.622285
0.316688
0.275857
0.684579
0.672351
0.265146
0.256797
0.332171
0.467683
0.344269
0.363859
0.0624043
0.455699
0.425444
0.282742
0.205226
0.35909
0.337092
0.279491
1.34374
0.045926
0.264322
0.425888
0.457888
0.29254
0.286793
0.628002
1.25441
0.505812
0.58737
1.23745
0.158522
0.524599
0.567961
0.467581
0.30234
0.351826
0.292221
1.02435
0.133505
1.04015
0.384819
0.294326
0.621605
0.431346
0.447809
0.0296265
0.370557
0.27255
0.197665
0.33254
0.487431
0.186914
0.463054
0.449825
0.822506
0.6658
0.400282
0.36277
1.93512
0.323217
0.0671982
0.556599
0.426595
0.369445
0.421413
0.362333
0.356262
0.201422
0.445292
0.413625
0.299419
0.218307
1.17297
0.662225
0.427549
0.591908
0.479443
0.478339
0.282358
0.246999
0.253844
0.477496
0.483974
1.14729
0.189012
0.418689
0.714302
0.554591
0.438867
0.289993
0.670282
0.327065
0.329681
0.593111
0.404722
0.21335
0.417509
0.67251
0.362504
0.577376
0.190438
0.495329
0.523073
0.432813
0.403779
0.350118
0.520507
0.423349
1.43304
0.238505
0.805103
1.08963
1.16441
0.307874
0.543993
0.118552
1.14387
0.613584
0.508633
0.615266
2.70313
0.0519617
0.780362
0.162029
0.573578
0.0933023
1.59384
0.458415
0.438701
0.34992
0.185728
0.53871
0.330908
0.0581075
3.18704
0.0611186
0.806262
0.395111
1.6247
0.430929
0.19153
0.893244
0.74388
0.362674
0.309656
0.0491119
0.74862
1.75524
0.230596
0.486624
0.321933
0.207978
0.557495
0.0302448
0.368326
1.37831
0.281057
0.642088
0.509616
0.280684
0.23512
0.646884
0.0511594
1.29432
0.537536
0.527514
0.518882
0.528055
0.503077
0.508685
0.509121
0.555493
0.295149
0.193715
0.385015
0.377697
0.309934
0.602153
0.0516917
0.397285
0.0678627
0.764286
0.0564669
0.526591
0.584645
0.451441
0.623718
0.275843
0.452298
0.19403
0.239842
0.262146
0.5058
1.5414
0.219289
0.573919
0.359214
0.253726
0.237245
0.369086
0.342225
0.364699
0.02929
1.10936
0.36838
0.913132
0.609572
0.320643
0.346501
0.225142
0.433188
0.651722
0.441538
0.593198
0.617282
0.216393
0.20454
0.0464134
0.69849
0.289757
1.22117
0.347536
0.363915
0.0867432
0.2591
0.762313
1.36648
0.504258
0.248256
0.169869
0.516137
0.506377
0.0753893
0.292804
0.772016
0.375138
1.91887
1.75248
0.298397
0.449318
0.956634
0.429586
0.269707
0.597803
2.37007
0.079509
0.819419
0.328479
0.440262
0.3052
0.295534
0.33824
0.261618
0.816325
0.738557
0.487791
0.630429
0.0979572
0.0307991
0.390455
0.223149
0.459171
0.261693
0.318138
0.635719
0.854898
0.358588
0.676386
0.571391
0.421417
0.219633
0.424034
0.233171
0.211559
0.720012
0.560496
0.530143
0.532503
0.513141
0.330558
0.187499
0.444376
0.262536
0.324846
0.29721
0.219369
0.347828
0.368409
0.331218
0.0344879
0.245864
0.250581
0.386368
0.729066
0.181022
1.69361
0.44296
0.243293
0.529719
0.29245
0.269557
0.368894
0.477005
3.09919
0.756468
0.398694
0.37167
0.490049
0.485498
0.563872
0.570264
0.727502
0.235574
0.253902
0.478014
0.413481
0.841597
0.342588
1.2626
0.607613
0.288196
0.270777
0.621033
0.362599
0.229903
0.239922
0.453552
0.435724
0.431655
0.37302
0.399571
0.465145
0.501839
0.858314
0.657962
0.145587
2.73973
0.512628
0.635759
0.344824
0.252711
0.420753
0.345461
0.328077
0.830069
0.329445
0.65734
1.87581
0.433546
0.411814
0.608265
0.454658
0.717702
1.44914
0.198155
0.287355
1.65729
0.35044
0.416816
0.452639
0.470355
0.228248
0.260819
0.781032
0.747306
1.46123
0.159331
0.25363
0.27934
0.458686
0.465189
0.452877
1.46712
0.713669
0.777505
0.332935
0.385267
0.175982
1.94016
0.572753
0.490356
0.296038
2.23617
0.273597
0.20963
1.91092
0.316469
0.345328
0.533291
0.746556
0.453262
0.0464122
0.847563
0.381933
0.478726
1.81717
0.421965
0.188413
0.538076
0.707466
0.461088
0.433942
1.22695
0.711719
1.72207
0.345201
0.392597
0.33832
0.195356
0.352903
0.798671
0.349496
0.59502
0.206905
0.380746
0.451068
0.309354
0.327437
0.258741
0.481677
0.202267
0.460845
1.27369
0.244238
0.467969
0.15677
0.788165
0.353116
0.355105
0.297958
0.375298
0.389443
0.0542367
0.22978
0.32354
0.541126
0.779259
0.445964
0.36693
0.195
0.385007
0.317748
0.198308
0.507711
0.478654
0.432643
0.334494
0.597192
1.77672
1.66017
0.451965
0.550242
0.903025
0.149382
0.376911
0.464526
0.0488448
0.70694
0.635071
0.455291
0.554343
0.332872
0.677342
0.541195
0.894699
0.339595
0.477422
0.609376
0.25886
0.437193
0.290375
0.36667
0.403477
1.05644
0.495377
0.508217
0.139667
0.688812
1.27086
0.355987
0.0263459
0.756958
0.330091
0.0989459
0.489766
0.203419
0.616
0.385219
0.0554357
0.825632
0.498287
0.372234
0.737061
0.432039
0.20726
0.746732
0.158708
1.28544
0.259475
1.66617
0.0475922
0.863758
0.399462
0.716921
0.254546
0.409649
0.768676
0.500937
0.287507
1.32424
0.367236
0.0768829
0.712088
0.303623
0.902694
0.966184
0.0496117
0.858773
0.512091
0.336466
0.512729
0.418985
0.954942
0.60311
0.366323
0.202624
0.0271287
0.130627
0.304933
0.845194
1.9133
0.187909
0.403175
0.340818
0.634252
2.87483
0.319186
0.432483
0.0934577
0.593707
1.75466
0.544264
0.424797
0.656893
0.664699
0.797752
0.277615
0.394206
0.299758
0.420932
1.26081
0.475739
0.383714
0.480075
0.673386
0.346107
0.528423
0.427541
0.351678
0.359982
1.27001
0.235813
0.484648
0.380873
0.0652032
1.7481
0.221398
0.518658
1.29143
0.521733
0.252053
0.430848
0.155889
0.996093
0.189857
0.392757
0.246762
0.412118
0.344112
0.609277
1.55434
0.447558
0.985815
0.385224
0.621024
0.836782
0.528938
0.537299
0.323057
0.259247
2.19385
1.16953
0.570679
1.54953
0.306734
0.22082
0.443971
1.2503
0.272787
0.511305
0.506616
0.20187
0.260709
2.61565
0.533559
1.56631
0.462259
0.616975
0.398209
0.496163
0.370483
1.95269
0.457698
0.395507
0.340844
0.622799
1.5883
0.560532
0.542331
0.397809
0.6643
0.0642801
0.26511
0.373603
0.226224
0.397556
0.554942
0.566726
0.669616
0.171611
0.202493
0.229517
0.40972
0.312036
2.09226
0.61438
0.514253
0.685311
0.460455
1.62004
0.937815
0.29518
0.602328
0.637045
0.350872
0.267487
0.627424
0.535256
0.0638419
0.649447
0.229005
1.17862
0.39329
0.516153
0.488658
0.401377
0.32842
0.359295
0.374544
0.333757
0.416845
0.248168
0.310345
0.311108
0.233891
0.459023
0.353919
0.241046
0.506349
0.2751
0.485035
0.430625
0.500902
0.390248
1.94403
0.784456
0.355848
0.269993
0.411485
0.313554
0.346633
0.397811
0.642153
0.212455
0.893461
1.2934
0.231608
0.659918
0.516917
0.238925
0.197649
0.389398
1.08451
0.351381
0.904088
0.348097
0.212779
0.392264
0.798806
0.889431
0.522042
0.396034
0.296468
0.399405
0.687357
0.274183
0.53335
0.566578
0.288487
0.527891
0.484343
0.243045
0.474488
2.30932
0.165156
0.53741
0.203501
0.431167
0.394976
0.6235
0.610875
0.398609
0.314594
0.329173
0.306696
0.546706
0.407592
0.243982
0.437988
0.367088
1.45551
0.529781
2.03036
0.235227
0.706932
1.56355
0.336558
0.121969
0.348909
0.488213
0.629471
0.917482
0.101101
0.649861
0.49349
0.78186
0.450218
0.617856
0.389769
0.621893
0.342468
0.276131
0.931327
0.267587
1.10674
0.634794
0.585406
0.647466
0.20635
0.350658
0.238252
0.406111
0.622029
0.311803
0.305415
0.353031
0.600677
0.428103
0.722548
0.664489
0.459464
0.205614
0.921807
0.40598
0.330578
0.480294
1.93958
0.94476
1.48197
0.268027
)
;

boundaryField
{
    frontAndBack
    {
        type            empty;
    }
    wallOuter
    {
        type            kqRWallFunction;
        value           nonuniform List<scalar> 
90
(
0.263988
0.421413
0.413625
0.427549
0.478339
0.477496
0.483974
0.593111
0.404722
0.495329
0.523073
0.613584
0.508633
0.573578
0.53871
0.893244
0.537536
0.527514
0.518882
0.528055
0.503077
0.508685
0.509121
0.555493
0.5058
0.816325
0.738557
0.530143
0.513141
0.262536
0.324846
0.29721
0.219369
0.347828
0.368409
0.386368
0.529719
0.269557
0.368894
0.398694
0.478014
0.413481
0.841597
0.342588
0.453552
0.435724
0.512628
0.635759
0.344824
0.65734
0.781032
0.175982
0.461088
0.59502
0.460845
0.297958
0.32354
0.541126
0.779259
0.385007
0.507711
0.478654
0.451965
0.903025
0.635071
0.677342
0.894699
0.403477
1.05644
0.495377
0.500937
0.367236
0.966184
0.512091
0.954942
0.845194
0.432483
0.544264
0.424797
0.797752
0.430848
0.985815
0.385224
0.462259
0.171611
0.485035
1.08451
0.351381
0.522042
0.394976
)
;
    }
    inlet
    {
        type            fixedValue;
        value           uniform 0.375;
    }
    outlet
    {
        type            zeroGradient;
    }
    wallInner
    {
        type            kqRWallFunction;
        value           nonuniform List<scalar> 
138
(
0.452363
0.0496267
0.865917
0.395332
0.768214
0.0915818
2.07536
0.291937
0.360229
0.854418
0.6761
0.746179
0.259995
0.248226
0.249812
0.182329
0.332661
0.286384
0.284096
0.740806
2.4605
0.669767
0.17551
0.626837
0.650747
0.683464
0.57911
0.700231
0.607008
0.658923
0.637295
0.2755
0.2683
0.337635
0.0311966
0.0340384
0.251736
0.257488
0.362179
0.171549
0.380012
0.188113
0.285692
0.318261
0.188158
0.339807
0.220782
0.412349
0.164817
0.0294674
0.0360582
0.291023
0.159349
0.358297
0.20817
0.307378
0.252244
0.0409933
0.326633
0.398726
0.160069
0.36945
0.351142
0.179312
0.0295147
0.370771
0.295006
0.405963
0.851632
0.254645
0.156752
0.258552
0.581571
0.122777
0.897832
0.270634
0.932616
0.468459
0.362414
0.130321
0.183272
0.728828
1.22886
0.1219
0.119453
0.925928
0.239735
0.156848
0.620019
0.615903
0.319054
0.170966
0.254288
0.205226
0.158522
0.0296265
0.370557
0.282358
0.253844
0.327065
0.238505
0.118552
0.162029
0.185728
0.74388
0.0302448
0.397285
0.623718
0.275843
0.02929
0.0307991
0.720012
0.0344879
0.245864
0.181022
0.621033
0.657962
0.145587
0.411814
0.608265
0.33832
0.15677
0.788165
0.149382
0.0263459
0.0989459
0.746732
0.158708
0.0271287
0.130627
0.155889
0.305415
0.921807
0.40598
0.330578
1.93958
0.94476
0.268027
)
;
    }
    procBoundary0to1
    {
        type            processor;
        value           nonuniform List<scalar> 
29
(
0.992857
1.40205
1.05058
1.05058
1.93944
1.93944
1.92288
0.311345
1.84973
0.597027
0.503053
1.17308
0.629462
0.757692
1.15405
0.544872
2.75647
1.91167
0.680559
1.33264
0.302996
0.217201
1.71879
0.297693
0.297989
1.91167
0.260025
0.823331
0.297693
)
;
    }
    procBoundary0to2
    {
        type            processor;
        value           nonuniform List<scalar> 
42
(
0.629656
0.428313
0.428618
0.307799
0.223023
0.629656
0.428618
0.277058
0.161515
0.0933267
0.284151
0.248776
0.284151
0.226721
0.209676
0.700623
0.209676
0.104087
0.10924
1.13889
1.13889
0.104087
0.11829
1.03565
1.03565
0.109195
0.975364
0.0769912
0.911439
0.366433
0.366433
0.0535937
0.0449955
0.0434386
0.0494515
0.428618
0.264169
0.240587
0.911439
0.277058
0.110914
0.0684612
)
;
    }
}


// ************************************************************************* //
