/*--------------------------------*- C++ -*----------------------------------*\
| =========                 |                                                 |
| \\      /  F ield         | OpenFOAM: The Open Source CFD Toolbox           |
|  \\    /   O peration     | Version:  v1912                                 |
|   \\  /    A nd           | Website:  www.openfoam.com                      |
|    \\/     M anipulation  |                                                 |
\*---------------------------------------------------------------------------*/
FoamFile
{
    version     2.0;
    format      ascii;
    class       volScalarField;
    location    "0.38";
    object      p;
}
// * * * * * * * * * * * * * * * * * * * * * * * * * * * * * * * * * * * * * //

dimensions      [0 2 -2 0 0 0 0];


internalField   nonuniform List<scalar> 
1431
(
75.5473
86.9514
69.3217
82.9025
73.3763
73.5119
79.6558
48.2805
73.8278
80.3469
41.1557
50.4613
71.8875
71.3896
73.5969
79.9214
71.8894
72.1724
72.5672
71.9043
36.1106
71.1344
73.8045
17.8481
73.5323
71.6509
47.1175
73.7262
74.5743
69.3938
72.3457
74.6884
72.6155
72.0812
74.5372
80.7911
71.5175
71.3726
80.595
74.3055
72.8091
72.4062
71.6791
79.7732
72.8779
73.1408
72.7142
50.7191
79.4364
69.335
80.3842
79.993
78.6797
53.7636
88.3313
79.8811
72.3022
51.2865
71.6838
74.2366
73.8282
79.7252
69.8384
70.9078
81.0477
80.1117
71.8849
74.3406
72.4416
72.0317
50.3782
71.9035
82.3161
72.1483
71.4035
73.9192
69.571
71.4468
80.9672
73.1929
71.5758
73.4114
76.9587
72.8536
37.7285
84.3921
85.9758
72.8299
54.1677
64.4308
72.442
72.1377
71.5379
80.2868
88.4653
72.4343
49.7838
77.906
79.65
73.0082
79.7152
79.614
71.3021
73.815
71.2212
72.4236
75.1275
53.5514
72.7409
71.2664
74.2617
72.0624
69.5002
72.5895
87.6762
73.9585
71.6147
82.5541
84.5544
70.2231
72.5928
73.3333
55.1332
71.6199
49.2409
81.03
69.3804
73.0451
69.1122
88.1356
72.1622
72.0709
88.1144
72.4055
73.4138
70.4532
70.7527
79.3856
51.1159
71.5534
80.5715
70.9344
71.428
73.8291
74.5456
72.4216
71.3844
79.0233
80.7923
73.7124
70.0277
72.882
74.1054
85.4816
74.2449
71.3691
47.3256
80.9689
70.4966
85.9745
60.7641
71.6124
83.1677
85.4583
53.9264
74.3874
72.9464
87.9384
70.4484
82.6686
60.3584
78.1946
73.7638
49.87
85.4477
47.69
87.6745
73.2008
79.0655
74.9507
80.1729
79.9413
84.7826
20.8131
73.3128
74.8242
51.2063
83.016
73.9689
52.355
72.4901
73.6637
74.1869
55.2084
83.5611
76.1965
76.4787
73.3559
72.7409
73.5098
87.279
83.5351
58.1219
86.9956
73.2183
72.6732
74.4429
73.9911
47.8998
72.5813
47.013
83.0152
74.7241
72.6248
39.4299
74.511
74.0241
72.7616
82.9343
60.1925
74.4473
85.686
73.3803
84.4142
74.4192
42.6529
59.1074
80.5174
74.217
59.0327
47.6169
72.528
72.8115
74.2896
74.6354
65.9394
74.5065
73.2413
72.5041
87.4811
87.6345
79.7701
45.8398
73.2766
73.8891
72.1331
73.4171
55.4949
74.7845
70.9472
72.586
53.5486
85.3742
82.4305
72.6278
71.8106
84.7914
37.7404
70.5273
73.9782
74.2554
50.9393
83.8221
87.1129
74.5195
62.8585
73.7427
55.9615
54.0812
72.5747
73.2613
74.3118
87.8965
87.6683
58.1067
73.8551
55.8837
68.771
72.9989
74.4703
77.4734
71.1962
72.1364
81.0779
88.7266
75.9404
71.9345
74.4624
44.7518
85.8403
73.254
73.1586
78.779
78.1013
61.0041
73.9875
51.3761
75.6544
74.1479
72.3793
78.465
72.3484
88.3855
74.1354
72.0201
84.2347
84.0124
73.9177
72.1833
84.7897
71.1214
81.3766
79.8927
55.7402
73.7409
76.3385
73.8327
88.6561
70.9497
28.4718
82.3526
77.0153
72.9003
78.7943
73.7901
69.4803
72.5104
72.4749
55.0851
82.6462
71.7469
71.6329
73.079
71.1827
87.127
73.0791
72.9409
69.1267
73.7748
54.3057
71.6116
72.3043
66.0469
72.006
73.9426
72.484
87.2808
54.625
70.6472
77.0894
72.1579
70.7962
78.8338
77.4289
72.0402
83.409
49.7729
46.6052
52.0636
72.3224
71.1512
74.4281
71.5621
88.6009
71.8271
46.525
73.3586
9.03496
74.0987
69.5662
52.7485
73.216
56.4434
81.616
72.4908
47.1942
79.0858
86.2026
69.6783
42.9171
71.4237
73.8424
84.9732
73.3109
9.70418
74.1981
76.8793
73.55
73.0909
80.3494
88.0676
76.7164
76.5396
83.7197
66.8563
78.759
72.9848
72.9502
72.9351
74.0751
74.05
72.1804
72.6207
71.7379
79.8046
74.2882
73.3301
85.5945
88.5177
74.8756
74.9722
73.9838
75.4812
71.0901
73.8222
71.7699
75.6769
85.1621
73.9352
75.9585
73.7189
71.502
82.1107
76.3025
76.3198
73.0544
71.2517
72.8379
69.5329
27.3946
70.4514
70.7185
70.8186
71.2035
70.7228
70.8215
70.5729
71.18
70.9716
71.2099
72.5386
52.2186
71.4408
70.2013
70.6524
70.3873
71.8341
71.9052
72.632
71.7318
72.1248
68.1668
79.2984
73.2353
79.6463
79.1268
71.2381
51.6561
72.5607
68.9553
71.3746
68.9716
52.3271
78.9958
69.6449
69.3636
73.4883
52.5089
68.7781
51.1389
79.4834
79.7807
71.3844
71.1116
51.3933
52.1463
70.8334
70.4729
71.1628
79.9915
71.2165
72.2342
51.5465
80.0445
72.5279
71.2884
70.0582
71.3111
68.9669
71.2105
51.6163
79.6258
69.1858
71.5332
71.7867
70.1817
69.354
51.3963
79.3257
71.9774
70.4916
71.6535
72.157
70.956
51.6527
53.1475
71.9917
79.7995
79.3367
71.9642
71.634
72.5654
70.9231
69.6426
70.8077
81.9204
70.0902
71.8444
72.2783
52.7704
72.8489
79.6061
71.9896
83.2649
71.9067
84.0312
50.9723
74.2174
73.0326
85.7145
86.6545
80.1164
72.4152
72.7992
71.6463
69.6901
85.5482
72.5497
72.7017
73.5404
74.0958
71.4506
71.1499
80.4232
71.9917
85.9427
83.3362
68.0745
73.4525
71.2952
76.4095
71.1811
71.7937
76.0968
68.7922
72.5656
84.6115
70.819
70.8612
49.4552
71.2513
52.6252
71.4446
78.0256
33.8072
79.2053
84.2492
84.9169
70.6005
72.5694
76.8958
60.5306
71.0983
80.9306
80.7284
72.224
83.0057
73.2914
70.6817
70.7108
76.4058
65.1381
73.0454
73.6155
73.6125
74.7647
73.1664
80.8846
80.8915
72.3259
70.5647
67.792
79.9913
80.8968
74.6561
72.1191
71.9727
76.1736
80.3593
49.0859
62.177
73.0876
75.7749
79.4972
69.4505
73.4893
18.6199
70.6977
85.9656
70.718
83.4819
77.7991
76.8379
70.9408
73.4404
72.0279
45.1419
86.5693
69.6846
75.107
86.494
84.3806
80.0948
75.9305
76.9387
70.529
71.9479
72.2302
67.7541
86.3086
75.611
79.906
80.2538
71.1894
77.263
71.9925
49.7975
88.4341
72.3703
86.2843
72.4179
71.5849
87.4064
75.9789
69.2904
76.3206
70.973
73.4867
43.8154
80.3551
70.2486
70.9259
72.9952
71.2311
71.5598
73.5515
73.9772
68.216
69.7245
56.9219
63.7216
72.2701
71.8684
77.7977
71.102
73.3279
72.3938
69.5534
79.5314
72.3369
76.6205
86.9945
37.3857
71.4442
69.8624
72.1816
32.0183
71.0928
73.1609
88.2002
87.8275
83.1095
78.8322
41.4836
71.0129
69.8081
70.8323
72.6906
72.7809
88.4119
73.1706
72.3599
71.5951
88.7341
88.6447
70.9227
80.7208
72.9698
88.3691
65.7686
85.1484
73.8528
75.8216
88.7889
72.698
25.2108
72.8613
83.1428
82.8801
74.7204
73.5802
84.4159
70.6651
74.2486
69.46
74.1288
70.8865
72.3025
87.4152
72.6751
71.7676
72.5557
52.7423
76.3143
73.269
87.346
73.0332
71.4594
54.178
51.3587
70.0708
81.6006
69.869
87.8219
73.5197
72.9334
72.8928
77.9151
43.7875
85.2087
74.2279
73.6968
88.149
73.1993
70.3631
73.1684
71.0909
73.73
73.2924
79.1179
74.0991
86.5557
88.6951
79.2178
8.32148
73.0585
72.9889
72.8241
73.5448
84.6674
30.8091
73.5443
74.9311
79.652
71.8143
75.444
79.6251
79.356
75.5782
86.9348
71.3435
72.6259
72.8145
73.7457
73.2819
80.5754
87.6451
79.3885
73.0628
72.0887
75.3656
71.1248
77.0276
69.1009
87.737
54.3014
73.3962
78.4339
73.5678
79.0424
73.1428
71.6591
74.2429
72.592
73.457
88.028
85.03
71.4363
83.8388
73.8098
74.1451
71.0987
71.358
70.1859
70.6112
14.4218
74.0881
74.2543
79.5254
73.4724
48.8089
87.5014
85.5308
43.0952
71.7122
50.8942
70.2856
73.0541
71.1373
72.8858
72.686
71.2778
78.0279
71.6886
86.6713
73.824
72.042
70.6993
73.5779
79.4773
71.052
74.8493
43.7772
74.022
81.0294
53.6971
72.7345
71.0067
75.1585
82.2294
75.4889
71.4709
70.9036
73.7272
76.7088
63.0059
71.4618
53.4176
79.7616
67.3918
73.8684
70.3846
74.5155
85.7091
70.9427
72.8932
88.4656
73.9488
69.0224
70.219
85.0265
77.787
73.6485
82.118
71.2976
74.3697
71.13
80.7209
54.2802
75.1707
71.2547
47.2265
72.6487
72.6108
71.3817
74.1394
79.8142
75.2474
74.6457
72.5501
51.1477
85.0263
73.1069
47.1211
53.5718
52.2285
47.5318
54.7608
74.4316
74.0142
73.4271
73.6668
50.559
74.8652
72.748
74.3015
73.5633
72.3346
58.1053
44.9472
72.24
63.5361
60.7926
72.6209
74.925
74.5825
73.0285
74.2039
74.0376
72.9676
74.0478
70.9652
64.9738
68.637
69.5812
73.6418
71.2301
72.5031
48.5321
74.0926
68.1899
71.2947
72.086
81.9066
53.527
71.9944
70.0766
65.9283
73.3497
71.1618
72.5126
86.4872
49.632
72.3833
74.2442
74.3355
78.6747
85.6209
79.3146
50.1072
73.5365
71.2746
71.2588
72.252
78.6564
76.3083
56.9071
70.4678
80.216
73.5635
82.5728
77.4539
74.7077
70.2052
69.6888
78.7863
72.4598
71.7589
73.4033
74.2544
80.416
45.7633
72.8861
77.6965
72.5282
72.2807
71.1391
86.9747
74.1519
73.0845
86.306
77.7774
72.2938
42.8199
72.9135
71.3785
71.2759
69.9056
79.2099
23.4812
75.2099
74.6525
79.6102
48.9727
74.058
72.5576
79.1632
80.4328
85.8207
72.8737
69.5206
76.8792
72.7754
55.5023
34.215
74.3463
74.5188
82.3036
72.0116
71.5596
73.7094
70.9818
72.9901
74.1945
72.5114
70.1044
36.0953
71.8945
85.6024
68.4466
72.086
73.7216
71.9332
71.8455
75.3269
82.5902
77.6199
73.7653
75.718
77.5574
25.5034
16.2054
79.8891
73.8712
68.1152
86.0147
73.3792
52.8556
70.5741
73.7813
72.7192
63.0759
51.9914
86.9097
72.4522
74.231
74.9072
71.7054
50.7743
71.4197
76.4239
85.8446
48.7289
84.927
71.8512
84.4566
7.05326
71.5573
50.052
57.4926
72.5889
69.7782
75.3353
86.5716
71.684
84.5108
86.4299
83.9562
75.8341
71.3998
74.0963
69.8401
71.4261
60.5677
70.0431
69.182
71.1325
54.9664
74.9423
54.4852
71.6584
71.8437
55.2801
73.853
63.4277
61.1708
58.9085
53.1873
52.9159
51.9572
56.748
52.1909
82.7779
84.0426
83.7121
82.9319
83.0207
83.1244
74.9277
72.613
71.1156
73.9241
72.1564
70.767
82.8889
70.2552
68.7548
79.5055
77.5523
79.7606
74.1701
88.5708
86.7724
71.5945
72.1617
84.4623
70.9075
74.4868
74.7785
65.6845
86.644
77.0347
41.9529
74.5854
73.3124
72.5657
85.6243
71.2145
82.4261
32.3463
71.0387
73.4901
82.7818
73.0934
84.44
71.7889
71.3947
73.7115
82.5951
71.4763
70.4635
69.2552
83.7738
71.2834
72.355
71.7758
80.0877
15.2492
69.7081
41.8779
7.36884
88.6887
51.2857
71.8104
74.0521
73.2486
51.5645
84.9717
75.4093
76.2976
64.0183
71.7252
71.2229
74.4173
72.6906
80.2187
71.9948
79.9293
77.4571
55.5042
48.6701
16.1912
79.0199
73.6006
85.4302
74.4212
85.3528
72.8654
68.742
71.3522
72.6527
51.8184
74.1845
79.2861
49.818
77.5039
71.4809
71.7071
79.3218
75.0026
67.8645
56.9752
74.9246
69.4085
72.577
74.0381
45.9617
71.2399
48.4866
80.3219
70.902
72.1261
47.7706
73.7658
73.5374
71.7932
73.531
82.2278
53.7012
72.8334
73.3117
71.5363
71.7272
71.1402
72.0964
82.2798
72.9286
74.3982
54.9764
71.8942
72.4742
71.6847
71.3561
82.6055
72.6324
87.2237
79.8562
72.2589
71.8684
47.328
75.8301
72.7675
77.4341
73.5535
82.0653
72.0239
71.6174
74.6706
68.6084
75.3487
26.2294
73.8868
88.6447
75.2267
58.6006
74.1491
79.8344
83.1602
71.7294
74.4382
77.785
73.8637
73.3606
73.7037
72.4001
84.2187
72.1636
83.2399
74.3966
54.9055
72.5556
56.0716
73.7549
76.0102
74.297
75.6631
72.1888
72.3022
70.0511
71.7929
82.7357
75.5485
47.341
74.6693
75.284
70.3933
69.6693
70.8895
74.5617
73.4364
65.8209
72.0945
71.0105
51.3932
72.3531
76.441
75.2539
77.5896
72.4868
72.8828
73.4204
66.1145
73.1517
72.6192
71.4304
72.5592
74.7729
53.0232
78.1817
70.9342
71.1664
73.631
53.6153
71.2912
75.7751
73.2825
54.4579
71.7561
68.8529
69.529
35.4445
74.0807
72.2415
70.5319
70.3495
44.2628
88.7172
54.6881
85.5525
85.4331
88.1429
51.8754
84.4682
46.6556
67.343
71.8067
74.0305
71.1163
52.0827
70.9613
15.6319
88.4114
73.5167
88.1425
74.5407
72.4422
59.8237
85.4641
86.1323
44.9036
55.0752
72.9431
72.2756
85.3852
52.1195
86.6999
72.3019
73.2412
54.5321
79.8284
87.8878
71.795
82.3633
71.9915
73.9696
72.3862
82.0794
86.4103
58.0214
53.0752
85.886
74.5445
72.6847
72.0995
73.1503
74.1858
71.5548
74.2518
82.0348
73.2025
72.8925
74.5347
61.763
74.3469
83.6688
74.21
63.4875
82.3687
86.1824
73.9478
71.4522
83.7244
71.6369
73.4301
74.4755
84.0767
83.3471
59.6204
53.3375
72.3173
80.079
83.0769
68.7978
69.8829
74.6964
71.6058
73.3323
70.5792
71.726
72.7513
82.2041
58.2429
74.0746
66.1903
73.3489
72.6018
51.2727
74.3916
82.2201
72.1471
73.1708
72.6961
47.9175
71.7115
71.9037
70.0622
76.4249
79.9872
80.0607
84.8649
84.5083
85.2724
30.089
55.7666
71.6159
75.0249
71.5348
71.8427
72.4189
77.9066
75.7493
72.4282
73.0017
78.216
79.7443
70.1779
71.5736
72.3974
73.17
73.7684
73.2738
)
;

boundaryField
{
    frontAndBack
    {
        type            empty;
    }
    wallOuter
    {
        type            zeroGradient;
    }
    inlet
    {
        type            zeroGradient;
    }
    outlet
    {
        type            fixedValue;
        value           uniform 0;
    }
    wallInner
    {
        type            zeroGradient;
    }
    procBoundary3to1
    {
        type            processor;
        value           nonuniform List<scalar> 
48
(
72.3813
73.5714
73.2287
72.5178
72.9328
71.8557
73.5714
70.2877
71.3732
72.7969
72.7969
73.6385
73.6385
68.8758
69.5191
72.8675
70.4312
71.9399
70.4312
69.6834
69.1235
69.509
69.6834
73.0763
72.12
71.0919
69.9148
69.509
70.161
71.7305
71.7305
70.0254
70.0254
71.3732
70.2605
72.7837
70.4012
72.12
72.264
73.2639
68.8758
70.674
71.266
69.6834
70.3437
73.8975
72.6785
68.7543
)
;
    }
    procBoundary3to2
    {
        type            processor;
        value           nonuniform List<scalar> 
29
(
71.907
71.907
79.8974
80.2624
72.9239
75.1322
82.1828
74.1105
80.0874
80.1411
75.0899
72.7828
73.1251
81.9494
82.31
82.1587
79.9262
79.7798
72.3592
81.9775
82.0539
79.9262
82.6765
79.7798
82.5089
79.9924
79.7798
71.5487
71.5487
)
;
    }
}


// ************************************************************************* //
