/*--------------------------------*- C++ -*----------------------------------*\
| =========                 |                                                 |
| \\      /  F ield         | OpenFOAM: The Open Source CFD Toolbox           |
|  \\    /   O peration     | Version:  v1912                                 |
|   \\  /    A nd           | Website:  www.openfoam.com                      |
|    \\/     M anipulation  |                                                 |
\*---------------------------------------------------------------------------*/
FoamFile
{
    version     2.0;
    format      ascii;
    class       surfaceScalarField;
    location    "0.38";
    object      phi;
}
// * * * * * * * * * * * * * * * * * * * * * * * * * * * * * * * * * * * * * //

dimensions      [0 3 -1 0 0 0 0];
oriented        oriented;


internalField   nonuniform List<scalar> 
2708
(
-0.000532826
-1.80406e-05
0.000254583
0.000296284
0.000234745
0.000357149
-0.000257282
-0.000334612
0.000290331
1.70182e-05
-0.000239369
-6.798e-05
0.000394617
-0.000333992
5.04215e-05
-0.000111047
-4.65573e-05
-0.000158826
5.76245e-05
0.000147758
0.000409624
-0.000626008
0.000364413
-0.00014803
5.30111e-05
-5.41599e-05
7.42046e-05
-7.30559e-05
-0.00014262
0.000395425
-1.3018e-05
-0.000239787
-0.000656899
0.00075943
0.00057088
-0.00067341
0.00013764
4.81135e-05
-0.000132743
0.000850097
-0.000877714
0.000306537
-0.000278919
0.000269814
-0.000325426
0.000876493
-0.000820882
-0.000332785
0.000375339
-0.000495966
0.000453412
-4.21192e-05
-0.000210448
0.000171185
8.13821e-05
4.68127e-05
-0.000152223
1.08421e-05
9.45682e-05
-3.28726e-06
0.000154522
-1.3594e-05
-0.000412025
0.000291879
-8.26433e-05
0.00020279
0.000343405
-0.000403171
0.000222134
-0.000162368
0.000145321
8.99471e-05
-0.000209259
-2.60099e-05
-0.000180982
-9.72962e-05
0.000254987
2.32915e-05
-0.000431888
0.000713633
0.000568352
2.99926e-05
-7.9266e-06
-6.41852e-05
-0.0005364
-0.000292167
0.000381765
0.000446802
-0.000281962
-0.00128763
0.00133028
0.000239312
-0.000659212
-0.000534087
-0.000269857
0.000155726
0.00034355
-0.000229418
-0.000851206
-0.000168504
0.000141996
-8.99732e-05
-0.000197069
0.000180694
0.000106348
6.61301e-05
-0.000526039
0.000459909
-8.15413e-06
-0.000528771
0.000536925
0.000661646
4.97806e-05
-4.86405e-05
-0.000662786
-0.000651132
5.51541e-05
-2.45966e-05
0.000620574
0.000630519
4.76499e-05
-2.57049e-05
-0.000652464
-7.21787e-05
2.97781e-05
2.33281e-05
1.90724e-05
0.000600737
0.00045394
-0.000698171
-0.000356505
1.156e-05
-0.000148571
9.73971e-05
3.96143e-05
0.000283293
0.000909758
-0.000210863
-0.000296166
0.000143262
0.000151147
1.75694e-06
0.000101954
8.95373e-05
-0.000110956
-8.05353e-05
0.00010421
0.000561144
-0.000642366
-2.29888e-05
-0.000566322
0.000519852
0.000988351
0.00106536
-0.000338379
-0.000264263
0.000110471
-8.02554e-05
-9.83525e-05
6.81366e-05
-0.000233537
0.000281983
-0.000223866
0.000175421
-0.000128922
0.000304323
-4.47687e-05
-0.000130633
8.55893e-05
-8.45128e-05
-3.72809e-05
3.62043e-05
-0.000809039
0.000104786
-0.000146954
-7.5787e-06
-2.1471e-06
-4.44341e-05
-1.58758e-05
9.78622e-05
7.14409e-05
-0.000153427
0.00026704
-0.000730908
0.000777249
-0.000313381
0.000121543
-0.000108246
0.000137451
-0.000150748
0.000887932
-0.000314938
-0.000485699
-8.7295e-05
-6.82933e-06
0.000404092
-0.000146919
-0.000250344
0.000124106
0.000224623
-0.000192001
-0.000156728
-0.000432511
0.000664505
0.000147998
-0.000379993
8.3289e-05
-0.00015883
-9.22315e-05
0.000167772
-0.00063451
-0.000388509
0.000644915
0.000378103
0.000418687
-0.00011415
-0.000304537
9.88238e-08
6.80072e-05
-6.8106e-05
-4.31605e-05
-0.000262224
0.000119469
0.000142755
0.00033706
-0.000481888
0.000144828
-0.000285716
-1.04496e-05
9.89292e-05
3.0247e-06
7.47721e-05
3.03522e-05
-0.000160818
0.00012029
-0.000444357
0.000221015
-0.000301641
0.000308053
-6.41274e-06
-6.37415e-05
0.000122699
-5.89574e-05
-0.000160325
-0.000138599
0.000298923
-0.000102006
2.98277e-05
-0.000334958
6.40374e-05
1.09846e-05
1.87935e-05
-0.000166133
-4.43149e-05
-5.83494e-05
-7.05722e-05
-0.000260718
4.97252e-05
0.000210993
-0.000622706
0.000152002
0.000470704
-8.3858e-05
0.000131971
0.000141838
0.000201567
-0.00035689
-5.51347e-05
0.000169755
-0.000290233
0.000120479
-0.000133409
6.71487e-05
0.000575451
-0.000509191
-0.000106744
0.000110572
8.17607e-05
-9.53611e-05
5.90721e-05
0.00119469
-0.0011584
4.27793e-05
-0.000179458
-5.72172e-05
0.000193896
0.000114754
1.54469e-05
-6.86436e-06
-0.000123337
9.07207e-05
-9.86104e-05
4.81161e-05
-4.02264e-05
3.10238e-05
1.92193e-05
-0.000905966
0.000855723
-6.42971e-05
1.83625e-05
-0.000745536
0.000791471
-3.44698e-05
0.000178632
-6.0873e-05
8.591e-05
-6.87222e-05
-5.16577e-05
-2.66182e-05
3.6763e-05
0.000133118
-0.000191042
0.000161203
5.02174e-05
-2.03783e-05
0.000193023
-0.000141276
7.23594e-05
3.41354e-05
-0.000464131
0.000429996
-0.00052502
-0.000267197
-0.000507901
0.000578891
0.000196207
0.000149079
-1.43286e-05
-2.42786e-05
-0.000298462
0.000355165
-5.67031e-05
0.000610132
-0.000629004
-0.000413638
-0.000202728
8.95828e-05
-0.000269897
1.29683e-05
-3.42657e-05
0.000291195
3.78958e-05
-8.08962e-05
0.000211612
-0.000168612
-0.000458145
-0.000301876
0.000137316
-0.000606694
1.93266e-06
0.00061837
-1.36086e-05
8.02463e-06
0.000655372
-0.000637175
-2.62209e-05
-9.89016e-05
0.000641665
-0.000693398
0.000150634
0.000285791
-0.000179809
-0.000398149
0.000343922
-0.000195133
-6.09417e-05
9.89362e-05
-0.000631337
0.000228283
0.000778392
-0.000123021
-2.54875e-05
0.000105042
4.34671e-05
-0.000761341
0.000677883
0.00060331
0.000147608
0.000311759
-0.000104907
6.91784e-05
5.96595e-05
-0.0002458
0.00028858
5.13438e-05
-4.30901e-05
-2.06515e-05
2.79554e-06
-0.000155019
0.00025039
-0.000257219
-4.34338e-05
-2.43484e-05
-0.00011425
-0.000174183
9.03255e-05
2.96132e-05
2.11485e-05
-0.000106619
9.63121e-05
-4.39606e-05
0.000126001
-6.50225e-05
-4.66154e-05
7.12071e-05
2.18587e-05
-4.64504e-05
0.000130438
0.000161441
-8.82817e-05
-0.000314889
-7.24801e-05
-1.59303e-05
4.17951e-05
2.43064e-05
-0.000135431
0.000256446
-0.000174609
0.000291598
-0.000297971
-3.68602e-05
0.000206986
6.14191e-06
9.11192e-07
-9.0329e-05
0.000297835
-0.000208417
-0.000157432
0.000113605
0.000163295
0.00117594
7.4805e-05
-0.00113127
-0.000119483
0.000124528
-3.36982e-05
0.000123235
0.000628883
2.98809e-05
7.5608e-05
-0.000734372
-0.000107369
0.00026612
0.000223014
0.00010761
0.000557044
0.000423249
-0.00068319
0.000451724
0.000841597
-6.23582e-05
0.000126594
0.000148347
2.68292e-06
-8.20487e-05
0.00063657
2.1144e-05
-0.000575666
-4.17166e-05
-0.000204084
-0.00057749
-7.51259e-06
-7.46885e-05
0.000659691
-0.000206608
9.22789e-05
0.000151092
-0.00112678
-0.000157288
0.00110928
0.00017478
0.000560454
0.000609482
-0.000524526
-0.000645409
-0.000103757
5.68636e-05
-0.000654234
0.000701128
-7.17633e-05
5.36222e-05
5.04752e-05
-3.23341e-05
0.000991766
-0.00089701
0.000120004
-0.00021476
-0.000527134
-0.000350698
0.000381866
0.000178369
-0.000176852
-7.20344e-05
7.05177e-05
3.24441e-05
-0.000132212
0.000118638
-1.887e-05
-4.92868e-05
0.000299676
-0.000869582
0.000422696
-8.59396e-05
0.000253147
8.74838e-05
0.000287158
-0.000313483
0.000511161
-0.000501491
-0.000153837
0.000144167
-5.19136e-05
-0.000891765
1.12915e-05
0.000932387
-0.000662797
-0.000565862
0.00054547
4.75535e-05
0.000647833
-3.09919e-05
-0.000664395
0.000291427
-0.00147227
-1.84113e-05
0.00119925
0.000525885
-0.00043739
0.000268654
0.000306191
-0.00114154
6.58269e-06
-7.66543e-05
-2.40848e-06
0.000486113
-0.000310026
0.000368993
0.000730778
-0.000211838
0.000580873
-0.00019545
-0.000434
4.85768e-05
-5.79708e-05
-9.65649e-05
0.000107152
0.000540733
-0.000591787
0.000210033
-0.000158978
0.00119449
-0.00119005
-0.000286404
0.000279053
-2.16281e-05
0.000228688
-0.000488095
0.00049612
-0.00038027
0.000281368
0.000251299
0.00083504
-0.00081192
0.000374703
-0.000117628
0.000554845
-3.49846e-05
-4.48357e-05
-0.000969799
0.00104962
0.000644305
-0.000695817
0.000159122
0.000685806
-0.000583975
-2.63293e-05
-7.5501e-05
0.000596991
-0.000847905
0.000355124
0.000570248
-7.52387e-05
0.000146655
-4.54119e-05
0.000368374
0.000957362
-0.000716255
-0.000394986
-0.000374661
0.000502451
0.000504399
-0.000497539
-6.91025e-05
6.22426e-05
0.000182217
1.52998e-05
0.000110537
-0.000135872
0.000142504
0.000195655
-0.000202287
0.000373999
-0.000421011
0.000259615
-0.000212604
-2.40906e-05
0.000167304
3.5155e-05
-0.000633494
-0.000325276
0.000746109
0.000212662
6.54224e-06
0.000102923
-0.000106794
-2.67148e-06
8.07842e-05
0.000498804
-0.000586525
6.93647e-06
1.03539e-05
0.000686473
-0.000683192
-1.36343e-05
0.000164388
-0.00066918
0.000671707
-0.000166915
-0.000175243
3.60498e-05
0.000115
2.41928e-05
0.0011244
-0.00113232
-0.000110367
0.000118289
-0.00016476
1.08478e-05
-0.000195213
6.2657e-05
0.000132555
-3.86892e-05
5.44612e-05
-0.000192624
0.000675381
5.25161e-05
-7.25252e-05
-0.00053584
-3.42217e-05
-3.66331e-05
-0.000127549
-0.00114783
0.00118002
-0.000127224
-3.98176e-05
-0.00013142
0.00069301
-0.000197043
-0.000578016
6.70914e-05
0.00050676
-6.9452e-05
0.000642845
-3.43263e-05
6.09834e-05
-0.000669502
0.00019824
-0.000543135
-0.0002886
0.000492461
0.000342587
-0.00067422
-0.000160829
-0.000157523
0.000480609
0.000217647
0.000112749
-0.000120676
0.000194984
-0.000187057
2.22363e-05
0.000147627
-1.14794e-05
-0.000158383
-0.000668958
0.000583929
-0.00112288
0.00115692
-0.000161589
-0.00065615
0.000712662
-0.000381788
-0.000151922
0.000155182
-0.000461827
3.89918e-05
0.000765422
-0.000462722
4.55555e-05
0.000615407
1.83255e-05
-0.000383732
0.000520338
-0.000154932
-1.20302e-05
1.2211e-05
0.000661465
-1.72026e-06
-0.000617416
0.00062949
0.00040693
-0.000139884
0.000329946
-1.34039e-05
-0.000675846
3.81186e-05
-0.000788701
-0.000136071
0.000836058
8.87137e-05
0.00067681
0.000148597
-0.000150027
-2.2181e-05
-0.000385049
-0.00012861
-0.000127851
0.000424769
0.000347387
-9.61426e-05
0.000125521
0.000392225
-0.000421604
-1.59627e-05
-1.40764e-06
2.3953e-05
-0.000290397
0.00055534
0.000287959
-0.000552902
0.000135505
-0.000133985
-0.000353407
0.000531711
-0.000200485
-7.85605e-05
-0.00014839
1.30739e-05
8.47518e-05
5.0564e-05
-0.000363752
0.000172901
-0.000216986
0.000790194
0.00034121
-0.000579729
-0.0004357
8.23063e-05
2.14128e-05
6.95762e-05
-6.98405e-05
-0.00031756
0.00108829
-0.000739704
-8.96604e-05
5.03412e-05
0.000167361
6.06708e-06
-2.12787e-05
3.83055e-05
-0.00128287
7.8749e-08
0.00102386
0.000258929
-0.000104817
4.54659e-05
-3.03098e-05
-0.000214301
0.00118456
0.000186667
-0.000721073
0.000847674
-0.000348128
0.000221527
9.49233e-06
0.000317512
0.000156081
-9.71802e-05
-0.000376412
4.10485e-05
-0.000337372
-0.000123322
0.000174379
1.82322e-05
-8.83442e-05
5.38938e-05
-0.000381642
-0.000687128
-0.000512157
0.000727908
-0.000557818
-0.000843676
0.000673585
-8.8217e-05
0.00019892
0.000459545
9.68112e-05
-0.000732949
-6.65859e-05
-9.2244e-05
0.0001044
7.40219e-05
0.000656251
0.00019945
-0.000178891
-0.000199083
-0.0002502
9.7576e-06
0.000189317
-0.000295217
0.00112279
-0.00018294
-5.04631e-05
0.000580668
0.00133633
-8.46747e-05
-0.000128858
-0.000735271
-3.21284e-05
-4.16051e-05
0.000809005
-0.000440062
0.000438341
-0.000548636
0.000697234
-0.000520045
0.000549217
-0.00069197
-0.00034423
0.00039097
-0.000666726
0.000619986
7.02108e-07
0.000428491
0.000749511
-0.000407619
-0.000352356
1.04646e-05
9.74324e-05
-0.000112874
-5.32914e-05
6.87331e-05
-0.000228818
0.000644477
-0.000549068
-0.00107661
0.000122283
-0.000328534
-0.000371
7.15223e-05
-0.000104373
0.00112027
-0.00108742
0.000338167
-0.0002045
-0.000468279
6.97372e-06
-0.000785788
0.000781982
-0.000725591
0.000729397
6.38359e-05
-0.000610743
0.000173723
-0.000503974
-0.000197172
0.000527424
9.71626e-06
-0.000761038
3.55644e-05
-0.00065822
0.000197722
-0.000577992
6.07585e-05
-0.000548854
4.15031e-05
-0.000196133
2.7406e-05
-0.000434535
-5.52635e-06
0.000690983
0.000434998
-0.000674258
0.000502946
-0.000378836
-0.000124111
0.000156214
-0.000129181
-0.000226116
-0.000413649
0.000443394
-0.000155014
0.000125269
-0.000302918
-0.00059345
0.00013594
0.000760428
-0.000119007
3.64272e-05
-0.000623749
-0.00066254
0.000485494
0.000394262
0.000954387
-0.000418142
0.000167949
-0.000686033
0.000785653
0.000268753
6.0698e-05
-0.000234881
8.04295e-05
-0.00020613
0.000117913
0.00057377
-0.000664727
0.000850387
-0.000686106
0.00037528
-0.000274084
-0.000447754
0.000224299
9.69192e-05
-9.79675e-05
7.00239e-05
0.000168467
-0.000140524
-0.000567619
0.000594946
0.000713995
-0.000741323
0.000493145
-0.000578042
-0.000538851
0.000341716
-7.04594e-05
-0.000251092
5.41819e-05
-9.33231e-05
0.000510973
9.73707e-05
-0.000434621
-0.000367675
0.000219709
0.00025152
-0.000103554
-0.000179986
-5.9383e-05
0.000104073
0.000745127
-0.000792006
-0.000739556
0.000786435
0.000392127
-0.000407256
0.000122828
-0.000107699
0.000205779
-1.62958e-05
-2.21214e-05
0.000432603
-0.000466824
0.000208106
-3.93599e-05
-0.000175159
0.000722159
-0.000776542
-0.000731405
-1.32501e-05
-5.34717e-06
2.83828e-05
-9.78545e-06
-3.50447e-05
3.73142e-05
-0.000443083
0.000110218
-0.000825712
0.000534133
0.000753738
-0.000462159
-0.000162826
-0.000729632
-0.000420841
0.000202832
-0.000149667
4.48013e-05
5.65551e-05
-0.000391804
-0.000107834
-0.000304513
0.00035068
-0.000553911
0.000507744
-0.000305998
0.0011699
-0.000186018
-0.00057394
0.00032239
0.000825321
-0.000862798
0.000554479
0.000733088
-0.000166116
-0.000288585
0.000727896
-0.000513273
0.0011217
-0.000374852
-0.000615694
0.000146247
0.00046376
-0.000197484
-0.000412523
5.81941e-05
-7.42399e-05
0.000381837
-0.000365791
0.000173888
9.95363e-05
-0.000161841
-0.000111584
0.000691369
0.000113378
-0.000293774
0.000607685
0.00039548
-0.000576074
-0.000427091
-0.000193828
0.000199727
0.000167989
0.00051197
-0.000369362
-1.35422e-05
-0.000129066
0.000198758
8.3551e-06
0.00101022
-0.00121733
-0.000225151
0.000243476
7.27446e-05
-0.00120468
0.00109695
6.69091e-06
1.73507e-05
5.95094e-06
-4.15006e-05
-0.000200555
0.000125438
-0.000683171
0.000958217
-4.83743e-05
-0.000226671
-0.000705536
0.000768483
-0.000535611
0.000430917
0.000137596
-0.00071026
0.000638794
-2.44002e-05
-0.000666795
0.000683041
0.000772025
-0.000793875
-0.000139199
6.30031e-05
-8.26293e-05
-0.000510883
7.70234e-05
0.00101061
-0.000576748
-0.000601544
-0.000258793
0.00056994
0.00103767
0.000254517
0.000995596
-0.000988859
-0.000168326
0.00045542
-0.000299004
9.58777e-05
-1.97336e-05
0.00022286
0.000237184
-0.000220477
-6.81756e-05
5.14685e-05
-0.000230199
0.00101149
0.000427319
-0.000351157
-0.000603296
-0.000373986
0.000232198
-3.91742e-05
0.000400493
5.17075e-05
-0.000413026
-0.000264304
-0.000893207
-0.000739944
-2.78469e-05
0.000620538
5.18184e-05
-0.00064451
0.000568934
0.000362287
-0.000311568
-0.000619653
0.000496512
-4.01985e-05
-0.000360571
-9.57432e-05
0.00047038
-0.000560184
2.07012e-05
-0.000640573
-0.000255842
0.000294871
-2.75769e-06
-1.45803e-05
-0.000579905
0.000218455
-4.00387e-05
0.000401488
-0.000766069
0.000268239
-8.20753e-05
-0.000135348
2.0842e-05
-4.50142e-06
0.000881296
-0.000196448
-0.000503498
-0.000972429
0.000759026
-0.000132446
0.000345849
-0.000565011
-0.000218748
-0.00018867
-0.000723482
0.000692067
9.01153e-05
-0.000616905
-0.00010487
0.00063166
0.000635686
-0.000598961
0.000358755
3.27787e-05
0.00100497
-0.000574159
0.00070561
-4.66849e-05
0.000919253
0.00015129
8.73995e-05
0.000346524
-0.000139506
-0.000294418
0.000735844
-2.5711e-06
-0.000174076
-0.000559197
-0.000530366
-5.5261e-06
-0.00020547
0.000158367
4.71027e-05
-5.63352e-05
4.48389e-05
0.000773967
0.000139244
-0.000177366
0.000482528
-0.000329763
6.69443e-05
0.000744765
0.000183784
-0.000154582
-0.000284937
0.000148812
-0.000142776
0.000278901
-4.57517e-05
0.000514417
-1.67378e-05
0.000255408
-0.000184489
0.000555948
0.000225977
-0.000523628
-0.000258296
-0.000244644
0.000267224
-0.000662838
0.000722399
0.000165781
-0.000143415
-0.000133765
0.000644959
0.00024462
-0.000300714
-0.000388364
0.00036105
0.000655501
0.00032497
-0.000345096
0.000122656
-0.000119096
0.000718839
9.71257e-05
-7.02694e-05
-0.000166056
-0.000159103
-0.00012845
0.000190257
0.000149558
0.000119632
-0.000179243
-3.33113e-05
-0.000131864
4.21539e-05
-0.000239582
-0.00121589
0.000167836
-0.00023852
0.000490591
7.17232e-05
-0.000323795
0.000489607
-0.000486321
0.000273334
-0.00027662
0.000616173
-0.000365086
0.000218786
-3.65413e-05
0.000390995
0.00025491
0.000356371
4.89271e-06
-0.000532887
0.000592386
-0.000376871
0.000317372
0.000212614
-0.000150456
0.000553626
-0.000372191
-3.09791e-05
0.000547209
-0.000105279
-4.81776e-05
-6.25308e-05
0.000664335
-2.75196e-05
-0.000237763
0.000148009
0.000117273
0.000992034
0.000504755
-0.000303928
-0.00119286
-1.1458e-05
0.000183666
-6.08512e-06
9.41634e-05
-4.55117e-05
-0.000133067
1.84271e-05
-0.000205179
8.82895e-05
9.87348e-05
1.81551e-05
9.03596e-05
-0.000127072
0.000115836
-0.000132429
-9.97696e-05
0.000116363
-5.72976e-05
5.0113e-05
7.74807e-05
-7.02962e-05
-6.69721e-05
-8.94083e-05
9.90828e-05
4.60276e-05
-3.62118e-05
-5.17934e-05
4.19777e-05
2.52436e-05
-3.12115e-06
-9.28765e-05
7.0754e-05
-0.000117582
-0.000160728
-0.000100166
-1.98096e-05
9.10976e-06
-5.77971e-05
4.24517e-05
2.20363e-05
-0.00108046
9.03592e-05
0.0010142
-2.40946e-05
0.000103146
-9.46177e-05
-0.00012611
-1.02502e-05
-4.75067e-06
-3.18578e-05
4.69228e-05
-5.46069e-05
0.00023184
-0.000114955
0.000156846
-0.000273731
-0.00115619
5.73151e-05
-4.34694e-05
6.93376e-05
-4.56778e-05
-4.80662e-05
-1.31026e-05
0.00015152
-0.000136857
0.000217176
-0.000367951
-9.86745e-05
-0.00126734
0.0001522
9.88848e-05
9.8663e-05
-0.000417361
-0.000775174
2.28797e-05
6.95989e-05
-0.000172734
-0.000183719
-0.000155735
-0.000139985
4.88311e-05
-2.36885e-05
-5.02584e-05
2.51158e-05
-0.00129786
0.000239338
0.000770758
-0.000585224
0.0008065
2.71816e-05
-0.000306704
-5.19294e-05
-0.000130893
0.000183734
-1.34833e-05
0.0001202
0.00011461
-0.000137126
2.82219e-06
3.27588e-05
0.000115214
-2.99628e-05
-0.000941693
0.000414591
0.000115272
-0.000123916
2.02041e-05
0.000186606
-0.000128095
6.96811e-06
9.59657e-05
-0.000100112
-0.000115924
3.77102e-05
0.000173739
0.000104039
-1.9781e-05
0.000107752
-0.00010529
0.000114046
-0.000116508
-0.000762364
2.6477e-05
0.000137557
-4.87622e-05
6.63077e-05
5.50033e-05
-0.0001033
-5.75528e-05
3.95281e-05
0.000121325
0.000116027
-0.000140376
3.09766e-07
2.40401e-05
-7.89742e-05
0.000108303
-4.54993e-05
-3.70392e-05
7.00355e-05
-0.0012137
0.000147411
4.72414e-05
-5.88462e-05
3.80817e-05
1.9824e-05
0.000194334
-0.000128248
3.20754e-05
-0.00016029
0.000181499
-5.32841e-05
0.000118901
0.000244765
-0.00020794
0.000316434
9.17277e-06
-5.77444e-05
8.98198e-05
-0.000337867
-0.000856162
-1.96743e-05
-0.00107527
-0.000435155
0.000258196
-0.000119299
-0.000233901
0.000157226
0.000122297
-9.37442e-05
6.0147e-05
-1.88503e-05
-2.14727e-05
8.91368e-05
-7.35357e-05
0.00015198
2.97612e-05
-3.21836e-05
-2.7948e-05
8.18937e-06
-3.79535e-05
-1.97909e-05
2.74903e-05
-0.00010613
-6.16739e-05
-0.00013657
-0.000118079
0.000149663
-2.76911e-05
3.12819e-05
-0.000685237
-0.000133299
0.000131084
-8.22971e-05
0.000234921
-0.000184328
6.46652e-05
-1.6869e-06
-0.000157752
-0.000116046
0.000242732
2.13767e-05
-3.38721e-05
4.89226e-05
-0.00135071
-0.000190693
0.000420845
4.14442e-07
0.000110921
4.79735e-05
0.000110394
-0.000260395
0.000548286
-0.000502155
-0.00046698
0.00042085
0.000345667
-0.000405158
-5.59032e-05
6.61542e-05
-3.79421e-05
0.000691037
-0.000544168
-0.000777015
0.000630146
0.000148247
0.000359416
8.81792e-05
0.000291683
-0.000233489
-0.000145027
0.000218918
0.000168841
6.93396e-05
0.000131577
-0.000681147
0.000822154
-0.000143578
-0.000127406
-6.2953e-05
0.000190359
-7.22194e-06
0.000849995
-0.000809995
0.00043952
0.000343686
-0.000359812
0.000369819
0.000108385
-0.000627453
0.000578693
-0.000363818
0.000496858
-0.000133041
0.000182385
-0.000104505
-0.000721771
7.14637e-05
-0.000312488
0.000962796
-0.000468236
0.000438668
-0.000347807
0.000377374
-3.75866e-05
2.01586e-05
0.000938122
0.000753492
-0.000525424
0.000521316
-0.000749383
-0.000228761
0.000138139
0.00023545
0.000169626
-0.000212455
1.09582e-05
5.58844e-05
-6.46096e-05
0.000208522
-7.2135e-05
-0.000692026
0.000550678
-0.000290541
-0.000192891
-0.000577058
-0.00120045
-0.000234933
0.000758312
0.000369057
8.05079e-05
-0.000314925
0.000380664
-0.000553907
0.000699921
4.17982e-05
-0.000263284
0.000301994
0.000529351
-1.48957e-05
-6.82611e-05
-0.000283057
0.000286708
0.000193351
-0.000766882
5.46707e-05
0.00051886
-0.000655946
0.000621498
0.000157103
-0.000561863
0.000169211
0.000743332
-4.97292e-05
0.000534408
0.000170613
0.000426134
-0.000197018
0.000233568
-3.65503e-05
0.000463232
5.4882e-05
-8.0474e-05
2.39051e-05
5.92862e-05
0.000277317
-0.000336603
4.36284e-05
0.000488655
-0.000637562
0.00023007
-0.000497605
-0.000671608
0.000181443
0.000256899
-0.000307682
-0.000511079
-0.000221174
0.000255674
-0.0001678
0.000566378
0.000190572
-0.000530973
0.000292387
0.000654217
-0.000671588
0.000762044
-0.000266966
0.000416152
-0.000480085
-0.00015522
2.61972e-05
3.64129e-06
3.48268e-05
0.000391948
-0.000416581
0.000625867
-0.000633089
-0.000714272
-0.000957313
0.00030938
0.000708916
-0.000613276
-0.000257324
0.000290871
-0.000672942
0.00035246
-0.000374745
0.000695227
-0.00012018
1.30002e-05
0.000138462
0.000402961
0.000471336
-0.000305363
0.000753757
0.000310858
0.000687134
-0.000737601
-6.86293e-05
2.28442e-05
0.000536382
-0.000492158
-0.000247769
0.000203546
0.000330367
8.81262e-05
-0.00021566
-0.00103318
0.000956235
0.000325212
-0.000582151
-6.10013e-05
-5.35754e-05
9.73322e-05
1.72444e-05
-8.572e-05
4.18519e-05
-6.71662e-05
-0.000227817
3.16991e-05
-0.000688378
0.000494638
-0.000572329
3.03551e-05
0.00040857
-0.000406102
0.000419636
0.000753191
-0.000834411
0.000783465
-0.000702245
0.000138246
0.00102416
-0.000856212
-2.6969e-05
4.55465e-05
0.000261721
7.11115e-05
-9.56487e-05
0.000671996
-4.65938e-05
-4.45292e-05
0.000162272
-0.000454743
-0.000383694
-3.36563e-05
0.000267225
-0.000601592
0.000581806
-0.000668591
-0.000180413
-0.000201678
-0.000130873
0.000440575
-0.00049414
-0.000713852
0.00053505
2.87597e-05
0.00038197
-0.000443615
0.000325132
0.000363744
-0.000245482
0.000397461
-0.000103799
0.000134183
-0.000106963
0.000507187
4.01091e-05
0.000476075
0.000105314
0.000159799
0.000537533
0.000827414
-0.000989708
-0.000100594
-0.000370376
-0.000565323
0.000575887
-0.000455281
0.000159791
0.000712878
-0.000751693
0.000559433
-5.16208e-05
4.02337e-05
3.53401e-05
0.000134933
-4.53643e-05
0.000597565
-1.18802e-05
0.000637747
-8.30978e-05
-0.00035174
-0.000108511
-0.000500371
-0.000545657
-0.000420284
-0.000274469
-6.18715e-05
0.00100238
-9.24141e-05
-0.000651037
0.000258182
1.91349e-05
0.000230146
0.000443742
9.84586e-06
-0.000143663
-0.000880492
-0.000151784
0.000428801
-0.000641351
-0.00017858
0.000138365
-9.49842e-05
0.000240553
9.29018e-05
5.10367e-05
-0.000114947
-0.000188112
0.000132605
0.000773507
0.000893881
9.054e-05
0.000324878
0.000944069
-0.000884997
0.000869982
-7.44217e-05
-6.2418e-05
6.89066e-05
7.82633e-05
0.00103469
-9.06259e-05
-3.69622e-05
0.000289497
0.000255085
-6.3415e-05
0.000406167
-0.000414479
-0.000342774
-0.000547979
-0.000812258
-7.27388e-05
0.000298481
-0.000545668
0.000315258
-6.80697e-05
0.000109413
-0.000205945
0.000131628
-3.50957e-05
9.32135e-05
0.00032909
-0.000562417
-8.08291e-05
0.000109539
-0.000162968
0.000203694
-4.07261e-05
-0.000332762
0.000127689
0.000271228
0.000249152
0.000287763
0.000858274
-0.00012847
-3.4498e-05
-7.33417e-05
9.77583e-05
-2.44166e-05
-0.00036473
-0.000397521
0.000455652
-5.81309e-05
-6.61784e-05
9.05184e-05
-5.71047e-05
-1.6237e-05
0.000945709
0.000341883
-0.000291532
-5.0351e-05
-0.000109882
-0.000490543
0.000208936
-0.00069676
-3.07118e-05
-3.84305e-05
0.000676177
-0.000101218
0.00113591
1.03551e-05
0.000247827
-5.5638e-05
0.000316248
-0.000270348
0.00052404
-4.04843e-05
6.84864e-05
-0.000713557
0.000685555
-0.000296141
-0.000150159
-2.04009e-05
-0.000712189
-4.74821e-05
-0.000717207
0.000199023
0.00065578
6.73467e-05
-0.000142291
0.000839988
-0.000319992
4.08927e-05
9.59377e-05
-0.000127073
-0.000575927
-0.000568607
1.3129e-05
4.57227e-06
-0.000699795
-2.36126e-05
0.000526676
0.000569222
-0.00055777
-0.000293999
0.000202983
-0.00028782
4.47609e-05
-0.000231295
0.000277074
-0.000466054
-0.000262249
-0.000257006
0.000218541
0.000128239
-0.000433795
0.000475918
0.000113059
0.000358995
-8.57862e-05
-2.53084e-05
0.000143094
-4.28558e-05
2.74502e-05
0.000298378
1.35921e-05
-6.2818e-05
0.000905663
-8.58199e-05
0.000522801
-0.000740736
6.32132e-05
-1.91377e-06
-0.000508657
0.000477665
-0.000334322
-1.55356e-05
0.000205031
-0.000428375
0.000491502
8.59602e-06
-0.000430998
8.59078e-05
-2.28402e-05
-0.000171635
0.00016021
-1.7785e-05
-0.000138553
0.000411869
2.69021e-05
-0.000111318
-0.000137136
0.000255502
0.000100552
-0.000128965
0.000187971
-0.000104719
6.03626e-05
-5.60478e-05
0.000313423
1.02577e-05
0.000411966
0.00025915
-0.000891511
6.49561e-05
0.000163277
-0.000137874
-0.000515997
-4.11117e-06
-0.000265045
-0.000245071
6.76319e-05
0.000168364
-0.000135622
0.000319052
-9.00665e-05
-0.000107377
-2.48357e-05
3.20052e-05
6.97204e-05
-0.000112558
-0.000768457
-4.22121e-05
0.000127117
-3.26754e-05
0.000439116
0.00109731
6.7502e-05
0.000797034
-0.00032313
0.000143066
5.09798e-05
-5.35566e-05
2.57677e-06
-0.000349852
0.000413566
-0.000851591
0.000949639
0.000683934
6.57342e-05
-0.000183811
-0.000449699
-0.000347404
0.000572085
0.000132208
0.000248455
-0.00118463
-0.000306034
0.000378625
-0.000725593
0.00076475
1.83046e-05
-0.000709029
-0.000699474
0.000368281
-0.000209972
-0.000641538
-0.000414469
0.000107053
-6.12483e-06
6.43936e-05
-8.63048e-05
8.51245e-05
-0.000425601
0.000161054
-0.000328903
-8.37916e-05
7.88456e-05
5.38686e-05
0.000345816
-2.02541e-06
3.69697e-06
-2.17094e-05
6.04644e-06
-0.000478835
6.6553e-05
5.75694e-05
-0.000609257
-0.00022134
0.000631333
-2.53218e-05
0.000605376
-8.44081e-05
-0.000252752
0.000695536
-0.000672984
-5.24274e-06
0.000105758
-0.000525991
0.000258681
-0.0011232
0.000110874
-0.000113162
-0.000826158
0.000230719
0.000708601
-8.92081e-05
0.000993038
-0.000411899
0.00013357
0.000286706
-0.000646543
0.000242949
-0.000633302
0.000583961
1.72126e-05
-0.000494233
-0.00052931
0.000624217
-4.30772e-05
-0.000490352
3.92085e-05
0.000632541
1.05738e-05
-1.42322e-05
9.1666e-05
-0.000101419
4.29361e-05
0.000336151
0.00058039
-5.75896e-05
-0.000629218
-0.000111518
4.17619e-05
0.000528813
-7.68771e-05
0.000431683
0.000196882
3.17034e-05
-0.000162342
-0.000599489
0.000396745
0.000264637
0.000597229
0.000250457
-0.000543589
-9.20423e-05
0.000110785
-4.5024e-05
6.52232e-05
0.000460743
-0.000610974
-7.11095e-05
0.000701117
2.9148e-05
-0.0002688
-0.000712428
-7.19733e-05
0.000695193
-1.47302e-05
0.000541675
-0.000756983
0.00111446
-7.0596e-05
0.000132081
1.61118e-05
-5.03655e-05
0.00029899
-0.000494209
0.000124491
-0.000175897
0.000256758
-0.000402635
8.14307e-05
3.46153e-05
-0.000109486
7.49568e-05
-6.49721e-05
9.95008e-05
0.000169936
-1.43217e-05
0.00040004
3.51104e-05
-0.000518316
-0.000177774
-0.000166849
0.000235137
-0.000297812
-0.000441709
6.97752e-05
0.000791893
-6.79678e-05
-0.0007937
-0.000217053
-0.000270868
0.000275917
0.000212004
-0.000178299
0.000206266
-5.31566e-05
-0.000761586
0.000717515
-0.000277482
-0.000430582
0.000427353
-0.000751794
-0.000615335
0.000215152
5.9718e-05
-6.29965e-05
-0.000191854
0.000150465
-6.9314e-05
0.000100675
-7.11065e-05
0.000743679
8.56333e-05
-0.000747372
-0.000576834
-0.000319085
0.000902575
-0.000156781
-0.000531493
-0.000102586
0.00015085
-0.000324369
-0.000358964
0.000594293
-0.000366739
0.000426107
0.000689591
-0.000594472
-9.51195e-05
-0.000477794
0.000492681
-1.48873e-05
-0.000438802
0.000403238
-0.000384147
-1.90912e-05
0.000786402
0.000479278
-0.000376651
0.000377776
-1.12457e-06
0.000427202
5.05507e-05
0.000432478
-5.47025e-05
-0.000548916
0.000891189
0.000482259
0.0005392
-0.000522147
-1.7053e-05
0.00049447
0.000454681
0.000435275
1.94059e-05
0.000489836
4.63341e-06
0.000427955
7.32021e-06
0.000446324
-1.83687e-05
0.000467468
-3.07393e-05
0.000776896
0.000537871
-7.97259e-05
0.000129252
5.48221e-05
-8.01173e-05
6.49034e-05
-6.05618e-05
-4.16225e-05
0.000916495
-0.000141208
-6.02633e-05
0.000161595
0.000537462
-1.17138e-05
0.00065315
4.32131e-05
4.412e-05
-5.48725e-05
0.000240256
-4.28798e-05
5.33789e-05
0.000224184
0.000749476
-0.000769038
-3.63373e-05
0.000579346
0.000128701
-8.88288e-05
-5.60216e-06
1.35621e-05
-0.000129806
-7.43619e-05
-8.65918e-05
0.000471165
0.000672511
-0.000517251
0.00025922
2.9659e-05
3.82551e-05
-0.000184675
-9.97462e-05
0.000825956
-0.00106358
9.06007e-05
0.000291867
-8.9881e-05
0.000704156
-9.23785e-05
0.000373922
-0.0009857
-0.000188064
-1.99777e-05
0.000125053
0.000242075
-4.42341e-05
-0.00014742
0.000532016
-0.000512659
6.37932e-05
-0.000308196
0.000133393
0.000185111
0.000105955
8.95321e-05
-0.000118006
0.000108937
-0.000134508
-6.90468e-05
9.48964e-05
0.000252494
-0.00073484
-8.40332e-05
0.000686428
-0.000624881
0.000631498
-0.000277627
-0.000102331
-0.000224985
-6.93032e-05
1.32686e-05
9.66829e-05
2.97728e-05
4.77752e-05
-0.000448176
0.00044859
0.000105151
-9.89787e-05
-7.64421e-05
-6.7073e-05
6.14708e-05
0.000443937
-0.000667707
-3.59695e-05
-0.000490972
0.000151927
0.000188372
-0.000249329
-2.1687e-05
-0.000141474
0.00019203
0.000171578
-0.000477725
-0.000121642
-0.0008071
-0.00011594
-0.000144308
0.00069708
1.2553e-05
6.09006e-05
-0.000153944
0.000914691
-0.000360858
0.000136372
6.5713e-05
-1.71515e-05
-7.37366e-05
9.62587e-05
7.79992e-05
-0.000323512
8.90574e-08
-0.000155365
0.000150801
0.000250653
5.10816e-05
-0.000337176
7.49104e-05
-8.36686e-05
2.17584e-05
-0.000626615
-1.31023e-05
0.000230706
7.96437e-05
0.000214379
-0.000463144
-0.000234227
0.00086008
6.74082e-05
-8.8e-05
6.28663e-05
3.25055e-05
2.09471e-05
-0.000111792
0.000195245
-0.00039668
-0.00015295
0.000601745
-0.000346214
8.31275e-05
0.00012404
-9.21673e-05
-0.000238029
0.000513213
-0.000586752
0.000289699
-0.00125487
0.00132149
-0.000859485