/*--------------------------------*- C++ -*----------------------------------*\
| =========                 |                                                 |
| \\      /  F ield         | OpenFOAM: The Open Source CFD Toolbox           |
|  \\    /   O peration     | Version:  v1912                                 |
|   \\  /    A nd           | Website:  www.openfoam.com                      |
|    \\/     M anipulation  |                                                 |
\*---------------------------------------------------------------------------*/
FoamFile
{
    version     2.0;
    format      ascii;
    class       volScalarField;
    location    "0.93";
    object      k;
}
// * * * * * * * * * * * * * * * * * * * * * * * * * * * * * * * * * * * * * //

dimensions      [0 2 -2 0 0 0 0];


internalField   nonuniform List<scalar> 
5794
(
0.0471656
0.0457209
0.464041
2.48286
2.85105
0.126068
0.359703
0.164031
1.53698
0.0383425
0.908759
0.278555
0.381198
1.84411
0.0757863
0.160763
6.54672
2.02316
0.0630148
0.0297783
1.01589
0.0884517
0.70711
0.109392
0.449361
2.15617
6.53042
2.34721
2.03066
0.0658924
0.300789
0.518851
0.757673
0.07437
0.16057
0.262436
0.196673
0.714479
0.928677
2.8253
1.35448
0.457347
0.278015
0.437063
0.0742843
1.10026
0.709879
0.341406
0.0317604
0.107512
0.195187
1.40436
0.0755267
0.0678901
0.0103895
1.04902
0.641147
0.502415
0.218425
3.5735
0.937025
0.0327329
0.257444
0.882713
1.2783
0.0503306
1.80264
0.463956
1.8692
0.0246347
2.35162
1.81367
7.54247
0.150905
1.92043
1.48189
0.0724259
1.64998
0.388255
0.0919657
0.0637931
0.0256675
1.03924
0.694195
0.507509
0.830394
0.529541
1.06663
0.175973
1.04873
2.48285
0.75761
1.57924
2.57742
1.02222
2.41712
1.90507
1.38083
0.699969
1.02425
0.900289
0.312196
0.24895
2.42291
0.540938
3.53159
0.0292035
0.644456
1.57716
0.340673
0.0623789
0.0456367
0.919927
0.0983445
0.866939
1.96377
0.0705295
2.38894
0.858529
0.497727
2.86519
0.0335205
0.235277
1.97753
0.0606892
1.42595
1.55947
0.153403
1.62048
0.69212
0.300518
0.437364
0.972472
1.45701
3.43497
0.0795138
2.01632
0.0347909
0.350504
0.0578886
0.12563
2.12038
0.0722698
2.29852
0.384135
6.68389
1.10538
0.91139
2.19469
1.31442
0.314316
0.047621
3.52054
0.233304
7.00887
0.906898
0.763922
0.506452
1.38823
0.552744
0.0336431
0.113592
0.0423984
0.180982
1.13948
1.2327
0.209723
0.112295
0.044643
0.0282257
0.0380904
0.816248
0.130903
0.0896607
0.0496276
0.542479
0.0293889
0.329964
0.0671844
1.2969
0.140431
0.50661
0.147283
0.908039
0.183312
3.663
0.346881
0.450136
0.0229942
0.244735
0.923732
0.470118
0.726764
0.192232
0.388928
0.261003
0.216312
0.0636446
0.0401832
0.276325
0.408179
1.22501
0.251951
0.240405
0.735074
1.11627
0.168999
1.11095
5.03758
1.00142
0.286259
0.312833
0.335917
0.170055
0.0895751
0.3079
0.454891
1.1959
1.0779
2.1703
0.305894
0.88443
3.82527
1.52583
1.97239
3.59942
0.232147
0.0529199
0.0299344
0.080292
0.123287
0.0919012
0.0561255
1.15518
0.947168
4.91615
5.90053
0.878962
0.34337
0.0860824
0.0258858
2.19409
0.975747
0.808965
0.313027
0.118647
0.0761764
1.95231
1.36905
0.940448
0.537419
0.0541001
6.69077
0.0328739
0.211428
5.71104
0.264854
0.429378
0.79599
0.0560772
1.50103
0.328835
0.172222
0.0486668
0.524747
0.432131
1.799
1.70578
0.0457763
1.36912
0.912256
0.319036
0.773256
2.04643
0.397575
0.0667376
0.0653509
0.125375
0.0282678
0.381986
0.140805
1.71673
1.15769
0.373056
2.0463
2.38731
1.06443
1.30158
2.92977
2.92169
0.189993
0.115624
0.0771907
0.0581232
0.203523
2.01852
0.888414
0.311188
1.30992
0.0674985
0.0257645
0.774317
0.068131
1.2328
0.207127
1.60514
0.0274729
1.55289
1.34709
0.906656
0.433088
1.16
1.10778
0.101582
0.292423
0.594128
0.831093
2.66599
1.53423
2.39667
0.28255
0.282917
2.17072
2.72307
0.200047
0.622154
0.152743
0.27036
0.388695
0.84058
1.2011
0.280719
0.23381
0.610203
0.431873
0.0286495
0.0306541
0.0406768
0.0208085
0.334394
0.0867163
0.383381
1.41705
0.613465
0.0364888
0.132185
1.19795
0.600972
1.41785
0.879726
1.13908
3.3212
0.771042
0.468476
0.16646
2.78623
0.0564174
1.27914
0.374815
0.17475
0.983267
0.65762
1.79688
0.436114
0.197996
0.373921
1.11869
0.981855
0.624009
0.40459
0.0670597
0.0417496
0.399431
0.30366
1.24551
1.29099
0.874385
0.576828
0.7101
0.0258508
0.232654
0.0663883
0.322957
0.235895
0.139742
0.0697946
2.5972
0.387907
0.158396
0.24084
0.112986
1.08097
0.0255708
0.182474
0.0992688
0.0721318
0.0426806
0.153709
0.064996
0.632556
0.0933364
0.359139
5.28601
0.0637159
0.0531882
1.12395
0.461031
0.133038
0.0426808
1.90483
1.37672
0.680951
1.25825
0.608353
1.20437
0.804475
0.189778
2.0164
1.08278
1.77549
0.681682
1.30702
0.921442
0.0692946
0.171992
0.109859
0.0534154
0.0929514
0.0296499
0.0777434
1.40802
0.224166
2.06164
1.35835
0.0681843
0.0571995
0.321701
0.524457
0.19488
0.11835
0.0674635
0.26957
0.236753
0.178229
0.127627
2.18945
0.931951
0.293082
0.0511247
1.29953
0.0355643
0.0367731
1.40635
0.0851313
1.95567
0.0403558
1.94625
2.47695
1.2702
3.6214
0.0971176
0.0599281
0.374046
0.150011
1.12348
0.694536
4.40445
3.96403
1.01369
0.318668
0.0255517
5.75495
1.57314
0.0425379
0.0559778
1.81706
6.71426
2.67694
0.221591
0.0540493
0.661375
0.0929394
0.0448071
0.0360402
0.924034
1.12421
0.311834
0.142667
2.83339
0.0741607
0.0358763
2.23137
2.05669
2.46511
0.432009
0.0627852
0.0596057
0.0709446
0.202554
1.01145
4.5764
6.58233
0.265481
0.434643
2.36519
0.0624667
0.104392
0.624696
1.44781
0.0625364
2.38449
0.0279697
0.307
0.0415515
0.102243
0.792778
1.76742
0.040708
0.222808
5.3373
0.153236
0.0497676
3.43817
2.4583
0.759417
0.0747515
0.296461
1.04335
0.0477138
0.10196
0.528912
0.0443953
4.25347
0.0736118
0.148506
0.0929617
0.240244
2.31095
0.671216
1.23719
0.0863898
1.58403
0.0239543
1.68238
0.208736
0.18388
0.214803
2.3031
0.0844784
0.129694
2.51038
0.0315848
0.0363275
0.227721
0.146265
0.0969731
0.502651
0.103353
0.0475739
1.91419
10.0463
0.0468184
1.46082
0.0468968
1.675
0.143854
0.11281
1.17625
0.0800157
0.065905
1.24019
0.91195
1.44845
1.18962
1.5289
0.292001
4.11348
1.74729
0.390903
1.11991
2.09819
0.872592
3.01413
4.13155
1.70607
0.921805
0.0842261
1.73415
0.758548
2.20359
0.0663723
0.142104
0.0387748
2.34566
0.928102
1.17289
0.0240743
0.293625
0.0366278
0.0956161
0.041858
1.38286
0.947726
2.52742
0.0510332
0.50972
2.40194
0.0281998
0.0119876
0.798778
4.40023
5.67526
2.18876
0.182191
0.127859
0.171422
0.922993
0.58878
0.269211
1.25076
0.0246532
1.2466
1.66378
0.896942
0.0268839
0.0930391
0.312886
2.34373
2.25098
0.0786071
0.0756569
0.0271056
0.0199664
0.169206
0.0462008
0.0452351
1.8153
0.487438
0.0413981
2.48308
0.23048
0.288394
1.11495
0.812494
1.99828
2.76928
1.08489
0.737927
0.0744272
0.0370689
0.111468
0.2518
0.0744779
0.138698
0.121807
1.6095
5.96882
1.09179
2.0922
0.392748
0.0377523
0.0413444
0.0900086
0.880281
0.0468088
1.25994
3.02407
2.47842
1.08406
1.214
0.900107
0.177801
5.19785
0.77602
0.62577
1.02702
2.73014
0.21771
2.23724
0.149876
0.0632746
1.18222
0.0718332
0.225816
1.92351
2.07382
2.23479
0.0714054
0.0307215
0.0434098
1.73457
3.95625
1.66094
1.23335
0.0583606
0.950701
1.11388
0.0332168
0.100382
0.289958
0.0238541
0.285805
0.0433018
0.449386
1.88438
2.40675
1.41184
0.0406776
0.0832483
2.94835
0.51675
4.00079
1.34404
1.56635
1.41424
0.373844
0.267207
7.08092
1.26946
1.38796
1.91633
2.15301
2.34464
0.100091
5.14411
0.221098
0.366315
0.507023
2.89673
0.639733
1.15371
1.15213
3.01907
0.832012
0.0584228
0.197659
4.78276
0.752533
0.740464
1.5166
2.22595
0.0339987
0.0597288
0.0264816
0.128493
2.16546
1.05342
2.57865
0.14115
0.283228
0.11729
0.206693
0.0754892
0.0408281
0.90138
2.32814
0.20689
2.75252
1.06697
0.260549
0.145027
6.85616
2.07691
1.21017
3.08137
2.55492
1.11656
1.44546
0.38987
1.59308
0.729914
2.09162
1.76906
0.0734294
0.222172
0.0524076
0.0592852
0.249541
2.63171
0.130395
1.27924
6.44533
0.395491
0.111686
0.0579755
2.16334
0.964055
1.27289
2.2509
0.913658
0.384813
2.27798
2.12005
1.22723
0.178587
1.05735
0.0355842
2.05026
0.0815513
1.80422
0.303753
0.905441
0.130176
0.13462
0.0978215
0.0509635
1.2479
1.63335
1.67473
4.26755
1.30538
0.125111
0.277041
0.639024
3.84203
0.0876357
0.508294
0.695833
2.54936
0.0476312
0.108713
0.519555
0.87109
5.28792
0.0824646
0.386042
0.0417187
0.0441949
0.0574641
0.786774
1.8702
2.09766
0.28284
0.0721784
2.58923
0.0475989
0.39708
7.90318
0.0538174
0.0165364
0.122715
0.0344264
1.02261
0.385942
0.498185
0.0868356
0.133701
0.219078
0.316545
6.71822
0.994164
2.67224
0.868777
1.18142
1.66022
1.13217
5.19131
1.35776
0.103155
0.0422439
0.206877
1.92665
0.264691
0.0565907
4.10125
1.4647
2.06642
0.855609
0.0707865
2.58274
0.361486
0.348558
1.34468
0.133431
3.23156
0.0366825
0.0706763
1.40265
0.391838
0.230773
0.194189
1.67484
0.676151
0.263082
0.0453491
0.0714294
0.795527
1.75715
0.306595
0.29936
1.01302
0.131995
1.14505
2.96134
1.90526
2.35007
2.36505
0.072268
0.0337668
1.30184
0.0793687
0.0493595
0.0424657
0.167385
0.761716
0.0285534
0.254303
0.0764389
3.10873
1.28617
0.797139
0.27581
0.518322
0.991084
6.33419
0.762218
1.64458
0.234405
0.0623077
5.9819
0.373504
1.17829
0.262087
1.30945
0.800475
1.01574
0.100283
1.62444
1.13017
0.128261
0.0722928
0.0455401
0.0742294
0.0287714
0.73216
2.59439
3.38034
1.6901
0.680704
1.27346
1.75151
0.323956
0.0459112
0.118942
1.25307
0.0756587
5.9693
1.22521
2.04716
0.246416
2.62457
1.11534
0.0400524
0.0792192
6.26858
3.51928
0.305134
0.437747
0.474184
1.57169
0.0580739
2.86494
0.0435199
0.138093
0.103612
0.0380235
0.0344586
0.0440594
0.155898
0.0673893
0.0368146
0.054228
0.264372
2.46642
0.215881
0.0316798
0.079703
1.18826
0.299685
0.51996
0.104007
0.631379
0.0463622
0.640107
0.200185
0.117878
0.06638
0.486092
1.5143
0.057189
0.30432
0.0485476
0.162516
0.291835
1.23707
0.430985
5.22407
1.85262
0.0665659
0.318547
0.531514
2.32394
0.541498
0.912968
1.12573
2.43803
0.117013
0.236427
0.0700758
0.103418
0.417912
0.397474
1.86036
1.7065
1.35429
0.0129466
0.705968
1.47531
0.87556
0.828585
0.956703
0.0276468
0.0910889
0.0481323
0.728819
0.302595
2.29748
0.200868
0.448167
0.196753
0.204877
0.287322
0.303587
0.0411556
0.0914562
1.92219
2.03886
0.75473
0.0276222
0.274534
1.29382
0.0718039
0.0515562
0.0643178
0.118615
0.873961
0.0798827
1.41876
0.0324314
0.311412
1.0887
0.0430298
3.38792
0.28849
0.0492972
0.398552
2.63744
0.0557528
1.58138
0.150888
0.126967
0.057974
0.166441
0.0269701
0.0567024
0.309291
0.0530571
0.0305667
0.0604174
0.106896
0.165768
1.6335
0.547211
0.268442
2.46572
0.957282
0.0404827
0.040071
2.82338
0.424699
1.26313
3.05959
0.0507643
0.498146
0.0453139
3.96545
0.0346537
1.62656
0.0332465
4.5187
1.12986
0.0304578
0.662964
0.045654
0.200318
0.124234
0.160217
0.620448
0.644184
0.041161
0.676446
0.0183387
0.0351125
0.242691
0.061492
0.115344
1.85002
0.223171
1.13971
0.0292537
1.1864
0.0334293
0.124143
0.0546207
0.198755
2.16848
0.405466
0.200947
0.573064
0.249905
0.420867
5.42645
2.24749
0.0380687
0.394851
2.08413
0.888015
1.71352
0.239253
1.84261
2.05211
1.49156
0.496156
2.39991
0.266265
0.264852
0.0423721
0.126516
0.198484
0.0697046
10.39
0.692908
0.0587564
0.182725
1.69227
1.64881
0.271175
0.0830969
0.294012
0.556438
0.142554
0.0559882
3.228
0.171095
1.41862
0.491951
2.61628
0.0440233
0.135968
0.115803
0.353371
0.230894
0.601077
0.0428525
0.796967
0.0867467
4.9757
0.235849
0.266756
0.191142
0.484661
0.292542
0.391783
0.333171
0.193594
0.138618
0.125138
2.00035
0.292237
0.214318
0.0306725
0.0729917
0.616342
2.03044
0.666413
0.113619
0.32144
0.252827
0.174696
0.255835
0.239586
0.317814
0.303067
0.322841
0.558031
0.0495714
2.27008
0.0385758
6.45518
0.053841
0.0277142
0.0503319
0.103875
0.0526428
1.28435
0.0566309
0.230885
0.144031
0.190043
0.661314
1.99206
1.09772
0.0315341
0.0471261
0.180906
0.272044
1.66941
1.13065
0.238351
0.281673
0.0246372
2.2475
0.210571
1.02783
1.57419
0.17961
0.281823
0.652269
0.0793146
0.0386035
2.02186
2.45878
0.63088
0.988915
0.535238
0.450389
0.0337728
2.33027
6.73997
1.96203
1.21708
0.0507455
0.10153
1.09125
0.304615
0.181393
0.0353469
0.337544
1.19166
0.228037
0.0475079
0.444024
0.0965031
0.0508682
0.111456
0.275928
2.017
0.0884513
0.532159
1.47202
3.43202
3.55165
0.136058
0.878362
0.197788
2.23289
0.260196
2.01699
2.60987
0.897593
1.622
0.115627
2.4742
1.3186
5.78522
0.196393
0.0509712
0.0474606
3.84386
0.192481
0.0706208
1.56156
0.762724
0.139015
1.23743
0.804522
0.199435
2.27191
0.181778
0.0263302
0.257461
0.274058
0.049663
0.0698966
1.25526
0.293961
1.52946
1.29544
1.70229
0.0345249
3.27884
0.236523
1.00041
0.669929
0.264096
0.18596
0.0539578
2.03737
0.072453
0.0624823
0.0375831
3.27932
0.0293888
0.319667
1.61877
4.12735
0.101133
1.73599
4.75317
0.129526
0.27799
0.0232661
1.1433
0.437278
2.36719
2.5249
0.123667
0.151113
0.990556
1.35961
0.626693
1.68525
1.07478
1.38537
0.973169
1.46637
0.169225
0.0513634
1.03962
0.0707178
2.52338
0.0357142
0.114877
0.0399542
0.532535
0.305892
0.125938
0.0563969
0.151755
0.2229
0.0455461
0.0604071
0.0475504
0.263648
0.309311
1.01406
0.923369
0.091946
2.91379
1.35657
2.04825
0.437022
0.0720352
0.958352
0.0605411
0.0386448
0.023649
0.039954
10.8797
0.323285
1.15646
0.685403
1.80663
2.02374
0.568433
0.0192515
0.0284348
0.0483606
0.0361266
0.0918565
0.0886355
0.107419
0.0569705
0.105077
0.134917
0.109887
0.0592179
0.0528104
0.0302298
0.032696
0.101912
0.105542
0.104672
0.0729334
0.0447736
0.0729207
0.0263341
0.0367604
0.0142304
0.242561
0.0521711
0.0437643
0.0279461
0.12256
0.0344873
0.0615983
0.0546748
0.0316223
0.0514711
0.0385653
0.0220277
0.0795645
0.0344379
0.0534298
0.168044
0.0322086
0.0223335
0.0480891
0.058627
0.371386
0.479393
5.41916
0.0430264
0.473207
1.07333
2.33744
2.45881
0.0443536
0.0713489
0.388258
0.041893
0.75338
2.21973
8.76091
3.60645
2.50232
0.891195
0.0277856
0.0266645
0.138881
0.0399659
0.0644546
1.11103
0.221439
0.385113
0.10033
0.418658
1.00627
1.02301
0.109843
1.22469
0.631241
9.64734
0.0723735
0.328495
0.170878
0.336745
2.93424
0.115186
1.02002
1.83993
0.902388
1.25925
0.663311
0.626287
0.387571
0.327952
0.362151
11.8827
0.070782
0.0851267
0.0574461
1.98181
2.52174
0.0259385
1.66338
1.97453
0.0587053
0.0847084
0.12446
0.0628633
0.0279844
0.105367
0.118923
0.0286002
0.0339109
0.142869
0.0620318
0.0510704
0.0171966
0.058519
0.0315726
0.0489308
0.0653943
0.0345508
0.0892721
0.0281443
0.0399261
0.0202499
0.0436368
1.24527
1.40494
0.18337
0.463529
0.362845
0.362255
1.92115
0.0502252
1.42992
2.43569
0.54123
1.14846
2.58075
0.177751
0.0229858
2.58141
0.963189
0.0549468
6.95438
2.2433
2.17344
0.0396906
2.88762
0.767218
0.062333
2.92954
0.361833
1.52918
0.207906
0.255027
0.165646
2.06183
0.053071
2.04661
3.36051
0.250814
3.04806
0.0542042
2.91419
0.0503931
0.146084
0.0448963
2.17505
0.0579692
0.0744785
0.31711
0.0625862
2.93618
0.315591
1.71813
0.372618
0.617343
0.626895
6.14886
0.0300017
0.279728
0.303737
2.54177
1.1385
0.0443725
0.0407053
0.930473
0.590179
2.77342
0.307996
0.0687443
0.279383
0.129346
0.594015
0.0635255
1.80446
0.504937
0.0221834
0.0241551
2.97039
2.60974
0.327635
0.807788
1.94889
0.270556
2.76506
3.84357
2.17793
2.76062
2.12173
0.0666979
2.04209
0.0638342
0.133081
0.0598814
1.91558
0.25133
0.23267
0.291
2.76612
0.603003
0.047352
0.0886071
0.112794
0.763313
2.02423
2.76133
4.44798
1.51009
0.618108
2.36466
0.262835
0.80434
0.774435
0.907918
1.81758
2.99319
1.1816
2.76829
1.04276
3.11169
1.3044
0.203474
1.22421
0.969716
0.479413
0.513879
0.443285
3.65633
0.69933
0.346006
1.49736
0.949559
1.32141
0.223752
0.341824
6.53001
0.665302
2.27378
0.930944
0.0768628
0.0376699
0.096021
1.49894
0.0519972
0.122272
0.137201
3.07794
3.21546
2.5796
2.2133
3.35006
2.79393
3.37496
0.0595964
3.3917
3.26367
2.96097
2.47332
3.16566
2.36413
3.28937
3.15991
3.26385
0.569833
0.543287
0.406304
5.32368
0.409715
0.265377
0.158196
0.234043
0.0277689
0.0347715
0.905548
1.91468
0.590852
0.107745
0.143264
1.95795
1.82938
1.32356
0.570924
0.180095
0.232976
0.134922
0.161592
0.669074
0.183777
1.32782
0.125469
0.756632
0.29851
0.239376
0.0948992
1.09199
0.108047
0.347371
0.285054
0.0367128
0.829945
0.20992
0.11462
0.17515
0.116992
0.0863905
1.45319
0.0923556
1.19778
0.873786
0.299567
1.22884
3.55473
0.0948746
1.59055
1.00239
0.835255
3.56797
0.0614808
0.0813256
3.4336
1.17434
1.80827
0.100602
0.364975
2.07665
3.5933
1.64855
0.082577
0.0864327
0.0797936
1.06196
0.3212
7.19614
0.087589
0.397089
0.261465
0.0949698
0.952392
0.0592715
0.296286
1.30924
1.44759
0.584166
6.92591
2.94361
0.075977
3.09477
0.0972774
0.282351
0.585576
0.0662488
2.04493
0.34772
6.72007
0.491943
0.24184
0.0667102
2.2225
6.48018
0.0688225
1.28329
1.70607
0.817033
0.397197
0.229019
0.0687469
0.237529
2.00052
1.2955
1.77683
5.32952
5.13529
0.177094
0.757113
0.210809
1.2506
0.337751
0.0765257
0.139931
2.03733
0.0462463
0.122474
0.111636
1.32423
0.257556
0.891702
0.201589
0.311509
0.376234
0.154905
0.299633
0.701464
0.129961
0.125283
0.375346
0.562173
0.081731
0.267407
0.161574
0.0811371
1.40359
0.253331
0.20381
0.45662
0.398093
0.0691944
0.238016
0.154432
0.349914
0.0770734
0.21708
1.22563
1.93091
0.235518
0.350992
0.133034
0.638806
0.422862
0.415091
0.140579
0.540562
0.412584
0.422418
0.087785
0.672995
0.577029
5.4272
0.330183
0.671981
0.551423
0.430228
0.431777
0.50107
0.351837
0.248631
0.534604
0.509333
0.44814
0.519149
0.560871
0.683485
0.322765
0.182886
0.34853
0.522496
0.18793
0.230934
0.637188
0.453103
0.380767
0.374012
0.310102
0.282695
0.269525
0.549004
0.227966
0.422478
0.0900386
0.126894
0.0469479
0.196012
1.20823
0.232513
1.97014
0.430767
0.186574
0.365655
0.465026
0.328427
1.32474
1.29213
0.537118
0.182015
0.514507
0.0974781
0.200607
0.0958756
0.313881
0.259681
0.33945
0.223341
5.61409
0.618179
0.131235
0.496441
0.499527
0.194591
0.125567
0.0445041
0.0761832
1.40884
0.456469
0.165078
0.272315
0.446502
0.114835
0.041219
0.0777925
1.89124
1.11618
0.239481
1.44856
1.62127
0.379457
0.151973
0.20196
5.59246
0.33107
0.0995241
0.252235
1.31318
0.321586
0.370136
0.914198
1.28878
0.41711
0.721282
0.831703
0.10703
0.0387807
0.0662208
0.668443
0.265212
0.545552
1.4059
1.51782
0.228029
5.45361
5.30168
0.125395
0.224764
0.416712
0.269195
0.816635
0.232416
0.687439
0.588314
0.505921
0.438516
0.479411
1.09546
1.18241
1.74948
0.165145
0.739129
0.383197
0.15948
0.519391
0.059515
0.060586
1.84028
0.666776
0.386202
1.6975
0.0879604
0.276861
0.504702
1.19053
0.64277
0.652443
0.0910185
0.0353958
0.0771205
1.36919
1.91994
0.153263
1.43692
1.35098
1.27445
1.87342
0.352536
0.185969
0.0572713
0.134041
0.25252
5.37815
0.119804
0.762009
2.15914
0.207007
0.31497
3.71071
0.0382312
0.13256
0.338533
0.546381
0.545428
0.639677
1.41907
1.82309
0.909111
1.0812
1.11379
0.0565866
0.506108
0.279637
0.0415803
0.0471809
0.0733123
0.220484
0.184561
1.04187
0.0821434
0.0373879
0.082501
1.98746
2.20274
0.0572271
0.0257376
3.48289
2.76259
0.710135
0.0512556
1.4713
0.317157
0.313233
0.0589949
0.277853
5.20743
0.115345
0.0758968
0.0610109
3.45498
2.09007
1.15712
0.124737
3.06381
1.89223
0.854782
0.441035
0.592567
0.446958
0.325239
0.396555
0.343737
0.419547
0.396588
1.98482
1.25563
0.116855
0.0947956
0.656564
2.42757
2.68041
3.43594
2.557
1.62229
0.393069
1.3204
0.364703
0.362071
1.4725
2.4797
3.10272
3.5336
1.14752
1.61312
0.92753
1.03305
0.655558
0.0957419
0.395019
0.0772503
0.0367926
0.0829673
0.271105
0.293243
0.255461
2.18207
2.67621
0.420965
3.16684
0.600234
0.656311
0.37745
0.149531
1.20197
0.598096
1.04586
0.484562
0.107476
0.227562
2.72442
0.607438
0.315708
0.0527157
1.56967
0.332613
0.417206
0.163445
1.55673
1.62992
0.327721
0.373419
1.19663
1.31842
0.139673
0.126431
0.0245751
0.27149
0.0909705
0.117696
3.00477
0.0981403
0.0476455
0.0895813
1.29691
0.135548
0.237521
2.45838
0.0728381
1.77593
0.37091
0.349845
0.396861
1.66393
1.7681
1.13488
0.374259
0.470783
3.46272
2.28804
0.0517545
0.210966
0.099928
0.413941
0.971065
0.202015
0.1025
0.316682
0.237538
0.0427497
0.126928
0.447067
0.0943381
0.310965
0.532888
0.369804
0.437568
0.197103
0.542578
1.70589
0.494511
0.782741
0.586316
0.207795
0.316796
2.77641
0.390418
3.16759
0.754853
0.434513
1.00844
1.09388
3.90071
0.832138
1.46415
0.312954
2.28974
0.607191
0.660547
0.114356
0.0762179
2.23688
0.653285
0.856053
0.426089
1.13771
0.624455
0.217365
1.78919
1.34603
1.51988
1.13092
0.567285
0.493563
0.0731131
0.0402104
0.0856428
2.21596
1.58344
1.32712
0.116974
0.0562742
3.30309
0.35507
1.94219
3.378
2.83732
3.25912
2.50383
0.0581149
0.613974
0.261543
0.477591
2.29604
2.78796
0.0976452
0.781993
0.960577
0.604842
1.71182
0.110559
1.16179
2.12754
2.70512
0.504706
0.0689544
2.29562
2.12611
0.737903
0.667212
1.77472
2.88933
0.577454
0.0764948
0.47821
1.65222
1.51802
0.0539641
0.919839
1.69952
0.610164
0.193388
0.689535
1.38831
3.40213
0.397399
0.21364
0.042386
0.0858543
1.53545
1.63059
2.74228
2.67038
1.77747
4.48218
0.180106
0.351207
0.627213
2.66315
0.408741
1.84913
1.0376
0.0656811
0.0938911
0.211403
0.0581081
0.0797226
3.23251
3.30735
3.07301
2.22069
5.10548
1.11444
0.691443
0.539542
3.21615
5.22008
1.97609
7.05476
0.202159
0.0603081
1.59928
3.29046
1.61332
1.25177
1.12484
0.592897
0.0672327
1.0941
0.0379175
0.0397979
1.83786
0.0904134
0.850475
0.055045
2.50253
0.372755
1.15678
0.676045
0.850915
0.448098
1.50857
2.14202
1.3974
0.0486971
3.8869
0.398957
0.367294
0.0566268
0.115974
0.183363
1.77564
2.70807
3.73772
0.173365
2.62
3.88644
0.116141
1.15408
0.347304
0.367499
0.0996574
0.304704
3.32798
1.52873
0.38177
0.368998
3.09096
1.0895
0.445922
0.800502
0.111995
0.71965
0.223379
2.7296
0.42774
1.92386
0.0688695
0.0609481
0.363313
3.6195
0.993444
2.9099
1.74598
0.15207
0.218523
1.49014
0.441671
0.0648262
3.70781
0.137945
0.0730412
1.78546
0.315613
3.36046
0.126029
2.77676
2.42739
0.0617125
0.767947
0.400504
3.03824
2.62365
0.239231
0.788011
1.28281
2.71115
0.359641
0.295516
0.275617
0.226979
0.0448357
0.0799294
2.48966
1.2845
0.655268
0.328662
2.63244
0.316453
2.55016
1.77502
0.138409
0.205061
1.63633
2.88137
0.0296765
0.0173378
0.0388756
2.66917
0.782479
2.96092
0.521171
0.408266
2.25583
3.27217
0.0606202
1.15475
3.11785
2.04947
0.887507
1.93494
0.147529
1.61981
1.0088
0.067196
0.0414561
0.0853423
0.796215
0.0746454
0.475327
1.35957
0.0702098
2.27878
1.01182
0.607036
0.623883
2.20401
0.406004
0.893611
0.0793539
2.03753
2.00309
2.22028
0.638387
0.0667032
0.0429811
0.0835755
1.27928
0.449871
1.13932
1.36316
0.442286
0.921009
4.66944
1.41079
2.99889
0.115854
2.50557
0.333253
0.138936
0.989447
1.35617
0.383849
0.167894
0.148922
1.04769
1.61764
0.127757
0.0594828
2.52548
3.37118
0.579543
0.997776
0.7634
4.76209
5.60888
1.74847
0.0714716
0.734949
1.19373
2.22209
1.6002
2.70087
0.205632
1.41436
0.685278
1.43975
0.555863
1.32383
0.376066
0.829612
0.0288622
1.61887
0.472282
0.0568262
0.96397
0.332355
0.633799
2.09477
0.970918
0.0299846
0.156994
2.35845
1.76263
1.51222
0.822335
0.431246
0.155863
0.0374682
0.0721299
0.0586109
0.111958
1.37977
0.0883836
0.7148
3.2395
0.125767
0.0610348
0.399572
0.307563
2.66401
0.0521209
0.049187
0.0751598
0.312077
0.880515
0.150975
0.228235
0.0275893
0.0597263
0.0596215
0.0912772
0.485621
0.286025
0.22995
1.2549
0.560482
0.205385
1.67343
0.727661
1.17661
0.151248
0.162533
0.0265565
0.0499966
0.0726905
2.56692
0.0708213
2.75297
1.93551
0.901412
2.29622
0.0689518
0.23843
0.153138
3.56477
0.349075
0.526124
0.0602313
0.044964
0.0821138
0.198588
0.0885826
3.20033
2.11148
0.0463897
0.483345
0.0440127
0.399972
0.297515
0.542082
0.0484997
2.49007
1.4717
2.5112
2.85696
0.148886
0.162005
0.514934
3.68136
0.453851
2.23746
0.680123
1.55648
0.082397
0.247197
0.062558
0.5798
0.504384
0.690476
0.740397
0.10176
0.0688193
0.513006
0.204049
0.177669
1.70394
3.3245
2.85353
0.693493
2.63431
0.474825
1.95632
0.531595
2.33995
0.350149
1.16652
0.0745856
1.73734
3.05656
3.58106
0.407851
0.0736312
0.161943
0.161176
0.0278063
0.184727
0.401912
0.211677
0.566116
2.512
0.0544598
0.108362
2.90772
0.261763
0.619854
1.49558
2.12292
2.36788
0.345309
0.473449
0.32018
0.256825
0.332174
0.277353
0.155494
1.91774
0.0652952
0.55581
0.435052
0.0647811
1.20643
0.0642276
0.0741555
0.0533977
0.0250121
0.0308948
0.132277
0.181028
0.214851
0.282758
0.0345879
0.0198283
0.039398
3.02173
2.70753
0.359092
0.861156
0.275212
0.447305
0.531263
2.24671
1.59586
2.41213
6.33779
0.988298
1.87624
2.00952
3.55936
0.988423
0.0502128
0.0680379
0.0521793
0.0425836
0.0682818
0.264339
2.17324
1.72541
0.0253379
0.127002
0.168963
1.41356
0.322509
2.05177
0.0271136
0.236391
1.40618
0.316781
0.6015
0.478473
0.0846134
0.0540563
1.32895
0.491938
3.6787
0.147674
0.449891
5.78287
0.312419
1.48425
2.71604
0.0689006
0.0761096
0.400833
0.120257
0.057384
0.220643
0.0554538
0.117787
0.193726
0.140236
0.425706
0.11862
0.210688
1.95087
2.44668
0.0423069
0.0410565
0.0754326
1.62737
0.840462
0.0639703
1.81909
2.05104
0.0682296
1.19112
1.44839
1.98667
3.44891
3.35934
1.39088
0.848833
0.103064
1.09213
3.06747
1.73943
0.383639
0.107515
3.56174
0.0577707
3.12153
0.50486
0.0860606
0.349811
1.56172
2.74096
0.0558297
0.184233
1.21628
0.23552
0.363888
0.122786
0.479046
0.242303
3.77249
0.377834
1.83169
0.0566367
0.0444855
0.075364
0.0614506
0.0268748
0.0324321
1.95409
0.0517218
1.91843
3.59509
0.35761
0.87279
5.95163
0.272567
0.203458
1.7687
1.06104
0.942757
6.99497
0.249463
3.95342
0.0621314
0.0420992
0.0782218
2.94621
0.188229
0.0552737
0.0804327
0.0381326
0.0555514
1.86211
1.81232
0.666245
0.292554
0.46111
3.21349
1.1396
0.588325
0.742061
0.707879
0.362766
1.82467
2.29693
2.12224
1.52732
0.0478544
0.388664
0.0989137
1.39778
0.115838
1.56253
1.32687
0.63292
0.560156
0.275066
2.13647
0.209382
0.0391916
0.0658138
0.080959
0.0821989
0.876433
0.61212
1.43792
0.210859
0.4796
2.7678
3.03264
0.421401
2.37622
0.97561
0.0924992
0.11193
0.0465655
3.22502
0.460571
1.62648
0.573068
0.0556445
0.363049
3.2974
1.82117
0.209797
0.258924
0.96917
1.85782
0.133967
0.0424345
0.0642039
0.41362
2.43346
0.223179
1.11334
1.6475
1.58818
1.67589
0.299434
0.2181
2.12212
1.72167
1.52643
0.0519611
0.410623
0.00849119
2.89322
0.00852452
0.427527
2.39163
1.02824
0.500321
2.05071
0.050274
0.258484
0.510246
0.009554
0.477907
0.0420365
0.0101869
0.289384
0.589886
1.96172
2.33581
0.608022
0.117982
0.0404807
0.0482922
0.011172
0.012519
0.022629
0.0861864
0.47064
1.79883
0.474491
0.536771
0.38701
0.996129
1.73138
0.58359
0.210453
0.0379951
0.190066
3.97895
2.27882
1.15455
0.173823
0.0854595
2.19468
0.106612
0.355308
0.660021
0.772757
0.354212
3.18557
0.373187
0.450676
0.204094
3.41915
2.34289
0.0449762
1.21597
0.120975
0.177796
1.52519
0.225737
0.0251464
0.0278377
0.0663698
0.0915745
0.154232
4.20277
1.5166
0.248478
1.75325
1.02969
0.396475
2.33606
2.49021
0.316225
3.6518
0.104696
0.572864
0.0361084
0.513232
1.31081
0.0199807
0.382723
2.7198
0.19884
0.569224
0.0595113
0.0978383
0.592017
1.77392
1.23873
2.51733
0.40472
2.5462
0.0703659
0.467363
2.22903
0.210846
3.61408
0.443726
1.387
0.425091
0.220716
2.04444
0.756654
2.48906
0.0474034
0.0302613
0.0623141
1.98021
0.353751
0.190703
0.10028
0.48551
0.515382
0.022602
0.116227
0.227226
0.93081
3.18324
0.199412
0.128366
0.350119
2.24952
0.521992
0.421267
0.116582
1.5589
0.729778
0.111703
0.824633
2.75054
0.026028
0.795773
1.22646
2.02023
0.804091
0.854965
0.469565
0.0701791
0.0682192
0.0478543
0.0421673
0.0588444
0.203617
0.306021
2.92863
1.34698
0.948928
3.27555
1.03129
1.32643
0.139059
0.314048
1.19
0.187203
0.756844
0.186922
1.54704
3.6267
2.25044
1.95701
1.60574
0.487499
0.909174
0.613954
0.792412
0.0170325
0.0360768
2.13517
0.499599
0.12251
1.9571
2.3856
0.0702159
0.999922
0.834744
2.90194
5.13635
2.79813
0.0290492
1.5567
0.0480419
0.0530711
0.0710185
1.60683
2.53513
1.32549
0.0853122
0.407366
2.9773
0.238073
0.0233969
0.558572
2.48989
0.570875
1.65792
4.01291
1.3719
0.0885648
0.058258
1.1041
2.03517
1.91707
2.00379
2.6962
0.194315
0.0897092
3.64251
1.97427
0.0687337
0.0318571
0.0571969
0.0368723
0.159637
0.0861464
4.79452
0.944605
0.106948
1.25924
1.72428
0.198286
2.30319
1.8194
2.5113
0.29605
0.532639
0.344532
1.6721
0.823932
0.689185
3.46139
2.9058
1.1478
2.12824
2.65704
2.41716
0.0740898
0.0962016
2.4764
2.55185
0.083754
0.0507705
0.0260002
0.0806469
0.595189
1.19878
2.02366
1.16809
0.0893719
2.44117
0.041706
0.0653057
0.0754025
0.248209
0.139131
1.66416
1.779
2.72589
0.252683
3.22136
0.0921843
0.290601
3.60233
1.71956
1.80009
1.23916
0.367605
3.602
1.86349
0.0665504
0.228009
0.22931
0.407773
0.192188
1.24905
0.892861
0.521623
0.610123
1.83385
1.48213
0.3405
1.28803
0.071254
0.0676872
1.23587
0.434288
0.362674
8.52137
0.30966
1.95867
1.79185
0.0524766
0.0539648
0.0647959
0.0465392
2.16602
1.75249
1.78839
0.161095
0.93355
0.229607
0.203972
0.645001
1.88789
0.219594
0.275213
0.212922
0.0518159
0.0702745
0.0249509
0.0710518
2.07033
1.81995
0.166665
0.778245
8.85599
2.81089
2.88909
1.26268
0.0785287
0.969828
0.279568
0.432203
1.33691
3.13637
0.0742964
0.0781228
0.0294058
2.68741
1.40277
2.04857
0.139963
0.181635
1.25474
0.448302
0.0295601
0.0725733
0.0705291
0.139402
0.280716
2.17139
1.74405
0.234325
2.27971
1.06106
1.66567
2.07704
0.355643
2.09865
0.291204
0.841786
1.77791
2.20171
1.50962
0.0509319
0.0615097
1.48109
0.217677
0.0656873
0.131762
1.24561
0.537605
0.527295
0.0394016
0.518383
0.0405693
0.528196
0.503131
0.508779
0.50921
1.51134
2.66125
0.826895
0.148164
2.61263
0.551115
0.0937723
0.213538
0.0767492
0.373905
0.176162
0.385104
2.54234
0.0694382
0.160265
1.23657
0.198504
2.08689
0.0413385
0.0862097
3.99531
5.27877
0.0510952
0.0636927
0.0539303
0.10631
0.172478
0.0361709
0.0748993
0.0719309
0.0842881
0.0534986
0.0478562
1.27042
0.142391
0.067909
0.57445
1.65805
0.148693
0.617463
0.0420808
0.154551
2.41471
1.89811
0.828695
0.0297635
2.43667
2.23492
2.18667
1.96957
0.420438
0.0293128
0.0397846
0.0787274
1.09406
2.88368
1.26718
0.194323
0.65378
0.261098
0.0608606
0.166563
0.469498
2.83615
0.39337
2.36167
0.0245301
0.263718
2.65148
1.0291
0.126175
0.50587
0.0543009
1.54
1.31364
1.00195
0.0579636
0.19692
0.0550522
0.0564408
0.234988
0.321921
0.281124
2.4347
1.52681
1.81248
1.35781
0.894109
0.166323
0.500311
0.0770405
2.08425
0.900034
0.744385
0.289428
3.23765
0.294505
1.15545
1.66851
0.0636864
0.0853975
0.442217
3.62744
2.94608
1.16427
2.8395
1.99947
2.78204
0.301037
0.483913
0.027521
0.237173
0.529425
9.18396
3.23314
0.38142
2.52135
1.02843
0.188392
0.247002
0.501651
0.208999
0.0425452
0.0548093
1.9729
1.55133
0.887558
1.65293
1.24779
0.129043
0.161275
0.0175445
0.316319
0.958202