/*--------------------------------*- C++ -*----------------------------------*\
| =========                 |                                                 |
| \\      /  F ield         | OpenFOAM: The Open Source CFD Toolbox           |
|  \\    /   O peration     | Version:  v1912                                 |
|   \\  /    A nd           | Website:  www.openfoam.com                      |
|    \\/     M anipulation  |                                                 |
\*---------------------------------------------------------------------------*/
FoamFile
{
    version     2.0;
    format      ascii;
    class       volScalarField;
    location    "0.93";
    object      nut;
}
// * * * * * * * * * * * * * * * * * * * * * * * * * * * * * * * * * * * * * //

dimensions      [0 2 -1 0 0 0 0];


internalField   nonuniform List<scalar> 
5794
(
0.000518955
0.000681731
0.00419074
0.00493034
0.016926
0.00116147
0.0012223
0.000818486
0.00226502
0.000656579
0.00203382
0.00130373
0.00141708
0.00778955
0.00153309
0.00204636
0.0102455
0.00691947
0.00109103
0.000475711
0.00150464
0.000576853
0.00164016
0.000820842
0.00113054
0.00374087
0.013726
0.0126282
0.00393472
0.000808114
0.00150574
0.00208463
0.00241638
0.00107365
0.00133235
0.00188963
0.00078625
0.00170391
0.00191618
0.00759119
0.0063855
0.00264863
0.000743372
0.00125596
0.0015547
0.00231322
0.00184433
0.00103665
0.000558685
0.000505469
0.000604071
0.00297136
0.00067188
0.00171514
0.000103227
0.00230398
0.00174912
0.00144349
0.000732764
0.00492251
0.00132766
0.000420026
0.00127614
0.00483737
0.0057323
0.000825451
0.00541228
0.000694192
0.00550853
0.000317362
0.00617803
0.00485786
0.0158289
0.000965301
0.00577919
0.00875959
0.000233411
0.00332425
0.00113017
0.000266841
0.000463386
0.000354853
0.00693368
0.00178617
0.00161013
0.000901387
0.000749207
0.00102205
0.0015162
0.00308141
0.00502653
0.00211398
0.00343194
0.0054132
0.00261501
0.00805841
0.00396917
0.00319323
0.00199468
0.00142637
0.00143267
0.00119772
0.000756295
0.0118298
0.0037758
0.0125384
0.000443896
0.00416106
0.00512303
0.000982569
0.000760288
0.000744908
0.00138207
0.00170029
0.00233836
0.00407281
0.00118751
0.00633657
0.00123663
0.00100916
0.00874032
0.000202792
0.000818743
0.0108387
0.00136855
0.00359046
0.00349595
0.0014358
0.00340265
0.00391834
0.00153502
0.00187015
0.00303739
0.00313866
0.0111488
0.00170509
0.00294578
0.000461808
0.00366128
0.000838126
0.00116219
0.0132782
0.0015788
0.0134315
0.00460405
0.0129244
0.00196541
0.00147511
0.0139121
0.00718062
0.000726569
0.00124321
0.0121362
0.000809456
0.0143786
0.00170265
0.00173876
0.00124893
0.00213131
0.0015324
0.000356404
0.000654919
0.00035554
0.000832034
0.00194259
0.00186901
0.000787157
0.000573363
0.000408468
0.000233421
0.000290566
0.00194488
0.000559964
0.000450941
0.000332516
0.00132234
0.000230067
0.00100751
0.000457711
0.00190187
0.000645312
0.00114665
0.000614822
0.00153484
0.000717219
0.00375324
0.00110831
0.00111592
0.000256946
0.000823382
0.00165225
0.00137808
0.00171007
0.000863071
0.000972451
0.000819802
0.000770566
0.000427416
0.0004059
0.00100919
0.00104772
0.00209789
0.00092583
0.000848449
0.00162441
0.00200057
0.000681417
0.00581538
0.0137031
0.00197694
0.000787337
0.000858097
0.00245053
0.00131244
0.00114579
0.0015008
0.00199999
0.0036113
0.00355919
0.00549939
0.000856932
0.00227016
0.00836526
0.00371
0.00235741
0.00694963
0.000650951
0.00114046
0.000393384
0.00164721
0.000786997
0.000627484
0.00076525
0.00364932
0.00297825
0.0108269
0.0138369
0.0020394
0.00100026
0.000595674
0.000363821
0.00767503
0.00234435
0.00152228
0.00126028
0.0015764
0.0016074
0.0118618
0.00114232
0.000947975
0.000707332
0.00092776
0.0126817
0.000491625
0.000811681
0.0231147
0.000907414
0.000890795
0.00381426
0.00117738
0.00252089
0.00233337
0.00126792
0.000677878
0.0011291
0.00122
0.00993952
0.00366549
0.0007812
0.00289786
0.0024449
0.00112653
0.00317241
0.00505093
0.000869047
0.00112803
0.00168299
0.0011028
0.000668129
0.00134484
0.00075984
0.00324778
0.00462198
0.0016516
0.00538449
0.00525881
0.00256671
0.00309332
0.00532782
0.00890613
0.00144333
0.000941588
0.00124157
0.00168536
0.000771891
0.00306699
0.00247033
0.00118728
0.00280371
0.00106167
0.000287432
0.000994249
0.0004142
0.00326318
0.000888347
0.00309548
0.000597749
0.00430991
0.00249897
0.00212175
0.00127763
0.00280025
0.00228765
0.0017455
0.000782991
0.000904117
0.00512802
0.0136598
0.00459569
0.00408877
0.00258135
0.00115227
0.00516759
0.0160046
0.00320733
0.00201016
0.00104896
0.00108734
0.00123688
0.00186649
0.00180034
0.000821711
0.000861896
0.00149999
0.00129853
0.000319373
0.000286369
0.000320037
0.000216187
0.000915006
0.00043971
0.000877004
0.00233092
0.00117491
0.000292303
0.000564124
0.00170385
0.00120707
0.00217752
0.00170153
0.00201099
0.00252878
0.00147964
0.00115394
0.000680317
0.00262991
0.00040763
0.00187557
0.00114618
0.000793984
0.00579983
0.00250669
0.00294999
0.00186282
0.000978441
0.00368623
0.00173253
0.00154802
0.00123494
0.000992708
0.0016859
0.000450927
0.00411861
0.00378127
0.00660697
0.00300602
0.00166638
0.00137437
0.00167719
0.00048201
0.00352301
0.00165348
0.000750216
0.00155045
0.00108448
0.000984744
0.00650336
0.00248333
0.00112039
0.00086062
0.000591035
0.00169387
0.000373454
0.00146491
0.000510355
0.000411857
0.000325237
0.000870597
0.00132075
0.00168385
0.000768754
0.00114411
0.0146143
0.000392225
0.000413569
0.00257948
0.00153507
0.00110805
0.000807043
0.00409528
0.00337773
0.00204605
0.00441388
0.00117428
0.00174246
0.00142143
0.000649228
0.0054745
0.00194001
0.00349775
0.0018815
0.00293183
0.00536041
0.00175055
0.000735696
0.000584764
0.000392903
0.00162632
0.000465587
0.00065249
0.00296689
0.000784399
0.0119247
0.0020559
0.00124328
0.000716379
0.00100478
0.00129082
0.00107562
0.000797152
0.000902695
0.000805533
0.000936179
0.000827066
0.00105642
0.00460899
0.00248673
0.00342365
0.000420802
0.00280746
0.00032789
0.00057968
0.00200251
0.000649588
0.004951
0.000479688
0.00453766
0.00797336
0.00348906
0.0072014
0.000864187
0.000960118
0.000784439
0.00203887
0.00153307
0.00395218
0.010675
0.0203397
0.00530349
0.00109294
0.000159939
0.0143644
0.00444324
0.000909239
0.00140409
0.00311805
0.020337
0.0136958
0.00117048
0.000822819
0.00101806
0.000835893
0.000738844
0.000632778
0.00544704
0.0034542
0.00086155
0.00102641
0.0027828
0.000668128
0.000585776
0.00463484
0.00429013
0.0136901
0.00144304
0.000954924
0.000865488
0.0019069
0.00190212
0.00235339
0.0211659
0.0192431
0.000728666
0.00184748
0.0134739
0.00102253
0.000917481
0.00111376
0.00485026
0.00101518
0.00806698
0.000594544
0.00448428
0.000594032
0.00177903
0.00225563
0.00377351
0.000609651
0.00080546
0.014544
0.00114499
0.00100562
0.0189396
0.00687188
0.00449415
0.0013178
0.00120399
0.00210571
0.000784593
0.000745294
0.00112677
0.000291127
0.0100048
0.00224771
0.0020434
0.000850632
0.000785527
0.002985
0.00392512
0.00209393
0.000622654
0.00232079
0.000330842
0.00545051
0.00130243
0.00303102
0.000755291
0.0136667
0.00139528
0.00102486
0.012792
0.000630648
0.000269861
0.000940745
0.00206699
0.00165803
0.00115112
0.000733291
0.000774454
0.0121478
0.0184552
0.000367368
0.00329916
0.00137336
0.00581269
0.00090466
0.0012524
0.00594093
0.000410868
0.00102913
0.00165021
0.00279687
0.00146966
0.00133161
0.00150445
0.000859011
0.0208419
0.00429793
0.00160038
0.00394759
0.00488802
0.00257536
0.00787056
0.00774182
0.00325183
0.00138108
0.00148244
0.00447907
0.00242517
0.00488431
0.00106547
0.00198773
0.000548334
0.00534887
0.00261911
0.00312367
0.000369521
0.000831183
0.000666017
0.00149667
0.000806318
0.00178494
0.00272785
0.00556817
0.000760366
0.00279233
0.00335358
0.000275304
0.000120319
0.00553293
0.0208023
0.0235929
0.0114468
0.00100639
0.000672003
0.000812458
0.00216441
0.00104292
0.000865552
0.0018723
0.00024738
0.0032714
0.00407628
0.0055888
0.000336234
0.0016613
0.00417547
0.0147581
0.00617786
0.00128503
0.00069995
0.000505492
0.000199917
0.00122255
0.00095581
0.000815176
0.00370623
0.000809416
0.000581748
0.0134924
0.00131924
0.000842284
0.00401076
0.00255663
0.00282853
0.0053422
0.00251149
0.00101145
0.00211865
0.000628958
0.000862495
0.000981889
0.00225849
0.000583803
0.000534411
0.00301516
0.0156867
0.00281407
0.00208217
0.00318668
0.000856595
0.000538968
0.000793704
0.00111281
0.000730408
0.00309268
0.00560668
0.00547876
0.00257039
0.0027742
0.00202623
0.000968981
0.0129077
0.00143287
0.00143086
0.00290568
0.00584293
0.00146716
0.0117723
0.000953813
0.000888859
0.00512006
0.00181001
0.00346877
0.0125144
0.0027857
0.00385789
0.00207238
0.000798862
0.00074389
0.00666263
0.00814711
0.00354279
0.00329857
0.00162267
0.00190502
0.00633444
0.000467053
0.000879531
0.000769669
0.000245519
0.000708214
0.000280947
0.000949893
0.0119135
0.00326954
0.00242293
0.000743166
0.00240785
0.00697947
0.00111212
0.00775651
0.00362724
0.00300329
0.00441008
0.000775342
0.000733526
0.0171803
0.00307053
0.00619219
0.00771312
0.00400374
0.00309021
0.00281673
0.0222294
0.00107771
0.000806054
0.000818911
0.00814211
0.00095579
0.00287677
0.00277962
0.00638688
0.00220922
0.00166279
0.00186599
0.00639604
0.00447482
0.0021114
0.00341388
0.00461327
0.000233604
0.000319238
0.000169381
0.000442693
0.00488307
0.00260873
0.00463331
0.000895749
0.000802987
0.00205561
0.000867906
0.00187211
0.000529189
0.00262753
0.00516813
0.000756129
0.00591155
0.00275393
0.000709305
0.00097798
0.0209902
0.00494982
0.00309922
0.00585959
0.00590914
0.00283364
0.003453
0.00142062
0.00409301
0.00232086
0.00461163
0.0115989
0.00220088
0.00270155
0.000762827
0.000991828
0.00121527
0.0157057
0.00112833
0.00652764
0.016415
0.00110678
0.000908348
0.000975445
0.0051194
0.00271469
0.00673769
0.00526187
0.00264059
0.00493418
0.00576922
0.0069233
0.00355391
0.000864589
0.0028565
0.000549697
0.00281464
0.000674356
0.00352176
0.000863084
0.00563161
0.00134719
0.00266244
0.00178209
0.0014741
0.00648988
0.00565421
0.00306231
0.00875091
0.0034816
0.00113458
0.000984906
0.00107665
0.00962752
0.0012242
0.00227638
0.00304379
0.00817466
0.000822058
0.000816192
0.00127929
0.00137136
0.015179
0.00135343
0.000768857
0.00122055
0.000975506
0.0015049
0.00251496
0.00480828
0.00479369
0.000771447
0.00219224
0.00852165
0.00108789
0.00253986
0.0178035
0.000311484
0.000151185
0.000418049
0.000648336
0.0045617
0.00452099
0.000875485
0.00145919
0.00119791
0.000711955
0.000839351
0.0232578
0.00278905
0.00577182
0.00165148
0.00241871
0.00353062
0.00293403
0.0142341
0.0050798
0.00177882
0.000669398
0.000754161
0.0123837
0.000984819
0.000973439
0.00760762
0.00385624
0.00412939
0.00391644
0.00178979
0.0108879
0.00356409
0.000773143
0.00304882
0.00122082
0.00400969
0.00104676
0.00191766
0.00308813
0.000814379
0.000753043
0.00056375
0.00457308
0.00386343
0.00089599
0.000739288
0.00210568
0.00114434
0.00390321
0.000851236
0.000799356
0.00267694
0.00138922
0.00307427
0.00593626
0.0043653
0.00595148
0.0149095
0.000667795
0.000579467
0.00878101
0.00126022
0.00110657
0.000873612
0.00125193
0.00206435
0.000358973
0.000790269
0.00125925
0.00833095
0.00301224
0.00480862
0.000845768
0.00301554
0.00558867
0.0188875
0.00207795
0.00328517
0.000784946
0.00106224
0.0177673
0.00104778
0.00299786
0.000841423
0.00135188
0.00105304
0.0015364
0.000402299
0.00194443
0.0012612
0.000485558
0.000336498
0.000269945
0.000292249
0.000180316
0.000661245
0.014248
0.0130418
0.00323488
0.00187778
0.00280515
0.0114664
0.000754565
0.000854458
0.000913409
0.00935501
0.00117969
0.0211238
0.0062896
0.00229144
0.000785819
0.00831551
0.00172492
0.000630403
0.000661109
0.0235919
0.0060226
0.00083425
0.00152676
0.000878829
0.00343992
0.00158095
0.0170681
0.000638146
0.000505884
0.00045423
0.000568677
0.000476968
0.000950832
0.00242252
0.00106799
0.000698537
0.000756931
0.000789475
0.0094639
0.000782809
0.000744136
0.00128659
0.00164642
0.000831639
0.000892025
0.000450866
0.00109465
0.000786293
0.000940325
0.000756951
0.00122249
0.000700298
0.00190834
0.00472915
0.000756583
0.000833725
0.000786716
0.00267597
0.00083029
0.0021396
0.000777011
0.0230779
0.00212557
0.00114297
0.000825623
0.000875129
0.0134982
0.000977436
0.00250012
0.00262696
0.00531937
0.00196943
0.000901682
0.00117804
0.00172803
0.000831056
0.00120895
0.00179725
0.0016771
0.00149381
0.000144922
0.00199228
0.00143353
0.00109856
0.00108811
0.00160898
0.000395254
0.000699146
0.000775206
0.00119668
0.000746912
0.0131792
0.000796557
0.00462115
0.00079021
0.000783467
0.00073651
0.000812247
0.000699865
0.000789845
0.0128282
0.0124459
0.00425609
0.000438862
0.000826829
0.00292405
0.00114492
0.00122202
0.00169355
0.00179189
0.00518043
0.00131613
0.00696093
0.000426367
0.000841972
0.00621396
0.000508296
0.0188259
0.000725399
0.000715256
0.00247189
0.0081486
0.00102327
0.00344971
0.000886754
0.00100963
0.00107102
0.000844983
0.000458915
0.000928501
0.000830318
0.000720211
0.000626555
0.000662158
0.00068677
0.000893444
0.00410514
0.00097777
0.000723635
0.00545924
0.00262122
0.000899454
0.00053779
0.00806718
0.00254339
0.00652407
0.00987766
0.00111421
0.00115025
0.000307856
0.019794
0.000943665
0.00428878
0.000891923
0.0193649
0.00256176
0.000225647
0.00109307
0.000302818
0.000705438
0.00164676
0.000609145
0.00112856
0.00110243
0.000268856
0.00108126
0.000173806
0.000243097
0.000864054
0.00103787
0.000955594
0.00673761
0.00369775
0.00606744
0.000279727
0.00128737
0.000769156
0.000970544
0.00109743
0.000789832
0.00824479
0.000810695
0.00372382
0.00102942
0.000746428
0.000987567
0.0230836
0.0117209
0.000555589
0.00273093
0.00740632
0.00532436
0.0117237
0.000744705
0.00564359
0.00488378
0.00309841
0.000946936
0.00843563
0.000726535
0.000726521
0.000913225
0.000958036
0.0012116
0.001244
0.0129237
0.00107056
0.000971131
0.00332193
0.00468411
0.00478141
0.000764938
0.00144844
0.00124143
0.00111784
0.00124931
0.000734222
0.0182268
0.00135988
0.00617822
0.00270509
0.00667353
0.00102268
0.0022233
0.00200229
0.0025612
0.000975718
0.00102637
0.000694395
0.00123054
0.000666211
0.0221943
0.000749344
0.000855092
0.000754776
0.000909468
0.000832505
0.000776423
0.000868805
0.00074783
0.003255
0.00125893
0.0113903
0.000732226
0.000745163
0.000553865
0.000680521
0.00170495
0.00946446
0.00171207
0.000581455
0.000963809
0.000768233
0.00198457
0.000786252
0.000704777
0.000851633
0.000666499
0.000844054
0.00101885
0.000955478
0.00770002
0.000553961
0.0125092
0.000849227
0.000567029
0.000769645
0.000780741
0.0010268
0.00322122
0.00142039
0.000741452
0.00202776
0.000824472
0.001034
0.00159767
0.00121575
0.000785412
0.000655972
0.00116143
0.00148959
0.00441545
0.00615817
0.00255237
0.000828549
0.000202589
0.00778615
0.00115392
0.00536002
0.00667949
0.000490687
0.000860182
0.00110039
0.00137852
0.000257784
0.0122004
0.00656583
0.00111055
0.00790857
0.00319659
0.00165396
0.000478631
0.0082641
0.0213915
0.0087484
0.0013059
0.00089629
0.00172399
0.0028046
0.000836106
0.00063904
0.000631942
0.000783614
0.00313859
0.00330677
0.000354443
0.00587078
0.000906193
0.000714181
0.000413574
0.00293996
0.0118958
0.0014782
0.00274509
0.00604132
0.00879839
0.014808
0.00212661
0.00220078
0.000795121
0.00583731
0.00386353
0.00732426
0.00559748
0.00251664
0.00402072
0.00165373
0.0153878
0.00453081
0.017042
0.00230587
0.00115277
0.00108565
0.0176205
0.00243586
0.00118391
0.00521075
0.00392426
0.00212528
0.00618057
0.00647129
0.0028166
0.0132917
0.00284774
0.000289128
0.000806649
0.00397253
0.00107523
0.00100954
0.00176887
0.000830947
0.00422892
0.00347444
0.00625498
0.000501286
0.00927053
0.00379767
0.002752
0.00358445
0.00118561
0.000941702
0.000750725
0.0115933
0.00139854
0.00128721
0.000791638
0.0177981
0.000622771
0.0013226
0.0101361
0.0084273
0.00183476
0.0019062
0.0129918
0.00135193
0.000786136
0.000150551
0.00655943
0.00328671
0.00827471
0.00741169
0.00104622
0.00219439
0.00515954
0.00585572
0.000959175
0.00151309
0.00133272
0.00151355
0.00114535
0.0104475
0.00229745
0.00109303
0.00586839
0.00161605
0.00690779
0.00081974
0.00205479
0.000892373
0.00151335
0.00237861
0.00103156
0.000894019
0.00108658
0.0013514
0.000261993
0.00172848
0.000644545
0.000822523
0.00423351
0.00273703
0.00550731
0.00148702
0.00530029
0.00530234
0.00651082
0.000935485
0.00203341
0.00181144
0.00132902
0.000238243
0.000186889
0.000239656
0.0177728
0.000826199
0.00267535
0.00208875
0.00392105
0.00358492
0.00159822
0.00018177
0.000235043
0.000298588
0.000268607
0.000419894
0.000497428
0.000371672
0.00034355
0.000444997
0.00054321
0.0005203
0.000346609
0.000279045
0.00021106
0.00021968
0.000465059
0.000542831
0.000411364
0.000418302
0.000251118
0.000375185
0.000193097
0.000227423
0.000126638
0.000854715
0.00023423
0.000300612
0.000172299
0.000521478
0.000286372
0.000378804
0.00033299
0.000273443
0.000302537
0.00025684
0.000244033
0.000375419
0.000248219
0.000377996
0.000637132
0.000243911
0.000199453
0.000309732
0.000322119
0.00175082
0.00192307
0.0122426
0.00101209
0.00616708
0.00287922
0.00530292
0.0151355
0.00103236
0.00132499
0.000843602
0.00100123
0.00281549
0.00619991
0.0188593
0.0190804
0.00547478
0.00277618
0.00050428
0.000485738
0.00237084
0.000801488
0.000345435
0.00557437
0.00266089
0.00361251
0.0016079
0.00560465
0.00478086
0.00543491
0.00171701
0.00902904
0.00346824
0.0188015
0.00191704
0.00202167
0.0014568
0.000762421
0.0142401
0.00118557
0.0016007
0.00760383
0.00234
0.00573207
0.0045698
0.00172718
0.0013863
0.000842024
0.000848847
0.0164551
0.00210098
0.000434909
0.000382928
0.00786877
0.0142574
0.000199114
0.0035673
0.00689997
0.000412518
0.00039042
0.000400339
0.000349723
0.000278869
0.000432734
0.000514032
0.000274351
0.000301392
0.000570583
0.000396047
0.000320444
0.000176012
0.000326203
0.000240885
0.000260354
0.00036238
0.000218621
0.000353492
0.000197596
0.00026883
0.000189171
0.000273884
0.00338895
0.00278221
0.000443718
0.000891085
0.00469495
0.000848692
0.00936557
0.000850123
0.00294137
0.0149021
0.00497497
0.00282027
0.0141149
0.00268867
0.000187845
0.0140526
0.00208951
0.00134378
0.0226242
0.00487577
0.0125454
0.000712189
0.0134709
0.00169221
0.00130544
0.0132812
0.000900599
0.00337156
0.00385881
0.00155713
0.00232472
0.00614782
0.00116997
0.00913045
0.017307
0.00326719
0.00723877
0.000573023
0.0100085
0.00113057
0.00214856
0.000972344
0.00638861
0.00138148
0.00195781
0.00293523
0.00167119
0.00710438
0.000834641
0.00304238
0.000631606
0.0066419
0.00514877
0.0234553
0.000168237
0.000771989
0.00102222
0.00863453
0.00282601
0.000247662
0.000656155
0.00638134
0.00446384
0.0130117
0.000832684
0.00199537
0.00232995
0.0010269
0.00377307
0.00097632
0.00727203
0.000840723
0.000182941
0.000184071
0.00927882
0.00637604
0.000789425
0.00679392
0.00489546
0.00338276
0.0132145
0.0190041
0.0107942
0.0134201
0.012075
0.00177487
0.00851051
0.00125036
0.00199429
0.00155262
0.00686083
0.000725184
0.000863068
0.00108183
0.0155346
0.000908818
0.000750967
0.00154972
0.00301104
0.00350933
0.00930418
0.0136318
0.00943615
0.0037966
0.000830851
0.0127079
0.000549713
0.00209041
0.00200707
0.00116375
0.0119591
0.0165812
0.0031751
0.0138665
0.00279287
0.0077665
0.00142853
0.00147217
0.00215334
0.00271047
0.0010212
0.00180468
0.00175812
0.01298
0.00103673
0.00143702
0.00382785
0.00294106
0.00142632
0.00196227
0.00179869
0.0149072
0.00531162
0.00731508
0.00498459
0.00140076
0.000726666
0.00138049
0.00349908
0.00106949
0.00195213
0.00217243
0.0139399
0.0139559
0.0109967
0.0102794
0.0140281
0.0113846
0.0140138
0.00127732
0.0141171
0.0140715
0.0117088
0.011172
0.0141201
0.010754
0.0139364
0.0141745
0.014126
0.00178775
0.00183196
0.00158929
0.015042
0.00168629
0.00126655
0.000939357
0.0012215
0.0001945
0.000221229
0.00525516
0.0111843
0.00653961
0.00271877
0.00342462
0.00938951
0.0107656
0.00811686
0.00417938
0.000905232
0.00117828
0.000878929
0.00222158
0.00653463
0.00158782
0.00146629
0.00152911
0.00556473
0.00388591
0.00227184
0.00227524
0.00725951
0.00259699
0.000725387
0.00410887
0.000291021
0.00483712
0.00135931
0.000967424
0.00121757
0.000945445
0.0019011
0.00272964
0.00216686
0.00393119
0.00437623
0.00137826
0.00285893
0.0112816
0.00226952
0.00268389
0.00306534
0.00382934
0.00933118
0.000860068
0.0018563
0.00956366
0.00487496
0.00299505
0.00240531
0.00143404
0.00315073
0.0106541
0.00331493
0.00187707
0.00196198
0.00180499
0.0052425
0.00139077
0.0171968
0.00197013
0.00144779
0.00142196
0.00216182
0.00485253
0.000695585
0.00141686
0.00305382
0.0057321
0.00268077
0.0165946
0.00968238
0.00174125
0.0104224
0.00206683
0.00174449
0.00300246
0.000783805
0.00290557
0.00137118
0.0160169
0.00324024
0.00193763
0.000865377
0.0078992
0.0153489
0.00158805
0.00146366
0.00609144
0.00551058
0.00285821
0.00189875
0.00158729
0.00109582
0.00670314
0.00557286
0.00534352
0.0147735
0.0147766
0.00127922
0.0056989
0.000544887
0.00162165
0.00281944
0.00104022
0.00139112
0.00170003
0.00102834
0.00219965
0.0019117
0.00492283
0.000600779
0.00593435
0.00294375
0.00126779
0.00292107
0.00352525
0.00327147
0.00124146
0.00123498
0.00103574
0.00463651
0.00670487
0.00126526
0.00211208
0.00147932
0.00172431
0.00134155
0.00228428
0.00187525
0.0045471
0.00427848
0.000338501
0.000738904
0.000463439
0.00341277
0.00182803
0.00113205
0.00561452
0.00700264
0.00195501
0.00165659
0.00101486
0.00450716
0.00424156
0.00429515
0.00101371
0.00658884
0.00421709
0.00408874
0.000377963
0.00437132
0.00637809
0.0148866
0.00389678
0.006679
0.00615837
0.00331894
0.00344253
0.00588758
0.000696919
0.00422618
0.00667994
0.00413971
0.00450634
0.00600083
0.00414715
0.00667413
0.000670748
0.00261469
0.00408237
0.00660388
0.00387589
0.00420291
0.00656685
0.00574744
0.00509412
0.00364581
0.00407922
0.0023262
0.000653011
0.00622824
0.00109831
0.00522369
0.00157367
0.0022144
0.000928028
0.000510592
0.0052387
0.00115889
0.00659802
0.00133845
0.00103988
0.0041813
0.0044202
0.00413806
0.00568183
0.00300151
0.00283045
0.00105093
0.00360495
0.000353093
0.00137658
0.00135066
0.00203322
0.000613206
0.00328061
0.000568616
0.0146513
0.00129902
0.00137268
0.00196447
0.00181778
0.00262574
0.00206385
0.000789025
0.00132586
0.00531635
0.00237132
0.000988211
0.00123788
0.00462569
0.00170804
0.000688545
0.00141043
0.00535103
0.004038
0.00131026
0.00556848
0.00295034
0.00183977
0.00100402
0.000563233
0.0140505
0.000873895
0.0013787
0.00144051
0.00838861
0.000685821
0.00389647
0.00215825
0.00726446
0.00166429
0.00157764
0.00608809
0.00164658
0.000722118
0.00122203
0.00173826
0.00062491
0.000880217
0.00595869
0.00260769
0.00327371
0.0137419
0.0152475
0.000951997
0.000741659
0.00183827
0.00138243
0.00505103
0.000887097
0.00576739
0.00494682
0.00166051
0.00150277
0.00471309
0.00228404
0.00400637
0.00526615
0.0011007
0.00108076
0.00204152
0.00124671
0.000763508
0.00160702
0.00171452
0.00985756
0.00434016
0.00252486
0.00914308
0.0011868
0.00116064
0.0034224
0.00736181
0.00174093
0.00593296
0.00114009
0.000634453
0.00145943
0.0042807
0.00642472
0.00101221
0.00638418
0.00262644
0.00257202
0.00398596
0.00202786
0.00166454
0.000275869
0.00163244
0.00352611
0.0149366
0.000957861
0.00109051
0.00798936
0.000800117
0.000831309
0.0108717
0.000290264
0.0012306
0.000934133
0.0019214
0.00169014
0.00587914
0.00359614
0.00606165
0.00672715
0.00296516
0.00308329
0.00139991
0.0062894
0.00402059
0.000254568
0.000277388
0.000320208
0.000580209
0.000525378
0.00774199
0.00113193
0.000752137
0.00159583
0.00371413
0.00497511
0.00148539
0.000208371
0.010489
0.00899993
0.00195709
0.00111908
0.00310509
0.00188313
0.00319434
0.000287458
0.00376736
0.0129313
0.000967333
0.00211773
0.0016988
0.00866895
0.00525636
0.00126488
0.0011471
0.00976782
0.00389696
0.00230545
0.00159346
0.00178833
0.000782966
0.000837181
0.00426674
0.00347777
0.00429252
0.0038453
0.0105926
0.00534777
0.00108302
0.000830347
0.00165087
0.0124362
0.0162761
0.013482
0.0116378
0.00995834
0.00384771
0.003669
0.00422075
0.00303705
0.00151456
0.0101998
0.0120052
0.0120417
0.00226845
0.0101457
0.00528542
0.00626465
0.00480542
0.000581997
0.00384385
0.000949363
0.000686242
0.00163015
0.00423706
0.00420191
0.00426167
0.00516694
0.00761637
0.00113774
0.0136531
0.00663674
0.00622673
0.00327536
0.00165469
0.00130597
0.00115738
0.00120553
0.000870235
0.000719037
0.000743827
0.00950309
0.00237331
0.000792397
0.00139046
0.00332018
0.00286429
0.00360666
0.00188175
0.00631712
0.0034441
0.00177749
0.00371145
0.00550868
0.00139169
0.00162389
0.00169389
0.00023249
0.00395868
0.000548969
0.0009641
0.0134157
0.000772232
0.000667974
0.0015572
0.0057816
0.00108913
0.00349052
0.0083285
0.00219697
0.00171665
0.00398105
0.00368438
0.00386996
0.00732107
0.00164123
0.00852096
0.00404437
0.00539194
0.0137304
0.00944127
0.00149814
0.00295768
0.000798061
0.00484463
0.00680209
0.0018402
0.0017727
0.000814015
0.000742477
0.00100743
0.00126221
0.00515585
0.000728179
0.0008612
0.00666612
0.0049234
0.00458418
0.00277917
0.00131539
0.00772356
0.00619125
0.00185693
0.00169936
0.00190508
0.00306387
0.0138538
0.00389403
0.0123724
0.00126239
0.00281223
0.00220498
0.00639613
0.0105132
0.00225197
0.00360572
0.00281562
0.0055007
0.00505257
0.00207341
0.000431655
0.000371379
0.00795479
0.0064117
0.0063574
0.00318166
0.00736985
0.00446484
0.000795955
0.00453978
0.0089496
0.00361868
0.00527895
0.00676924
0.00566774
0.00107505
0.00082197
0.00169053
0.0140472
0.00155869
0.00842594
0.00112747
0.000813248
0.0102088
0.00131805
0.00169942
0.00887022
0.0136665
0.0132326
0.0143696
0.000454874
0.00107762
0.00378692
0.00603171
0.0119413
0.0126396
0.00272736
0.00565764
0.002415
0.000995828
0.00349224
0.00206617
0.00776883
0.00649783
0.0136745
0.00362853
0.000978899
0.00878103
0.00410548
0.00509629
0.00184838
0.00338128
0.00811349
0.00121779
0.00233013
0.00519581
0.00821668
0.00938642
0.00136003
0.00246146
0.0101925
0.00103859
0.000757969
0.00178682
0.0074689
0.00876591
0.00338917
0.00208998
0.000957906
0.00158583
0.0066998
0.00161268
0.00880832
0.00769958
0.00416436
0.00568139
0.00383877
0.00200116
0.0057847
0.0121462
0.00444588
0.00168309
0.00249357
0.000899872
0.00105072
0.0025325
0.00147364
0.00241097
0.0137841
0.0133469
0.0136694
0.0101995
0.0134274
0.00193969
0.00603909
0.00149033
0.0101172
0.0209747
0.0114613
0.00829922
0.000740009
0.00163824
0.00721643
0.0103795
0.00983013
0.00604272
0.00270505
0.00438932
0.00165702
0.00276996
0.000679022
0.000278116
0.0111329
0.0014628
0.00574911
0.000725147
0.00889515
0.00354267
0.00255237
0.00641776
0.00605042
0.00116672
0.00845583
0.0113134
0.00290959
0.000509902
0.0105503
0.00532393
0.00334347
0.00165281
0.00212019
0.000843207
0.00359749
0.0143507
0.0122031
0.00223302
0.00709828
0.0105849
0.0011656
0.00455421
0.00329709
0.00311553
0.000528556
0.00405543
0.0109458
0.00410133
0.00344831
0.00319674
0.0142876
0.00788717
0.00100052
0.00109273
0.000980858
0.00285904
0.000797944
0.0062101
0.00326382
0.00944777
0.00160491
0.00163826
0.000924179
0.0128439
0.00625294
0.0130725
0.00383035
0.000868906
0.00203965
0.00528055
0.00429961
0.000697705
0.012142
0.0033686
0.00211188
0.00171553
0.000789014
0.013279
0.00107703
0.0138914
0.00891388
0.00095703
0.00681654
0.000796617
0.0138131
0.0109548
0.00107953
0.00230311
0.00297311
0.014218
0.000848187
0.000779065
0.00076904
0.00217134
0.000697593
0.00158922
0.00853846
0.00501139
0.00653492
0.00272304
0.00640043
0.00102411
0.0128437
0.00937518
0.00133614
0.000738783
0.00394313
0.00879463
0.000200692
0.00017367
0.000258017
0.0144874
0.00209412
0.0157557
0.00467237
0.00420588
0.00888861
0.0129893
0.00173856
0.00331006
0.00662084
0.00499165
0.00258616
0.00460542
0.0019971
0.0105538
0.00125826
0.000891103
0.000757027
0.00170539
0.00262325
0.0019307
0.00348033
0.00292376
0.00207116
0.0129267
0.0056912
0.00670169
0.00549647
0.00173309
0.00148971
0.00298921
0.00236038
0.0126724
0.00540576
0.0140562
0.00657143
0.00112706
0.000855492
0.0016763
0.00345937
0.00127991
0.00660264
0.00207058
0.00114766
0.00254034
0.00952303
0.00372377
0.0137698
0.00185833
0.0093182
0.00362139
0.00309648
0.0017108
0.00594398
0.00380728
0.00371268
0.00116148
0.00416722
0.00609936
0.00166136
0.00115649
0.0141842
0.011838
0.00621687
0.00554182
0.00610796
0.0222596
0.0150629
0.00166136
0.00211933
0.00353709
0.00192829
0.00370707
0.0105298
0.0128524
0.000743974
0.00834133
0.00186276
0.00279941
0.00192858
0.00421729
0.00252951
0.00470662
0.000476153
0.00740482
0.00533887
0.0008187
0.00226296
0.00443324
0.0062877
0.00359311
0.00262287
0.000414527
0.00197927
0.0112453
0.00694269
0.00391055
0.00219407
0.00541801
0.00096856
0.000718565
0.00141466
0.00132564
0.00100337
0.00171324
0.0014279
0.00182571
0.0157677
0.000450918
0.00139137
0.00286218
0.000934929
0.00628088
0.000982429
0.000730766
0.00147896
0.00359253
0.00237973
0.000989273
0.00129711
0.000447509
0.00158608
0.000778074
0.00148452
0.00606123
0.00380973
0.000804547
0.00594904
0.00141684
0.00333213
0.0092555
0.00609722
0.00640036
0.000962644
0.00253909
0.000201948
0.000372036
0.00196791
0.0139294
0.00193486
0.0139696
0.00480692
0.00184421
0.00796584
0.00195802
0.000805377
0.00209952
0.00511275
0.00465195
0.00657116
0.000956036
0.000786054
0.00164763
0.0007321
0.00147869
0.0126682
0.00181478
0.00095826
0.00571793
0.000479507
0.00460844
0.00342729
0.00108566
0.00137839
0.00955638
0.0100686
0.0130096
0.0102161
0.00248083
0.000970652
0.00376671
0.0129652
0.00582911
0.00731406
0.0047498
0.00711375
0.00141357
0.000806501
0.000719307
0.00649211
0.00447292
0.00186149
0.00190468
0.000726653
0.00168081
0.00639542
0.00330735
0.00250177
0.0078073
0.0180142
0.0169027
0.0010144
0.0136204
0.0012164
0.0117185
0.00396714
0.00653237
0.00169335
0.00528633
0.00190892
0.00630754
0.0133896
0.0126169
0.00123986
0.00129334
0.00100308
0.00274432
0.000326252
0.00141244
0.00183951
0.00260582
0.00673898
0.0060512
0.00158995
0.000549092
0.0130303
0.000765615
0.00112897
0.00898789
0.0127503
0.0070735
0.00183231
0.00603578
0.00429474
0.000820432
0.000841098
0.00322654
0.00161238
0.0112922
0.00134781
0.00656316
0.00452701
0.00146165
0.00678265
0.0011427
0.000797672
0.000836634
0.000310186
0.000247628
0.00231894
0.000987429
0.00111512
0.000827573
0.000222013
0.000177668
0.000249106
0.0143718
0.0144354
0.000848101
0.00663107
0.0023467
0.00494684
0.00655868
0.00590504
0.00477233
0.0126301
0.0112714
0.00772868
0.004265
0.00407822
0.00908526
0.0029879
0.000727419
0.00129698
0.0014578
0.000668712