/*--------------------------------*- C++ -*----------------------------------*\
| =========                 |                                                 |
| \\      /  F ield         | OpenFOAM: The Open Source CFD Toolbox           |
|  \\    /   O peration     | Version:  v1912                                 |
|   \\  /    A nd           | Website:  www.openfoam.com                      |
|    \\/     M anipulation  |                                                 |
\*---------------------------------------------------------------------------*/
FoamFile
{
    version     2.0;
    format      ascii;
    class       volScalarField;
    location    "0.73";
    object      k;
}
// * * * * * * * * * * * * * * * * * * * * * * * * * * * * * * * * * * * * * //

dimensions      [0 2 -2 0 0 0 0];


internalField   nonuniform List<scalar> 
1431
(
2.09258
1.76643
0.223064
0.136757
0.376858
1.90351
0.174103
6.16565
1.98006
0.127341
2.52094
6.27374
3.17933
0.605176
0.655489
0.140733
0.831876
0.433462
0.814145
0.592564
4.1975
1.05255
1.75759
7.38163
1.84787
2.20514
1.93603
0.504881
0.790136
0.468305
0.679793
0.993788
0.623961
0.340161
2.55138
0.116346
3.38439
0.0642388
0.0511974
0.831909
2.22919
2.55764
2.81163
0.095041
1.52584
0.467171
1.14674
1.72191
0.190375
0.105462
1.92543
0.0844348
2.34116
6.76395
1.28151
1.28046
0.294888
6.89594
0.994793
0.337219
0.534788
0.0682101
0.0738949
0.04967
0.0420282
0.0794749
0.213923
0.127222
0.248093
0.604511
3.62619
0.385374
0.0982476
0.264859
0.554424
0.398062
0.137007
0.0370156
0.0957323
0.320445
0.839803
0.148142
4.19335
1.31167
3.38476
0.20524
0.249761
0.880952
4.48346
5.19213
0.681484
0.398061
0.132949
0.119138
1.23827
0.471313
6.51173
4.52326
0.0925748
0.402911
1.87049
0.0795891
1.03245
0.289629
0.0360153
0.928049
1.19248
2.24186
1.37118
1.0066
0.32272
3.42467
1.14879
2.06818
1.72086
0.384133
0.493562
0.115101
0.131061
0.0557604
0.719089
0.787245
3.10498
0.556676
2.69013
0.0740746
0.110913
0.636895
0.196904
0.454916
0.743656
0.486531
0.418166
0.723001
0.765276
0.166064
0.0569625
0.119489
4.9159
0.0650334
0.0375351
0.592981
0.902134
0.201359
1.82475
0.605263
0.115365
2.15115
0.12087
0.344895
0.116736
0.307253
0.897325
0.136805
1.16725
0.0951379
4.10481
2.92351
4.95162
0.308178
5.89829
3.5184
0.0911368
0.265298
2.81343
2.01753
1.96762
1.63961
0.0941035
3.412
5.83221
2.53231
0.734652
5.00941
2.32182
3.95159
0.379644
1.71071
2.29865
2.63126
0.0975334
0.0675067
1.16582
10.2453
1.7314
1.14697
1.57816
2.95838
0.759863
3.81718
0.655403
0.807672
0.84053
2.75351
0.130484
3.47339
4.48019
2.23442
0.233526
0.885301
1.42096
0.122192
2.16301
0.32252
3.21205
0.702084
0.950672
0.194989
5.70942
0.750246
1.87836
0.0689195
1.13964
0.951281
4.91305
0.631179
0.921109
2.27667
1.20103
1.99816
1.15662
1.15883
1.51937
0.189094
1.23658
6.9366
2.48076
3.95296
1.11974
1.32925
4.68855
0.663147
0.911587
0.810209
1.03624
5.94597
1.08019
0.984144
0.632866
0.869429
0.343434
2.08166
6.23414
0.843731
0.792214
1.41154
0.929089
2.11275
1.21575
0.0807033
0.54633
4.78897
0.280351
0.0899865
0.678973
2.28308
0.245505
7.85575
5.65475
0.880315
0.849178
4.83992
1.1402
0.352297
1.34155
2.49709
2.67944
3.81933
1.66364
0.260499
1.45057
1.02214
1.33093
0.488769
5.61239
0.704438
5.33737
1.30209
0.707012
0.956489
2.8367
3.45214
0.601362
1.35825
0.670846
4.91054
2.33457
5.12258
3.3191
1.80275
0.184046
2.42295
3.99113
2.66569
0.98894
1.11293
1.96745
1.30937
0.756947
0.777441
2.39848
0.0988401
0.969478
2.71347
1.26686
0.207577
2.34447
0.836692
2.72822
2.84693
3.88856
0.0644699
0.0759376
1.31634
2.14966
4.30343
2.28822
0.932042
0.230763
11.5463
2.31257
3.92492
0.206801
2.23688
2.1237
0.36078
0.270649
2.13783
6.9162
0.0944799
0.983082
0.356493
2.15549
1.26197
0.336387
2.75771
2.10586
5.76663
2.05865
1.22009
0.0351706
2.81179
3.43702
2.10768
1.99775
0.776683
1.42841
5.18937
3.42336
2.75499
1.82005
0.300504
2.21244
2.62728
0.447582
0.742889
3.90463
1.63939
4.34793
2.2867
1.1556
1.02915
0.869071
0.665241
0.289977
2.86685
1.98064
11.2781
1.13931
0.621678
2.33544
0.477747
4.8956
1.82154
2.08089
8.97069
2.75375
0.413441
2.1226
10.0314
3.70947
1.91712
0.476216
0.473724
12.7628
1.9907
2.50872
1.95554
2.01728
1.93168
0.365704
2.65919
2.68793
0.170749
5.95991
2.33654
3.32562
3.31046
1.9704
2.10085
2.8896
2.02651
5.0521
2.2253
0.668925
3.14314
1.84849
0.177409
0.502958
3.14022
3.15436
2.25735
3.1296
3.18263
1.91412
0.200369
2.4411
0.152233
2.10091
3.1142
1.43577
3.28489
1.35842
2.52241
3.09986
0.481665
0.469157
1.2956
0.922972
6.31139
3.6407
3.65173
3.71696
3.73909
3.75621
3.72678
3.72604
3.69674
3.78663
3.73079
0.456878
4.8546
0.41765
0.297069
0.192129
0.189195
0.206429
0.225583
1.3157
0.990375
0.965371
0.142671
0.173095
0.217506
0.174226
0.169698
1.21249
7.13312
0.224132
0.252162
1.07347
0.12171
6.81286
0.150704
0.285583
0.148392
0.243238
6.56762
0.16156
6.2852
0.114821
0.101829
0.291639
1.55058
4.93585
4.67915
0.1934
0.0701214
0.175448
0.102553
1.51464
0.207897
5.01162
0.0915526
0.262865
1.50725
0.33345
0.198172
0.194927
0.142043
5.19996
0.0915391
0.341693
0.496771
1.45409
0.369831
0.570949
5.18099
0.099853
0.777325
2.41339
1.37895
0.475716
1.12881
5.02078
4.798
0.444693
0.179173
0.242273
0.52075
0.758618
1.61307
0.270991
0.657659
1.20439
0.123055
2.40917
0.941192
1.704
4.87327
1.48756
0.53047
0.907438
0.138039
1.59148
0.214228
4.76355
0.817951
0.461919
0.205285
1.70484
1.52012
2.30614
2.45985
3.49759
1.12023
0.564799
1.83604
1.60187
0.558243
3.31669
1.27589
2.1612
1.01533
1.31316
0.68639
1.50032
1.66121
3.33769
3.38382
2.37593
1.1144
1.984
2.91927
0.133455
1.78375
0.246415
2.4151
1.69273
5.26053
3.4594
4.61867
4.40376
2.36584
8.11457
1.87721
0.726445
0.227093
2.9911
2.19164
3.10743
3.42075
3.81127
0.505289
0.853517
2.0397
0.14909
1.66498
3.6252
3.54737
3.15475
2.68663
1.60705
2.50517
2.66876
1.05571
0.776347
1.32195
1.13377
0.744259
3.35047
1.90326
1.9169
1.75406
1.3121
3.4912
1.34806
2.49207
3.54913
5.31206
1.85306
2.23184
2.92546
1.31832
2.46081
1.84755
1.56523
3.01137
0.172377
0.305719
0.180723
2.04247
2.7025
3.6596
1.90118
2.13042
3.36043
0.326477
2.49588
2.60344
2.25796
1.95652
0.709214
2.79466
2.42133
1.88868
3.38307
0.48755
2.92981
0.825176
2.73598
1.93271
0.0537635
3.82084
3.06754
2.41423
6.06378
0.455187
1.74388
1.29222
1.93907
4.8151
0.301682
2.9366
1.6584
2.31701
2.17708
2.07223
3.37924
2.31426
2.91783
2.85404
1.45003
2.6575
0.44221
1.92458
1.90421
2.10268
1.67774
5.35118
6.07303
3.24333
2.63614
2.70627
2.48383
1.6491
0.717422
1.45785
2.17168
0.287396
3.07315
2.12725
2.27792
3.7536
2.76802
1.06094
2.32852
1.33618
1.58645
0.747094
1.11248
0.746832
2.29683
2.29364
0.0804718
0.18673
3.40972
1.66363
0.483088
0.721241
2.5484
1.15359
2.09367
0.556988
0.328175
3.67722
1.91882
1.54773
0.264985
3.99663
1.37525
2.40689
3.20605
0.424025
1.4972
2.43114
1.295
1.64054
1.75924
2.28705
1.97042
0.471225
1.02046
1.26209
0.695478
2.14083
3.06159
1.3933
0.283944
1.86789
2.23851
0.723563
4.6652
3.05895
0.419515
1.81413
1.6772
2.97598
2.23924
3.14274
0.0821433
3.74543
2.49687
0.317781
3.26275
1.15085
2.05652
2.21806
2.31757
0.274537
0.521674
1.97804
0.4434
1.61769
3.45879
1.81419
1.41717
0.278039
1.84066
0.121395
1.63729
1.03078
0.921822
0.120178
8.48452
1.7775
1.98511
0.341569
1.84805
0.187853
8.93292
3.16185
1.22742
0.162467
0.187924
1.23353
0.130506
0.160441
2.90953
0.612943
2.68521
0.920795
1.66345
2.01407
1.99161
1.89567
0.202396
1.6363
2.73487
0.606492
2.39335
0.0444197
3.0032
0.174666
0.917083
4.73202
1.70766
2.30479
0.769674
2.10365
2.36056
0.497329
0.967802
2.99984
0.893141
0.224735
0.25467
0.902237
0.213637
3.12758
0.864903
1.34508
0.28658
3.44967
3.56303
10.2882
0.896514
1.99377
1.74486
1.70027
10.5072
0.358895
1.39305
4.54379
2.6818
7.55559
3.25512
0.47203
3.61021
1.86885
0.261464
2.34676
2.74635
3.61842
1.13313
0.535603
2.19371
0.585696
0.475996
0.0809985
3.60202
2.47161
2.36377
0.800336
2.03909
6.75266
1.31318
3.73749
3.26498
0.923966
3.11504
0.30195
0.0770819
0.973417
2.85814
5.95583
0.071577
8.27266
1.55174
5.55282
1.20255
0.598642
2.20239
0.911444
0.202101
0.103313
0.542909
1.89193
0.175517
0.0560385
0.783544
2.28647
1.9356
1.5843
3.59861
2.50953
3.58728
0.102021
5.00788
2.58422
3.76064
8.95344
2.72935
1.17148
1.29418
0.313763
0.20251
1.41886
2.28456
1.73339
6.11503
0.214982
1.81588
2.77503
8.77639
7.19531
5.69446
0.811004
0.67534
0.695627
0.69397
0.693156
0.934883
0.648873
0.485124
0.507897
0.493972
0.500056
0.654788
1.03602
0.506932
0.51732
0.555058
0.500579
0.623767
0.600478
0.490701
0.580103
0.575765
0.481158
0.571896
3.46787
4.83402
0.112712
1.84085
1.79517
0.974868
0.719364
4.66088
1.09682
0.64159
0.79287
0.517237
0.299786
7.82886
1.43399
0.259575
5.26509
1.62322
3.67766
1.07396
0.285577
8.14593
0.340486
0.557772
2.42466
2.15245
0.149215
0.51122
4.10158
0.792504
1.30554
3.37498
1.96517
2.29436
2.77832
4.4723
0.186096
0.0772116
0.49687
0.176935
2.95243
0.829357
0.464733
2.21762
2.30129
0.893792
1.24009
0.262614
0.969655
0.604229
4.27634
3.45846
2.5318
1.20876
0.302684
1.47625
0.307322
0.530406
0.504174
0.148775
2.51307
0.854141
2.37527
0.242397
1.14319
0.382746
3.09004
0.15628
12.6116
2.89723
0.957035
0.0782137
6.30906
2.89142
5.42063
0.143263
0.0918515
0.294995
0.462678
0.487236
3.0027
0.897749
5.80567
5.50264
0.541472
2.88633
0.160538
0.98492
1.23572
1.33924
0.870917
0.761853
1.38202
1.73064
3.24802
1.16777
2.8725
0.268253
0.153993
1.16923
1.23367
1.07023
0.205792
2.69632
2.00952
2.33199
0.424906
2.58895
2.25359
3.94604
6.13685
0.178698
0.74856
0.47114
0.299565
2.97923
7.53989
0.463495
1.87479
0.645324
5.6933
4.46399
0.262774
0.807435
1.07969
2.54972
2.68905
3.52386
2.76932
2.32751
0.132262
2.4539
0.0997482
2.42169
1.46122
2.98739
3.42748
6.28143
5.11188
2.4208
1.43542
2.68397
0.328795
0.431844
0.152517
0.305734
0.1545
2.67543
3.31112
2.02336
2.85025
3.12509
5.71451
0.063959
0.179543
3.76263
2.90605
2.54608
3.01849
3.73281
3.59194
2.96656
0.540314
2.8788
2.8025
2.83231
2.89701
2.74998
2.60644
2.96478
2.49164
0.0395084
0.0630381
0.0553668
0.0376948
0.0355242
0.0443203
3.1288
1.25553
3.50427
1.10836
2.3847
0.466357
0.112168
3.02734
0.129399
0.196117
2.66298
0.0888725
0.959898
1.09573
0.166254
0.428284
0.393934
2.70962
3.41839
1.19004
2.42324
1.26646
0.272686
2.29676
11.4399
1.00792
0.393367
0.971027
2.65979
0.187485
1.30505
3.59407
0.0676738
2.41743
0.0681214
0.553592
0.235741
0.462608
1.26223
0.255935
0.0673933
1.2801
0.394865
0.316249
3.19741
3.0312
0.156154
1.03014
1.8299
2.81727
0.111668
3.33278
5.37444
0.693195
4.02169
1.20456
0.335873
1.6144
3.56676
0.183394
2.72031
1.49731
2.23412
2.9855
0.466577
1.04108
0.477127
0.103337
2.62266
1.42144
2.95989
3.46887
2.0627
4.58422
4.32791
0.726042
1.64879
0.948928
0.144684
0.327991
0.186598
1.0423
0.337094
5.98646
3.32611
0.145713
3.12382
2.54097
0.848238
3.16164
0.300177
1.38441
3.63353
1.57002
2.57733
0.0841444
1.59909
1.96522
3.35017
3.25818
2.35762
0.0721389
0.430929
1.17791
5.5354
4.63974
2.21804
2.77758
2.16285
0.105493
8.01206
0.375039
1.49778
1.46059
0.978816
0.459359
2.72702
0.141558
0.767382
1.08655
4.69365
0.552819
3.49647
2.39843
1.22911
0.124126
0.329336
0.185847
3.69434
1.07932
3.1412
3.7233
2.82201
3.31591
2.52318
0.68381
0.142884
0.853398
0.529716
2.32866
2.83587
2.45604
12.3872
0.940761
0.645994
2.37833
4.47005
2.36617
0.117643
0.627771
1.86894
1.40641
1.59977
1.92811
2.23187
2.09361
0.602234
1.70702
0.712951
0.189938
2.39203
4.31177
2.38335
4.24591
1.99315
1.91923
2.36629
2.7
1.23483
0.272391
1.53046
0.762112
0.164781
2.3769
6.18941
2.45811
2.54146
0.128769
0.253116
0.768984
2.38543
0.715082
2.88401
2.76398
3.71656
4.20581
0.48059
2.63116
2.63208
2.92398
3.51425
1.34688
0.710491
0.480849
0.903216
0.728904
1.22867
0.746911
1.11037
7.75278
2.67219
0.339569
1.50167
3.09772
2.09915
0.743307
1.19725
0.506787
6.91458
1.81802
0.189117
0.0821696
11.2155
2.13067
3.06144
0.167454
0.297765
3.28363
0.836863
5.85866
0.156034
0.224508
0.420188
9.48886
0.0814816
5.81514
5.13696
0.388423
1.42293
3.90548
6.25121
3.52475
2.65705
0.513508
0.357171
1.42314
0.912618
0.391905
4.35312
0.216292
2.25825
2.34668
7.74703
0.601926
0.634819
0.116334
3.65944
0.277382
1.21454
0.397398
6.79607
0.211293
0.39088
1.08935
3.19006
1.36495
0.952674
0.44556
0.116635
0.235357
4.79845
8.69787
0.230241
2.23295
0.468567
0.191853
0.742769
0.923026
0.618506
2.31009
0.134307
0.687359
0.692541
0.960974
5.12292
0.940598
0.0933953
1.11928
0.920734
0.109376
0.275254
2.38708
0.967895
0.194645
0.607648
0.702089
0.976033
0.123708
0.059938
4.96637
4.3237
1.35107
0.905013
0.183585
0.182784
0.071401
1.13871
0.155347
0.177267
0.247049
0.251681
0.336431
0.144807
5.62562
1.09822
0.66737
3.39681
1.60046
4.40449
2.47085
0.126206
0.533211
1.24079
0.612891
2.79194
0.373265
1.21061
0.880888
0.530081
0.105377
0.600627
0.0734747
0.203595
0.127916
2.12003
2.88259
1.13012
1.53352
0.307178
1.09334
0.575041
0.761005
1.28479
0.298756
0.371875
0.914661
1.3205
0.171507
0.0586704
1.07021
0.974775
0.448029
0.325921
)
;

boundaryField
{
    frontAndBack
    {
        type            empty;
    }
    wallOuter
    {
        type            kqRWallFunction;
        value           nonuniform List<scalar> 
96
(
0.790136
0.468305
0.471313
2.27792
2.32852
2.29364
0.721241
0.556988
0.328175
1.91882
0.264985
1.37525
0.424025
2.43114
1.64054
2.21806
2.31757
0.521674
0.202396
0.917083
0.224735
1.13313
0.535603
2.47161
2.36377
0.811004
0.67534
0.695627
0.69397
0.693156
0.934883
0.648873
0.485124
0.507897
0.493972
0.500056
0.654788
1.03602
0.506932
0.51732
0.555058
0.500579
0.623767
0.600478
0.490701
0.580103
0.575765
0.481158
0.571896
0.557772
0.829357
0.464733
0.530406
0.148775
2.37527
0.541472
1.16777
0.74856
0.47114
0.463495
2.68905
0.132262
0.0997482
2.98739
2.90605
3.01849
2.96656
0.540314
2.8788
2.8025
2.83231
2.89701
2.74998
2.60644
2.96478
2.49164
0.0395084
0.0630381
0.0553668
0.0376948
0.0355242
0.0443203
0.466357
0.166254
0.462608
0.466577
2.35762
0.185847
2.83587
2.88401
0.710491
0.480849
0.0814816
2.65705
2.34668
0.116334
)
;
    }
    inlet
    {
        type            fixedValue;
        value           nonuniform 0();
    }
    outlet
    {
        type            zeroGradient;
    }
    wallInner
    {
        type            kqRWallFunction;
        value           nonuniform List<scalar> 
126
(
0.994793
0.337219
0.534788
0.0682101
0.0738949
0.04967
0.0420282
0.0794749
0.213923
0.127222
0.248093
0.604511
3.62619
0.385374
0.0982476
0.264859
0.554424
0.398062
0.137007
0.0370156
0.0957323
0.320445
0.839803
0.148142
0.402911
0.384133
0.493562
0.115101
0.131061
0.0557604
0.719089
0.787245
3.10498
0.556676
2.69013
0.0740746
0.110913
0.743656
0.486531
0.0650334
0.0375351
0.902134
0.201359
0.115365
0.344895
0.307253
0.136805
2.81343
0.0975334
1.14697
1.57816
0.130484
1.87836
0.260499
0.707012
0.956489
0.184046
1.96745
1.30937
0.777441
0.0988401
0.0644699
0.0759376
1.31634
0.36078
0.270649
0.983082
1.22009
0.0351706
1.63939
1.02915
0.869071
0.177409
0.152233
1.12881
1.20439
0.205285
1.83604
1.27589
1.66121
1.1144
1.69273
0.853517
1.66498
1.13377
1.90326
1.85306
0.709214
0.0537635
1.6584
1.45003
1.4972
1.295
0.187853
1.17148
1.41886
0.604229
2.0627
0.601926
0.634819
1.24079
0.612891
0.373265
0.880888
0.530081
0.105377
0.0734747
0.127916
2.12003
2.88259
1.13012
1.53352
0.307178
0.575041
0.761005
1.28479
0.298756
0.371875
0.914661
1.3205
0.171507
0.0586704
1.07021
0.974775
0.448029
0.325921
)
;
    }
    procBoundary3to1
    {
        type            processor;
        value           nonuniform List<scalar> 
48
(
3.31296
2.1438
2.25378
2.94086
1.47195
1.84868
2.1438
1.71598
3.62788
0.196459
0.196459
0.219365
0.219365
0.247017
0.29169
0.231636
0.297765
0.269992
0.297765
0.302704
0.197882
0.39146
0.302704
0.865566
0.185628
0.228419
0.660264
0.39146
0.901549
0.474114
0.474114
1.34808
1.34808
3.62788
0.230723
1.3483
2.25879
0.185628
3.67352
1.284
0.247017
2.86456
3.31312
0.302704
0.309846
0.865087
1.42452
0.196992
)
;
    }
    procBoundary3to2
    {
        type            processor;
        value           nonuniform List<scalar> 
29
(
0.196653
0.196653
0.101086
0.117959
0.234324
0.176923
0.086837
0.209013
0.223125
0.210889
0.203687
0.25999
0.148672
0.122864
0.0909451
0.123438
0.17272
0.198527
0.209179
0.114372
0.104412
0.17272
0.0416187
0.198527
0.0695272
0.126837
0.198527
0.3062
0.3062
)
;
    }
}


// ************************************************************************* //
