/*--------------------------------*- C++ -*----------------------------------*\
| =========                 |                                                 |
| \\      /  F ield         | OpenFOAM: The Open Source CFD Toolbox           |
|  \\    /   O peration     | Version:  v1912                                 |
|   \\  /    A nd           | Website:  www.openfoam.com                      |
|    \\/     M anipulation  |                                                 |
\*---------------------------------------------------------------------------*/
FoamFile
{
    version     2.0;
    format      ascii;
    class       volScalarField;
    location    "0.7";
    object      epsilon;
}
// * * * * * * * * * * * * * * * * * * * * * * * * * * * * * * * * * * * * * //

dimensions      [0 2 -3 0 0 0 0];


internalField   nonuniform List<scalar> 
1431
(
84.657
24.1465
4.1742
2.3101
9.51074
38.3916
1.42643
375.906
49.2336
1.3019
141.607
295.644
60.2672
14.7421
25.8767
1.05744
32.0537
13.7641
29.7931
19.9823
291.963
19.0327
48.6456
342.001
50.7724
35.815
95.1746
15.8329
61.1113
28.7081
19.65
33.409
17.6352
8.23073
44.5038
0.66615
88.3507
0.444
0.448204
25.5688
79.0007
76.1248
52.0829
0.704163
56.1609
12.0662
36.5435
80.0357
1.58723
0.801756
23.8186
0.563591
31.7807
332.911
17.933
14.7809
9.18409
332.549
52.7523
11.0276
20.248
0.961703
1.10397
0.577346
0.630871
1.82027
6.38975
2.32481
8.22629
26.8849
340.949
11.291
2.49063
7.22879
18.5165
16.5766
3.76409
0.483635
1.29971
6.86767
38.418
3.9995
137.258
40.9803
162.906
2.25898
4.65315
24.4487
182.406
197.409
28.247
10.9741
0.603935
0.790757
20.0859
30.541
332.918
95.3897
0.762805
9.55059
25.2733
0.803576
37.6251
7.68738
0.346705
34.1209
41.5242
142.975
39.5638
42.1802
9.33284
67.8344
22.0175
80.1369
25.4519
11.8858
15.6664
2.7004
3.37207
0.779436
36.9484
39.1301
335.591
22.3937
268.201
1.04247
2.23958
15.1508
3.67121
7.12126
38.7353
18.5498
5.11299
31.0104
29.9885
1.91472
0.387152
1.26921
169.925
0.722289
0.371032
16.2434
51.183
6.37986
55.0054
17.7143
2.46339
28.8397
0.88231
13.7326
1.46672
10.2149
28.2498
3.36641
35.7632
0.477319
156.968
43.8721
176.227
3.53929
175.39
71.5891
1.89678
3.7786
264.003
82.5404
84.4079
28.0267
0.722421
62.8991
180.813
35.0736
20.9826
175.801
33.7826
154.616
4.78423
42.3925
30.7212
42.7951
2.08597
0.442082
13.0477
554.777
40.1059
86.667
151.304
46.5157
21.2845
183.195
17.4359
23.5408
23.975
192.784
3.44041
57.1275
88.843
34.4703
6.05542
42.6011
17.6233
2.36297
106.627
5.72777
58.338
18.9438
33.8855
5.05516
210.097
21.1634
159.571
1.42276
38.258
35.3051
186.836
18.7539
26.8762
35.1118
11.8328
95.1401
37.1537
14.367
83.0756
3.02941
38.6279
279.773
131.811
78.2053
39.3175
55.5693
339.951
18.752
33.2315
22.8083
34.8646
174.32
34.5855
33.7274
16.8421
10.5539
3.5629
26.0987
238.118
25.4216
22.7053
43.7534
29.3238
107.863
38.9031
0.553079
11.5234
152.03
3.39006
1.15068
18.0708
63.7705
3.13786
343.505
142.307
25.831
36.5454
167.988
11.39
4.46044
42.6593
126.259
58.4247
299.92
76.1094
10.2069
42.8912
31.2451
17.3963
5.75019
170.818
20.8065
164.023
52.2932
43.5549
52.7112
42.5272
85.6399
17.5929
14.1065
8.43855
122.369
68.0531
116.739
179.549
23.6313
6.09652
57.3213
74.2987
36.8512
35.5319
42.1593
194.882
100.645
20.7602
50.6308
33.0916
0.413152
12.0007
41.5439
52.2102
2.81932
32.5877
25.0856
76.5615
48.4168
72.6423
0.918203
1.41933
121.997
49.4386
81.4885
35.2681
12.3343
4.38197
907.412
30.8551
69.614
3.80918
28.4135
37.5639
9.67356
6.01755
56.1647
345.127
1.41258
74.1335
8.31312
54.7907
24.3137
3.55821
44.101
55.2269
162.036
38.2681
105.918
0.389355
46.9235
68.4622
75.6006
46.857
24.8228
18.276
160.507
59.6081
39.9875
41.7537
9.55043
28.5709
36.7897
12.8847
5.97648
183.421
132.933
145.955
72.6251
22.0484
69.8739
61.0654
7.72233
5.76014
141.575
52.9304
685.876
43.415
17.7609
129.092
10.2408
193.638
21.6703
70.374
416.088
39.4869
6.71735
34.4256
514.802
79.4961
38.5668
5.31928
15.5316
910.146
43.0351
35.176
46.6674
33.8696
23.4749
3.82137
39.0569
39.8013
2.48729
162.193
30.8846
69.7849
71.6145
56.3017
41.0287
43.6539
65.4998
110.784
60.223
5.02874
63.4169
38.7612
4.6044
6.12584
61.501
49.3569
37.4209
59.3407
63.9173
44.6263
4.0524
33.6572
2.90122
39.29
57.1418
48.7435
64.8172
14.2614
34.9246
55.0415
11.058
11.6824
41.6215
14.0736
266.183
81.6269
83.8266
87.7033
89.0764
89.3615
86.5694
84.6892
87.2381
86.4012
87.0408
12.1228
162.032
10.8652
8.04206
3.73106
3.64806
2.70588
3.61941
37.4091
19.7465
21.2378
1.26122
1.48844
3.33071
1.59042
1.37644
24.2168
298.555
3.40155
4.17138
20.7997
1.08636
284
1.24574
4.52219
1.42571
4.59677
275.172
1.52029
264.661
0.84375
0.705671
5.78104
36.2446
170.316
151.336
1.94557
0.48583
2.17404
0.650792
33.8568
2.36425
174.884
0.481612
3.2314
35.5365
7.53833
2.21456
3.25719
0.403161
192.614
0.519534
4.33661
1.82894
40.9285
8.17069
8.68295
200.012
0.480563
26.2603
59.1943
16.0151
13.8391
95.4903
191.866
154.951
11.1176
0.780085
1.10758
13.5679
4.81144
46.34
5.21687
8.58725
118.783
1.24348
57.8238
6.31032
49.3977
164.465
53.8993
3.31586
26.2693
2.15968
17.9356
2.57023
182.965
25.0604
12.7123
6.33822
21.7407
17.8352
34.3964
90.2874
80.3839
14.6179
7.67595
179.462
16.4661
17.4651
64.0179
90.9611
81.1617
9.33677
43.8645
11.4764
16.8732
158.735
67.4955
80.8034
32.5184
85.3076
61.6243
49.2566
1.29546
77.2128
2.81441
57.5514
161.771
396.85
83.3566
164.801
88.6993
30.8669
661.265
27.5853
6.27483
3.42195
60.5426
56.5097
51.8466
90.2936
85.4774
3.2734
34.4222
34.5172
2.01533
157.543
76.7207
78.715
54.3449
68.9021
56.6078
36.5341
39.3936
30.8559
22.4134
13.9255
52.3153
18.9985
67.3898
191.84
24.0079
20.3556
42.1733
75.8992
32.1228
35.1384
61.6344
190.218
179.737
30.7542
54.6814
14.5053
43.526
38.0166
124.61
49.7
2.6152
7.50479
2.30277
25.9497
40.3034
77.0264
61.3904
56.4152
215.181
3.57639
44.5596
41.2216
35.6388
25.077
25.7878
44.928
32.0902
44.9547
76.2063
10.5066
54.8048
11.5057
41.4946
25.1588
0.905332
84.1542
49.9478
37.5162
330.221
4.9585
61.6106
15.8808
58.6615
102.409
2.90916
53.271
144.689
30.489
37.3988
35.1077
249.199
30.4353
58.5365
74.0461
134.107
42.1537
10.9716
36.0098
48.4815
51.104
24.1034
178.102
173.143
71.8509
44.4091
38.1061
57.8813
56.1179
20.5094
21.9028
29.0385
9.91241
52.5867
38.6905
275.609
86.2504
53.421
30.9897
284.153
26.0995
46.2136
8.72195
13.7108
5.88048
30.066
280.36
0.913463
4.54029
68.8789
50.8724
12.2149
63.6337
115.886
42.0234
77.675
44.671
24.531
89.1586
244.661
53.1182
19.3863
92.638
156.136
35.0093
57.2284
32.3944
114.54
299.519
115.791
198.552
21.0497
46.3879
56.362
4.17606
37.3424
41.6415
24.3788
84.0826
61.971
56.4165
3.13397
63.0617
83.59
19.8824
149.444
49.8377
1.37598
44.9372
75.9513
58.6399
137.043
200.716
0.594251
83.1417
43.1781
3.2019
145.172
39.094
73.9703
294.811
289.689
3.00012
31.5179
49.6137
4.82038
52.9962
73.098
37.699
36.089
6.03665
58.0941
1.10287
16.7492
12.988
14.2996
0.967776
436.82
54.0778
55.8358
7.29439
40.3789
3.20733
432.937
143.666
39.875
1.55858
2.73684
43.9754
0.921336
1.23046
56.0854
7.99618
56.1575
33.7153
51.9743
67.5336
59.6665
22.8885
12.844
23.7167
61.518
16.5993
33.0818
0.317766
47.2167
1.69232
87.7852
158.022
39.0817
30.6368
21.9611
26.6551
82.2028
14.268
33.0778
67.2744
28.8201
15.9548
2.64549
33.0025
2.34484
54.8413
26.5777
27.5725
6.26052
73.7767
75.897
841.7
28.231
41.6245
25.2073
40.9188
624.061
6.51117
16.9997
170.937
67.4048
320.401
64.8585
11.0835
90.3953
56.8664
5.2673
112.671
39.3525
80.0211
118.304
32.5918
57.7069
15.9675
10.5468
0.451623
86.3482
337.406
314.71
23.4235
25.4106
317.417
54.4124
93.0378
60.5144
8.20846
52.696
1.09322
0.417121
33.8389
44.6541
180.509
0.305996
377.769
23.157
142.032
43.9612
16.6601
29.1933
12.009
5.26168
1.46948
8.1224
60.9032
3.71401
0.460259
8.02285
30.0325
54.0026
17.6873
74.3231
53.0853
73.9303
0.670539
156.721
51.4774
83.9482
701.177
63.237
111.377
40.0729
7.14867
1.82139
91.3576
47.6365
71.9153
265.982
2.34852
68.3856
164.157
610.833
338.943
424.105
75.8656
45.8166
50.535
57.7486
54.2536
86.777
42.9548
36.0889
32.5502
34.7172
35.3678
58.4453
96.714
32.353
39.4043
45.2521
30.2272
42.1732
41.4835
29.4623
40.7008
39.8525
29.5908
38.12
70.4859
126.025
0.893536
31.978
37.584
17.7731
18.9175
242.863
43.9828
18.5688
15.4348
17.2072
1.79931
358.281
35.5789
4.93352
138.656
52.4837
77.2317
28.5284
5.1649
356.084
9.40533
35.982
42.0314
27.5198
3.9754
3.62249
144.359
30.3059
33.892
67.8644
58.4626
29.3523
41.5701
154.145
1.95238
0.58941
11.9762
2.02273
45.1855
60.6939
28.0856
44.7475
30.6012
5.21444
31.1891
4.7693
6.70033
23.3783
161.399
69.6423
35.4294
65.9461
5.82566
37.407
2.9906
35.7873
10.2208
7.25356
35.4082
29.5483
358.178
4.18415
34.1959
10.4088
59.8552
1.39843
984.619
57.6024
30.527
0.434074
342.029
60.6527
143.935
1.09453
0.570894
3.08425
8.67854
11.8235
48.7633
32.2456
461.094
217.15
35.4742
59.1471
1.8712
39.3225
25.3976
44.7521
29.9185
20.0952
45.3437
76.6478
66.2542
111.664
77.4066
2.70935
1.47821
26.7769
58.2585
51.7223
3.65286
43.9546
25.2394
31.1966
14.7351
38.185
29.6701
176.768
496.263
1.65632
61.5504
30.4228
4.06922
64.3334
368.184
27.9251
42.4777
17.963
163.073
151.506
2.59715
18.6475
36.79
39.6433
376.871
169.278
70.6418
31.4535
6.33818
130.958
4.63889
59.3556
17.2198
387.193
88.5319
321.364
161.795
58.6683
36.222
50.7019
4.2732
2.94637
3.19397
3.06923
2.66628
41.1808
84.4768
40.8306
52.9441
77.0358
167.933
0.614892
4.12886
80.6688
393.96
52.2469
374.779
95.1086
75.7893
419.93
35.1681
429.022
432.057
450.8
346.987
352.798
331.927
453.607
299.869
0.749955
3.16999
2.63382
0.852176
1.11528
1.65656
54.3391
49.6655
84.9616
43.6308
58.9887
28.6054
1.78586
59.209
1.10345
1.67735
38.5514
0.535222
27.4941
24.3284
8.34345
10.1705
8.47185
76.1432
73.6642
39.5689
46.455
49.8484
3.78311
30.4994
797.11
29.0235
6.70639
26.4246
51.6783
0.52597
13.3301
164.842
0.355177
55.1192
1.18269
11.8362
2.51077
31.1796
30.7716
4.59104
0.914253
35.8471
9.99693
5.43159
66.6006
78.9692
0.373149
21.1627
22.8815
207.671
0.978182
169.173
256.262
10.4251
188.313
39.0414
8.32927
50.9298
164.385
3.65183
47.1999
51.9491
123.428
73.0117
30.4487
35.5291
8.74457
0.630767
65.2897
20.579
45.8664
146.775
215.049
208.52
101.748
20.313
20.527
48.6193
2.84463
5.59464
3.38662
34.1459
6.93835
248.294
62.0681
0.671674
156.829
35.7544
15.7239
75.0233
2.03471
44.5292
199.792
69.9274
47.4732
0.677839
54.1177
54.1503
194.066
81.0423
362.124
0.68728
10.4061
36.8026
307.837
158.295
87.078
66.2419
52.5315
1.20713
362.997
9.00055
46.2353
33.6171
32.2454
12.8462
66.438
1.72136
43.468
36.9579
187.153
10.5722
73.092
46.2737
23.8762
1.69882
6.22222
10.1091
115.558
29.6359
72.8494
153.213
51.0887
62.8683
35.3416
21.3345
1.649
32.3163
16.4927
45.936
403.539
35.151
784.733
34.1087
13.547
33.1334
159.528
34.5203
1.49688
4.90418
46.6056
84.5541
19.7003
72.7665
98.4454
63.6494
16.9146
20.8262
12.5908
2.1761
40.6067
236.395
59.6147
286.226
44.768
22.8127
39.3294
42.5012
32.648
5.31998
62.3174
13.3007
1.96961
33.082
409.925
36.8369
37.4042
1.27865
4.57398
24.7136
34.6853
20.9152
417.844
64.9235
90.5728
144.236
9.27152
38.9323
50.9241
44.2109
181.026
46.3198
60.6517
33.7135
48.528
18.0458
59.8087
20.9685
33.1571
364.647
37.1481
8.08498
37.2752
64.478
109.055
23.1016
43.7512
14.0729
317.709
29.8433
3.72866
0.736955
658.077
40.0907
69.8208
1.77983
4.56207
252.47
17.9273
299.35
2.64526
2.42775
9.66615
485.702
3.88343
409.561
189.453
1.16062
47.3025
203.299
315.321
88.8009
335.272
10.9172
8.89816
33.212
43.4328
8.57401
158.852
4.13829
59.4564
459.926
432.156
33.5745
38.8054
5.44831
176.076
2.681
43.604
11.1807
317.323
1.85992
7.90517
12.5785
94.912
74.6228
33.8851
8.53556
1.33522
2.47419
205.845
410.563
2.4529
42.1784
9.42989
2.22114
24.9369
29.9737
13.0569
49.4881
1.46094
21.5805
20.5416
32.2771
201.271
31.333
2.60955
42.8089
32.2851
1.4041
2.70278
52.2287
18.4584
2.17438
16.942
19.6034
27.8274
2.82121
2.00541
202.799
180.963
73.1061
10.9063
2.1067
3.45304
0.577637
38.727
1.72845
2.3001
4.39664
4.78138
10.5244
1.68048
178.806
45.1988
19.7213
65.8633
70.3926
164.241
38.1055
1.47655
9.42662
111.954
33.5073
174.814
8.7442
20.6896
55.7254
10.6369
1.49678
10.8911
1.02449
1.48017
4.64608
159.419
269.465
62.3278
114.507
11.8277
91.8576
31.7139
43.2053
104.246
12.5561
14.8096
44.7494
92.8113
5.81589
1.00668
74.8573
57.8797
18.7739
13.3604
)
;

boundaryField
{
    frontAndBack
    {
        type            empty;
    }
    wallOuter
    {
        lowReCorrection 0;
        type            epsilonWallFunction;
        value           nonuniform List<scalar> 
96
(
61.1113
28.7081
30.541
275.609
284.153
280.36
63.6337
44.671
24.531
244.661
19.3863
156.136
32.3944
299.519
198.552
294.811
289.689
31.5179
12.844
87.7852
15.9548
118.304
32.5918
337.406
314.71
75.8656
45.8166
50.535
57.7486
54.2536
86.777
42.9548
36.0889
32.5502
34.7172
35.3678
58.4453
96.714
32.353
39.4043
45.2521
30.2272
42.1732
41.4835
29.4623
40.7008
39.8525
29.5908
38.12
35.982
60.6939
28.0856
35.7873
7.25356
358.178
35.4742
111.664
61.5504
30.4228
27.9251
376.871
6.33818
4.63889
387.193
393.96
374.779
419.93
35.1681
429.022
432.057
450.8
346.987
352.798
331.927
453.607
299.869
0.749955
3.16999
2.63382
0.852176
1.11528
1.65656
28.6054
8.34345
31.1796
30.4487
362.124
10.1091
403.539
417.844
60.6517
33.7135
3.88343
335.272
459.926
5.44831
)
;
    }
    inlet
    {
        type            fixedValue;
        value           nonuniform 0();
    }
    outlet
    {
        type            zeroGradient;
    }
    wallInner
    {
        lowReCorrection 0;
        type            epsilonWallFunction;
        value           nonuniform List<scalar> 
126
(
52.7523
11.0276
20.248
0.961703
1.10397
0.577346
0.630871
1.82027
6.38975
2.32481
8.22629
26.8849
340.949
11.291
2.49063
7.22879
18.5165
16.5766
3.76409
0.483635
1.29971
6.86767
38.418
3.9995
9.55059
11.8858
15.6664
2.7004
3.37207
0.779436
36.9484
39.1301
335.591
22.3937
268.201
1.04247
2.23958
38.7353
18.5498
0.722289
0.371032
51.183
6.37986
2.46339
13.7326
10.2149
3.36641
264.003
2.08597
86.667
151.304
3.44041
159.571
10.2069
43.5549
52.7112
6.09652
194.882
100.645
50.6308
0.413152
0.918203
1.41933
121.997
9.67356
6.01755
74.1335
105.918
0.389355
132.933
69.8739
61.0654
4.6044
2.90122
95.4903
118.783
6.33822
179.462
90.9611
158.735
85.3076
161.771
34.4222
157.543
52.3153
191.84
179.737
25.7878
0.905332
144.689
134.107
114.54
115.791
3.20733
111.377
91.3576
23.3783
215.049
33.5745
38.8054
111.954
33.5073
8.7442
55.7254
10.6369
1.49678
1.02449
4.64608
159.419
269.465
62.3278
114.507
11.8277
31.7139
43.2053
104.246
12.5561
14.8096
44.7494
92.8113
5.81589
1.00668
74.8573
57.8797
18.7739
13.3604
)
;
    }
    procBoundary3to1
    {
        type            processor;
        value           nonuniform List<scalar> 
48
(
88.4461
89.3814
78.3458
82.0791
52.0396
85.8378
89.3814
24.8547
84.3505
2.92446
2.92446
3.72004
3.72004
4.05437
4.34395
4.05033
6.10163
5.06311
6.10163
6.20587
2.99025
4.30157
6.20587
32.3162
3.05001
3.73097
7.32973
4.30157
10.6333
15.8408
15.8408
17.7629
17.7629
84.3505
3.78635
52.5922
37.5593
3.05001
94.752
45.3817
4.05437
54.6109
69.9344
6.20587
4.50441
61.6369
48.9071
3.27963
)
;
    }
    procBoundary3to2
    {
        type            processor;
        value           nonuniform List<scalar> 
29
(
2.31424
2.31424
2.4099
2.89605
8.72656
4.89783
2.42689
2.56732
2.0285
2.15297
3.1312
5.52419
2.13988
1.16587
0.937936
1.39556
1.715
1.73781
2.29885
1.051
1.04556
1.715
0.708189
1.73781
0.722749
1.86385
1.73781
4.74471
4.74471
)
;
    }
}


// ************************************************************************* //
