/*--------------------------------*- C++ -*----------------------------------*\
| =========                 |                                                 |
| \\      /  F ield         | OpenFOAM: The Open Source CFD Toolbox           |
|  \\    /   O peration     | Version:  v1912                                 |
|   \\  /    A nd           | Website:  www.openfoam.com                      |
|    \\/     M anipulation  |                                                 |
\*---------------------------------------------------------------------------*/
FoamFile
{
    version     2.0;
    format      ascii;
    class       volScalarField;
    location    "0.7";
    object      k;
}
// * * * * * * * * * * * * * * * * * * * * * * * * * * * * * * * * * * * * * //

dimensions      [0 2 -2 0 0 0 0];


internalField   nonuniform List<scalar> 
1431
(
1.99057
1.70926
0.199438
0.169099
0.4094
1.97867
0.181065
6.29428
2.01887
0.126897
2.61685
6.35601
3.20867
0.602556
0.709338
0.140776
0.855567
0.42609
0.834356
0.608641
4.32327
1.04953
1.78424
7.5879
1.86724
2.13936
2.02237
0.551601
0.768661
0.475114
0.663223
0.969258
0.607803
0.335846
2.5444
0.0959645
3.38857
0.0621088
0.0505976
0.80542
2.19908
2.50743
2.82871
0.093994
1.5662
0.507879
1.20769
1.80675
0.203875
0.113259
1.69159
0.0809779
2.11
6.91695
1.3439
1.02247
0.310866
7.06999
1.02897
0.356564
0.593157
0.0754775
0.076775
0.0534835
0.0454569
0.0905664
0.245974
0.128469
0.288977
0.613613
3.79351
0.382511
0.12888
0.261928
0.555387
0.439377
0.165335
0.0441196
0.0957211
0.275574
0.86587
0.173282
4.27642
1.37334
3.39615
0.260865
0.335577
0.944889
4.51667
5.26187
0.714931
0.432201
0.0905343
0.117377
1.36627
0.474494
6.63915
4.46678
0.0930875
0.343801
1.63175
0.0826354
1.06012
0.300804
0.0426784
0.938281
1.15946
2.32421
1.40341
1.03716
0.340311
3.47814
1.17471
2.03854
1.75147
0.420431
0.491474
0.146429
0.155291
0.0574622
0.740419
0.847618
2.99833
0.560425
2.79406
0.0734667
0.128011
0.695906
0.211998
0.573886
0.765998
0.471894
0.523538
0.735641
0.767597
0.192093
0.064475
0.12678
4.94228
0.0546366
0.0381648
0.586742
0.930673
0.219571
1.8694
0.589494
0.129365
1.90359
0.117158
0.411427
0.138125
0.363406
0.870874
0.161491
1.13587
0.0828953
4.12058
2.71753
5.02318
0.412268
5.82267
3.59734
0.14508
0.368703
2.85924
1.93804
1.93059
1.75193
0.102147
3.37691
5.85156
2.25656
0.710248
5.06206
2.21617
3.95991
0.481669
1.76464
2.07287
2.55511
0.103263
0.0629091
0.973642
10.6392
1.79205
1.11607
1.60891
2.81356
0.751736
3.82352
0.663499
0.792026
0.817615
2.85212
0.157488
3.25222
4.34135
2.17172
0.275499
0.846722
1.28781
0.203777
2.28439
0.41719
3.18524
0.709012
0.92511
0.209881
5.80819
0.711197
1.86802
0.0955782
1.10728
0.95888
4.97197
0.579595
0.895422
2.21143
0.959386
2.12481
1.12743
0.999492
1.57595
0.287588
1.20352
7.11661
2.5991
3.91357
1.09376
1.40591
4.77937
0.646818
0.939429
0.786815
1.01121
5.96556
1.04908
0.992549
0.638277
0.793279
0.430284
1.86909
6.36726
0.847836
0.783135
1.44383
0.933883
2.21995
1.18419
0.0883061
0.59825
4.75843
0.38983
0.12261
0.687128
2.25612
0.356865
8.09662
5.58122
0.856398
0.82817
4.87366
0.917041
0.450338
1.3052
2.66241
2.77122
3.94875
1.75025
0.274773
1.49583
0.99302
1.31911
0.475992
5.52967
0.681872
5.26229
1.41902
0.688662
0.929186
2.60217
3.5034
0.585392
1.07749
0.76583
4.92977
2.30337
5.05153
3.32945
1.67803
0.207952
2.49442
3.86945
2.34186
1.04469
1.08931
2.00859
1.27485
0.704012
0.759919
2.15673
0.0360323
0.987183
2.54431
1.36492
0.315904
2.17016
0.817155
2.68484
2.81613
3.68518
0.062732
0.086812
1.36545
2.21573
4.11206
2.2157
1.0148
0.294952
11.9634
2.10043
3.71123
0.176226
1.84225
2.13999
0.325852
0.221117
2.16346
7.23089
0.135026
0.971442
0.437514
2.19661
1.26921
0.427983
2.64542
2.10476
5.78204
2.09642
1.24518
0.0346409
2.74103
3.29958
2.08063
2.04755
0.80831
1.35288
5.14524
3.24208
2.47334
1.83019
0.422104
1.86059
2.41536
0.503502
0.512788
3.81472
1.6574
4.33728
2.25405
1.15322
1.00072
0.854305
0.706697
0.349857
2.73876
2.00592
11.716
1.11792
0.631807
2.43483
0.535647
4.94295
1.60142
2.05734
9.29152
2.53193
0.362439
2.25077
10.4244
3.81443
1.97936
0.346324
0.536839
13.2557
2.06293
2.32138
2.00275
2.01012
1.71172
0.446352
2.47193
2.49676
0.270759
5.8937
2.02491
3.40326
3.40299
1.9809
2.18943
2.70123
2.00579
4.90415
2.20429
0.453872
3.19642
1.91768
0.155198
0.605895
3.16998
2.94151
2.23674
3.12671
3.27944
1.96397
0.215129
2.26535
0.113949
2.16791
3.07736
1.40096
3.35366
1.10095
2.32917
3.02724
0.539698
0.50427
1.31448
0.926473
6.45291
3.77002
3.7702
3.82016
3.85187
3.85505
3.83514
3.8498
3.79622
3.91029
3.8374
0.514049
4.8209
0.47521
0.399485
0.232987
0.249884
0.22208
0.267766
1.35383
0.983473
0.972159
0.153443
0.186454
0.23696
0.188756
0.180528
1.21016
7.3196
0.247888
0.311755
1.06312
0.129088
6.97413
0.159627
0.359219
0.15891
0.255322
6.71376
0.172273
6.41177
0.115786
0.100449
0.276395
1.5729
4.94927
4.65314
0.206882
0.0810567
0.188981
0.09931
1.53868
0.199301
5.01284
0.0806944
0.212066
1.53547
0.351714
0.173033
0.215551
0.0757495
5.19482
0.0854274
0.294296
0.233583
1.48837
0.405165
0.528773
5.15564
0.0796213
0.817085
2.50929
1.17431
0.45731
1.17365
4.96708
4.74714
0.512482
0.114046
0.143119
0.561585
0.471944
1.62398
0.301577
0.632746
1.25779
0.164192
2.52129
0.598721
1.71982
4.81191
1.56188
0.331107
0.947183
0.223498
1.3337
0.318103
4.66862
0.790281
0.508195
0.19
1.55712
1.27077
2.15733
2.497
3.59588
1.16859
0.462132
1.87337
1.26543
0.609645
3.32376
1.29562
2.12077
0.748487
1.34352
0.614161
1.28282
1.68265
3.38771
3.46058
2.19994
1.14138
1.96531
2.81946
0.147224
1.84127
0.352434
2.4922
1.72529
5.42553
3.53351
4.49576
4.19462
1.9677
8.34991
1.44857
0.519959
0.330227
3.10823
2.1822
2.95844
3.30722
3.93938
0.318919
0.622016
2.02924
0.236018
1.7114
3.76542
3.67977
3.0393
2.62794
1.65881
2.36895
2.50883
1.02699
0.777381
1.04976
0.835602
0.793407
3.49002
1.8398
1.68007
1.51818
1.27735
3.58526
1.35805
2.32035
3.41366
5.38499
1.84791
2.02387
2.93004
1.05287
2.40879
1.88954
1.61434
2.86547
0.206139
0.399549
0.279037
1.62293
2.50545
3.79508
1.94093
2.13828
3.37249
0.423817
2.63686
2.51199
2.25321
1.76288
0.512088
2.66648
2.05966
1.89132
3.48096
0.533316
2.83521
0.714875
2.53585
1.68812
0.0583776
3.94816
2.8919
2.33368
6.07037
0.521746
1.75086
1.15657
1.93587
4.62414
0.374441
2.91172
1.60551
1.98757
2.15298
2.06584
3.44036
2.09606
3.05117
2.84507
1.50064
2.54867
0.527791
1.9501
1.93579
2.08625
1.78113
5.38235
6.01138
3.33961
2.58643
2.39352
2.54843
1.6328
0.73117
1.5308
1.93701
0.401333
2.96105
2.21906
2.28684
3.86555
2.91174
1.08137
2.33805
1.34247
1.62874
0.724565
1.05923
0.506072
2.08668
2.30331
0.0828627
0.219274
3.53817
1.68052
0.549276
0.821013
2.70065
1.13849
2.05693
0.648928
0.419802
3.75783
1.99254
1.61325
0.346575
3.83041
1.46334
2.28562
3.12921
0.517579
1.45562
2.4434
1.34861
1.72143
1.54658
2.38138
2.01072
0.304064
1.10192
1.23218
0.682284
2.09588
3.16508
1.41992
0.319725
1.85881
2.19361
0.728178
4.64048
2.8883
0.131112
1.962
1.80025
3.03715
2.32888
3.25466
0.0933021
3.79518
2.64109
0.375062
3.33017
1.13682
2.02335
2.28516
2.32851
0.379015
0.512824
2.02041
0.470822
1.66141
3.60334
1.83027
1.43621
0.285993
1.87715
0.126536
1.27056
0.909085
1.05646
0.123427
8.75782
1.81239
1.97287
0.361762
1.90784
0.123528
9.24341
3.14683
1.21153
0.175936
0.215436
1.20014
0.131746
0.166655
2.94077
0.552687
2.74554
0.939203
1.7013
1.9865
1.97481
1.65875
0.273198
1.2941
2.82593
0.572803
2.23021
0.0499862
2.79321
0.187491
1.01613
4.57162
1.74737
2.09733
0.743176
1.89041
2.3518
0.514984
0.940298
3.09469
0.87297
0.300396
0.343156
0.95397
0.299288
3.06166
0.838152
1.35035
0.299973
3.5884
3.7049
10.5871
0.882116
2.07469
1.34243
1.75027
10.9573
0.462115
1.22545
4.58248
2.68729
7.77135
3.40457
0.532392
3.66655
1.87483
0.309839
2.54331
2.46625
3.72076
1.2281
0.525562
2.17842
0.581582
0.520814
0.0713947
3.68417
2.53338
2.37649
0.773614
1.82284
6.91339
1.35753
3.80937
3.22785
0.670591
2.99029
0.157127
0.0761075
0.951999
2.67733
5.97524
0.0550384
8.52967
1.29229
5.40783
1.1802
0.601105
1.95668
0.776041
0.235062
0.101857
0.670643
1.9536
0.204086
0.0655917
0.606097
2.08761
1.97199
1.35311
3.70078
2.6032
3.70525
0.096536
4.97561
2.66539
3.87421
9.27944
2.81243
1.22625
1.32457
0.319487
0.218231
1.39031
2.37662
1.72291
6.20707
0.275191
1.79618
2.60347
9.16373
7.39529
5.81155
0.843327
0.655
0.674938
0.673365
0.672524
0.973263
0.628938
0.481687
0.500575
0.488454
0.496765
0.677603
1.0779
0.504365
0.529744
0.570775
0.499504
0.604376
0.581768
0.491228
0.562179
0.558999
0.483096
0.556137
3.58773
4.66078
0.11897
1.93878
1.82144
0.972985
0.742919
4.6209
1.07599
0.656552
0.783277
0.504766
0.193442
8.0295
1.45472
0.307687
5.0984
1.67521
3.80658
1.10908
0.374883
8.40567
0.367258
0.543489
2.42851
1.94726
0.159433
0.335772
4.09917
0.772761
1.32328
3.47194
1.94909
1.88607
2.53982
4.24839
0.202093
0.0751765
0.542798
0.239004
2.71785
0.807634
0.470497
2.33247
2.08355
0.52085
1.25909
0.270554
0.59182
0.449483
4.30103
3.50863
2.31738
1.20895
0.278774
1.49871
0.390156
0.518445
0.557375
0.200736
2.28557
0.893779
2.3903
0.272461
1.16843
0.377188
3.24533
0.167637
13.0633
2.95075
0.947749
0.0605785
6.38724
2.97419
5.4338
0.14894
0.0853658
0.394149
0.517709
0.440829
2.83979
0.932418
6.02917
5.59559
0.527892
2.95716
0.219904
1.03702
1.24505
1.30821
0.926165
0.826154
1.34629
1.88657
3.39401
1.21267
2.84279
0.354307
0.168377
1.16891
1.29511
1.09431
0.177034
2.60652
1.79665
2.13638
0.422487
2.43699
2.05923
3.97984
6.27732
0.18609
0.727425
0.478897
0.400341
3.0697
7.76034
0.468511
1.92843
0.628772
5.54792
4.4502
0.324866
0.822342
1.05409
2.4544
2.74719
3.52892
2.76802
2.14988
0.180728
2.38567
0.143686
2.46298
1.26584
3.02052
3.44361
6.33709
4.93182
2.47877
1.48178
2.728
0.427003
0.292897
0.225697
0.397044
0.244806
2.53739
3.33592
2.11091
3.0008
3.16473
5.57127
0.0709001
0.209996
3.8826
2.94545
2.6367
3.05422
3.79889
3.67968
3.00878
0.528762
2.93104
2.85243
2.88011
2.93019
2.78075
2.63468
3.00975
2.51688
0.0438106
0.103761
0.0847993
0.0447069
0.0444654
0.0623149
3.04043
1.33743
3.57593
1.09819
2.40815
0.470737
0.171579
3.17624
0.139457
0.213539
2.42647
0.083784
0.933322
1.25599
0.222744
0.424026
0.431121
2.83222
3.56018
1.16189
2.49985
1.37329
0.281059
2.10861
11.9171
0.980489
0.341481
1.02955
2.73277
0.0952039
1.05372
3.61278
0.0649269
2.49894
0.0983888
0.607039
0.323505
0.466731
1.27642
0.262734
0.0907517
1.30849
0.425435
0.268506
3.25916
3.02341
0.0646872
1.02914
1.59002
2.88597
0.121364
3.34306
5.4817
0.826394
4.02908
1.23539
0.339975
1.67362
3.44411
0.261957
2.68656
1.45917
2.2809
3.02541
0.470619
1.01439
0.526704
0.0991619
2.63369
1.20447
2.74116
3.31201
2.15015
4.64789
4.36152
0.717544
1.47472
0.922245
0.172958
0.315178
0.223416
1.06719
0.298705
6.0814
3.29893
0.0941065
3.02082
2.31863
0.831785
3.23281
0.191915
1.34948
3.84457
1.65643
2.6139
0.0980909
1.63209
2.00331
3.36146
3.29807
2.38128
0.0726893
0.462682
1.20893
5.50012
4.71447
2.15494
2.8351
2.21809
0.138574
8.22706
0.409028
1.55247
1.48781
1.00503
0.487227
2.76094
0.210174
0.763405
1.08844
4.73321
0.540021
3.57265
2.40993
1.2362
0.18994
0.334724
0.249134
3.78996
1.10417
3.22679
3.72329
2.81221
3.33023
2.32181
0.661997
0.196458
0.877541
0.547846
2.41965
2.89167
2.30794
12.9168
0.916894
0.78674
2.22314
4.23764
2.25093
0.127722
0.417533
1.88697
1.38493
1.14464
1.97269
2.15762
2.13147
0.627829
1.50995
0.700707
0.273606
2.38355
4.52172
2.38932
4.46693
2.05548
1.58615
2.34411
2.57535
1.26082
0.286692
1.57518
0.743566
0.244275
2.21857
5.9806
2.34792
2.40016
0.134242
0.313685
0.806041
2.26197
0.674266
2.93803
2.83632
3.8045
4.19928
0.476681
2.46495
2.69673
2.67962
3.7018
1.31883
0.689788
0.489751
0.920289
0.789249
1.19867
0.749232
1.08029
7.96011
2.36113
0.329642
1.52849
3.17274
2.19765
0.77288
1.1843
0.563073
7.11398
1.7522
0.225577
0.0967901
11.6806
2.20106
3.15278
0.182799
0.373053
3.29684
0.99234
5.91886
0.190107
0.288176
0.543335
9.87266
0.124196
5.85141
5.2077
0.165863
1.38888
4.0259
6.3935
3.56506
2.67683
0.639994
0.370719
1.58017
0.887973
0.426381
4.13951
0.299605
2.39265
2.3653
8.11028
0.598253
0.65498
0.162221
3.66504
0.351946
1.2501
0.39596
7.05971
0.230994
0.506406
0.916166
3.29939
1.45237
0.930918
0.490778
0.158123
0.296007
4.8602
9.01244
0.293628
2.30738
0.51297
0.215323
0.716606
0.897207
0.608299
2.39768
0.187558
0.663929
0.674283
0.93662
5.19184
0.915843
0.173417
1.09601
0.973442
0.152698
0.356203
2.47307
0.966676
0.24695
0.600617
0.691639
0.949451
0.194249
0.113347
5.03225
4.35198
1.39474
0.690907
0.236298
0.212091
0.0858236
1.11283
0.159188
0.185205
0.300124
0.302422
0.363803
0.208089
5.65257
1.07688
0.68553
3.41309
1.6687
4.40871
2.38109
0.180181
0.520553
1.28714
0.595693
2.72927
0.314602
1.13853
0.897211
0.304684
0.0824864
0.471934
0.0646244
0.128257
0.150286
2.06187
2.97355
1.11606
1.56939
0.314355
1.14929
0.572936
0.730356
1.33016
0.30724
0.358459
0.90809
1.258
0.202309
0.0636531
1.10931
1.03563
0.44977
0.351558
)
;

boundaryField
{
    frontAndBack
    {
        type            empty;
    }
    wallOuter
    {
        type            kqRWallFunction;
        value           nonuniform List<scalar> 
96
(
0.768661
0.475114
0.474494
2.28684
2.33805
2.30331
0.821013
0.648928
0.419802
1.99254
0.346575
1.46334
0.517579
2.4434
1.72143
2.28516
2.32851
0.512824
0.273198
1.01613
0.300396
1.2281
0.525562
2.53338
2.37649
0.843327
0.655
0.674938
0.673365
0.672524
0.973263
0.628938
0.481687
0.500575
0.488454
0.496765
0.677603
1.0779
0.504365
0.529744
0.570775
0.499504
0.604376
0.581768
0.491228
0.562179
0.558999
0.483096
0.556137
0.543489
0.807634
0.470497
0.518445
0.200736
2.3903
0.527892
1.21267
0.727425
0.478897
0.468511
2.74719
0.180728
0.143686
3.02052
2.94545
3.05422
3.00878
0.528762
2.93104
2.85243
2.88011
2.93019
2.78075
2.63468
3.00975
2.51688
0.0438106
0.103761
0.0847993
0.0447069
0.0444654
0.0623149
0.470737
0.222744
0.466731
0.470619
2.38128
0.249134
2.89167
2.93803
0.689788
0.489751
0.124196
2.67683
2.3653
0.162221
)
;
    }
    inlet
    {
        type            fixedValue;
        value           nonuniform 0();
    }
    outlet
    {
        type            zeroGradient;
    }
    wallInner
    {
        type            kqRWallFunction;
        value           nonuniform List<scalar> 
126
(
1.02897
0.356564
0.593157
0.0754775
0.076775
0.0534835
0.0454569
0.0905664
0.245974
0.128469
0.288977
0.613613
3.79351
0.382511
0.12888
0.261928
0.555387
0.439377
0.165335
0.0441196
0.0957211
0.275574
0.86587
0.173282
0.343801
0.420431
0.491474
0.146429
0.155291
0.0574622
0.740419
0.847618
2.99833
0.560425
2.79406
0.0734667
0.128011
0.765998
0.471894
0.0546366
0.0381648
0.930673
0.219571
0.129365
0.411427
0.363406
0.161491
2.85924
0.103263
1.11607
1.60891
0.157488
1.86802
0.274773
0.688662
0.929186
0.207952
2.00859
1.27485
0.759919
0.0360323
0.062732
0.086812
1.36545
0.325852
0.221117
0.971442
1.24518
0.0346409
1.6574
1.00072
0.854305
0.155198
0.113949
1.17365
1.25779
0.19
1.87337
1.29562
1.68265
1.14138
1.72529
0.622016
1.7114
0.835602
1.8398
1.84791
0.512088
0.0583776
1.60551
1.50064
1.45562
1.34861
0.123528
1.22625
1.39031
0.449483
2.15015
0.598253
0.65498
1.28714
0.595693
0.314602
0.897211
0.304684
0.0824864
0.0646244
0.150286
2.06187
2.97355
1.11606
1.56939
0.314355
0.572936
0.730356
1.33016
0.30724
0.358459
0.90809
1.258
0.202309
0.0636531
1.10931
1.03563
0.44977
0.351558
)
;
    }
    procBoundary3to1
    {
        type            processor;
        value           nonuniform List<scalar> 
48
(
3.30243
2.11973
2.20756
2.88875
1.43926
1.79997
2.11973
1.83556
3.74938
0.219535
0.219535
0.237812
0.237812
0.304296
0.361474
0.242155
0.305501
0.26246
0.305501
0.335907
0.220833
0.349688
0.335907
0.817615
0.206932
0.248622
0.644263
0.349688
0.94204
0.483497
0.483497
1.43766
1.43766
3.74938
0.263223
1.32437
2.40451
0.206932
3.72777
1.26045
0.304296
3.01903
3.46667
0.335907
0.383154
0.843193
1.39276
0.237001
)
;
    }
    procBoundary3to2
    {
        type            processor;
        value           nonuniform List<scalar> 
29
(
0.225817
0.225817
0.116077
0.134502
0.263044
0.18829
0.116628
0.240743
0.245705
0.230556
0.219947
0.303368
0.163317
0.162961
0.114958
0.1689
0.188499
0.217879
0.232449
0.14053
0.13058
0.188499
0.0432905
0.217879
0.0847551
0.140076
0.217879
0.377778
0.377778
)
;
    }
}


// ************************************************************************* //
