/*--------------------------------*- C++ -*----------------------------------*\
| =========                 |                                                 |
| \\      /  F ield         | OpenFOAM: The Open Source CFD Toolbox           |
|  \\    /   O peration     | Version:  v1912                                 |
|   \\  /    A nd           | Website:  www.openfoam.com                      |
|    \\/     M anipulation  |                                                 |
\*---------------------------------------------------------------------------*/
FoamFile
{
    version     2.0;
    format      ascii;
    class       surfaceScalarField;
    location    "0.7";
    object      phi;
}
// * * * * * * * * * * * * * * * * * * * * * * * * * * * * * * * * * * * * * //

dimensions      [0 3 -1 0 0 0 0];
oriented        oriented;


internalField   nonuniform List<scalar> 
2708
(
-0.00040613
-1.86983e-05
0.000199319
0.000225509
0.00017283
0.000230759
-0.000178981
-0.000224607
8.65889e-06
3.62581e-05
-6.50535e-05
2.01364e-05
-0.000179656
0.000203127
-5.9256e-05
3.57842e-05
-0.000520884
-0.000190646
0.000376484
0.000335046
0.000778299
-0.000921971
0.000416269
-0.000272597
9.93233e-05
-9.96283e-05
4.97564e-05
-4.94515e-05
-0.000109828
0.000153891
-2.55851e-05
-1.84781e-05
-0.000577504
0.000617251
0.000654735
-0.000694482
3.88268e-05
0.000131768
-7.12712e-05
0.00094403
-0.000977773
0.000284357
-0.000250613
0.000260021
-0.000345933
0.000729657
-0.000643746
-0.000157325
0.000219605
-0.000255713
0.000193433
-0.000108928
-0.000387438
0.000353115
0.00014325
0.000428175
-0.000552404
-0.000163654
0.000287883
0.000135412
3.4152e-05
-0.000130737
-0.000820664
0.000653899
-0.000200773
0.000367539
0.00016551
-0.000314843
0.000210366
-6.10331e-05
0.000376615
0.000140597
-0.000482539
-3.46726e-05
-0.000192957
-5.82142e-05
0.000248626
2.54449e-06
-0.000388466
0.000795584
0.000536912
7.1758e-05
-3.38938e-05
-0.000146792
-0.000627337
-0.000322775
0.000501425
0.000448687
-0.000268876
-0.00126668
0.00130412
0.000231442
-0.000696154
-0.000508686
-9.83676e-05
3.46543e-05
0.000144526
-8.08124e-05
-0.000951318
-0.000160856
0.000134401
-0.000266219
0.000173649
0.000293248
-0.000200679
5.83676e-05
-0.000446917
0.000388549
-2.08798e-05
-0.000533934
0.000554814
0.000626015
5.18652e-05
-5.61625e-05
-0.000621717
-0.000555324
4.73129e-05
-1.97965e-05
0.000527807
0.000601854
4.45675e-05
-2.54277e-05
-0.000620994
-0.000233942
0.000172568
6.80727e-05
-6.69826e-06
0.000687684
0.000284209
-0.000724716
-0.000247176
-7.69203e-05
0.00014574
-9.92014e-05
3.03813e-05
0.000208553
0.000837288
-0.000117812
-9.78478e-06
1.36431e-05
2.22647e-05
-2.6123e-05
-5.02487e-05
6.11351e-05
4.34e-05
-5.42864e-05
8.2806e-05
0.000486202
-0.000553736
-1.52721e-05
-0.000504268
0.000436828
0.000910847
0.00105528
-0.000151758
-0.000103935
-7.17033e-05
-3.23945e-05
4.79297e-05
5.61681e-05
-0.000483758
0.000668007
-0.000533206
0.000348956
0.000246788
-0.000114001
-0.000204197
7.141e-05
0.000183465
-0.000134941
-7.64352e-05
2.79108e-05
-0.00089966
0.000107993
-0.000159651
4.42854e-05
-4.82805e-05
-9.56332e-05
3.63844e-05
1.81727e-05
-4.83562e-05
-6.20093e-06
-2.13439e-06
-0.000329748
0.000374612
-4.27303e-05
7.30338e-05
-7.29042e-05
-6.09756e-05
6.08461e-05
0.000411536
-0.000241946
-0.000197205
2.76148e-05
2.47827e-06
0.000265861
-0.000147667
-0.000120672
9.9005e-05
0.000163591
-0.000135575
-0.000127021
-6.57069e-05
0.000172965
-1.57334e-05
-9.15249e-05
0.000122282
-0.000187638
-6.08452e-05
0.000126202
-0.000379142
-0.000372119
0.000467408
0.000283852
0.000834164
-0.000198116
-0.000636048
0.000238322
1.69528e-05
-0.000255275
0.000161956
8.5595e-05
-1.93993e-05
-6.61956e-05
-2.94094e-05
5.48146e-05
-2.54052e-05
1.02583e-05
-2.0043e-05
-2.73028e-05
-2.29459e-05
2.73812e-05
8.26832e-06
0.000330682
-5.00977e-05
9.8725e-05
1.12988e-05
-1.03275e-05
0.000105617
-9.52895e-05
-0.000171699
0.000238605
-6.69059e-05
-0.000137664
0.000200545
-6.28808e-05
-0.000251452
1.75095e-05
0.000121818
-4.30538e-05
3.52955e-05
0.000137272
-0.000300096
-8.73419e-05
0.000346243
-9.94548e-05
5.63581e-05
8.24265e-05
-0.000138785
2.12241e-05
9.08037e-06
-3.03045e-05
0.000114296
1.74715e-05
1.29652e-05
0.000152544
-0.000693691
-0.000126973
-5.80205e-06
-5.91698e-05
6.49718e-05
-0.000168689
8.50282e-05
0.000496683
-0.000413022
-0.000246917
0.000217614
0.000212768
-7.58949e-05
5.35094e-05
0.00123883
-0.00121645
1.31633e-05
0.00016887
-1.61478e-05
-0.000165885
-4.19747e-05
6.03263e-06
-7.46084e-06
4.34029e-05
0.00019366
-0.000216788
1.2739e-05
1.03888e-05
2.33766e-05
2.80315e-05
-0.00103126
0.000979851
-0.00012755
4.99024e-05
-0.000751095
0.000828742
2.82382e-06
0.000195285
-7.58275e-05
0.000243042
-0.000264247
2.4029e-05
7.61396e-06
-2.01769e-05
2.6206e-05
-1.55134e-05
6.00724e-05
-0.000137848
9.32891e-05
0.000122454
-8.4802e-05
6.1353e-05
3.52434e-05
-0.000464914
0.00042967
-0.000256785
-0.00029311
-0.000394563
0.000462606
0.000225067
-7.00824e-05
-5.20009e-05
5.038e-05
-0.000144237
0.000139413
4.82418e-06
0.000289338
-0.000175869
-0.000179177
5.89626e-05
-4.345e-05
-0.000522546
2.82403e-05
-5.26691e-05
0.000546974
-0.000117183
-7.87456e-05
0.000148629
4.72995e-05
3.60062e-06
1.394e-05
3.68352e-06
-0.000578797
-5.94217e-06
0.00058806
-3.32073e-06
8.09995e-06
0.000591815
-0.000574782
-2.51328e-05
-0.000124536
0.000678122
-0.00073053
0.000176944
0.000457771
-0.000285353
-0.000495193
0.000665451
-0.000353832
6.57804e-05
5.53588e-05
-0.000370008
0.000169491
0.000420122
8.88905e-05
-3.01706e-05
3.67956e-05
-9.55154e-05
-0.000639247
0.000583346
0.000492729
0.00012088
0.000215541
-0.000174641
0.000101664
-5.78373e-05
0.000220826
-0.000207663
-1.91511e-05
-5.11734e-05
-0.000120526
-0.000103507
-0.000448897
6.34327e-05
-6.09544e-05
-6.14905e-05
-4.87324e-05
0.000249277
0.00011553
-1.23394e-06
6.50169e-05
-0.000125687
-0.000208764
0.000170797
0.000102771
-6.8808e-05
2.29535e-06
-3.11914e-05
6.96772e-06
7.27962e-06
1.69441e-05
0.000235094
0.000418805
-3.00922e-05
-0.000284751
-2.23004e-05
-4.85831e-05
3.9692e-05
8.06643e-05
-0.000384132
0.000680082
-0.000162954
0.000282206
-0.000312209
4.75507e-05
-1.10411e-05
-4.77357e-05
-1.26607e-06
6.44444e-06
-3.60505e-05
3.08721e-05
0.000116706
-2.44328e-05
-0.000111673
0.00120761
0.000125161
-0.00116863
-0.000164141
2.98787e-05
2.09731e-05
4.0162e-05
0.000597772
2.95523e-05
7.13262e-05
-0.00069865
-0.000141357
0.000314151
0.000328632
0.000104244
0.000532854
-8.65862e-05
-0.000219419
0.000268474
0.000240284
0.00013737
0.000156154
-4.28127e-05
-0.000124329
-7.58091e-05
0.000545486
2.06791e-05
-0.000490356
-2.7708e-05
0.000248534
-0.000511758
-2.60425e-06
-6.8555e-05
0.000582917
-4.90153e-05
4.1888e-05
-1.30497e-05
-0.00121658
-0.00012056
0.00117345
0.000163684
0.000482209
0.000351462
-0.000308644
-0.000525027
-0.000163679
8.62651e-05
-0.000597889
0.000675303
-2.54733e-05
2.80941e-05
1.25566e-07
-2.74641e-06
0.00106238
-0.000917922
0.000222188
-0.000366643
-0.000308358
-0.000183402
0.000236047
1.75196e-05
-4.7306e-05
4.3324e-05
-1.35376e-05
1.04297e-05
1.116e-05
-9.98007e-06
-1.16097e-05
-6.12461e-05
0.000124679
-0.000667146
0.000339068
-7.80513e-05
0.000166523
7.68107e-05
2.50928e-05
-8.75143e-06
0.000384543
-0.000359943
-0.000181456
0.000156856
-0.000144377
-0.000939568
6.55971e-05
0.00101835
-0.00024231
-0.000318043
0.000340934
2.46865e-05
0.00058449
-1.74888e-05
-0.000591688
0.000262555
-0.0015133
4.15166e-05
0.00120923
0.000339479
-0.000325135
0.000216415
0.000315283
-0.0012693
-2.84015e-05
-7.50748e-06
1.36086e-05
0.000899919
-0.000605378
3.54566e-05
0.000387585
-1.15062e-05
0.000534695
-7.99155e-05
-0.000408182
-4.6598e-05
-4.389e-05
5.07374e-05
6.56964e-05
0.000215695
-0.000254734
0.000131403
-9.23644e-05
0.0011483
-0.0011258
-0.000291374
0.000495607
-0.00010591
0.000510222
-0.000452122
0.000460222
-0.000315757
0.000191221
0.000231775
0.000589913
-0.000752719
0.000324166
-8.97207e-05
0.000518273
-2.60467e-05
-5.62133e-05
-0.00110816
0.00119042
0.000602233
-0.000654372
0.000156384
0.000623653
-0.000533198
-5.97717e-06
-8.44787e-05
0.000533528
-0.000756627
0.000305906
0.000601657
-6.5284e-05
0.000141748
-4.53539e-06
0.000184132
0.000830385
-0.000663055
-0.000302667
-0.000361142
0.000370699
0.000654418
-0.000617398
-0.0001323
9.52796e-05
0.000100198
-3.68766e-05
4.22953e-05
-0.000153836
9.77413e-05
0.00021712
-0.000161025
0.000217238
-0.000218767
0.000109265
-0.000107736
4.34684e-05
1.04661e-06
-2.69954e-05
-0.000631823
-0.000408774
0.000779568
0.00026103
-5.2672e-06
-3.31393e-05
3.84784e-05
-7.18651e-08
-5.38769e-06
0.000266423
-0.000313695
5.26592e-05
8.21335e-06
0.00064838
-0.000646508
-1.00856e-05
0.000160381
-0.000605668
0.000610307
-0.00016502
-0.000119448
-7.26954e-06
9.35355e-05
3.31818e-05
0.00108913
-0.00111741
-5.07748e-05
7.90602e-05
-0.000159313
-1.32217e-05
0.000164371
5.96257e-06
-0.000170333
-1.60332e-05
8.55003e-07
-3.21278e-05
0.000609271
4.7006e-05
-6.44627e-05
-0.000510852
-4.97298e-05
-1.82153e-05
-9.10543e-05
-0.00117268
0.00118783
-8.53558e-05
-1.94535e-05
-3.94275e-05
0.000611505
-0.000181815
-0.000505499
1.36186e-05
0.000661435
-2.06356e-05
0.000284738
-9.33498e-05
0.000106878
-0.000298266
0.000229878
-0.000591047
-0.000270653
0.0004407
0.000294427
-0.000593263
-0.000141863
-9.56703e-05
0.00018476
0.000126605
0.000292092
-0.000294212
0.000468292
-0.000466172
2.91307e-05
-1.04443e-05
-2.54364e-05
6.74992e-06
-0.00059769
0.000526632
-0.00107075
0.00109222
-0.000112529
-0.000591132
0.00072655
-0.000544193
-0.000187119
0.000177099
-0.000395254
3.18826e-05
0.000657798
-0.000493225
6.28349e-05
0.000660268
-4.42633e-05
-0.00014665
0.000256052
-6.51388e-05
-1.64054e-05
1.44159e-05
0.000628004
3.69838e-07
-0.000585002
0.000592846
0.000350647
-0.000115589
0.000298469
-1.14928e-05
-0.000578028
3.41972e-05
-0.000761528
-0.000235663
0.000844929
0.000152261
0.00060846
0.000132067
-0.000131255
-4.24659e-06
-0.000354575
-0.00015203
-0.000123453
0.000398364
0.000327322
-0.000125144
9.97241e-05
0.000203207
-0.000177787
-4.24548e-05
5.7133e-05
-4.30798e-05
-0.000179452
0.000349704
0.000184434
-0.000354686
9.66506e-05
-7.82678e-05
-0.000339635
0.000505038
-0.000169649
-0.000104379
-0.000114891
-0.000115504
8.45888e-05
0.000145807
-0.000370044
0.000209735
-0.0002851
0.000854932
0.000314119
-0.000518363
-0.00038902
-5.00455e-05
-0.00011476
3.25147e-05
-4.34418e-05
-0.000373219
0.00124127
-0.000844676
-2.43692e-05
9.32563e-06
4.94095e-05
-2.87581e-05
3.93938e-05
3.85755e-05
-0.00117956
1.1248e-06
0.000925123
0.000253315
-2.37721e-05
1.87534e-05
-1.93505e-05
-0.000176299
0.00111403
0.000154489
-0.000607469
0.000771409
-0.000458783
0.000294843
1.52595e-05
0.000275358
0.000152849
-8.42983e-05
-0.000343908
9.71058e-05
-0.000402803
-0.000104916
0.00013492
-1.41775e-05
1.40279e-06
6.18302e-05
-0.000345401
-0.000603962
-0.000578217
0.000403116
-0.000479974
-0.000558009
0.000634867
-4.57151e-05
0.000161881
0.000485491
0.000113172
-0.000803097
-5.26274e-05
-0.000135011
0.000208785
0.000107629
0.000585406
0.00017827
-0.000155216
-0.000158715
-0.000155841
-0.000124009
0.000123191
-0.000124326
0.00124731
-0.000329313
-3.63244e-05
0.000531094
0.00152653
-0.00020316
-7.60559e-05
-0.000669852
-0.000109849
-2.1205e-06
0.000781822
-0.000381809
0.000382178
-0.000507228
0.000639295
-0.000325295
0.000381322
-0.000298337
-0.000260069
0.00033323
-0.000592657
0.000519495
-1.07685e-06
0.000410478
0.000287644
-0.000160738
-2.46636e-05
-0.000102242
9.49323e-05
-8.90983e-05
-6.54689e-05
5.96349e-05
-0.000274836
0.000557612
-0.000451466
-0.000997272
9.89452e-05
-0.000281236
-0.000419698
6.71104e-05
-8.52584e-05
0.00119287
-0.00117473
0.000192696
-0.000131329
-0.000285974
-1.92495e-05
-0.000586125
0.00053854
-0.000637368
0.000684953
-1.43578e-05
-0.000475429
9.04309e-06
-0.00027047
-1.93694e-05
0.000280797
2.47536e-05
-0.000788632
2.8208e-05
-0.000565325
0.000289079
-0.000604837
5.07541e-05
-0.000502876
1.1809e-05
-0.000147796
5.06307e-05
-0.000379337
-2.47131e-06
0.00023251
0.000282665
-0.000246702
-2.6247e-06
4.68227e-06
-2.05757e-06
0.000110218
-0.000138677
-0.000130256
-0.000212121
0.000256622
-2.46704e-05
-1.98307e-05
-0.000232573
-0.000512003
0.00013116
0.000613416
-2.35878e-05
2.89463e-05
-0.000441083
-0.000611365
0.000428814
0.000343142
0.000920695
-0.000289147
0.000160979
-0.000732972
0.000805179
0.000111925
-2.12023e-05
0.000136732
6.46656e-06
-0.000125937
8.02223e-05
0.000674615
-0.000656827
0.000599463
-0.000599431
0.000223932
-0.000344027
-0.000501967
0.000228596
7.81295e-05
5.59132e-05
-0.000108549
0.000101712
-4.90763e-05
-0.000635337
0.000577278
0.000754024
-0.000695965
0.00028398
-0.000335813
-0.000389251
0.000163981
6.69723e-05
-7.59966e-05
3.44665e-05
-1.76397e-05
0.000251095
-1.59328e-05
-0.000226119
-0.000537862
0.000274811
0.000443713
-0.000180662
-7.85897e-05
1.35362e-05
6.34161e-05
0.000704039
-0.000634005
-0.000676969
0.000606935
0.000308337
-0.000326661
6.67541e-05
-4.84307e-05
4.41483e-05
-4.72296e-05
5.24908e-05
0.000385279
-0.000435009
7.25444e-05
-0.000106151
-6.16832e-05
0.000704969
-0.000615957
-0.000675136
-2.3022e-05
2.24046e-05
5.03877e-05
-4.97703e-05
-3.30327e-05
-2.35996e-05
-0.00021335
-4.1587e-06
-0.000699762
0.00050053
0.000625973
-0.000426741
-0.000257081
-0.000668125
-0.000650706
0.000414915
-0.000302071
9.7592e-07
-5.38017e-06
-0.000191793
-1.6176e-05
-0.000185506
0.000309621
-0.00073926
0.000615145
-0.000256717
0.00100599
-0.000165924
-0.000541998
0.000430239
0.000786374
-0.000767498
0.000501011
0.00066485
-9.50217e-05
-0.000192149
0.000767187
-0.000530179
0.00128952
-0.000219172
-0.000699306
9.46101e-06
0.000261399
-2.53365e-05
-0.000245524
6.93543e-05
-3.95088e-05
0.000771528
-0.000801373
-4.65627e-05
0.000203543
-8.38107e-06
-0.000148599
0.000339564
-3.0395e-05
-5.8074e-05
0.000506881
0.000244117
-0.000497062
-0.000253936
-0.000266079
0.000292101
-7.25851e-05
0.000223921
-0.000180429
-8.90011e-05
4.55095e-05
0.000369122
-3.19611e-05
0.00095869
-0.00129585
6.42228e-05
-0.000108486
0.000112425
-0.00136043
0.00122196
1.64493e-07
6.45683e-06
6.51367e-05
-0.000106511
-0.000121265
9.1581e-05
-0.000741418
0.00113169
0.000143063
-0.000533331
-0.000599888
0.000608703
-0.00056528
0.000436121
0.000125483
-0.000621728
0.000554612
-4.7179e-05
-0.000637547
0.000663847
0.000853118
-0.000872225
-0.000108877
-0.00015046
6.86909e-05
-0.000592359
9.96102e-05
0.00113111
-0.000638359
-0.000327241
-0.000159362
0.000307151
0.000894384
0.000210549
0.000887606
-0.00087839
-0.000121746
0.000265834
-2.34179e-05
8.53279e-05
-0.000111182
4.92719e-05
4.10313e-05
-1.10733e-05
-9.09419e-05
6.09839e-05
-0.000208932
0.00092024
0.000285404
-0.000200431
-0.00039333
-0.000642795
0.000487696
-4.55217e-05
0.000116426
8.56829e-05
-0.000156587
6.37252e-05
-0.000945669
-0.000723343
8.51383e-05
0.000662915
-8.93303e-05
-0.000658723
0.000439217
0.000147731
-0.000154938
-0.00043201
0.000590535
8.14326e-06
-0.000393747
-0.000204932
0.000778849
-0.000894607
-1.65421e-05
-0.000352302
-0.000173934
0.000198995
7.79508e-05
-6.94008e-05
-0.000383616
4.60365e-05
4.01526e-05
0.000297427
-0.000510548
6.33211e-05
6.36107e-05
-2.45634e-05
3.91295e-05
-3.81539e-05
0.000861036
-0.000346709
-0.000154348
-0.000646364
0.000465236
-0.000136919
0.000318046
-0.000384186
-9.42325e-05
-0.000167945
-0.000600102
0.000688184
0.000238532
-0.000701322
-0.000246464
0.000709254
0.000616393
-0.000607364
0.000235089
3.38421e-05
0.000861666
-0.000613014
0.000564015
-2.95148e-05
0.000819803
0.000134835
-3.07775e-05
4.69751e-05
4.68654e-05
-6.30631e-05
0.000466512
-8.17945e-05
-4.22966e-05
-0.000342421
-0.00075883
7.53913e-05
9.09766e-06
-1.79261e-05
8.82844e-06
-6.96593e-05
4.38824e-05
0.000483625
-1.57324e-05
-1.38026e-06
0.000670734
-0.000410508
1.45851e-05
0.000458039
-2.18232e-06
2.77677e-05
-0.000110122
7.29929e-05
-8.15859e-05
0.000118715
2.28131e-05
0.000652861
6.74355e-05
1.99021e-05
-5.28711e-05
0.000494297
0.000151092
-0.000473906
-0.000171482
-3.6424e-05
0.000202067
-0.000950772
0.000437041
-1.64626e-05
3.74606e-05
-0.000127088
0.000591585
0.000233739
-0.000132273
-0.000202887
-9.09178e-07
0.000286418
0.00021109
-0.000213855
-4.03104e-05
5.42183e-05
0.000423133
8.52642e-05
-7.66128e-05
-0.000117528
-8.84666e-05
-0.00013191
0.000162162
0.000178233
0.000320684
-0.00035832
2.58607e-05
6.10307e-05
1.99913e-06
-0.000212965
-0.00120779
0.00015407
-0.000198398
0.000304412
7.23246e-05
-0.000178339
0.00031474
-0.00027762
0.00020769
-0.00024481
0.000444011
-0.000327669
0.000189846
-9.06131e-05
0.000263689
0.000215564
0.000260807
-3.23598e-05
-0.000343419
0.000433107
-0.000312878
0.00022319
0.000176558
-8.89513e-05
0.000416452
-0.00029344
-3.40614e-05
0.000368902
-2.47458e-05
-4.66606e-05
-2.56247e-05
0.000488738
3.85197e-05
-0.000317971
0.000171716
0.000107735
0.00108267
0.00053178
-0.000305495
-0.00130896
2.88822e-05
0.000301738
2.96812e-07
0.000232128
9.71365e-05
-3.80821e-05
-1.1116e-05
-3.7189e-05
-1.4591e-05
1.8178e-05
3.36021e-05
7.23417e-05
-7.81832e-06
0.000232872
-0.000224639
-0.00027918
0.000270947
-7.46216e-05
6.04421e-05
7.30631e-05
-5.88836e-05
-0.000105456
-8.71284e-05
0.000117963
-7.13586e-05
-1.37905e-06
2.97818e-05
4.29558e-05
-0.000117516
0.000118532
3.06216e-05
-3.16374e-05
-1.66709e-05
-7.85088e-05
1.92583e-05
4.08295e-05
0.000121988
-6.20445e-05
5.71554e-05
5.05354e-06
-0.000974859
2.87414e-05
0.000908764
3.73531e-05
-4.48227e-06
1.63e-06
-1.38186e-05
-3.41274e-05
-0.000131378
2.84285e-05
3.50971e-05
-3.66995e-05
-4.04494e-05
6.64572e-05
-5.87938e-05
3.2786e-05
-0.00104928
0.000115937
4.01944e-05
-0.000127026
0.000127661
-4.23335e-05
-6.80352e-05
4.70877e-05
-1.83731e-05
-6.9164e-05
-0.000265332
-0.000112524
-0.00116177
0.000209593
4.22161e-05
-6.6487e-05
-0.000319236
-0.00071737
9.40272e-05
-0.000103353
-2.30692e-05
6.90527e-05
-0.000234507
-0.000159884
5.82014e-05
-3.06917e-05
-7.76011e-05
5.00914e-05
-0.00133447
0.000278272
0.000843144
-0.000660671
0.000900201
3.51034e-05
-5.3164e-05
-1.39202e-05
5.4224e-05
-4.15698e-05
7.59548e-07
-2.64666e-05
8.41603e-05
4.49648e-05
1.77483e-05
1.74311e-05
1.61885e-05
2.74908e-06
-0.000934398
0.000443068
-0.000115355
7.48142e-05
-3.63791e-05
7.16434e-05
-5.06308e-05
5.26549e-05
0.000115807
-0.000150714
-0.000196477
-7.0552e-05
7.09474e-06
-3.95134e-06
-0.000109712
-5.87267e-06
9.59157e-08
-2.29652e-05
2.87419e-05
-0.000748551
7.11355e-05
-6.88836e-05
-0.000117607
-3.88754e-05
-6.86063e-05
-2.91487e-06
2.24688e-05
-3.21481e-05
1.25942e-05
0.000130506
-0.000211043
7.94653e-05
1.07202e-06
2.41842e-05
1.46613e-05
-0.000124377
4.38893e-05
-5.6904e-05
-0.00121866
0.000164617
9.38416e-05
4.44428e-05
-6.7149e-05
0.000124941
0.00028479
-0.000166689
3.27509e-05
-9.56729e-07
2.38286e-05
-5.56228e-05
-3.69555e-06
9.11326e-05
-5.27828e-05
0.000319926
8.4557e-05
5.698e-05
-2.42291e-05
-0.000330215
-0.000875338
-1.31101e-05
-0.00120644
-0.000475738
0.000109111
-1.15692e-05
1.72966e-05
0.000151359
6.6121e-05
-5.24557e-05
0.000212663
0.00011142
-0.000199143
3.13631e-05
-3.79735e-05
0.000157107
7.20932e-05
-5.09672e-05
-2.57219e-05
1.18849e-05
-4.59807e-05
0.000102961
-7.62316e-06
8.74866e-05
-6.81727e-05
2.12353e-05
1.17519e-05
4.208e-05
-0.00011243
0.000154646
-0.000769468
-0.000281998
0.000376478
-0.000229421
0.000130393
-0.000285118
0.000212428
4.95241e-05
-3.06191e-05
9.64759e-06
9.32369e-05
6.58866e-05
-6.18711e-05
2.49309e-05
-0.0014304
-0.000214406
0.000365847
4.76539e-06
-9.73073e-05
-9.11051e-08
-1.7835e-05
-0.000163757
6.21577e-05
-0.000147118
-9.92813e-05
0.000184241
0.000150433
-0.000146165
-2.63169e-05
4.39441e-06
-9.05071e-05
0.000489293
-0.00039713
-0.00060206
0.000509897
-3.54183e-05
6.31447e-05
6.21094e-05
0.000702897
-0.000633542
6.53436e-06
0.000107466
-2.07637e-05
-0.0001163
0.000203504
-0.000402653
0.000481494
-0.000160636
-3.21659e-06
-3.19358e-05
3.51524e-05
-2.27695e-06
0.000688059
-0.00065194
3.61235e-05
0.000156427
-0.000398794
0.000398466
3.96357e-05
-0.000300962
0.000273003
-0.000770442
0.000895842
-0.0001254
0.000187141
-0.000124558
-0.000586916
5.68187e-05
-0.00025777
0.000787868
-0.000360347
0.000299294
-0.00025716
0.000318214
-2.74457e-05
2.99087e-05
0.000802243
0.000370735
-0.0004311
0.000483283
-0.000422918
-1.65528e-05
-1.40808e-05
5.22843e-06
7.25111e-05
-0.000214332
6.66754e-05
1.79647e-05
-5.049e-05
4.6873e-05
-6.75452e-05
-0.000764385
0.000608306
-0.000232386
-0.000166185
-0.000467392
-0.00132215
-0.00031141
0.000777905
0.000191255
-1.55297e-05
-0.000187462
0.000212452
-0.000513846
0.000674093
-2.75286e-05
-0.000157265
0.000169264
0.000216254
-1.86347e-05
-6.22808e-05
-8.89573e-05
0.000100748
0.000192883
-0.000676601
3.56256e-05
0.000448093
-0.000371601
0.000337631
-6.34028e-06
-0.000853928
0.000388034
0.000775515
-5.21336e-06
0.00034849
0.000139865
4.76179e-05
-0.000104054
8.96942e-05
1.43601e-05
0.000752959
5.74092e-05
-5.18667e-05
4.39816e-05
3.72675e-05
0.000473369
-0.000510636
5.69087e-05
0.000275601
-0.000357256
0.000173506
-0.00026128
-0.000391125
3.06191e-06
0.000259885
-0.00026629
-0.000847524
-0.000522109
0.000714149
-0.000474038
0.000596004
0.000124585
-0.000569497
0.000199729
0.000574832
-0.000591982
0.00072181
-0.000234988
6.52557e-05
-6.95665e-05
-0.000131583
-8.81036e-05
0.000151219
0.000149313
0.000180359
-0.000185731
0.000486008
-0.000488285
-0.000318955
-0.000467336
0.000234239
0.000339975
-0.000556397
-0.000236826
0.00027486
-0.000460655
0.000282363
-0.000268355
0.000446647
-0.000119025
9.40699e-05
0.000179601
0.000234727
0.000407702
-0.000203212
0.00115573
0.000152808
0.000469427
-0.000499117
8.39082e-05
7.27128e-05
0.000769059
-0.000756434
-0.000180226
0.000167602
0.000630475
0.000218273
-0.000433833
-0.00116712
0.00108262
0.000236491
-0.000700709
-1.80094e-05
0.000180542
-0.000154403
-8.12952e-06
7.69013e-05
3.46676e-05
1.62672e-05
-0.000104586
-6.89469e-05
-0.000309946
0.00018314
-0.000383742
4.06707e-05
0.000229717
-0.000550542
0.000610622
0.000697721
-0.000679885
0.000625603
-0.000643439
0.000144939
0.0011233
-0.000952959
4.91343e-06
-9.85197e-06
6.02969e-05
7.79466e-05
-9.72122e-05
0.000637072
-0.000159098
5.67206e-05
0.000142809
-0.00028143
-0.00021814
1.74956e-05
7.21985e-05
-0.000462547
0.000536353
-0.000383752
-0.000127435
-4.37593e-05
-0.000101339
0.000805322
-0.00037238
-0.00052334
0.000435066
-9.14434e-05
0.000110376
-0.000120718
0.000102264
0.000225223
-7.08646e-05
0.000213715
3.16598e-05
7.6319e-05
-4.67583e-05
0.00031893
0.000119893
0.000225748
-8.01054e-06
0.000104814
0.000681206
0.000630754
-0.000753693
-9.82192e-05
-0.000350289
-0.000565623
0.000517118
-0.000214256
9.52131e-05
0.000677566
-0.000613849
0.000388823
8.43863e-05
-6.78964e-05
-5.95696e-05
-6.35381e-05
6.13843e-05
0.000471581
-1.77277e-05
0.000503736
-0.000129757
-0.0005679
7.01882e-05
-0.000152616
-0.000400237
-0.00024295
-7.52946e-05
-6.92855e-05
0.00090836
-6.64105e-05
-0.000588634
0.00048618
-1.28112e-05
0.000506287
0.000561424
2.93143e-05
-0.00013728
-0.000985258
-0.000292549
0.000342302
-0.000444125
-1.11582e-05
2.08704e-06
-5.52762e-05
7.02133e-05
0.00029904
0.000102308
-0.000122794
-0.00017207
-3.62747e-05
0.00020428
0.000479488
8.72141e-05
0.000222118
0.000994776
-0.000941267
0.000621875
-8.31704e-05
1.93111e-05
-1.28136e-06
6.65591e-05
0.00108196
-8.71846e-05
-4.21809e-05
0.00065612
0.00021314
-0.000131198
0.00010918
-0.000290519
-0.000204317
-0.000409775
-0.000873612
-6.76544e-05
-4.98178e-05
6.11415e-05
3.04703e-06
-1.43707e-05
-0.000176287
0.000217267
1.07381e-05
-5.17182e-05
6.46498e-05
0.000156379
-0.000605413
-2.97475e-05
0.000189894
-1.82365e-05
5.37321e-05
-3.54956e-05
-0.000233571
5.19053e-05
0.000186061
0.000237602
0.000270062
0.00070024
9.66058e-06
-2.7897e-05
4.44823e-05
-3.06426e-05
-1.38396e-05
-0.000312141
-0.000265214
0.000337161
-7.19472e-05
-0.000149594
0.000279156
5.24918e-05
-8.00959e-06
0.0011151
0.00020055
-0.00014433
-5.62208e-05
-6.93723e-05
-0.00052076
2.19617e-05
-0.000415269
-2.0982e-05
-4.55232e-05
0.000549259
-9.91329e-05
0.00118109
-1.26161e-05
0.000498796
-6.46639e-05
0.000183238
-0.000155652
0.000279565
0.000102487
-8.97679e-05
-0.00063694
0.000624221
-0.000390343
-0.000152056
-0.000136408
-0.000639728
-7.73034e-05
-0.000644597
0.000186566
0.000583514
8.95423e-05
-0.000131336
0.000665873
-0.000321692
9.12402e-05
-0.000109566
-0.000105684
-0.00048816
-0.000453666
1.22747e-05
-5.86818e-07
-0.000662327
-2.33336e-05
0.000603935
0.000322937
-0.000326312
-1.77169e-06
-2.51108e-05
3.15647e-05
4.29545e-05
-0.000118584
0.000162844
-0.000393633
-9.51849e-05
-0.000123494
8.64057e-05
-4.5793e-05
-0.000325576
0.000373846
0.000128829
0.000131183
-9.04028e-05
0.000106226
6.79291e-05
-8.38945e-05
6.78707e-05
0.000284771
1.65673e-05
-6.37369e-05
0.000748855
-9.41387e-05
0.00042219
-0.000806502
1.00462e-05
6.59548e-05
-0.000457936
0.000440447
-0.00035385
-1.22723e-05
0.000576827
-0.000251762
0.000259844
6.42422e-05
-0.000989782
0.000171866
-2.14313e-05
-0.000307383
0.000276145
-0.000157966
4.12629e-05
0.000645467
-4.76554e-05
0.000113451
2.09166e-06
-1.32692e-05
0.000118644
-0.000110181
0.000117154
-5.47071e-05
4.80346e-05
-4.19029e-05
0.000314749
-6.82624e-05
0.000701113
0.000254567
-0.000761447
6.09606e-05
8.16289e-05
-7.02477e-05
-0.00069595
-0.000131143
-0.000172832
-0.000224732
0.000247389
0.00011958
-0.000144263
0.00030624
0.000120837
-2.92099e-06
7.53926e-05
-0.000126765
4.10069e-05
5.96767e-05
-0.000521333
-0.00012413
4.80213e-05
-5.92197e-05
0.000835724
0.000912423
9.09992e-05
0.000733069
-5.90616e-05
-3.36623e-05
-5.94097e-05
6.74526e-05
-8.04289e-06
-0.000172045
0.000173607
-0.000684072
0.000606949
0.000615663
8.25618e-05
-0.000135433
-0.000407845
2.13604e-05
0.000314841
2.95837e-05
9.66866e-05
-0.00128234
-0.000709983
0.000915984
-0.000421866
0.000510535
2.42718e-05
-0.000621937
-0.000384915
0.000266852
-0.000202076
-0.000436002
-0.000388288
8.28288e-05
-6.91784e-06
1.56329e-05
0.000108633
-0.00011422
-0.000360809
0.000145889
-0.000297084
0.000112403
-0.000103538
1.60659e-05
0.000201155
4.05978e-05
7.01018e-06
7.57741e-05
8.41755e-05
-0.000222411
7.91456e-05
0.000114841
-0.000686821
-0.000228237
0.000572573
9.07443e-05
0.000674657
1.15797e-05
-0.000255908
0.000624836
-0.000577861
6.90058e-06
-2.64313e-05
-0.000243956
0.000146854
-0.00116725
9.12279e-05
-8.98592e-05
-0.000741388
0.000201358
0.000629889
-2.75625e-05
0.000885552
-0.000175871
0.000163252
0.000223772
-0.000568272
0.000114627
-0.000517397
0.000468412
-6.08651e-05
-0.000183768
-0.000295875
0.000402316
-4.76429e-05
-0.000433664
5.33426e-05
0.000601403
1.38495e-05
-1.74811e-05
-0.000161849
-7.61228e-05
5.97112e-05
0.000262981
0.000505313
-8.31236e-05
-0.00069424
-0.000112262
4.23799e-05
0.000328624
-0.000111174
0.000315788
0.000479186
4.57773e-05
-0.000189026
-0.000443124
0.000304481
5.04928e-05
0.000102878
6.40606e-05
-0.000339879
1.18656e-05
-7.95107e-06
4.00032e-05
1.17108e-06
0.000408135
-0.000553122
-8.32495e-05
0.00028951
-9.07803e-06
2.45657e-05
-0.000595203
-1.92837e-05
0.000586925
-2.85613e-05
0.000171774
-0.000936049
0.00104128
-6.23157e-05
0.000120854
2.27889e-05
-5.89328e-05
0.000135069
-0.000173447
-3.61079e-05
0.000190503
4.23194e-06
4.46753e-05
2.92531e-05
2.1597e-05
-0.000292436
0.000194945
-0.000188069
0.000285561
-0.00013403
0.000130239
-4.07564e-05
8.38943e-06
-0.000396823
-0.00043249
-0.000502234
0.000642287
-0.00014513
-0.000258189
-0.000100612
0.000608185
5.73923e-05
-0.000564965
-0.000104645
-0.000153107
0.000149909
0.000107844
0.000156783
-2.06466e-05
-3.08945e-05
-0.000586394
0.000556302
-0.000168585
-0.000372682
0.000467142
-0.000551322
-0.000522048
0.000439576
0.000147707
-8.28337e-05
-0.000418705
9.44072e-05
-0.000197015
8.50731e-05
-7.12412e-05
0.000640258
-7.67946e-05
-0.000649476
-0.000542772
-0.000267079
0.000800607
0.000156795
-0.000423553
-1.37331e-05
6.96176e-05
-0.00034463
-0.00028396
0.000509681
-0.000361509
0.000210358
0.000811557
-0.000693356
-0.000118201
-0.000395595
0.000406809
-1.12143e-05
-0.000363712
0.000335504
-0.000320509
-1.4995e-05
0.000924728
0.000395316
-0.000364297
0.000370724
-6.42706e-06
0.000404123
3.98263e-05
0.000427136
-5.64124e-05
-0.000630521
0.00103272
0.000479001
0.000605767
-0.000574104
-3.16634e-05
0.000493417
0.00037552
0.000360793
1.4727e-05
0.000490342
3.07572e-06
0.000356448
4.34529e-06
0.000374102
-1.76542e-05
0.000394781
-2.98519e-05
0.000937797
0.000368562
1.6722e-05
-3.09628e-05
5.56721e-05
-0.000183747
4.64752e-05
-3.16236e-05
-9.12868e-05
0.000781912
-0.000134633
-5.31426e-05
0.000145187
0.000462568
5.91753e-06
0.000655809
8.86272e-05
0.00011976
-0.000145114
0.000213809
2.90464e-05
0.000120434
7.29241e-05
0.000615716
-0.000610953
-3.94865e-05
0.000390571
0.000353748
-0.00011248
-3.8739e-06
3.77626e-07
-7.11054e-05
-4.49479e-05
-0.000280144
0.000401791
0.000809835
-0.000340153
0.000184461
-0.000147026
-4.31682e-05
-3.56283e-05
-0.000126333
0.000896799
-0.00117327
9.54256e-05
0.000240893
-0.000154622
0.00091668
3.44079e-05
0.000223214
-0.0011743
-2.19012e-05
-9.77498e-05
-5.90939e-05
-0.000109673
-4.61211e-05
9.65382e-05
0.000289131
-0.000511145
6.8219e-05
-7.70107e-05
6.00498e-05
-3.87335e-05
0.000202359
0.000116905
-0.000246201
9.66257e-05
-3.23237e-05
-6.2672e-05
4.50089e-05
4.36372e-05
-0.000448193
-9.02515e-05
0.000401525
-0.000359537
0.000394067
-0.000257905
-8.50019e-05
-0.000211637
1.83932e-05
3.36632e-05
0.000164881
-6.39059e-05
-2.75901e-05
-0.000386519
0.000391284
3.04417e-05
-0.000118386
1.13312e-05
7.04074e-05
-7.42813e-05
0.000268601
-0.00061944
8.32629e-06
-0.000549301
9.9539e-05
0.000317149
-0.000453664
-6.42583e-05
-1.34706e-05
1.17936e-05
0.000212043
-0.000194799
-7.68044e-05
-0.000548568
5.50027e-05
-0.000161458
0.000629652
3.59126e-05
5.07568e-05
-0.000151626
0.000650561
-0.000289741
0.00018433
1.98602e-06
6.40943e-05
-8.17083e-06
0.000107303
4.61745e-05
-0.000249948
1.19806e-05
-9.15244e-05
0.000134537
-8.4295e-05
-8.32154e-05
-0.000253431
8.22998e-05
-7.73928e-05
8.91629e-05
-0.000567501
-0.00011861
0.000221754
1.87161e-05
0.000160828
-0.000209733
-0.000178821
0.000818279
1.16219e-05
9.89975e-05
0.00017302
-4.45917e-05
-4.20599e-05
-0.000187663
0.000438508
-0.000349585
-0.000118178
0.00041238
-0.000195756
5.50071e-05
0.000122202
-8.36732e-05
-0.000116782
0.000454765