/*--------------------------------*- C++ -*----------------------------------*\
| =========                 |                                                 |
| \\      /  F ield         | OpenFOAM: The Open Source CFD Toolbox           |
|  \\    /   O peration     | Version:  v1912                                 |
|   \\  /    A nd           | Website:  www.openfoam.com                      |
|    \\/     M anipulation  |                                                 |
\*---------------------------------------------------------------------------*/
FoamFile
{
    version     2.0;
    format      ascii;
    class       volVectorField;
    location    "0.7";
    object      U;
}
// * * * * * * * * * * * * * * * * * * * * * * * * * * * * * * * * * * * * * //

dimensions      [0 1 -1 0 0 0 0];


internalField   nonuniform List<vector> 
1431
(
(0.0513402 2.58659 1.16063e-16)
(1.79715 1.85943 2.76199e-17)
(-0.260565 -0.171123 0)
(1.06374 -0.17102 2.15466e-16)
(-2.53668 -0.0473119 0)
(0.800074 6.2719 1.88069e-16)
(0.774549 0.167368 5.07634e-16)
(1.08363 0.064471 4.71259e-17)
(0.178596 6.45277 1.31282e-16)
(0.632405 0.112931 4.85421e-16)
(2.81237 10.7359 2.09605e-17)
(5.77556 -0.540431 0)
(-0.176995 1.85591 -1.50135e-16)
(-1.84636 0.0467967 -5.21752e-16)
(2.82894 -0.367514 0)
(0.868506 0.153676 -4.47721e-16)
(4.2428 -0.143446 -2.40639e-16)
(-1.53727 -0.607503 0)
(4.50209 -0.309844 -1.91147e-16)
(-2.25655 -0.12484 1.46529e-16)
(4.25028 10.0796 -7.16759e-19)
(-0.924473 0.0080779 2.15113e-16)
(0.332426 4.61766 -1.53995e-16)
(11.5645 2.0225 -3.51419e-18)
(0.234046 5.81103 1.35798e-16)
(-0.00597551 0.825944 6.56504e-20)
(1.54361 10.5637 -2.16385e-17)
(2.25692 -1.40637 -3.47221e-16)
(-0.139423 4.76724 -4.49567e-17)
(0.225735 5.92572 3.22957e-17)
(0.102194 6.4963 -8.92494e-17)
(-0.0219054 5.91095 3.68942e-17)
(-0.0139012 6.50264 0)
(-1.09734 0.170209 -4.32178e-16)
(0.747433 5.27591 -2.54628e-16)
(1.07416 0.315188 0)
(-0.666954 6.00992 0)
(0.124392 -0.0757184 -6.11704e-20)
(0.404094 0.00698065 0)
(0.0536464 5.83319 0)
(-0.576311 8.12523 -9.25415e-20)
(-0.752294 7.96546 1.10626e-16)
(-0.118029 1.25725 -1.98161e-16)
(0.764729 0.0583239 2.34002e-16)
(1.03849 5.62087 0)
(-0.999008 -1.00716 3.08496e-16)
(0.42522 1.33225 2.26776e-17)
(1.09832 10.223 -6.55903e-17)
(0.854557 0.199283 0)
(0.300702 -0.217821 0)
(0.86322 2.45874 0)
(0.743538 0.0640186 0)
(0.693969 2.82412 2.7055e-16)
(1.77406 -0.150018 1.53834e-17)
(1.24401 1.13051 -1.99548e-18)
(0.312606 0.905221 4.56576e-16)
(-1.0337 0.465189 1.99602e-16)
(3.8044 -0.716001 0)
(4.61499 0.134788 0)
(1.53179 -0.100361 4.11615e-16)
(1.95027 -0.608256 -1.32735e-16)
(0.373647 -0.00499287 4.32595e-16)
(-0.332111 -0.00321019 0)
(0.0296549 -0.0778949 0)
(0.238716 -0.00125839 1.05231e-18)
(0.243256 0.0473905 -2.64559e-16)
(1.83328 0.0421022 -2.41711e-16)
(0.597589 -0.107585 -9.49465e-17)
(0.492211 -0.415607 -6.09556e-18)
(-1.32237 -0.315295 0)
(-0.500855 -0.785648 6.5165e-17)
(-1.30697 0.163537 -1.52584e-16)
(0.608539 -0.145007 1.39643e-16)
(-1.08879 0.0449362 3.51762e-16)
(-1.95594 -0.106279 3.85916e-16)
(-1.65413 -0.580453 -4.85358e-16)
(0.62666 -0.395373 -2.36112e-17)
(0.136609 -0.045421 -2.02578e-16)
(0.614746 0.0449691 -3.15497e-16)
(-0.600617 -0.54003 0)
(4.18052 0.00957309 -5.79454e-17)
(-0.353246 -0.157182 1.26852e-17)
(4.61051 1.12486 -6.12243e-18)
(1.40998 1.81109 9.33139e-17)
(11.567 0.701594 2.0962e-18)
(1.1314 -0.0852698 -1.14203e-16)
(-0.40787 -0.0641759 0)
(2.06344 0.472898 1.65277e-16)
(10.067 0.193552 5.54002e-18)
(7.71703 0.992648 1.9451e-18)
(-0.632021 0.677033 -2.76782e-16)
(-1.53928 1.18934 2.64681e-16)
(0.197742 -0.077743 3.3884e-16)
(0.918123 0.135439 -1.53966e-16)
(0.963105 0.763805 9.30257e-18)
(-0.0288534 5.17165 0)
(2.44998 -0.636368 -7.20436e-17)
(4.46112 2.43482 -9.88747e-18)
(0.671314 0.0439924 0)
(-1.04508 -0.0299213 -6.57293e-19)
(0.308067 1.63606 1.57194e-16)
(0.483138 0.00534145 -7.57533e-16)
(3.88383 -0.00399236 0)
(0.469312 -0.929227 -2.89494e-16)
(0.0775111 -0.0430015 4.31514e-16)
(0.102363 5.72038 1.33234e-17)
(-0.0236502 5.55372 0)
(1.31014 7.54054 6.81119e-18)
(0.402668 3.10681 2.94318e-16)
(4.42185 0.0763783 0)
(0.994639 -0.384562 -6.33362e-16)
(-0.219976 2.63465 -2.78861e-16)
(-0.573403 -0.373743 4.50872e-16)
(-0.468887 6.89839 -8.55958e-17)
(1.62293 1.40287 -8.83289e-19)
(-2.28788 -0.33631 6.45714e-17)
(-1.72065 0.171479 0)
(0.89079 -0.147074 -2.45642e-16)
(1.37628 -0.0710103 0)
(-0.101137 -0.0614496 0)
(-0.427209 -0.404349 -2.44423e-17)
(2.95453 0.0863189 6.94031e-17)
(0.069477 0.128555 2.4644e-16)
(-1.88508 -0.198801 1.5583e-16)
(-1.40617 -0.581018 0)
(0.703499 0.0390281 1.87803e-16)
(-0.0681501 -0.228114 0)
(1.77108 -0.220228 4.52275e-16)
(0.0936955 -0.600931 -3.17662e-16)
(0.0131393 0.187643 5.14797e-16)
(3.76154 -0.264888 3.30111e-16)
(-1.9696 -0.14556 -9.14199e-17)
(0.260441 0.26753 -1.17893e-16)
(3.52619 0.160428 8.51708e-17)
(-2.1759 0.526488 0)
(-0.242089 -0.34684 -3.80027e-16)
(0.262528 -0.0793107 1.88652e-16)
(0.784039 0.0808624 0)
(9.37723 -0.283694 3.10038e-17)
(0.139762 -0.0107889 2.21788e-16)
(0.265858 0.0218943 0)
(0.136004 6.5622 0)
(4.43339 -0.0430217 7.16534e-17)
(0.196096 -0.507113 0)
(0.444913 3.32674 1.86212e-16)
(-0.0424637 6.55207 -6.90546e-17)
(-0.667049 -0.189691 -2.07271e-16)
(0.43679 2.15215 -3.08813e-16)
(0.871682 0.121172 3.3132e-16)
(0.518623 -0.485604 1.7342e-16)
(-0.39433 -0.198801 2.64883e-16)
(-0.55088 -0.324169 8.38467e-17)
(0.0422672 5.81498 -1.35762e-20)
(1.40667 -0.0569645 -2.14219e-16)
(-0.123454 6.01334 -3.55228e-17)
(0.321494 -0.060418 -4.32921e-16)
(10.4338 0.30916 -2.09995e-18)
(2.77882 3.39236 6.05551e-17)
(6.22883 1.16422 -4.91595e-18)
(0.227975 -0.0152003 2.94248e-17)
(8.58694 2.37516 -2.70632e-18)
(-0.273753 2.41364 1.63063e-16)
(0.125882 -0.340025 -2.14565e-16)
(-0.0949733 -0.0985017 1.32093e-17)
(0.498342 -0.0931949 -5.02742e-17)
(-0.205887 3.80035 -1.52961e-16)
(-0.394285 5.3458 4.67636e-16)
(1.33654 0.954132 8.35822e-18)
(0.198018 -0.119709 2.72375e-16)
(3.18414 2.12519 2.23716e-17)
(8.7786 1.37741 -5.79315e-18)
(0.421372 2.73366 0)
(0.11228 6.02462 -3.30826e-17)
(9.38819 -0.000991747 3.45404e-18)
(2.2277 2.27421 -1.06892e-17)
(10.6575 0.138163 0)
(0.0951024 0.163828 0)
(0.904318 6.37296 -1.07982e-16)
(0.766941 2.83602 -2.66194e-16)
(0.857858 4.86014 -2.68778e-17)
(0.36557 0.0808971 -4.97374e-16)
(0.602593 0.0508903 0)
(0.932965 1.99526 7.71111e-18)
(9.99828 2.76844 -2.44836e-18)
(1.08728 6.36045 7.62632e-17)
(-0.00527063 4.05834 0)
(0.972359 3.51754 -1.03964e-17)
(2.80611 2.746 -3.98325e-18)
(0.22078 6.20529 5.14149e-17)
(10.8663 -0.212947 2.03444e-17)
(-0.0487359 6.44721 -5.58656e-17)
(0.13448 6.04425 -3.25695e-17)
(0.0701176 6.07551 -5.0743e-17)
(1.04336 6.57764 0)
(1.21038 -0.108856 0)
(3.30949 4.19463 -5.66816e-17)
(4.56664 3.11725 0)
(1.13321 5.40729 -1.61041e-16)
(0.865592 -0.21366 3.91932e-16)
(1.67264 0.285701 0)
(1.33656 1.91045 -2.04529e-19)
(-0.0266256 -0.361231 -1.2261e-16)
(1.48333 8.636 -3.66426e-17)
(-0.329616 0.0210255 1.08813e-16)
(-0.0916034 2.39527 -4.99412e-17)
(0.018188 6.42828 3.69698e-18)
(0.0505198 5.43812 9.38553e-17)
(0.953821 0.118513 2.988e-16)
(8.98402 0.416345 -1.0986e-18)
(0.707821 1.33724 -1.75657e-16)
(-1.43857 0.220941 2.77318e-16)
(0.326908 -0.233455 0)
(-0.0225845 5.61227 2.98191e-17)
(0.307195 5.69574 3.31338e-17)
(10.5379 0.92474 0)
(-0.863846 0.101921 5.91574e-16)
(0.0396913 6.03751 1.55113e-16)
(1.23721 5.632 -4.15602e-17)
(1.02626 2.32237 -5.71016e-17)
(1.23798 8.43765 2.45662e-16)
(-0.204233 6.45089 2.44831e-16)
(0.911119 1.63563 0)
(3.42916 0.940037 2.17652e-16)
(-0.0961263 -0.249591 0)
(-0.227538 5.81954 -1.38065e-16)
(8.96145 1.1057 1.8679e-18)
(2.50892 7.09777 -2.97604e-17)
(3.78631 2.25182 2.17439e-17)
(-0.0747006 6.0701 1.74191e-16)
(0.836688 8.89274 4.20226e-17)
(1.86062 0.0831166 2.8226e-17)
(0.0763098 6.51217 8.01896e-21)
(-0.0267757 5.59495 -3.71712e-18)
(0.077368 6.09941 6.9952e-17)
(-0.0368744 5.9721 -3.54387e-17)
(7.39909 1.80139 6.52784e-18)
(-0.00883537 5.69819 0)
(0.490143 5.51822 -4.09115e-17)
(0.0205863 6.55193 0)
(1.05242 1.23436 3.22006e-17)
(0.409067 0.24743 8.28395e-17)
(1.38257 3.49779 1.22842e-17)
(8.90772 0.716999 -7.35102e-19)
(0.282236 6.17127 0)
(0.254198 6.01746 2.53827e-17)
(-0.739196 -1.03035 5.99523e-16)
(0.341733 5.77366 2.57171e-16)
(1.24436 9.02919 0)
(-0.299737 6.27925 -3.03449e-16)
(0.290724 -0.0936516 2.05893e-16)
(1.00809 0.403954 0)
(10.2329 0.342952 -2.39826e-19)
(0.209969 -0.0890986 2.87004e-18)
(0.514148 -0.311874 -2.00199e-17)
(-0.000672686 6.41058 4.29481e-17)
(-0.643162 7.76029 -4.75279e-17)
(0.194146 -0.172542 1.32799e-20)
(9.12828 1.59551 -4.44414e-18)
(6.05959 2.83806 2.64478e-17)
(0.0913666 6.00489 -5.05469e-17)
(0.0650557 2.61444 1.30451e-16)
(9.46385 -0.192618 -1.96142e-17)
(1.0072 2.24823 0)
(0.013159 0.0866754 9.97367e-17)
(-0.258251 5.23898 2.97534e-17)
(1.53178 7.17882 -5.87319e-17)
(0.0177935 5.66605 -1.31876e-16)
(0.989105 5.55288 0)
(0.975089 9.82617 6.1495e-17)
(-0.970161 0.291445 0)
(0.929786 2.3163 -5.74876e-17)
(0.00514782 5.89578 6.22349e-17)
(1.43281 1.50671 -1.34686e-17)
(0.978771 0.770737 6.75372e-17)
(9.27967 1.96215 0)
(0.0870091 6.11916 6.87846e-21)
(9.75195 1.40961 -5.28391e-17)
(1.21781 6.42336 2.4354e-17)
(0.00937012 3.60864 2.1345e-20)
(-0.0271909 4.34453 -7.66612e-17)
(0.39312 3.27303 0)
(-0.656131 5.43237 1.59328e-16)
(-0.00999528 6.46626 8.9652e-17)
(0.878499 1.63666 2.57114e-16)
(0.699531 0.636737 0)
(4.97363 1.8482 0)
(-0.642642 7.85196 1.18989e-16)
(5.20965 2.65485 -3.20717e-17)
(11.3083 0.45784 0)
(1.83019 2.23922 -2.79779e-17)
(0.608251 0.0319753 -2.49018e-16)
(-0.087393 6.45863 1.33483e-16)
(4.0072 2.92069 -2.54569e-17)
(0.188682 2.55108 -5.72235e-17)
(0.776729 8.43831 -1.38115e-16)
(-0.0652483 6.10605 -4.0905e-17)
(2.31356 5.17763 0)
(0.00312473 4.01558 0)
(-0.353705 1.17086 2.13126e-16)
(0.0591851 3.62613 8.96947e-18)
(0.554067 2.70711 -1.83653e-16)
(0.0465445 0.0373974 -2.51776e-16)
(1.13855 1.17083 -3.98899e-18)
(0.0565106 1.81279 7.38308e-17)
(0.240919 4.80924 -4.97318e-17)
(0.176655 -0.270084 -6.82162e-17)
(2.19042 2.77479 1.85048e-17)
(0.0797353 5.91653 -2.90334e-16)
(-0.744624 7.44877 -2.27577e-16)
(2.6114 1.96666 -1.66018e-17)
(3.76106 5.1838 1.92447e-16)
(0.886693 0.137257 0)
(0.47006 0.0825763 -1.03313e-16)
(0.114271 0.697171 0)
(0.149886 6.49308 -2.41132e-16)
(4.33781 3.58289 0)
(1.10837 5.12926 -9.51045e-19)
(0.941229 0.871439 1.76038e-17)
(0.605001 -0.434261 -2.38717e-17)
(6.39888 5.88685 1.12297e-18)
(2.07152 3.21161 1.78693e-17)
(3.80094 3.84701 0)
(-0.444945 -0.173894 0)
(0.195476 2.06714 0)
(1.10829 5.54203 3.01314e-16)
(-0.369782 -0.171164 -2.62672e-16)
(-0.721975 -0.0179773 0)
(-0.160238 6.97145 2.68139e-16)
(2.37065 0.319497 2.75307e-17)
(0.330329 -0.418322 9.39416e-17)
(0.447443 3.96354 2.07212e-16)
(0.518741 -0.832589 1.74611e-16)
(-0.0497647 6.82347 -2.68542e-16)
(-0.5315 -0.151759 -3.45201e-16)
(0.312026 0.142175 -2.01454e-17)
(0.00468344 1.73088 -3.33391e-17)
(-0.331458 7.23223 0)
(6.61307 1.91752 4.74259e-18)
(1.13763 5.79775 -1.44956e-16)
(0.415794 1.39074 0)
(0.0376703 -0.0980838 0)
(-0.0345577 1.65521 2.62924e-17)
(3.27615 6.50126 7.21275e-17)
(-0.560568 7.27797 0)
(0.230218 6.34779 1.36118e-16)
(-0.088153 5.96471 0)
(1.53246 1.84237 1.87737e-17)
(10.0263 0.908164 4.98332e-17)
(3.16737 5.53528 -1.33981e-16)
(0.104093 2.44317 0)
(0.721281 6.26235 1.57499e-16)
(0.408408 -1.18738 -3.57229e-16)
(0.25724 2.07681 1.88776e-16)
(2.17414 4.22205 -6.04882e-19)
(1.04447 -1.78996 2.58287e-16)
(1.09875 1.92095 -1.79752e-16)
(7.75621 2.61484 1.6273e-18)
(-1.10963 0.707511 -6.73e-17)
(10.2844 -0.0205973 -3.14485e-20)
(-0.633406 8.09638 -2.11247e-19)
(-0.319615 0.0592224 -4.29769e-16)
(-0.0345315 4.16331 -3.21427e-17)
(0.18773 3.84955 -6.86433e-17)
(0.924716 0.86237 4.16858e-18)
(0.690348 -0.353004 -4.19329e-17)
(6.93949 6.67884 1.39334e-17)
(0.104254 6.58882 1.32201e-16)
(11.2464 4.01619 -4.72727e-19)
(-0.281897 6.60286 3.2917e-17)
(0.487611 6.775 1.14859e-17)
(1.1861 9.1158 -8.16528e-17)
(-1.1471 -0.337964 -1.85287e-16)
(9.57177 0.438159 8.0189e-17)
(1.25677 3.02006 0)
(-0.534913 7.40364 7.00433e-17)
(6.82232 1.16855 -1.0322e-18)
(2.47582 3.8649 -1.79283e-17)
(0.658169 0.0832624 -8.37819e-17)
(-0.340754 0.486344 0)
(6.93988 1.87757 -2.0618e-18)
(-0.377681 3.05213 3.1627e-16)
(1.12735 6.09634 7.34596e-17)
(0.703057 1.22737 0)
(1.18141 -1.2807 1.41474e-16)
(9.93992 5.58275 -1.14719e-17)
(0.317776 6.32092 3.52079e-17)
(0.944344 3.82066 -4.46851e-16)
(0.251647 6.1025 2.01828e-18)
(0.989634 5.77892 0)
(1.16322 3.16068 -2.38901e-17)
(0.556298 0.393369 1.58301e-16)
(0.771917 3.87789 -1.2916e-16)
(0.704104 3.85526 1.39701e-16)
(0.150646 -0.372888 2.32791e-16)
(6.96472 2.79194 -3.37861e-18)
(0.324739 2.29812 -7.88719e-20)
(-0.151581 4.26591 3.26338e-19)
(-0.179326 4.52983 -8.87002e-17)
(-0.0158852 6.72857 -2.69289e-16)
(0.572081 6.17455 -3.72487e-17)
(2.39652 4.96104 -7.15119e-17)
(-0.469395 7.41189 2.04752e-17)
(5.24556 3.49281 9.10268e-17)
(-0.574569 7.6179 -2.01546e-17)
(0.508459 0.487496 -9.0855e-17)
(-0.0200652 4.34099 -2.89625e-20)
(0.624164 6.32873 6.79431e-17)
(-0.151701 -0.110046 1.09677e-16)
(0.48459 0.435282 4.21999e-17)
(0.0379402 4.30369 1.18167e-17)
(2.85933 4.65011 0)
(1.06791 5.24866 0)
(0.090454 4.26787 5.75649e-18)
(-0.341692 1.36337 1.22645e-16)
(0.31084 6.13826 -1.30489e-17)
(-0.225222 -0.448355 2.28147e-16)
(1.60016 4.56735 -5.94187e-20)
(0.0804677 -0.0799356 0)
(0.98211 5.95859 -1.36958e-16)
(0.144737 4.22205 0)
(-0.259483 5.36163 -6.86923e-17)
(-0.24058 1.74009 -3.75e-16)
(0.924658 1.91437 -1.05522e-16)
(1.86763 4.44986 3.04137e-17)
(0.218936 4.16019 1.2163e-17)
(0.141837 -0.979787 3.69489e-16)
(-1.11154 0.296455 1.15813e-19)
(2.64364 -0.327181 9.56254e-17)
(-0.293154 -0.466111 -2.57858e-16)
(11.1672 1.63906 2.10399e-18)
(-0.520738 3.13756 1.12912e-16)
(-0.540053 3.41903 1.79604e-16)
(-0.587819 3.95987 -2.44528e-20)
(-0.537999 3.67722 0)
(-0.635779 4.23635 -1.02238e-16)
(-0.614588 3.95446 -8.19939e-17)
(-0.568828 3.40182 -8.21438e-17)
(-0.557361 4.34853 -1.51572e-16)
(-0.565302 3.4978 2.59014e-16)
(-0.525347 4.2496 6.68814e-17)
(0.752731 -1.96165 0)
(9.73351 0.152212 6.27177e-19)
(0.670772 -1.95914 -9.5289e-17)
(0.453209 -1.39579 2.85594e-16)
(0.128465 -0.674294 -4.499e-16)
(0.370974 -0.605676 5.56662e-19)
(0.24176 0.224606 0)
(0.555244 0.115299 -1.03385e-16)
(2.5633 0.968606 4.4355e-17)
(0.550907 0.403773 6.46796e-17)
(0.704011 0.591112 5.96688e-17)
(0.242317 -0.346451 -2.78989e-16)
(1.05437 0.202051 -1.79419e-16)
(-0.301932 -0.462084 0)
(1.11944 0.200057 -9.51725e-17)
(0.987327 0.19635 3.04539e-16)
(0.53662 0.0796028 9.17878e-17)
(7.15112 0.0234285 -2.18036e-18)
(0.136872 -0.080862 0)
(0.447099 -0.880002 3.02532e-16)
(0.384947 0.257573 -1.23998e-16)
(0.378252 -0.3132 2.46152e-16)
(7.22719 -0.19894 -2.91023e-17)
(0.991594 0.156313 -2.86226e-16)
(0.356992 -0.689367 -1.77302e-16)
(0.418574 -0.433255 2.85083e-16)
(-0.170587 -1.43106 3.30858e-16)
(7.19532 -0.37166 1.21427e-19)
(0.338004 -0.437001 -2.64775e-16)
(7.38642 -0.459402 -2.49539e-17)
(0.895509 0.106626 -7.60402e-16)
(0.835932 0.0813146 0)
(-0.247044 -1.84745 -7.82735e-19)
(0.80613 -0.180707 0)
(9.43516 -0.199027 3.35227e-17)
(10.2189 0.092145 9.95699e-17)
(0.148848 -0.537036 1.48015e-16)
(0.321893 -0.126514 -1.41307e-16)
(0.0691453 -0.228701 7.38366e-16)
(0.885443 0.115013 0)
(0.224902 -0.236709 0)
(-0.0421391 0.177917 0)
(9.15164 -0.149887 2.27705e-17)
(0.936056 0.261853 2.52401e-16)
(-0.509992 0.000454238 1.88938e-17)
(0.967406 -0.334534 2.34602e-16)
(-0.318169 -1.55112 0)
(-0.268404 -0.344242 0)
(0.129503 -1.00851 2.32911e-17)
(0.238383 0.0419822 2.10767e-16)
(8.39515 -0.135474 -6.71392e-17)
(0.873885 0.164929 2.38286e-16)
(-0.046012 -0.713404 1.86869e-16)
(0.238545 0.129313 3.69624e-16)
(1.57851 -0.41712 -2.83586e-16)
(-0.602374 -0.764484 -1.79985e-16)
(-0.249715 -0.57366 1.62897e-16)
(8.17423 0.129575 1.48637e-17)
(0.777178 0.214341 -3.10684e-16)
(-0.674714 1.58443 -4.50093e-16)
(-0.376563 0.294811 1.40929e-16)
(0.119127 0.376872 -4.06279e-16)
(-0.441273 1.4537 8.58773e-16)
(-0.261223 -0.220596 -1.96012e-16)
(8.43474 0.513838 -3.14345e-17)
(10.1397 0.407788 -8.10378e-17)
(-0.00158398 -1.76361 -2.94202e-16)
(0.863175 0.330628 2.47152e-16)
(0.643404 0.266824 2.29217e-16)
(-0.388828 1.48363 0)
(0.201669 0.147446 2.6344e-16)
(0.834462 -0.863103 2.89069e-16)
(-0.266013 0.478285 0)
(-0.118961 -0.595186 0)
(-0.509683 -0.628686 2.01538e-16)
(0.289198 -0.405231 -2.3269e-16)
(-0.48812 0.160705 -7.03084e-17)
(0.195459 0.298546 1.48826e-16)
(-0.501719 -1.32996 1.71723e-16)
(9.75819 0.643484 -2.51715e-17)
(0.821544 2.78235 0)
(0.674554 0.468749 -4.28338e-16)
(0.20867 1.91883 -1.78302e-16)
(0.12376 -0.453087 -9.19732e-17)
(0.109718 0.628943 -9.88533e-17)
(0.464316 -0.26264 -1.16433e-16)
(8.79704 1.07307 5.20409e-17)
(0.0672929 5.73575 -3.68412e-19)
(1.38916 -1.76597 0)
(0.0489032 -0.344791 2.86787e-17)
(1.61432 2.26232 1.22956e-16)
(0.515504 1.2694 -2.52369e-16)
(0.0504483 1.09101 0)
(-0.306331 -0.57976 0)
(-0.463066 4.77414 0)
(-0.120643 -0.270013 3.67565e-16)
(0.328434 0.796467 2.82107e-18)
(0.350125 5.71995 2.50207e-17)
(0.17489 0.750345 6.27259e-17)
(1.92003 -0.934544 2.00219e-16)
(-0.0581217 3.60998 1.2402e-16)
(-0.155794 0.223337 -3.31932e-16)
(-0.364192 6.19451 -5.1094e-17)
(0.663777 0.873272 4.7543e-16)
(-0.0663624 2.85906 3.54942e-16)
(0.0196556 0.324031 6.73339e-17)
(1.13133 2.54632 -6.89141e-18)
(0.762721 7.35951 -4.3336e-17)
(-0.105874 3.90352 0)
(-0.543654 5.30239 0)
(1.12555 4.07405 1.91905e-16)
(-0.203953 -0.00439605 3.87194e-16)
(-0.380514 7.34304 0)
(0.446861 4.32451 -2.74346e-16)
(-0.0137983 -0.233151 -4.4181e-16)
(-0.472728 0.516707 -6.33678e-16)
(0.500026 -0.161173 1.92794e-17)
(-0.301039 0.458717 -1.37141e-16)
(0.455262 6.55294 3.00483e-18)
(2.58234 7.52658 0)
(-0.560026 5.23305 2.91814e-17)
(9.61999 1.68858 -4.85081e-18)
(4.41517 4.76782 5.60742e-17)
(0.133608 2.01266 0)
(5.35442 8.27652 0)
(0.15872 1.63631 7.89507e-17)
(0.976838 1.93178 0)
(-0.102196 -0.169645 -1.33393e-17)
(-0.402258 1.00438 -8.53178e-17)
(-0.454626 7.35193 1.2502e-16)
(0.18049 3.57295 -2.67818e-17)
(3.98597 7.3617 -3.01947e-17)
(-0.535831 3.32176 -5.00178e-17)
(0.854955 0.662368 -1.21914e-16)
(0.143707 0.997735 9.72151e-17)
(1.00424 6.07613 3.81025e-17)
(0.320675 -0.48341 1.57865e-16)
(0.0234755 4.16609 0)
(-0.528158 2.55698 1.05632e-17)
(-0.452094 2.89613 -5.70372e-19)
(0.113146 3.59103 0)
(2.15427 7.72392 2.2179e-18)
(1.30398 4.80977 1.47014e-16)
(1.6096 5.18208 -1.01295e-16)
(1.9641 5.14201 1.39891e-16)
(-0.0202517 6.00708 -1.18578e-20)
(0.151989 6.38183 -1.15996e-16)
(0.729519 1.35951 -6.16065e-16)
(0.220243 1.14888 0)
(0.674738 1.20522 1.11537e-16)
(-0.479038 1.69665 -2.51617e-17)
(-0.536059 4.63103 3.18772e-17)
(0.761241 2.19968 -3.96587e-19)
(1.02924 2.78187 -1.20097e-16)
(-0.337676 5.91831 -1.94998e-20)
(-0.30226 4.09418 0)
(-0.638064 -1.07533 -1.82939e-16)
(1.01081 4.10627 3.57483e-16)
(3.45583 2.93212 0)
(9.1465 0.192114 2.09888e-18)
(1.14671 8.71384 2.72276e-17)
(0.0979658 1.20405 7.15702e-18)
(0.25931 4.80015 3.57105e-17)
(0.429093 0.971651 0)
(1.73993 6.63145 9.51112e-17)
(1.31984 5.98325 -1.85054e-16)
(2.5816 12.6288 4.68398e-18)
(2.4973 5.81144 5.05677e-17)
(1.22283 0.221346 -5.46893e-17)
(0.588742 -1.08645 -2.56583e-16)
(0.403891 -0.376273 7.81381e-17)
(0.219956 1.5772 -9.26642e-17)
(0.617873 3.66278 2.35194e-16)
(-0.50548 2.48338 -1.35411e-17)
(0.15205 5.57929 -5.74185e-17)
(-0.247162 7.06701 1.3322e-16)
(11.4192 0.0816732 -9.70883e-18)
(0.256909 0.0589614 -4.72708e-17)
(-0.472734 0.680402 -1.03311e-16)
(0.930397 4.79954 -2.01304e-17)
(2.07359 1.69519 -1.22663e-17)
(1.72631 2.7036 -2.3255e-16)
(0.119067 0.767408 -9.78831e-17)
(0.607846 4.2323 1.34314e-16)
(0.148653 1.93237 8.43907e-17)
(0.906434 6.76941 -6.62078e-17)
(-0.357424 4.79272 -1.4722e-16)
(0.2738 1.00709 0)
(2.44229 6.74411 -4.99199e-17)
(0.608901 0.793617 0)
(0.0646345 2.05163 9.87412e-17)
(0.473364 1.71668 0)
(0.269095 0.0222169 5.26392e-16)
(-0.506818 3.1576 -1.50146e-16)
(0.234558 3.54449 3.25559e-17)
(1.50405 5.81366 7.62165e-17)
(4.55501 -0.0106378 -5.8769e-17)
(0.738058 0.595917 1.461e-16)
(0.0708046 4.33662 -1.59938e-16)
(1.22304 1.80385 7.62323e-17)
(-0.127081 6.84054 -1.33396e-16)
(4.96025 4.22069 -1.77693e-16)
(0.66865 0.308858 6.56954e-17)
(0.333503 4.65802 0)
(-0.295576 4.53484 -3.01918e-17)
(0.158576 1.68254 6.80127e-17)
(1.26312 6.38709 -1.85685e-17)
(1.1125 5.52318 1.10516e-16)
(-0.205875 -0.652588 1.55183e-16)
(1.90854 3.60684 1.66341e-17)
(-0.451099 0.890545 1.09743e-16)
(-0.679934 6.86306 -4.70639e-18)
(0.104861 4.29843 1.28086e-16)
(1.93419 5.89569 -8.92727e-17)
(0.202881 -1.25519 6.18699e-17)
(1.173 5.76814 -6.50142e-17)
(0.244899 5.80219 -1.48007e-16)
(1.32829 7.25132 -4.42267e-17)
(-0.194218 0.213158 0)
(9.5832 0.701767 -1.27808e-16)
(7.81937 2.59968 8.90415e-18)
(-0.248779 4.85057 9.57129e-17)
(-0.0477275 1.29284 4.94963e-16)
(0.135884 2.50482 2.88494e-17)
(-0.269258 0.646281 0)
(2.42134 0.135828 -1.55721e-16)
(-1.20662 0.94887 5.95395e-17)
(-0.340965 -0.123551 -2.56616e-16)
(0.601652 2.2896 3.74167e-19)
(0.11452 -0.739823 -1.64422e-17)
(0.306038 4.0951 4.39133e-17)
(1.78337 1.14773 -7.59503e-18)
(9.61552 0.479687 0)
(-0.498189 4.20738 0)
(-0.482738 0.793569 -5.36442e-17)
(0.024234 -0.7223 2.354e-16)
(10.2087 0.547555 0)
(0.00962015 -0.0637174 4.6891e-19)
(1.29875 6.12885 -2.56864e-16)
(1.06134 1.09006 0)
(1.25911 1.4994 0)
(1.21992 1.58039 -1.38902e-16)
(1.70244 3.85106 1.81293e-17)
(9.02395 0.417013 0)
(0.409223 -0.194971 2.13175e-16)
(1.48046 -0.632778 -1.33157e-16)
(-0.447398 1.77182 0)
(0.207319 4.53617 0)
(-0.22193 -1.59498 1.65789e-16)
(0.368861 0.263457 -8.46168e-18)
(0.0348899 1.26816 1.40462e-16)
(-0.230686 2.86508 -2.46618e-16)
(-0.175853 6.19715 4.92561e-17)
(0.0385094 0.21306 0)
(-0.423975 0.119929 0)
(-0.681239 4.67171 -1.09883e-16)
(3.22616 0.480446 -2.6733e-18)
(1.42239 3.44431 -1.86806e-16)
(-0.574211 0.0799607 1.93207e-17)
(4.07129 6.28618 -3.04146e-18)
(1.85651 0.408474 0)
(1.36623 5.11196 0)
(0.0543293 3.58217 -5.89322e-18)
(-0.221867 0.165851 0)
(-0.148604 4.2465 0)
(11.0705 0.629755 -1.3226e-18)
(0.164352 4.49057 -2.52147e-16)
(2.50577 0.445305 0)
(1.35123 2.83321 -3.37466e-18)
(0.328576 6.00443 2.2227e-17)
(0.100762 5.53984 6.74807e-17)
(1.11272 1.65513 -1.99192e-16)
(0.680959 6.23603 -3.48885e-18)
(-0.312284 6.50102 2.84562e-17)
(-0.660738 -0.186803 4.87318e-20)
(-0.469479 5.94038 -2.80879e-16)
(-0.367173 1.15711 -5.21707e-19)
(-0.164902 2.28788 2.12427e-16)
(0.990907 0.510052 -2.90719e-16)
(0.0221905 5.89983 1.42888e-16)
(-0.563031 5.98301 0)
(0.0455165 6.4694 1.81994e-18)
(10.3708 0.243299 -7.14546e-18)
(0.064396 2.96566 0)
(0.0298278 0.106731 6.41935e-16)
(1.38466 0.675397 1.66061e-17)
(-0.109666 2.71882 0)
(-0.219659 1.23224 3.2748e-16)
(1.97154 7.86812 0)
(1.72911 8.71826 2.59688e-17)
(0.362224 -0.156039 0)
(3.50564 1.5854 1.51826e-17)
(-0.255437 1.02526 -2.4512e-16)
(0.80359 0.488785 -1.14387e-16)
(0.811411 0.572523 -2.17165e-17)
(-0.441875 2.36519 2.03744e-16)
(-0.109533 6.18258 -4.57044e-17)
(3.98424 0.516932 9.35968e-18)
(8.58379 0.353214 0)
(0.518254 -0.0750903 -2.22334e-17)
(0.0511812 4.93846 0)
(0.204355 5.86569 0)
(0.924457 0.727764 -1.3643e-16)
(1.54327 5.21756 0)
(-0.487655 2.35295 0)
(0.859167 5.87308 -2.97864e-17)
(1.81547 -0.0510758 0)
(0.176278 -1.45004 1.74549e-16)
(0.249313 5.68572 5.22127e-17)
(0.82471 0.0891754 2.56627e-16)
(0.238612 0.869486 1.39985e-16)
(0.963153 1.36388 1.70305e-17)
(0.659203 0.584344 -6.2367e-17)
(0.874361 0.0956336 -4.43249e-16)
(12.5873 2.73532 0)
(0.354731 5.81203 0)
(-0.296602 7.22081 -1.3363e-16)
(0.312394 0.628452 -3.52821e-19)
(0.483779 6.27045 1.03887e-17)
(1.07867 0.939538 2.22321e-17)
(9.49166 2.17664 3.00739e-18)
(2.19065 1.21851 4.86628e-17)
(-0.62999 2.09656 -7.3362e-17)
(1.02565 0.164418 4.24945e-16)
(-0.400046 0.441936 -3.09159e-16)
(-0.0717496 5.55694 0)
(0.941742 0.137184 4.89528e-16)
(0.929617 0.179482 -2.58053e-16)
(0.185515 4.87608 -2.32062e-17)
(0.851311 0.719243 -1.76466e-17)
(-0.230272 0.870519 -3.6899e-16)
(0.00270202 5.65801 -5.58104e-18)
(0.477363 6.14122 1.49793e-16)
(-0.141318 6.25793 7.41217e-17)
(-0.176477 6.78157 0)
(0.950657 2.72696 8.02498e-17)
(-0.694145 0.022181 7.2316e-17)
(0.167303 1.5342 0)
(-0.0987797 5.75912 -1.20417e-16)
(0.0202041 1.654 -5.78384e-16)
(1.40542 4.59687 0)
(0.172982 0.0257842 -1.91203e-16)
(0.113687 3.01683 0)
(0.0582103 -0.418831 -3.68651e-19)
(0.780154 0.316109 -3.91759e-18)
(9.44639 2.58753 1.61033e-18)
(1.49096 5.89602 0)
(0.964705 3.28146 1.5179e-16)
(0.105097 5.96805 -1.01065e-16)
(1.08902 3.32393 0)
(0.797454 -0.499533 -1.20623e-16)
(-0.590317 1.21339 -1.33945e-16)
(0.0313042 5.68685 -9.75276e-17)
(-0.164918 5.31167 8.65955e-17)
(0.102267 5.49234 2.19608e-16)
(-0.662026 0.0460926 -3.94119e-17)
(0.835117 -0.0594579 0)
(0.0843555 5.65163 0)
(0.75593 -0.236494 3.53758e-17)
(-0.0431992 2.37351 1.27199e-16)
(0.0482729 5.81814 -3.55808e-17)
(0.547014 -0.0161993 1.26388e-16)
(0.193218 0.791445 -2.43893e-16)
(-0.483173 2.63239 0)
(-0.511482 2.53508 7.91613e-17)
(9.89257 8.04913 -1.28765e-18)
(0.150076 5.3948 2.9578e-17)
(0.37772 6.287 -1.12893e-17)
(0.139291 1.61096 -8.50146e-17)
(1.30965 6.16433 1.48761e-16)
(4.48364 2.14576 2.33767e-18)
(-0.264701 0.0661343 -1.66156e-16)
(1.20329 2.05094 0)
(10.3916 0.659037 2.27216e-18)
(-0.599088 6.98488 4.55508e-17)
(6.99942 0.292421 1.10818e-18)
(-0.50296 1.62995 -9.55345e-17)
(-0.265797 -1.42753 -1.52085e-16)
(-0.689626 5.16262 -2.01974e-16)
(0.132189 5.86608 7.2377e-19)
(0.833205 -0.0125862 4.21161e-16)
(1.14673 4.89242 -1.2168e-16)
(0.309622 2.87517 -2.92728e-16)
(-0.392957 3.91405 2.73863e-19)
(1.28281 0.368466 1.45614e-17)
(0.0653018 4.86141 -5.36333e-17)
(-0.50141 7.47732 2.39333e-17)
(0.206498 6.56527 -2.14996e-18)
(-1.48866 -0.777892 0)
(0.707833 0.123869 0)
(-0.613655 4.7035 -5.66191e-17)
(4.80637 0.545742 2.04923e-18)
(8.19146 0.233814 -1.40139e-17)
(0.0902585 5.83557 1.43284e-16)
(1.52357 3.32442 -2.447e-17)
(2.30566 -0.222389 6.28449e-17)
(3.97984 0.394468 9.3488e-18)
(-0.66222 4.78481 4.10953e-17)
(-0.00427031 3.54145 -9.24288e-17)
(0.897119 1.15295 4.49944e-16)
(0.0251309 2.8458 -8.75659e-17)
(0.273944 -0.0229201 0)
(0.321415 -0.0410666 -1.3681e-16)
(0.0925251 3.89492 -1.02656e-16)
(0.486622 3.74524 0)
(8.1269 1.62938 -7.91853e-18)
(0.181021 0.015369 1.15406e-16)
(4.7444 0.126419 0)
(0.210285 1.47445 0)
(6.20303 3.94023 -2.35544e-17)
(-0.251426 6.6923 1.48158e-17)
(0.309108 6.61455 -6.00256e-18)
(0.129334 1.35536 0)
(0.542616 1.24366 7.63015e-17)
(1.78427 -0.1768 7.14972e-16)
(0.471356 -0.135589 -6.81556e-16)
(0.205243 0.29536 -5.36722e-17)
(1.94318 2.43759 6.68819e-17)
(0.450021 -0.785222 2.4115e-16)
(0.262745 -0.124902 0)
(0.780139 1.68248 -7.10057e-17)
(1.50758 4.00885 -1.47464e-18)
(1.45796 4.57995 6.95232e-17)
(1.09016 2.7023 -2.52806e-17)
(-0.354015 2.28771 0)
(0.16031 5.76827 6.99387e-17)
(-0.427619 2.18844 6.82612e-17)
(0.911301 0.131278 0)
(10.1494 0.583362 1.14175e-16)
(0.251789 5.5097 0)
(-0.466219 3.75965 0)
(3.67372 5.50456 -2.54203e-18)
(-0.192217 6.06202 1.4549e-16)
(0.256727 4.9491 1.35051e-16)
(3.01606 0.0282908 -2.04308e-16)
(0.858505 -1.01622 2.23654e-16)
(0.651006 0.16967 2.74996e-16)
(-0.167205 4.52472 0)
(0.271276 6.09731 -5.50532e-21)
(0.0382409 4.16421 -1.77543e-16)
(6.73524 -0.560266 -6.33252e-17)
(1.15768 -0.0240594 6.02685e-17)
(-0.0671002 5.91324 2.68483e-16)
(-0.639813 0.466204 -1.10568e-16)
(2.40257 2.77255 1.31843e-17)
(5.41591 -0.582176 3.87194e-17)
(2.47191 0.0348142 -6.13657e-17)
(0.139246 9.12905 8.30522e-17)
(0.0776147 4.39237 3.68565e-19)
(0.0729814 4.33044 9.73604e-17)
(0.010641 4.19836 8.84574e-19)
(0.0452396 4.25236 0)
(0.117231 9.9051 -7.35223e-17)
(0.0761731 4.38971 -1.85577e-16)
(0.0156282 4.83868 -8.34914e-19)
(0.0196697 4.90687 -2.26175e-17)
(0.00149772 4.80289 0)
(0.0509837 4.97756 4.73417e-17)
(0.162619 8.54031 0)
(0.219276 10.6715 0)
(0.0598698 5.19007 -6.2607e-17)
(0.303871 7.35362 -4.21341e-18)
(0.235722 7.97611 -3.92154e-18)
(0.0540931 5.31388 1.99325e-17)
(0.0613179 4.32215 9.70016e-17)
(0.0466807 4.29643 0)
(0.0249111 5.33456 -2.76123e-17)
(0.0458303 4.30658 0)
(0.051089 4.37176 0)
(-0.0143633 5.29206 2.05604e-17)
(0.0579631 4.45587 0)
(-0.427281 1.86962 7.31114e-17)
(5.24044 5.70837 -4.89371e-17)
(0.350258 -0.294011 2.93377e-16)
(-0.530273 0.0213926 0)
(1.28651 5.73515 -1.01636e-16)
(-1.33767 -0.128633 1.00196e-16)
(-0.322882 0.548801 5.37206e-16)
(6.74051 1.39993 -1.59914e-17)
(-0.256896 6.48613 -1.88699e-17)
(0.681677 7.07445 0)
(-1.00855 0.165299 5.05805e-16)
(1.58425 0.21875 2.78905e-16)
(1.09234 0.664792 0)
(4.68239 -0.368152 3.00286e-17)
(0.423885 -0.625961 -2.57701e-16)
(0.0621548 -0.330365 -1.90407e-16)
(6.04848 4.81085 8.20084e-17)
(1.67477 4.24155 -4.6745e-17)
(-0.479556 2.44695 6.95035e-17)
(1.12089 0.960862 -5.01116e-17)
(-0.378919 -0.0234502 -1.12229e-16)
(6.86134 0.659976 -2.76273e-19)
(-2.23593 0.814571 -2.63033e-16)
(0.0593715 4.55578 0)
(0.914906 5.44981 2.73402e-16)
(1.26393 3.63778 4.58312e-20)
(1.16197 -0.0488937 6.98512e-17)
(0.407936 0.282747 0)
(10.5054 -0.122626 2.66929e-17)
(0.0324079 2.13634 -1.4118e-16)
(1.89469 0.0595844 3.7765e-18)
(-0.334847 1.72728 1.11766e-16)
(-0.319366 7.24365 0)
(0.147827 2.04663 8.05638e-18)
(0.0861666 2.30993 -5.71053e-17)
(8.67772 3.86986 2.03896e-17)
(0.476659 -0.497773 3.11273e-16)
(0.6535 0.0404773 -3.20595e-16)
(-1.24901 -0.961959 1.81552e-16)
(0.755257 -0.334617 -7.0662e-17)
(0.172789 3.05317 2.88267e-17)
(-0.105782 5.09346 -4.71484e-21)
(0.159474 5.6588 -1.89748e-17)
(-0.619307 0.106021 0)
(0.865266 3.04633 2.79128e-19)
(0.232047 0.302472 6.40217e-17)
(1.89796 0.278753 1.13366e-16)
(0.71725 -0.40243 0)
(0.254476 0.376636 -4.01867e-16)
(0.100147 0.616511 0)
(10.3668 0.461636 2.06127e-18)
(-0.180051 3.31278 0)
(0.788702 3.40817 -5.38987e-17)
(-0.0427504 1.86708 1.48333e-16)
(-0.242964 -1.65227 2.567e-16)
(1.84271 -0.191547 0)
(0.575366 0.185541 -3.5055e-17)
(0.0570894 4.59672 3.92875e-19)
(0.478383 -0.675287 0)
(-0.715322 -0.0149332 0)
(0.636578 3.1573 -1.74319e-16)
(-0.167037 5.44229 -1.06409e-17)
(7.70652 0.0320606 0)