/*--------------------------------*- C++ -*----------------------------------*\
| =========                 |                                                 |
| \\      /  F ield         | OpenFOAM: The Open Source CFD Toolbox           |
|  \\    /   O peration     | Version:  v1912                                 |
|   \\  /    A nd           | Website:  www.openfoam.com                      |
|    \\/     M anipulation  |                                                 |
\*---------------------------------------------------------------------------*/
FoamFile
{
    version     2.0;
    format      ascii;
    class       volScalarField;
    location    "0.98";
    object      k;
}
// * * * * * * * * * * * * * * * * * * * * * * * * * * * * * * * * * * * * * //

dimensions      [0 2 -2 0 0 0 0];


internalField   nonuniform List<scalar> 
1431
(
0.0648371
0.469722
1.53841
1.02087
0.0988979
0.673062
0.176461
0.196673
2.79417
1.38324
0.454085
0.112873
0.0792122
0.938694
1.87431
0.467678
1.86516
0.16259
0.0556979
0.403333
0.0826731
1.10185
0.995574
1.02648
0.901853
0.353332
0.922554
0.859763
0.497506
0.141457
0.918945
0.314284
0.813341
0.152136
0.0951983
1.00036
0.29259
0.312773
0.429959
0.305851
1.98129
0.243275
0.139721
0.0953895
1.15117
0.120528
0.977322
0.211499
0.432096
0.397561
0.139215
1.16777
2.01578
0.206778
0.120077
0.203511
0.891971
1.31915
0.775253
0.0833629
1.2475
0.237455
1.10685
0.292443
0.594357
0.159988
1.41814
0.582107
0.209394
0.322993
0.112509
0.0738923
0.19437
0.598587
0.513147
0.606259
0.110608
1.40724
0.224187
1.36506
0.269587
0.139321
0.0560521
1.31473
1.4139
0.0991582
0.115584
0.380912
1.12642
0.342316
0.243506
0.667229
0.110584
0.311751
0.161455
0.093696
0.477451
0.265612
0.121512
0.62938
0.286097
0.222784
0.304979
0.112904
0.53499
0.0926626
0.240264
2.32079
1.24854
0.103537
1.59262
0.21373
0.214759
0.250364
0.509269
0.113617
0.161281
1.24508
1.24404
0.908745
0.291891
1.74061
1.11995
0.927496
0.293634
0.0889222
1.38782
0.222435
0.118517
0.4875
0.228336
2.00499
0.737948
0.261703
0.1072
0.882397
0.22342
0.222
0.191111
2.07999
1.71643
0.113697
0.289985
0.452632
0.52123
0.373877
0.267263
2.35389
0.267908
0.368423
0.507106
0.640088
0.199334
0.02632
0.138843
0.166498
0.283247
0.220992
0.206854
0.261389
0.155188
0.435804
0.286131
0.414865
0.129485
2.061
0.101863
0.303655
0.139786
0.28522
0.642102
0.52935
0.877443
0.386093
0.282864
0.0716887
0.121371
0.498173
0.150665
0.219438
0.316556
1.41083
0.20681
0.285368
0.348586
0.393705
0.230711
0.797714
0.317012
0.299381
0.141356
1.94107
0.096858
0.254321
3.15971
0.275693
0.234424
0.261985
0.151363
0.0873223
0.0508878
0.732471
0.325543
2.05397
0.246436
1.11971
0.0950004
0.305139
0.500402
0.474199
0.264391
0.215903
1.19573
0.299688
0.522901
0.63304
0.200158
0.125665
0.500256
0.304328
0.29184
1.24187
0.431047
1.85533
0.318555
0.531503
0.545025
0.2516
0.418788
0.965443
0.102768
0.733461
0.302627
0.200854
0.196757
0.204893
0.287383
0.130418
0.274545
0.122229
0.311446
0.289662
2.61693
1.5919
0.176855
0.191121
0.309298
0.116059
0.194865
0.549467
0.268996
2.78636
1.30943
0.496713
1.12987
0.662913
0.0464852
0.126209
0.620396
0.644132
0.676399
0.264489
0.13401
1.81856
0.198762
0.40609
0.573005
0.249803
0.419845
2.08901
0.239151
0.499399
0.266638
0.265114
0.69287
0.271078
0.306731
0.145925
0.173294
1.42844
2.60874
0.116911
0.369311
0.241358
0.601034
0.799283
0.0990963
0.19117
0.486328
0.292554
0.391817
0.333134
0.1937
0.140016
0.293059
0.21424
0.104631
0.252641
0.1819
0.240172
0.322869
0.562141
0.0483637
0.231654
0.207871
0.249646
0.281684
0.652216
0.630831
0.0410212
0.304628
0.337565
1.22027
0.109966
0.110321
0.28612
1.46907
0.134764
0.197785
0.0823081
0.20622
0.0504672
1.52953
0.142438
1.30043
0.158858
0.257475
0.241239
1.26421
0.293966
0.70205
0.055804
0.100647
0.140373
0.278009
2.36892
0.1365
0.0415043
0.140279
0.0523163
0.052877
0.263655
0.270871
0.436953
0.956902
0.0370636
0.32329
0.0190314
0.0414536
0.0260104
0.08937
0.10749
0.110118
0.0632738
0.0495611
0.105276
0.107114
0.041077
0.0801039
0.0479202
0.0434009
0.056227
0.0578802
0.0644694
0.0273635
0.039786
0.0498884
0.0513761
0.776867
0.913232
0.390099
0.10173
0.0793356
0.338021
0.124873
1.03637
0.703534
0.327961
0.362151
0.0969261
0.123154
0.0665589
0.0218148
0.109374
0.0544176
0.0536308
0.052053
0.0449971
0.0711838
0.0545422
0.0185153
1.40475
0.466171
0.362255
0.142111
0.252468
0.0420721
0.315593
0.670084
0.279754
0.0416679
0.62598
0.308001
0.145277
0.623245
0.327566
0.13176
0.25163
0.0387223
0.795094
0.618169
0.269394
0.206567
1.22283
0.483193
0.698061
0.711602
2.24221
0.0921547
0.0425991
0.137582
0.146724
0.70282
0.206472
0.114438
0.806257
0.222822
0.768867
1.70115
0.803461
1.77279
0.204673
0.217807
0.329658
0.12179
0.927451
0.187216
0.348128
0.139986
0.291092
0.173598
1.37292
0.245244
0.197797
0.0704068
0.356345
0.66299
0.175471
0.0915577
0.647395
0.420113
0.508965
0.562279
0.713923
0.164844
0.655792
0.449321
0.374287
0.55819
0.125289
1.29118
0.0806865
0.312091
0.470199
0.124119
0.112983
0.0357441
1.61958
0.242157
0.103447
1.51622
0.130399
0.225547
0.738044
0.251825
0.0908358
1.35169
1.2766
1.89698
0.0506118
0.118068
0.124674
0.760957
0.206986
0.316833
0.336752
0.521709
0.672347
0.267326
0.0449532
0.0532277
0.0655335
0.0784326
1.47816
0.0551639
0.120524
1.16509
0.125821
0.32524
0.116711
0.646617
1.48325
0.854722
1.02615
0.60808
0.110741
0.0766612
0.689088
0.135247
1.18081
1.03118
0.122975
0.227466
0.62601
0.315728
0.142953
1.64314
1.32766
0.125318
0.125278
0.0980045
0.142167
0.103245
0.0395186
0.141069
0.221392
0.419689
0.195938
0.116597
0.190529
0.318465
0.238287
0.126798
0.104214
0.364482
0.181074
1.64424
0.188157
0.315425
1.00984
1.0684
1.47961
0.64869
0.668329
0.112143
0.910431
0.384479
0.217376
0.503488
0.0692393
0.116266
0.0579587
0.613934
0.24733
0.108479
0.529136
2.30636
0.786549
0.610134
0.193378
0.387249
0.188686
2.80134
1.80775
1.03391
0.0490871
0.209356
0.202302
1.13744
0.531838
0.0434822
0.914255
1.16226
0.908455
1.40261
0.195547
0.166038
0.129161
0.322861
0.444956
0.117932
0.22339
0.447127
1.0208
0.153018
0.190595
0.467581
0.315484
0.138833
0.400947
0.796605
1.28908
0.359642
0.295346
0.275427
0.194802
0.0492741
0.142322
0.205205
0.0287887
0.552624
0.430735
0.0662484
0.420781
0.934667
0.659486
0.461895
0.0614404
1.20956
1.36535
0.988417
0.399327
0.0473843
0.960219
1.19398
0.205737
1.46167
1.30125
1.54892
0.481722
0.0562486
0.158928
0.165063
0.0512837
0.117643
0.30751
0.0467841
0.050227
0.280532
0.229959
1.24862
0.159091
0.0575676
0.238441
0.160406
0.342336
0.0572672
0.19875
0.541439
0.170552
0.451474
1.59214
0.24721
0.536758
0.106954
1.66254
0.465773
2.28619
1.19332
0.16952
0.187954
0.225508
0.261569
0.61997
2.31217
0.312423
0.256831
0.332175
0.16162
0.452673
1.24049
0.0779913
0.191858
0.22899
0.282763
0.0328492
0.359094
0.914975
0.458035
1.01002
0.0474834
0.264343
0.178507
1.47746
0.324269
0.318364
0.58943
0.480803
0.0471264
0.491062
1.5446
0.0746501
0.428116
0.223094
0.125306
0.20747
0.134067
1.62055
0.879759
0.0488993
1.20101
1.49458
1.03272
0.211077
0.239187
0.0503248
0.072357
0.0282045
0.272571
0.203722
0.988886
0.0551795
0.188287
0.0474888
0.0981587
0.664637
0.588027
0.800109
0.362771
2.13138
0.129479
0.0453726
0.0666651
0.931337
1.37581
0.421395
0.607265
3.31404
0.210178
0.182401
0.413617
0.299467
0.218099
1.7474
0.0451333
0.427515
1.09254
2.02459
0.478175
0.0403598
0.0864263
0.0548976
0.470462
0.474104
1.76437
0.190113
0.184529
0.112115
0.708452
0.188254
1.53954
2.34367
0.316169
0.117711
0.59193
0.404719
0.21077
0.444946
0.760829
0.0449143
1.93497
0.190718
0.48506
0.514992
0.239938
0.201475
0.350119
0.522095
0.421266
1.56518
0.790111
0.795941
0.803476
0.855
0.305989
1.17209
0.193662
0.908738
0.613938
0.49916
0.126893
1.5649
0.053947
0.0548911
0.247197
0.570711
0.0959734
1.11503
0.198647
0.0516259
0.0979264
0.103791
0.532319
1.63048
0.0550404
2.48049
0.0490485
0.0679959
0.245201
1.78675
0.304696
0.192218
0.893431
0.608513
0.362674
0.309662
0.059801
0.041977
1.78155
0.229584
0.203891
1.94906
0.220127
0.0437798
0.0801882
0.171788
0.968364
0.149389
1.25689
0.109965
0.280727
0.23431
1.71875
0.0469862
1.25054
0.537589
0.527257
0.518328
0.528194
0.503121
0.508779
0.509213
0.550871
0.396207
0.179647
0.385134
0.200066
2.13091
0.04293
0.0667774
0.111717
0.0447955
0.0767981
0.0905319
0.0492291
0.574264
0.158742
0.617417
0.0395972
0.160679
0.194337
0.262148
0.2638
0.505872
1.53813
0.235725
0.0772895
0.295122
0.314093
0.237186
0.563323
0.366543
0.19178
0.0311963
0.886652
0.173475
0.968217
1.76198
0.320648
0.344457
0.225163
0.232646
0.0618849
0.148441
0.136846
0.103242
0.215481
0.203964
0.0796467
0.0435427
0.321366
0.91643
0.153476
0.617537
0.0427748
0.247849
0.162821
0.112842
0.124572
0.248291
0.104563
0.0524982
0.202135
0.0429542
0.293405
0.0689962
0.171155
1.27183
1.32559
0.2924
0.447179
1.6818
0.596576
0.269747
0.281734
1.40804
0.0454786
0.0780371
0.142029
0.0640312
0.117678
0.116934
0.330412
0.209281
0.794842
0.753484
0.490334
0.283631
0.0384169
0.0471602
0.184714
0.223017
2.51156
0.15096
0.369213
1.11518
0.740666
0.356607
0.451657
0.0705251
0.147071
0.219764
0.175851
0.233181
0.211613
0.712266
0.0737802
0.53013
1.52306
0.530434
2.33184
0.190554
0.303161
0.37565
0.336141
0.35604
0.395895
0.314328
0.288991
0.377079
0.0912082
0.0674296
0.250618
0.257557
0.0857713
0.0561112
1.62586
0.106851
0.142289
0.0620079
1.17983
0.0833369
0.499
0.260029
2.0688
0.0692444
0.217723
0.138102
0.246219
0.165417
1.60262
1.77324
0.0911828
0.140425
0.372714
0.0638232
0.16971
0.800492
0.0517519
0.960255
0.885865
0.347499
0.32616
0.584124
1.54395
0.482482
0.23994
0.0693118
0.115343
0.256717
0.669222
0.404853
0.185408
1.32095
1.12551
0.643669
0.0949393
1.47409
0.0171769
0.653711
0.0637628
0.252702
0.160884
0.447989
0.328087
0.0766533
2.96177
0.660236
1.77313
0.102499
0.898149
0.995129
0.456474
0.195551
0.201804
0.19844
0.785777
1.98317
0.350444
0.302057
1.25785
0.920871
0.228256
0.264903
0.775985
1.58109
1.02455
1.42341
0.164539
1.56952
1.05623
1.24998
0.113386
0.963505
0.728386
0.083647
0.190163
0.12522
0.441164
2.138
1.03988
0.958134
0.277437
1.61654
0.0797545
1.6277
1.35948
0.316484
0.148938
0.210879
0.724664
0.0981735
0.0727714
0.0339487
0.149959
0.101222
1.45473
1.6673
0.189891
1.8803
0.0911263
0.461162
1.93485
1.17799
0.16675
0.102961
0.167985
0.399748
0.0403841
0.206139
0.140372
2.09593
0.349512
0.588968
0.21447
0.217114
0.548049
0.309451
0.32745
1.79121
0.177874
0.20208
0.536396
0.897604
0.244194
0.119095
0.0769469
0.778018
0.353135
0.355113
0.0770402
0.0651418
0.112729
0.0437665
0.248258
0.0706603
0.582376
0.801195
0.449217
2.52869
0.0590688
0.385007
0.118993
0.208441
0.507824
0.0418924
0.132979
0.334496
0.122037
1.23696
1.34661
0.0281633
0.545388
0.880961
0.0909969
0.374917
1.19101
0.0638411
0.0389801
0.636788
0.0559533
2.30302
0.138854
0.67873
0.241406
0.88934
0.557601
0.0614625
0.458723
0.249548
0.060453
0.116699
0.366743
0.0338646
1.02755
0.0243187
0.138538
0.088038
0.20412
0.135777
0.356028
0.0411748
0.103947
2.99644
0.148125
0.308809
0.234133
0.571129
0.0683486
0.0515099
0.065491
0.187629
3.28501
1.44999
0.311711
0.207025
0.732215
0.0865674
1.07846
0.259513
1.33431
0.063914
0.0323615
2.25027
0.107477
0.156519
2.43414
0.788965
0.513627
0.287535
1.3083
0.0307892
0.0382296
0.086433
1.43298
1.05446
0.978557
0.0568778
0.0468855
0.0204964
0.336467
0.362366
2.96174
0.928927
0.603588
0.366324
0.205083
0.0360306
0.123877
0.283593
0.856672
1.28295
0.192966
0.116724
0.214781
0.63463
1.58966
2.37822
0.432427
0.040871
0.0933095
1.20674
0.544502
0.0309384
2.36716
2.01856
0.781748
0.46426
0.235808
0.30093
1.84587
0.980501
1.24391
0.114204
2.65792
0.677123
0.346165
0.0524863
1.33897
0.351677
0.359985
0.887785
1.68221
0.394883
0.118705
0.0451288
1.62658
0.208201
0.14624
1.12876
0.191609
1.4955
0.430766
0.0742779
1.91286
0.197439
0.478266
0.269891
0.412562
0.344115
0.611209
1.45465
0.0976723
0.958958
0.0287863
1.17244
0.8091
0.107336
0.103218
0.109119
0.145061
1.63485
0.853586
0.204082
0.200483
0.660052
0.109701
0.0816544
0.995301
0.270402
0.121853
0.382743
0.201912
0.165786
1.95074
1.03542
1.2063
0.462317
1.66052
0.147799
0.0486591
0.119647
1.59495
1.63715
0.396003
0.340861
0.937177
1.14923
0.11742
2.5102
0.757047
0.166688
0.0409311
0.265106
0.496217
0.226182
0.390249
0.309224
0.567267
0.680457
0.417643
0.277893
0.230242
0.39134
0.270281
1.55681
1.41461
2.72601
1.23998
0.154488
1.61794
0.769807
1.63652
0.0573823
0.194869
0.350873
0.166355
1.99158
0.0477978
0.055267
1.99239
0.229099
1.72503
1.74663
1.02745
0.731866
0.803312
0.328532
0.262148
1.15579
0.333802
0.420391
0.0809759
0.134931
0.374868
0.0857676
0.926299
2.1255
0.126075
0.155183
0.105074
0.0251781
0.0857984
1.13904
0.0882437
1.37333
0.778247
0.355931
0.5424
0.316684
0.162109
0.295715
0.129562
0.0848565
0.213169
0.074508
1.24561
0.231532
0.617103
0.10934
0.240367
0.360191
0.118404
1.0525
0.0391127
0.0840401
0.133011
0.212522
0.20436
0.0659226
0.0803917
0.522018
0.112156
0.45768
0.133016
0.0884879
0.164192
0.536753
0.300507
0.410067
0.221828
0.090105
0.24379
0.11474
1.41946
0.103013
0.303828
0.204971
0.0502258
0.394975
0.626319
0.27002
0.523539
0.124608
0.452576
0.159037
1.44089
0.0498775
0.243779
1.37782
0.524797
1.02067
0.103395
2.23051
0.234696
0.71145
1.31037
0.336571
0.328968
0.114734
0.510708
0.302145
0.898528
0.0666841
1.63211
0.0519638
0.771216
0.0504809
0.0743711
0.542071
0.262839
0.342467
0.276141
0.917338
0.141454
0.937407
0.635897
0.587544
0.649091
0.206395
0.117211
0.399924
2.51842
1.21362
0.313026
0.297204
2.8506
1.31242
3.06592
1.35771
1.41344
0.46104
0.206596
0.751062
0.387217
0.1372
0.740243
1.58289
0.128588
0.641698
0.988893
)
;

boundaryField
{
    frontAndBack
    {
        type            empty;
    }
    wallOuter
    {
        type            kqRWallFunction;
        value           nonuniform List<scalar> 
90
(
0.467678
0.421395
0.413617
0.427515
0.478175
0.470462
0.474104
0.59193
0.404719
0.48506
0.514992
0.613938
0.49916
0.570711
0.532319
0.893431
0.537589
0.527257
0.518328
0.528194
0.503121
0.508779
0.509213
0.550871
0.505872
0.794842
0.753484
0.53013
0.530434
0.37565
0.336141
0.35604
0.395895
0.314328
0.288991
0.257557
0.0620079
0.0833369
0.499
0.217723
0.0638232
0.16971
0.800492
0.0517519
0.0693118
0.115343
0.0171769
0.653711
0.0637628
0.660236
0.775985
0.441164
0.461162
0.588968
0.536396
0.0770402
0.0706603
0.582376
0.801195
0.385007
0.507824
0.0418924
0.0281633
0.880961
0.636788
0.67873
0.88934
0.0338646
1.02755
0.0243187
0.513627
0.0307892
0.978557
0.0204964
0.928927
0.856672
0.432427
0.544502
0.0309384
0.781748
0.430766
0.958958
0.0287863
0.462317
0.417643
0.0251781
1.0525
0.0391127
0.522018
0.394975
)
;
    }
    inlet
    {
        type            fixedValue;
        value           uniform 0.375;
    }
    outlet
    {
        type            zeroGradient;
    }
    wallInner
    {
        type            kqRWallFunction;
        value           nonuniform List<scalar> 
138
(
0.112873
0.0556979
0.813341
0.152136
0.0951983
0.243275
1.41814
0.582107
0.112509
0.0738923
0.606259
0.737948
0.02632
0.138843
0.0716887
0.121371
0.151363
0.0873223
0.0508878
0.732471
1.85533
0.662913
0.0464852
0.620396
0.644132
0.676399
0.573005
0.69287
0.601034
0.652216
0.630831
0.052877
0.0370636
0.0190314
0.0414536
0.0260104
0.08937
0.10749
0.110118
0.0632738
0.0495611
0.105276
0.107114
0.041077
0.0801039
0.0479202
0.0434009
0.056227
0.0578802
0.0644694
0.0273635
0.039786
0.0498884
0.0513761
0.0969261
0.123154
0.0665589
0.0218148
0.109374
0.0544176
0.0536308
0.052053
0.0449971
0.0711838
0.0545422
0.0185153
0.0416679
0.269394
0.698061
0.217807
1.37292
0.0704068
0.0915577
0.0806865
0.738044
0.0506118
0.760957
0.0449532
0.0532277
0.0655335
0.0551639
1.16509
1.48325
1.18081
1.03118
1.32766
0.112143
0.0579587
0.613934
0.610134
0.0434822
0.0287887
0.0575676
0.0328492
0.0746501
0.072357
0.0282045
0.0403598
0.0548976
0.316169
0.790111
0.193662
0.247197
0.103791
0.608513
0.0801882
0.111717
0.617417
0.0395972
0.0311963
0.0471602
0.712266
0.0912082
0.0674296
0.0561112
0.584124
0.643669
0.0949393
0.898149
0.995129
0.0403841
0.0769469
0.778018
0.0909969
0.0411748
0.148125
0.732215
0.0865674
0.0360306
0.123877
0.0742779
0.297204
0.751062
0.387217
0.1372
1.58289
0.128588
0.988893
)
;
    }
    procBoundary0to1
    {
        type            processor;
        value           nonuniform List<scalar> 
29
(
0.156334
0.260684
0.301944
0.301944
1.57263
1.57263
2.02231
0.514058
1.29767
0.488991
0.549997
1.07871
0.205464
0.12133
1.33773
0.623955
2.217
2.10371
0.42494
0.248511
0.333243
0.225197
1.4608
0.293553
0.29196
2.10371
0.2588
0.819911
0.293553
)
;
    }
    procBoundary0to2
    {
        type            processor;
        value           nonuniform List<scalar> 
42
(
1.20052
0.943653
0.137166
0.120083
0.0373915
1.20052
0.137166
0.132458
0.0382899
0.0384256
0.0483126
0.099027
0.0483126
0.184921
0.316743
1.1505
0.316743
0.0362793
0.0393047
0.208459
0.208459
0.0362793
0.0353203
0.230363
0.230363
0.0381625
0.551024
0.042501
0.854256
0.798772
0.798772
0.0455542
0.044166
0.0399878
0.0378063
0.137166
0.601165
0.0886201
0.854256
0.132458
0.0810664
0.0489183
)
;
    }
}


// ************************************************************************* //
