/*--------------------------------*- C++ -*----------------------------------*\
| =========                 |                                                 |
| \\      /  F ield         | OpenFOAM: The Open Source CFD Toolbox           |
|  \\    /   O peration     | Version:  v1912                                 |
|   \\  /    A nd           | Website:  www.openfoam.com                      |
|    \\/     M anipulation  |                                                 |
\*---------------------------------------------------------------------------*/
FoamFile
{
    version     2.0;
    format      ascii;
    class       volScalarField;
    location    "0.94";
    object      nut;
}
// * * * * * * * * * * * * * * * * * * * * * * * * * * * * * * * * * * * * * //

dimensions      [0 2 -1 0 0 0 0];


internalField   nonuniform List<scalar> 
5794
(
0.0005316
0.000663456
0.0041852
0.00492201
0.0169771
0.00117441
0.00122172
0.000838502
0.00226453
0.000637441
0.00203374
0.0013118
0.00141761
0.00780883
0.00149085
0.0020531
0.0102578
0.00693298
0.00104356
0.000495528
0.00150598
0.00059022
0.00163064
0.000815466
0.00113586
0.0037584
0.0137331
0.0126067
0.00391955
0.000786528
0.00151352
0.00208107
0.002415
0.00106935
0.00133255
0.00191312
0.000786253
0.00171021
0.00191254
0.00758031
0.00639401
0.00271525
0.000743463
0.00126862
0.00152088
0.0023126
0.00184986
0.00103551
0.000548156
0.000508522
0.000591599
0.00297043
0.000672381
0.00169278
0.000103533
0.00230328
0.00175395
0.00144366
0.000733034
0.00494616
0.00132799
0.000415298
0.00128362
0.00482234
0.00572857
0.000823347
0.00545229
0.000694818
0.00551468
0.000315399
0.00617558
0.00488379
0.0158697
0.000975151
0.00578795
0.00872127
0.000226935
0.00333911
0.00114198
0.000266385
0.000486233
0.000356324
0.00692278
0.00178314
0.00162042
0.000900512
0.000749383
0.00102176
0.00150922
0.00305486
0.00502643
0.00211267
0.00342955
0.00541137
0.00261288
0.00805348
0.00396881
0.00319108
0.00199242
0.0014268
0.00143325
0.00119646
0.000756593
0.011826
0.00369045
0.0125503
0.000441599
0.00416295
0.00512128
0.000992731
0.000738268
0.000720148
0.00138304
0.00169487
0.00233621
0.0040702
0.00113947
0.00633279
0.00123688
0.0010091
0.00873615
0.000198831
0.000823
0.0108243
0.00135458
0.00359541
0.00349404
0.00144312
0.00340026
0.00391706
0.00155305
0.00187452
0.00303191
0.00315247
0.011147
0.00166527
0.00294902
0.000456419
0.00358618
0.000824627
0.00118016
0.0131527
0.00155898
0.0133353
0.00454256
0.0129661
0.00196384
0.00147745
0.0140249
0.00710301
0.0007266
0.00120764
0.0121437
0.000814326
0.0144073
0.00170615
0.00173516
0.00125312
0.002131
0.0015408
0.000353239
0.000661129
0.000352306
0.000848634
0.00194151
0.00186766
0.000803086
0.000582456
0.000404736
0.000233641
0.000289352
0.00194412
0.000567951
0.000452507
0.000326842
0.0013159
0.000225933
0.00101364
0.000457952
0.00190175
0.000645736
0.00114821
0.00061223
0.0015342
0.000717466
0.00375894
0.00110785
0.00111533
0.000252569
0.00082294
0.0016524
0.00137817
0.00170923
0.000857812
0.000972472
0.00082965
0.000780929
0.000404257
0.000401676
0.00100929
0.00104345
0.00209766
0.000921242
0.000845004
0.00162932
0.00200013
0.000677146
0.00581817
0.013711
0.00197526
0.000793239
0.000858095
0.00251903
0.00133611
0.00114696
0.00150864
0.00200116
0.00360618
0.00355808
0.00548766
0.000856934
0.00226297
0.00836281
0.00370747
0.00235985
0.00695928
0.000652979
0.00113239
0.000384467
0.00160216
0.000791387
0.000625592
0.000747976
0.00364741
0.00299448
0.0108341
0.0138455
0.00204396
0.00100076
0.000623145
0.000348284
0.00767686
0.00234246
0.00152957
0.00126615
0.0015078
0.00158347
0.011968
0.00114206
0.000947209
0.00070735
0.000923865
0.0126995
0.000487918
0.000811736
0.0231211
0.000907761
0.000891648
0.00381531
0.00115705
0.0025258
0.00239429
0.00129216
0.000686293
0.00113133
0.00121301
0.00985865
0.00366931
0.000757377
0.00289701
0.00245053
0.00113556
0.00318498
0.00504806
0.000869051
0.00108697
0.00166121
0.00111844
0.000646726
0.00134602
0.000733877
0.00324805
0.00462632
0.00168183
0.00536773
0.00525778
0.00256438
0.00309008
0.00532548
0.00889363
0.00144236
0.000934128
0.00123564
0.00165363
0.000771902
0.00307763
0.00247062
0.00120739
0.00280119
0.00108254
0.000288616
0.000994542
0.00042873
0.00326629
0.000909854
0.00309825
0.000587564
0.00431263
0.00249838
0.00212594
0.00128977
0.00279907
0.0022854
0.00173833
0.000782995
0.000904173
0.00513042
0.0136421
0.00459397
0.00407656
0.00241417
0.00115891
0.00516372
0.0160876
0.00321475
0.00200598
0.00106017
0.0010979
0.00123691
0.0018664
0.00180021
0.000821764
0.000867528
0.00149921
0.00129818
0.000313888
0.000280257
0.000317677
0.000211585
0.000914539
0.000440078
0.000881407
0.00233076
0.00116923
0.000287722
0.000561299
0.00170319
0.00120993
0.00217576
0.00170613
0.00200692
0.00253085
0.00147896
0.00115458
0.000677621
0.00263504
0.000405238
0.00187521
0.00114249
0.000810133
0.00580325
0.00251942
0.00295422
0.0018812
0.00100057
0.00383451
0.00173141
0.00154765
0.00123933
0.00099101
0.0016475
0.00046365
0.00430834
0.0037187
0.00660971
0.00300466
0.00166585
0.00137602
0.00167669
0.000465423
0.00350803
0.00162444
0.000750222
0.00157835
0.0010895
0.000972815
0.00647593
0.00255902
0.00114114
0.000878089
0.000608011
0.00169057
0.000386096
0.00139241
0.000516092
0.000411858
0.000319364
0.000901638
0.00130969
0.00167521
0.000765743
0.00115163
0.0146216
0.000384816
0.000406294
0.0025848
0.00157028
0.00113077
0.00082771
0.00409454
0.00337532
0.00204463
0.00441462
0.00117383
0.0017421
0.00142518
0.00066067
0.00547981
0.00193915
0.0034973
0.00187857
0.00292996
0.00536172
0.00170813
0.000749239
0.00058936
0.000388463
0.00162302
0.000451962
0.000691037
0.00296569
0.000784405
0.0118338
0.00205799
0.00121663
0.000678057
0.00101647
0.00128743
0.0010975
0.000802854
0.000886714
0.000805538
0.000936668
0.000829374
0.00106985
0.00460675
0.0024845
0.00336025
0.000424362
0.00280946
0.000321487
0.000591168
0.00200477
0.00067113
0.00494819
0.000477025
0.00453802
0.00796147
0.00348571
0.00719854
0.000902649
0.000975911
0.000787992
0.00194529
0.00153362
0.00395069
0.0106855
0.0202982
0.00530238
0.00111183
0.000160592
0.0143716
0.00444492
0.000905631
0.0013771
0.00311681
0.0203159
0.0136834
0.00118637
0.000831247
0.00101925
0.000871718
0.000742078
0.000629769
0.00544913
0.00345338
0.000861546
0.00104248
0.00278717
0.000696912
0.000577537
0.00462721
0.00428532
0.0137709
0.00147501
0.000935525
0.000838417
0.00188022
0.00188131
0.00235852
0.0211908
0.0192423
0.000728662
0.00184805
0.0133873
0.0010339
0.000954262
0.00111522
0.00485165
0.00102553
0.00806311
0.000596545
0.00444576
0.000588089
0.00177563
0.00225354
0.00377096
0.000604645
0.000805468
0.0145594
0.00117683
0.00102738
0.0189609
0.00685532
0.00449263
0.00132065
0.00121373
0.00210511
0.000813955
0.000769248
0.00112945
0.000289776
0.0100128
0.00225724
0.0021587
0.000855565
0.000785533
0.00298832
0.00392353
0.00209811
0.000645165
0.00232355
0.000319838
0.00546007
0.0013153
0.00303868
0.000755295
0.0135651
0.00138824
0.00102887
0.0127716
0.000610941
0.000264751
0.000959759
0.0020758
0.00161531
0.0011545
0.000755119
0.000804526
0.0120414
0.018511
0.000367115
0.00330467
0.00133291
0.00582468
0.000917735
0.00125812
0.0059851
0.000416641
0.0010615
0.00165091
0.0027952
0.00146905
0.00133055
0.00150586
0.000858993
0.0208404
0.00429174
0.00162925
0.00394743
0.00488534
0.00257502
0.00787208
0.00774581
0.00324914
0.00138243
0.00148045
0.00447586
0.0024268
0.00488395
0.00108433
0.00199743
0.000540579
0.00534691
0.00261738
0.00312185
0.000363566
0.000831184
0.000747316
0.00148008
0.000801822
0.00178584
0.00272521
0.00556563
0.000766175
0.00279165
0.0033664
0.000269293
0.000120829
0.00552197
0.0207455
0.0235815
0.0114219
0.00103835
0.000673211
0.0008128
0.00216927
0.00104266
0.000865785
0.00186706
0.000245604
0.00327643
0.0040806
0.00559226
0.000333316
0.00166808
0.00407243
0.0147387
0.0061782
0.00127615
0.000746843
0.000503863
0.000196761
0.00124572
0.000973692
0.000820833
0.00372379
0.000809428
0.000582466
0.0134494
0.00132662
0.000843116
0.00400956
0.00255802
0.00283176
0.0053412
0.00250877
0.00101148
0.00217441
0.000621548
0.00087138
0.000992018
0.00227804
0.000583985
0.000533443
0.00301828
0.0157138
0.00280049
0.00208026
0.00325597
0.000882367
0.000539516
0.000824902
0.00111266
0.00073462
0.00308926
0.0056042
0.00547817
0.00256808
0.00277472
0.00203071
0.00100148
0.0129302
0.00143509
0.00143127
0.00290264
0.00584021
0.00147999
0.0117437
0.000973959
0.000901629
0.00512165
0.00177214
0.00346446
0.0123757
0.00278854
0.00384451
0.00205647
0.000769153
0.000742374
0.00664129
0.00814479
0.00356037
0.00329536
0.0015966
0.00190476
0.00633826
0.000459323
0.000905478
0.000769672
0.00024126
0.000708529
0.000279536
0.000951032
0.0118346
0.00326973
0.0024265
0.000749813
0.00246428
0.00697955
0.00111393
0.00775343
0.00362381
0.00299165
0.00441136
0.000775347
0.000733527
0.0172212
0.00307557
0.0061525
0.00771596
0.00402017
0.00309359
0.002871
0.0222457
0.00111079
0.000806593
0.000818925
0.00814324
0.000955873
0.00287413
0.00279041
0.00638523
0.00221345
0.00163538
0.00186185
0.00639664
0.00447328
0.00210993
0.00341149
0.00461311
0.000235056
0.000323207
0.000169853
0.000445693
0.0048807
0.00260921
0.00463285
0.000917265
0.000802991
0.00207167
0.000881482
0.00184801
0.000525012
0.00262499
0.00516546
0.000756133
0.00590974
0.00275152
0.00070936
0.000987112
0.0209896
0.00494724
0.00309572
0.00585693
0.0059092
0.00283257
0.00345396
0.00145187
0.00408999
0.00232192
0.00461114
0.0116096
0.00222912
0.00285547
0.00075171
0.000987708
0.00123978
0.0155949
0.00113497
0.0065299
0.0164491
0.00112081
0.000945156
0.00100318
0.00511678
0.00271521
0.00674155
0.00525948
0.00263979
0.00489414
0.00577079
0.00692024
0.00355459
0.000856901
0.00285671
0.000539356
0.00281774
0.000702898
0.00353778
0.000863073
0.0056348
0.00125792
0.00274324
0.0017941
0.00143646
0.00649146
0.00565524
0.00306593
0.00874833
0.00347816
0.00115088
0.000994089
0.00107738
0.00959728
0.00117981
0.00228285
0.00304225
0.00817677
0.000848366
0.000839722
0.00128509
0.0013731
0.0151754
0.00134407
0.000768868
0.001179
0.000975327
0.00148747
0.0025166
0.00480515
0.0047937
0.00077145
0.00219337
0.00852428
0.00109101
0.00255963
0.0178509
0.000321337
0.000151087
0.000417407
0.000657153
0.00456171
0.00446183
0.000875476
0.00145893
0.00121554
0.00071189
0.000839356
0.0232448
0.00278608
0.00576935
0.00164961
0.00242338
0.00353478
0.00293881
0.014245
0.00510689
0.00177925
0.000660337
0.000754172
0.0122571
0.00100245
0.000999229
0.00760409
0.00385276
0.00415189
0.00391618
0.0017796
0.0109012
0.00349698
0.000773147
0.00305439
0.0012352
0.00402667
0.00100773
0.00190059
0.0031015
0.000814791
0.000753044
0.000567256
0.00457683
0.00386258
0.000896443
0.000733426
0.00209804
0.00114498
0.00390632
0.000859485
0.000799359
0.00268163
0.0013967
0.0030709
0.00593349
0.00437737
0.0059377
0.0149904
0.000701644
0.000568716
0.00884567
0.00128959
0.00112824
0.000890542
0.00127266
0.00206828
0.000355465
0.000790275
0.0012757
0.00836095
0.00300399
0.00482081
0.000845746
0.00301415
0.00558709
0.0188658
0.00207621
0.00328283
0.000784953
0.00106269
0.0177489
0.00104898
0.00301485
0.000841408
0.00135153
0.001052
0.00153491
0.000406595
0.00194371
0.00126083
0.000493266
0.000342002
0.000272779
0.000295289
0.000180534
0.000661292
0.0141746
0.0130622
0.00323439
0.00187452
0.0028034
0.0113207
0.000754894
0.000878262
0.000936858
0.00952872
0.00120878
0.0211315
0.00629067
0.00229311
0.000785825
0.00831637
0.00172654
0.000626925
0.000685219
0.0235878
0.00602916
0.000834253
0.00156652
0.000878831
0.00343562
0.00155695
0.0170752
0.000628699
0.000505732
0.000453551
0.000561076
0.00047107
0.00094071
0.00242437
0.00109544
0.000708806
0.000743712
0.00078948
0.00948152
0.000782815
0.000733119
0.00131208
0.00164822
0.00083164
0.000893157
0.000447802
0.00109632
0.0007801
0.000940132
0.000756952
0.00122934
0.000689137
0.00191093
0.00473068
0.000743671
0.000833726
0.000775604
0.00269801
0.000830292
0.00214132
0.000777022
0.023076
0.00212551
0.00114196
0.00082562
0.000875115
0.0134034
0.000978372
0.00250822
0.00262473
0.00531817
0.00197895
0.000915538
0.00118561
0.00173985
0.000831258
0.00121071
0.0017993
0.00167641
0.00149271
0.000143483
0.00198864
0.00143322
0.00109755
0.00108782
0.0016119
0.000392812
0.000722754
0.000794825
0.00119787
0.000746918
0.0130906
0.000796566
0.00444713
0.000790216
0.000783472
0.000736515
0.000791912
0.000680777
0.000820351
0.0129367
0.0123655
0.00425487
0.000440299
0.000826833
0.00293776
0.00116107
0.00122558
0.00170277
0.00179704
0.00518199
0.00132522
0.00696442
0.000421193
0.000841985
0.00621717
0.00049456
0.0188012
0.00072557
0.000710124
0.00253055
0.00813465
0.0010273
0.00345066
0.000910791
0.001044
0.0010892
0.00087055
0.000463403
0.000931741
0.000830316
0.000707582
0.000645757
0.000646007
0.000687651
0.000904919
0.00409783
0.000978311
0.000723665
0.00545767
0.00261894
0.00093148
0.000530309
0.00805045
0.00261188
0.00653718
0.00987888
0.00114424
0.00114918
0.000306406
0.0198298
0.000908483
0.00429123
0.000859516
0.0193032
0.00255922
0.000225128
0.00109308
0.000302819
0.000698504
0.00166097
0.000597305
0.00112858
0.00110244
0.000267432
0.00108128
0.000173174
0.000242278
0.000883127
0.00105729
0.000994181
0.00670784
0.00360925
0.00606634
0.000279331
0.00128969
0.000772307
0.000997258
0.00111601
0.000789839
0.00826161
0.000810841
0.00366824
0.00102943
0.000746415
0.000986798
0.0230544
0.0116948
0.000547814
0.00275606
0.00739714
0.0053301
0.0118671
0.000744696
0.00561141
0.0048737
0.0031032
0.000947882
0.00839303
0.000726546
0.000726523
0.000894066
0.000951501
0.00121664
0.00124763
0.0129728
0.00107058
0.000971038
0.00327618
0.00468704
0.00478423
0.000764922
0.00145877
0.00125305
0.0011222
0.00125051
0.000728583
0.0181615
0.00136629
0.00617865
0.00276535
0.00667383
0.00100333
0.00225206
0.00199319
0.00256749
0.000985932
0.00102638
0.000705915
0.00123129
0.000688286
0.0221525
0.000749098
0.000846662
0.000754755
0.000909863
0.000832512
0.000776427
0.000868808
0.000747781
0.00326934
0.00127758
0.0112904
0.000732324
0.00074517
0.000551613
0.000720801
0.00170809
0.009471
0.00171578
0.000603572
0.000961964
0.000768151
0.00199811
0.000786819
0.00070476
0.000844177
0.000668518
0.000844065
0.00102001
0.000965347
0.00771417
0.000545515
0.0125644
0.000851996
0.000547273
0.000766805
0.000795359
0.00104182
0.00321685
0.00141238
0.000741658
0.0020424
0.000839671
0.00103395
0.00159763
0.00121494
0.000762281
0.000645257
0.00116624
0.00149351
0.00441855
0.00615865
0.00256387
0.000828553
0.000202228
0.00780214
0.00115475
0.00534561
0.00667515
0.000491043
0.000861049
0.00110041
0.00142969
0.000256655
0.0121334
0.00655837
0.00111056
0.00793175
0.00323455
0.00165076
0.000473434
0.00827187
0.021392
0.00875986
0.00130694
0.000845665
0.00174384
0.00280665
0.000836112
0.000618869
0.000640367
0.000783616
0.00314498
0.00326847
0.000352511
0.00584455
0.000937347
0.000714389
0.000411697
0.00294646
0.0118442
0.00148734
0.00281088
0.00603503
0.00876478
0.0147601
0.00211527
0.00220542
0.000795129
0.00583412
0.00380942
0.00733823
0.00559653
0.00252062
0.00401772
0.00157569
0.0154226
0.00453362
0.0170325
0.00231668
0.00112399
0.00109543
0.0175569
0.00238114
0.00114149
0.00519122
0.00393976
0.00211114
0.00619497
0.00639871
0.00272365
0.0131985
0.00283796
0.000284187
0.000806654
0.00389762
0.0010743
0.000964391
0.0017711
0.00083095
0.00423361
0.00347973
0.00625035
0.000487499
0.00924206
0.00376769
0.00275694
0.00360404
0.0011836
0.000945456
0.000740015
0.0114959
0.00140933
0.00125358
0.000796841
0.017712
0.000639017
0.00135262
0.00999078
0.00839702
0.00182674
0.00190887
0.0129941
0.00136426
0.000786141
0.000149612
0.0065685
0.00340461
0.00826699
0.00740984
0.00105682
0.00219799
0.00514937
0.00585231
0.000958935
0.00151287
0.00133156
0.00151294
0.00114445
0.0105891
0.00225574
0.00107317
0.00586842
0.00161419
0.00688338
0.000835693
0.00212938
0.000885173
0.00151579
0.00232015
0.00104333
0.000881681
0.00108504
0.00135595
0.000265176
0.00170096
0.000635292
0.000822527
0.00413646
0.00274187
0.00550639
0.00149264
0.00527832
0.00530237
0.00652349
0.000935466
0.00201261
0.00180898
0.00134347
0.00023637
0.000186076
0.000238122
0.0178298
0.000826197
0.00267336
0.00208966
0.0039203
0.00360138
0.00160101
0.000181151
0.000244822
0.000297412
0.000259658
0.000418623
0.000497733
0.000372013
0.000341916
0.000447911
0.000542858
0.000515818
0.000348843
0.000277201
0.000207816
0.000216338
0.000464255
0.000542136
0.000413118
0.000417745
0.000249013
0.000378501
0.000191847
0.00022476
0.000135281
0.000847699
0.000231867
0.000299628
0.000171937
0.000515469
0.000282497
0.00037527
0.000334792
0.000268387
0.000311176
0.00025705
0.000247691
0.000373376
0.000252507
0.000376242
0.000629882
0.00024238
0.000192107
0.000310502
0.000317561
0.00176945
0.00192255
0.0122516
0.0010078
0.00613806
0.0028766
0.00529191
0.0150189
0.00102905
0.00133672
0.000843923
0.000984276
0.0028222
0.00619738
0.0189154
0.0190085
0.00546574
0.00278473
0.000496092
0.000487167
0.00242016
0.000798857
0.000351188
0.005589
0.00259938
0.00360813
0.0016136
0.00558397
0.00478041
0.0054241
0.00164758
0.00900874
0.00343017
0.0188609
0.00188348
0.00206935
0.00145537
0.000762653
0.0142362
0.0011982
0.0016011
0.00761879
0.00234444
0.00564343
0.00459458
0.00172461
0.00141254
0.000842027
0.000848847
0.0165122
0.0020978
0.000440051
0.000383695
0.00788733
0.0141819
0.000200296
0.00357221
0.00691275
0.000410921
0.000388599
0.000400907
0.000352223
0.000269716
0.000435206
0.000513971
0.00026781
0.000298664
0.000563676
0.000390536
0.000321801
0.000175375
0.000321991
0.000239905
0.000257971
0.000365287
0.000215818
0.000351814
0.0001959
0.00027908
0.000186695
0.00027329
0.00338594
0.00278103
0.000444034
0.000891739
0.00457257
0.000848692
0.0093604
0.000845932
0.00294614
0.014783
0.00517499
0.00282411
0.0140515
0.0026111
0.000187322
0.0139901
0.00209411
0.00134427
0.0226073
0.00486792
0.012452
0.000715274
0.0134674
0.00169232
0.00130282
0.0132836
0.000901247
0.00336163
0.0038675
0.00156551
0.00232628
0.00615879
0.0011866
0.00915145
0.0172311
0.00321984
0.00722004
0.000573044
0.0099687
0.00110212
0.00213301
0.00100601
0.00638683
0.00143912
0.00203791
0.00291039
0.00169559
0.00708594
0.000834641
0.00303909
0.00063145
0.00651095
0.0051246
0.0234308
0.000166314
0.000771992
0.00102325
0.00863881
0.00282897
0.000245574
0.000648809
0.00625572
0.00448512
0.0130052
0.000832684
0.00201133
0.00226356
0.00104015
0.00379018
0.00100949
0.00729041
0.000833964
0.000196221
0.000183832
0.00924869
0.00636043
0.00078934
0.00699205
0.00488571
0.00337448
0.0132029
0.0189318
0.0107893
0.0134011
0.0120609
0.00180369
0.00848086
0.00126941
0.00198923
0.00152812
0.00687431
0.000725353
0.000856074
0.00108092
0.0154496
0.000900407
0.000710798
0.00155933
0.00307586
0.00352724
0.00932109
0.013606
0.00943312
0.00379372
0.000830865
0.0126942
0.000550135
0.00209445
0.00201112
0.00116242
0.0118144
0.0164919
0.00317164
0.0138335
0.00279396
0.00774567
0.00142928
0.00147779
0.00215195
0.00270973
0.00102265
0.00180247
0.00177514
0.0129955
0.00103632
0.0014368
0.00382637
0.00294358
0.00142702
0.00183965
0.00183611
0.0149423
0.00533766
0.00729273
0.00499876
0.00135676
0.00071697
0.00137123
0.00349385
0.00102081
0.00196101
0.00215522
0.0139732
0.0139919
0.0110375
0.0103064
0.0140597
0.0114184
0.0140477
0.00130431
0.0141459
0.0140963
0.0117377
0.0112018
0.0141485
0.0107823
0.0139569
0.0141935
0.0141435
0.00178553
0.0018298
0.00161127
0.015033
0.00168513
0.00129532
0.00094377
0.00122106
0.000192984
0.000220833
0.00529267
0.0112322
0.00650184
0.00280514
0.00348026
0.00941867
0.0108123
0.0082036
0.00425356
0.000894252
0.00118283
0.00086955
0.00223504
0.00648381
0.00156507
0.00146695
0.0015432
0.00559421
0.00375915
0.00220459
0.00237799
0.00733509
0.00269043
0.000743594
0.00398209
0.000303046
0.00476229
0.00136862
0.000957104
0.00122439
0.000938325
0.00187051
0.00272979
0.00215499
0.00392488
0.00436553
0.00138774
0.00285768
0.0112769
0.00225643
0.00268444
0.0030638
0.00381793
0.00932565
0.000858956
0.00183157
0.00956103
0.00487246
0.0029954
0.00240661
0.00143942
0.00315051
0.0106506
0.00331429
0.00185607
0.00193381
0.00177588
0.00523775
0.00140175
0.0172342
0.00193997
0.00145068
0.00145979
0.00216472
0.00484332
0.000699096
0.00142812
0.00305279
0.00572908
0.00271037
0.0166272
0.00967958
0.00172329
0.0104187
0.00208024
0.00177926
0.00303235
0.000791105
0.00290555
0.00138267
0.0160454
0.00329779
0.00198631
0.00087262
0.00789669
0.015372
0.00157596
0.00146446
0.00608927
0.00548572
0.00290102
0.00191648
0.00157512
0.00109892
0.00669955
0.00556934
0.00534226
0.0147764
0.0147728
0.00129819
0.0057755
0.000545704
0.00161951
0.00279456
0.00105189
0.00132509
0.00170003
0.000992937
0.00218702
0.00196156
0.00492099
0.000615423
0.00595069
0.00294837
0.00127212
0.00286765
0.00358299
0.00313914
0.00124668
0.00119582
0.00101915
0.00447547
0.00666512
0.00126356
0.00212432
0.0014759
0.00170132
0.00133884
0.0022578
0.00184429
0.0044861
0.0042998
0.00034071
0.000749503
0.000449604
0.00339486
0.00192792
0.00112976
0.00560803
0.00699855
0.00187297
0.00166737
0.00100079
0.0044949
0.00417586
0.00426264
0.00103436
0.00657359
0.00432098
0.00421405
0.000380027
0.00433037
0.00622612
0.0148853
0.00378805
0.00655522
0.00616876
0.00329498
0.00341557
0.00583472
0.000700537
0.00414359
0.00662342
0.00406119
0.00463197
0.00602491
0.00412147
0.00661231
0.000670152
0.00262756
0.00397673
0.00656761
0.00389918
0.00415809
0.00648649
0.005687
0.00506773
0.00354266
0.00395537
0.0022422
0.000637936
0.00615379
0.00108268
0.00506133
0.00162358
0.00220713
0.000881688
0.000513185
0.00523781
0.00115511
0.00659457
0.00134199
0.00102258
0.0040373
0.00434845
0.00402699
0.00567998
0.00299993
0.0028972
0.00108581
0.00356345
0.000345081
0.00137784
0.00134081
0.00204344
0.000614211
0.00315143
0.000570701
0.0146448
0.00130146
0.00133748
0.00196924
0.0018103
0.00255012
0.002063
0.000746624
0.00134599
0.00531444
0.00242576
0.00101387
0.00124255
0.00447105
0.00170942
0.000658514
0.00140171
0.00534857
0.00404263
0.00130636
0.0055671
0.0029487
0.00187318
0.000998627
0.000568908
0.0140375
0.000874826
0.00132473
0.00144499
0.0084364
0.000689813
0.00377406
0.00216185
0.0072487
0.00166597
0.00157436
0.00599095
0.00164245
0.000699278
0.00117647
0.00173229
0.000629718
0.000874152
0.00595737
0.00260644
0.00326385
0.0137235
0.0152364
0.000959202
0.000741891
0.0018401
0.00140726
0.00508704
0.000886186
0.00561623
0.0048111
0.00166674
0.00150404
0.00456645
0.00227649
0.00400473
0.00526345
0.00109151
0.00108037
0.00209363
0.00121262
0.00075595
0.0015811
0.00168816
0.00988978
0.00437911
0.0025662
0.00916586
0.00112813
0.00115583
0.00347532
0.00729855
0.00173737
0.0057807
0.00114483
0.000626931
0.00141031
0.00428579
0.00642139
0.00100307
0.00638378
0.00262536
0.00257084
0.00399197
0.00208798
0.00160011
0.000270976
0.00163913
0.00350185
0.0149202
0.000965589
0.00109012
0.00794354
0.000800126
0.000832029
0.0108217
0.000287619
0.00120214
0.000933192
0.00192454
0.00168479
0.00584214
0.00359416
0.00601441
0.00658651
0.00296709
0.00308069
0.00139611
0.00620712
0.00404267
0.000255821
0.000282257
0.000315496
0.000565226
0.000511178
0.00762747
0.00110913
0.000745976
0.00155377
0.00370878
0.00497045
0.00148353
0.000208743
0.0104394
0.00894508
0.00196073
0.00115007
0.00310548
0.00193634
0.00313589
0.000284699
0.00372817
0.0129044
0.00097598
0.0021462
0.00167099
0.00864419
0.00524545
0.00126566
0.00112603
0.00971044
0.00389425
0.00230297
0.00161036
0.00178544
0.000778679
0.000837181
0.00418036
0.00341643
0.00422278
0.0039298
0.0106318
0.00530827
0.00105187
0.000804743
0.00165212
0.0124786
0.0162559
0.0135079
0.0116706
0.00984489
0.00389146
0.00367433
0.00412893
0.00302304
0.00151539
0.0102044
0.0120308
0.0120531
0.00226008
0.0100677
0.00520047
0.00625027
0.00474457
0.000587929
0.00383472
0.00094134
0.00067472
0.00159002
0.00413012
0.0040868
0.00418572
0.00518114
0.00761294
0.00113623
0.0136645
0.00657027
0.00618512
0.00317682
0.00168988
0.00130405
0.00116274
0.0012043
0.000875511
0.000725312
0.000743826
0.00946186
0.002377
0.000792399
0.00142271
0.00332335
0.00277229
0.00344939
0.00191811
0.00631655
0.00344622
0.00181525
0.00356509
0.00544382
0.00139249
0.00163974
0.00169121
0.00023728
0.00393498
0.000550506
0.000955773
0.0134517
0.00076628
0.000638492
0.00155778
0.00578101
0.00109926
0.00349306
0.00827731
0.00221235
0.00171757
0.00389361
0.0036049
0.00387702
0.00728391
0.00164109
0.0083918
0.00398471
0.00527753
0.0137583
0.00942582
0.0014586
0.00300338
0.000792019
0.00470989
0.0068506
0.00179343
0.0017661
0.000814647
0.000742659
0.00100029
0.00120945
0.00504319
0.000722242
0.000862101
0.00657809
0.00490639
0.0046937
0.00281055
0.00131802
0.00767406
0.00608739
0.00185348
0.00170993
0.00183915
0.00304506
0.0138292
0.00383945
0.0123988
0.00125929
0.00282673
0.00220302
0.00636906
0.0104729
0.0022559
0.00360878
0.0028011
0.00549731
0.00507464
0.00207649
0.000431687
0.000369569
0.00790681
0.00633704
0.00634095
0.00310675
0.00739992
0.00450335
0.000795962
0.00453648
0.00880924
0.00362132
0.00523514
0.00669355
0.00562488
0.00103687
0.000810564
0.00166442
0.0139299
0.0015595
0.00846675
0.00108473
0.000837973
0.0101607
0.00131869
0.00169939
0.00884347
0.0136539
0.0132508
0.0142878
0.000455266
0.00107763
0.00380213
0.00589292
0.0119842
0.0126759
0.00279391
0.00570262
0.0024134
0.000991618
0.00349614
0.00205326
0.0078185
0.00649699
0.0136401
0.00363991
0.00096707
0.00879083
0.00410131
0.00512581
0.0018515
0.00339083
0.00811034
0.0012162
0.00235217
0.00528306
0.00822659
0.00943326
0.00136007
0.00246039
0.0102402
0.00103861
0.000757963
0.00178746
0.00746162
0.0087361
0.00336028
0.00200679
0.000938148
0.00167524
0.00670054
0.00161368
0.00884278
0.00768535
0.00417536
0.0057084
0.00386142
0.0020385
0.00574244
0.0121816
0.00451974
0.00168302
0.00249252
0.000859021
0.00103758
0.00253154
0.00147845
0.00244399
0.013819
0.0133667
0.0137063
0.0102389
0.0133935
0.00193956
0.00599472
0.00149228
0.0100709
0.0209199
0.0113556
0.00833496
0.000739959
0.00161057
0.00713284
0.0103405
0.00970003
0.00604161
0.00270711
0.00430709
0.0016392
0.00277446
0.000681547
0.000280779
0.0111156
0.00147189
0.00574552
0.000710341
0.0089024
0.00350122
0.00255147
0.00632561
0.00603982
0.00116888
0.00851132
0.0113561
0.00290897
0.000514994
0.0105098
0.00530151
0.00331477
0.00161837
0.00214496
0.000855621
0.00360203
0.0142934
0.0122065
0.00225062
0.00707217
0.0105446
0.0011823
0.00455457
0.00326184
0.00303376
0.000520736
0.00400377
0.0109136
0.00410618
0.00344307
0.00318562
0.0143
0.00773214
0.000999769
0.00108278
0.000990785
0.00283373
0.000797951
0.00618528
0.00327101
0.00944039
0.00161237
0.00162719
0.000924862
0.0128602
0.00626373
0.0131088
0.00382621
0.000864239
0.00195668
0.00523896
0.0043079
0.000685293
0.0121447
0.0034162
0.00213881
0.00171604
0.000788906
0.013306
0.00109167
0.0139029
0.00887009
0.000982565
0.00673352
0.000796724
0.0138534
0.0109936
0.00111726
0.00230568
0.00296709
0.0141669
0.000848187
0.00077895
0.000768932
0.0020803
0.000674365
0.00158101
0.00851912
0.00497195
0.00640331
0.00271548
0.00637357
0.00102558
0.0128864
0.00944239
0.00132503
0.000738733
0.00393963
0.00878352
0.000200663
0.000174587
0.00025802
0.0144246
0.00209473
0.0156842
0.00468643
0.00421214
0.00885236
0.0130168
0.00171015
0.00330681
0.00661802
0.00498916
0.00258657
0.00460615
0.0020089
0.0104132
0.00124671
0.000866187
0.000737303
0.00168333
0.00262902
0.00189679
0.00338796
0.00292032
0.00207945
0.0129201
0.00560471
0.00659845
0.0054641
0.00173127
0.00152569
0.00296489
0.00239296
0.0125493
0.00539081
0.013926
0.00642891
0.00107397
0.000839157
0.00167527
0.00346443
0.00128171
0.00660911
0.00206879
0.00114871
0.00254036
0.00951994
0.00372023
0.0137703
0.00187166
0.00928133
0.00355093
0.00310695
0.00170867
0.00594269
0.00378404
0.00373522
0.00115262
0.0041635
0.00609564
0.00162794
0.00112355
0.0141146
0.0118525
0.00620311
0.0054944
0.00605068
0.0222566
0.0150841
0.00166153
0.00212076
0.00351183
0.0019262
0.00369627
0.010434
0.0128424
0.000743935
0.00824064
0.00186486
0.00280744
0.0019483
0.00420764
0.00255646
0.0047207
0.000466687
0.00734563
0.00529812
0.000780833
0.00226168
0.00437583
0.00623953
0.00358956
0.00262758
0.000408945
0.00196477
0.0112212
0.00695011
0.00391546
0.0021973
0.00534944
0.000976959
0.000728064
0.00143266
0.00127852
0.00100204
0.00171786
0.00144634
0.00182967
0.0157095
0.000458508
0.00139016
0.00294753
0.000934934
0.00625504
0.000919885
0.000714112
0.00148943
0.00349743
0.00238082
0.000993178
0.00129947
0.000441833
0.00157981
0.000764572
0.00150579
0.00589521
0.00378383
0.000804555
0.0059479
0.00141786
0.00325429
0.00915473
0.00604206
0.00641286
0.000970986
0.00255385
0.00020188
0.000377689
0.00194881
0.0138658
0.00192727
0.0139728
0.00481395
0.0018483
0.00797641
0.00195752
0.000805383
0.00209828
0.00511772
0.00463354
0.00644876
0.000908253
0.000767447
0.00164957
0.000732029
0.00149999
0.0126955
0.00181246
0.000961527
0.00559599
0.000492119
0.00460382
0.00340609
0.00108499
0.00133772
0.00951418
0.0100464
0.0129841
0.0101705
0.00250055
0.00098027
0.0036655
0.0129791
0.00584051
0.00725907
0.00477452
0.00711561
0.00142764
0.000806507
0.000706235
0.00633188
0.00444743
0.00186506
0.00190882
0.000726356
0.00167332
0.00639769
0.00330136
0.0024536
0.00777552
0.0180701
0.016841
0.0010052
0.01358
0.00121744
0.0116121
0.00386753
0.0065052
0.00172088
0.0052978
0.00192959
0.00630089
0.0133979
0.0126327
0.00124174
0.00129903
0.00101317
0.00276451
0.00031832
0.001416
0.0018444
0.00261557
0.00662662
0.00602849
0.00155288
0.00054658
0.0129934
0.000765517
0.00112856
0.0089393
0.0126647
0.00704399
0.00185772
0.00587949
0.00426956
0.000820436
0.000841099
0.00314086
0.00161017
0.0111904
0.00137471
0.00640689
0.00449085
0.00146733
0.00679928
0.00114035
0.000811209
0.000843348
0.000309251
0.000247485
0.00234156
0.000998298
0.00112709
0.000827576
0.000221358
0.000178036
0.000248074
0.0143773
0.0143733
0.000848102
0.00660973
0.0023596
0.00490517
0.00641522
0.00588672
0.00477522
0.0125934
0.0112663
0.00790953
0.00426996
0.00406355
0.00905371
0.00299589
0.000723082
0.00131818
0.00146999
0.000669442