/*--------------------------------*- C++ -*----------------------------------*\
| =========                 |                                                 |
| \\      /  F ield         | OpenFOAM: The Open Source CFD Toolbox           |
|  \\    /   O peration     | Version:  v1912                                 |
|   \\  /    A nd           | Website:  www.openfoam.com                      |
|    \\/     M anipulation  |                                                 |
\*---------------------------------------------------------------------------*/
FoamFile
{
    version     2.0;
    format      ascii;
    class       volScalarField;
    location    "0.13";
    object      p;
}
// * * * * * * * * * * * * * * * * * * * * * * * * * * * * * * * * * * * * * //

dimensions      [0 2 -2 0 0 0 0];


internalField   nonuniform List<scalar> 
1431
(
97.3144
80.0824
89.685
86.5271
97.4254
93.8277
95.9253
95.2619
92.1701
92.8575
93.52
94.6828
86.2375
100.581
78.7582
92.0516
81.8925
97.733
94.7078
93.6771
97.1228
94.3635
92.6133
101.107
75.8523
94.3793
66.958
100.015
86.5397
96.2193
105.714
109.318
88.8361
94.7931
95.3666
89.0412
97.6202
94.2594
94.472
94.425
104.002
81.539
94.3812
94.1903
87.5434
96.3122
91.4861
112.405
105.62
95.9443
97.1823
93.8977
92.4922
94.4725
94.4312
107.412
93.8476
94.0364
74.6788
97.2557
89.146
93.5274
89.991
95.3452
97.6203
97.8093
89.987
94.2191
96.0652
95.7869
94.6527
94.282
92.4396
94.5293
92.3281
88.4815
97.1796
87.8389
95.6541
69.7887
95.3686
97.9233
88.6411
91.9862
74.1788
97.4426
97.4518
85.9448
101.574
95.3601
96.7206
86.2022
97.6254
93.8946
98.2853
97.2791
90.9392
97.3487
97.1802
105.404
95.2733
94.0305
96.9567
97.296
88.0088
84.6393
95.4313
105.073
105.124
97.316
69.2002
97.7506
95.8501
95.7275
88.4327
97.2493
97.7485
79.294
101.94
87.969
92.2723
94.3264
93.5358
103.428
95.0284
84.7915
102.238
90.8294
96.8515
95.0727
97.5371
104.6
103.663
96.9312
97.666
86.35
92.8134
97.8763
96.1905
104.721
84.3818
97.686
94.4723
105.662
105.197
93.3266
96.9201
104.895
92.9341
106.431
96.0211
98.6854
82.4017
79.9726
95.3216
89.2442
95.3717
96.5885
96.6264
103.407
97.8542
93.4038
96.7104
87.1409
97.1744
66.4197
97.3367
93.1636
96.8234
97.4017
102.38
90.9954
105.23
96.2806
94.9959
96.6973
85.1523
96.8527
97.1396
101.034
95.0746
84.3352
101.961
96.2279
94.7383
103.023
94.3968
80.3537
95.47
95.3374
90.1025
83.6188
97.1706
95.1525
92.045
91.8007
95.422
113.314
90.9068
92.0744
91.2916
114.728
105.611
103.268
95.3731
69.1465
97.4723
95.6391
92.8738
99.8375
95.1497
95.8677
103.542
95.5959
93.7566
94.0492
97.5058
89.8483
86.732
95.3087
95.3565
65.2097
94.6851
91.5533
95.9627
89.3888
104.55
96.8456
99.8445
105.161
97.5435
87.1468
95.6199
93.5544
94.839
95.5234
96.7409
96.8892
95.3277
82.4962
97.3161
104.609
88.4009
85.4977
88.0501
87.1923
94.6012
95.5698
94.7561
101.806
100.239
90.0764
93.9521
115.9
90.2597
96.3312
98.6345
82.8736
94.9524
95.6145
96.1408
86.4814
97.0668
85.7473
95.0989
99.1765
89.6448
94.3838
102.152
85.4043
95.7129
105.995
99.5595
98.8145
95.98
92.3353
96.6569
95.2559
97.098
91.4591
95.0363
82.9992
86.2498
96.7303
91.917
83.244
97.5453
100.26
101.109
96.632
93.1661
95.2436
100.008
94.0781
101.255
98.0591
96.9968
100.812
81.9276
102.18
95.2474
105.611
86.2733
105.959
95.9064
80.9117
95.4748
96.037
95.2494
97.0337
96.261
94.759
91.2225
97.597
85.5291
80.7594
88.8216
84.2552
94.3937
97.4595
81.2063
97.4317
86.0869
81.8919
85.1186
97.0254
95.2562
96.3526
104.333
95.9914
90.1074
85.5194
83.8002
92.689
95.0883
88.2559
98.0445
97.2959
97.5976
86.1626
92.4217
95.3716
96.463
84.8212
102.065
84.7315
95.8546
84.6023
97.0358
96.9448
84.5164
97.7939
96.7024
98.126
84.8112
84.2956
97.5794
84.7467
97.9024
85.2161
98.7311
85.0077
98.2499
97.0648
97.0147
84.557
98.5676
84.6942
89.8154
91.0051
79.8176
83.3931
97.4357
102.149
93.4084
86.3897
88.2814
94.2391
93.2787
97.784
97.912
84.5704
96.9866
97.2057
84.8076
98.4011
84.6905
84.7553
98.0086
97.0427
84.7662
90.0989
103.881
94.1682
97.0517
97.8393
97.0913
95.4969
84.7653
95.4494
85.3002
89.2257
95.5102
97.9881
89.8394
92.365
84.7467
105.531
97.0347
89.4934
92.6669
86.6187
97.1416
89.8009
105.567
129.926
84.5015
87.2522
84.4418
97.0354
83.1571
100.163
90.177
78.7435
103.101
81.6967
76.4906
85.3152
87.694
74.1404
87.2917
81.9469
85.9429
87.5167
83.8356
75.8999
96.481
85.2843
77.7043
94.6514
94.8735
87.4836
86.0135
85.0374
83.5916
88.0454
86.9596
81.3651
83.3034
87.8306
88.5842
91.4825
87.448
92.0091
100.339
93.817
93.5478
92.9904
93.2669
84.5674
88.1001
97.0811
94.3235
92.979
84.9515
84.9447
97.0417
88.7826
93.627
84.6978
89.644
97.9967
105.215
115.273
93.2602
84.2339
90.0592
88.2678
83.898
108.256
103.856
98.0025
102.58
93.2459
105.221
93.8873
92.5608
86.0692
94.9508
81.8361
82.6087
99.268
83.8161
91.8088
103.671
97.892
95.5613
83.8493
95.474
81.0874
92.504
93.8148
82.362
73.7423
74.0094
83.6448
83.7387
87.7556
98.3267
86.4339
86.1574
82.0318
96.8345
88.1561
95.3924
96.6976
87.1436
94.6312
101.356
84.9047
86.7274
79.168
85.3608
96.9978
97.7767
96.319
86.1237
97.1858
80.187
82.4976
105.949
107.132
77.7292
82.3063
92.2568
99.0187
80.8882
79.9214
88.8128
97.2343
73.9884
86.6
87.2182
94.3245
97.8367
84.5961
81.9413
95.1594
89.6365
83.5693
78.9047
96.8396
94.3367
95.6467
84.2903
88.6796
80.6992
86.1591
93.2462
98.6309
88.9619
75.7737
84.3292
84.7468
88.6778
96.6796
90.9669
99.608
91.9456
74.0726
85.424
83.5021
93.3978
83.6108
86.084
96.6248
94.9425
94.4383
75.0307
98.3783
97.6648
95.2503
87.3982
74.5841
83
77.7005
86.9899
94.3368
97.6077
98.4662
94.3705
92.5001
92.0648
95.2306
96.1939
76.1213
96.9297
86.7342
98.7827
82.129
88.1234
85.1426
83.4897
79.2892
79.585
85.142
93.1378
83.9224
82.7717
91.9288
95.4576
87.7178
96.8314
86.5532
93.7808
97.9857
96.207
87.1577
83.512
88.3505
84.0158
82.5943
97.5518
85.8717
88.5557
117.937
84.6658
96.8148
90.885
95.1497
82.8219
97.5893
97.0805
95.1564
81.204
91.7929
83.8462
101.309
93.8403
97.4201
76.9481
84.7353
95.2109
86.2602
90.2813
78.4023
75.1236
90.5376
94.6713
97.5297
96.6467
80.8977
98.1736
93.5555
88.69
91.5176
95.537
94.7213
87.9418
86.9782
74.2909
97.0043
97.1344
96.9867
95.8118
84.1713
90.2654
86.4889
87.572
90.5621
96.6476
95.4231
97.3525
75.9203
106.396
107.22
93.1184
94.0531
86.1172
95.8536
82.0371
97.1896
87.9681
97.5169
92.9847
80.488
100.106
76.4661
88.0358
96.7734
104.841
74.868
75.2435
97.2528
90.45
84.7095
97.1358
85.084
95.5392
102.472
77.1499
84.8051
98.8544
85.5954
97.4332
126.992
93.3821
84.2729
87.8959
103.317
95.3094
96.9869
83.7938
88.9155
85.7575
95.8757
83.254
93.636
103.983
96.4279
95.6622
97.2434
94.9402
91.8775
85.943
96.3427
92.4959
89.0951
102.34
100.139
96.7054
97.6169
102.091
101.867
89.3344
98.0727
96.7753
91.0681
85.7363
96.9414
75.1968
86.9212
106.875
96.5877
97.9904
96.2743
99.8601
100.461
102.914
84.9449
87.0595
100.878
101.645
101.012
96.8304
97.2942
94.7154
95.6556
96.0977
102.527
93.0553
103.858
110.68
103.353
94.8966
91.3346
81.5889
110.312
97.6418
101.369
93.4882
93.4178
96.9757
84.3779
85.2867
99.1979
97.1007
90.9836
89.2776
86.1197
89.3437
97.6997
100.588
87.5428
96.3772
94.5799
97.0046
84.2254
97.7152
102.844
96.613
97.259
103.941
137.715
94.0733
95.4045
96.9304
84.7267
89.0009
94.4909
91.1415
77.0968
105.505
85.349
97.2755
81.022
94.9594
98.0134
91.4345
97.0759
96.1546
94.6867
89.9976
96.5553
74.9197
96.856
96.6314
94.1878
94.1701
94.2447
97.4201
95.5922
100.067
84.748
82.2741
96.0862
91.6582
78.4516
85.8036
96.8942
95.9401
97.0243
84.5866
97.3596
85.8911
88.4169
91.627
94.7718
85.6582
93.1498
96.5136
107.595
97.0622
93.9505
90.3992
106.782
84.0351
80.0932
81.3439
95.2548
86.0693
77.3221
82.4521
96.8716
121.276
96.2874
94.8199
91.6011
95.0746
95.5168
95.0957
96.7433
84.7201
97.9049
84.692
97.0191
93.5159
104.533
97.1418
85.6398
106.576
99.9619
97.07
76.8114
96.9939
104.155
94.0849
94.0356
95.0549
95.4473
96.8921
86.5129
97.6029
96.9657
95.729
97.11
96.7227
87.9949
87.0898
103.321
97.6839
93.1214
93.5833
95.7106
97.2696
88.8233
97.0107
84.3916
95.9002
87.8458
96.2554
96.8677
94.592
96.2144
104.431
105.041
97.4441
97.5316
97.0104
95.6461
97.2573
94.9877
95.5091
98.2497
95.0381
81.43
90.6124
95.8541
89.3123
87.3849
93.484
95.7542
96.999
95.2175
95.1393
98.1461
86.8426
95.7353
87.2863
102.801
85.9416
104.37
93.1544
94.0466
94.089
94.0733
93.9568
94.229
94.7224
85.3174
97.4835
85.7544
95.6375
95.6642
97.0262
96.3147
67.681
97.2624
98.1639
98.2024
83.8714
97.2651
91.0724
89.5024
98.0056
84.0553
96.6364
97.9003
89.986
97.6692
89.3715
87.8956
84.8267
98.0994
82.8867
98.3361
97.3966
92.0638
97.3569
90.8148
86.1499
95.7054
81.6202
82.3856
85.8481
95.9788
95.3562
98.3047
98.0005
97.8824
80.1401
98.2982
91.0092
96.6134
90.2442
81.6771
97.6093
92.7131
97.2914
92.4325
97.3992
95.768
93.9347
78.0295
95.9207
83.9606
87.3394
101.648
72.9844
97.3578
87.1818
94.8892
96.206
93.6182
93.9353
95.6889
93.4287
80.6421
92.8996
96.6174
88.0185
91.9511
95.1243
98.0468
104.786
95.0682
93.4336
85.7899
98.2023
82.5933
77.2976
91.5526
84.8805
88.5119
98.4215
84.2042
80.3644
97.1448
93.0134
104.389
87.0582
93.9579
76.5638
92.4875
85.0173
84.3779
92.8788
94.9599
95.6036
97.7434
89.2956
97.471
97.0393
85.2935
94.9621
84.7417
88.9864
83.5378
102.403
78.1231
84.6758
94.3118
84.1915
86.675
94.5442
94.7669
97.5113
98.135
103.675
109.893
97.7197
87.7397
90.5326
76.8205
110.128
96.3348
93.4514
95.6017
94.4377
83.174
97.2488
94.3974
90.6054
97.2708
95.4814
94.0039
97.1114
92.3136
96.0262
95.9307
97.3517
105.638
95.1282
96.8517
108.583
97.3634
91.0959
104.992
95.5322
81.4115
96.7953
99.1574
95.5553
110.183
93.0212
97.9238
84.1373
96.0681
96.8275
95.1677
91.7533
97.1621
92.4808
73.4194
97.5053
96.0414
76.1968
96.8803
85.387
99.5729
84.827
82.975
97.8824
104.764
97.7557
104.593
75.0845
84.8077
107.458
108.254
84.9918
97.3295
96.0584
97.2551
74.7975
97.5961
95.8919
95.4279
94.1287
93.8655
96.082
96.3102
97.6215
89.6533
82.9694
94.6174
80.4753
90.4982
85.2339
97.032
84.5035
97.4303
93.6254
89.849
96.4136
94.5878
75.4362
97.4883
90.1841
95.6189
87.4987
97.0181
84.8162
79.2534
84.6641
98.313
96.1555
99.2253
102.84
96.3158
77.82
97.2855
96.9838
84.6506
83.9426
104.734
104.753
97.022
84.5803
97.1558
95.3094
93.9824
89.2214
87.7176
93.821
93.5915
110.286
96.7223
83.8033
94.6702
103.353
87.4974
106.452
96.8734
96.5434
91.205
90.9715
83.4034
96.5505
97.008
84.5049
96.2431
98.0114
97.2183
90.6696
85.2741
76.3324
94.6324
91.346
95.9109
76.8281
92.5684
95.4382
95.9519
86.006
97.1702
90.145
86.8312
83.5665
95.2968
95.0613
98.4801
83.2715
94.0954
96.638
96.9095
89.6227
80.5271
84.1306
87.8658
97.4835
82.6325
93.8387
96.9636
86.1631
108.328
92.9862
108.172
94.444
94.16
97.1561
80.9993
97.3852
72.3678
97.2706
86.4905
75.0026
97.6235
84.9259
96.1883
98.1274
91.4336
94.5318
94.1503
93.9162
95.0999
97.3987
85.8282
91.2557
105.075
97.273
86.4547
95.0428
98.0804
91.8147
84.2437
91.2576
90.5573
84.4473
97.7529
86.6415
84.1955
94.9738
89.8095
95.3653
92.6601
83.8354
88.5778
84.5665
93.6099
77.8526
95.9938
96.9399
95.8534
93.6019
94.8719
91.6577
96.5439
95.7497
98.3798
93.6672
81.2962
112.938
119.635
78.8419
91.584
87.4289
89.7268
93.1689
97.9028
96.5418
95.8175
89.3571
84.857
97.9792
93.7756
97.9644
81.4018
86.3616
96.6563
87.0805
95.6269
80.1434
88.3304
90.2319
88.4563
93.7554
95.42
80.5856
85.9259
93.5015
97.7863
96.6115
96.8796
81.2304
96.9288
79.1429
87.6816
97.7818
96.5794
96.7044
97.1304
84.4632
88.1548
84.3635
93.6764
82.7357
88.2103
94.987
96.3992
84.5475
79.3669
96.6065
84.8682
96.2782
84.5089
68.9969
95.0468
87.3074
97.4052
107.376
82.7416
94.4571
80.8177
97.3196
84.7335
99.3052
94.8074
97.7969
84.6392
84.579
93.8362
102.554
84.0175
97.5172
84.8238
97.8608
95.4711
96.9978
74.8683
97.854
84.5453
105.985
85.1224
90.2413
96.0545
96.3954
97.2242
84.832
97.705
96.8599
98.0347
92.8145
100.137
82.2547
97.4132
76.4614
86.6814
111.479
86.228
93.7459
102.132
84.8534
105.038
94.678
98.8356
91.0513
93.9891
82.9156
97.1582
89.4515
97.8541
78.8639
95.9196
85.8906
86.9748
92.2697
86.4892
97.8548
93.7897
98.0585
96.0593
95.8878
94.4234
96.378
89.9967
93.8442
95.2281
95.9477
95.0906
85.4781
95.8861
90.1262
90.7723
96.2282
102.307
90.7165
88.6915
91.6149
91.7008
78.0567
95.3442
96.6622
86.3493
109.634
94.5644
95.0082
101.257
92.9761
92.0748
92.0431
)
;

boundaryField
{
    frontAndBack
    {
        type            empty;
    }
    wallOuter
    {
        type            zeroGradient;
    }
    inlet
    {
        type            zeroGradient;
    }
    outlet
    {
        type            fixedValue;
        value           nonuniform 0();
    }
    wallInner
    {
        type            zeroGradient;
    }
    procBoundary0to1
    {
        type            processor;
        value           nonuniform List<scalar> 
29
(
96.6759
96.4234
94.9668
94.9668
88.4995
88.4995
104.457
95.047
89.3806
94.8121
94.8531
88.9399
95.1374
96.4411
104.527
104.595
88.1572
88.5514
94.8741
95.731
104.145
104.449
89.2465
105.169
104.901
88.5514
105.91
104.458
105.169
)
;
    }
    procBoundary0to2
    {
        type            processor;
        value           nonuniform List<scalar> 
42
(
94.828
95.3496
97.033
96.9588
97.3153
94.828
97.033
96.8364
97.1953
97.1044
97.6301
97.3078
97.6301
97.0382
96.5774
95.242
96.5774
97.0851
97.1316
94.123
94.123
97.0851
97.0589
93.7035
93.7035
97.0195
94.1788
96.9803
94.9707
95.1911
95.1911
96.8992
96.7115
96.3853
96.1328
97.033
96.0903
97.2077
94.9707
96.8364
96.406
96.1826
)
;
    }
}


// ************************************************************************* //
