/*--------------------------------*- C++ -*----------------------------------*\
| =========                 |                                                 |
| \\      /  F ield         | OpenFOAM: The Open Source CFD Toolbox           |
|  \\    /   O peration     | Version:  v1912                                 |
|   \\  /    A nd           | Website:  www.openfoam.com                      |
|    \\/     M anipulation  |                                                 |
\*---------------------------------------------------------------------------*/
FoamFile
{
    version     2.0;
    format      ascii;
    class       volScalarField;
    location    "0.66";
    object      p;
}
// * * * * * * * * * * * * * * * * * * * * * * * * * * * * * * * * * * * * * //

dimensions      [0 2 -2 0 0 0 0];


internalField   nonuniform List<scalar> 
5794
(
95.1636
97.1838
93.7014
97.3056
94.3826
96.6888
92.1617
95.5416
92.1123
95.6234
127.156
91.8413
91.4283
94.8197
97.7093
97.4026
36.004
97.8486
97.7155
97.0263
95.4073
95.8748
91.5366
98.4774
93.3386
45.2435
41.994
99.4688
93.8736
96.8106
95.4644
88.4417
107.725
98.0047
92.3593
91.1078
100.904
93.2993
91.3892
93.7609
94.9651
98.101
118.678
94.3255
97.7222
108.988
89.7742
97.0579
96.5313
93.2736
97.7721
85.5848
92.8114
96.7004
97.3844
111.172
91.6316
94.8954
118.86
40.6572
106.699
97.2292
95.4004
88.1653
107.297
97.1126
93.506
93.47
98.037
97.3047
84.7695
93.7916
20.8217
94.3829
97.4202
99.5391
96.2176
51.042
94.799
97.5094
95.4436
96.8021
94.9238
92.5867
93.8423
97.1179
88.8212
112.926
98.4653
92.4422
116.066
91.4404
95.1003
94.7634
98.0257
84.4885
111.922
95.9972
91.6798
107.597
83.6448
89.3759
118.811
96.3682
97.6604
95.4836
97.2206
128.297
83.9675
95.0793
99.2572
97.8638
77.4201
96.5553
97.2501
93.4441
97.4452
95.8219
105.847
94.9847
95.7031
96.3717
95.6508
99.4497
97.7604
125.254
92.0591
97.0251
87.4205
126.971
96.3607
93.5183
90.2049
55.2298
95.3474
97.6668
118.781
97.2624
97.8907
98.986
94.1348
96.6492
97.8556
97.2712
97.9249
50.4337
96.3538
116.858
94.8112
98.1056
123.524
96.612
95.6503
94.8533
45.5377
89.0224
93.041
94.4131
108.566
94.8822
97.5965
93.6122
98.8696
91.3818
83.9062
85.5586
92.1138
95.6301
99.1557
97.7994
97.3598
85.2404
91.7198
93.689
97.7241
91.24
97.6973
92.8691
98.5363
88.0655
98.259
90.3367
96.2252
109.563
92.6629
44.2565
89.0757
108.551
96.275
89.459
126.886
88.6103
107.737
96.5984
94.0734
95.6513
94.7407
98.91
97.7882
117.037
91.5584
84.7583
97.012
93.7974
89.4076
108.641
96.6648
128.54
89.5159
91.3
95.2449
99.9801
91.2678
93.4131
98.2442
92.459
91.1947
91.0261
127.516
100.382
100.082
89.3597
114.744
95.5517
113.85
40.2451
93.9856
95.127
94.8386
97.5741
92.0707
94.2191
96.8209
84.6314
93.8676
51.2075
71.8849
121.298
91.5047
95.154
96.9737
128.603
95.0094
95.5342
94.516
99.3628
97.7887
95.1092
112.931
96.3586
91.8089
97.0761
41.9911
96.8991
122.2
89.1914
117.73
117.812
128.586
97.7183
119.177
91.5232
94.4377
96.8551
92.2317
96.737
98.0895
124.682
97.7032
108.096
88.9091
95.8466
94.9276
83.8413
101.432
97.6456
96.6309
94.0582
96.8265
90.5609
99.05
107.411
95.0377
98.1276
93.3949
95.9683
90.3614
98.5614
90.376
95.3376
91.3314
92.933
97.4126
96.4873
115.204
53.8225
95.2603
97.4285
93.1007
96.7536
96.8128
83.9386
95.5084
93.9044
94.0907
123.136
96.8757
95.9837
107.396
88.3066
95.3809
107.953
94.4846
96.6063
100.861
102.947
128.253
99.3231
83.8447
94.7106
95.4094
92.2478
95.6787
94.7616
97.498
88.954
93.8935
93.0602
92.8135
127.387
85.7756
119.975
95.1051
108.117
88.7159
95.9338
95.2685
98.9899
96.5355
108.796
98.5167
93.2677
90.6099
91.3318
97.7205
95.4662
111.629
91.9269
86.273
93.5495
90.5785
51.8814
108.199
89.1735
96.8573
40.9442
97.7518
86.7652
91.9023
95.42
128.454
91.5193
119.77
91.8525
95.4319
94.7203
84.7046
109.748
90.3743
96.4496
96.9561
96.8321
94.6505
97.9309
128.205
83.8809
111.372
91.0514
96.0883
96.9004
94.5368
97.0229
101.272
91.144
92.5322
98.4197
93.6
91.883
95.3327
92.5716
95.9408
92.631
97.2527
99.1308
92.0527
94.1832
97.2482
93.3029
97.5989
91.4631
98.3887
92.7739
47.9405
99.3417
97.9227
122.587
92.9647
96.5082
97.2254
112.551
95.673
90.9901
126.336
85.4126
108.345
89.13
96.4689
100.276
84.1536
112.13
91.6803
96.0252
127.886
96.8924
91.3321
93.0006
98.3431
96.5624
96.8758
95.4983
85.4423
101.264
98.0186
78.3066
97.7627
97.3262
96.1182
93.7882
91.2275
92.9472
98.6141
100.885
93.6042
98.1396
94.1609
93.0306
97.4414
97.76
93.2526
94.0104
95.0213
96.9545
86.2621
95.7696
95.9191
96.9863
110.453
87.7171
97.6902
95.329
95.9799
96.9533
93.1463
99.3131
108.515
126.835
47.9574
92.5099
126.645
94.9316
97.0265
81.768
126.303
94.7985
96.3625
109.686
64.2403
99.2516
94.8864
96.9564
93.6147
95.9092
95.7339
94.9117
128.219
126.681
99.6947
94.3
52.2268
95.5693
96.8282
96.4082
95.4958
95.176
92.821
99.0767
97.3485
97.0778
97.6566
121.994
92.8529
63.4091
103.081
88.4211
98.0316
96.9376
96.0867
116.818
126.357
96.9495
83.7047
96.9157
94.5209
97.0266
96.8266
95.3525
93.9292
97.0158
99.8479
49.2753
96.391
97.1989
93.9489
95.9498
126.584
97.2607
95.0361
98.4366
97.0316
96.0254
93.9148
96.8311
46.9791
97.2138
94.6419
93.1127
100.989
117.014
126.667
118.682
95.6626
80.5425
96.9074
93.599
93.8385
97.5129
101.433
97.1999
96.6793
97.0082
96.3004
96.7911
97.7253
94.4852
97.4466
97.9046
93.4898
96.1088
97.1101
95.1794
24.4309
97.4073
123.907
96.6208
94.3974
94.76
97.2473
93.6074
96.8849
96.7291
109.385
85.6859
85.0753
98.4714
48.2815
98.2738
92.9108
92.7263
97.7406
94.6449
94.9934
94.6537
125.988
49.5009
86.9118
112.147
96.6416
95.9397
91.6145
111.525
96.8534
97.453
97.266
92.9528
95.9811
104.015
96.9706
100.599
97.201
93.0427
95.6547
110.181
97.3063
93.2326
96.8888
126.298
56.4871
95.5057
97.3792
96.6887
89.634
87.7496
93.9331
92.9841
97.9358
92.2052
121.597
127.051
115.903
95.5524
96.9985
126.302
125.618
128.394
97.1419
97.3545
97.943
94.6852
129.264
96.5771
95.2621
97.0261
96.6173
96.4762
97.3087
95.5298
67.8728
100.747
94.7237
99.3328
93.6674
119.27
127.711
91.413
117.983
93.0544
97.9767
107.564
97.3657
97.3344
97.2412
94.9403
97.2727
92.6352
97.9755
122.326
49.7696
95.3625
35.8948
98.4373
96.9984
95.9022
95.8203
94.8963
96.9425
98.2546
92.5561
96.1399
90.5036
107.599
121.399
93.523
42.4402
92.7066
96.902
97.4963
92.7114
94.1036
92.7025
95.0026
97.0527
128.784
96.8306
97.6087
95.5269
117.553
95.838
97.1186
96.7739
97.0149
94.4059
102.489
72.9784
97.5881
96.3397
97.3894
128.37
96.9542
95.8144
100
96.7012
91.0648
96.725
117.911
95.2414
120.448
97.2818
95.1642
97.3966
127.664
119.094
96.2315
97.7347
91.0422
126.274
98.8754
102.539
46.1001
124.499
92.3271
128.465
68.8259
117.45
97.1407
91.3703
93.9434
116.493
101.571
127.686
104.066
97.499
70.5648
100.355
122.907
96.4264
93.1454
34.4755
126.414
91.4738
95.5567
113.434
97.9093
96.3694
92.4921
93.4132
95.969
91.3618
109.589
92.677
100.894
97.351
94.6405
96.8975
97.017
97.061
93.3661
102.216
96.1206
97.9408
111.452
94.158
73.9215
95.9839
98.1159
93.3284
95.9
92.3431
114.382
94.194
95.987
92.1238
112.472
94.8708
97.3082
94.6089
97.3363
97.1647
95.036
94.392
96.8369
128.242
48.5642
93.1769
96.1173
97.0474
95.6492
92.9118
128.414
93.8068
95.4761
97.8035
122.358
111.076
91.1445
94.7169
93.6811
96.8853
76.7882
95.6308
60.9618
99.0719
128.336
95.4921
97.5749
97.2631
96.578
127.849
129.046
121.317
107.25
97.6883
94.0991
95.1284
110.081
99.4511
99.1893
91.4601
108.828
127.937
97.1788
96.3017
92.8136
115.763
49.5552
96.592
101.771
96.6603
94.8977
96.1271
91.5046
95.9618
110.883
100.507
97.143
96.4841
95.0123
98.6111
41.6198
95.1755
97.128
93.1173
97.2459
126.361
97.9815
102.491
96.9384
94.3479
108.101
100.956
81.4454
97.3657
92.6644
97.8836
92.408
124.368
124.829
49.6801
93.874
96.9403
97.3504
108.36
95.2594
94.9317
94.6841
104.477
97.6501
77.66
126.303
96.9548
98.3193
97.9406
100.289
123.724
96.6695
57.8133
96.7144
97.1382
60.6217
111.111
99.8983
94.0782
96.6769
127.266
117.287
97.1781
97.1779
91.158
125.178
95.1499
100.865
124.764
93.4966
97.9134
93.3205
93.8562
100.734
94.612
95.4831
96.8688
94.8195
96.6557
97.0564
97.2337
96.5456
122.295
96.9746
100.682
96.7953
93.5499
92.627
96.4687
97.9276
126.395
126.613
58.1385
94.7813
94.6985
100.997
97.0148
53.2579
106.942
87.7669
120.805
96.2551
91.213
98.2305
96.8997
92.7543
108.389
94.3801
94.1767
93.4794
96.6994
97.5296
120.638
97.8862
97.1896
112.763
91.7439
96.0777
97.1049
114.967
97.2295
96.3997
94.6849
96.6678
87.6643
127.914
112.59
100.911
96.1939
80.72
96.9162
95.7144
85.9038
46.2233
101.351
93.2142
104.846
97.3764
96.281
94.0624
97.2879
92.3611
97.9934
97.1926
97.174
95.6961
97.4692
96.7724
97.2682
97.3427
100.681
98.199
101.54
96.88
96.7006
112.794
101.25
95.0995
96.8318
92.8003
97.1105
127.256
103.158
93.2101
97.399
93.4856
126.24
97.361
100.947
95.5973
97.5673
100.938
73.9307
100.171
90.0002
106.162
96.9727
101.626
95.7879
98.1482
113.857
74.6352
97.1544
103.881
97.4274
94.9481
96.9145
97.0044
105.9
109.117
46.7429
82.1919
99.0709
96.834
96.9107
96.2213
90.3941
106.949
117.129
97.2472
95.9073
97.0103
94.4502
101.155
97.6468
99.2513
97.6205
100.574
101.249
102.308
99.2884
97.123
95.1145
94.6532
99.2099
126.389
97.3132
100.841
93.5852
96.8225
95.1461
96.992
93.2374
128.158
96.8617
128.48
97.0308
102.738
128.28
97.3893
93.745
113.291
96.9088
98.5197
93.7992
97.0145
93.6742
92.6186
96.2499
97.0745
92.8046
96.9742
97.0353
100.196
97.3405
96.9686
97.8145
93.1653
91.3989
99.8516
108.996
106.847
92.9025
96.7424
97.0035
97.3127
93.8509
98.3498
95.0326
95.934
97.0515
121.285
96.9827
93.9231
96.7251
126.113
96.7651
86.005
94.5153
96.8773
101.773
94.3228
97.9092
93.1482
97.6534
100.591
101.116
96.6808
101.621
96.8956
96.7923
93.1339
97.027
96.1523
94.0194
98.114
127.374
97.4598
55.662
96.9334
96.3138
97.1999
100.822
97.859
105.003
97.9475
95.8947
99.7462
107.153
88.3445
94.6996
97.0654
98.6201
93.6963
95.9872
94.7608
100.952
97.1515
97.3996
122.895
116.834
95.3733
105.829
104.836
96.3651
97.0012
91.2233
97.0202
32.8461
101.218
96.9593
97.9973
126.295
126.56
97.8486
97.1701
94.9063
94.1734
93.262
97.1279
93.4283
93.5987
94.8446
97.7877
93.543
95.6925
97.2871
93.1805
93.6705
94.7013
97.8985
96.9976
92.966
95.8631
89.6831
93.4787
96.6815
106.755
107.838
102.04
98.7928
100.815
106.617
97.2878
93.9013
98.1394
108.331
103.469
96.9088
95.4017
118.847
95.8782
120.891
95.5826
92.2933
106.354
93.3514
119.359
109.697
96.6803
92.8485
101.093
115.487
97.0199
97.1255
96.9125
55.6879
96.9348
96.8809
92.779
96.3529
97.4692
101.604
95.9514
119.663
97.3807
94.0787
104.196
96.8927
88.1841
96.8221
97.3228
97.8508
92.1701
126.09
127.584
93.5102
101.01
96.9022
97.6334
95.8351
88.4227
107.484
128.806
118.434
101.474
94.6551
96.7089
99.3872
95.9685
100.825
95.1544
91.7544
92.7851
97.3326
97.3178
79.1199
95.5934
53.8042
95.615
96.935
117.63
101.85
99.1489
96.9933
100.354
93.8292
97.7798
97.1317
97.8031
95.9709
96.9277
93.1448
93.6281
99.3397
96.9101
97.5945
94.6862
92.3497
80.6441
93.2658
121.923
100.17
95.3446
97.8733
97.4034
112.563
92.7286
95.8649
95.1605
94.5673
127.759
51.2259
93.6086
96.4985
97.0297
86.3107
97.693
95.5484
94.3812
96.5951
93.3844
93.6944
95.7538
94.9137
98.3342
97.6747
96.6992
100.78
94.6197
97.2865
95.4389
114.316
101.551
127.52
126.976
93.4996
97.4171
95.3502
97.8002
128.286
93.8763
91.8568
96.5749
97.2652
98.1002
96.9176
92.9007
96.1287
92.1046
96.9638
95.6247
95.8232
39.6682
92.9697
35.7498
48.4271
93.6488
100.617
97.3575
95.1928
98.4379
93.7746
95.8214
94.435
97.5382
88.0774
107.212
106.4
96.5026
98.1122
90.2823
88.5308
94.6145
97.5058
95.7072
127.593
96.8581
94.652
96.9746
97.3216
95.6797
116.144
97.948
94.2765
92.8641
97.5459
91.705
93.6623
96.2691
97.341
100.878
94.7424
133.167
127.213
96.7659
40.807
127.828
97.4036
93.7626
97.0576
106.024
97.1098
97.0146
96.1644
93.1646
11.7529
101.589
96.8114
89.3836
113.259
55.8298
117.525
93.3642
95.9922
96.9725
95.7962
97.6509
93.2107
93.9387
96.9414
93.4182
97.7486
97.6155
94.3585
93.238
95.9411
96.9963
97.6733
93.2877
93.79
97.426
93.2203
94.7674
96.1293
97
97.3149
97.9869
92.9653
94.4418
95.5803
97.6742
95.7866
93.2427
94.3266
96.9816
96.0488
96.9433
95.9065
97.5972
93.2884
96.9478
97.8108
95.6433
97.1069
94.2821
93.235
90.8471
91.0224
55.8493
97.2799
97.7092
105.142
95.8008
94.832
96.9743
97.0475
97.6409
96.9103
93.8668
96.1025
50.5419
92.1411
93.8118
93.9187
96.9471
96.951
97.4635
95.6541
96.81
95.3532
97.7954
93.5896
92.9626
97.8673
126.49
95.4122
95.2326
95.4153
91.9339
47.1128
97.0149
92.2481
95.5429
109.72
98.9374
93.5554
93.3094
94.9946
122.618
94.8507
93.8111
93.8129
96.1415
100.36
99.6248
12.5917
97.0799
95.1011
97.2655
97.6784
96.0634
96.9035
142.457
97.3316
96.9246
97.6244
93.9993
93.2276
95.821
93.5699
97.7069
97.0273
95.6788
97.7335
93.2524
94.2927
97.177
93.1934
95.6311
93.2349
94.4654
97.0015
97.5363
96.0574
96.0288
93.425
96.9647
103.511
92.4205
128.668
112.566
94.9282
100.36
94.6155
96.9917
122.452
95.0879
94.592
132.346
96.6356
94.8633
97.3079
96.8373
120.856
95.3057
76.1384
95.1939
98.2735
97.0157
98.9572
101.338
96.9101
99.3289
101.119
97.0215
97.751
93.9985
97.5796
96.9038
96.9505
96.1392
90.1143
97.8803
94.7107
97.1678
94.885
95.7436
97.2645
97.0038
96.092
97.3689
97.4127
98.4813
97.0263
95.8957
101.299
96.1159
90.0363
96.5252
93.8123
84.0681
97.3665
100.944
110.008
96.7293
125.289
92.8321
97.1415
98.0269
93.8537
98.7939
101.214
97.0484
97.875
94.215
93.9085
96.7282
95.3465
94.6426
97.3507
95.5894
94.2168
97.3174
97.5954
94.6278
99.3891
97.7186
98.5033
89.852
95.7059
98.2711
98.5711
97.0181
92.0784
97.0493
93.1936
96.4692
97.4395
119.424
96.6729
92.8865
92.9386
94.6197
95.5752
96.8703
97.3453
93.8178
95.1012
98.0975
115.991
96.2718
98.0944
99.2401
93.4067
121.855
121.229
94.6
96.7094
92.3869
102.787
97.9461
110.961
97.8623
145.009
93.5327
89.8625
107.784
118.515
91.0089
91.0125
94.6448
134.376
94.0155
111.618
92.4349
135.154
95.4257
92.169
30.7348
93.7393
93.6293
95.5849
96.9134
95.6938
93.1753
98.6334
95.6906
97.0718
93.3423
96.3156
95.8723
92.205
92.536
96.2657
92.4523
95.1819
96.9616
96.2566
97.1659
92.7643
93.2224
96.646
92.842
97.9038
97.7847
98.102
92.9812
92.4299
93.322
45.7263
92.3455
95.7003
96.6946
91.5204
97.2946
96.849
94.39
94.7961
97.3766
97.517
97.425
91.6588
94.5781
91.4684
91.2718
96.5364
90.9352
96.5691
94.2568
94.1504
93.0447
123.918
94.5167
93.702
98.0227
93.2578
97.5052
91.4559
97.5283
90.7732
97.9585
97.2853
93.4581
91.0258
96.689
91.2716
97.0151
97.359
111.064
97.3603
90.683
88.7392
92.4742
108.718
84.0699
97.2972
110.721
108.958
89.2428
85.0908
98.7938
97.619
83.7814
107.319
113.305
97.2475
92.1887
110.891
83.7596
109.906
97.5201
97.4823
97.6695
88.3305
92.9058
51.711
97.4398
92.3058
92.6188
97.3132
88.2804
98.8215
93.076
108.779
107.424
91.0635
51.3532
83.3576
97.6664
83.5057
97.2193
91.9927
90.9067
98.6623
110.501
93.3951
50.7075
90.9582
91.984
98.5945
83.5226
47.257
97.758
149.167
84.2162
93.4903
90.979
91.9447
97.8003
95.1804
107.382
88.3538
84.4694
46.9191
46.8397
92.8424
91.4116
93.4827
94.1481
93.5711
98.1979
99.1265
88.1318
95.6556
93.176
97.1041
127.093
90.9475
93.5459
93.9868
91.1505
93.588
97.5716
95.9609
96.8578
93.1118
96.4974
95.8917
97.3839
97.8726
91.0894
92.2441
97.8117
94.454
93.4931
93.4008
98.0115
98.0797
92.5715
91.2535
96.7257
93.8057
97.4433
95.6726
88.5281
107.541
96.074
91.1008
96.5267
93.7139
97.931
98.0469
92.7206
97.5558
98.1973
98.2642
91.6604
93.7585
95.4071
46.1273
97.9733
95.1641
97.757
97.9626
93.6619
94.1948
93.7412
97.8884
97.2997
98.0138
98.2023
97.8649
93.7848
94.3096
97.9436
94.1394
97.9352
97.4586
97.674
97.8145
94.3517
94.2365
94.1983
97.7911
97.9406
96.6099
97.9292
94.3074
96.4921
96.2431
96.9672
93.1809
95.5963
97.8665
88.6905
95.4444
107.614
91.5938
96.421
96.4456
97.9725
97.9276
127.347
87.4197
91.6536
95.0764
97.9877
93.1068
92.6826
97.9039
91.2498
97.9321
99.3351
97.9204
44.503
119.45
98.2259
94.1866
92.0894
97.8292
93.1515
95.5479
96.8787
127.566
91.9162
95.3559
93.4826
99.5094
93.118
95.5676
96.8416
108.564
89.695
94.4839
127.771
88.3991
92.0904
95.4112
93.1908
42.4677
119.31
97.7658
91.6851
94.3094
93.6429
97.9019
94.9122
97.5462
88.6051
90.4744
99.634
93.136
95.5927
96.8563
94.3145
93.5031
98.0933
127.625
89.0635
97.5711
42.7454
47.896
94.1697
119.35
92.7817
96.2142
93.8708
93.8522
97.8349
97.9828
93.1218
89.1741
99.5845
95.5921
91.9008
110.777
93.6792
117.685
92.026
95.3464
97.4674
96.156
96.1908
93.3
93.5176
92.8873
92.9408
97.4984
92.0308
93.2069
96.8331
89.2741
99.5877
93.1354
95.6731
96.8559
91.5133
110.625
94.0418
127.795
92.389
92.1223
93.7158
92.0119
95.3213
94.4501
94.3457
97.6223
45.7998
94.2379
103.626
93.856
99.1122
119.305
98.6474
96.8334
98.094
94.3042
94.3917
92.1937
93.8795
90.6049
97.7222
97.9284
94.1183
103.311
95.4994
97.287
94.0528
92.0276
92.3899
93.6092
97.6023
97.2097
99.6335
93.1966
95.8089
96.9336
95.0246
96.0729
95.1551
96.9076
97.62
98.2839
122.141
96.9819
96.954
91.9868
95.2689
94.1785
97.6742
41.6874
94.1921
96.9605
96.2243
98.7507
100.004
92.3951
93.1819
99.0253
93.6804
96.9094
93.0337
91.7185
94.5246
101.381
97.938
98.1213
97.9847
98.2772
93.6768
92.7656
93.0751
97.6888
92.2491
94.6754
94.5469
95.0832
93.5293
97.9235
98.1728
128.542
97.9215
97.9404
87.8207
91.5941
93.2563
92.9605
90.1629
99.7711
93.4299
93.3904
93.4294
92.4493
98.0932
93.1587
95.8097
96.9146
97.9144
97.9285
97.875
93.5031
112.696
94.2502
98.5836
97.1759
93.9945
97.3494
94.0809
94.5811
97.0162
94.9365
97.1922
92.573
102.012
92.3547
93.7595
100.948
97.3189
121.524
96.998
97.6021
94.2223
127.91
94.4593
92.0275
95.2662
94.8633
88.6353
94.1893
93.1493
97.2913
97.656
92.4337
92.9506
94.8516
92.9571
95.6195
96.8455
126.794
94.1306
93.9506
96.9274
97.0838
94.4742
97.9644
98.033
93.7449
92.1255
96.9553
99.5478
97.927
97.3787
95.0963
91.8855
96.6386
94.096
92.8655
96.7942
93.4851
93.3072
96.704
119.317
120.209
97.281
93.0769
97.1521
92.8397
119.581
97.0798
94.0323
98.1492
94.0655
120.483
93.3728
97.082
90.5573
91.7114
93.2229
93.8147
98.7615
98.0224
93.4418
98.8125
92.6397
99.2469
93.2974
97.0656
127.639
93.4763
97.9313
95.0074
93.7952
94.6607
93.9957
97.5634
95.248
97.0176
93.9071
93.4073
93.0572
92.8331
100.775
93.7794
97.9181
95.1929
95.0903
97.0945
94.0158
93.2175
95.9465
96.9664
95.0819
83.2129
93.4123
93.0595
96.8243
96.2121
91.3381
85.2104
96.5697
98.9155
97.8761
95.0646
93.6463
100.116
93.9714
96.8152
94.4374
94.3482
97.4108
93.1524
104.989
98.5209
130.819
93.0418
93.8615
95.9929
97.3932
93.874
98.8815
93.3352
95.5565
93.7566
122.26
92.5665
112.103
95.0288
97.1535
98.0839
91.69
93.79
95.0194
108.945
94.1982
99.0977
104.56
109.629
98.0733
96.4773
93.7411
93.2704
95.653
97.1574
128.017
88.767
93.3839
89.1615
94.8166
53.9741
97.5966
91.8618
95.1883
93.9594
98.1119
92.7943
84.7169
95.972
97.2199
93.899
97.2679
97.2516
95.1242
97.7381
94.8006
91.8167
45.5019
94.1136
97.1158
113.841
94.8028
85.1652
98.2415
38.8286
105.942
96.3562
97.8427
96.2538
95.3146
127.495
94.1349
93.3182
97.089
135.269
95.0274
93.335
97.707
96.6689
93.7313
97.3568
97.4731
98.0891
95.2284
96.6961
93.8082
120.53
91.5075
94.0787
92.7365
97.0018
95.5963
97.9111
98.1775
96.5429
97.2396
94.2918
139.41
98.0924
94.3746
94.0278
93.7174
94.3303
93.8103
126.366
98.2419
93.3316
98.4051
97.7215
72.5534
126.919
98.1496
98.2875
98.1186
97.7024
102.818
97.5105
94.0624
92.8607
100.842
92.0795
93.7956
92.7092
97.2304
95.4957
103.304
94.3066
93.5409
94.6256
88.6933
93.5262
93.1966
95.96
93.7882
97.3661
94.6959
97.3021
97.0336
96.9447
99.0954
94.6212
94.0872
97.4023
92.6388
96.747
94.8686
104.135
95.4216
91.9117
97.69
94.994
92.936
98.18
98.6461
99.6572
100.733
93.2067
95.9849
96.9586
79.2258
94.0381
96.2331
98.6183
92.5852
115.653
94.8339
91.52
93.3259
104.899
91.7437
95.1217
92.6673
96.2577
97.4494
91.9129
114.061
90.827
93.8231
93.7624
92.7328
94.2926
96.3452
98.1762
94.0062
95.5736
92.1009
112.796
97.2528
97.623
97.0992
93.1791
95.9541
96.96
93.3035
96.9536
93.3082
97.6185
97.2536
97.4983
93.3512
96.9019
93.8057
92.8071
93.7337
94.8232
97.0502
97.1078
97.8071
95.4895
95.6847
93.2081
96.0419
96.9665
135.256
110.748
93.8893
94.2714
103.489
111.724
111.226
97.4005
99.0785
97.0215
93.8717
97.8531
97.364
98.6199
127.166
93.7297
97.4709
94.4139
90.2444
109.227
97.24
95.8491
95.6191
92.6919
97.6794
93.5675
96.4597
91.4172
49.7756
73.1849
97.2253
91.818
96.2821
92.034
99.5636
97.6918
103.922
97.9036
118.921
93.9759
97.2032
94.7898
98.6898
96.0594
97.3925
93.4665
93.8858
93.1783
101.709
97.7603
97.3238
95.8423
126.409
97.3012
93.4953
86.6681
95.2833
126.502
127.485
97.7761
94.1732
96.1219
96.8807
92.6983
93.1559
21.0308
96.6072
121.974
87.2603
98.7288
97.0946
94.9477
126.378
91.0596
93.1353
96.07
96.9709
98.124
117.696
97.1897
91.7762
96.9482
95.3116
97.3627
96.5807
96.2552
93.8052
100.706
126.79
106.137
98.2031
98.4624
96.7856
93.8948
93.7621
97.2436
97.1256
95.2671
97.0014
97.3373
97.1889
97.9742
97.0238
120.45
96.5617
97.0317
100.701
93.4394
44.1592
93.914
96.8705
93.1666
96.052
96.9674
108.243
96.624
93.9175
92.6463
94.7171
97.4778
96.8679
98.0417
97.7685
97.2938
96.684
94.051
95.8761
96.0668
95.57
97.1181
93.5789
93.2773
94.8596
97.863
98.6304
97.2777
94.2905
96.7285
100.749
97.4046
96.0539
93.7062
120.297
122.076
92.8076
97.1494
97.6936
97.7399
98.3084
93.3091
94.4968
94.167
97.8047
97.1103
103.625
98.5556
93.3078
93.6936
98.3591
95.0124
96.9077
88.9344
98.7935
94.0514
113.529
96.8731
93.532
97.2552
97.3332
93.3407
91.9786
93.6522
96.7849
93.3042
96.5916
98.5405
83.6911
103.166
97.833
95.4517
99.0081
93.7801
98.5568
96.4668
93.8478
101.023
100.76
98.3716
93.4811
98.1309
97.0704
96.4062
93.8061
97.1588
93.3698
96.9985
96.1012
96.8943
96.9796
97.7626
97.0704
93.9557
94.545
101.311
92.986
96.196
97.1283
98.3816
98.0822
97.2528
94.0194
98.6347
93.8121
96.5972
95.0354
126.934
90.8437
38.0783
94.5762
95.7441
93.9399
94.6975
93.7886
96.1033
96.9401
97.2812
96.1223
96.8775
100.937
94.6344
118.295
97.0324
97.0599
94.0281
93.4382
119.202
96.3582
96.901
97.6787
96.3352
118.605
92.4368
94.7736
97.057
92.4884
128.334
99.7396
92.9679
97.4616
109.25
83.9819
94.6237
93.5628
97.2425
97.3358
93.6358
93
96.1932
97.1135
93.7825
97.0529
93.373
93.0672
94.3001
98.0217
97.5401
95.731
93.8659
94.3719
97.0376
96.8454
97.0668
93.2768
93.7874
95.8712
98.8788
89.7628
97.1724
117.485
93.3175
95.2982
92.8391
35.3167
94.8208
123.86
97.4799
93.2923
93.3677
97.1255
98.2332
97.0076
93.9309
97.0307
96.0083
97.4324
97.4279
119.895
96.2468
88.8938
97.2161
95.1093
128.778
97.4931
92.5542
97.4846
95.8798
93.8767
98.6557
98.2199
95.9156
93.0633
96.0986
96.9311
96.0659
93.4252
96.9297
97.9298
96.2915
84.3364
92.6667
91.8472
95.2097
56.3569
101.046
109.802
94.9033
93.3021
126.955
70.1675
113.454
98.2698
93.0966
96.0934
96.9314
98.8356
104.983
92.7395
95.6325
96.8597
96.9627
99.5159
121.018
132.612
91.1303
113.065
99.2424
126.208
96.912
93.7116
96.4561
95.6045
91.7304
98.2031
112.559
98.5106
97.0505
97.9023
96.9789
126.799
93.926
113.925
94.1848
94.83
95.2938
92.0427
97.7166
97.7471
95.8453
93.1706
96.9059
97.3392
94.082
97.5225
93.567
96.771
93.5973
97.8938
95.0687
101.687
39.6211
126.404
96.9868
97.1176
97.3328
98.5662
97.6598
96.4389
93.721
96.4335
98.556
93.6989
94.6535
111.893
95.435
90.5184
110.753
95.0636
97.0754
97.3414
101.523
34.5275
94.9312
88.2076
107.27
93.2024
94.6618
102.469
100.594
94.695
93.0647
96.258
92.8362
128.547
97.0062
93.4774
96.9975
102.115
43.2978
94.5959
98.1951
93.6899
98.7842
93.3579
91.163
97
110.905
94.5917
96.9857
98.0485
118.583
96.5343
97.9761
95.0098
95.3954
97.162
95.2312
96.9726
96.9848
97.1699
96.3343
110.364
96.1827
109.765
92.8166
93.9396
96.33
93.8315
128.163
97.8038
97.429
103.995
114.375
95.1032
94.9139
94.0895
96.9986
95.3232
92.6538
125.64
93.8281
95.9892
97.6954
94.2543
95.32
124.963
126.189
96.8925
93.7998
96.7331
97.0447
97.1548
93.9932
91.5725
95.0794
96.6235
96.8054
97.2627
97.2925
97.3735
80.4263
93.3015
126.022
96.2121
95.5424
98.6458
93.6614
93.0509
120.715
97.4546
97.1379
118.838
96.7808
115.645
109.601
96.7314
125.476
98.3783
126.25
95.6344
97.0521
95.1145
103.379
95.7981
107.1
91.0028
102.187
27.7433
97.2263
124.619
93.0544
105.738
93.0912
106.82
95.608
125.259
126.115
95.3324
111.106
94.6904
92.6477
96.2512
97.2845
93.278
98.6794
107.332
96.9313
109.12
107.595
96.6734
97.0646
94.5161
127.422
92.3875
93.5321
97.3488
100.836
97.5117
101.087
101.44
97.0095
110.908
94.9031
98.5222
92.3965
91.9877
97.0133
109.288
126.567
97.1146
114.59
106.072
91.226
97.198
97.1803
97.3786
96.7851
97.3668
126.301
100.5
92.1729
95.1658
91.7985
114.111
91.1589
96.9098
95.5663
92.4844
92.8743
98.4615
94.9055
93.6559
98.3936
93.9343
96.6378
98.1866
95.6041
97.5413
113.084
102.932
94.7363
97.3656
97.3916
95.724
108.389
93.1245
96.1478
95.2115
97.2253
94.7501
91.1838
92.4668
48.3571
96.4118
96.946
101.452
96.0258
93.2345
96.9688
125.985
98.3651
119.1
96.8061
97.7743
84.5705
93.547
97.3253
99.387
95.7897
104.805
94.4285
113.803
95.2963
96.1022
96.9065
93.7363
99.1525
94.0538
55.8616
54.9544
93.6055
99.0819
93.9955
94.9115
96.9459
96.1641
92.4566
97.5035
96.5371
93.1129
92.5254
92.7742
93.9077
91.8194
95.3546
128.515
93.5483
95.9447
90.2828
94.0494
106.784
98.6657
93.7881
96.1168
94.6024
115.37
95.4973
95.43
96.1755
91.4967
44.9152
96.0732
97.4109
110.047
126.909
97.2485
94.9006
97.1903
96.262
95.5796
94.9318
97.0709
94.6117
97.0252
94.252
95.9137
93.1981
96.9272
93.8579
97.464
93.486
111.599
96.6215
93.5557
98.3087
97.0588
94.8302
95.3721
96.6836
107.235
88.206
94.4639
93.4197
96.4569
97.6692
94.4204
91.8717
90.9803
103.052
99.3701
113.891
123.423
144.184
95.1085
94.978
128.745
91.7425
97.3024
97.7097
123.3
98.0845
100.169
10.3508
101.183
95.7442
95.4363
96.7793
96.0796
96.9689
93.2329
97.0611
96.0006
89.2809
97.6595
95.1869
100.245
93.8877
128.245
93.303
114.109
91.6224
97.0876
92.9813
96.0669
96.932
96.6467
91.0076
95.9682
93.573
94.1218
34.866
115.773
94.7126
97.2341
97.533
97.288
92.6319
97.994
98.7278
89.4905
97.7433
97.7007
97.2543
97.9554
95.1853
93.2944
94.1831
98.1448
92.8291
119.983
96.9367
95.4238
97.4064
96.805
101.558
108.142
98.9112
100.365
95.929
91.0317
94.3635
96.6984
91.2306
96.5212
98.4292
94.9923
93.3193
96.121
128.369
96.1153
96.8988
127.898
97.9059
94.7889
97.5654
83.3795
102.296
102.069
96.9962
99.5015
97.0312
99.6048
99.7356
102.996
101.144
98.0108
98.523
94.8053
97.3684
93.5611
105.943
97.0595
99.1607
97.2053
93.7007
93.6837
101.777
98.2148
98.4937
93.0958
96.5549
97.5348
93.2858
96.93
97.4464
99.3739
49.2772
92.8531
96.1023
96.9119
93.3579
97.7645
95.8224
93.1846
96.8787
96.0629
93.1272
96.9301
124.944
97.5925
97.2483
94.9836
94.7004
93.6449
100.486
92.7619
93.8935
95.9808
93.2277
95.7301
96.8653
95.4347
116.65
113.5
94.3039
94.151
95.0888
97.4006
97.1833
97.9096
92.859
126.968
102.225
91.3847
117.886
96.4426
94.9203
91.629
98.4245
98.535
83.322
96.9741
102.725
92.2479
96.808
94.9053
99.4771
94.9274
88.4996
130.454
92.5431
95.2064
97.7262
96.8946
96.8317
116.171
125.782
98.2546
99.0854
92.6594
111.182
94.7697
91.4839
97.649
97.592
93.1382
93.0503
97.3429
91.6032
93.6078
97.3245
94.2416
88.1684
107.243
97.2578
97.1472
93.2502
95.5182
92.113
103.328
95.9971
92.2716
97.155
93.6686
97.7906
96.9939
100.782
93.7786
18.2102
99.1198
93.5211
93.2729
96.7962
93.26
97.611
91.258
97.7468
95.8831
97.0325
97.1892
97.8939
125.364
94.441
126.784
97.3074
93.9164
96.7948
98.1076
95.0758
93.1059
53.5284
119.221
100.994
96.9759
95.0411
93.4406
85.5669
89.4701
94.7168
96.7513
101.038
100.685
94.5502
94.8917
45.4803
96.9483
93.1806
96.0982
95.0845
91.6543
94.1834
97.3495
93.2234
52.1681
97.0131
93.6075
94.8723
97.0034
95.3537
92.0114
92.1605
96.7847
99.3731
111.574
96.9234
96.8425
96.4807
97.5689
91.8411
91.2319
97.0851
128.719
119.809
98.1312
83.3489
94.1146
96.0833
93.1128
96.9226
98.9295
119.076
96.5631
102.197
95.0068
95.7193
93.7603
97.0577
100.941
93.6113
113.669
95.9381
90.8312
95.6999
96.8306
128.384
97.2958
92.2717
92.5331
97.9207
97.3896
88.3626
43.6754
110.296
93.4177
97.9213
91.7623
93.8152
97.0608
93.2408
96.431
97.2556
96.8813
97.001
96.1896
127.921
95.3815
94.9506
94.2102
98.0393
51.6929
93.3158
91.7253
111.778
95.8224
98.7371
97.5264
100.953
92.4385
96.8869
96.1382
92.5238
97.423
93.6191
92.0281
125.975
97.8011
98.626
96.9197
95.6673
92.7734
91.0735
99.4584
99.2662
92.4044
97.0793
97.5527
101.268
95.2135
97.1216
117.879
68.6513
99.2454
53.838
97.2435
93.7118
86.6533
85.3085
96.8964
98.1746
78.1236
98.0684
119.922
96.5235
90.4818
113.953
125.041
118.019
99.4603
98.1307
95.1977
94.1998
91.4352
84.2771
91.1999
93.1151
98.6837
108.525
108.117
102.712
91.535
98.2995
91.7998
101.184
97.1635
96.7726
94.7556
96.7156
95.1581
125.908
91.3185
91.3699
91.4996
101.108
92.0967
93.7698
90.8679
97.4082
95.7806
93.146
96.8732
95.1363
91.6279
99.0212
94.122
96.7851
88.5577
92.4959
93.7819
93.8051
95.1224
109.263
97.835
94.2537
94.3482
97.8668
114.977
122.993
97.9483
96.6076
117.126
95.1942
102.901
97.3046
95.1407
95.6166
96.8109
96.3618
97.2618
97.9333
93.7677
97.1361
97.5185
127.451
98.6224
96.6545
95.2389
96.976
93.8744
96.7752
88.0022
94.6228
97.0416
100.6
121.995
93.8643
92.4514
95.0473
91.5432
98.9071
94.2232
98.3264
98.5161
97.7669
97.3706
94.3787
97.7854
51.0929
93.7412
126.493
98.5348
97.775
98.4913
124.519
93.9014
52.776
101.336
97.2074
97.2586
97.3998
96.6617
97.1385
96.2813
92.8364
97.3508
92.3685
96.2555
97.036
93.8559
98.3537
101.397
127.086
98.3023
94.8062
95.403
97.9211
97.2841
93.6097
107.815
88.6272
93.5286
100.767
94.312
99.2284
94.9976
100.785
119.497
96.672
97.6556
97.6237
92.1579
128.444
90.3368
97.2948
90.774
92.0538
97.1441
98.0174
97.7801
127.048
102.583
96.993
96.2225
92.4822
101.188
96.9283
94.9741
91.5322
98.2481
96.8036
95.5548
45.0375
97.5588
94.4707
111.699
128.28
93.6386
94.9572
96.5766
126.497
96.0335
99.2149
93.5033
36.1845
57.874
98.3121
47.6384
96.9433
35.1628
92.5289
111.975
94.3697
93.169
97.2327
97.2138
97.1826
97.1966
96.597
96.5021
96.6901
96.7803
97.2547
96.869
63.4191
97.7076
97.3394
96.6842
96.9724
56.7294
98.0651
95.627
92.9476
95.2219
94.1687
91.9954
69.3195
49.3044
91.49
79.0897
74.3031
91.6912
98.1399
93.9808
94.807
94.393
93.6776
94.7559
96.9581
95.0844
96.4005
97.2794
94.7287
94.32
95.3424
94.2558
95.1785
96.7855
113.375
114.603
97.9121
98.4225
95.7381
92.1393
94.765
100.613
113.086
117.281
106.367
103.536
121.137
125.065
129.026
127.829
93.8312
97.636