/*--------------------------------*- C++ -*----------------------------------*\
| =========                 |                                                 |
| \\      /  F ield         | OpenFOAM: The Open Source CFD Toolbox           |
|  \\    /   O peration     | Version:  v1912                                 |
|   \\  /    A nd           | Website:  www.openfoam.com                      |
|    \\/     M anipulation  |                                                 |
\*---------------------------------------------------------------------------*/
FoamFile
{
    version     2.0;
    format      ascii;
    class       volVectorField;
    location    "0.66";
    object      U;
}
// * * * * * * * * * * * * * * * * * * * * * * * * * * * * * * * * * * * * * //

dimensions      [0 1 -1 0 0 0 0];


internalField   nonuniform List<vector> 
5794
(
(0.00211069 -0.473623 -3.43641e-17)
(-0.134802 1.13683 0)
(0.0640908 -0.947933 -1.41605e-16)
(0.0549617 2.57106 1.19412e-16)
(1.57607 1.98664 2.79549e-17)
(-0.087493 0.17444 -1.49389e-16)
(0.767641 -0.217949 -2.4672e-16)
(-0.154052 -0.190157 0)
(6.08118 0.905798 1.00522e-16)
(1.16706 -0.131997 2.13129e-16)
(4.63593 -0.11048 -3.37223e-19)
(-2.69644 0.0411357 0)
(-2.0427 -0.385684 5.49763e-16)
(0.823942 6.37963 1.8794e-16)
(0.938937 0.153661 5.03654e-16)
(-0.42347 -0.40295 -1.70695e-16)
(0.783084 0.0561116 4.72055e-17)
(0.335343 6.45035 1.33462e-16)
(0.817997 0.095762 4.8044e-16)
(0.0768821 1.61475 1.46772e-16)
(-2.94566 1.82969 -4.83375e-17)
(-0.116505 -0.0723284 -1.91891e-16)
(1.63485 0.0127274 3.26098e-16)
(0.974946 -0.0156722 -6.40063e-16)
(1.98845 0.302364 -4.07002e-16)
(2.77102 10.901 2.08981e-17)
(5.52868 -0.571587 0)
(-0.0385876 1.70768 -1.58567e-16)
(-0.229833 9.25047 -3.93318e-17)
(1.09949 -0.087862 2.7497e-16)
(-1.6424 -0.543325 -5.97078e-16)
(-1.90539 0.0614176 -5.23151e-16)
(-2.10315 0.113938 -9.25333e-16)
(0.421501 -0.433949 4.67611e-16)
(-1.60364 0.380039 -1.971e-16)
(-1.08795 0.176817 2.10073e-16)
(9.788 0.614601 -2.23864e-16)
(3.23632 -0.33089 0)
(2.35206 -0.452465 1.49831e-16)
(-0.310714 4.08556 0)
(-0.485033 3.73168 -1.02168e-16)
(0.0132983 1.70793 1.3813e-16)
(7.44614 0.113965 -8.97126e-19)
(0.720296 2.97696 0)
(1.00721 0.135912 -4.46016e-16)
(4.89334 -0.167008 1.36624e-16)
(4.39211 -0.147307 -2.39183e-16)
(-0.7629 -0.664663 0)
(0.33225 -0.234838 8.56359e-16)
(0.609802 -0.352685 7.16445e-17)
(-0.624678 0.123191 -1.76164e-16)
(6.31071 -0.212719 -1.80151e-16)
(-0.809785 0.658066 0)
(-0.0657935 -0.20572 1.84195e-16)
(-0.0636051 -0.0593034 1.10816e-17)
(5.15347 -0.492071 0)
(4.67205 -0.335309 -1.89729e-16)
(-2.19641 -0.361978 1.54698e-16)
(8.48702 0.0698765 0)
(4.21112 10.2549 -7.18634e-19)
(9.09682 0.49545 1.96589e-18)
(0.575334 1.07543 -1.26978e-16)
(-0.951995 -1.2914 -1.59434e-16)
(-0.965342 0.0399641 2.17045e-16)
(-1.20217 0.140238 0)
(0.87406 0.257319 -2.72525e-18)
(0.280566 0.648687 -2.62052e-16)
(-0.147284 3.79823 0)
(0.479914 4.86607 -1.53851e-16)
(-0.0340852 0.529477 -4.25989e-21)
(4.91978 -0.485581 1.39846e-16)
(0.430057 2.10069 -3.29603e-16)
(11.5591 2.03448 -3.59429e-18)
(1.82155 0.284832 0)
(0.400941 5.97838 1.36782e-16)
(0.139114 0.717045 1.21607e-19)
(0.864446 -0.189931 1.35351e-16)
(1.51486 10.7431 -2.15271e-17)
(0.834379 2.72473 3.81573e-17)
(-0.445934 -0.00797818 7.63269e-17)
(-0.0346947 -0.441428 -2.30945e-17)
(-0.113624 1.14728 -1.5617e-16)
(-0.581025 2.63634 3.13248e-19)
(1.2829 -1.42421 -1.01868e-16)
(2.75587 -1.41854 -3.35503e-16)
(-0.128937 4.63897 -4.68603e-17)
(0.220255 6.24053 3.17024e-17)
(0.0409555 5.21227 -2.57599e-17)
(0.963221 0.262828 -1.73825e-16)
(0.774344 0.504987 -5.4366e-17)
(0.897028 5.52884 -8.21667e-17)
(0.126391 6.76494 -8.81532e-17)
(-0.130081 7.17031 1.43611e-16)
(0.115245 7.61834 5.94246e-17)
(-0.00311981 5.79974 3.83479e-17)
(-2.13912 0.0518347 5.46035e-18)
(0.0118138 6.12576 -5.7485e-17)
(-0.135016 6.87062 -1.55904e-17)
(-0.0191396 6.79676 0)
(8.80687 0.545756 -3.18262e-17)
(1.67817 3.18509 -1.30433e-16)
(-1.0696 0.162946 -4.37668e-16)
(8.36007 0.148164 7.44867e-17)
(0.806854 5.25708 -2.60074e-16)
(1.24648 0.350957 0)
(-0.665999 5.91364 0)
(-0.0169702 1.27936 0)
(-0.263793 0.0750938 -2.84731e-16)
(-1.35546 0.576415 -1.25944e-16)
(0.804826 2.24638 -1.12094e-16)
(0.299628 -0.0480062 -1.77779e-19)
(0.575217 0.0397382 0)
(-1.55306 4.65735 1.21819e-16)
(-0.052691 -0.0594609 1.65839e-16)
(0.0908761 5.80121 0)
(-0.147432 7.72999 0)
(0.343309 0.244147 -3.67171e-16)
(-0.536384 7.96885 -7.96655e-20)
(9.35548 0.445375 -2.34215e-20)
(10.8522 0.590726 6.30695e-18)
(-0.725776 7.85464 1.14544e-16)
(0.718234 -0.0265405 0)
(-1.31007 0.1675 0)
(-0.00668469 1.12253 -2.10416e-16)
(0.896598 0.0531462 2.32165e-16)
(4.67358 2.31705 5.19178e-17)
(1.09121 6.00201 0)
(-0.0557438 0.362193 9.35933e-17)
(6.55455 -0.584315 1.18556e-16)
(-0.419008 -0.0482757 1.72626e-16)
(-1.36347 -1.01552 2.9661e-16)
(0.0691317 -0.839909 2.27518e-16)
(0.415112 1.35612 2.296e-17)
(1.07612 10.4196 -6.50022e-17)
(-0.699625 6.80373 1.41518e-16)
(0.997502 0.197966 0)
(4.16345 -0.203906 9.60186e-17)
(0.664682 0.951434 -1.85017e-16)
(-0.604975 0.197454 1.94228e-16)
(0.650456 -0.133718 0)
(1.37384 -0.668262 -5.05957e-16)
(0.904398 2.41043 0)
(0.891615 0.0887599 0)
(0.761807 2.82328 2.85627e-16)
(-0.634079 0.209473 2.12891e-16)
(1.56441 -0.181073 1.55033e-17)
(-0.785774 0.740068 2.54261e-16)
(7.6316 0.283778 2.42399e-16)
(0.960931 1.23371 -1.99063e-18)
(0.381886 0.677245 4.91311e-16)
(7.28754 -0.183821 -1.77836e-16)
(0.697352 -0.0442012 3.20541e-16)
(-0.667224 6.1331 0)
(-0.997829 0.456217 2.04093e-16)
(3.52459 -0.735937 0)
(4.76949 0.141681 0)
(1.32072 -0.615461 -2.85565e-16)
(2.00435 -0.0234531 4.02981e-16)
(5.27737 0.179394 -2.70782e-16)
(2.39373 -0.624921 -1.3031e-16)
(0.528125 -0.0109691 4.299e-16)
(-1.97942 -0.155948 -3.59555e-16)
(-0.0714589 0.0068164 0)
(-1.52831 -0.129946 -1.47872e-16)
(-2.95092 0.0229125 -3.09731e-16)
(-3.09792 -0.0783325 1.68325e-16)
(-0.925823 -0.233612 1.37818e-18)
(-0.823842 -0.331684 -4.27413e-18)
(0.210923 -0.0631776 0)
(0.383975 0.0132561 1.04063e-18)
(0.710372 0.09884 0)
(-1.82719 0.41046 -1.18562e-16)
(-1.22393 0.256068 0)
(-1.49416 0.411754 1.02901e-16)
(-0.622135 -0.33774 4.57571e-16)
(1.6612 0.027886 0)
(0.436654 0.0437204 -2.61478e-16)
(2.16536 0.0696452 -2.36988e-16)
(0.702716 -0.0640263 -9.66631e-17)
(6.48256 0.128408 6.88263e-18)
(0.254989 -0.446714 -6.22389e-18)
(-1.41735 -0.317067 0)
(0.722841 -0.30122 0)
(-1.86723 -0.320976 1.2847e-16)
(1.17474 -0.243227 0)
(-0.837696 -0.759266 6.31855e-17)
(-1.29076 0.18302 -1.53992e-16)
(-1.21303 0.293797 -1.03795e-16)
(0.782899 -0.16899 1.38378e-16)
(-1.09907 0.0101411 3.55192e-16)
(4.5413 -0.0734035 -3.52138e-16)
(-2.02725 -0.102535 3.86785e-16)
(-2.24504 -0.0838352 6.15882e-16)
(-1.00142 -0.320191 6.27081e-16)
(-0.359985 -0.343193 -1.07765e-16)
(-2.01515 -0.571236 -4.7884e-16)
(0.993534 -0.459043 -2.32061e-17)
(0.395385 -0.0285913 -2.01988e-16)
(0.791198 0.042408 -3.13846e-16)
(6.46168 -0.0466089 1.24519e-16)
(1.35515 -0.147225 -2.22819e-17)
(6.17243 0.0200324 0)
(-0.223322 -0.472087 0)
(-0.299964 -0.354251 1.151e-17)
(4.31867 0.0127534 -5.77814e-17)
(4.82494 0.0221821 0)
(-0.246243 -0.16592 1.28339e-17)
(0.354524 -0.000515827 2.07993e-19)
(4.47302 1.16383 -6.29344e-18)
(2.10496 8.75039 1.27744e-16)
(0.237767 0.29746 1.41005e-16)
(9.77078 -0.00718586 0)
(-1.15266 -0.239633 -1.13697e-16)
(-1.48996 -0.598197 1.68517e-16)
(1.03075 -0.267411 0)
(0.800945 0.493801 7.88369e-16)
(0.515723 0.20441 -1.90417e-16)
(1.44069 1.87964 9.37825e-17)
(4.04471 -0.196272 1.36995e-16)
(1.39645 5.61677 -1.79792e-16)
(9.6881 -0.0035006 0)
(1.62437 0.40773 2.40168e-16)
(-0.343845 1.97064 0)
(-0.16902 5.1589 2.90541e-17)
(5.00378 0.121518 1.37213e-16)
(11.6458 0.698889 2.12022e-18)
(0.0658238 -0.0598581 -8.5131e-17)
(1.05676 -0.0433116 -1.14356e-16)
(-0.804775 -0.0568637 0)
(0.843668 0.278084 -3.09722e-16)
(-1.21234 0.483072 0)
(-1.50596 0.688085 -6.64352e-17)
(-0.402146 0.0638009 -1.2051e-16)
(-1.01781 0.722244 1.57824e-16)
(2.31509 0.54707 1.62738e-16)
(10.2118 0.203802 5.50929e-18)
(7.72028 1.03999 1.9765e-18)
(7.20157 0.50033 2.94911e-17)
(-2.08951 0.0116989 -1.63759e-16)
(-0.0325262 -0.196676 -4.9387e-16)
(-0.306075 0.869912 0)
(1.17923 0.855078 1.19968e-15)
(1.51568 4.65203 2.26044e-16)
(-0.566115 0.67798 -2.7982e-16)
(-1.50865 1.19175 2.68585e-16)
(0.379328 -0.0003238 3.44558e-16)
(1.03636 0.125555 -1.53902e-16)
(0.641521 0.845854 9.28541e-18)
(-0.11725 5.90314 0)
(-0.0279641 5.34498 0)
(-0.0429651 5.54018 0)
(0.719768 0.210243 2.90006e-17)
(2.11967 -0.64327 -7.33155e-17)
(-0.0961601 -0.0854551 6.91461e-20)
(7.30913 1.17742 -5.89409e-17)
(4.2965 2.52654 -1.02067e-17)
(8.27271 0.216539 -1.53111e-16)
(9.0415 0.536511 1.62302e-16)
(0.0838231 -0.309797 3.0009e-16)
(0.825898 0.0320863 0)
(5.81632 -0.0619536 -1.15997e-16)
(-1.04332 -0.344227 9.9317e-17)
(-1.10882 -0.814625 -9.91389e-17)
(1.1942 -0.293738 0)
(-2.08628 -0.078479 0)
(-0.69631 0.1074 -6.90031e-19)
(0.356928 1.49181 1.67754e-16)
(3.71453 0.760141 0)
(0.661997 -0.00262744 -7.46927e-16)
(4.41088 0.0152976 -1.27286e-16)
(4.00881 -0.000166781 0)
(1.06345 -0.895196 -2.80222e-16)
(0.47774 1.08769 -5.41947e-16)
(5.15786 -0.333824 -1.68583e-16)
(9.53179 0.0899721 3.74995e-17)
(0.602012 0.156738 3.2656e-16)
(-0.0189761 -0.225953 -1.98026e-16)
(1.44551 -0.120723 -8.979e-17)
(0.579259 0.217561 -1.88386e-16)
(-1.50613 0.913931 -2.62902e-16)
(0.400333 -0.00977287 4.14178e-16)
(0.920568 3.32274 2.64387e-16)
(-0.394369 3.52146 1.06723e-16)
(0.269014 1.78083 -3.67969e-16)
(-0.283038 5.15288 4.99591e-17)
(-0.152198 5.10176 1.21297e-16)
(0.142048 5.74531 1.3403e-17)
(-0.00712171 5.42458 0)
(0.631894 5.89496 4.23551e-17)
(-0.733288 8.00009 0)
(-0.892986 0.416649 -1.74219e-17)
(-1.28101 0.77559 -1.32192e-16)
(0.48637 -0.263798 2.56082e-18)
(0.36449 -0.144008 0)
(8.07429 1.7113 0)
(1.27664 7.65111 6.74683e-18)
(-0.287451 2.06623 7.39568e-17)
(0.427275 1.83731 4.56524e-20)
(-0.226873 3.72837 -2.41081e-16)
(0.992123 -0.328238 -1.75656e-16)
(0.0192873 0.761686 1.18062e-16)
(-0.509982 6.22886 0)
(0.0293257 -0.457179 -8.93333e-16)
(0.702189 1.9163 0)
(1.18917 1.81324 -1.46696e-16)
(3.50392 0.250852 1.68737e-18)
(0.533821 0.295081 -2.59711e-16)
(0.559625 3.37132 2.91986e-16)
(5.05553 0.104165 2.51163e-16)
(4.56446 0.0815519 0)
(1.54956 -0.329412 -6.07018e-16)
(-0.154694 0.49756 -3.14658e-16)
(1.47205 7.57079 -1.42859e-16)
(0.00467037 -0.174726 -9.23904e-17)
(10.5984 0.1199 0)
(10.0146 0.306336 -1.87579e-17)
(-0.0344031 0.068368 -1.01692e-16)
(-0.0650101 2.46293 -2.91912e-16)
(-2.03439 0.381947 -2.25468e-16)
(-0.115643 6.67589 -4.4484e-17)
(-0.452312 -0.446716 4.84684e-16)
(-0.124943 -0.746036 -2.05834e-16)
(-0.434907 6.74876 -8.88592e-17)
(1.35714 1.51258 -8.8822e-19)
(-0.633475 -0.386769 0)
(1.21766 -0.655616 0)
(0.762384 -0.406872 0)
(-2.53728 -0.305335 6.42734e-17)
(-1.3023 -0.292977 -3.65868e-16)
(4.41148 -0.129127 3.08593e-16)
(6.55179 -0.0196542 -7.1417e-18)
(6.63127 -0.125388 3.11363e-16)
(-1.80182 -0.225199 8.54096e-17)
(-1.80795 0.251221 5.09963e-16)
(-1.74387 0.189384 0)
(1.05215 -0.134637 -2.43672e-16)
(1.40542 -0.0663643 0)
(0.129878 -0.0138448 0)
(0.466743 -0.175226 -3.40275e-16)
(-0.60233 0.0180452 0)
(0.8186 -0.0866394 4.56661e-16)
(2.11891 0.113854 4.08689e-16)
(6.62693 0.421039 0)
(1.69467 -0.0141679 0)
(0.292613 0.0288924 4.4625e-16)
(1.12664 0.0111697 3.98224e-16)
(-1.07585 -0.518229 3.34335e-16)
(-0.509491 -0.433012 -2.43967e-17)
(-3.04904 -0.119027 -1.25663e-16)
(3.31664 0.124769 6.85248e-17)
(2.79297 0.0408326 6.80738e-17)
(-0.175243 0.120301 2.5289e-16)
(-2.33138 -0.161266 -2.32425e-17)
(-1.98128 -0.190907 1.55909e-16)
(-0.101784 -0.415178 0)
(-1.69157 -0.572608 0)
(0.867412 0.0443387 1.87093e-16)
(5.62521 -0.420017 1.72401e-16)
(0.963907 -0.114171 8.11383e-17)
(0.181698 -0.321073 0)
(0.220427 0.0243972 -2.80831e-16)
(2.00787 -0.140747 4.43904e-16)
(4.58102 -0.085179 3.78723e-17)
(0.667456 -0.532899 -4.15869e-17)
(0.457764 -0.825077 -3.00776e-16)
(-0.368657 0.188183 4.83925e-16)
(-3.20687 -0.00111763 -3.89109e-17)
(4.32595 -0.335368 0)
(3.8845 -0.276054 3.29104e-16)
(-1.29562 -0.364514 -1.00954e-16)
(-0.0425284 -0.136491 -1.46442e-16)
(1.26538 -0.000945413 0)
(-0.0778663 0.258785 -1.1755e-16)
(0.159457 0.400471 3.50618e-16)
(0.544601 0.0720155 9.14264e-17)
(-2.76427 0.168138 1.4406e-16)
(3.89019 -0.00707184 0)
(3.6288 0.148831 8.49537e-17)
(-2.03553 0.384143 0)
(0.649328 0.146361 1.42917e-17)
(0.272789 -1.0004 1.40637e-16)
(0.0291046 -0.0778879 0)
(10.783 0.0894807 0)
(-1.36631 0.0166187 1.50672e-16)
(-1.96686 0.0607963 -5.61774e-16)
(0.256718 -0.375921 -3.84843e-16)
(-0.549506 9.30716 -2.98123e-17)
(-0.404374 -0.694715 3.04968e-16)
(-0.0508703 -1.00981 -1.12985e-15)
(-0.419301 -0.258896 0)
(-0.162888 -0.231535 -8.40471e-16)
(-1.24355 0.918544 -6.21058e-19)
(-0.035969 0.518575 -2.71025e-18)
(0.607798 0.0106468 1.79341e-16)
(-0.786864 0.29706 9.52205e-17)
(-0.786076 0.363328 -1.00878e-16)
(-0.963577 -0.168518 1.14737e-16)
(0.139298 0.81075 0)
(0.909733 0.059191 0)
(1.38365 0.0597731 -3.17211e-16)
(0.994012 -0.144409 1.4779e-16)
(1.83012 0.21623 -4.08656e-16)
(9.42276 -0.326175 3.09282e-17)
(0.240968 0.0301822 2.25876e-16)
(0.376071 0.0301718 0)
(6.32522 0.933709 4.76254e-17)
(-0.0471312 1.63057 -1.87362e-20)
(-0.0631149 0.0115995 2.74166e-16)
(0.24226 1.16175 -3.69682e-17)
(-0.24449 5.73721 -6.29489e-17)
(-0.131452 6.63496 2.50778e-17)
(0.124889 6.8655 0)
(0.879489 0.470301 1.78277e-16)
(-0.960886 0.32243 2.86834e-16)
(5.1078 -0.0313607 2.07096e-17)
(4.5796 -0.0385061 7.1427e-17)
(0.73275 -0.536475 0)
(0.559728 3.57805 1.86051e-16)
(-2.40053 0.183967 0)
(-0.153586 6.25085 3.97284e-17)
(-0.0560437 6.86979 -6.78103e-17)
(-0.162012 6.87616 3.28393e-17)
(0.0361295 -0.0318062 -1.64915e-17)
(-0.0931658 -0.182271 -4.46131e-17)
(-1.47568 -0.0188356 0)
(-2.0041 0.0287749 0)
(-0.495793 -0.212502 -2.18865e-16)
(-0.0771155 0.0686628 -2.16127e-16)
(-0.0369977 1.48321 -1.31362e-17)
(-0.0942328 -0.218741 6.42881e-17)
(3.95665 0.744867 3.19592e-16)
(10.0116 0.169666 1.33314e-17)
(0.501265 2.11064 -3.26715e-16)
(0.922386 -3.0317 -2.23392e-17)
(1.02822 0.111684 3.30284e-16)
(-0.0480765 0.169775 0)
(0.873629 -0.552653 1.70613e-16)
(0.0850954 -0.390588 -1.09665e-17)
(-1.60413 -0.0810143 -9.74915e-17)
(-2.22026 -0.0822359 1.83476e-16)
(-0.0874615 -0.234197 2.81169e-16)
(9.95873 0.0975731 -2.60124e-16)
(0.626283 -0.467351 0)
(-0.906573 -0.391079 8.31149e-17)
(1.38528 -0.000915885 -2.30343e-18)
(-0.0622497 7.75128 -5.84247e-17)
(0.0678497 5.74839 -2.87889e-20)
(-0.670435 0.106047 0)
(0.306512 -0.262592 2.49419e-16)
(1.18507 0.330646 -8.85331e-17)
(1.41567 -0.0490467 -2.14729e-16)
(0.0500249 1.54725 -6.2699e-17)
(-2.79014 1.4187 4.89922e-17)
(-0.0970429 -0.230171 -6.53349e-16)
(-0.147835 6.33739 -2.87738e-17)
(1.08503 -0.274433 -5.2164e-16)
(0.35124 5.22596 -2.28602e-18)
(-1.6437 -0.406163 -2.22883e-16)
(-0.101708 5.87485 -3.69501e-17)
(0.999285 6.57215 8.93462e-17)
(-0.120063 -0.238759 -1.32782e-16)
(0.135624 1.36753 -2.15168e-16)
(-0.693884 0.859586 1.8416e-16)
(0.616639 0.0541964 -4.31496e-16)
(8.44104 0.588717 9.57316e-17)
(-0.420706 -0.0503118 -2.96435e-16)
(10.5278 0.281896 -2.11836e-18)
(2.62866 3.52335 6.25052e-17)
(0.572308 0.060874 -4.54165e-16)
(1.04789 2.19915 -5.24403e-17)
(0.589016 -0.145258 4.02413e-17)
(6.15517 1.20837 -5.0368e-18)
(1.54233 0.701046 -7.03977e-17)
(-0.0664178 -0.00487592 2.90132e-17)
(0.109328 -0.437112 -2.1699e-16)
(-1.00984 -1.05314 1.17026e-15)
(8.66502 2.52721 -2.75513e-18)
(-0.158137 2.25115 1.70758e-16)
(1.40143 1.05477 1.9257e-16)
(0.0713938 1.21852 5.3262e-17)
(-1.11982 0.725389 2.82044e-16)
(-0.223822 -0.320272 0)
(-0.482708 -0.333127 -2.03066e-16)
(-0.443311 -0.066336 1.22351e-17)
(0.0660737 0.042109 1.88997e-16)
(3.3475 -0.130369 -4.32832e-20)
(9.83384 0.0345249 0)
(1.51794 -0.126781 2.26629e-18)
(0.276882 -0.171246 -5.12838e-17)
(0.000113455 -0.438862 -1.90079e-19)
(-0.0362938 1.23256 1.94523e-16)
(-0.19431 3.7229 -1.57965e-16)
(-0.373607 5.20487 4.85548e-16)
(1.03874 1.03938 8.39912e-18)
(-0.0866289 1.56941 -4.28005e-20)
(0.506153 -0.0617929 2.67212e-16)
(0.929774 0.107603 0)
(-0.115318 -0.226826 0)
(-0.68912 -0.0449734 -3.73674e-17)
(6.78017 0.801666 -1.35474e-19)
(2.97404 2.21787 2.28731e-17)
(8.85682 1.45662 -5.86915e-18)
(10.3912 0.546457 3.37359e-18)
(0.429478 -0.179744 0)
(0.537535 2.78948 0)
(0.187547 1.26193 2.15257e-16)
(-0.0321584 -0.269068 2.59658e-16)
(8.90104 0.499123 -4.58986e-16)
(1.58188 0.686468 0)
(0.89673 0.209263 0)
(-2.06978 0.144871 2.12704e-16)
(0.515885 0.351515 1.52334e-18)
(0.135861 -0.648534 -1.51384e-16)
(0.878411 -0.374723 2.01639e-16)
(0.219343 -0.401845 -1.02414e-16)
(0.178474 6.10047 -3.37552e-17)
(-0.293125 7.48118 -1.44488e-17)
(0.739945 -0.312934 -2.64313e-16)
(9.93373 0.169191 -6.88394e-17)
(9.42573 -0.0485182 3.46637e-18)
(-0.0129375 -0.171268 1.81958e-16)
(0.413043 1.44153 -3.88908e-17)
(2.02028 2.39863 -1.08908e-17)
(-0.665133 8.54393 -1.38446e-16)
(-0.157065 0.00201013 1.11013e-15)
(-0.447681 0.72448 7.05729e-18)
(0.706282 0.482385 0)
(5.53397 3.78869 6.73222e-17)
(0.196038 1.63437 1.05955e-16)
(-0.0287709 0.0307389 2.6695e-20)
(-0.822563 2.21677 1.88629e-16)
(-0.54593 -0.144763 0)
(10.7779 0.112086 0)
(-0.186221 -0.456748 -6.95918e-17)
(-0.243559 0.149661 0)
(-0.156937 -0.0810272 9.2587e-17)
(10.039 0.0669876 -1.08647e-16)
(4.67408 -0.0358936 7.84755e-17)
(-0.405607 -0.0109105 1.30473e-16)
(6.86188 0.0215651 9.85107e-17)
(-0.0302846 -0.161019 1.05989e-16)
(-0.795585 -2.50917 1.95514e-16)
(0.0445509 1.62381 1.94599e-16)
(0.931038 6.6446 -1.07055e-16)
(0.282629 -0.407427 -8.32273e-17)
(-0.680377 -0.325761 0)
(9.73326 0.84097 0)
(0.824536 2.82979 -2.80463e-16)
(-0.332741 -0.118055 -2.16442e-16)
(-0.0112875 -0.150672 8.0459e-16)
(0.913448 4.8714 -2.77314e-17)
(0.778752 0.0909958 0)
(0.537876 0.0629244 -4.91965e-16)
(1.37678 2.00743 -1.44022e-16)
(-0.490447 0.118316 1.83644e-16)
(0.761567 0.100175 0)
(-0.338133 2.43353 0)
(0.0057126 0.0778532 0)
(0.249387 1.56008 -1.66625e-16)
(0.961432 2.07314 7.90501e-18)
(9.93022 2.79042 -2.51123e-18)
(0.630847 0.0239635 0)
(5.2512 1.2566 0)
(0.5358 -0.0671192 -1.02306e-16)
(1.10128 6.56809 7.59254e-17)
(1.64341 0.468762 0)
(-0.203647 -0.243518 4.83239e-16)
(0.386385 -0.0628167 7.94612e-20)
(0.0394873 -0.436758 -1.84142e-16)
(1.07089 0.0373131 0)
(7.97756 0.60606 -6.58021e-17)
(-1.56476 0.66509 -1.58457e-16)
(0.592582 3.03157 7.47321e-17)
(0.00687801 3.95942 0)
(0.98647 3.62435 -1.02821e-17)
(9.96475 0.262502 -2.074e-17)
(2.61423 2.86419 -4.07904e-18)
(-0.314387 5.22357 -1.40674e-16)
(0.290304 2.00773 -2.44261e-16)
(-0.355149 3.28607 -4.80405e-16)
(-0.324782 6.72662 9.21941e-19)
(0.329833 6.22369 5.24208e-17)
(2.53741 2.61732 0)
(11.0285 -0.227787 2.0223e-17)
(-2.73945 -0.187554 1.40558e-16)
(8.82724 0.830376 -1.21648e-16)
(-0.088718 0.21458 1.94848e-16)
(-0.147976 6.37489 0)
(-0.0527199 6.60471 -5.54749e-17)
(-0.211685 4.87362 1.92217e-16)
(0.959139 0.176462 -7.50869e-18)
(-0.258147 0.259423 6.44894e-17)
(0.739791 0.617986 6.77721e-18)
(-0.265131 6.58557 -2.91166e-17)
(0.227027 5.98114 -3.34377e-17)
(2.05407 8.8264 5.77081e-17)
(0.458367 0.161815 1.97037e-17)
(10.135 0.166023 0)
(0.983138 -0.223507 4.66498e-16)
(-0.239565 0.292007 -1.1283e-16)
(0.276422 -0.187322 -4.02936e-16)
(7.43179 0.592302 1.73742e-17)
(0.124321 5.9762 -5.26962e-17)
(-0.152568 6.81462 1.941e-16)
(1.12897 -0.403315 -3.0321e-19)
(-0.368468 0.0724773 -1.24622e-16)
(1.01401 6.71111 0)
(1.28847 -0.0940445 0)
(-0.0628957 -0.150682 -2.21736e-17)
(-0.357582 2.71378 0)
(3.17169 4.33601 -5.88798e-17)
(4.41334 3.23368 0)
(1.11636 5.53177 -1.64082e-16)
(0.0793871 0.956341 6.73976e-17)
(0.732809 -0.242699 4.10243e-16)
(1.48531 0.0213327 4.43231e-17)
(7.10735 0.650699 -1.54159e-17)
(3.79714 -0.0049755 -2.41286e-16)
(7.75777 0.139679 -2.95608e-16)
(1.70558 0.383279 0)
(0.223691 1.31829 -8.3009e-17)
(5.02915 2.88899 1.65101e-16)
(3.54743 1.61657 -7.56252e-17)
(0.0884244 0.0460299 -3.80332e-16)
(0.318779 1.28635 5.88576e-16)
(-0.510561 0.57546 3.67119e-17)
(0.322736 0.271064 -5.3414e-16)
(1.22092 2.03525 -6.07501e-20)
(0.913027 1.17493 -2.50037e-16)
(-0.440831 0.0858386 2.0374e-16)
(-0.14629 -0.363998 1.17729e-16)
(-0.167871 1.17829 0)
(0.102486 0.482666 -8.0942e-17)
(-0.0992904 -0.18693 -9.61111e-17)
(0.382185 1.33381 3.08398e-16)
(-0.524648 -0.300809 -1.10866e-16)
(1.4629 8.80056 -3.6411e-17)
(10.658 0.423542 -7.53975e-17)
(-0.722845 0.0126763 1.01216e-16)
(0.132121 2.26361 -5.24402e-17)
(-0.088268 -0.234269 -1.61184e-16)
(8.74637 0.169445 3.62889e-16)
(3.88744 -0.131645 -2.49974e-17)
(0.0276629 6.55526 3.68715e-18)
(4.12869 -0.152409 2.56508e-16)
(-0.106869 4.86706 -1.80592e-16)
(0.0965666 5.27092 9.76072e-17)
(7.27863 0.278624 0)
(0.0343049 -0.102568 -1.29072e-16)
(0.0373041 0.0345036 3.1885e-17)
(-0.609217 -0.120522 0)
(1.13087 1.15264 -1.68784e-16)
(-0.0864392 -0.381442 6.75675e-17)
(1.09346 0.363105 2.80245e-16)
(0.919517 0.106721 3.08478e-16)
(3.75078 0.167822 -4.26873e-17)
(8.97076 0.365958 -1.11443e-18)
(0.721885 1.43748 -1.76894e-16)
(-1.67962 0.226852 2.67825e-16)
(-0.499644 0.379264 -3.34126e-16)
(0.52041 0.37649 1.16596e-16)
(-0.366303 -0.287926 0)
(-0.324434 -0.423442 -1.24225e-17)
(-1.88362 0.879326 -2.96032e-16)
(0.01339 1.13054 -1.7654e-20)
(-0.00569167 5.47476 3.1066e-17)
(0.213356 5.59956 -2.85582e-18)
(-0.224626 4.99704 -1.19087e-16)
(0.407437 5.7179 3.34071e-17)
(1.98985 4.58337 -1.46381e-16)
(7.0351 0.328886 7.30444e-17)
(0.378464 0.98296 0)
(10.57 0.906258 0)
(-2.018 0.154357 3.58342e-16)
(-0.597478 0.297473 6.18448e-16)
(0.0764094 5.91876 1.60858e-16)
(-0.0677029 6.95445 -1.30512e-16)
(0.459863 -0.0704196 1.43164e-16)
(1.20855 5.7775 -4.27024e-17)
(0.438815 0.300967 5.30647e-17)
(-0.318401 0.659442 2.40756e-17)
(0.387158 -0.0455588 1.41973e-19)
(-0.129785 -0.211482 -7.21273e-17)
(-0.569564 -0.116392 -1.14507e-17)
(1.10574 2.35851 -5.86883e-17)
(3.36491 -0.07338 -4.22084e-16)
(0.325706 3.68193 7.09348e-18)
(-0.225463 -0.36479 1.70437e-16)
(0.617194 0.145323 0)
(0.602354 -0.280518 0)
(-0.196996 4.25783 0)
(0.813802 6.1701 2.34071e-16)
(1.21998 8.62934 2.43364e-16)
(-0.181275 6.30071 2.55062e-16)
(0.306439 -0.220467 4.19107e-17)
(5.91942 3.31238 -3.9841e-17)
(0.3497 0.122664 0)
(-0.031657 0.573436 1.01081e-16)
(-0.505248 -0.424877 3.61289e-17)
(10.5448 0.0576418 -7.8472e-18)
(0.188865 -0.124449 -1.16612e-16)
(-1.482 0.114501 3.44218e-18)
(-0.659918 -0.0954702 -1.71014e-16)
(8.98506 0.388101 -2.09188e-17)
(0.905628 1.70797 0)
(3.48739 1.2158 -3.61265e-16)
(3.53009 0.979114 2.16746e-16)
(-0.473648 -0.168853 0)
(0.0026821 -0.339529 7.86009e-17)
(1.2728 2.3092 -2.66039e-16)
(8.64285 0.166749 0)
(1.77925 5.92163 -4.72748e-16)
(-0.201502 5.68631 -1.43883e-16)
(0.134924 2.78152 0)
(1.17951 0.551375 0)
(11.3972 0.281835 4.56952e-17)
(10.3747 0.364622 3.52059e-17)
(8.90667 1.06484 1.91017e-18)
(5.266 2.12115 -7.79959e-21)
(0.438951 2.62589 0)
(1.3474 0.634749 2.10832e-16)
(2.49615 7.18948 -2.96725e-17)
(4.45285 -0.0631951 0)
(0.103773 -0.586192 -4.95548e-16)
(3.59646 2.34119 2.23344e-17)
(0.693197 1.36234 -1.19634e-16)
(9.40027 0.941951 -5.36681e-17)
(10.8817 0.0439487 8.17106e-17)
(1.62905 1.85988 -1.89013e-16)
(9.92631 0.425807 -1.62538e-17)
(-0.0573591 5.93632 1.81319e-16)
(0.822301 9.13563 4.14953e-17)
(0.612543 6.88682 -1.0491e-16)
(6.71426 3.58952 0)
(0.355269 -0.164149 1.6618e-16)
(-0.294178 -1.33942 -1.74873e-16)
(1.58282 0.0953714 2.92026e-17)
(-0.00859548 0.0745828 1.4167e-16)
(0.0887629 6.78567 1.07214e-20)
(-0.0925203 7.04581 2.64074e-19)
(0.536772 5.93271 7.69393e-17)
(0.364748 0.544709 0)
(-0.304646 -0.0647482 0)
(0.765034 -0.39562 1.05725e-16)
(0.717333 0.865876 1.65895e-16)
(-0.102348 5.22276 -1.13177e-16)
(-0.0237357 5.57951 -3.74749e-18)
(-0.235095 2.41272 0)
(0.0754904 0.997308 -4.59473e-17)
(10.1024 0.109637 8.98183e-17)
(-0.812756 0.408289 0)
(1.48692 1.73485 -3.56217e-16)
(-0.283925 -0.272651 7.96708e-17)
(0.985248 -0.33419 2.57401e-16)
(0.139156 6.04578 7.23019e-17)
(-0.22181 7.2258 1.43324e-16)
(9.62664 0.947743 0)
(0.265627 7.39123 -3.67931e-17)
(-0.0179068 5.85152 -3.6858e-17)
(9.5403 1.17253 -9.93484e-17)
(1.80034 0.0177994 -1.13173e-19)
(7.37729 1.89155 6.67099e-18)
(-0.294176 6.40982 -3.30242e-22)
(0.0130941 5.55137 0)
(0.00296757 5.60241 2.97411e-18)
(-0.327943 4.87652 -1.01956e-16)
(0.65395 5.48344 -4.10268e-17)
(3.53662 4.11422 1.47126e-16)
(0.950228 2.36584 3.53221e-17)
(-0.163532 6.6219 2.26357e-16)
(0.0108392 6.76716 0)
(-0.275035 5.38587 -1.45861e-16)
(0.942356 1.30564 3.26078e-17)
(0.000284133 -0.268462 -1.57525e-16)
(0.126188 0.229474 8.42283e-17)
(0.106849 0.152849 4.89895e-18)
(-0.377914 0.818236 1.30222e-16)
(0.369405 0.0827677 0)
(1.35448 3.58605 1.27077e-17)
(-0.114768 0.115967 -3.04995e-17)
(0.58708 0.0153607 -1.28019e-16)
(8.87198 0.668941 -7.4649e-19)
(-0.294917 1.36047 -4.2167e-17)
(-0.00734531 -0.0750088 -3.06565e-16)
(0.265887 1.60301 -1.71336e-16)
(-0.30484 6.27624 -2.22593e-16)
(0.407101 6.20538 0)
(0.58958 0.174707 2.54181e-16)
(-0.31234 6.41948 9.42613e-17)
(0.371266 5.9731 2.5884e-17)
(-0.778826 0.181571 -8.70329e-17)
(3.45374 3.59417 -1.55347e-16)
(-0.864039 -1.3503 5.05761e-16)
(-0.762333 -1.10094 5.98617e-16)
(0.705849 0.488022 -2.9004e-16)
(0.48001 5.74197 2.62106e-16)
(-0.0022717 1.50157 -3.59652e-16)
(-1.00037 -0.295332 -1.98827e-16)
(-0.0541396 -0.244689 -1.485e-16)
(1.21603 9.17793 0)
(9.89266 0.107927 0)
(0.0596923 0.0875745 -3.07858e-16)
(-0.627473 -1.02119 1.65899e-16)
(0.321175 0.08109 -8.19387e-17)
(-0.701098 0.572779 0)
(0.543395 -0.0899123 1.22678e-16)
(0.555848 -0.0212917 -3.10448e-20)
(0.679785 0.398073 -6.37371e-16)
(4.01673 0.0761046 2.31396e-16)
(1.06121 5.02957 1.17196e-16)
(-0.274788 6.13345 -3.16311e-16)
(1.43423 -0.395956 3.99926e-16)
(0.677084 0.612912 -1.75423e-16)
(9.72733 0.932546 -1.39861e-17)
(0.508184 3.1952 2.13895e-16)
(0.591013 -0.00986183 2.0257e-16)
(1.14617 0.501163 0)
(-0.919481 0.767859 5.6416e-17)
(2.04758 1.37129 -7.61228e-16)
(0.294171 1.33165 -2.48769e-17)
(0.00855072 0.0664426 3.53374e-16)
(0.0744997 2.63214 2.7152e-17)
(8.52254 0.561334 -1.19208e-16)
(10.3911 0.35567 -2.55085e-19)
(-0.405893 -0.0192451 1.98767e-16)
(11.0739 0.0513088 0)
(0.534522 -0.024708 -5.27605e-18)
(-0.0853777 -0.0543228 2.81563e-18)
(-0.15519 -0.493253 -2.02431e-17)
(0.00346695 6.54439 4.27839e-17)
(-0.143408 6.32935 4.22893e-17)
(0.0130515 5.02146 1.826e-17)
(10.5287 0.039055 1.48834e-17)
(-0.273057 -0.466312 3.46346e-20)
(-0.571831 7.60402 -4.90976e-17)
(-0.103806 -0.106418 1.36736e-20)
(-0.134104 0.632355 0)
(9.05744 1.56772 -4.54651e-18)
(0.0460571 0.0700778 0)
(-0.341815 0.270441 1.01561e-16)
(-0.152612 0.265055 9.36262e-17)
(0.0603786 0.909061 5.08968e-18)
(0.640752 0.264722 2.5076e-16)
(-0.577583 0.207875 3.68055e-16)
(9.38988 0.602554 -1.84563e-17)
(-0.0351078 -0.30686 2.80745e-16)
(1.15437 -0.861089 3.22527e-16)
(9.55506 1.1062 1.0198e-16)
(9.75749 0.295737 4.27419e-17)
(5.96241 2.95475 2.72451e-17)
(0.139962 5.88497 -5.22583e-17)
(-0.0825678 6.61451 2.48679e-17)
(0.105806 2.47635 1.36269e-16)
(0.157465 1.86332 0)
(4.09583 0.700263 4.83557e-17)
(5.62639 3.05796 8.80184e-17)
(9.51514 -0.237094 -1.96336e-17)
(0.549486 0.651954 1.24237e-16)
(0.366242 -0.492535 2.64146e-16)
(0.149418 0.0856866 0)
(8.88366 1.71989 0)
(1.06784 2.31825 0)
(1.09886 1.83873 3.10338e-16)
(-0.330912 0.0724075 9.37178e-17)
(2.41739 4.41011 2.13441e-16)
(-0.232947 5.12214 3.09322e-17)
(1.51425 7.29272 -5.8481e-17)
(0.178203 0.196226 0)
(-0.28471 -0.271184 1.01112e-16)
(0.187937 5.39023 -1.36404e-16)
(-0.545995 0.217948 -8.13746e-16)
(11.262 0.114753 9.97522e-17)
(5.6667 1.15221 0)
(-0.165508 0.0808739 2.30435e-16)
(0.972775 5.70561 0)
(0.51873 0.0260551 1.65486e-16)
(-0.0127623 -0.174142 -2.52269e-17)
(0.957523 10.0385 6.08321e-17)
(9.91809 1.11493 -1.38945e-17)
(9.88766 0.705801 1.06048e-16)
(-0.923846 0.319914 0)
(1.09971 2.56 -5.72517e-17)
(-0.375088 -0.0359215 0)
(8.67831 0.338579 0)
(0.863613 0.305962 -1.41276e-16)
(-0.126246 -0.326641 2.43227e-17)
(-2.80725 4.34686 -1.37238e-16)
(2.86195 0.789679 -1.26414e-16)
(0.61595 1.6031 1.71871e-16)
(10.287 0.10483 -2.60002e-20)
(5.90251 3.53254 -7.98054e-17)
(0.70767 -1.73393 -2.5053e-19)
(0.0329824 5.75298 6.49572e-17)
(-0.055557 6.24166 -5.40592e-17)
(0.672819 2.14317 -1.25292e-16)
(1.20111 6.04024 -2.56309e-16)
(1.20145 1.62734 -1.347e-17)
(-0.0889458 -0.327053 -4.14665e-16)
(-0.0910428 1.35002 -1.99378e-16)
(0.83106 0.776351 6.82485e-17)
(0.912939 0.0305409 2.16837e-16)
(0.528011 0.334728 -2.9591e-16)
(0.288001 1.30844 -5.3365e-16)
(-0.115599 -0.057456 -4.92624e-16)
(6.92854 4.20539 3.33036e-18)
(0.591873 1.23858 5.76599e-16)
(10.083 0.0435689 -6.56867e-17)
(0.802874 0.22279 0)
(-0.23556 2.49845 -1.88886e-22)
(4.18278 -0.702862 -1.02088e-16)
(-0.150804 2.74259 0)
(10.1131 0.426989 4.11617e-17)
(-0.445591 0.0422471 3.17906e-16)
(0.406302 -0.000161053 -2.83497e-16)
(9.40971 2.09282 0)
(0.149808 6.24828 -8.38004e-21)
(-0.342692 7.54242 0)
(10.0405 0.0884117 0)
(0.685557 0.220214 -5.33882e-17)
(9.89416 1.49603 -5.29392e-17)
(9.03844 4.00682 -1.86243e-16)
(1.19575 6.5476 2.42658e-17)
(7.34216 2.10209 -1.09603e-16)
(-0.10167 3.80217 -7.70673e-17)
(0.0197549 3.35167 3.14885e-20)
(-0.00917059 4.2087 -7.9986e-17)
(-0.170215 -0.476977 0)
(-0.107801 2.40723 1.15237e-16)
(-0.0241537 -0.534109 0)
(0.587976 0.88799 0)
(0.418558 0.210025 0)
(0.095491 -0.599726 -2.15403e-16)
(-0.0828224 -0.256618 0)
(0.0484879 1.07734 1.26532e-16)
(2.84681 2.57743 -2.89064e-16)
(0.543742 3.31525 0)
(-0.609208 5.27162 1.64179e-16)
(-0.195078 6.35309 -2.52305e-17)
(-0.0259705 6.81108 8.77346e-17)
(-0.146252 6.77992 -4.21509e-17)
(0.947553 1.53553 2.71551e-16)
(9.41051 1.04836 -2.8021e-17)
(0.300496 1.31652 2.19922e-17)
(0.014497 0.0101178 -1.01442e-16)
(0.386545 0.688578 0)
(0.972886 -0.11221 -3.8527e-20)
(4.83164 1.91521 0)
(0.585042 -0.0607855 3.30286e-21)
(3.65013 0.128144 -4.79018e-16)
(10.0588 0.0535524 3.61078e-17)
(-0.587672 7.70384 1.22816e-16)
(-2.48572 2.51149 -3.09742e-16)
(0.00694603 1.3636 0)
(-0.044891 -0.379814 1.12262e-15)
(5.07476 2.75588 -3.30981e-17)
(11.4089 0.447172 0)
(9.80138 0.210521 2.56688e-17)