/*--------------------------------*- C++ -*----------------------------------*\
| =========                 |                                                 |
| \\      /  F ield         | OpenFOAM: The Open Source CFD Toolbox           |
|  \\    /   O peration     | Version:  v1912                                 |
|   \\  /    A nd           | Website:  www.openfoam.com                      |
|    \\/     M anipulation  |                                                 |
\*---------------------------------------------------------------------------*/
FoamFile
{
    version     2.0;
    format      ascii;
    class       volScalarField;
    location    "0.11";
    object      k;
}
// * * * * * * * * * * * * * * * * * * * * * * * * * * * * * * * * * * * * * //

dimensions      [0 2 -2 0 0 0 0];


internalField   nonuniform List<scalar> 
5794
(
0.321177
0.162195
1.06699
0.199586
0.113699
0.204001
0.108759
0.0645101
0.469798
0.159512
0.0995621
0.120311
0.0774387
0.114229
0.141572
0.110278
2.35888
0.105037
0.125094
0.120681
1.16025
0.256089
0.178026
0.169514
0.152909
1.22081
2.22137
0.241359
0.170807
0.332572
0.0760505
0.255989
0.0743191
0.155588
0.146984
0.112142
0.19864
0.16744
0.0853744
1.0137
0.226627
0.095078
0.397206
0.203788
0.126269
0.0654411
0.223563
0.0655743
0.176359
0.253639
0.0607392
0.084308
0.231852
0.189193
0.0266869
0.0859542
0.205896
0.0906685
0.3744
2.12817
1.20473
0.0691316
0.0773153
0.405232
0.0779881
0.0753809
0.749192
0.386186
0.127323
0.0749142
0.0931432
0.780282
1.47815
0.118066
0.116146
0.189832
0.0682332
0.940127
0.206198
0.0434971
0.25886
0.139459
0.18094
0.0731995
0.1371
0.107066
0.208518
0.0942197
0.225023
0.25628
0.211592
0.201612
0.113714
0.104101
0.13394
0.106657
0.165565
0.104499
0.189347
1.38601
0.967594
0.212966
0.400388
0.154832
0.0896925
0.082886
0.0810223
0.0605925
0.317876
0.232148
0.0727317
0.114158
1.05501
0.0725117
0.124333
0.108518
0.195349
0.109985
1.05289
0.495444
0.0926882
0.0993531
0.0812712
0.265503
0.166413
0.300649
0.140701
0.225899
0.201692
0.0814041
0.0814099
0.0664523
0.233394
0.846025
0.0849842
0.152149
2.3261
0.0747811
0.0789463
0.10761
0.390616
0.120592
0.139709
0.170989
0.107264
2.9262
0.117589
2.14318
0.0933776
0.0984409
0.37872
0.127638
0.0835236
0.10789
2.84302
0.243971
0.0652115
0.0725846
0.0714605
0.143066
0.150629
0.0705637
0.0832893
0.070534
0.0985337
0.0709947
0.068575
0.0584057
0.0704396
0.0993677
0.133088
0.214064
0.111263
0.108143
0.117984
0.0780752
0.142423
0.112515
0.135344
0.17442
0.0586291
0.163531
0.0533143
0.0521023
0.0543669
1.6505
0.213572
0.0692466
0.10936
0.174339
0.113489
0.228307
0.0634528
0.0618471
0.0565271
0.0660263
0.0607046
0.0799156
0.112686
0.395813
0.0695459
0.0788413
0.0564589
0.056059
0.229154
0.0599868
0.0722853
0.09332
0.145077
0.843069
0.365401
0.320758
0.0803408
0.0958587
0.130355
0.142585
0.155381
0.194834
0.0790872
0.349084
0.314381
0.142955
0.164885
0.212222
2.4563
0.668083
0.907816
0.184727
0.0969553
0.17366
0.14098
0.108621
0.114309
0.277204
0.152129
0.423121
0.282127
0.861154
0.0766701
0.188799
0.147063
0.127106
0.744159
0.162682
0.131564
0.0743067
0.123451
0.0837306
0.126118
0.0977046
0.166605
0.0797131
2.87866
0.0748165
0.241436
0.220669
0.397763
1.09496
0.0871382
0.191313
2.67544
0.0783451
0.0823763
0.0665812
0.0750984
0.0666585
0.135551
0.60869
0.211039
0.0679045
0.228803
0.0662571
0.157527
0.120439
0.407139
0.162198
0.191051
0.21476
0.123125
0.0977975
0.0730329
0.181502
0.209947
0.107129
0.282944
0.213971
0.347627
0.201782
0.170599
0.0919593
0.152783
0.125927
0.138964
0.146466
0.213689
0.881823
0.215337
0.136629
0.146197
0.0716107
0.140786
0.825047
0.22989
0.860645
0.217865
0.887794
0.123151
0.135692
0.0682518
0.235472
0.0668362
0.131864
0.723786
0.0723198
0.292033
0.626345
0.0628529
0.197839
0.266139
0.175119
0.112394
0.223846
0.125262
0.0988895
0.0937858
0.114246
0.0861206
0.0863325
0.0632392
0.08531
0.0871424
0.398407
0.0643581
0.0686504
0.237498
0.121252
0.11451
0.0700498
0.124563
0.0707457
0.156573
0.137824
0.370899
0.101606
0.154969
0.0539063
0.052739
0.124908
0.0876856
0.177581
0.104628
0.959685
0.055741
0.202342
0.0547633
1.13322
0.0996659
0.097687
0.0832631
0.0617678
0.0835252
0.147766
2.12815
0.100507
0.0729208
0.0854037
0.0773814
0.0580135
0.213418
0.0518639
0.0940558
0.0554697
0.0863342
0.189998
0.0723584
0.157197
0.122947
0.20042
0.124614
0.0896457
0.273889
0.092517
0.323413
0.091334
0.131154
0.15389
0.141889
0.101058
0.0761145
0.0760389
0.0594865
0.0963141
0.0809117
0.0803786
0.118669
0.0977536
0.104105
0.521635
0.239835
0.144124
0.159126
0.142345
0.884411
0.0634888
0.08961
0.71599
0.294454
0.202491
0.09882
0.137623
0.120852
0.223645
0.24511
0.187498
0.0570661
0.234673
0.052806
0.167787
0.176727
0.152349
0.184324
0.102133
0.066006
0.10079
0.0859079
0.100321
0.122175
0.0730118
0.133539
0.28817
0.360676
0.223317
0.186691
1.49269
0.11192
0.182293
0.100574
0.0575206
0.0770991
0.107676
0.141404
0.269239
0.0597416
0.0641945
0.13152
0.110939
0.130352
0.0732189
0.46382
1.25059
0.112721
0.115609
1.70198
0.254616
0.127958
0.0608564
0.18721
0.304866
0.182881
0.172783
0.248797
0.101473
0.439396
0.0809496
1.60453
0.0903021
0.644752
0.264847
0.147471
0.285249
0.0405452
0.214101
0.290481
0.100261
0.193924
0.234833
0.699444
0.180751
0.145402
0.104322
0.66314
0.254702
0.109845
0.094147
0.0645594
0.0957169
0.317777
0.0869008
1.29537
0.25875
0.119377
0.158349
0.142325
0.0863538
0.289415
0.0966706
0.163303
0.090034
0.0652331
0.75418
0.145858
0.516453
0.285226
0.121923
0.310942
0.0980361
0.222916
1.67473
0.211374
0.0724478
0.134124
0.121782
0.278535
0.0650235
0.0724113
0.148299
0.112971
0.0651428
0.223812
0.833348
0.188909
0.0995833
0.140518
0.103584
0.129378
0.148208
0.195917
0.368985
0.106574
0.237574
0.539445
0.0503107
0.624392
0.0934285
0.0855256
0.154633
0.239553
2.39808
0.102381
2.59061
0.266932
1.75111
0.127916
0.122552
0.0842284
0.0920667
0.216048
0.155867
0.066873
0.178806
0.210691
0.101138
0.130342
0.246807
0.168508
0.12068
0.459357
0.240009
0.106332
0.286035
3.07358
0.145676
0.576331
0.137691
0.121883
0.141341
0.139931
0.884098
0.170696
0.0706623
1.864
0.245686
0.161362
0.212324
0.45249
0.294262
0.191655
0.239923
0.113165
0.244666
0.12931
0.271758
0.213812
0.54515
0.263133
1.91643
0.0739892
0.123288
0.307356
0.160742
0.0716205
0.15112
0.0884521
0.144995
0.23542
0.325792
0.0773357
0.293526
0.0675287
0.279225
0.0787763
2.15286
0.16258
0.141889
0.0686171
0.273357
1.45635
0.126858
0.0318984
0.0991792
0.359272
0.308659
0.20089
0.402184
0.0616501
0.0635273
0.799862
0.0669388
0.382457
0.170871
0.0635752
0.298378
0.311126
0.0751447
0.0648933
0.156357
0.140988
0.147912
0.124113
0.0675236
0.269031
0.129054
0.0541817
0.188026
0.114198
0.107783
0.970224
0.487862
0.0916555
0.223642
0.0878903
0.502464
0.074576
0.312993
2.38342
0.199017
0.21155
0.767229
0.130236
0.0721371
0.162571
0.186466
0.100729
0.0724247
0.0695519
1.08
1.01092
0.173509
0.723511
0.0873838
0.121391
0.111895
0.255861
0.845793
0.109282
0.196447
0.175255
0.220121
0.344858
0.18014
0.990797
0.412993
0.757876
0.144858
0.102778
0.156098
0.148711
0.0803381
0.207437
0.150716
0.15497
0.100594
0.120463
0.0764096
0.112108
2.19933
0.212417
0.0889603
0.124529
0.0694402
0.422631
0.124139
0.956251
0.156693
0.133472
0.393491
0.0754257
0.118478
0.17268
0.290011
0.134076
0.0698878
0.0498479
1.29138
0.227424
0.335331
0.254596
0.101193
0.114894
0.161671
1.53007
0.181658
0.196478
0.14981
0.269996
0.373931
0.272354
1.39785
0.371517
0.229619
0.112565
0.924203
2.44565
0.0899663
0.166863
0.372188
0.898897
0.508691
0.158069
0.689065
0.142806
0.733831
0.106614
0.336074
0.138182
0.840549
1.58842
0.175015
0.199822
0.1108
0.197036
0.115953
0.164638
0.447804
0.0984602
0.205048
0.418138
0.229232
0.335574
0.282962
0.168846
0.167471
0.115315
0.0627998
0.155362
0.13159
0.208711
0.104939
0.136968
0.451473
0.0992534
0.415116
0.131497
0.188511
0.178608
0.22279
0.368771
0.214718
0.241583
0.118148
0.291124
0.150615
0.13508
0.110425
0.0963814
0.0796899
0.140541
0.193729
0.196654
0.181073
0.071691
1.16261
0.334997
0.231877
0.0997089
0.13644
0.356479
0.0839461
0.137321
0.275456
0.085021
0.253205
0.0956498
0.295446
0.0896694
0.386343
0.119855
2.34419
0.26296
0.898134
0.308038
0.0680903
0.212981
0.130123
0.165286
0.138284
0.0714767
0.103257
1.33344
0.131482
0.168158
0.283085
0.286123
1.20777
0.318191
0.0867075
0.133014
0.112915
0.150992
0.104641
0.226553
0.361482
2.01838
0.708785
0.0669612
0.387118
0.133787
0.103301
0.120027
0.311738
0.126691
0.174306
0.282709
0.0886822
0.09061
0.106655
0.0861919
1.79639
0.149843
0.16131
0.167445
0.0899448
0.196919
0.147731
0.505704
0.0679179
0.474825
0.294819
0.316564
0.447518
0.164899
0.1505
0.243895
0.191108
0.676138
0.313842
0.826318
0.899474
0.0724976
0.0751631
0.20738
0.166698
0.336358
0.086598
0.213675
0.231095
1.08184
0.272992
0.103548
0.108842
0.0909492
0.348529
0.623042
0.185801
2.42297
0.129088
0.0927058
0.840151
0.791152
0.231539
0.095914
0.166907
0.0700792
0.391094
0.0782204
0.0929179
0.876119
0.499068
0.27023
0.299161
0.323066
1.09118
0.175518
0.16683
0.789331
0.33452
0.103591
0.263815
0.11907
0.123865
0.0729887
0.12651
0.103519
0.189169
0.340196
0.0646226
0.253743
0.0742998
1.22731
0.359243
0.108378
0.276167
0.186219
0.125386
0.7509
0.150511
0.111334
0.233477
0.0773352
0.763533
0.317658
0.761913
0.266435
0.174729
0.210387
0.176047
0.160873
0.13615
0.105368
0.241978
0.261193
0.350852
0.184857
0.110431
0.765443
0.253065
0.0847749
0.146256
0.18265
0.1018
0.112867
0.705905
0.10201
0.208824
0.0891857
0.0723337
0.211918
0.072101
2.25724
0.245983
0.0928753
1.37202
0.114395
0.256945
0.318791
0.663428
0.30515
0.305053
0.482524
0.351459
0.12834
0.135335
0.0867904
0.0494459
0.0510825
0.0879534
0.0821705
0.132947
0.0809063
0.0710861
0.0939497
0.0830478
0.263906
0.0956029
0.214993
0.119704
0.0735307
2.29762
0.299676
0.154337
0.163561
0.139662
0.0827574
0.0675225
0.203161
1.16872
0.061685
1.17248
0.233901
0.0802663
0.304284
0.193668
0.0898966
0.291788
1.43606
0.432178
0.22693
0.663349
0.0726432
0.318531
0.538536
0.205108
1.29499
0.597106
0.131232
0.0965665
0.163609
0.263652
0.0755291
0.102206
0.565142
0.327311
0.535617
0.187627
0.240508
0.0501628
0.164378
0.205617
0.227052
0.0926899
2.36321
0.0710107
0.24217
0.106849
0.775911
0.302983
0.234962
0.202418
0.217093
0.197596
0.204663
0.29296
0.0646864
0.129988
0.269948
0.100926
0.198228
0.20413
0.0795204
0.274366
0.626187
0.0720873
0.110298
0.0941285
0.531653
0.0637672
0.0729768
0.0949415
0.0718419
0.311556
0.0706731
0.0701767
0.186809
0.563732
0.0735332
0.0889913
0.697843
0.0731401
0.746265
0.261612
0.192816
0.0948447
0.244818
0.0962351
0.0736287
0.309203
0.0874506
0.0996346
0.135104
0.122351
0.104132
0.336337
0.955419
0.38089
0.156442
0.213038
0.110725
0.0824879
0.804409
0.0918481
0.190916
0.0885145
0.122451
0.439943
0.0515173
0.130451
0.126243
0.315341
0.124981
0.462903
0.738921
0.0524689
0.699963
0.147653
0.0523568
0.674396
0.0908893
0.658143
0.68313
0.0498625
0.711892
0.0528426
0.0512843
0.268661
0.0960323
0.223078
0.368872
0.0871989
0.0774523
0.147638
0.795282
0.119951
0.177454
0.109116
0.198881
0.10049
0.508175
0.0896239
0.603791
0.248381
0.364621
0.37156
0.207056
0.0825892
0.0856019
0.397157
0.112744
0.0907771
0.237349
0.326448
0.316753
0.879623
1.25593
0.413229
0.338433
0.31248
0.206726
0.0779245
0.0800334
0.0733634
6.9608
0.726511
0.0714509
0.10385
0.246469
0.228824
0.272819
0.158004
0.155405
0.164313
0.490452
0.0645965
0.26206
0.115263
0.270285
0.0983849
1.30894
0.10652
0.0762628
0.514869
1.00414
0.150216
0.63693
0.109874
0.909076
0.247782
0.367574
0.0586869
0.0666844
0.201533
0.778193
0.292463
0.391873
0.343885
0.213793
0.120831
0.884658
0.21945
0.460848
0.213887
0.12053
0.265358
0.339575
0.147463
0.525276
0.0621601
0.136473
0.246483
0.730125
0.488245
0.367933
0.0610546
0.0489688
0.323015
1.50083
0.0744537
0.0956188
0.072056
3.77319
0.0700519
0.103235
0.765797
0.185541
0.147749
0.341113
0.116719
0.420296
0.167795
0.145393
0.126658
0.292234
0.286314
0.121614
0.0884254
0.0766195
0.0718965
0.280206
0.0722344
0.753309
0.281547
0.0533464
0.0982411
0.0750688
0.426665
0.0757264
0.0356023
0.425195
0.690456
0.0963839
0.0503441
0.209666
0.104608
0.669393
0.267834
0.220402
0.074039
0.0649437
0.0876673
0.352391
0.137399
0.370296
0.0768468
0.0739377
0.382505
0.304592
0.0669036
0.0727206
0.337499
1.40608
0.1352
0.0545114
0.186564
0.180842
0.113619
0.212762
0.796438
0.219216
0.0733913
0.0995122
0.325738
0.144339
0.424992
0.592424
0.442306
0.198638
0.113889
0.172831
0.105036
0.15632
0.434644
0.151909
0.221236
0.116942
0.25434
0.697239
0.719569
0.211118
0.117761
0.416991
0.0887133
0.18174
0.528564
0.125377
0.60275
0.791479
0.115536
0.202849
0.188342
0.105966
0.0587107
0.257097
0.210849
0.109494
0.20086
2.51985
0.293947
0.255948
0.293633
0.154837
0.0640454
0.4912
0.163964
0.331256
1.11918
0.0764117
0.0897522
0.0724319
0.281933
0.111814
0.41791
0.131732
0.315985
0.113256
0.10674
0.0924472
0.797227
0.429786
0.567324
0.675267
1.04911
0.277567
0.0403019
0.162545
0.0840863
1.05539
0.0996746
0.309628
0.0864078
0.489411
0.0842938
0.107383
0.243643
0.190328
0.139967
0.254051
0.100107
0.0795547
0.122174
0.0730458
0.169068
0.104949
0.121395
0.0760549
0.121007
0.34564
0.0732304
0.229261
0.203142
0.0750352
0.0752554
0.290604
0.150138
0.0709402
0.263462
0.186438
0.363431
0.0774931
0.0734487
0.533783
0.0777651
0.107097
0.434612
0.0872835
0.728385
0.126723
0.0777259
0.126003
0.3854
4.19738
0.323243
0.114639
0.334997
0.107552
1.04381
0.339951
0.0777208
0.0572235
0.0548754
0.0510796
0.0470719
0.109267
0.0533988
0.05291
0.0707797
0.051608
0.0566714
0.0605264
0.23192
0.0474454
0.050107
0.0485984
0.234867
0.057098
0.0916193
0.348883
0.0634596
0.100598
0.0657991
0.0494832
0.0572677
0.19576
0.197949
0.0734938
0.0518223
0.0492534
0.189152
0.0676102
0.0520889
0.0656615
0.0640563
0.0567373
0.0487227
0.0656847
0.0575822
0.0511813
0.0486715
0.0516696
0.108996
0.12779
0.153304
0.0839561
0.404763
0.126175
0.173481
0.384176
0.373049
0.210406
0.111422
0.0743339
0.373473
0.108999
1.36755
0.107584
3.24239
0.321366
0.526908
1.12051
0.106074
0.106958
0.0809925
0.152936
0.179242
0.150079
0.107974
1.05199
0.485891
0.179163
0.180867
0.12513
0.22717
0.264417
0.189038
4.02093
0.0900409
0.122092
0.0759255
0.602985
0.137141
0.832945
2.28661
0.117926
0.339173
0.157044
1.03247
0.0705158
0.10886
0.328007
0.362162
6.67222
0.0861781
0.0877481
0.112948
0.103105
0.225439
0.111829
0.417412
0.113771
0.0558665
0.0466808
0.0588898
0.0692293
0.0564912
0.0620677
0.049806
0.0530114
0.0503557
0.0506528
0.143436
0.0826096
0.0516627
0.152031
0.05514
0.298164
0.0587971
0.0560727
0.0678594
0.0659469
0.0607586
0.0922668
0.059441
0.306687
0.7164
0.0366839
1.03547
0.163019
0.362258
0.147515
0.0706871
0.945628
0.147173
0.097235
0.399371
0.282414
0.219061
0.0554494
0.293033
1.17717
0.11384
0.542303
0.442231
0.296469
0.0707617
0.141888
0.321708
0.1428
0.130174
0.338091
0.273293
0.133908
0.0690464
0.0761337
0.10756
0.113102
0.108818
0.336844
0.147253
0.492544
0.0566773
0.533283
0.0950693
0.0753621
0.0956643
0.102963
0.0971946
0.13407
0.0847812
0.091345
0.374063
0.315592
0.141118
0.317534
0.0980991
0.671911
0.438564
0.0432094
0.279682
0.322795
0.0886585
0.394438
0.1978
0.0860491
0.0975483
1.03031
0.150201
0.307988
0.0865115
0.0697843
0.174299
1.17371
0.0701679
0.111386
0.128923
0.0515917
0.109133
0.590778
0.302409
0.333021
0.0878097
0.339893
0.0702095
0.154331
0.375935
0.170785
0.158021
0.23608
0.090944
0.170377
0.0760176
0.464433
0.163793
0.11129
0.369574
0.0805169
0.0714843
0.225558
0.0981264
0.0751377
0.0744469
0.0920816
1.08816
0.11658
0.163997
0.16144
0.214546
0.620285
0.21718
0.785804
0.355796
0.380698
0.177369
0.110547
0.262975
0.382738
0.173422
0.369998
0.294797
0.407224
0.0987223
1.22333
0.392135
1.4327
0.0810809
0.163197
0.0842687
0.694396
0.111717
0.0964255
0.290645
0.378973
0.0909949
0.199679
1.12172
0.912547
0.312321
0.124783
0.0788781
0.0822047
0.295733
0.32362
0.0824841
0.0740964
0.644947
0.112981
0.100237
0.116226
0.117157
0.093848
0.108114
0.092404
0.107691
0.0923626
0.0970625
0.102046
0.105959
0.104404
0.110388
0.0944976
0.103021
0.0958878
0.0743215
0.0745385
0.12434
0.863949
0.0744119
0.0972504
0.0850644
0.07637
0.057397
0.119195
0.245619
0.186135
0.0894093
0.131083
0.0917587
0.156993
0.179888
0.199364
0.338123
0.0810436
0.0846448
0.0796584
0.733973
0.364613
1.17713
0.356866
0.664175
0.904467
0.094868
1.19526
0.144376
0.227786
0.149745
0.23685
0.0989235
0.0703599
0.818537
0.107182
0.0840824
0.0913273
0.0815542
0.190224
0.358612
0.162741
0.212989
0.313882
0.114301
0.310103
0.103893
0.15184
0.365527
0.133413
0.255907
0.137532
0.13967
0.180678
0.169509
0.106091
0.373544
0.133251
0.117576
0.284526
0.13561
0.240599
0.197908
0.172975
0.1615
0.366132
0.10273
2.24668
0.173832
0.125315
0.112456
0.190876
0.370979
0.129965
0.105026
0.169418
0.0899952
0.0795847
2.14056
0.246061
0.181824
0.183057
0.229419
0.134415
0.0856273
0.136281
0.34589
0.0930266
2.07293
0.0887793
0.135643
0.143762
0.313153
2.01884
0.155957
0.449169
0.308455
0.851053
0.104547
0.155421
0.149353
0.0751939
0.0758507
0.355989
0.314479
0.913854
0.785794
1.02827
0.297093
0.63621
0.19035
0.875096
0.147353
0.0880755
0.430178
0.0874294
0.539943
0.0744934
0.0850321
0.309691
0.881739
0.805153
0.0880496
0.862185
0.0994038
0.194719
0.154308
1.21769
0.0794155
0.147509
0.101313
0.13176
0.140879
0.136577
0.127394
0.303148
0.893582
0.988134
0.185392
0.136015
0.728978
0.359085
0.188453
0.786696
0.108959
0.0746838
0.428597
0.0758974
0.228135
0.124592
0.085068
0.76657
0.18007
0.139618
1.11482
0.106201
0.105797
0.0960112
0.876938
0.775318
0.124772
0.948941
0.106159
0.133729
0.0939444
0.167174
0.796806
0.400061
0.0941177
0.0950603
0.119196
0.192468
0.0980124
0.103533
0.794321
0.30794
0.119291
0.636396
0.124617
0.126479
0.100979
0.0992749
0.256903
0.325583
0.434306
0.0987397
0.110784
0.238882
0.106884
0.273364
0.0800274
0.144422
0.0739312
0.502482
0.0781177
0.0663859
0.332868
0.0746084
0.0759993
0.0912002
0.0757053
0.187194
0.18438
0.127744
0.0790615
0.28828
0.0971419
0.0767772
0.176963
0.192835
0.129272
0.134099
0.164071
0.0848506
0.0771633
0.0624721
1.08
1.66583
0.134993
0.134903
0.22453
0.112109
0.377137
0.0748032
0.0741116
0.0766557
0.121689
0.0757942
0.122229
0.0807409
0.272173
0.0751171
0.0756304
0.0781921
0.315014
0.0793648
0.074413
0.524171
0.157716
0.0780703
0.225243
1.1605
0.758009
0.126389
0.180596
0.229992
0.112962
0.109719
0.156229
0.271628
0.119547
0.107515
0.0918969
0.262414
0.0757592
0.0770264
0.116511
0.155701
0.118559
0.0746723
1.05277
0.0832681
1.11323
0.797745
0.0823625
0.40895
0.0734447
0.091515
0.262708
0.118208
0.10259
0.104289
0.131953
0.108891
0.0814232
0.130662
0.384163
0.0967127
0.100597
0.728003
0.155937
0.0804168
0.135681
0.16654
0.146049
0.127057
0.296571
0.306252
0.129959
0.138116
0.168154
0.3298
0.277286
0.122113
0.0841438
0.26772
0.0818516
0.0813602
0.384047
0.0976729
0.0914478
0.0733921
1.19451
1.05587
0.738836
0.167716
0.0823583
0.37215
0.579395
0.077058
0.855758
0.0868671
0.734166
0.252957
0.208366
0.776237
0.30085
0.125022
0.133793
0.136101
0.136208
0.185457
0.553576
0.208026
0.291894
0.103193
0.142608
0.38278
0.116261
0.146792
0.472767
0.826175
0.782357
0.233219
0.128662
0.155252
0.102438
0.354087
0.099556
0.0855594
0.154936
0.12818
0.125634
0.114832
0.291406
0.295815
0.352286
0.106448
1.18821
0.215946
0.0982986
0.28693
0.0748206
1.041
0.0990626
0.0913989
0.151197
0.301682
0.350212
0.474378
1.14587
0.29355
0.109718
0.123268
0.134447
0.0775103
0.116793
0.325242
0.148262
0.0925671
0.144484
0.099686
0.126148
0.257658
1.12961
0.143542
0.160186
0.130483
0.148851
0.0870591
0.103606
0.104157
0.11286
0.292278
0.151702
0.17503
1.19558
0.138874
0.09686
0.0965385
0.121966
0.167232
0.804817
0.769178
0.879475
1.3346
0.117249
0.312641
0.0970276
0.0873535
0.104447
0.11995
0.113113
0.455266
0.134704
0.130032
0.097464
0.0910069
0.468453
0.223077
0.356532
0.270901
0.152457
0.226071
0.149372
1.20973
0.225881
0.171991
1.29349
0.315594
0.107473
0.379923
0.234591
0.214757
0.285698
0.0744027
0.91411
0.226404
0.117964
0.199969
0.871926
0.455194
0.343547
0.0587205
0.0752304
1.44769
1.21941
0.100208
1.29894
0.0753554
0.074594
0.120603
0.0917872
0.70812
0.290807
0.0866104
0.190264
0.121868
0.104758
1.01046
0.199535
0.240579
0.106132
0.180497
0.190681
0.087443
0.152236
0.144931
0.408117
1.20943
0.190728
0.236116
0.973156
0.0723212
0.781026
0.420821
0.135018
1.23292
0.19251
1.26237
0.676662
0.115993
0.515967
0.110518
0.515707
0.964851
0.769891
0.142891
0.0827975
0.160778
0.964401
0.812548
0.179675
0.119525
0.0938919
0.112909
0.232308
0.801015
0.764596
0.268516
0.374511
0.81272
0.198173
0.13438
0.941121
0.158805
0.0584826
0.054521
0.275843
0.0901308
0.52769
0.868424
0.169041
0.22407
0.217143
0.287659
0.105367
0.151685
0.252445
0.100646
0.500459
0.37995
0.120242
0.0928677
0.238817
0.204734
0.169665
1.11366
0.0653986
0.273065
0.57815
0.363296
0.356245
0.159186
0.0868233
0.195375
0.0897515
0.652493
0.588044
0.136918
0.128562
0.101303
0.100311
0.234443
0.348483
0.100914
0.401754
0.434795
0.232223
0.0995047
0.186606
1.14031
0.134881
0.754468
0.147304
0.984946
0.370956
0.393258
0.130767
0.149158
0.0889512
0.10549
0.176706
0.17117
0.120203
0.386093
0.174365
0.649028
0.198488
0.353026
0.267975
0.237559
0.802244
1.09712
0.0940705
0.07367
0.0738927
0.191831
0.809487
0.29756
0.826637
2.98328
0.0917902
0.244008
0.172617
0.102266
0.12997
0.297326
0.237872
0.0777656
0.0669325
0.84208
0.158598
0.0934875
0.0935832
0.0871685
0.0995682
0.143292
0.877391
0.535017
0.0887411
0.351662
0.249109
0.489383
0.137499
4.70696
0.22752
0.156731
0.105811
0.476724
0.125076
0.0755305
1.05715
0.868251
0.0944618
0.390536
0.0975711
0.0937879
0.25465
0.0734531
0.649892
0.0831541
0.0859611
0.105447
0.934557
0.0939205
0.594192
0.723471
0.185182
0.126447
0.763779
0.0534433
0.244003
0.169434
0.0959348
0.149767
0.130455
0.138873
0.418725
0.201841
0.0857435
0.866718
0.10843
0.220863
0.746055
0.215686
0.0876132
1.1535
0.135342
0.0742787
0.53222
0.259513
0.105823
0.0889394
0.106983
0.104441
0.388026
0.0832169
0.119726
0.291879
0.223071
0.18768
1.09751
0.159715
0.140623
0.135332
0.320698
0.0858803
0.768126
0.100811
0.305704
0.732268
0.966455
0.291154
0.994398
0.0603969
0.0840981
0.0893725
0.0878909
0.165405
0.31536
0.088295
0.166875
0.124956
0.198114
0.0705282
0.168656
0.471875
0.107965
0.124248
0.13174
0.189708
0.14847
0.196521
0.359667
0.291218
0.269472
1.05062
0.111457
0.0936478
0.376403
0.279543
0.102744
0.0934757
0.154142
0.340339
0.129258
0.164773
1.19502
0.230178
0.162525
0.0915506
0.439268
0.149133
0.105767
0.252338
0.388317
0.2851
0.987568
0.951187
0.290085
0.0898216
0.15709
0.163958
0.155197
0.129415
0.315945
0.222842
0.133561
0.109014
0.0807821
0.35403
0.117009
0.0937501
0.133001
0.0951861
0.855211
0.301013
0.106469
0.192831
0.797683
0.0937759
0.622281
0.164406
0.251582
0.299353
0.0879547
0.116668
0.24284
0.116939
0.116044
0.376699
0.133192
0.0992965
0.384234
0.323912
0.552587
1.27123
0.305388
0.398904
0.146827
0.192256
0.126292
0.106151
0.458801
0.0741545
0.127631
0.79394
0.104645
0.770998
0.0889711
0.0799213
0.376542
0.0793558
0.0730192
0.0861099
0.238703
0.101373
0.0869037
0.780644
0.0973153
0.210508
0.907101
0.257871
0.0987528
0.26923
1.01625
0.162223
0.153162
0.142145
0.222068
0.0975823
0.384489
2.11533
0.124618
0.400143
0.0956589
0.11537
0.0628681
0.783009
0.593467
0.314854
0.323837
0.0745649
0.0872288
0.158899
0.329263
0.0708216
0.738201
0.240748
0.130244
0.275576
0.393899
0.193815
0.138227
0.124591
0.100137
0.347953
1.25399
0.795825
0.0734611
0.49189
0.343758
0.147227
0.107567
0.126227
0.332279
0.170101
0.288373
0.121961
0.0951938
0.0889736
0.402647
0.0796838
0.0756486
0.0922235
0.131075
0.0827073
0.0738521
0.114663
0.787489
0.229549
0.115342
0.321878
0.0951333
0.107267
0.0922549
0.604195
0.126233
0.128823
0.148493
0.14413
0.089585
0.292506
0.0977186
0.129636
0.132692
1.6376
0.0923897
0.0866207
0.238027
0.597047
0.65424
0.623209
0.11427
0.354079
0.128897
0.0971127
0.237304
0.0743705
0.0916265
0.176245
0.0978264
0.191216
0.0547338
0.166207
0.0724959
0.501944
0.135638
0.381522
0.26427
0.223181
0.501665
0.113871
0.137347
0.847964
0.0831294
0.160006
0.287772
0.0927602
0.423336
0.0752557
0.246817
0.0706022
0.108806
0.735143
0.344725
0.451075
1.4495
0.09988
0.119776
0.136807
0.107729
0.761586
0.110597
0.213353
0.113881
0.218062
0.300672
0.147476
0.835246
0.259454
0.101625
0.17425
0.104779
0.18084
0.104537
0.0880569
0.335587
0.0766908
0.119018
0.118627
0.0712821
0.12628
0.119476
0.738589
0.102433
0.216159
0.149612
0.134326
0.329059
0.255104
0.651104
0.164802
0.204167
0.25697
0.0975611
0.126464
0.722208
0.256598
0.3322
0.0840277
0.998711
0.112952
0.0971047
0.104708
0.712055
0.117393
0.76564
0.0786316
0.130783
0.0919887
0.0672453
0.106446
0.10425
0.147789
0.147495
0.282703
0.418851
0.140019
0.0909351
0.113392
0.210022
0.359145
0.451739
0.113737
0.666837
0.108297
0.228667
0.223242
0.230601
2.26633
0.0983847
0.146936
0.144671
0.218326
1.02615
0.12126
0.0902305
0.123771
0.119372
0.0896451
0.264194
0.160417
0.431843
0.0438831
0.11754
0.147464
0.784455
0.773119
0.105839
0.114496
0.0696627
0.279254
0.707832
0.149977
0.157267
0.158173
0.243049
0.0768485
0.436359
0.101203
0.0748428
0.322026
0.496813
0.107931
0.919357
0.155212
0.0705267
0.0854087
0.300229
0.222216
0.0977113
0.0855093
0.0807077
0.995742
0.982981
0.758735
0.17626
0.141135
0.202796
0.156443
0.361484
0.0832093
0.11037
0.0779971
0.755601
1.03737
0.100207
0.157422
0.18856
0.12795
2.51763
0.758241
0.150731
0.177297
1.12486
0.285842
0.402999
0.112446
0.772748
0.301461
0.258381
0.10239
0.113773
0.0908821
0.100858
0.0836704
0.150889
0.130213
0.548168
0.163092
0.27452
0.132902
0.28649
0.382752
0.0819567
0.0730681
0.099184
0.11917
0.818511
0.294829
0.0982272
0.134081
0.32217
0.126992
0.094936
0.0685628
0.0949312
0.0635211
0.113801
0.113004
0.232858
0.105515
0.229056
0.228235
0.49983
0.27246
0.265977
0.153901
0.787231
0.0895658
0.619096
0.329213
0.290417
0.361331
0.132796
0.101829
0.111913
0.200319
0.29279
0.256775
0.119461
0.0984589
0.21606
1.62016
0.669388
0.468657
0.329513
0.2895
0.330094
0.58008
0.703495
0.0986278
0.362871
0.133237
0.186423
2.70298
0.263066
0.0824112
0.120351
0.0918344
0.20623
0.503167
0.144415
0.315975
0.171526
0.166542
0.236128
0.139471
0.0927575
0.0949006
0.303827
0.0881151
0.101717
0.381584
0.0859022
0.786186
0.0897059
0.0704577
0.188453
0.0918279
0.421289
0.584062
0.165323
0.0735961
0.0900766
0.0874112
0.0991018
0.204452
0.261493
0.9354
0.126125
0.0849316
1.45234
0.305301
0.301181
0.0856761
0.163487
0.0821804
0.18543
0.136558
0.125912
0.413558
0.601309
0.0763601
0.379499
0.0775559
0.131653
0.115806
0.299527
0.218329
0.11494
1.25242
0.0905261
0.20467
0.0607943
0.0521863
0.25403
0.0499331
0.427352
0.571222
0.243918
0.0846502
1.01778
0.10883
0.0833337
0.0728257
0.0550614
0.645003
0.264002
0.0484541
0.0641901
0.350392
0.143365
0.190369
0.148079
0.217408
0.133105
0.140204
0.0587179
0.0468331
0.0624335
0.149171
0.572846
0.13287
0.507117
0.0743329
0.114605
0.0948209
1.04989
0.0583527
0.0865404
0.0421645
0.199993
0.201484
0.569515
0.216049
0.137895
0.128695
0.128532
0.969679
0.129079
0.732024
0.0934862
0.146704
0.571434
0.092385
0.198694
0.0926811
0.0880347
0.114755
0.124299
0.297017
0.0976781
0.143173
0.182795
0.0926471
0.0825223
0.068955
0.116471
0.0928748
0.171001
0.548691
0.754124
0.08934
0.103336
0.131046
0.0868236
0.682092
0.238748
0.382656
0.320784
0.129313
0.372221
0.0634838
0.338693
0.356559
0.0745961
0.150572
0.19179
0.0934664
0.0926144
0.168814
0.153196
0.586041
0.150235
0.329031
0.282946
0.404693
0.623479
0.125505
0.22381
0.226077
0.209891
0.108737
0.653426
0.161367
0.174223
0.0842991
0.10818
1.52905
0.27346
0.694322
0.154068
0.146511
0.311466
0.0973267
0.202494
0.226808
0.471776
0.475987
0.0789175
0.0994643
0.144958
0.0744145
0.107013
0.108577
0.107068
0.350124
0.105595
0.529759
0.430501
0.121174
2.42405
0.174438
0.165558
0.202188
0.127682
0.0478892
0.826
0.188045
0.133623
0.698571
0.751113
0.413347
0.109812
0.111842
0.0759282
0.11523
0.0726888
0.0871902
0.314799
0.11443
0.0970633
0.23809
0.122129
0.624953
0.149537
0.073855
0.189846
0.190048
0.137403
0.142886
0.746786
0.289217
0.201984
0.138796
0.247922
0.174552
0.171686
0.900528
0.617245
0.123727
0.034723
0.0436215
0.126791
0.464571
0.874026
0.125678
0.13963
0.105963
0.501585
0.310031
0.140618
0.701622
0.509932
0.119149
1.31865
0.103939
0.245061
0.0937817
0.378081
0.217513
2.64357
0.0671539
0.124659
0.105452
1.05078
0.0865536
0.0688945
0.0856822
0.554739
0.581854
0.208366
0.245445
0.159166
0.106178
0.925403
0.246198
0.164839
0.775685
1.55033
0.943554
0.0935513
0.0906522
0.142059
0.115498
0.131154
0.440725
0.125121
0.198237
0.60864
0.129516
0.17112
0.0611492
0.163157
0.244295
0.0394985
0.299722
0.157966
0.263486
0.0889014
0.497918
0.119955
0.491523
0.132606
0.108922
0.218541
0.549482
0.231588
0.121607
0.124045
0.557156
0.0835662
0.0670655
1.15571
0.196475
0.208286
0.115117
0.0688368
0.157978
0.125986
0.102099
0.121053
0.110118
0.0896397
0.216568
0.0904854
0.207082
0.0878431
0.0749375
0.0998435
0.152068
2.60576
0.133348
0.108976
0.259377
0.125217
0.145072
0.0830254
0.140651
0.0789941
0.282113
0.0850584
0.0940425
0.130008
0.210791
0.0918957
0.156878
0.121526
0.198717
0.106965
0.768688
0.3163
0.601574
0.165635
0.0827665
0.049255
0.204843
0.0677324
0.181444
0.671645
0.127316
0.362667
2.11497
0.309669
0.142333
0.126822
0.0657601
0.114076
0.0956975
0.245827
0.092015
0.988102
0.34658
0.117746
0.138553
0.230653
0.849786
0.0586829
0.735558
0.349046
0.120645
0.112436
0.263903
0.0692211
0.0602808
0.0687479
0.151734
0.109572
0.783657
0.0835726
2.35933
0.289176
0.51255
0.286791
0.222613
0.82103
0.118674
0.145769
0.204738
0.176645
0.138064
0.145471
0.0839903
0.133999
0.133521
0.149952
0.0849852
0.126133
0.153424
0.509941
0.139839
0.300206
0.0704421
0.202368
0.280579
0.216931
0.258761
0.235818
0.208763
0.381208
0.12705
0.112249
0.485688
0.102026
0.105544
0.157113
0.172301
0.118279
0.0848953
0.119056
0.0831401
0.245257
0.086379
0.0938716
0.109926
1.35895
0.535774
0.523603
0.0383242
0.512992
0.0391696
0.527026
0.501504
0.507521
0.50807
0.241842
0.100371
0.129606
0.202037
0.211851
0.524949
0.0738874
0.0713305
0.0662529
0.983251
0.815004
0.385307
0.212445