/*--------------------------------*- C++ -*----------------------------------*\
| =========                 |                                                 |
| \\      /  F ield         | OpenFOAM: The Open Source CFD Toolbox           |
|  \\    /   O peration     | Version:  v1912                                 |
|   \\  /    A nd           | Website:  www.openfoam.com                      |
|    \\/     M anipulation  |                                                 |
\*---------------------------------------------------------------------------*/
FoamFile
{
    version     2.0;
    format      ascii;
    class       volVectorField;
    location    "0.2";
    object      U;
}
// * * * * * * * * * * * * * * * * * * * * * * * * * * * * * * * * * * * * * //

dimensions      [0 1 -1 0 0 0 0];


internalField   nonuniform List<vector> 
1431
(
(0.356784 -0.247446 1.59136e-16)
(3.32355 0.790849 3.08214e-17)
(-5.58219 -0.14854 0)
(-0.204749 -0.109754 2.06766e-16)
(-1.15333 0.168636 0)
(0.948979 3.9881 2.53757e-16)
(4.11119 -0.199454 3.12014e-16)
(1.5415 0.247588 4.96065e-17)
(0.712544 3.24442 1.97823e-16)
(3.87803 -0.25934 3.09208e-16)
(2.76246 9.9172 2.01158e-17)
(7.21182 -0.158264 0)
(0.889968 3.57046 -1.62544e-16)
(-1.52929 0.133745 -5.32012e-16)
(2.1206 -0.100342 0)
(3.5484 -0.469766 -2.90319e-16)
(4.39273 -0.0402734 -2.27117e-16)
(-1.51519 -0.27278 0)
(4.96932 -0.09832 -1.7724e-16)
(-2.41552 -0.418952 1.53167e-16)
(4.07546 9.14303 -6.9574e-19)
(-0.777671 0.270899 2.21999e-16)
(0.606703 2.6395 -2.12709e-16)
(12.3346 1.9998 -3.45665e-18)
(0.702775 3.01981 1.98434e-16)
(-0.0266165 2.88733 -1.57171e-19)
(1.57103 9.72304 -2.07806e-17)
(2.02244 -0.598589 -3.67515e-16)
(-0.0672057 2.2864 -6.1555e-17)
(0.213818 4.51494 3.58933e-17)
(0.110178 5.39158 -9.66737e-17)
(0.164305 3.83956 4.86187e-17)
(-0.130606 5.40979 0)
(-0.374328 0.0744962 -4.71332e-16)
(1.01356 3.48007 -3.62161e-16)
(2.91156 -0.0872002 0)
(-0.653312 1.5785 0)
(-0.224246 -0.127078 1.84017e-19)
(-1.61328 -0.241215 0)
(0.122727 4.145 0)
(-0.657553 0.0750563 -1.03983e-18)
(-0.931815 0.379382 2.27442e-16)
(0.647578 3.8112 -1.9493e-16)
(-0.134012 -0.406764 2.04896e-16)
(1.20334 4.1954 0)
(-0.877533 -0.379216 3.25562e-16)
(0.766839 1.19023 2.45633e-17)
(1.18969 9.28241 -6.46186e-17)
(2.84049 0.124724 0)
(-0.215609 -0.607554 0)
(1.75999 1.88873 0)
(0.0144061 -0.623234 0)
(0.826615 1.50089 4.18141e-16)
(1.91313 0.0149503 1.67388e-17)
(3.84674 0.557663 -1.90169e-18)
(-0.272597 0.0941337 5.37423e-16)
(-0.375094 0.0981529 2.23136e-16)
(4.87801 -0.402639 0)
(4.05384 0.10277 0)
(-0.670776 -0.0227026 4.32442e-16)
(1.83315 -0.298131 -1.34598e-16)
(-2.17357 0.170534 3.25487e-16)
(-1.0145 -0.112734 0)
(-0.346652 -0.122357 0)
(-1.90744 -0.131085 7.81207e-19)
(3.30696 0.0431222 -1.68497e-16)
(-1.99462 -0.182156 -2.32085e-16)
(1.09082 -0.237273 -8.54285e-17)
(-0.127265 -0.144497 -6.21935e-18)
(-1.34129 -0.252467 0)
(-0.307851 -0.725524 6.50431e-17)
(-0.641985 0.214648 -1.57531e-16)
(-0.975106 -0.136009 1.19186e-16)
(-0.626857 -0.0773168 3.64392e-16)
(-1.74579 -0.0877593 3.83654e-16)
(-1.05687 -0.173048 -5.28191e-16)
(-3.44573 -0.389951 -1.7881e-17)
(-0.23059 -0.0688032 -1.9203e-16)
(3.03999 -0.404515 -2.27938e-16)
(-1.11808 -0.0461696 0)
(4.15639 0.0494811 -5.59866e-17)
(0.341645 -0.136643 1.21932e-17)
(6.29166 0.63203 -6.28013e-18)
(1.76106 1.80906 9.97937e-17)
(11.9655 0.725036 1.93706e-18)
(1.1078 -0.300037 -1.01526e-16)
(3.7861 -0.00585655 0)
(1.52974 0.411094 1.93978e-16)
(9.63417 0.141074 6.24462e-18)
(8.04429 0.580622 2.18347e-18)
(-0.120271 0.286495 -3.08897e-16)
(-0.454776 0.369604 3.15189e-16)
(-0.217737 -0.230995 3.1945e-16)
(2.93319 -0.688147 -1.00169e-16)
(4.24142 0.445253 8.15837e-18)
(-0.114411 4.31436 0)
(3.30559 -0.275051 -6.96823e-17)
(5.36355 1.29274 -1.32417e-17)
(-1.21108 -0.223013 0)
(0.486839 0.116538 -6.78684e-19)
(-0.158627 0.817639 1.97006e-16)
(-2.13933 0.0173422 -5.43415e-16)
(3.88316 0.137114 0)
(-1.00472 -0.168985 -2.9413e-16)
(-0.304669 -0.0258645 3.9958e-16)
(0.150959 4.36914 1.46234e-17)
(0.23336 4.12936 0)
(1.68863 6.74168 6.50352e-18)
(0.638355 1.95743 3.74523e-16)
(4.18111 0.174289 0)
(-0.942945 -0.128924 -6.39193e-16)
(1.06966 3.5269 -3.22605e-16)
(-3.38272 4.99885 3.18604e-16)
(-0.408532 -0.126594 -2.13906e-16)
(3.95999 0.689088 -9.11968e-19)
(-1.15737 -0.0315725 7.21258e-17)
(-1.19381 0.247924 0)
(-0.581795 -0.31084 -2.21072e-16)
(-0.126088 -0.036429 0)
(-0.669611 -0.152431 0)
(-0.570588 -0.360797 -2.31465e-17)
(2.08511 0.0853716 7.63783e-17)
(0.169661 0.194566 2.36493e-16)
(-1.79779 -0.140175 1.51753e-16)
(-1.09382 -0.230903 0)
(2.07317 -0.323866 1.46276e-16)
(-4.66999 -0.423427 0)
(1.2641 0.0547754 5.22832e-16)
(-5.38012 -0.568865 -1.58852e-16)
(4.0262 0.0994503 3.20157e-16)
(4.03627 -0.184393 3.0913e-16)
(-1.56853 -0.112986 -9.52086e-17)
(3.88204 0.105961 -7.56442e-17)
(4.11488 0.23926 7.59104e-17)
(-2.17403 0.192791 0)
(-1.4591 -0.366384 -2.97533e-16)
(-0.0796089 -0.0848955 1.866e-16)
(-1.73621 0.231214 0)
(10.3289 -7.09473e-05 3.15364e-17)
(0.273356 -0.0065698 2.13868e-16)
(-1.38138 -0.141256 0)
(-0.0154335 5.25823 0)
(4.24551 0.0326231 7.01034e-17)
(-0.838637 -0.059714 0)
(0.499986 2.04743 2.42672e-16)
(-0.184347 5.44394 -7.43481e-17)
(-1.4195 -0.150541 -1.77826e-16)
(0.194119 1.07636 -4.2734e-16)
(3.9258 -0.699188 2.13179e-16)
(1.03032 -0.326784 1.66943e-16)
(-1.38493 -0.278664 2.11494e-16)
(-0.609342 -0.106568 8.23454e-17)
(0.116848 4.04339 -4.44566e-20)
(0.0425501 -0.16902 -2.19461e-16)
(0.176513 4.13342 -4.62039e-17)
(-0.200723 -0.180042 -4.16721e-16)
(10.8575 0.45833 -2.02109e-18)
(3.01275 1.72757 7.51894e-17)
(7.16637 0.671028 -5.28449e-18)
(3.72343 -0.112016 1.99578e-17)
(8.20743 1.51316 -3.32662e-18)
(1.25066 3.82944 1.86273e-16)
(4.4395 -0.109597 -1.08585e-16)
(4.10832 -0.112524 8.25158e-18)
(0.467011 -0.0189123 -4.75854e-17)
(-0.283459 -0.185671 -2.28197e-16)
(-0.750536 -0.104316 8.42126e-16)
(4.37642 0.540226 7.88431e-18)
(-0.361405 -0.346941 2.49158e-16)
(4.6533 1.11132 2.85366e-17)
(8.4303 0.852858 -7.07909e-18)
(0.414265 1.75986 0)
(0.24776 4.53351 -3.89422e-17)
(10.3091 0.242112 3.39445e-18)
(3.40175 0.993571 -1.26897e-17)
(10.9018 0.252674 0)
(3.93797 0.0225773 0)
(1.05673 4.23024 -1.36879e-16)
(1.04117 1.57533 -3.58806e-16)
(1.11009 3.19027 -4.27121e-17)
(3.04472 -0.0281675 -3.24255e-16)
(-0.517286 -0.552574 0)
(0.587125 1.04875 9.88895e-18)
(10.8548 2.56547 -2.53016e-18)
(1.23064 4.07771 1.00184e-16)
(0.100165 3.12924 0)
(0.716817 1.90576 -1.07905e-17)
(3.60767 1.34798 -4.89633e-18)
(0.448089 4.50017 6.18445e-17)
(10.6011 -0.163652 2.08142e-17)
(-0.201043 5.09157 -6.10529e-17)
(0.303005 4.16575 -3.92892e-17)
(0.145177 4.16465 -6.32736e-17)
(1.1468 5.48291 0)
(-0.390207 0.161015 0)
(3.61895 2.60316 -6.9719e-17)
(5.05783 1.73728 0)
(1.33662 3.66065 -2.34419e-16)
(0.0620355 -0.0982173 4.64899e-16)
(0.509694 -0.118786 0)
(1.54742 0.543484 -9.36988e-19)
(4.39511 -0.0992223 -6.23124e-17)
(1.79625 7.48235 -3.8192e-17)
(3.76731 0.0182465 6.98558e-17)
(0.711586 2.91237 -6.49723e-17)
(-0.0559562 5.04682 4.02421e-18)
(0.0757686 3.57467 1.13444e-16)
(0.31053 -0.0926287 3.26789e-16)
(10.1375 0.639616 -1.09693e-18)
(0.192647 -0.25372 -2.04893e-16)
(-0.279669 0.0912477 3.16257e-16)
(4.19524 -0.152292 0)
(0.18965 4.07821 3.69011e-17)
(0.526904 4.3304 3.69325e-17)
(11.2326 1.03962 0)
(0.471797 0.484775 5.7794e-16)
(0.141698 4.16956 1.93748e-16)
(1.43243 3.9014 -5.54994e-17)
(1.75574 2.10155 -5.9611e-17)
(1.40497 7.04119 2.65627e-16)
(0.0958839 4.17011 3.30648e-16)
(0.173146 0.396673 0)
(2.67744 0.711729 2.45627e-16)
(4.23244 -0.124172 0)
(0.127177 4.13403 -1.80141e-16)
(10.1643 1.24891 1.92288e-18)
(3.13696 6.23225 -3.0049e-17)
(5.01382 1.18033 2.96176e-17)
(0.143739 3.69882 2.39558e-16)
(0.969789 7.52302 4.52284e-17)
(2.9776 0.186221 2.78538e-17)
(0.0297052 5.40007 1.75952e-20)
(-0.108894 4.19709 -4.03742e-18)
(0.186662 4.27117 8.85779e-17)
(0.171287 3.81303 -4.67818e-17)
(7.50814 1.05915 8.17627e-18)
(0.159655 4.02743 0)
(0.899868 3.94881 -4.59517e-17)
(-0.146377 5.22148 0)
(1.30874 0.221699 3.51482e-17)
(3.57823 0.0385418 5.77707e-17)
(1.8794 2.76929 1.60239e-17)
(10.11 0.908401 -7.25471e-19)
(0.563385 4.56727 0)
(0.487441 4.18443 2.95833e-17)
(-1.00899 -0.910735 5.81245e-16)
(0.630519 4.07997 3.10755e-16)
(1.5822 8.20537 0)
(0.00605979 4.25215 -4.01956e-16)
(-0.210512 -0.248609 1.97575e-16)
(0.675355 0.316855 0)
(9.83023 0.348805 -2.8644e-19)
(3.77088 -0.14502 1.91421e-18)
(4.1228 0.0849531 -1.15685e-17)
(-0.122342 5.03815 4.66916e-17)
(1.05969 0.980599 -7.8766e-17)
(3.82682 -0.17046 -1.5685e-20)
(10.2908 1.66719 -4.58501e-18)
(6.29657 1.67649 3.38103e-17)
(0.159095 4.10109 -6.11113e-17)
(-0.0287322 1.43435 1.56762e-16)
(10.3108 0.0535089 -1.93351e-17)
(1.20794 1.69181 0)
(3.96722 -0.0291925 6.33359e-17)
(0.0631585 4.01026 3.7358e-17)
(1.75333 5.9635 -6.30409e-17)
(0.842311 3.44954 -1.96445e-16)
(0.77777 4.36938 0)
(1.11889 8.73138 6.13483e-17)
(-0.302331 0.11311 0)
(0.881276 1.59864 -6.71917e-17)
(0.156311 4.11071 8.07382e-17)
(3.25539 0.63502 -1.41613e-17)
(1.71015 0.0956502 6.2686e-17)
(8.80215 1.30224 0)
(0.225744 4.73858 -6.59612e-20)
(9.38902 1.02978 -6.09411e-17)
(1.21344 4.80631 2.61662e-17)
(-0.0198967 2.14873 1.27068e-20)
(0.0377036 3.00504 -8.89717e-17)
(0.497724 2.25896 0)
(1.66786 2.41923 2.74391e-16)
(-0.1571 5.36816 9.81285e-17)
(2.19546 1.38588 2.50729e-16)
(3.75965 0.298587 0)
(6.08577 1.01963 0)
(0.521669 0.691231 2.07906e-16)
(5.7502 1.47241 -4.2086e-17)
(11.5393 0.48292 0)
(2.55995 0.840442 -3.32625e-17)
(-0.0264977 -0.021419 -2.6757e-16)
(0.999358 3.22246 2.14978e-16)
(4.65335 1.50154 -3.66837e-17)
(0.301772 2.00117 -8.56337e-17)
(0.868702 6.97836 -1.5462e-16)
(0.124926 3.52823 -5.835e-17)
(2.54204 4.67985 0)
(0.133987 3.29777 0)
(0.45347 0.752728 2.24596e-16)
(0.0786994 2.17391 9.934e-18)
(0.527702 1.49975 -2.74597e-16)
(-0.169168 0.0549767 -2.35833e-16)
(3.1843 0.471292 -3.76358e-18)
(0.432983 2.1999 9.72398e-17)
(0.0380354 3.4318 -5.65971e-17)
(3.89329 -0.183539 -4.35373e-17)
(2.55374 1.17547 2.26733e-17)
(0.193984 3.94917 -3.72961e-16)
(-0.38358 0.860237 -4.11225e-16)
(4.32853 0.998165 -1.93553e-17)
(4.16442 3.56069 2.41637e-16)
(1.50846 -0.0158573 0)
(-1.6681 0.264036 -8.06339e-17)
(-0.340788 0.0333935 0)
(0.714865 3.39707 -3.58167e-16)
(4.65787 2.08262 0)
(1.32593 3.39913 -1.47114e-18)
(3.77569 0.422014 1.51872e-17)
(0.404868 -0.320243 -2.45738e-17)
(6.08417 4.74491 1.16877e-18)
(2.0976 1.65852 2.35892e-17)
(4.10067 2.28637 0)
(0.183602 0.0312957 0)
(0.236647 1.70847 0)
(1.3056 3.58325 4.4755e-16)
(-4.18082 0.746565 -1.82234e-16)
(0.107767 0.0849483 0)
(1.05304 2.80545 4.56169e-16)
(2.51399 0.200228 2.90121e-17)
(4.18451 -0.0300858 5.47303e-17)
(0.810851 3.01199 2.23884e-16)
(-0.015171 -0.430812 1.9876e-16)
(0.965311 3.05848 -4.39665e-16)
(-0.412714 0.0992656 -3.67517e-16)
(3.64039 -0.0179137 -1.39135e-17)
(0.457904 2.51724 -4.16893e-17)
(1.2219 2.06716 0)
(7.00446 1.11546 5.8811e-18)
(1.30175 3.70609 -2.01179e-16)
(-0.150164 -0.392205 0)
(-0.251708 -0.120371 0)
(0.480374 2.84292 3.11944e-17)
(3.60711 4.9141 9.29611e-17)
(0.0737417 0.125501 0)
(0.592087 3.41419 2.0399e-16)
(-0.321229 4.51951 0)
(2.55435 0.611599 2.24499e-17)
(9.57419 0.705088 5.52785e-17)
(3.56854 3.9288 -1.7471e-16)
(0.362912 2.12092 0)
(0.757807 4.52222 1.90192e-16)
(1.17478 -0.897758 -3.41752e-16)
(0.161383 1.58353 2.48723e-16)
(2.59499 2.97902 -7.95374e-19)
(1.3582 -0.969094 2.65948e-16)
(1.79173 1.68674 -1.75928e-16)
(9.15225 2.93172 1.63486e-18)
(-0.628037 0.547619 -7.27324e-17)
(10.2149 0.14239 -1.31117e-19)
(-0.13465 0.386837 -2.86545e-19)
(-0.191332 0.358557 -4.47439e-16)
(0.0500891 3.00797 -3.70866e-17)
(0.302646 2.63843 -7.50252e-17)
(3.2114 0.31726 3.50006e-18)
(0.198176 -0.225956 -4.63888e-17)
(7.59589 5.77936 1.43417e-17)
(0.818308 3.09576 2.056e-16)
(11.6566 3.52734 -3.53311e-19)
(-0.124909 3.75366 4.57544e-17)
(0.430622 5.29058 1.28008e-17)
(1.32656 8.45096 -7.6822e-17)
(-0.711542 0.15031 -2.10039e-16)
(9.28212 0.2603 8.9978e-17)
(1.65163 2.42941 0)
(0.498543 0.233152 1.29193e-16)
(8.01078 1.18848 -1.07365e-18)
(2.736 2.43764 -2.31689e-17)
(0.241831 -0.0634665 -8.9934e-17)
(-1.00816 7.53872 0)
(7.93191 1.7086 -2.1841e-18)
(1.55066 3.83678 3.81936e-16)
(1.27428 3.87855 1.02964e-16)
(0.390493 0.285794 0)
(1.76785 -0.772612 1.39526e-16)
(9.78386 4.68851 -1.11617e-17)
(0.5717 3.63884 5.17122e-17)
(1.23316 2.35043 -6.91708e-16)
(0.45119 3.53265 3.16657e-18)
(1.15115 3.92485 0)
(1.7919 2.66863 -2.92864e-17)
(3.46889 0.115542 1.12871e-16)
(1.01418 2.39124 -2.18502e-16)
(0.915621 2.43517 2.19422e-16)
(3.97806 -0.176103 1.405e-16)
(6.94936 1.71468 -4.26459e-18)
(0.232357 1.58545 6.30939e-20)
(1.0296 3.43347 -5.91505e-20)
(1.13306 3.45974 -1.3664e-16)
(0.862885 2.88627 -4.34144e-16)
(0.764541 3.84629 -5.28154e-17)
(2.8014 3.49236 -9.44437e-17)
(0.849727 0.533915 3.63253e-17)
(5.474 2.11149 1.18666e-16)
(1.26115 1.22733 -3.38536e-17)
(0.755644 -0.0680446 -9.00669e-17)
(0.823203 3.38767 -1.94906e-20)
(0.7474 4.02688 8.90643e-17)
(-0.182633 -0.100351 1.0109e-16)
(3.79755 0.200851 2.97552e-17)
(0.749338 3.35083 1.66633e-17)
(3.26228 3.19294 0)
(1.30395 3.44018 0)
(0.679649 3.30304 8.17672e-18)
(1.38942 4.87337 1.35203e-16)
(0.463542 3.64797 -1.88752e-17)
(0.81835 -0.329584 2.15483e-16)
(1.94677 3.18797 -8.11281e-21)
(-0.142987 -0.641547 0)
(1.17241 3.80566 -1.89085e-16)
(0.630384 3.2372 0)
(-0.624494 4.83996 -7.64302e-17)
(1.11563 4.11571 -3.95054e-16)
(2.26811 1.84862 -1.02899e-16)
(2.29098 3.18181 4.07103e-17)
(0.60479 3.13896 1.82104e-17)
(0.121896 -0.0317515 4.71167e-16)
(-1.85032 -0.164992 7.31935e-19)
(2.94036 -0.0349581 9.01859e-17)
(-4.07287 5.20591 -1.56877e-16)
(11.9522 1.68576 2.07455e-18)
(0.951129 4.27595 1.38902e-16)
(0.0645874 3.80282 2.15084e-16)
(0.705002 3.31241 6.51392e-20)
(-0.915233 3.55805 0)
(1.15436 3.18787 -1.41909e-16)
(1.76155 3.61156 -1.10819e-16)
(1.48627 4.09121 -1.03772e-16)
(2.07859 3.46657 -2.13707e-16)
(2.04705 4.02689 2.98315e-16)
(2.09584 3.5672 8.42416e-17)
(0.459514 -0.702206 0)
(10.3355 0.380796 1.17019e-18)
(0.570811 -1.02263 -1.04141e-16)
(0.616837 -0.934151 2.88823e-16)
(0.926126 -0.527459 -4.18888e-16)
(0.675519 -0.47475 -5.74962e-19)
(0.450395 0.159951 0)
(0.384708 -0.00814604 -1.06442e-16)
(2.66787 1.10006 4.65907e-17)
(0.602714 0.553066 6.64502e-17)
(0.7796 0.59263 6.18782e-17)
(-0.463772 -0.858072 -2.52793e-16)
(1.09305 0.404998 -1.55071e-16)
(-0.890586 -0.695251 0)
(0.368212 0.692321 -8.54503e-17)
(1.79926 0.0962322 2.35466e-16)
(0.67415 0.36401 9.3649e-17)
(8.60812 0.27207 -2.17077e-18)
(-0.65942 -0.838504 0)
(-2.96575 -1.81403 2.21754e-16)
(0.491229 0.544308 -1.25897e-16)
(0.212244 -0.890699 2.31735e-16)
(8.6892 0.0703511 -2.90053e-17)
(0.530203 0.0140478 -2.62717e-16)
(-2.77371 -1.51374 -1.25284e-16)
(0.224564 -1.09755 2.58496e-16)
(-0.834918 -0.454055 3.64091e-16)
(8.67169 -0.082761 1.61166e-19)
(-0.269434 -0.941888 -2.44959e-16)
(8.78562 -0.15738 -2.45033e-17)
(0.911683 -0.389635 -6.31939e-16)
(0.662611 -0.608096 0)
(-0.860882 -0.475924 2.07855e-19)
(0.971078 0.0861535 0)
(10.3661 0.10295 3.43802e-17)
(10.4011 0.262541 1.07442e-16)
(-0.645912 -0.485747 1.30435e-16)
(-0.0995788 -0.227701 -1.3719e-16)
(0.594961 -0.0762488 6.84075e-16)
(2.20303 -0.686153 0)
(0.329479 0.0119396 0)
(0.52274 0.242293 0)
(10.1787 0.171826 2.31407e-17)
(3.17787 -0.237479 1.86007e-16)
(0.539242 0.197245 1.84189e-17)
(1.17903 -0.0784358 2.28434e-16)
(-0.97584 -0.676266 0)
(0.622078 -0.060211 0)
(-3.22942 -0.786693 1.51077e-17)
(-0.276054 0.0982438 2.06641e-16)
(9.72827 0.26857 -6.76212e-17)
(2.66599 -0.671808 1.79162e-16)
(-3.51126 0.625607 1.01528e-16)
(-0.435462 0.263819 3.67764e-16)
(1.79829 -0.158708 -2.69791e-16)
(-1.19223 -0.841749 -1.7625e-16)
(-4.05212 2.92788 7.78917e-17)
(9.52 0.52349 1.55397e-17)
(1.88785 -0.517201 -2.44237e-16)
(0.00910693 0.791956 -5.48465e-16)
(0.625202 6.32903 1.03896e-16)
(-0.485629 1.37849 -4.03039e-16)
(-0.886477 -0.370893 9.4345e-16)
(1.10307 5.51452 -1.14836e-16)
(9.59205 0.781255 -3.28523e-17)
(10.1597 0.49792 -8.95558e-17)
(-0.240717 -0.821455 -3.28741e-16)
(2.60784 -0.124554 1.86282e-16)
(1.13019 -0.378088 1.94648e-16)
(0.0379059 0.601377 0)
(-0.614751 0.547189 2.59135e-16)
(0.927614 -0.546866 2.77843e-16)
(-1.47479 -0.292859 0)
(-2.74767 2.84754 0)
(1.53669 5.9988 1.21088e-16)
(3.63893 0.0675666 -1.32932e-16)
(0.523925 6.5056 -5.37293e-17)
(-0.366078 0.571852 1.63254e-16)
(-0.626615 -1.1077 1.68312e-16)
(10.2149 0.748676 -2.85342e-17)
(1.24933 2.45673 0)
(1.65583 -0.0156294 -3.76037e-16)
(0.457541 1.16221 -2.10817e-16)
(4.07588 -0.145673 -5.24592e-17)
(-0.273359 1.27735 -1.1103e-16)
(3.59657 -0.243617 -8.02433e-17)
(9.80707 1.20653 5.40153e-17)
(0.128515 4.16718 -4.60033e-19)
(1.15957 -0.620594 0)
(-0.0803733 -0.129649 2.69177e-17)
(1.90324 0.817404 1.75829e-16)
(0.97917 0.521554 -3.1295e-16)
(0.129887 2.3928 0)
(-0.30717 -0.551326 0)
(1.7036 3.42688 0)
(-2.92823 7.18994 1.82248e-16)
(-0.129794 -0.066416 3.14572e-18)
(0.226945 4.47935 2.7666e-17)
(-0.151611 1.11431 7.28216e-17)
(1.45821 -0.210427 2.20594e-16)
(0.806461 3.20155 1.70184e-16)
(0.494171 3.9617 -2.19904e-16)
(0.620023 0.121468 -8.9703e-17)
(1.8485 0.443204 4.54054e-16)
(0.394948 1.77153 4.49577e-16)
(-0.213727 -0.217536 6.96587e-17)
(1.23002 1.86601 -8.55887e-18)
(0.754602 6.19485 -4.6008e-17)
(0.916458 3.35867 0)
(1.9165 3.12533 0)
(1.47108 2.67538 2.93536e-16)
(0.713164 4.64785 2.36763e-16)
(0.99933 0.876298 0)
(0.709277 3.01933 -3.92629e-16)
(-0.855656 -0.498727 -3.65752e-16)
(-0.703138 0.211951 -6.23087e-16)
(3.50913 -0.235083 1.35333e-17)
(0.685853 5.83263 -1.06995e-16)
(0.35822 5.34922 3.55145e-18)
(2.32017 6.42769 0)
(1.97859 3.01674 4.1022e-17)
(10.1583 1.58394 -5.17407e-18)
(4.70786 3.18275 6.81928e-17)
(0.298157 1.77791 0)
(4.99662 7.16095 0)
(0.300482 1.54375 9.69915e-17)
(1.16067 1.33759 0)
(4.17157 -0.123651 -8.17302e-18)
(1.37563 5.78528 -7.62672e-17)
(1.36239 1.80499 2.44167e-16)
(0.507102 2.79102 -4.14109e-17)
(4.48924 5.8345 -3.53342e-17)
(2.05961 4.07432 -5.71819e-17)
(2.70576 0.456258 -1.01417e-16)
(0.137914 0.795845 9.96667e-17)
(1.17129 4.30271 4.82657e-17)
(3.89894 -0.202311 9.68883e-17)
(0.0270023 2.84656 0)
(1.86932 4.68301 1.02438e-17)
(-0.604758 4.33406 -4.75609e-19)
(0.543669 2.89613 0)
(2.35034 6.32228 2.64052e-18)
(1.56171 3.73709 1.67453e-16)
(1.85181 3.55332 -1.39089e-16)
(2.27809 3.58806 1.88002e-16)
(0.187638 4.10167 4.92095e-20)
(0.31127 4.92591 -1.32353e-16)
(1.94488 0.986358 -6.76391e-16)
(0.267942 1.08208 0)
(0.574798 0.696853 1.31131e-16)
(1.63041 5.35895 -2.39458e-17)
(0.361061 -0.539022 5.18944e-17)
(1.50133 1.41693 -5.37955e-19)
(1.88182 2.49737 -1.30896e-16)
(-0.155196 4.38015 -8.23427e-19)
(1.31006 3.52465 0)
(-0.722377 -0.891919 -1.78237e-16)
(1.28619 2.58654 5.55911e-16)
(4.11131 1.47866 0)
(10.2062 0.432713 2.06469e-18)
(1.07776 7.71689 2.86812e-17)
(0.115803 1.98855 8.59229e-18)
(0.671022 3.41468 5.35609e-17)
(0.364993 0.0918704 0)
(1.95507 4.98751 1.21296e-16)
(1.41321 3.84256 -2.53292e-16)
(2.53167 11.7182 4.55676e-18)
(2.80469 4.17081 6.64271e-17)
(1.08824 -0.056557 -5.01399e-17)
(0.317836 -0.739892 -2.76203e-16)
(3.72645 -0.232268 5.13876e-17)
(0.334529 1.50796 -1.27566e-16)
(0.797867 2.35446 3.56359e-16)
(1.89027 4.55462 -1.44372e-17)
(0.26269 3.53112 -7.80466e-17)
(1.12578 2.43361 2.34025e-16)
(11.375 0.0917853 -9.02365e-18)
(3.68184 -0.0715136 -3.26683e-17)
(0.13759 6.87143 -7.66137e-17)
(1.19617 3.12248 -2.88966e-17)
(4.11362 0.836348 -1.3529e-17)
(1.57986 1.07123 -3.28924e-16)
(-0.0448468 0.470537 -1.0119e-16)
(0.846538 2.81975 1.92521e-16)
(0.321988 1.79982 1.30793e-16)
(1.00481 5.15787 -7.90766e-17)
(1.43889 3.43716 -2.17073e-16)
(0.298706 0.490371 0)
(2.70696 5.13812 -6.41513e-17)
(-0.00728903 -0.0877617 0)
(0.409733 2.1503 1.37306e-16)
(0.378728 0.598493 0)
(-1.93696 -0.0645345 3.80263e-16)
(1.94713 4.04026 -1.79064e-16)
(0.482811 2.67561 5.55391e-17)
(1.70509 4.10724 1.0178e-16)
(5.9719 0.438288 -5.93463e-17)
(3.33892 0.213307 1.11136e-16)
(0.533361 2.36447 -2.19971e-16)
(0.979217 0.413022 1.055e-16)
(0.864872 2.53806 -2.21386e-16)
(5.13385 2.73582 -2.25539e-16)
(3.12695 -0.0074934 4.86108e-17)
(0.690563 3.31116 0)
(0.320762 0.109371 -4.75885e-17)
(0.261787 1.70894 9.76245e-17)
(1.44776 4.69409 -2.37493e-17)
(1.29551 3.6455 1.48839e-16)
(1.38849 0.122122 1.4223e-16)
(2.16351 2.43579 2.22e-17)
(1.28638 6.20425 9.31526e-17)
(1.15159 1.48511 -7.20566e-18)
(0.107773 3.04889 1.45711e-16)
(2.1718 4.21605 -1.18739e-16)
(-0.309725 -0.656481 6.87465e-17)
(1.26531 3.73248 -8.53877e-17)
(0.568175 3.14441 -2.17409e-16)
(1.48961 5.71649 -5.23093e-17)
(-2.10492 8.20656 0)
(9.13567 0.469221 -1.52374e-16)
(7.59083 1.61326 1.13534e-17)
(1.24175 3.43711 1.53485e-16)
(0.335189 2.98704 5.30251e-16)
(0.325538 2.05639 4.19463e-17)
(0.723756 5.27264 0)
(2.93167 0.337259 -1.42239e-16)
(-1.81368 0.886879 5.90396e-17)
(-2.42518 7.10886 -1.54998e-16)
(0.676701 1.05292 6.58197e-19)
(1.19467 -0.618332 -1.51703e-17)
(0.617988 3.0169 6.62478e-17)
(4.55848 0.634268 -7.66921e-18)
(9.24692 0.449066 0)
(1.98468 3.5852 0)
(0.940655 6.51316 -4.4752e-17)
(-0.171591 -0.600036 2.27784e-16)
(9.84726 0.518761 0)
(0.187076 0.230236 -3.75313e-19)
(1.44107 4.23603 -3.15247e-16)
(2.29448 0.291778 0)
(2.29214 0.451844 0)
(2.33708 1.51234 -1.27501e-16)
(2.14446 2.85724 2.40603e-17)
(8.66101 0.385686 0)
(0.506783 -0.638218 1.89929e-16)
(-4.15804 -0.978481 -9.26342e-17)
(1.6642 5.02774 0)
(0.632381 2.59374 0)
(-0.386984 -0.521834 1.93936e-16)
(3.58283 0.168336 -5.2116e-18)
(-0.0520348 0.75046 1.45348e-16)
(-1.20141 3.725 -2.45807e-16)
(0.660312 0.536791 8.27639e-17)
(3.33512 0.145537 0)
(2.93219 0.0808559 0)
(1.50314 2.87228 -1.81675e-16)
(5.40515 0.259304 -2.01322e-18)
(1.71545 2.99395 -2.1073e-16)
(2.77881 0.037207 1.30203e-17)
(4.41815 4.7542 -3.75281e-18)
(4.56045 0.226328 0)
(1.58351 3.44209 0)
(0.608258 2.9908 -8.35875e-18)
(3.11678 0.117595 0)
(0.288411 0.600452 0)
(10.7013 0.599197 -1.14691e-18)
(0.196225 3.25394 -2.81681e-16)
(4.95916 0.243237 0)
(1.35291 1.89078 -4.51597e-18)
(0.645554 3.64802 3.27876e-17)
(0.255781 3.38156 1.01668e-16)
(1.23996 1.20054 -2.06315e-16)
(0.585282 4.64585 -3.89292e-18)
(-0.222819 4.44696 3.73126e-17)
(-3.824 2.08989 6.14468e-18)
(-0.13107 -0.0792967 -5.82942e-16)
(1.38874 5.30139 -7.96309e-19)
(0.236675 1.37578 2.63418e-16)
(2.04337 0.0043497 -2.46096e-16)
(0.672791 2.61591 2.17588e-16)
(0.608536 0.00280688 0)
(0.0192997 5.08439 2.00785e-18)
(9.97228 0.297189 -8.3965e-18)
(0.490616 2.56718 0)
(-0.157769 0.184643 6.25714e-16)
(4.60465 0.418128 1.42758e-17)
(-0.375217 1.78404 0)
(0.951715 4.4672 3.18556e-16)
(2.534 7.35 0)
(1.65453 7.87444 2.47152e-17)
(-0.115135 -0.394458 0)
(5.38847 0.88322 1.81342e-17)
(-0.988924 7.09657 -1.64695e-16)
(2.90452 0.070625 -8.72384e-17)
(1.08215 0.413967 -2.10652e-17)
(-1.24916 2.87753 1.91145e-16)
(0.689507 0.994904 -7.3771e-17)
(5.84774 0.278656 7.29434e-18)
(8.21407 0.320117 0)
(3.4471 -0.210124 -1.57328e-17)
(0.0751106 4.0421 0)
(0.428181 3.37891 0)
(2.66904 0.173307 -1.11896e-16)
(1.66808 3.86288 0)
(1.11488 5.01487 0)
(0.856604 3.99382 -3.63814e-17)
(1.98509 0.223338 0)
(-0.930528 -0.308929 1.77637e-16)
(0.330539 3.71764 6.74745e-17)
(-0.955659 -0.0296229 2.18329e-16)
(0.00995985 0.983707 1.71485e-16)
(0.477105 0.152825 2.19687e-17)
(4.14815 0.350863 -4.95375e-17)
(-0.0707748 -0.275224 -3.98587e-16)
(13.2348 2.53802 0)
(0.426649 3.91034 0)
(1.09831 1.66435 -2.40205e-16)
(0.200166 0.190146 -7.25747e-20)
(0.58888 3.92032 1.40966e-17)
(0.856474 0.488236 2.14278e-17)
(10.5193 2.16296 3.12721e-18)
(2.76802 1.26098 4.50586e-17)
(-1.07244 2.31061 -7.44389e-17)
(-0.682058 0.5477 3.74425e-16)
(-0.947942 -0.738993 -2.81093e-16)
(0.230423 4.15447 0)
(2.25336 -0.540645 3.59283e-16)
(2.95738 -0.256728 -1.75503e-16)
(0.676365 3.45215 -3.39787e-17)
(0.758234 0.00327159 -1.92265e-17)
(0.808562 4.83489 -3.32013e-16)
(-0.0253154 4.2628 -6.10302e-18)
(0.585508 4.17241 1.8396e-16)
(0.71002 1.53081 1.15336e-16)
(0.88146 2.00335 0)
(1.86585 2.30805 8.85234e-17)
(2.72346 -0.0369028 4.95347e-17)
(0.174555 1.33992 0)
(0.995898 3.37274 -1.83537e-16)
(-0.395214 -0.186284 -7.07063e-16)
(1.69728 3.11207 0)
(-0.144692 0.14629 -1.83109e-16)
(0.432308 2.47578 0)
(-0.946471 -0.663509 -8.37793e-19)
(3.87152 0.191314 -2.42503e-18)
(9.58505 2.08663 1.82564e-18)
(1.57547 3.92359 0)
(1.46769 2.22646 1.98819e-16)
(0.218059 4.41471 -1.18094e-16)
(1.74186 2.62014 0)
(1.06218 -0.288499 -1.1408e-16)
(-1.62305 1.22004 -1.20332e-16)
(0.104698 3.89178 -1.18607e-16)
(1.1197 3.39578 1.3821e-16)
(0.190102 3.50034 2.74014e-16)
(2.69222 -0.0059535 -2.7224e-17)
(2.60317 -0.280269 0)
(-0.131319 4.16395 0)
(2.66741 -0.303759 2.69982e-17)
(0.612046 2.65144 1.85285e-16)
(0.112416 4.08814 -4.31422e-17)
(0.710192 0.265693 1.27541e-16)
(-0.58891 -0.539266 -2.42753e-16)
(0.368479 4.70379 0)
(1.66961 4.81115 8.22117e-17)
(9.6037 7.03189 -1.30297e-18)
(0.315143 3.42236 3.63076e-17)
(0.587164 3.73326 -1.62933e-17)
(0.248017 1.48354 -1.01335e-16)
(1.42005 4.02697 2.02541e-16)
(4.78224 1.55626 2.51835e-18)
(3.84574 0.0470803 -1.10171e-16)
(0.589665 0.604321 0)
(11.0187 0.799908 2.22931e-18)
(1.5698 1.87351 7.77355e-17)
(8.42002 0.503045 1.11176e-18)
(1.42564 5.67331 -8.61516e-17)
(-0.256804 -0.382906 -1.8307e-16)
(1.2142 2.49017 -3.30549e-16)
(0.725613 2.88452 1.8248e-19)
(0.203497 -0.07175 4.95966e-16)
(1.254 3.5669 -1.27534e-16)
(0.3632 2.04992 -4.39944e-16)
(1.53479 3.60634 3.60505e-19)
(4.20929 0.210017 9.85148e-18)
(0.0680521 3.8623 -5.911e-17)
(1.33625 1.50579 4.10626e-17)
(0.0802018 5.19428 -2.42423e-18)
(-0.958282 -0.108032 0)
(0.801412 -0.604138 0)
(1.87314 3.08627 -9.35022e-17)
(6.34716 0.295709 1.65474e-18)
(7.82239 0.204783 -1.28774e-17)
(0.176404 4.26993 1.75906e-16)
(1.82319 2.44902 -3.24948e-17)
(2.49485 -0.0404269 6.70685e-17)
(3.50075 0.512712 9.4708e-18)
(0.28179 2.70294 6.25539e-17)
(0.702144 3.08269 -1.28212e-16)
(2.47709 1.12096 4.31267e-16)
(0.562726 2.63698 -1.24166e-16)
(-0.446492 -0.19038 0)
(-0.191313 -0.100111 -1.34457e-16)
(0.218809 2.19012 -1.25039e-16)
(0.665519 2.54408 0)
(7.98413 0.966443 -9.75687e-18)
(-0.225604 0.0859026 1.1246e-16)
(5.62851 0.215639 0)
(0.0345591 1.17434 0)
(6.28284 2.58194 -2.81547e-17)
(-0.175726 3.97724 1.98779e-17)
(0.215556 5.17972 -6.763e-18)
(0.15316 1.73686 0)
(-0.0801851 0.172942 9.61135e-17)
(-2.68266 -0.293529 6.09068e-16)
(0.792172 -0.442142 -6.09541e-16)
(4.06252 0.175006 -3.55889e-17)
(1.83464 2.01818 7.61107e-17)
(-5.58233 -1.12549 1.36731e-16)
(-0.0122065 -0.231937 0)
(0.477155 0.762586 -8.46794e-17)
(1.96647 2.97718 -1.99989e-18)
(1.42574 3.32696 8.16446e-17)
(1.64735 2.34292 -2.90486e-17)
(1.49667 4.15879 0)
(0.712065 3.51772 1.05263e-16)
(1.663 4.43397 8.47894e-17)
(3.67122 -0.709579 0)
(9.60543 0.474598 1.3303e-16)
(0.675593 3.57505 0)
(1.79815 3.69559 0)
(3.30845 4.34391 -2.62376e-18)
(1.14984 3.25395 2.39002e-16)
(0.302059 3.7727 1.50838e-16)
(3.10748 0.320059 -2.10004e-16)
(-0.835814 -0.352963 2.34881e-16)
(3.61028 0.139586 1.7129e-16)
(0.278102 1.20483 0)
(0.64214 3.58735 4.37987e-20)
(0.41073 2.01538 -2.4551e-16)
(8.19374 -0.204637 -6.1342e-17)
(1.31092 -0.274243 5.35301e-17)
(0.579583 2.1733 4.05931e-16)
(0.384455 0.553477 -1.23478e-16)
(2.21651 1.767 1.39562e-17)
(6.74584 -0.28602 3.86293e-17)
(3.78414 -0.0453199 -6.17306e-17)
(0.165617 8.02616 8.56861e-17)
(0.122331 2.68951 5.53954e-20)
(0.116958 2.52329 1.22614e-16)
(0.0766914 2.20313 1.15967e-18)
(0.093183 2.3458 0)
(0.124677 8.88212 -7.49147e-17)
(0.121546 2.83011 -2.25394e-16)
(0.0308682 4.30753 -8.66516e-19)
(0.0595466 4.15168 -2.43691e-17)
(0.0354857 4.19816 0)
(0.0397113 4.44802 4.8846e-17)
(0.189296 7.34209 0)
(0.201058 9.71634 0)
(0.0260947 4.62569 -6.44752e-17)
(0.329884 6.01443 -4.58653e-18)
(0.262763 6.69168 -4.22064e-18)
(-0.000389155 4.71655 2.05688e-17)
(0.104615 2.92451 1.1666e-16)
(0.078914 3.02123 0)
(-0.0454058 4.66533 -2.83764e-17)
(0.0564871 3.11395 0)
(0.0430684 3.21452 0)
(-0.0949152 4.53243 2.13409e-17)
(0.0371979 3.31961 0)
(1.62596 4.75849 9.26768e-17)
(5.5648 4.0727 -5.59026e-17)
(0.0144067 -0.872541 2.56558e-16)
(-1.08851 6.71423 0)
(1.31393 3.76677 -1.23784e-16)
(-1.28043 0.0610561 1.01025e-16)
(0.00846273 0.243005 5.89065e-16)
(8.43531 1.84416 -1.55457e-17)
(-0.0480459 3.59249 -2.69794e-17)
(0.689618 5.55023 0)
(-0.731207 0.407065 5.42986e-16)
(0.237361 -0.390386 3.21095e-16)
(2.88456 0.406708 0)
(5.65144 -0.156281 3.10469e-17)
(0.570553 -0.355819 -2.49968e-16)
(-0.960055 -0.783103 -1.68432e-16)
(6.21378 3.26612 9.75647e-17)
(1.79102 3.3235 -5.55655e-17)
(1.83296 4.41607 8.62002e-17)
(1.35873 0.950253 -5.20298e-17)
(3.77479 0.00771345 -7.22734e-17)
(8.19463 0.796155 -2.82621e-19)
(-0.810955 0.352693 -3.24946e-16)
(0.0338776 3.43085 0)
(1.15839 3.55135 4.00018e-16)
(1.80025 2.81826 -1.45104e-19)
(0.327696 0.0406829 7.3302e-17)
(-0.115223 -0.337968 0)
(10.5577 0.0599284 2.74595e-17)
(0.0102955 1.03135 -1.67141e-16)
(2.04345 0.307009 3.8856e-18)
(1.42205 4.50087 1.23805e-16)
(1.05563 1.25241 0)
(0.265058 1.74665 1.09238e-17)
(0.39404 2.16442 -8.49858e-17)
(8.93691 2.78319 2.27372e-17)
(-0.0384946 -0.636453 2.9837e-16)
(-0.930418 -0.413997 -2.62974e-16)
(-0.962739 -0.260274 2.04187e-16)
(1.35976 -0.317534 -6.0308e-17)
(0.398946 2.39897 4.53924e-17)
(-0.0828432 2.4946 -5.72054e-20)
(0.125994 4.29012 -2.11465e-17)
(0.148733 6.53119 0)
(1.27095 1.88315 4.81144e-19)
(-0.215984 0.424112 6.90625e-17)
(1.98541 0.487105 1.17509e-16)
(-0.657132 -0.727593 0)
(-0.021203 0.480008 -4.2342e-16)
(-0.234763 0.543839 0)
(10.9017 0.614233 2.00662e-18)
(1.00915 3.38179 0)
(1.00344 1.98052 -8.40647e-17)
(0.135097 0.951916 1.84261e-16)
(-0.992681 -0.322865 2.75822e-16)
(2.06213 0.0719628 0)
(3.29323 -0.0558806 -2.61178e-17)
(0.0385312 3.55956 4.42261e-19)
(0.425678 0.0702871 0)
(2.85144 -0.0434856 0)
(0.724736 1.87611 -2.92397e-16)
(-0.403554 4.07983 -1.1369e-17)
(7.31867 0.0158516 0)
(0.240683 0.0692301 -1.38417e-16)
(3.2954 -0.0638922 -1.85687e-16)
(-1.30142 -0.465674 0)
(0.887801 5.965 2.1936e-16)
(-0.153631 0.308104 -1.49903e-16)
(7.68879 4.81276 1.76234e-17)
(0.707001 3.47162 3.27559e-17)
(0.466018 3.19797 2.23999e-16)
(-0.739397 -0.51217 0)