/*--------------------------------*- C++ -*----------------------------------*\
| =========                 |                                                 |
| \\      /  F ield         | OpenFOAM: The Open Source CFD Toolbox           |
|  \\    /   O peration     | Version:  v1912                                 |
|   \\  /    A nd           | Website:  www.openfoam.com                      |
|    \\/     M anipulation  |                                                 |
\*---------------------------------------------------------------------------*/
FoamFile
{
    version     2.0;
    format      ascii;
    class       volScalarField;
    location    "0.82";
    object      epsilon;
}
// * * * * * * * * * * * * * * * * * * * * * * * * * * * * * * * * * * * * * //

dimensions      [0 2 -3 0 0 0 0];


internalField   nonuniform List<scalar> 
1431
(
0.311553
4.12779
92.9024
58.8867
0.252342
25.8858
1.74949
4.42874
90.0917
22.3131
11.2616
1.20674
0.58119
59.0747
49.3387
26.0878
58.0177
1.83527
8.57362
10.0553
0.423184
13.4367
30.5701
65.5976
49.9358
9.17919
53.2014
53.3175
22.1474
1.01491
49.369
12.2714
31.5308
2.45916
2.18206
45.7587
9.34737
10.2768
9.07459
9.83408
146.745
8.48104
1.52803
1.63433
33.7823
0.615817
36.348
4.95221
18.196
16.353
1.06996
22.6278
66.4304
1.92851
1.53038
4.83429
26.2297
51.3771
53.5827
0.583366
40.9924
4.50573
48.7287
9.82406
35.0807
1.96152
76.9379
26.7023
3.62325
12.5034
1.66083
1.59457
2.07646
20.2253
6.82003
28.9868
0.248374
59.9859
5.76168
76.8722
8.11558
1.15759
0.756744
52.6384
82.5995
0.215362
0.388714
12.5614
73.304
7.16822
2.77864
34.6902
0.340182
10.1771
1.45989
0.274628
6.37307
8.67594
0.452264
30.7371
4.0745
5.55323
5.90652
0.44587
20.0606
0.880253
6.60906
159.637
64.3247
0.217308
92.7349
2.94575
5.51192
4.81182
17.6095
0.553768
1.54478
17.8373
82.8358
27.4593
8.9577
60.1404
25.2636
54.0867
9.33326
0.888142
95.0565
1.35003
0.38144
26.3994
3.50978
126.753
48.2355
6.2446
0.330221
61.1772
2.79609
3.01602
1.15442
138.617
37.9884
0.620414
9.82475
18.6747
21.111
16.213
8.7476
158.978
3.92414
14.6084
28.2251
38.4459
1.79354
0.464104
4.11894
1.11566
8.98672
4.72859
5.1063
8.45279
1.68326
7.59006
2.40996
8.53236
0.497734
125.296
0.238154
9.64336
1.04114
7.2402
33.4556
16.0039
48.5555
17.4307
9.32685
0.553625
3.15488
25.4581
1.23598
5.99725
10.7422
30.1198
5.1245
6.01641
14.1346
16.5957
6.38467
48.9072
9.051
10.085
1.16729
73.9116
0.263164
7.36117
95.4369
8.12057
6.29627
7.36981
3.54858
1.94957
1.17115
72.4052
12.2247
163.103
6.9505
60.8935
0.254771
10.0437
6.83803
22.9781
7.96374
5.35376
75.4915
9.71894
24.6906
30.5559
4.77335
0.784755
10.6054
9.99532
9.23079
61.1179
21.4954
143.49
11.0584
28.9769
26.3063
5.8585
18.726
49.8278
0.297682
37.5074
11.025
4.56314
4.40923
4.81906
10.0737
0.574308
8.20157
1.05742
10.3593
10.1046
74.2602
65.6354
1.25159
1.67801
10.3664
1.87075
2.21073
27.0716
8.85027
85.7092
19.1013
19.6825
45.07
36.1375
1.2447
1.22649
30.7093
33.8614
38.0112
3.27403
0.49053
43.5037
4.50058
18.1171
28.7664
7.56277
16.3493
50.2569
6.94861
22.8244
8.70539
8.63418
40.2565
8.68425
5.71182
1.02033
2.0946
25.6808
86.9579
0.906106
4.26747
5.40471
31.7299
45.4167
0.238063
4.3525
22.8859
9.25015
17.7822
11.4998
4.48998
1.07192
10.3324
5.56925
0.275552
7.5287
1.58614
7.21655
11.1078
26.731
0.359866
6.37402
4.09434
2.02005
8.61588
34.7655
32.2524
0.365496
9.98617
13.0796
38.0727
0.494472
2.78863
2.32184
28.8614
1.04236
4.42959
3.4388
1.74426
2.26117
39.1332
1.17022
20.4904
4.1149
7.39316
4.16459
78.2313
9.35871
9.9579
0.369036
0.738154
1.11698
8.84271
58.4052
1.45854
1.09923
1.47791
0.430992
1.15345
7.60476
4.85119
18.3974
46.085
0.507397
11.3828
0.407595
0.315658
1.33545
0.894159
0.98235
0.79521
1.06642
1.19333
1.5608
0.702518
0.712479
1.02326
1.833
1.18302
1.18652
1.1251
0.184592
0.62901
0.348855
1.24642
1.71047
16.8129
23.9611
3.33718
0.857617
2.92968
13.1304
0.92796
55.8798
7.50143
11.4942
13.9056
1.0143
1.14936
0.460275
0.862735
0.685948
1.54571
1.18965
1.67343
0.960246
1.03023
0.163911
0.471724
63.3223
21.1757
13.9162
3.50106
2.77175
0.549441
10.7391
6.91037
9.11598
1.19122
6.10793
10.2519
1.46244
7.52623
12.275
1.00983
7.82079
0.37096
13.2225
41.3656
10.8654
1.31203
61.9042
19.7848
42.5309
6.37776
61.3866
0.716064
0.397852
1.07936
2.33673
7.495
1.57288
1.95516
7.7393
2.11419
14.1286
44.2275
8.58614
54.4448
1.8705
7.63453
5.24411
0.873545
9.45547
2.53175
5.73083
1.15595
2.50149
1.59359
120.456
3.74083
2.77316
1.28077
4.40237
8.97809
1.49456
1.39908
11.244
6.95346
5.73504
8.48835
7.75935
2.98194
7.36614
5.27646
4.63927
6.36784
0.878793
50.5652
8.57625
4.46678
12.3198
0.870875
0.846189
0.326683
80.3103
4.18802
0.788295
78.4332
1.43442
6.0413
45.3767
6.62137
0.670932
61.8311
56.9932
79.4914
2.28433
2.74151
1.30408
47.703
4.82582
10.5309
9.03363
15.4465
7.18203
3.8993
0.772361
0.613222
4.44514
0.603197
62.6777
2.42707
1.20692
91.0607
1.23417
11.3715
1.1781
22.2191
124.441
14.8766
11.7698
6.70119
0.987988
0.549723
7.36558
3.95498
90.1308
73.5856
1.23823
6.29314
13.0375
11.3153
4.45937
70.1183
108.12
3.2208
1.02485
0.908908
1.00228
0.787439
0.485067
1.90324
3.17817
3.50815
3.68526
0.866556
2.63768
10.8619
6.73595
1.24092
0.803415
4.50664
3.35183
29.1905
2.6267
4.47385
41.3778
13.0439
53.0077
5.65689
17.2287
1.29618
10.1335
6.24754
5.34075
5.62561
0.515516
1.18162
0.472663
31.5118
3.60119
0.760997
5.77619
44.6026
8.30208
32.2989
4.44478
6.11419
2.12938
66.4916
67.4877
39.8732
1.31542
2.61831
4.94237
40.9182
6.23238
0.619084
10.469
46.7164
10.2427
61.132
3.88698
2.18902
1.00644
3.50062
18.1044
1.13225
5.62638
4.72499
11.0723
2.67572
2.6184
3.80476
11.4065
1.10458
18.0263
22.4817
46.1867
13.7241
10.1358
8.93661
2.49117
0.27585
1.37853
5.09372
0.315263
4.63965
3.44507
0.460313
6.5439
15.1611
6.94543
7.30595
0.448871
15.5836
80.8482
52.0027
4.28738
0.831307
16.8653
66.8831
5.09391
64.174
34.1843
28.9261
5.3335
0.374095
1.41753
2.09414
0.345599
0.790461
9.12319
0.346615
0.27083
3.14788
5.91384
16.9994
2.04522
0.452726
6.35119
1.37255
4.20469
0.404426
4.81782
24.5593
2.37549
6.52036
27.0767
6.81704
5.60184
0.813308
27.3718
6.05091
72.7545
19.74
2.26284
1.16952
1.88475
8.09865
30.6827
69.3378
3.73264
7.23469
11.8064
1.71621
4.64885
14.9335
0.44408
2.98398
3.47252
8.6943
0.361212
13.6832
10.0474
4.92391
27.7481
0.304205
7.65054
2.54095
21.2528
11.4108
11.5965
23.5205
18.1988
0.313675
21.1065
34.4327
0.688305
7.18618
1.54148
0.837604
1.72631
2.07676
24.4442
13.4316
1.36465
64.4428
20.3916
13.8805
1.22296
2.71063
0.366377
0.310399
0.464131
8.10933
5.1175
14.6846
0.394589
4.16966
0.333472
0.32341
29.6232
27.9987
8.7842
13.9275
166.444
0.94916
0.32602
0.432838
10.201
26.0976
25.1512
5.16576
101.231
5.47865
0.972885
23.8923
9.61334
5.32899
71.6847
0.34156
26.2694
12.732
45.441
29.9278
1.08104
2.9043
0.456654
28.4378
28.2875
59.7599
4.23916
3.39787
0.918672
8.03737
3.21263
21.4839
59.6347
13.0477
0.787346
40.201
22.2183
5.36148
20.2727
41.8399
0.315075
50.4236
4.33996
28.8225
31.5203
4.35599
3.29917
13.0552
29.119
18.2782
110.936
50.3266
47.2571
33.9608
34.1831
9.87864
36.1407
6.94016
39.079
42.7571
29.9227
0.890513
64.9393
0.27039
0.354865
8.29786
37.8097
0.440787
38.0958
2.58847
0.328512
0.787269
1.47035
33.2954
40.5076
1.90202
147.758
0.370391
0.419835
3.24388
131.607
5.40849
4.30601
81.7431
36.0746
13.9624
10.3414
0.236117
0.337842
64.6861
5.88255
2.71489
32.7931
6.01732
0.330829
0.535379
1.53455
40.1721
1.53992
41.481
0.280096
8.55647
6.11129
51.4398
0.343534
76.7521
31.2
37.1536
40.507
46.6141
35.1083
27.8199
31.8682
35.3976
3.2039
4.00981
17.1801
1.73214
37.9807
0.32173
0.35196
1.01115
0.508798
0.528273
0.655829
0.532741
28.3286
1.55994
30.5287
0.946329
1.83248
4.36612
8.29772
8.53605
34.6942
92.0613
6.86736
0.552719
2.39083
2.65296
6.17749
4.59434
3.31006
1.70073
1.87184
40.1673
3.38549
19.5981
56.1652
11.0455
12.3242
5.66137
4.85051
0.428795
1.89686
1.21369
0.320213
5.21148
4.93121
0.405176
0.46218
11.4889
37.5224
1.40346
5.94672
0.546315
7.15269
1.63196
1.6515
1.20231
6.78293
0.41917
0.322029
2.80902
0.540524
10.374
0.3418
3.04793
51.319
42.0382
10.8648
20.4945
78.3845
18.6216
7.93444
7.47941
58.3108
0.455044
0.589836
1.07047
0.385095
0.964321
1.01248
4.34599
3.84413
59.9589
53.0675
25.5654
5.47186
0.412818
5.77063
2.40286
5.55827
89.8081
1.45991
4.78579
14.7564
11.8766
13.2515
6.4585
0.409005
1.28785
5.54227
2.79024
6.01182
5.07335
42.8377
0.442505
34.6568
24.4029
36.0946
50.0377
4.34474
5.19136
19.1623
15.7411
17.3413
20.903
14.3152
13.0322
3.70333
0.906629
0.692644
6.90166
11.5157
0.344319
1.12279
92.7855
0.231151
1.31249
0.518078
14.6214
0.604436
28.2752
3.92289
100.244
0.50193
9.01984
1.59872
3.65365
2.09584
44.6461
36.0138
0.927467
1.22649
3.02978
0.730403
5.36106
60.4621
0.33299
23.865
11.8497
4.85367
2.70692
31.5141
30.803
6.6819
6.35003
1.17221
2.09812
2.33535
6.00523
18.8214
2.31691
57.7581
34.4161
47.5398
1.176
62.0693
0.222144
33.7617
0.310414
6.97627
1.99463
4.0273
11.6676
0.586556
73.0064
43.6984
115.175
0.217003
68.859
82.8363
23.1135
3.30895
3.99524
4.56069
35.015
68.0102
13.0647
4.47193
24.0574
10.1029
5.77218
8.63171
55.0453
72.1796
39.169
36.101
1.46822
25.5436
11.7806
39.0347
0.804807
33.4586
44.1629
0.673272
1.65906
1.77061
24.0091
154.945
18.0692
10.9492
2.53975
82.4627
1.74997
33.9728
60.1444
10.7629
1.2519
2.7724
34.565
0.295073
0.24995
0.352543
1.58637
0.820369
62.3074
29.5116
4.30905
38.9978
0.797465
30.6576
42.1084
21.8874
1.8216
1.66459
1.84276
18.1931
0.975677
5.01035
1.90088
71.7537
12.9889
38.8188
5.26279
1.72372
15.6719
11.0836
11.4807
35.3842
2.60953
4.61041
29.1372
34.6374
6.53456
1.00425
0.779971
69.174
14.1801
14.1373
0.457919
1.11561
1.16721
1.02597
7.24028
0.354667
27.2538
55.1245
22.8012
56.5843
2.26944
17.9327
0.934343
5.00654
43.4285
0.202187
2.02338
12.0802
0.472469
56.2594
82.7056
0.285253
15.9332
74.7235
1.27216
14.6164
14.6658
0.27391
0.33496
45.0796
1.16383
61.3808
1.60584
59.1471
1.87335
78.5967
5.54002
0.897278
18.0792
7.03908
0.759498
1.06949
15.3028
0.297115
98.108
0.180631
1.45849
3.74878
2.20005
1.71743
14.463
3.67428
0.341647
75.8052
4.99978
5.70539
2.51213
28.135
0.828412
0.391765
0.383105
2.67829
99.1895
21.6454
3.21883
4.82638
58.0813
0.824946
58.5114
7.37424
54.7988
0.19132
0.354947
47.3186
1.18448
1.45876
84.6921
48.2897
45.6715
8.90046
112.991
0.311664
0.676296
0.791645
20.6515
60.7234
111.421
0.237015
0.347606
0.265588
12.1214
9.02941
87.9238
90.5873
39.0515
14.3824
4.80686
2.56995
2.97164
4.0815
106.327
46.2846
4.45092
0.322691
3.66466
43.7598
72.2279
49.0355
28.4342
0.373414
0.728539
59.5285
30.6532
0.282226
86.1211
44.5218
60.0801
5.68351
1.6244
11.0085
31.8605
31.1057
53.4674
1.38014
75.6334
46.7587
12.6604
0.299847
20.1342
13.2128
14.2272
44.594
30.6736
7.51384
1.5928
0.618334
87.3061
2.43142
1.32226
70.4195
2.43969
22.8226
35.2713
0.631259
63.0622
4.64257
6.92313
8.59232
19.7988
12.6211
37.0456
87.8602
0.234152
86.4484
0.30139
18.3875
53.3703
0.369086
0.87634
0.636741
1.41653
72.8439
41.4871
3.69595
4.89156
7.79933
0.42464
1.17023
27.5192
9.03004
0.444479
9.86014
4.63875
1.49375
102.853
13.5186
58.3969
30.9205
30.5591
1.79874
0.300671
1.30251
60.5173
44.8066
18.3195
12.386
11.062
51.2586
1.49308
91.8649
7.23662
1.08581
0.844802
7.63097
12.5226
5.65353
15.7275
7.55537
34.4736
41.036
22.4887
2.50322
5.83059
14.419
2.10932
77.8215
25.8384
74.1404
15.9145
1.90104
83.4112
45.4546
48.8588
0.396919
1.68484
13.0985
1.53237
53.3752
0.309121
0.391022
43.601
6.01431
46.6408
36.2284
11.6178
12.3811
8.94219
12.5319
2.08737
13.8786
11.8599
20.268
0.503279
3.19381
3.14096
0.364411
9.61205
45.8757
0.892654
1.75598
0.383872
0.286627
0.698913
13.4153
0.797279
69.0635
52.171
13.3318
6.53291
3.64502
1.94654
2.38667
0.467931
1.01643
5.38241
0.57727
67.3801
5.89442
26.4699
0.373031
7.12838
2.99053
1.01423
116.467
0.32036
0.791112
1.48029
5.07339
1.25763
0.477291
0.694782
35.8957
1.79026
3.74476
1.87368
1.01967
1.54487
30.2144
9.80465
4.22798
3.08218
0.769196
7.35712
0.825731
60.2791
4.69069
9.56456
5.00595
0.341966
20.1609
37.2674
7.58169
7.05355
1.43565
3.82091
1.32115
22.8353
0.307095
6.72312
18.8668
13.7665
45.9683
0.874475
157.955
6.11301
44.2938
81.5748
12.0937
3.50468
0.606029
16.4051
8.22879
52.8559
2.90786
30.6001
0.298535
44.869
0.313518
0.286549
14.8969
5.04463
12.607
8.24354
56.2561
3.55183
49.8067
41.4492
34.1015
41.4844
4.83746
1.51374
5.63473
61.8073
14.8603
11.8796
11.9032
72.319
17.0465
89.0088
18.7437
23.7756
23.8036
5.04939
44.5367
18.2041
2.37852
46.6297
133.501
2.92349
38.6173
73.9412
)
;

boundaryField
{
    frontAndBack
    {
        type            empty;
    }
    wallOuter
    {
        lowReCorrection 0;
        type            epsilonWallFunction;
        value           nonuniform List<scalar> 
90
(
26.0878
25.1512
23.8923
26.2694
29.9278
28.4378
28.2875
40.201
22.2183
28.8225
31.5203
42.7571
29.9227
37.8097
33.2954
81.7431
31.2
37.1536
40.507
46.6141
35.1083
27.8199
31.8682
35.3976
34.6942
59.9589
53.0675
34.6568
36.0946
19.1623
15.7411
17.3413
20.903
14.3152
13.0322
11.5157
0.518078
0.604436
28.2752
9.01984
0.730403
5.36106
60.4621
0.33299
1.17221
2.09812
0.222144
33.7617
0.310414
43.6984
55.0453
24.0091
30.6576
38.8188
29.1372
0.457919
0.354667
27.2538
55.1245
17.9327
43.4285
0.202187
0.285253
74.7235
45.0796
59.1471
78.5967
0.297115
98.108
0.180631
45.6715
0.311664
111.421
0.265588
90.5873
106.327
28.4342
30.6532
0.282226
60.0801
35.2713
86.4484
0.30139
30.9205
22.4887
0.286627
116.467
0.32036
35.8957
20.1609
)
;
    }
    inlet
    {
        type            fixedValue;
        value           uniform 14.855;
    }
    outlet
    {
        type            zeroGradient;
    }
    wallInner
    {
        lowReCorrection 0;
        type            epsilonWallFunction;
        value           nonuniform List<scalar> 
138
(
1.20674
8.57362
31.5308
2.45916
2.18206
8.48104
76.9379
26.7023
1.66083
1.59457
28.9868
48.2355
0.464104
4.11894
0.553625
3.15488
3.54858
1.94957
1.17115
72.4052
143.49
36.1375
1.2447
30.7093
33.8614
38.0112
28.7664
40.2565
31.7299
34.7655
32.2524
1.15345
0.507397
0.407595
0.315658
1.33545
0.894159
0.98235
0.79521
1.06642
1.19333
1.5608
0.702518
0.712479
1.02326
1.833
1.18302
1.18652
1.1251
0.184592
0.62901
0.348855
1.24642
1.71047
1.0143
1.14936
0.460275
0.862735
0.685948
1.54571
1.18965
1.67343
0.960246
1.03023
0.163911
0.471724
1.19122
10.8654
42.5309
7.63453
120.456
1.28077
1.39908
8.57625
45.3767
2.28433
47.703
0.772361
0.613222
4.44514
2.42707
91.0607
124.441
90.1308
73.5856
108.12
1.29618
0.472663
31.5118
32.2989
0.619084
0.315263
0.452726
0.361212
0.688305
0.310399
0.464131
1.08104
0.456654
13.0477
50.3266
6.94016
8.29786
1.47035
36.0746
0.535379
1.01115
30.5287
0.946329
1.87184
5.77063
42.8377
0.906629
0.692644
1.12279
31.5141
47.5398
1.176
68.859
82.8363
0.975677
0.779971
69.174
1.27216
3.67428
4.99978
58.0813
0.824946
2.56995
2.97164
0.631259
11.9032
44.5367
18.2041
2.37852
133.501
2.92349
73.9412
)
;
    }
    procBoundary0to1
    {
        type            processor;
        value           nonuniform List<scalar> 
29
(
1.69499
2.07593
2.4712
2.4712
44.9252
44.9252
124.123
17.9959
79.1963
8.96071
16.0443
56.0203
2.85733
2.37175
67.9826
25.8842
57.9914
70.1923
4.57858
2.17203
11.0771
6.13876
60.1722
10.4407
10.5278
70.1923
8.25289
66.0714
10.4407
)
;
    }
    procBoundary0to2
    {
        type            processor;
        value           nonuniform List<scalar> 
42
(
16.1874
11.3343
0.536836
0.6279
0.970418
16.1874
0.536836
0.458768
0.40758
0.279493
2.81831
4.2112
2.81831
4.83582
5.68366
17.2539
5.68366
0.305295
0.287671
2.0668
2.0668
0.305295
0.272931
4.11559
4.11559
0.324717
11.8575
0.293819
17.146
9.4214
9.4214
0.270884
0.273431
0.295918
0.323459
0.536836
7.82103
0.725869
17.146
0.458768
0.395533
0.352872
)
;
    }
}


// ************************************************************************* //
