/*--------------------------------*- C++ -*----------------------------------*\
| =========                 |                                                 |
| \\      /  F ield         | OpenFOAM: The Open Source CFD Toolbox           |
|  \\    /   O peration     | Version:  v1912                                 |
|   \\  /    A nd           | Website:  www.openfoam.com                      |
|    \\/     M anipulation  |                                                 |
\*---------------------------------------------------------------------------*/
FoamFile
{
    version     2.0;
    format      ascii;
    class       volScalarField;
    location    "0.82";
    object      k;
}
// * * * * * * * * * * * * * * * * * * * * * * * * * * * * * * * * * * * * * //

dimensions      [0 2 -2 0 0 0 0];


internalField   nonuniform List<scalar> 
1431
(
0.041611
0.460397
1.52753
0.976713
0.0331538
0.681273
0.172661
0.196677
2.68477
1.26762
0.360834
0.0750888
0.0688267
0.93213
1.65533
0.443883
1.71765
0.133041
0.18885
0.323324
0.043583
1.08885
1.01734
1.0178
0.885543
0.289696
0.889405
0.854866
0.49861
0.110232
0.891823
0.314648
0.828383
0.120552
0.109204
0.999528
0.278774
0.312958
0.444342
0.305922
1.94922
0.253068
0.120069
0.114428
1.17543
0.0632222
0.964395
0.211151
0.422205
0.397239
0.111655
1.06196
1.94297
0.188254
0.13596
0.203548
0.827922
1.23681
0.765515
0.0470747
1.19794
0.203873
1.10863
0.292333
0.59339
0.144715
1.41013
0.586544
0.425215
0.322807
0.0957646
0.0898011
0.141965
0.6065
0.282523
0.617107
0.0403535
1.40562
0.224062
1.30684
0.269496
0.113008
0.0686711
1.25645
1.32171
0.0360623
0.0504972
0.305224
1.11507
0.268727
0.176007
0.609624
0.050338
0.312073
0.126268
0.0432902
0.263035
0.265026
0.0541122
0.612371
0.514602
0.22288
0.271195
0.0478813
0.482541
0.0946226
0.240151
2.28758
1.2111
0.0343996
1.51816
0.19505
0.215028
0.212681
0.454652
0.0526631
0.115745
1.04928
1.22934
0.928804
0.29239
1.64722
1.03543
0.905794
0.293585
0.135796
1.36905
0.104316
0.0536207
0.487182
0.211256
1.98449
0.73566
0.261912
0.051341
0.870051
0.175826
0.216098
0.105997
2.06035
1.65902
0.0737889
0.289845
0.441231
0.506713
0.373701
0.266991
2.32318
0.215545
0.360344
0.506689
0.638614
0.198915
0.0299001
0.146363
0.0921612
0.283144
0.208382
0.207082
0.257981
0.128784
0.314241
0.159569
0.280431
0.0530112
1.93384
0.0399684
0.304072
0.111328
0.280929
0.630018
0.447933
0.853999
0.38583
0.282731
0.0404718
0.121418
0.497506
0.121395
0.217926
0.316499
1.26833
0.207173
0.240655
0.348437
0.386328
0.231087
0.781542
0.272254
0.29927
0.136375
1.8555
0.0428708
0.254214
2.86289
0.276253
0.23431
0.262377
0.14024
0.0889285
0.0635316
0.728421
0.319337
2.02954
0.246325
1.05312
0.0411288
0.305113
0.293473
0.473508
0.264284
0.215765
1.1678
0.299674
0.495657
0.601307
0.200332
0.0990618
0.475109
0.304286
0.291811
1.18637
0.430728
1.8377
0.318514
0.530689
0.531522
0.236018
0.415192
0.934921
0.0412756
0.692917
0.302456
0.200928
0.196733
0.204795
0.287091
0.0701955
0.274481
0.161976
0.311254
0.284986
2.55675
1.56966
0.0953825
0.106161
0.309257
0.126972
0.148951
0.540493
0.266678
2.71807
1.20051
0.502668
1.12529
0.66227
0.0717903
0.165585
0.620517
0.643912
0.675484
0.146669
0.0538486
1.78679
0.198712
0.403505
0.573738
0.250464
0.424731
2.0161
0.23979
0.487331
0.265061
0.26399
0.691627
0.271682
0.271282
0.11703
0.183422
1.32679
2.45882
0.155879
0.355118
0.243618
0.601632
0.779259
0.0378255
0.191065
0.47962
0.292489
0.391644
0.333091
0.193219
0.115733
0.28969
0.214702
0.0443977
0.253607
0.205761
0.237753
0.322716
0.546529
0.0476505
0.228769
0.185185
0.261075
0.281624
0.651801
0.630777
0.0768455
0.304562
0.337452
1.12622
0.0708694
0.123364
0.299997
1.38669
0.162306
0.197796
0.386714
0.237309
0.257399
1.48661
0.187281
1.21683
0.492067
0.257397
0.529924
1.23114
0.293939
0.617402
0.0720564
0.134624
0.125661
0.277902
2.3023
0.132044
0.143537
0.135111
0.0693891
0.0619656
0.263617
0.598019
0.437412
0.963007
0.0359959
0.323263
0.0324376
0.0276213
0.076225
0.0658547
0.0552154
0.0528025
0.0647564
0.0638578
0.0950671
0.0471748
0.0447822
0.0624836
0.0755908
0.0703975
0.0739446
0.066942
0.0196525
0.0501405
0.0293924
0.0714016
0.0860547
0.716787
0.833762
0.387529
0.136541
0.347487
0.33289
0.107552
0.987665
0.612633
0.327917
0.362149
0.0654015
0.0610861
0.0372552
0.0637411
0.0473657
0.0906751
0.0692535
0.0854915
0.0542984
0.0632985
0.0178401
0.0362029
1.39247
0.455891
0.362255
0.434785
0.199383
0.0940283
0.315581
0.692671
0.279615
0.0621681
0.552722
0.307977
0.133324
0.563315
0.32833
0.148021
0.250672
0.0759016
0.702419
0.617865
0.256498
0.135545
1.21239
0.470465
0.700384
0.619753
2.20502
0.120172
0.0797865
0.175578
0.247395
0.813368
0.17325
0.182892
0.692237
0.247672
0.942108
1.7349
0.725112
1.7973
0.156778
0.216757
0.465842
0.155541
0.781636
0.302085
0.495451
0.143118
0.251026
0.172805
1.324
0.357833
0.28392
0.0685851
0.460938
0.73087
0.125839
0.0730084
0.813246
0.584788
0.675069
0.69532
0.842731
0.305434
0.824121
0.650006
0.55366
0.746864
0.151508
1.29625
0.225061
0.313404
0.501903
0.141519
0.124589
0.0680631
1.62047
0.263472
0.126082
1.50138
0.119241
0.222728
0.738145
0.301466
0.105629
1.33622
1.27101
1.8521
0.095203
0.237476
0.114622
0.760007
0.207087
0.310575
0.310102
0.540221
0.751526
0.427718
0.0484415
0.0415423
0.149236
0.110804
1.46108
0.0997374
0.111647
1.12386
0.148614
0.325235
0.1453
0.633291
1.43971
0.989098
0.891522
0.610377
0.0819886
0.0981641
0.783344
0.27253
1.12829
0.978425
0.100132
0.228047
0.582274
0.315621
0.31321
1.6258
1.28563
0.24786
0.131769
0.0786865
0.112498
0.0904951
0.0836067
0.156656
0.365488
0.406541
0.349579
0.0969701
0.27825
0.312219
0.235359
0.158526
0.0900141
0.526751
0.324912
1.56756
0.283105
0.448878
0.999493
0.949248
1.43556
0.571075
0.615358
0.0710112
0.916148
0.534368
0.217305
0.647953
0.103576
0.149132
0.0463447
0.614281
0.398885
0.141827
0.491968
2.01028
0.679215
0.610566
0.193458
0.549234
0.250163
2.44801
1.73685
1.05547
0.145028
0.301962
0.20166
1.08677
0.570791
0.0446931
0.877271
1.13738
0.894796
1.3974
0.186713
0.24347
0.110857
0.369558
0.44987
0.109769
0.223319
0.424471
0.862324
0.172564
0.288111
0.446696
0.316462
0.11189
0.399094
0.742152
1.20793
0.359637
0.296437
0.276534
0.282441
0.0457001
0.161965
0.204559
0.0252972
0.505369
0.42904
0.0939854
0.560452
1.01303
0.716327
0.313365
0.0959894
1.11723
1.36147
0.995126
0.474643
0.123996
1.07765
1.19658
0.205258
1.38326
1.25313
1.55236
0.611362
0.083613
0.194393
0.143917
0.0743519
0.0971458
0.307628
0.0811623
0.0518541
0.395822
0.229901
1.13831
0.141896
0.0411954
0.238376
0.204846
0.492998
0.0902229
0.198071
0.545492
0.153407
0.567297
1.46701
0.247138
0.587038
0.086793
1.50772
0.547046
2.25267
1.063
0.15097
0.127813
0.264321
0.26263
0.620974
2.29828
0.450616
0.256794
0.332167
0.192499
0.535697
1.03208
0.0693225
0.175133
0.199243
0.282737
0.0285454
0.35908
0.934691
0.569694
0.934239
0.0613891
0.264323
0.160775
1.2202
0.317893
0.31234
0.585761
0.445908
0.0702219
0.495852
1.37633
0.059891
0.262706
0.14644
0.102287
0.184223
0.18303
1.40631
0.774847
0.173997
1.16776
1.24259
0.976364
0.103984
0.335845
0.0844716
0.0280037
0.0366447
0.272548
0.202614
1.00205
0.086467
0.188023
0.0761326
0.0468988
0.670692
0.590723
0.773383
0.362739
2.098
0.106032
0.0502855
0.0848485
0.959426
1.44226
0.421429
0.551042
3.05847
0.208583
0.0945006
0.413633
0.299276
0.218085
1.67584
0.0707956
0.427574
1.07891
2.02761
0.477723
0.0671722
0.337297
0.0394199
0.471553
0.475902
1.67442
0.1899
0.176064
0.0868431
0.705129
0.176876
1.29631
2.26887
0.316672
0.0748263
0.592343
0.404726
0.211195
0.43998
0.74466
0.0422823
1.92934
0.190682
0.487046
0.51668
0.22573
0.190113
0.350118
0.521616
0.420811
1.54171
0.798334
0.792283
0.802616
0.848797
0.305984
1.1294
0.198956
0.903381
0.614043
0.501067
0.106763
1.54613
0.0414401
0.0756416
0.25611
0.571451
0.0603018
1.07101
0.270637
0.0596011
0.0763994
0.0804644
0.533712
1.60124
0.192156
2.458
0.0488643
0.0749184
0.211761
1.75818
0.266422
0.192082
0.893721
0.614137
0.362675
0.309652
0.0452402
0.076388
1.71501
0.229665
0.300182
1.63021
0.217918
0.0771252
0.0407467
0.216922
0.966438
0.124323
1.18025
0.0419747
0.280668
0.234346
1.72158
0.0643303
1.20524
0.537646
0.527412
0.518558
0.528185
0.503151
0.508762
0.509182
0.551942
0.397334
0.198965
0.384981
0.124944
1.80723
0.0729216
0.0657624
0.0634206
0.0525274
0.0631165
0.092692
0.0657921
0.575747
0.175005
0.61766
0.0584075
0.197637
0.194273
0.257992
0.263419
0.505848
1.53109
0.232719
0.0888348
0.295532
0.345595
0.237086
0.517913
0.36929
0.203333
0.0907001
0.88577
0.166391
0.871356
1.7279
0.320639
0.344357
0.225109
0.233584
0.0856377
0.15133
0.149134
0.0438452
0.215586
0.204184
0.068908
0.0784539
0.315214
0.910778
0.108479
0.57807
0.0761391
0.248669
0.155071
0.131476
0.129577
0.248256
0.0526647
0.0606418
0.180578
0.0927702
0.293193
0.043567
0.162997
1.30253
1.3498
0.292381
0.446581
1.6111
0.605199
0.269695
0.266275
1.40093
0.0611958
0.0800454
0.112916
0.0552594
0.105078
0.106691
0.540123
0.391669
0.798507
0.749675
0.489765
0.248826
0.0734038
0.168971
0.155314
0.222984
2.3247
0.131334
0.605892
0.949024
0.659546
0.356457
0.255608
0.0603066
0.135712
0.219633
0.161208
0.233139
0.211549
0.710605
0.0633537
0.530196
1.40144
0.526504
2.19067
0.19008
0.248786
0.356336
0.318658
0.337639
0.375599
0.297647
0.272622
0.367601
0.0581579
0.0474115
0.250576
0.240245
0.0443115
0.0685076
1.55457
0.0380374
0.117325
0.0299
1.1072
0.039182
0.473846
0.384759
2.03586
0.0985718
0.196759
0.125333
0.378441
0.147053
1.60868
1.74411
0.140938
0.11482
0.388826
0.0378975
0.141513
0.767543
0.0237416
0.880163
0.880312
0.613961
0.347552
0.581498
1.47007
0.77919
0.239897
0.0512233
0.0771476
0.183622
0.596605
0.403841
0.249496
1.24323
1.07264
0.629485
0.063007
1.45435
0.0180035
0.622022
0.0267602
0.252588
0.2127
0.438567
0.328075
0.109968
2.6447
0.659798
1.68601
0.0334506
0.847465
0.955709
0.456012
0.202796
0.21282
0.198354
0.799494
1.85265
0.350435
0.239806
1.35871
0.970993
0.228219
0.26409
0.775928
1.50595
1.00719
1.37616
0.123472
1.42563
0.879533
1.23175
0.145387
0.986034
0.725767
0.119359
0.238108
0.157061
0.418567
2.10376
1.12604
1.01092
0.294809
1.58589
0.123365
1.55844
1.32828
0.316461
0.12577
0.210701
0.683956
0.0366581
0.0490179
0.0692946
0.155408
0.138604
1.4518
1.52762
0.189673
1.59779
0.131419
0.4611
1.8328
1.05488
0.134824
0.11659
0.131173
0.398406
0.0631159
0.204271
0.176847
1.96261
0.349486
0.577142
0.212931
0.132507
0.44953
0.309335
0.327429
1.66942
0.159762
0.202097
0.509493
0.890385
0.244091
0.114309
0.0434191
0.773062
0.353108
0.355102
0.0327853
0.0866438
0.122635
0.120209
0.244628
0.0303285
0.553175
0.796104
0.44856
2.17706
0.261946
0.385007
0.104116
0.206607
0.507744
0.0160812
0.146579
0.334495
0.061415
1.22558
1.33569
0.0222258
0.453248
0.849206
0.0777431
0.374697
0.988784
0.0564193
0.075092
0.636607
0.0955336
2.04586
0.144492
0.677624
0.161152
0.890557
0.536911
0.102815
0.465154
0.250133
0.0966072
0.10828
0.366644
0.0221493
0.987791
0.0156274
0.14755
0.331191
0.203765
0.146871
0.35597
0.133989
0.0439038
2.75661
0.158803
0.249679
0.278263
0.570269
0.0975187
0.043249
0.0588439
0.167403
3.09544
1.33201
0.194947
0.207039
0.722011
0.0534218
1.04997
0.259467
1.35345
0.0359865
0.0677393
1.91607
0.111901
0.128986
2.26846
0.785369
0.510698
0.287361
1.29473
0.0211249
0.084867
0.076632
1.31026
1.02515
0.976908
0.0338711
0.0625319
0.0203176
0.336464
0.401986
2.65557
0.890261
0.603137
0.366322
0.204872
0.109071
0.125582
0.46072
0.855372
1.28927
0.192153
0.0488299
0.467746
0.634235
1.5769
2.14997
0.43252
0.0626077
0.100178
1.2061
0.544488
0.0222451
2.20749
1.91613
0.755836
0.694047
0.118143
0.300632
1.54047
0.923518
1.16187
0.136431
2.37028
0.676494
0.346044
0.0561759
1.21944
0.351681
0.35998
0.896761
1.55498
0.297103
0.148676
0.102277
1.63851
0.245669
0.169719
1.10887
0.198492
1.36036
0.4309
0.0414039
1.79223
0.196182
0.301401
0.265504
0.412271
0.344107
0.610617
1.37898
0.0321374
0.922586
0.0213676
1.14177
0.789517
0.0510078
0.14681
0.0629529
0.120471
1.56166
0.852218
0.194915
0.229863
0.857459
0.0577681
0.0839699
0.907452
0.269954
0.0516119
0.287814
0.201859
0.121291
1.88696
0.964092
1.16132
0.462285
1.53382
0.132794
0.0615434
0.156541
1.55307
1.6247
0.395722
0.340834
0.804061
1.17372
0.122471
2.32834
0.664833
0.122253
0.101797
0.264963
0.393779
0.22612
0.391238
0.262833
0.566814
0.678513
0.396254
0.318726
0.229919
0.392016
0.244327
1.49973
1.41531
2.65591
1.1692
0.14643
1.57216
0.767524
1.59893
0.0627299
0.103479
0.350869
0.11947
1.7772
0.0650648
0.0624686
1.9241
0.228981
1.5517
1.77639
1.03034
0.884631
0.918856
0.328403
0.257115
1.09923
0.333734
0.419684
0.0433951
0.392685
0.381581
0.0433033
0.783814
2.07305
0.0744283
0.165739
0.0489725
0.0217034
0.119626
1.09442
0.11917
1.36192
0.775562
0.355847
0.767984
0.213014
0.164316
0.283292
0.0591406
0.136956
0.212962
0.0927002
1.19518
0.231434
0.561716
0.0448379
0.239512
0.379836
0.112132
1.00931
0.0217022
0.119743
0.133331
0.212527
0.114872
0.0771631
0.106633
0.522084
0.147126
0.452649
0.159465
0.142283
0.116227
0.536066
0.281433
0.435919
0.209915
0.130153
0.242895
0.141339
1.40495
0.299357
0.271853
0.204639
0.0514349
0.394977
0.62569
0.248423
0.293848
0.126188
0.448801
0.104165
1.2034
0.049756
0.243416
1.26875
0.418779
1.01864
0.145168
2.19564
0.234685
0.710551
1.2931
0.336549
0.348476
0.0544408
0.444249
0.290339
0.883272
0.268614
1.54773
0.0537946
0.764969
0.0629593
0.0324437
0.438534
0.207307
0.342471
0.275982
0.911847
0.3613
0.932325
0.635473
0.587018
0.64855
0.206337
0.153937
0.689269
2.45902
1.15219
0.312714
0.297489
2.70437
1.2204
2.94633
1.25306
1.19428
0.460603
0.206354
0.755719
0.388112
0.126302
0.691048
1.55806
0.138207
0.605172
0.986429
)
;

boundaryField
{
    frontAndBack
    {
        type            empty;
    }
    wallOuter
    {
        type            kqRWallFunction;
        value           nonuniform List<scalar> 
90
(
0.443883
0.421429
0.413633
0.427574
0.477723
0.471553
0.475902
0.592343
0.404726
0.487046
0.51668
0.614043
0.501067
0.571451
0.533712
0.893721
0.537646
0.527412
0.518558
0.528185
0.503151
0.508762
0.509182
0.551942
0.505848
0.798507
0.749675
0.530196
0.526504
0.356336
0.318658
0.337639
0.375599
0.297647
0.272622
0.240245
0.0299
0.039182
0.473846
0.196759
0.0378975
0.141513
0.767543
0.0237416
0.0512233
0.0771476
0.0180035
0.622022
0.0267602
0.659798
0.775928
0.418567
0.4611
0.577142
0.509493
0.0327853
0.0303285
0.553175
0.796104
0.385007
0.507744
0.0160812
0.0222258
0.849206
0.636607
0.677624
0.890557
0.0221493
0.987791
0.0156274
0.510698
0.0211249
0.976908
0.0203176
0.890261
0.855372
0.43252
0.544488
0.0222451
0.755836
0.4309
0.922586
0.0213676
0.462285
0.396254
0.0217034
1.00931
0.0217022
0.522084
0.394977
)
;
    }
    inlet
    {
        type            fixedValue;
        value           uniform 0.375;
    }
    outlet
    {
        type            zeroGradient;
    }
    wallInner
    {
        type            kqRWallFunction;
        value           nonuniform List<scalar> 
138
(
0.0750888
0.18885
0.828383
0.120552
0.109204
0.253068
1.41013
0.586544
0.0957646
0.0898011
0.617107
0.73566
0.0299001
0.146363
0.0404718
0.121418
0.14024
0.0889285
0.0635316
0.728421
1.8377
0.66227
0.0717903
0.620517
0.643912
0.675484
0.573738
0.691627
0.601632
0.651801
0.630777
0.0619656
0.0359959
0.0324376
0.0276213
0.076225
0.0658547
0.0552154
0.0528025
0.0647564
0.0638578
0.0950671
0.0471748
0.0447822
0.0624836
0.0755908
0.0703975
0.0739446
0.066942
0.0196525
0.0501405
0.0293924
0.0714016
0.0860547
0.0654015
0.0610861
0.0372552
0.0637411
0.0473657
0.0906751
0.0692535
0.0854915
0.0542984
0.0632985
0.0178401
0.0362029
0.0621681
0.256498
0.700384
0.216757
1.324
0.0685851
0.0730084
0.225061
0.738145
0.095203
0.760007
0.0484415
0.0415423
0.149236
0.0997374
1.12386
1.43971
1.12829
0.978425
1.28563
0.0710112
0.0463447
0.614281
0.610566
0.0446931
0.0252972
0.0411954
0.0285454
0.059891
0.0280037
0.0366447
0.0671722
0.0394199
0.316672
0.798334
0.198956
0.25611
0.0804644
0.614137
0.0407467
0.0634206
0.61766
0.0584075
0.0907001
0.168971
0.710605
0.0581579
0.0474115
0.0685076
0.581498
0.629485
0.063007
0.847465
0.955709
0.0631159
0.0434191
0.773062
0.0777431
0.133989
0.158803
0.722011
0.0534218
0.109071
0.125582
0.0414039
0.297489
0.755719
0.388112
0.126302
1.55806
0.138207
0.986429
)
;
    }
    procBoundary0to1
    {
        type            processor;
        value           nonuniform List<scalar> 
29
(
0.154296
0.214105
0.234869
0.234869
1.60458
1.60458
2.00478
0.508834
1.29279
0.478085
0.545282
1.10397
0.145718
0.128131
1.29834
0.605821
2.26218
2.13164
0.368525
0.219811
0.326342
0.223096
1.46167
0.293211
0.291976
2.13164
0.25813
0.820311
0.293211
)
;
    }
    procBoundary0to2
    {
        type            processor;
        value           nonuniform List<scalar> 
42
(
1.12811
1.01298
0.0543563
0.0561524
0.117641
1.12811
0.0543563
0.0521486
0.0729735
0.0641655
0.287942
0.452433
0.287942
0.556115
0.678296
1.0336
0.678296
0.0675615
0.0634545
0.190005
0.190005
0.0675615
0.0580085
0.206964
0.206964
0.059846
0.483744
0.0513425
0.768941
0.945382
0.945382
0.0486809
0.0538238
0.0596321
0.0584387
0.0543563
0.861946
0.0464788
0.768941
0.0521486
0.0505587
0.0528895
)
;
    }
}


// ************************************************************************* //
