/*--------------------------------*- C++ -*----------------------------------*\
| =========                 |                                                 |
| \\      /  F ield         | OpenFOAM: The Open Source CFD Toolbox           |
|  \\    /   O peration     | Version:  v1912                                 |
|   \\  /    A nd           | Website:  www.openfoam.com                      |
|    \\/     M anipulation  |                                                 |
\*---------------------------------------------------------------------------*/
FoamFile
{
    version     2.0;
    format      ascii;
    class       volScalarField;
    location    "0.82";
    object      p;
}
// * * * * * * * * * * * * * * * * * * * * * * * * * * * * * * * * * * * * * //

dimensions      [0 2 -2 0 0 0 0];


internalField   nonuniform List<scalar> 
1431
(
90.727
89.0648
87.6885
90.6231
90.5201
86.2419
87.9317
96.4853
90.1477
89.871
88.6864
88.8361
88.7825
102.164
88.7799
89.1875
89.1384
89.3184
90.4237
88.9605
90.3424
89.7392
88.3552
103.08
78.8297
89.412
72.177
101.303
90.1928
89.8336
112.709
119.472
81.7636
86.5145
88.4928
87.2359
90.6536
95.544
86.2306
95.6351
109.583
89.1728
86.6525
88.7671
81.1263
90.3625
90.5355
117.771
113.714
96.9488
89.6363
89.8976
89.6383
86.3312
88.1935
110.677
89.4387
87.4063
78.8517
90.3201
89.3399
88.5315
90.1194
96.3774
98.4205
89.09
86.3811
86.0536
90.0269
96.7902
86.6445
88.6871
88.4233
86.5638
88.6818
81.9449
90.4946
81.7887
96.7999
73.4401
96.4023
89.4573
88.4784
89.505
80.9219
90.4983
90.5927
88.7672
104.024
89.3319
89.8465
89.2183
90.5925
95.275
89.3869
90.4231
88.7612
98.5984
90.5536
112.676
90.0001
95.4345
90.8041
90.5084
89.2573
88.7017
96.5192
112.939
114.625
90.4805
75.2121
88.9546
97.0098
89.0043
89.0113
90.4788
89.3257
88.9369
104.931
82.186
93.9087
88.5773
89.7452
107.8
96.0995
88.3666
105.769
88.6019
90.5878
96.2359
88.7023
113.907
103.212
90.5303
90.5518
89.9611
88.4275
89.1083
90.4139
113.464
91.0461
90.5936
95.5192
113.816
115.047
94.3777
98.0607
113.387
88.4662
112.204
97.0802
99.5344
88.4441
88.5921
88.3901
88.6659
96.4075
89.5984
97.79
107.043
89.2619
88.6031
90.8107
88.831
90.504
71.5885
90.4602
94.6752
89.7529
90.7073
105.654
88.7489
111.558
97.2873
96.0277
88.8274
88.2961
97.9638
90.0196
103.663
96.4153
89.2248
103.841
89.6055
95.7944
106.715
95.485
86.0934
89.9462
96.376
89.7033
89.1769
90.4383
96.2068
89.6058
93.6096
96.5294
116.188
88.4798
88.4534
88.3952
116.073
110.63
108.281
96.439
75.3686
90.4688
96.8293
88.5302
100.389
96.2029
97.0863
108.497
96.7365
89.4663
87.0262
98.7159
89.1933
89.1171
96.4367
96.4352
68.9583
95.6852
100.584
97.1134
91.1896
109.547
89.9882
101.387
113.042
90.5351
89.9762
96.6769
94.8705
96.1583
96.8103
97.8268
90.772
96.3529
88.2564
98.2426
108.912
90.5418
89.0814
88.7596
88.8299
95.6915
88.2642
86.3927
104.534
102.379
90.473
89.8365
116.456
90.0609
97.3018
89.6667
88.2691
96.144
96.6561
97.1404
88.9019
90.4496
90.8982
96.3853
100.485
91.5565
95.3378
102.476
90.6651
96.5303
112.628
101.351
100.353
96.7553
93.5075
90.5674
88.9636
89.1701
89.8984
89.6802
88.2418
89.3653
90.2069
93.5162
88.212
90.534
102.29
103.35
97.5512
94.2873
96.3528
102.165
89.9351
103.882
98.9977
90.457
101.783
88.3621
105.27
96.5524
111.203
88.6098
115.575
88.6245
88.574
96.5165
97.0108
96.3695
89.8703
97.3398
95.8532
89.3639
90.6816
88.6277
88.7812
90.2989
88.3734
95.7569
89.9238
88.5173
89.9968
91.4363
88.316
90.5521
89.8634
96.3004
89.8664
110.071
97.0472
89.3392
88.6677
88.2249
89.8447
96.1361
90.5784
89.9511
89.9514
89.7661
88.7685
88.4206
96.3939
89.8045
88.9081
101.293
88.6856
97.0678
88.6775
90.3555
90.041
88.7371
89.1903
89.076
89.3547
88.7683
88.7014
89.1685
88.7063
89.3967
88.3559
89.8218
88.7577
89.4029
90.4604
90.2599
88.7015
89.5484
88.6125
89.4452
89.367
88.8573
88.2316
89.9822
105.295
89.4546
89.1546
89.2218
95.7949
95.0373
89.4696
89.0865
88.7297
90.1465
89.1361
88.7104
89.4638
88.4887
88.7378
89.3394
90.4033
88.6701
88.1991
108.208
95.7886
89.9143
88.9902
89.9045
96.7697
90.4505
96.4657
88.3298
89.3483
96.6953
89.6277
89.4572
93.2583
88.4597
115.338
89.901
89.2103
93.6092
89.2594
89.1444
86.0555
114.437
129.371
89.1462
90.6525
88.6866
89.8729
88.3159
90.3244
90.0927
88.4948
90.2804
89.0909
88.592
89.8985
80.7036
88.8783
80.9534
88.4393
89.4821
90.1918
88.2705
88.8953
90.3232
89.9171
88.5537
86.2391
87.8958
92.3617
89.8931
89.6083
88.273
90.4936
90.5148
88.3373
87.9791
90.4002
90.3786
90.1365
90.5531
89.9761
90.2449
89.8312
89.9882
90.1598
89.9159
88.3535
83.6548
89.8431
86.3073
86.7408
88.4666
88.5805
89.9416
84.6831
86.4856
88.6186
85.3664
89.2251
115.288
112.7
86.6261
88.6544
88.1945
87.8505
89.0994
90.0829
90.1677
89.2667
99.0515
94.7362
115.245
88.9034
86.73
90.3359
90.2123
88.1713
88.1868
90.0567
88.6821
92.4653
90.12
89.3173
87.6089
89.0706
96.8405
88.827
86.7068
83.2396
89.6405
88.7758
88.8349
88.2313
88.6676
90.2314
90.1387
91.2032
90.8342
88.2011
97.5692
89.3146
96.4534
90.0662
89.9542
83.9406
90.1631
88.5736
88.3285
88.4566
88.7177
89.9394
89.2628
90.2913
89.3284
90.192
88.4472
89.3431
115.23
116.083
88.6458
88.508
90.2323
90.2294
89.3767
89.0723
90.5428
94.6942
88.7249
88.9027
89.2411
89.3074
88.9921
90.3569
89.5472
96.3162
90.2383
88.6676
88.6914
88.5475
95.6923
90.2726
88.2715
89.4339
89.1119
89.1325
94.6911
100.101
90.5049
88.6597
89.1641
90.2012
81.2394
89.957
90.4869
101.476
89.6166
88.7681
88.6736
90.4659
90.7553
90.4318
88.2864
89.2655
90.4217
89.6685
88.7096
98.2169
89.3617
96.3785
89.383
88.9213
88.509
88.8779
89.333
94.677
89.5383
99.6188
89.3736
87.5584
94.0343
95.2049
96.2506
88.7552
90.2964
89.399
100.436
88.6462
89.3497
89.2868
88.6549
89.2275
89.323
90.4025
88.511
88.6562
90.4826
89.8739
94.0617
90.4412
89.9194
90.1188
91.7805
99.4616
89.4372
90.2475
89.7173
90.3196
88.6427
88.4052
89.292
88.6711
89.0538
121.812
88.6507
90.3403
90.3575
96.2393
90.5642
89.0965
89.3593
96.2291
88.3661
90.299
88.6451
103.791
92.8285
88.9382
88.9949
90.4283
96.2725
90.4389
88.6959
89.0758
88.8472
90.345
89.9962
88.8888
89.087
88.6359
98.6384
93.4877
90.5493
90.3323
96.5446
96.2059
89.7867
90.4111
88.6936
90.6105
89.2287
89.6314
96.8168
88.6715
92.5992
90.2409
90.3714
89.2067
90.372
96.4499
89.2523
88.7723
115.096
114.401
86.7728
89.3277
88.699
95.2009
88.8491
88.5212
88.8582
89.1737
89.2974
88.4217
90.2681
88.8414
89.163
89.9775
113.413
88.6614
88.8563
90.8498
90.4295
88.6515
90.5323
88.7285
96.5554
105.355
89.0527
88.6571
100.525
88.6736
90.4139
127.774
92.4887
90.4708
90.8773
108.271
89.6991
90.2131
88.6539
90.0765
90.0064
97.1568
89.1394
89.9567
107.457
90.6996
96.9874
97.9975
96.1455
88.5476
88.7143
97.5905
89.8778
90.4665
106.559
89.9894
90.056
89.3357
105.993
105.359
89.3536
99.5429
89.1763
88.5577
90.5178
89.2066
88.724
90.5374
116.629
89.7015
98.8196
97.6456
101.242
102.317
106.717
88.6493
90.5708
102.853
104.677
103.085
89.7414
88.5166
96.2726
96.5944
96.9653
106.538
89.159
104.772
109.65
101.29
96.0457
89.2405
88.8415
108.119
98.3763
103.91
88.94
96.8476
90.3362
88.6487
89.6025
100.249
90.5878
89.212
90.1837
88.6771
88.569
88.8459
102.253
91.4123
90.0348
104.63
90.274
88.6665
88.8622
107.262
90.2696
98.6074
109.636
139.448
95.6078
96.6562
90.3786
88.6547
91.4163
95.8156
90.5173
88.737
109.698
88.6723
90.6372
88.4534
92.8674
89.2793
88.1299
90.5326
97.0741
95.9253
89.8308
90.4118
78.5807
97.7949
97.5643
94.9903
95.1167
95.2472
98.5024
96.6502
101.397
89.2728
88.5866
97.2614
88.4658
88.8551
88.689
90.4996
88.9875
90.2158
88.7179
90.7176
88.7585
90.68
90.1299
96.049
88.3511
90.415
97.7862
113.582
98.2471
94.9837
84.9929
111.803
88.6674
88.745
88.8404
96.3193
89.2528
88.7972
88.3901
89.988
120.314
88.5026
89.6317
88.9941
96.4517
96.5728
96.2229
89.9291
88.6639
89.1982
88.5117
90.5847
94.9774
107.043
90.5764
88.6962
114.957
97.5228
89.6247
88.9648
90.1045
105.684
86.514
88.6624
89.1032
96.4766
90.4703
88.7655
88.8343
89.8973
96.79
90.6948
88.4441
83.1434
81.7521
113.961
98.2615
87.0417
86.6095
96.698
90.3164
86.6374
90.1764
88.6942
89.9181
88.6789
89.5188
89.4498
90.0501
90.1285
110.794
113.046
98.4004
90.8217
89.999
90.2349
89.5011
96.1458
89.7973
89.5195
89.9085
89.1107
89.4258
96.8656
88.8282
88.73
90.1479
96.9383
88.5432
96.2981
96.3321
98.191
88.7785
96.696
90.2776
107.386
89.7841
107.499
88.5596
88.7765
89.2102
88.9153
88.7813
89.5924
89.9789
89.3905
90.8537
88.9343
96.6493
90.2972
90.645
88.543
72.4593
90.495
89.3461
90.7128
90.3868
90.4096
89.7082
90.3793
107.499
88.6707
90.5346
89.1993
90.4712
89.0085
90.8751
90.6311
88.6616
89.3975
89.0847
90.6808
90.6729
95.0454
90.5123
89.47
90.5024
89.8686
88.9801
85.5128
90.4126
89.6615
96.4139
90.6584
90.6653
89.0982
89.0578
99.3295
90.3189
89.5256
90.0873
86.6295
90.2778
96.0074
90.6843
93.7791
90.4916
96.7563
90.4395
88.9414
97.2044
88.6866
89.5085
102.568
79.6359
90.501
90.7166
88.6839
97.1936
86.7138
88.984
96.9409
86.8786
88.965
94.7094
89.983
90.4782
89.9615
96.2253
99.409
111.748
87.9878
91.0846
90.7933
89.345
90.5951
88.956
91.7835
88.3667
82.5988
99.3607
88.6904
88.531
89.2625
88.9303
110.738
90.5602
89.7608
88.69
89.7744
88.3554
90.7371
90.1739
96.3263
90.1601
89.2203
91.3978
90.4828
90.4679
88.6905
90.3093
88.5868
81.7259
90.5438
104.873
88.6857
88.6836
95.4328
90.7997
89.1736
86.472
88.3985
89.3878
99.1994
90.1354
115.726
90.3283
89.5233
92.7433
81.3768
118.047
90.0691
88.623
96.645
95.9338
90.7402
88.7293
95.7374
90.3506
95.0814
96.5019
89.1823
90.2762
94.8555
97.3718
97.3354
90.4416
90.1848
89.3313
89.9251
116.661
90.4769
91.4273
112.498
96.5058
88.871
90.0465
100.577
89.5932
117.172
94.0449
90.7245
88.5463
97.4269
90.7063
92.7276
90.143
90.5776
88.6548
77.8141
88.6706
97.0472
88.8739
90.4254
88.6807
100.386
88.3848
89.0543
90.2838
113.038
89.1606
114.022
88.8605
88.3217
108.03
110.399
88.2845
89.3987
97.2879
90.5157
80.5803
90.7095
89.0997
90.2039
86.3828
88.4608
97.3667
90.0975
90.7481
89.8695
88.5978
88.8407
88.7694
91.8065
88.3126
90.3259
88.6859
88.6833
90.0797
90.0521
90.5666
95.8935
80.7537
90.2522
90.1027
96.6377
82.2644
90.4055
88.6632
88.6689
88.6906
89.4429
90.1398
100.303
107.56
97.1381
81.8802
90.493
90.0261
88.7142
90.4164
111.265
113.618
90.3678
88.661
90.6517
96.7721
86.4815
89.2789
92.4116
94.8775
95.0663
114.496
90.0038
88.6257
90.1178
108.48
82.3217
110.345
90.4958
89.9534
92.2266
95.6379
89.4312
97.7764
90.0901
88.6425
94.4605
99.0034
90.544
89.5966
90.5916
80.5666
89.856
88.5203
96.9542
88.6028
89.5072
87.9237
89.275
89.1332
98.0089
92.1231
88.7459
90.5633
96.7939
96.5124
97.5764
90.6071
88.8463
89.2611
89.8897
84.7948
88.6012
88.4384
89.5657
89.2048
90.541
95.0205
90.0924
89.136
113.11
88.5013
115.829
95.4623
95.7406
98.1633
86.9545
90.519
77.4631
90.4959
90.6031
80.9753
90.4715
88.4202
89.9204
89.3066
89.2609
91.9304
86.7764
88.916
89.7115
90.6301
88.7443
89.3962
114.687
90.5604
88.7938
96.3045
89.3304
89.8116
90.5425
90.0033
91.5752
90.5872
89.1715
88.7127
88.2896
95.372
91.9046
96.376
94.502
89.0948
82.2611
88.628
89.5633
89.0566
89.0181
89.949
96.8341
88.566
96.0066
93.3346
89.9437
96.8175
99.2557
88.8512
88.8741
119.965
125.644
88.4875
89.7732
90.519
90.4876
89.8432
89.1391
94.9168
91.997
93.462
88.668
90.7314
95.435
89.3647
88.9372
88.7287
90.4532
90.5668
96.7525
88.8747
90.2781
90.0098
90.5055
89.805
96.4693
88.5313
90.2732
95.1848
98.8036
89.8452
89.974
88.9289
90.321
89.0597
90.0608
89.3705
89.1331
90.3088
90.6149
88.2451
90.1691
88.252
91.2898
85.7742
90.8665
89.7794
90.2572
88.3481
88.6417
90.4663
88.4781
97.5362
88.6908
72.2289
96.1545
89.4166
90.5296
116.302
89.1016
89.4465
86.7218
90.5024
88.7394
90.2939
96.0667
89.1266
88.6707
88.7244
94.7509
90.2467
89.17
89.2732
88.5775
89.3978
96.3243
90.6753
88.8009
89.0443
88.2917
115.973
88.4885
91.0718
90.0507
90.3418
98.5736
88.6659
99.1108
97.7845
90.6856
88.6013
90.07
89.1097
89.419
88.7328
88.6811
120.606
90.284
88.5535
100.442
88.5265
112.207
95.839
99.8243
90.353
95.5839
89.2111
90.426
88.8649
90.6313
81.5988
90.1445
90.5858
88.7141
94.196
88.6941
90.7282
88.5943
90.7673
97.4936
96.8231
96.5813
90.0307
84.7002
94.8094
96.1094
96.9462
96.3196
88.3756
89.7662
90.338
89.9783
97.2948
112.915
90.1288
90.1218
90.2906
89.9343
88.984
96.3414
97.9583
78.9684
122.618
86.7692
87.27
115.68
88.7906
89.2777
96.4443
)
;

boundaryField
{
    frontAndBack
    {
        type            empty;
    }
    wallOuter
    {
        type            zeroGradient;
    }
    inlet
    {
        type            zeroGradient;
    }
    outlet
    {
        type            fixedValue;
        value           nonuniform 0();
    }
    wallInner
    {
        type            zeroGradient;
    }
    procBoundary0to1
    {
        type            processor;
        value           nonuniform List<scalar> 
29
(
88.0869
87.7913
86.2703
86.2703
80.484
80.484
114.77
86.2682
84.2196
86.1993
86.4774
80.6899
86.3796
88.2997
115.103
115.432
80.0336
80.7257
86.1829
87.7623
115.299
115.183
81.9672
115.504
115.644
80.7257
116.253
114.673
115.504
)
;
    }
    procBoundary0to2
    {
        type            processor;
        value           nonuniform List<scalar> 
42
(
89.7454
89.6411
90.4253
90.3375
89.9833
89.7454
90.4253
90.3752
89.9301
89.8763
89.9807
89.8686
89.9807
89.8264
89.7379
89.9292
89.7379
89.8981
89.8878
88.1942
88.1942
89.8981
89.9746
88.7513
88.7513
90.0583
89.2713
90.1718
89.9017
89.6681
89.6681
90.2559
90.2951
90.3094
90.3246
90.4253
89.6041
90.3429
89.9017
90.3752
90.3082
90.3396
)
;
    }
}


// ************************************************************************* //
