/*--------------------------------*- C++ -*----------------------------------*\
| =========                 |                                                 |
| \\      /  F ield         | OpenFOAM: The Open Source CFD Toolbox           |
|  \\    /   O peration     | Version:  v1912                                 |
|   \\  /    A nd           | Website:  www.openfoam.com                      |
|    \\/     M anipulation  |                                                 |
\*---------------------------------------------------------------------------*/
FoamFile
{
    version     2.0;
    format      ascii;
    class       volVectorField;
    location    "0.11";
    object      U;
}
// * * * * * * * * * * * * * * * * * * * * * * * * * * * * * * * * * * * * * //

dimensions      [0 1 -1 0 0 0 0];


internalField   nonuniform List<vector> 
1431
(
(0.409908 1.20314 1.57809e-16)
(3.36396 0.827613 3.31505e-17)
(0.179305 0.0337647 0)
(1.1298 -0.176866 2.04579e-16)
(-0.805339 -0.268067 0)
(1.35458 4.14469 2.53933e-16)
(3.12229 -0.411159 3.7715e-16)
(1.0306 0.325355 5.96073e-17)
(0.545539 3.48976 2.01671e-16)
(2.46486 -0.214418 3.82666e-16)
(2.61984 10.3788 2.00557e-17)
(6.52551 0.0551575 0)
(0.43572 1.87251 -2.07366e-16)
(-2.03589 0.109748 -5.02338e-16)
(1.78211 -0.461675 0)
(2.63387 -0.390555 -3.50578e-16)
(4.55454 -0.475278 -2.35878e-16)
(0.0505467 -0.0208931 0)
(4.66554 -0.106324 -1.95132e-16)
(-0.134358 -0.129397 2.16446e-16)
(3.97234 9.80903 -7.14123e-19)
(-0.606008 -0.285651 2.36596e-16)
(0.569884 2.92999 -2.14013e-16)
(12.669 2.06196 -3.61123e-18)
(0.536385 3.38414 1.98708e-16)
(0.306571 0.526498 -1.90816e-19)
(1.48706 10.1427 -2.05678e-17)
(1.13986 -0.718904 -4.23359e-16)
(-0.0604839 2.66099 -6.21557e-17)
(0.289237 5.14498 3.43456e-17)
(0.127878 4.47922 -1.11457e-16)
(-0.030484 3.38897 5.23057e-17)
(-0.00752669 4.57491 0)
(-1.14061 0.255997 -4.17753e-16)
(1.46229 3.59694 -3.76357e-16)
(2.28335 0.271913 0)
(0.159994 3.05194 0)
(0.293103 -0.0406235 -2.84143e-19)
(0.762325 -0.140976 0)
(0.111581 3.31133 0)
(0.158715 3.18002 5.9801e-20)
(0.0985936 3.16379 2.006e-16)
(0.246345 1.34702 -2.81465e-16)
(1.40704 -0.452952 2.01764e-16)
(1.78741 4.67564 0)
(-0.0766154 -0.163535 4.00739e-16)
(1.92462 2.18766 1.97535e-17)
(1.12143 9.71274 -6.38507e-17)
(2.92335 -0.45557 0)
(0.492228 -0.326865 0)
(1.68755 1.48146 0)
(1.48749 -0.294165 0)
(1.26891 1.22389 4.47559e-16)
(1.11786 0.197173 1.85645e-17)
(3.48765 0.53217 -2.1121e-18)
(1.14045 0.379298 5.14366e-16)
(-0.862903 0.156914 2.17272e-16)
(3.9758 -0.118339 0)
(5.11309 0.0943285 0)
(0.298681 -0.0321459 4.82512e-16)
(1.11616 -0.400701 -1.48935e-16)
(-0.558334 -0.466267 4.02363e-16)
(-0.293375 -0.0264092 0)
(0.221455 -0.0754591 0)
(0.283996 -0.0959564 1.00658e-18)
(2.31725 -0.0596721 -1.99248e-16)
(0.739115 -0.243224 -2.82568e-16)
(1.39368 -0.217743 -8.77131e-17)
(0.0715889 -0.0231557 -6.62721e-18)
(-1.00613 -0.283836 0)
(-1.1282 -0.425313 6.60355e-17)
(-1.50535 0.146392 -1.45332e-16)
(0.566534 0.0748331 1.33475e-16)
(-1.17959 0.273102 3.46851e-16)
(-2.0104 -0.0447907 3.68235e-16)
(-0.20769 -0.136409 -6.09601e-16)
(0.228813 -0.0465689 -2.63241e-17)
(0.744587 -0.05049 -1.90193e-16)
(1.8765 -0.17608 -2.70331e-16)
(0.080211 -0.00820824 0)
(4.41798 -0.282873 -5.61273e-17)
(0.357227 0.015778 1.29962e-17)
(5.69326 0.597403 -7.0704e-18)
(3.01788 2.60635 8.66426e-17)
(12.1926 0.707351 1.96812e-18)
(2.05399 -0.19496 -1.02674e-16)
(3.29747 0.00856715 0)
(1.88699 0.316476 1.90023e-16)
(9.40084 0.230937 6.79843e-18)
(7.51393 0.599141 2.46209e-18)
(-0.399006 0.625353 -3.01633e-16)
(-0.600632 0.556929 3.17631e-16)
(0.386376 0.0370707 3.37351e-16)
(2.34637 -0.33926 -1.21961e-16)
(3.70939 0.414386 9.15759e-18)
(-0.0367671 4.0122 0)
(2.35252 -0.00924467 -8.12303e-17)
(5.08335 1.29395 -1.48049e-17)
(0.932987 -0.502994 0)
(0.639765 0.040219 -6.94946e-19)
(0.699379 0.314095 2.09629e-16)
(0.077602 -0.433087 -7.31577e-16)
(5.29549 -0.270989 0)
(0.178368 -0.0876246 -3.61087e-16)
(0.729021 -0.0201147 3.83782e-16)
(0.16102 3.26823 1.75003e-17)
(-0.0124412 2.88356 0)
(1.74616 7.30194 6.3022e-18)
(0.650849 2.25899 3.73323e-16)
(5.47283 0.030778 0)
(0.231203 -0.0472701 -7.70177e-16)
(0.589686 2.4655 -3.87027e-16)
(0.12955 0.0137163 5.9779e-16)
(0.172967 2.77982 -1.5538e-16)
(3.61852 0.659603 -1.01045e-18)
(-0.530254 -0.091391 8.07541e-17)
(-2.04334 0.250093 0)
(0.704332 -0.14844 -2.35758e-16)
(1.13841 -0.0231443 0)
(0.0859989 -0.0605632 0)
(-0.344875 -0.331237 -2.64552e-17)
(1.99997 -0.148524 8.03216e-17)
(-0.887203 0.141663 2.28549e-16)
(-1.61488 -0.196047 1.54781e-16)
(-1.35676 -0.157917 0)
(1.52314 -0.0660103 1.67079e-16)
(0.198764 0.0439804 0)
(1.42637 -0.456633 5.39271e-16)
(0.210755 -0.0642321 -3.64662e-16)
(3.49829 0.111798 3.63577e-16)
(3.534 -0.324362 3.31213e-16)
(0.0170975 -0.00731498 -1.19495e-16)
(3.40257 0.119914 -8.52137e-17)
(3.68669 0.446335 8.38407e-17)
(-0.274454 -0.209362 0)
(-0.410446 -0.557198 -3.72655e-16)
(0.704181 -0.0584026 1.75685e-16)
(0.425557 -0.634761 0)
(10.8005 0.148173 3.17446e-17)
(0.240436 0.062502 2.21221e-16)
(0.64634 0.0476682 0)
(0.236719 4.79933 0)
(5.01521 -0.244381 6.81695e-17)
(0.141096 -0.0452319 0)
(0.564803 2.25457 2.45948e-16)
(-0.0137638 4.67582 -8.63255e-17)
(-0.870853 -0.275478 -2.00805e-16)
(0.869732 0.645871 -4.73636e-16)
(2.57639 -0.29084 2.65759e-16)
(0.517202 -0.166382 1.84446e-16)
(-0.490349 -0.385447 2.61579e-16)
(-0.00173333 -0.0133346 9.17008e-17)
(0.0577541 3.29435 -1.65018e-20)
(1.28072 -0.103373 -2.07351e-16)
(-0.0325646 3.27143 -5.20173e-17)
(0.517507 0.0176607 -4.30682e-16)
(11.2578 0.466671 -2.01415e-18)
(3.23313 1.56402 8.0083e-17)
(6.58747 0.661785 -5.9431e-18)
(3.27755 -0.0711962 2.25304e-17)
(8.09507 1.64707 -3.63745e-18)
(0.452896 2.48087 2.32227e-16)
(3.86048 -0.0984143 -1.26424e-16)
(3.57874 -0.0777666 9.37098e-18)
(-0.79217 -0.192911 -4.66893e-17)
(0.209873 1.72658 -2.16493e-16)
(0.0467809 2.20418 7.34636e-16)
(3.84021 0.497923 8.84259e-18)
(0.366043 -0.165777 2.67939e-16)
(4.35806 1.08693 3.16112e-17)
(8.14284 0.927514 -7.84549e-18)
(0.691136 1.18398 0)
(0.264284 3.65228 -4.43227e-17)
(10.8484 0.278274 3.31644e-18)
(3.53685 1.04105 -1.34858e-17)
(11.2446 0.288207 0)
(3.4385 0.0434675 0)
(1.55368 4.37399 -1.35448e-16)
(1.36642 1.33494 -3.78772e-16)
(1.59172 3.28846 -4.17238e-17)
(1.91525 -0.0893493 -3.95582e-16)
(1.25739 -0.157312 0)
(0.296964 0.774679 1.1214e-17)
(10.9494 2.5647 -2.78608e-18)
(1.75807 4.11066 9.97977e-17)
(0.0110142 1.879 0)
(0.888866 2.42177 -1.02774e-17)
(3.73317 1.36301 -5.22031e-18)
(0.434055 3.52472 7.29637e-17)
(10.5704 -0.067978 2.16894e-17)
(0.0343133 4.09771 -7.28164e-17)
(0.313388 3.23689 -4.49307e-17)
(0.123708 3.26586 -7.29913e-17)
(1.25772 6.11579 0)
(0.905422 -0.0158427 0)
(3.53783 2.3069 -7.52304e-17)
(4.94245 1.70642 0)
(1.62342 3.72329 -2.43447e-16)
(0.0863105 -2.74126e-05 4.86032e-16)
(1.11622 -0.0800118 0)
(2.44503 0.684515 -1.13327e-18)
(3.80379 -0.0796377 -7.24771e-17)
(1.73898 7.90299 -3.87651e-17)
(3.29086 0.0311161 7.81528e-17)
(0.662139 1.94616 -7.53285e-17)
(0.0498655 3.97731 4.80276e-18)
(0.029726 2.67714 1.29279e-16)
(0.165362 -0.0407998 3.43676e-16)
(10.5959 0.586012 -1.09386e-18)
(0.768361 0.555043 -2.08604e-16)
(-0.318775 0.315018 3.5133e-16)
(3.66737 -0.137449 0)
(-0.0387911 2.91588 4.20032e-17)
(0.455741 3.27046 4.42795e-17)
(11.6146 1.02839 0)
(0.625135 0.30812 6.06817e-16)
(0.0438577 3.28884 2.22886e-16)
(1.64708 3.95635 -5.75588e-17)
(1.62875 1.75675 -6.58858e-17)
(1.40157 7.4456 2.66655e-16)
(-0.063003 3.54359 3.68352e-16)
(0.575062 0.209994 0)
(3.44678 1.00882 2.28299e-16)
(3.66872 -0.0910475 0)
(-0.0172458 3.0819 -2.12701e-16)
(10.4854 1.16479 2.02023e-18)
(3.14184 6.70028 -2.98844e-17)
(4.70969 1.17162 3.31474e-17)
(-0.0212426 3.44588 2.61464e-16)
(0.928722 8.02574 4.4608e-17)
(2.63596 0.0445881 3.33818e-17)
(0.077177 4.50347 8.33787e-21)
(0.00121709 3.05913 -4.89749e-18)
(0.190001 3.37774 1.03161e-16)
(-0.0395412 3.42452 -4.99968e-17)
(7.12346 1.10301 9.16363e-18)
(-0.0358432 2.97122 0)
(0.791495 2.96853 -5.57056e-17)
(0.126104 4.36551 0)
(2.30799 0.396805 3.31859e-17)
(3.20799 0.0603947 6.4492e-17)
(1.63168 1.98993 1.87641e-17)
(10.5036 0.827939 -7.27552e-19)
(0.525679 3.52534 0)
(0.46445 3.2335 3.37646e-17)
(0.425539 -0.272794 7.08242e-16)
(0.589414 3.0839 3.71278e-16)
(1.50934 8.61217 0)
(-0.0464075 3.29755 -4.64805e-16)
(0.468652 -0.0773937 2.02399e-16)
(0.716708 -0.165312 0)
(9.92053 0.516571 -3.87327e-19)
(3.30654 -0.0964289 2.17001e-18)
(3.48633 -0.00907843 -1.36648e-17)
(0.0433786 3.99149 5.55977e-17)
(0.206612 3.14761 -8.25659e-17)
(3.33992 -0.117403 5.78514e-21)
(10.5305 1.60203 -4.87249e-18)
(6.04744 1.70346 3.74243e-17)
(0.0981239 3.2025 -6.95651e-17)
(-0.0727523 0.92895 1.76105e-16)
(10.8106 0.139042 -1.93862e-17)
(1.00432 1.44951 0)
(3.46768 -0.00227456 7.13176e-17)
(0.0465782 2.58743 4.41796e-17)
(1.91682 6.35321 -6.31294e-17)
(0.69717 3.37586 -2.07631e-16)
(0.922556 5.04973 0)
(1.0514 9.18496 6.04519e-17)
(-0.759889 -0.0562671 0)
(0.991382 1.82704 -6.77066e-17)
(-0.0109801 3.14446 9.4812e-17)
(3.23726 0.650559 -1.53858e-17)
(2.48123 0.214528 6.11814e-17)
(8.77088 1.46796 0)
(0.245024 3.84908 -4.15808e-20)
(9.46739 1.23534 -6.61854e-17)
(1.50671 4.88427 2.59931e-17)
(0.0115033 1.41321 1.98599e-20)
(-0.0173579 2.04591 -1.01238e-16)
(0.881146 2.00375 0)
(0.204954 3.0533 2.99067e-16)
(0.0220081 4.73055 1.13277e-16)
(1.89351 1.12517 2.83097e-16)
(3.35661 0.295208 0)
(5.60453 1.00542 0)
(0.210125 3.16559 1.95973e-16)
(5.48881 1.47436 -4.68016e-17)
(11.7654 0.456611 0)
(3.04809 0.93954 -3.40054e-17)
(-0.0353458 0.00791736 -2.79844e-16)
(0.543518 3.29635 2.23087e-16)
(4.58206 1.49956 -4.07726e-17)
(0.621802 1.63274 -9.03228e-17)
(0.856622 7.45017 -1.50921e-16)
(-0.0114367 3.46425 -6.18923e-17)
(2.60006 4.95179 0)
(0.0921516 1.85279 0)
(0.505315 0.525021 2.44535e-16)
(0.058432 1.45496 1.1707e-17)
(1.01298 1.03598 -3.07386e-16)
(0.715038 0.00496217 -2.33024e-16)
(3.14449 0.488598 -4.08011e-18)
(0.660996 1.14322 1.10333e-16)
(0.795238 2.87049 -5.84513e-17)
(3.37819 -0.131013 -4.96821e-17)
(3.05168 1.19163 2.35719e-17)
(0.19864 3.03274 -4.39287e-16)
(0.150418 3.12602 -3.78833e-16)
(4.0455 0.966239 -2.14245e-17)
(3.98874 3.35816 2.64308e-16)
(1.56883 0.133756 0)
(-1.15213 -0.373777 -9.10517e-17)
(-0.573408 -0.0135442 0)
(0.597326 3.49175 -3.70586e-16)
(4.58812 1.99292 0)
(1.66581 3.44754 -1.26541e-18)
(3.39985 0.40773 1.69075e-17)
(0.262363 0.0144988 -2.66898e-17)
(5.68786 5.08305 1.33596e-18)
(2.43135 1.29767 2.51528e-17)
(4.05666 2.12859 0)
(0.40593 0.0717168 0)
(0.440935 1.1127 0)
(1.76937 3.65418 4.55063e-16)
(0.170867 0.0189804 -2.86729e-16)
(0.390102 0.0497825 0)
(0.385247 3.32844 4.53184e-16)
(1.60181 -0.134689 3.19103e-17)
(3.55067 -0.0725644 6.36779e-17)
(0.645631 2.23497 2.6622e-16)
(0.176096 -0.038081 2.17261e-16)
(0.482041 3.37449 -4.44772e-16)
(0.116139 -0.769208 -3.68736e-16)
(3.23188 0.00639165 -1.56138e-17)
(0.589105 1.18567 -4.95635e-17)
(0.242677 3.20747 0)
(6.5841 1.14119 6.57016e-18)
(1.78936 3.75562 -2.03261e-16)
(0.046018 -0.195727 0)
(0.66758 -0.0175339 0)
(0.556181 1.25716 3.82115e-17)
(3.62147 4.92586 1.0065e-16)
(0.235622 2.94652 0)
(0.557089 3.57756 2.09234e-16)
(0.151787 3.55606 0)
(2.9639 0.675893 2.35168e-17)
(9.64114 0.87847 6.05227e-17)
(3.43112 3.72859 -1.90725e-16)
(0.678543 1.61704 0)
(0.927798 4.28877 2.01516e-16)
(0.512786 -0.17481 -4.08428e-16)
(0.296688 0.740437 2.83304e-16)
(2.3464 2.29915 -8.95446e-19)
(0.556225 -0.424856 3.15548e-16)
(1.87747 1.5071 -1.86481e-16)
(8.99697 3.17923 1.82085e-18)
(-0.717896 0.642728 -8.4071e-17)
(10.5804 0.282543 -2.28701e-19)
(0.195399 3.20699 -1.40632e-19)
(0.491934 -0.064268 -4.69186e-16)
(-0.0287392 1.89807 -4.27868e-17)
(0.225463 1.8435 -8.92196e-17)
(3.11203 0.339481 3.79451e-18)
(0.204541 0.0223633 -4.9993e-17)
(7.52598 6.00272 1.68815e-17)
(0.505925 3.47849 2.06861e-16)
(11.7475 3.6471 -4.37735e-19)
(-0.0468712 3.43337 5.0991e-17)
(0.63925 5.34847 1.27694e-17)
(1.28177 8.98233 -7.59102e-17)
(-0.464677 -0.541205 -2.2279e-16)
(8.91955 0.329525 1.00262e-16)
(1.36224 1.72213 0)
(0.258439 3.0104 1.13409e-16)
(7.8202 0.99425 -1.15565e-18)
(2.68518 1.89842 -2.53244e-17)
(1.30214 0.0521262 -8.12487e-17)
(0.188813 1.16571 0)
(7.62746 1.51322 -2.41098e-18)
(0.399645 2.78428 4.69249e-16)
(1.77298 3.92439 1.04803e-16)
(0.442127 0.303201 0)
(0.792184 -0.39521 1.66034e-16)
(9.64153 4.93958 -1.28821e-17)
(0.661696 3.72157 5.28698e-17)
(1.48171 2.00008 -7.55954e-16)
(0.504992 3.69195 3.21234e-18)
(1.49062 3.923 0)
(1.56668 1.96718 -3.40252e-17)
(3.17149 0.133267 1.25111e-16)
(1.38023 2.18025 -2.20828e-16)
(1.3068 2.25372 2.20936e-16)
(3.42479 -0.130029 1.61759e-16)
(6.72802 1.77923 -4.71621e-18)
(0.423266 0.771196 4.93457e-20)
(0.720828 3.13282 4.12151e-19)
(0.643564 3.13654 -1.52324e-16)
(0.401248 3.47329 -4.27891e-16)
(1.07491 3.95964 -5.27897e-17)
(2.61752 3.0802 -1.04344e-16)
(0.241876 3.04227 3.35018e-17)
(5.31539 2.07617 1.30716e-16)
(0.202191 3.13727 -3.60209e-17)
(1.46719 0.347257 -9.03035e-17)
(0.809757 3.24166 1.95167e-20)
(1.07413 4.19652 8.85685e-17)
(-0.388797 -0.0856339 1.04135e-16)
(3.35848 0.204402 3.33787e-17)
(0.830932 3.25291 1.74772e-17)
(3.04698 2.72837 0)
(1.74083 3.53793 0)
(0.842634 3.24519 8.48062e-18)
(0.111456 1.98418 1.9859e-16)
(0.558273 3.79897 -1.90745e-17)
(0.528545 0.00512926 2.43221e-16)
(1.84591 2.69532 3.3481e-20)
(-0.308265 -0.760952 0)
(1.64587 3.9318 -1.89387e-16)
(0.852651 3.19658 0)
(0.086202 2.44391 -1.0609e-16)
(0.326354 2.07598 -5.37193e-16)
(2.05852 1.45468 -1.12e-16)
(2.08895 2.58675 4.58684e-17)
(0.87258 3.0919 1.87153e-17)
(0.0575646 -0.737749 4.3716e-16)
(-0.0827226 -0.178194 -5.20154e-20)
(3.58656 -0.149278 9.27887e-17)
(0.174037 -0.0125593 -3.3837e-16)
(12.302 1.72647 2.1665e-18)
(0.192686 3.06393 2.01958e-16)
(0.214595 3.05773 2.9823e-16)
(0.199127 3.06563 4.19053e-21)
(0.20592 3.01548 0)
(0.19598 3.064 -1.9043e-16)
(0.190979 3.05083 -1.37778e-16)
(0.182664 3.0572 -1.37978e-16)
(0.216851 3.04202 -2.98451e-16)
(0.196731 3.02491 4.17693e-16)
(0.247629 3.02697 1.16291e-16)
(0.266505 -0.585168 0)
(10.5889 0.630223 1.75637e-18)
(0.308022 -0.356444 -1.17674e-16)
(0.342707 -0.150964 3.29467e-16)
(0.482798 -0.0221687 -4.81162e-16)
(0.362264 0.00580584 -6.9911e-20)
(0.303948 0.162721 0)
(0.244836 0.093032 -1.1216e-16)
(3.95206 1.57713 4.01353e-17)
(1.98002 0.80339 5.43203e-17)
(2.32941 1.15742 4.99404e-17)
(0.426546 -0.607208 -2.70766e-16)
(2.42346 -0.647285 -1.40686e-16)
(0.00782355 -0.536822 0)
(2.13664 -0.529976 -7.89733e-17)
(2.53605 -0.630373 2.34966e-16)
(1.83573 0.145034 8.26573e-17)
(8.60802 0.22729 -2.18872e-18)
(0.250737 -0.575115 0)
(0.307171 -0.380552 3.61266e-16)
(1.61532 0.512539 -1.08716e-16)
(0.818297 -0.526174 2.27457e-16)
(8.68271 0.105717 -2.89208e-17)
(1.89769 -0.733617 -2.3626e-16)
(0.307689 -0.626214 -2.04055e-16)
(0.851815 -0.771749 2.68693e-16)
(0.0621808 -0.299629 4.16707e-16)
(8.60784 0.0402612 1.03176e-19)
(0.65521 -0.785163 -2.50951e-16)
(8.69747 0.0321387 -2.48208e-17)
(1.83391 -0.507469 -6.12544e-16)
(1.72804 -0.415753 0)
(0.0866929 -0.153553 3.5302e-20)
(2.35665 -0.831984 0)
(10.7705 0.311541 3.5276e-17)
(10.8033 0.472746 1.11977e-16)
(0.213605 -0.913756 1.45771e-16)
(0.625033 -0.125035 -1.35912e-16)
(0.369973 0.0844455 7.42826e-16)
(2.05068 -0.281222 0)
(1.62751 -0.977516 0)
(0.395457 0.184873 0)
(10.4159 0.416103 2.4434e-17)
(2.25177 0.204769 2.15008e-16)
(0.509178 0.146754 1.94066e-17)
(2.37075 -1.09222 2.22098e-16)
(0.0686879 -0.117804 0)
(0.467437 0.0654305 0)
(0.175056 -0.0899642 2.74975e-17)
(0.645092 0.101417 2.00505e-16)
(9.68306 0.550052 -7.17834e-17)
(2.08602 -0.0489071 2.01246e-16)
(0.157194 -0.0260293 2.14075e-16)
(0.568514 0.202274 3.87954e-16)
(3.17214 -0.767681 -2.69654e-16)
(0.0409379 -0.140939 -2.26941e-16)
(0.178922 0.00861325 1.98414e-16)
(9.37564 0.821802 1.68335e-17)
(1.81992 0.0816917 -2.63467e-16)
(-0.109211 1.1952 -5.34114e-16)
(0.0263544 1.14746 1.86606e-16)
(0.414487 0.325726 -4.9148e-16)
(-0.100214 0.512971 1.07136e-15)
(0.189831 0.488896 -2.19161e-16)
(9.51709 1.05757 -3.58157e-17)
(10.4046 0.722439 -9.5332e-17)
(0.127533 -0.264962 -3.67828e-16)
(2.04047 0.279209 2.10365e-16)
(1.60732 0.169629 1.97159e-16)
(-0.0172935 0.791279 0)
(0.501871 0.214802 2.8702e-16)
(2.24204 -0.397174 2.75531e-16)
(0.104063 -0.185973 0)
(0.185097 0.00436364 0)
(0.247881 0.542253 2.42113e-16)
(3.51791 0.0116522 -1.47697e-16)
(0.00889943 1.00694 -9.71116e-17)
(0.551312 0.285362 1.69111e-16)
(1.04699 -0.429864 1.87043e-16)
(10.3878 1.02444 -3.08756e-17)
(2.24789 3.28913 0)
(1.71852 0.38604 -4.08531e-16)
(0.489349 1.4936 -2.10167e-16)
(3.47901 -0.114209 -6.08176e-17)
(0.479487 0.373456 -1.21825e-16)
(3.33476 -0.16206 -8.94548e-17)
(9.77201 1.4973 5.8124e-17)
(0.13083 3.3327 -5.3649e-19)
(0.57499 -0.729257 0)
(-0.211502 0.0451936 2.79048e-17)
(2.65728 0.944167 1.76731e-16)
(1.48309 0.734525 -3.20432e-16)
(0.46961 0.720858 0)
(1.37323 0.26955 0)
(0.397086 3.05926 0)
(0.202918 0.0632931 5.10145e-16)
(-0.30021 -0.0143879 3.28072e-18)
(0.57441 4.06857 3.06182e-17)
(0.608356 0.464423 7.85304e-17)
(1.12965 -0.813237 2.42686e-16)
(0.824401 2.88654 1.84224e-16)
(-0.0240924 0.348935 -3.69769e-16)
(0.181684 2.71142 -7.95613e-17)
(1.75662 0.608248 4.89739e-16)
(0.283655 2.18317 4.4019e-16)
(-0.279148 -0.25302 7.20741e-17)
(0.917014 1.34664 -1.00004e-17)
(0.915543 6.01494 -4.98542e-17)
(0.79541 3.0643 0)
(0.299429 3.05711 0)
(1.55433 2.22896 3.3162e-16)
(0.106721 0.305914 4.18183e-16)
(0.220881 3.07642 0)
(1.09595 3.01529 -4.09597e-16)
(0.00457224 -0.386587 -4.37223e-16)
(0.626746 0.253506 -7.30985e-16)
(3.28212 -0.151831 1.50712e-17)
(0.0886233 1.20846 -1.82032e-16)
(0.592758 5.03949 3.73047e-18)
(2.21278 7.26287 0)
(0.246068 3.04656 5.52048e-17)
(10.2704 1.86502 -5.60847e-18)
(4.53841 3.04273 7.47561e-17)
(0.731864 1.40975 0)
(4.88177 7.94678 0)
(0.684296 1.16276 1.06866e-16)
(1.17137 1.24984 0)
(3.62533 -0.0882839 -9.29956e-18)
(0.0303216 1.81417 -1.29494e-16)
(0.215061 3.15319 2.52128e-16)
(0.757939 2.5805 -4.33336e-17)
(4.4861 5.887 -3.82706e-17)
(0.225039 2.97423 -8.10987e-17)
(2.08901 0.590461 -1.14624e-16)
(-0.0511082 -0.403965 1.13876e-16)
(1.40672 4.28959 5.00631e-17)
(3.47678 -0.133192 1.09945e-16)
(0.0897996 3.09549 0)
(0.15356 2.91717 1.56308e-17)
(0.237065 3.02136 3.1363e-19)
(0.75874 2.67993 0)
(2.35125 6.32584 2.63326e-18)
(2.36419 4.19637 1.55964e-16)
(1.89077 3.37294 -1.49291e-16)
(2.20819 3.30192 2.04923e-16)
(-0.0326497 3.29716 7.25492e-21)
(0.309951 3.86593 -1.57029e-16)
(1.77758 0.904929 -7.43455e-16)
(0.379477 0.631204 0)
(0.659556 0.833591 1.3312e-16)
(0.0834969 2.47659 -3.9234e-17)
(0.0597526 2.10235 4.57507e-17)
(1.58149 1.23223 -3.13163e-19)
(1.69825 1.92169 -1.4801e-16)
(-0.00177586 2.94912 -7.18381e-20)
(0.575892 3.03237 0)
(0.748615 -0.846832 -2.03249e-16)
(1.51857 2.26435 6.14741e-16)
(4.14541 1.48588 0)
(10.7152 0.419439 2.02953e-18)
(1.18753 7.59237 3.14978e-17)
(0.555768 0.711667 1.00351e-17)
(0.942686 3.47623 5.43227e-17)
(1.36233 0.481004 0)
(2.08997 5.03411 1.28833e-16)
(1.92172 3.79227 -2.56569e-16)
(2.28069 12.1558 4.33175e-18)
(2.76955 4.07339 7.16611e-17)
(2.05048 -0.0109002 -4.81022e-17)
(0.251885 -0.0873052 -3.22247e-16)
(3.40409 -0.155535 5.75121e-17)
(1.0051 1.05648 -1.39623e-16)
(1.17659 2.1416 3.89092e-16)
(0.169773 2.81468 -2.23742e-17)
(0.354771 3.72059 -7.89885e-17)
(0.296547 3.25148 2.27824e-16)
(11.5583 0.0887318 -9.093e-18)
(3.25263 -0.0388831 -3.67276e-17)
(0.125543 1.55716 -1.4556e-16)
(1.66407 3.20141 -2.86574e-17)
(3.80444 0.803737 -1.49408e-17)
(2.2265 0.933758 -3.36182e-16)
(-0.181117 -0.0219249 -1.11809e-16)
(1.29062 2.81469 2.01131e-16)
(0.805063 1.2801 1.40524e-16)
(1.0516 5.00556 -8.46652e-17)
(0.492563 3.08814 -2.42122e-16)
(0.268725 0.318229 0)
(2.80928 5.1915 -6.86157e-17)
(0.896488 0.0292206 0)
(0.663546 1.29927 1.63128e-16)
(1.23948 0.717437 0)
(-0.116983 -0.0255624 5.24346e-16)
(0.259074 2.91273 -2.44583e-16)
(0.768806 2.45749 5.88523e-17)
(1.84553 4.14269 1.07089e-16)
(5.1835 0.532613 -6.90407e-17)
(3.13453 0.226799 1.22018e-16)
(0.318517 2.90119 -2.14551e-16)
(2.04726 0.551493 9.84309e-17)
(0.275256 3.41433 -2.12935e-16)
(4.97139 2.65501 -2.47238e-16)
(3.06508 0.0421669 5.29567e-17)
(1.01856 3.36083 0)
(0.0407781 2.31261 -4.13704e-17)
(0.740369 1.10563 1.14732e-16)
(1.61408 4.70647 -2.50823e-17)
(1.71034 3.68496 1.55762e-16)
(0.93892 -0.175137 1.80721e-16)
(2.01305 1.6644 2.52e-17)
(0.0368165 1.79455 1.64186e-16)
(0.205152 3.07798 -8.46672e-18)
(0.193717 3.3661 1.44363e-16)
(2.23705 4.2073 -1.26378e-16)
(0.145734 -0.126977 7.59548e-17)
(1.71443 3.70712 -8.77772e-17)
(0.508479 3.398 -2.2024e-16)
(1.49874 5.65233 -5.60624e-17)
(0.22922 0.694999 0)
(8.86002 0.56491 -1.70365e-16)
(7.41311 1.71138 1.24956e-17)
(0.574348 3.14457 1.69387e-16)
(0.438559 1.08322 7.39952e-16)
(0.650077 1.66744 4.45045e-17)
(0.135984 1.29432 0)
(3.44048 0.634749 -1.50421e-16)
(-0.203622 -0.011297 8.13054e-17)
(0.170839 0.182578 -3.76026e-16)
(1.24725 0.951421 8.48052e-19)
(0.599931 -0.128353 -1.78501e-17)
(0.933353 2.94713 6.87045e-17)
(4.01776 0.581763 -8.60003e-18)
(9.27749 0.430045 0)
(0.303294 3.01709 0)
(0.0784248 1.74134 -7.73331e-17)
(0.00657742 -0.069019 2.7304e-16)
(9.86689 0.507383 0)
(0.94875 -0.503382 2.15525e-18)
(2.06186 4.35243 -3.10111e-16)
(2.78377 0.392753 0)
(2.81851 0.537422 0)
(2.38013 1.31151 -1.37268e-16)
(1.88854 2.07548 2.77764e-17)
(8.71396 0.36265 0)
(1.08636 -0.262851 1.94217e-16)
(0.437022 -0.140608 -1.6544e-16)
(0.103806 2.4354 0)
(0.492246 3.00449 0)
(0.0144653 -0.415413 2.15145e-16)
(3.36596 0.157831 -5.58885e-18)
(1.36084 1.20885 1.54184e-16)
(0.122333 0.879579 -3.80036e-16)
(0.171173 2.82463 7.52815e-17)
(3.13634 0.141374 0)
(2.7475 0.0949131 0)
(0.198207 3.05536 -2.13649e-16)
(5.0272 0.236472 -2.20075e-18)
(2.71367 3.55126 -1.89735e-16)
(2.59099 0.0629314 1.40191e-17)
(4.36863 4.77752 -3.76502e-18)
(4.25629 0.204715 0)
(1.71931 3.33554 0)
(0.781698 2.75389 -8.77792e-18)
(2.92776 0.121382 0)
(0.0473841 2.44618 0)
(10.7238 0.597685 -1.18118e-18)
(0.334902 3.67071 -2.7383e-16)
(4.61744 0.220336 0)
(1.16596 1.15505 -5.27008e-18)
(0.81115 3.69761 3.34296e-17)
(0.314494 3.58155 1.0298e-16)
(1.44459 1.1069 -2.14178e-16)
(0.979037 4.44271 -3.88833e-18)
(0.0189627 3.27449 4.49118e-17)
(0.136289 -0.00651932 -3.48704e-20)
(0.203708 2.53707 -4.73304e-16)
(0.056658 1.87366 -1.21226e-19)
(0.060455 1.81376 2.55188e-16)
(2.62247 0.0743172 -2.48977e-16)
(0.311698 3.37659 2.09969e-16)
(0.214967 2.58487 0)
(0.0876567 4.00123 2.35349e-18)
(10.1069 0.47933 -9.03531e-18)
(0.687693 2.10999 0)
(0.833028 0.137311 5.68081e-16)
(4.0744 0.37873 1.58959e-17)
(0.772733 1.34503 0)
(0.220913 1.6979 4.68332e-16)
(2.54188 7.76508 0)
(1.61643 8.55062 2.44556e-17)
(0.583424 -0.187358 0)
(4.8521 0.839599 2.04245e-17)
(0.271091 2.14693 -3.21321e-16)
(2.98341 0.118735 -9.3133e-17)
(2.29145 1.08328 -2.08336e-17)
(0.083949 0.601853 3.04828e-16)
(0.180783 2.94051 -6.95733e-17)
(5.43721 0.25667 8.01361e-18)
(8.2905 0.297036 0)
(3.24046 -0.13296 -1.75062e-17)
(0.102611 3.40228 0)
(0.446787 3.57506 0)
(2.90115 0.228581 -1.17112e-16)
(2.4085 3.9989 0)
(0.180094 2.99368 0)
(1.21423 3.74926 -3.81156e-17)
(3.63906 -0.295753 0)
(0.164683 -0.19471 2.12339e-16)
(0.453594 3.93592 6.74543e-17)
(1.0262 -0.699311 2.31825e-16)
(0.824486 0.495957 1.75542e-16)
(1.56942 0.312633 2.02259e-17)
(3.61807 0.333344 -5.56236e-17)
(1.52807 -0.655001 -3.76749e-16)
(13.5597 2.62753 0)
(0.609092 4.20129 0)
(0.206885 3.1682 -2.32226e-16)
(0.143523 0.190175 -3.63133e-21)
(0.803482 4.09252 1.40432e-17)
(1.11141 0.445722 2.17105e-17)
(10.6822 2.14561 3.34941e-18)
(3.25957 1.80501 4.52028e-17)
(0.0519912 0.635962 -1.02616e-16)
(1.14315 -0.512906 3.67011e-16)
(-0.0228572 -0.39504 -3.38034e-16)
(0.0186693 2.89613 0)
(2.28891 -0.481422 3.99658e-16)
(2.73963 -0.544885 -1.98337e-16)
(0.885409 3.49341 -3.47162e-17)
(1.8656 0.182611 -1.75346e-17)
(0.169173 1.42984 -5.10701e-16)
(0.0390034 3.14525 -7.33108e-18)
(0.880232 4.45226 1.79767e-16)
(0.151496 3.07563 1.10626e-16)
(0.200248 3.22512 0)
(1.74271 1.7667 9.76789e-17)
(2.48312 0.00678897 5.39997e-17)
(0.0255144 0.297768 0)
(0.614441 3.27629 -1.94363e-16)
(0.276681 0.731717 -7.35795e-16)
(1.7024 2.72646 0)
(0.729086 0.0119257 -1.75403e-16)
(0.664829 2.09307 0)
(0.0634982 -0.73997 -8.95735e-19)
(3.62857 0.175693 -2.61132e-18)
(9.65342 2.34857 1.97971e-18)
(2.16118 3.80928 0)
(1.53757 1.7358 2.15429e-16)
(0.2313 3.54203 -1.33764e-16)
(1.61482 1.96247 0)
(2.35163 0.310943 -1.17347e-16)
(0.00366231 0.00855781 -1.74324e-16)
(0.00812109 2.92584 -1.35957e-16)
(0.6093 3.20845 1.50961e-16)
(0.166261 2.60983 3.14624e-16)
(2.49171 0.0304326 -2.94449e-17)
(2.95239 -0.193406 0)
(0.457417 3.40618 0)
(2.99993 -0.212441 2.88333e-17)
(0.673929 1.76322 2.11868e-16)
(0.0790767 3.29373 -4.89682e-17)
(1.83134 -0.253566 1.19326e-16)
(0.347705 -0.108935 -2.78579e-16)
(0.228088 3.04438 0)
(0.154481 2.97745 1.22312e-16)
(9.73254 7.84218 -1.42608e-18)
(0.309834 2.51668 4.21057e-17)
(0.742491 3.81898 -1.65329e-17)
(0.356999 0.673243 -1.16444e-16)
(1.97335 3.99607 2.06719e-16)
(3.97026 1.20989 2.91711e-18)
(3.35187 0.063705 -1.22579e-16)
(1.34303 0.512208 0)
(11.419 0.781457 2.25521e-18)
(0.219936 3.09179 9.02821e-17)
(8.38517 0.391067 1.14299e-18)
(0.0935496 2.52774 -1.45394e-16)
(-0.0792493 -0.594368 -1.87468e-16)
(0.193734 3.05539 -4.06029e-16)
(0.444742 3.41269 6.18839e-19)
(0.158402 0.0353758 5.23501e-16)
(1.80214 3.82483 -1.28685e-16)
(0.716578 1.66372 -4.95849e-16)
(0.463733 2.97016 -1.48797e-19)
(3.93838 0.190845 1.06133e-17)
(0.0980372 3.20271 -6.64946e-17)
(0.20652 3.1418 4.43647e-17)
(0.330913 4.90931 -2.50474e-18)
(-0.361077 -0.448898 0)
(1.58014 -0.0676764 0)
(0.204291 3.04708 -1.12123e-16)
(5.91053 0.276478 1.82545e-18)
(7.92005 0.18688 -1.30199e-17)
(0.182413 3.41931 2.05623e-16)
(1.57462 1.62307 -3.80621e-17)
(1.64568 0.00201264 7.27873e-17)
(4.52694 0.730159 9.38827e-18)
(0.192429 3.05307 7.54088e-17)
(0.810236 2.80226 -1.36004e-16)
(2.02545 0.96037 4.87412e-16)
(0.71281 2.08047 -1.3459e-16)
(0.517589 0.120287 0)
(0.581424 0.00194657 -1.34006e-16)
(0.209255 1.47997 -1.42062e-16)
(1.07883 2.43585 0)
(7.64487 1.02786 -1.08511e-17)
(0.708524 0.0575206 1.04244e-16)
(5.11078 0.0606554 0)
(-0.00649874 -0.0246432 0)
(6.12844 2.6024 -3.0724e-17)
(-0.00594473 3.3669 2.31531e-17)
(0.46187 5.06477 -6.80532e-18)
(0.671844 0.775002 0)
(-0.303002 0.0676845 1.01102e-16)
(0.503251 -0.15892 9.1181e-16)
(1.22787 -0.227114 -6.0345e-16)
(3.52842 0.179112 -4.01596e-17)
(2.61838 2.12086 7.2603e-17)
(0.254321 -0.0774943 2.87273e-16)
(0.784653 -0.117866 0)
(0.331443 0.78734 -9.18422e-17)
(1.76999 2.26382 -2.30116e-18)
(2.03058 3.17705 8.30176e-17)
(1.40639 1.8168 -3.33509e-17)
(0.300084 2.5108 0)
(0.734211 3.50102 1.09814e-16)
(0.193823 2.54731 1.2352e-16)
(2.42952 -0.124522 0)
(9.61975 0.625263 1.45008e-16)
(0.861204 3.62353 0)
(0.351073 2.96229 0)
(2.89038 4.90385 -2.93958e-18)
(0.529891 3.22332 2.51562e-16)
(0.517914 4.43459 1.4517e-16)
(4.86481 0.129037 -1.77232e-16)
(0.335416 -0.261652 2.69596e-16)
(3.1453 -0.335823 1.98735e-16)
(0.0290632 2.71102 0)
(0.735211 3.61838 7.06493e-20)
(0.227413 2.74097 -2.35984e-16)
(7.77055 0.0246253 -6.57116e-17)
(2.19586 -0.203055 5.34261e-17)
(0.177783 3.2888 3.83171e-16)
(0.22026 0.574874 -1.43583e-16)
(1.41384 1.68001 1.55965e-17)
(6.11193 -0.0425707 4.11056e-17)
(3.29233 -0.173098 -7.40704e-17)
(0.114906 8.74255 8.02219e-17)
(0.0162778 2.55127 2.65761e-20)
(0.0160353 2.52438 1.2865e-16)
(-0.0074906 2.45091 1.18458e-18)
(0.00661915 2.48608 0)
(0.072337 9.53529 -7.08121e-17)
(0.0203625 2.53707 -2.42164e-16)
(0.0319738 3.75245 -9.78098e-19)
(0.0821442 3.54992 -2.74717e-17)
(0.0476284 3.63351 0)
(0.0324884 3.8771 5.55353e-17)
(0.147368 8.13107 0)
(0.151259 10.3028 0)
(0.0249855 4.03742 -7.31785e-17)
(0.309136 6.85181 -4.27891e-18)
(0.231679 7.52408 -3.94324e-18)
(0.0123355 4.13539 2.32269e-17)
(0.0248798 2.48866 1.2693e-16)
(0.0334515 2.47306 0)
(-0.0124959 4.14046 -3.20202e-17)
(0.0477152 2.49464 0)
(0.0570214 2.55033 0)
(-0.0378612 4.09693 2.39126e-17)
(0.0638055 2.627 0)
(0.133831 2.41088 1.42611e-16)
(5.4795 4.10663 -6.04283e-17)
(0.640893 -0.476089 2.84793e-16)
(0.123509 0.437565 0)
(1.77838 3.57268 -1.26898e-16)
(-1.14661 -0.599339 1.07869e-16)
(0.680423 1.11698 4.7e-16)
(8.08117 1.9989 -1.78782e-17)
(-0.0663188 3.48945 -2.91786e-17)
(0.835344 5.77656 0)
(-0.767071 0.103042 5.43018e-16)
(1.16571 -0.303237 3.26095e-16)
(2.3447 0.590281 0)
(5.10845 -0.118028 3.22071e-17)
(1.99374 -0.801586 -2.31739e-16)
(0.111182 -0.149123 -2.13641e-16)
(6.10838 3.29041 1.06743e-16)
(2.59228 3.45956 -5.46729e-17)
(0.193107 2.73331 1.32127e-16)
(2.8086 1.774 -4.1855e-17)
(3.29107 0.020658 -8.09296e-17)
(8.09328 0.631455 -2.96638e-19)
(-0.977428 0.158943 -3.21846e-16)
(0.0700285 2.71815 0)
(1.63975 3.65831 4.07202e-16)
(1.6203 2.08458 -9.6801e-20)
(1.4462 0.0774142 6.47638e-17)
(1.32079 0.193089 0)
(10.9575 0.148178 2.75519e-17)
(-0.0125501 0.649489 -1.84679e-16)
(3.75574 0.103954 3.17978e-18)
(0.191458 2.21206 1.76258e-16)
(0.209068 3.11933 0)
(0.609647 1.34479 1.17394e-17)
(0.690184 1.49587 -9.41823e-17)
(8.95892 3.01558 2.51572e-17)
(0.954759 -0.88692 2.93769e-16)
(1.1178 -0.31361 -2.87168e-16)
(-0.140965 -0.298478 2.45277e-16)
(2.31878 -0.226808 -5.94302e-17)
(0.66714 2.06678 4.79101e-17)
(-0.0309533 2.76103 1.4518e-20)
(0.2204 4.76694 -2.05431e-17)
(0.0819035 0.753014 0)
(1.45834 1.52945 2.52363e-19)
(0.677064 0.304385 6.90232e-17)
(3.74535 0.74921 9.75012e-17)
(0.437781 -0.546096 0)
(0.832007 0.347398 -4.23607e-16)
(0.0292503 -0.0459975 0)
(11.3101 0.604108 2.00208e-18)
(0.731056 2.78947 0)
(1.35261 1.66422 -8.75186e-17)
(0.0926946 1.45005 1.76465e-16)
(0.122197 -0.139679 3.29851e-16)
(3.63915 -0.588411 0)
(3.13365 -0.00917708 -2.87405e-17)
(0.0808169 2.88949 4.99853e-19)
(0.224401 -0.822454 0)
(2.52684 -0.00896432 0)
(1.13265 1.45534 -3.33675e-16)
(0.052216 2.92455 -1.34385e-17)
(7.42042 0.0078257 0)
(0.152649 0.112677 -1.45525e-16)
(4.52594 -0.767241 -1.80541e-16)
(0.0774662 -0.0887278 0)
(0.143344 2.55055 3.55015e-16)
(1.54413 -0.709682 -1.33688e-16)
(7.36521 5.1103 2.07608e-17)