/*--------------------------------*- C++ -*----------------------------------*\
| =========                 |                                                 |
| \\      /  F ield         | OpenFOAM: The Open Source CFD Toolbox           |
|  \\    /   O peration     | Version:  v1912                                 |
|   \\  /    A nd           | Website:  www.openfoam.com                      |
|    \\/     M anipulation  |                                                 |
\*---------------------------------------------------------------------------*/
FoamFile
{
    version     2.0;
    format      ascii;
    class       volScalarField;
    location    "0.95";
    object      p;
}
// * * * * * * * * * * * * * * * * * * * * * * * * * * * * * * * * * * * * * //

dimensions      [0 2 -2 0 0 0 0];


internalField   nonuniform List<scalar> 
1431
(
94.4086
93.369
91.861
94.0698
88.6352
90.2372
93.7041
38.6943
92.1528
93.6878
45.4838
45.1804
92.8285
84.7838
89.3122
93.6691
86.3694
91.9824
88.2112
90.8807
40.5004
84.6177
92.4758
20.1875
91.8733
92.8477
51.58
90.5404
92.6526
84.6518
87.5108
91.9014
87.8228
85.4409
91.9808
93.5107
91.7702
92.8789
93.582
91.3788
91.8924
91.8932
92.8515
93.6308
87.5441
91.7515
85.9729
55.7062
93.7193
92.9023
93.2619
93.5974
93.267
53.2554
93.9781
93.6963
89.7331
48.4574
85.0711
91.9615
90.8111
93.6963
92.983
92.9351
93.6121
93.7314
89.8066
92.8785
91.5506
86.8271
47.3926
85.1669
94.0596
85.5644
85.0909
91.933
90.7226
92.9512
93.6729
92.6875
85.8296
91.6999
87.056
86.4266
40.3834
94.091
94.1694
88.5296
52.5578
70.3701
90.5241
89.2275
92.8502
93.6285
94.1674
87.7962
44.9711
86.9006
93.6469
90.7328
93.6822
93.6746
85.169
92.7082
92.9349
87.1578
91.9695
55.9529
90.3467
84.5942
92.7762
92.7385
91.9085
91.439
93.6709
90.1287
84.913
94.0615
94.0911
92.9728
88.1426
88.8385
55.1514
85.7564
43.6563
93.6383
91.3857
87.3503
91.403
94.2155
87.0323
91.5341
94.2171
87.9799
91.8426
92.8277
92.8087
93.711
50.11
92.8932
93.5764
86.6791
85.3699
92.8553
94.7424
87.7302
92.8705
93.5761
93.647
91.5839
92.9
92.1685
91.3367
94.1172
91.3483
92.78
49.0279
91.2971
79.5025
94.1543
63.4468
92.7168
94.0882
94.1483
54.6425
92.3192
90.8811
93.9842
92.9142
90.9297
62.742
93.4555
90.0849
50.7816
92.7092
48.5699
94.2028
88.898
93.3664
92.2597
93.701
93.5682
93.8119
23.5005
89.8138
91.2192
51.2682
91.3903
89.8678
51.2532
87.7151
90.3306
91.3556
58.4155
94.0772
88.2833
85.6128
91.2248
91.3576
91.5474
93.9626
94.0955
66.6107
94.1919
92.7527
87.7017
91.7919
91.6853
50.2987
90.8194
37.6923
94.0847
91.8982
87.3434
42.2711
91.2957
91.319
90.4451
93.3731
70.6699
91.7487
93.9675
91.1328
94.1169
91.3921
45.6872
67.6475
89.2232
91.5396
68.7406
35.7971
87.6508
87.7375
91.2646
91.839
72.0806
91.8871
88.4256
88.0423
94.1199
94.2086
92.8923
48.6094
88.6893
90.2073
87.2833
89.0744
61.2426
92.1965
92.8426
87.0991
51.1251
94.1328
94.0716
87.7248
92.3489
94.1137
40.8434
79.2856
91.2315
91.6363
51.4172
93.5932
94.1938
91.7223
74.7591
92.4145
59.5256
60.4865
89.2029
91.1308
91.7026
93.8413
94.2284
58.3486
89.8689
54.133
83.8437
87.7607
91.9424
93.2249
92.2308
87.6365
93.236
94.2092
85.2014
92.1602
83.6059
46.9263
93.0491
91.4498
92.2955
87.972
93.1545
72.0903
91.4772
50.5513
91.7086
91.1288
87.0865
93.3524
92.7701
94.0788
92.6523
88.9988
94.0982
92.7063
90.9045
92.1693
92.261
84.7932
93.5153
93.7362
58.0715
92.0734
86.4886
91.7444
94.1382
90.7242
32.0426
92.3633
88.1332
91.5644
93.2906
92.0774
91.9888
91.1344
91.6808
57.2993
94.0748
85.8195
91.3234
91.9823
84.9488
94.1945
92.6954
92.2725
76.907
91.4869
56.2517
92.8463
92.633
79.4484
91.5934
91.544
88.4269
93.7966
52.3124
85.1542
92.8445
90.7337
91.1243
93.4254
90.9486
91.3419
93.2636
41.5808
36.7597
50.4744
92.0321
84.4475
91.4944
85.8441
94.1838
91.081
40.8275
91.8359
11.244
92.2168
85.1092
56.9173
88.2885
56.3904
93.324
92.4271
50.2071
91.0112
94.1664
91.8842
46.2638
92.5613
90.7027
93.4765
91.7434
11.9968
92.1837
92.8521
91.5008
91.3711
93.236
94.2175
92.7292
92.7489
94.0867
74.0785
93.5902
92.6371
92.9779
91.5472
91.3106
88.9209
92.4692
82.1048
92.3169
93.5974
92.8123
90.5052
93.7033
94.224
92.7141
88.6788
92.2732
92.733
92.4077
91.8172
91.3254
91.4003
93.3969
90.7185
92.8079
92.2026
92.7382
93.2972
91.0926
92.8695
88.3887
90.4467
88.8645
91.9671
30.1071
91.9461
91.9841
92.0281
91.7915
91.775
92.0682
91.895
92.4163
92.335
92.3717
90.3362
48.0238
91.0999
90.8294
90.7981
90.531
90.4859
90.6816
86.1014
84.7796
85.135
92.8898
93.7247
88.967
93.7444
93.706
84.6168
52.9918
88.1995
89.3218
84.4963
92.9205
53.0623
93.6944
89.0965
92.8583
91.0968
52.7574
92.8287
49.8254
93.6398
93.623
91.4302
84.8177
49.3611
49.0365
92.6796
92.8143
90.3328
93.6115
85.0756
90.4499
48.6928
93.5148
90.5848
85.2519
90.6626
90.5402
90.7817
92.6729
47.25
93.5516
91.4407
92.6944
86.2706
90.1976
91.8317
45.4124
93.5151
89.4658
91.8513
92.8385
89.1057
92.0032
45.5713
49.7903
91.3735
93.4629
93.5185
87.9644
92.7645
88.3462
90.2817
91.7911
91.7925
94.062
91.745
92.7061
87.8202
48.0526
86.3543
93.459
88.5915
94.0783
92.7519
94.0872
44.4578
91.1645
90.225
93.9107
93.7185
93.5611
92.9522
89.5374
92.4866
91.9765
93.7428
92.0939
92.6652
88.473
92.6492
92.481
91.822
93.5236
89.6516
93.9804
93.6124
81.4853
92.6527
92.1051
92.662
92.2429
92.1552
92.7498
92.946
88.4875
94.1007
92.0718
87.1545
54.2963
92.1829
47.5832
83.7336
92.9
38.2478
92.9396
93.4667
94.132
92.0069
92.5551
93.004
71.1687
92.3578
93.4451
93.1267
90.1141
94.0716
90.226
92.0147
91.8941
92.8816
77.625
87.3356
90.2799
89.4758
91.9304
88.3077
93.451
92.9205
88.0078
91.9869
89.8715
93.2529
93.1957
92.3824
92.6638
86.7602
92.7127
89.643
50.8269
71.533
92.7631
92.6243
93.4502
85.084
90.9692
20.9394
86.0144
94.1468
91.0198
94.0782
92.8082
93.1444
92.2169
90.8937
91.2992
45.8807
94.1757
91.8348
92.2448
93.1227
93.2143
93.3554
92.7756
92.7416
86.8346
92.5296
87.2666
82.3444
94.1212
92.8124
93.6957
93.6578
92.3899
93.1583
89.0705
41.2156
94.2151
90.4981
93.7286
91.2097
82.3039
94.1995
92.3164
90.3791
92.7204
87.7985
91.9778
35.7132
92.2462
91.8413
91.5723
89.9765
87.4559
91.4525
92.0665
92.2347
82.4672
91.8917
56.7436
68.5662
92.5258
92.7754
93.022
92.3254
90.476
91.1735
91.8894
93.4915
91.6286
93.0246
93.5987
39.9927
92.5682
91.7615
86.842
34.7334
84.6693
88.544
94.1288
94.0759
93.2146
92.2099
43.8541
92.9629
89.6913
92.1571
90.6641
90.8045
95.0169
90.8029
91.2834
91.9106
94.87
94.4639
92.0698
91.4255
86.881
94.3191
79.4036
94.2007
91.0481
92.8108
94.671
92.1203
27.8233
90.1602
93.1124
93.4198
92.2464
90.961
93.2749
86.7543
92.3661
92.0543
92.9019
92.2117
90.4894
94.2396
91.0564
91.8892
87.533
50.1701
92.8118
92.7875
94.2785
90.0643
92.7399
57.4784
55.7721
92.8581
90.292
91.9384
94.2099
91.3903
91.7035
92.416
89.0371
45.7671
94.1189
90.4828
91.0921
94.2057
88.6134
92.1348
92.8565
84.5273
92.0903
90.7965
93.6858
92.6249
94.0526
94.2386
93.661
10.0197
90.2964
92.5209
90.8428
90.862
93.1
33.8764
90.874
93.106
93.7402
87.9909
92.007
93.6524
93.6881
92.6778
94.1884
92.6087
87.5149
89.7484
92.6545
91.7646
93.3398
94.2026
93.3789
92.4284
89.7547
91.7087
92.7814
92.9468
92.8113
95.0208
50.8157
90.043
93.0069
90.1525
93.1796
90.4344
90.7236
91.6825
92.2536
90.721
94.2351
94.1079
88.0011
94.08
92.6245
91.3176
84.5517
88.1633
91.8942
92.1285
17.4513
91.0409
91.8823
93.1515
89.7412
53.0325
94.201
93.8047
45.6689
92.265
52.929
91.9184
89.4778
92.298
91.1062
91.1171
87.3046
93.3568
92.5845
94.7885
90.2966
92.3428
86.4863
89.764
93.5512
92.184
85.9162
44.9754
90.7587
92.9435
54.1154
86.7703
91.8349
92.859
93.4554
92.7342
92.743
92.7461
91.069
93.0516
67.3379
92.7263
55.1118
93.6791
76.4473
92.1736
86.1354
92.7642
93.9482
89.7406
92.9636
94.2314
94.5707
90.8551
92.8949
93.716
92.2695
93.0715
93.4224
92.5531
92.6971
92.3866
93.6053
52.3217
92.5246
92.3362
52.454
92.282
89.9274
84.7512
91.5404
93.7326
93.5551
92.2954
90.689
48.0013
94.1055
91.3455
37.3873
58.2031
50.4047
36.4686
62.5088
91.7439
91.4244
91.1961
91.2469
56.5711
92.1248
88.3513
90.3484
89.3957
87.7032
67.5951
49.5718
87.4538
76.079
71.8631
87.8029
92.1785
91.8497
88.2676
91.4685
91.268
88.2779
91.2254
92.2615
76.6186
92.8967
91.865
92.5094
84.9851
85.6846
40.2894
92.0518
83.0938
84.4342
88.9667
93.4275
53.7958
86.7717
90.1341
76.6086
89.8423
92.3958
85.5692
94.1811
52.2007
88.8665
91.3475
91.8555
92.8791
94.1121
93.5861
49.9594
91.1897
84.8003
92.5591
92.2323
93.1073
92.7639
57.8461
92.7146
93.6148
91.0884
94.0694
93.05
92.8575
85.765
91.8014
93.2023
92.6827
84.9872
88.9991
92.9147
93.5892
48.0112
92.8018
93.0456
90.3391
92.0044
84.8882
94.1872
91.0319
87.5326
94.1728
93.2237
87.4462
42.9524
91.0362
85.4096
91.5725
91.818
93.7174
28.3907
92.6145
91.161
93.5548
41.4266
92.6516
81.4645
93.6732
93.5281
94.1407
87.2762
91.9008
92.899
87.7205
59.5505
37.0863
91.3559
92.4199
94.0617
88.5172
85.8404
92.1076
87.181
87.7894
92.3255
89.6511
91.9003
39.6923
92.4413
94.1265
92.8943
86.9363
92.052
87.3458
90.9884
92.5285
93.0412
92.9678
91.3969
92.5929
92.8244
28.0237
19.1112
93.7162
91.9125
82.8621
94.1654
92.6711
51.4671
86.2132
91.4427
87.8709
69.9649
49.6763
94.1747
85.4939
91.5179
92.5723
82.1376
50.7731
92.1927
92.4921
94.1638
50.8593
94.1483
91.7056
93.7336
8.21632
92.3724
42.5178
58.2702
92.0709
91.8933
92.4645
94.1811
92.8511
94.1349
94.1644
94.1048
92.8894
92.3723
91.4911
91.912
92.1334
63.9656
92.9506
90.227
92.3491
54.2784
92.6126
53.4593
92.3153
92.6976
55.1178
90.542
69.163
65.2666
61.4714
52.0498
52.1155
51.3917
57.7639
52.2933
94.0963
94.123
94.1111
94.0982
94.0897
94.0788
92.8423
86.0996
92.0714
89.1133
92.0109
86.3477
94.0727
91.9663
92.9275
93.7336
93.2744
93.5821
91.464
94.4847
94.1828
88.9612
87.662
92.9891
91.9789
92.3352
91.9913
78.9873
94.1887
92.3778
46.8213
91.8584
90.751
88.9749
92.9432
92.6962
93.3197
35.0395
92.7332
92.299
94.0776
87.2275
94.0917
87.2124
84.5662
89.9925
94.0767
85.5565
90.6748
91.7501
91.8384
92.1376
92.726
86.3037
93.4579
17.648
92.9483
44.3251
8.55577
94.2445
49.3645
85.2762
90.4352
89.5651
43.7247
94.1478
92.4262
93.1951
73.7846
92.2297
86.719
91.3457
86.9738
93.5985
92.2141
93.7496
93.0855
60.373
40.5057
18.2816
88.1402
89.2169
93.6464
92.0282
94.1075
90.5687
89.6752
85.4338
92.4739
49.9565
92.7915
93.545
42.2754
92.9284
84.6293
92.4537
93.5561
92.4941
81.8175
65.2442
92.1073
92.8796
88.6042
92.5261
47.6312
92.0444
48.3698
93.6344
90.3938
86.8574
38.8943
83.6132
92.8453
92.1485
92.2098
94.0665
54.6718
87.8938
89.3198
85.7596
85.8003
90.8963
92.3697
94.0601
87.5336
90.3335
53.942
85.0839
92.7981
92.8738
85.4265
94.0657
90.6126
94.1913
89.7158
87.3053
92.3838
47.3769
92.5559
92.9768
93.064
89.2962
94.0554
86.4377
90.927
92.0622
77.8374
92.466
29.6446
91.2205
94.3276
91.8859
62.913
91.5943
93.7371
93.3416
92.812
92.3922
92.7874
91.8995
93.413
96.0727
86.0014
93.5206
85.2201
94.0719
91.7796
56.116
92.4323
58.5301
91.929
92.6266
92.1634
93.0427
85.3611
88.2705
91.8475
84.8569
94.0686
92.3255
38.4222
92.1757
92.465
92.9149
89.3599
86.9685
92.0661
90.8088
73.431
92.168
91.9754
50.6429
85.684
92.8853
92.4241
93.0461
90.0479
91.522
91.3627
79.9883
87.8118
87.6972
85.8715
87.5421
91.856
52.4476
93.2532
91.3214
84.9631
92.6473
57.8707
87.3755
92.1326
88.4753
55.5647
92.9346
89.6584
92.911
39.0502
91.5516
92.4096
92.801
89.1988
43.8577
94.422
53.5993
94.1197
94.116
94.2231
55.1163
94.1367
37.0617
74.9824
92.6585
92.1312
87.802
49.7921
91.8821
17.7222
94.2549
91.215
94.4692
91.9543
87.7262
65.809
94.1582
93.8257
44.603
58.2609
91.6349
87.4161
94.1562
51.578
94.1736
85.8024
89.1923
56.0997
93.746
94.2017
92.8893
91.661
85.7103
91.4278
87.0662
94.0605
94.1536
59.2223
55.4947
94.1318
91.0046
87.2793
92.7172
90.823
91.4567
84.6525
91.9658
94.0589
88.748
88.2196
91.8057
65.9476
91.646
94.1026
91.7957
75.6879
94.0656
94.1488
92.2765
85.5729
94.0817
87.2358
88.8189
91.7875
94.12
94.0883
62.0607
51.5184
87.3316
93.7096
94.0703
90.1118
92.873
92.317
92.8856
92.8183
89.3791
89.6334
88.5583
94.0601
58.8862
91.8904
80.0535
92.7226
86.3344
48.8636
92.6819
94.0623
85.3784
89.2904
89.926
38.6755
92.8674
92.9767
91.9411
93.2756
93.5424
93.642
93.808
93.4468
94.1279
22.29
57.4024
86.0517
102.772
85.5479
87.0564
87.0075
93.6713
98.9102
89.882
90.955
95.4611
99.3343
90.1944
92.9687
86.512
89.836
90.5093
88.8454
)
;

boundaryField
{
    frontAndBack
    {
        type            empty;
    }
    wallOuter
    {
        type            zeroGradient;
    }
    inlet
    {
        type            zeroGradient;
    }
    outlet
    {
        type            fixedValue;
        value           uniform 0;
    }
    wallInner
    {
        type            zeroGradient;
    }
    procBoundary3to1
    {
        type            processor;
        value           nonuniform List<scalar> 
48
(
92.1724
91.907
92.008
91.8051
91.6599
89.8233
91.907
92.0204
91.9366
88.7032
88.7032
90.3113
90.3113
89.3347
89.1556
91.5077
91.104
91.5482
91.104
90.2675
90.6202
91.48
90.2675
90.4306
88.6595
90.5203
91.8946
91.48
91.9255
90.849
90.849
91.9718
91.9718
91.9366
90.3543
91.6894
91.9413
88.6595
92.2372
91.7812
89.3347
91.9687
91.9451
90.2675
89.1557
92.2356
91.3593
89.8769
)
;
    }
    procBoundary3to2
    {
        type            processor;
        value           nonuniform List<scalar> 
29
(
92.7185
92.7185
93.7822
93.7664
90.2791
92.8814
94.0623
92.6621
93.7627
93.7489
92.7665
89.8616
92.7201
94.0611
94.0721
94.0614
93.7603
93.7504
92.6511
94.0658
94.0649
93.7603
94.0953
93.7504
94.0801
93.7563
93.7504
89.4439
89.4439
)
;
    }
}


// ************************************************************************* //
