/*--------------------------------*- C++ -*----------------------------------*\
| =========                 |                                                 |
| \\      /  F ield         | OpenFOAM: The Open Source CFD Toolbox           |
|  \\    /   O peration     | Version:  v1912                                 |
|   \\  /    A nd           | Website:  www.openfoam.com                      |
|    \\/     M anipulation  |                                                 |
\*---------------------------------------------------------------------------*/
FoamFile
{
    version     2.0;
    format      ascii;
    class       volScalarField;
    location    "0.74";
    object      epsilon;
}
// * * * * * * * * * * * * * * * * * * * * * * * * * * * * * * * * * * * * * //

dimensions      [0 2 -3 0 0 0 0];


internalField   nonuniform List<scalar> 
1431
(
94.0597
25.4681
5.04094
1.47272
7.94704
37.1527
1.23554
359.014
49.5903
1.16583
132.919
280.64
59.0138
14.6055
22.4347
0.964118
29.9999
14.1341
27.9027
19.1849
278.48
18.6067
49.1489
320.189
51.7675
37.3357
87.9908
13.4496
64.5765
27.9813
20.8767
35.2016
18.6801
8.36011
45.3386
0.939864
87.6659
0.41476
0.400843
27.435
80.3636
78.1007
51.4697
0.660726
53.291
9.62427
31.8404
73.2594
1.3058
0.657109
28.9032
0.551718
37.4755
319.001
16.6057
21.7947
8.27431
312.688
49.2255
9.90246
16.513
0.779016
1.01428
0.500566
0.532243
1.38531
4.89497
2.21824
6.02595
26.0396
311.8
11.4343
1.43769
7.36859
18.4073
13.5658
2.61673
0.337015
1.27799
9.03207
36.0407
3.05842
129.162
36.2822
158.926
1.47726
2.6597
21.8495
176.234
188.513
26.6562
9.14345
1.10837
0.747074
16.6613
30.2233
317.425
95.4261
0.69411
12.9853
31.7539
0.690876
35.0305
7.05173
0.270751
32.96
44.0204
134.443
39.2757
39.2893
8.06517
65.9226
19.572
82.3749
24.6217
9.89017
15.7605
1.65215
2.38827
0.729573
34.787
33.9235
359.199
22.0451
249.155
1.04015
1.67417
12.9662
3.20681
4.39999
36.3734
19.5886
3.32027
29.3522
29.9999
1.37044
0.304774
1.0378
162.86
1.03297
0.359062
16.6645
47.9836
5.46353
54.2903
18.6685
1.95377
35.1698
0.850621
9.64767
1.09674
7.25445
30.1186
2.40667
37.8094
0.603576
152.151
48.9651
167.752
2.09275
172.697
68.6644
0.784853
2.13286
255.996
89.6423
87.8663
24.5247
0.575812
62.935
174.038
42.4306
22.6315
167.696
36.2724
150.264
2.9624
41.2815
36.1269
45.3415
1.83478
0.444254
16.6526
511.009
38.7439
91.5187
145.488
50.0838
21.9482
178.661
17.1637
24.5966
25.4041
181.493
2.34184
62.8328
92.0599
35.881
4.58801
47.9434
20.2947
1.04239
96.462
3.31467
58.6006
18.7314
35.8515
4.40084
199.019
24.0619
161.629
0.625341
40.6185
34.3661
179.254
24.4632
28.503
36.4385
16.6607
84.9366
39.0874
17.1816
77.603
1.5792
40.8139
262.358
121.103
77.9957
41.1778
50.0262
318.995
19.9206
31.1709
24.2718
36.6382
168.038
36.7627
33.0865
16.6945
11.9936
2.32404
30.7918
224.553
25.391
23.3953
42.2075
29.2297
98.7056
40.9876
0.428609
9.66392
148.747
1.91947
0.518316
17.7969
65.1454
1.69827
320.079
141.53
27.3267
38.9861
160.942
15.7735
2.72359
45.125
112.426
56.7941
283.705
69.2674
9.1393
41.8128
33.2011
17.7703
6.11767
168.434
22.4312
161.517
44.995
45.9332
55.8819
49.1856
83.4793
18.5337
20.0206
6.79961
118.354
69.5016
116.8
175.02
26.3768
4.74032
56.2867
76.9947
45.5289
32.088
43.9825
186.759
106.103
23.8633
53.0379
39.3324
3.26632
11.8581
45.2605
46.8124
1.45922
36.6445
26.396
78.3116
48.684
77.9263
0.953673
1.07551
113.208
48.8353
86.5637
37.1032
10.7864
2.61187
848.123
35.686
75.3131
5.54808
38.8273
37.2976
11.3883
8.91358
56.7174
322.105
0.60444
76.0726
5.44754
54.9481
23.3419
2.24459
46.3896
56.0122
156.583
37.4874
101.709
0.556453
48.2847
71.6361
77.4177
46.8285
23.0409
19.9157
157.108
64.0887
47.4083
40.8014
4.73858
37.8583
41.7644
9.99099
10.524
179.569
130.101
142.255
74.0764
21.4689
73.9142
63.2832
7.21403
3.94582
146.758
53.7943
632.932
45.0918
17.3127
120.253
8.36583
186.304
26.3531
71.8976
385.696
44.8146
7.4591
30.2642
474.906
75.5461
37.1926
8.37404
11.9341
843.6
42.3494
39.9729
46.7187
33.7883
28.2661
2.69409
44.2284
45.1505
1.22319
159.999
39.0586
67.8291
69.1544
57.7414
39.5596
48.1442
66.8663
113.936
61.4654
9.48038
62.6698
37.8738
6.19138
4.40912
61.5123
54.6415
38.1042
60.2721
60.1317
44.5889
4.25583
37.7169
5.47993
37.9855
59.0352
51.1633
62.2772
19.579
39.397
57.9062
9.4144
10.5886
39.3622
12.8819
251.455
76.2795
78.809
83.1895
83.9912
84.9687
81.9963
79.514
83.1452
81.2556
82.7711
9.90395
157.593
8.30234
4.22277
2.91143
2.16487
2.29027
2.51886
34.2631
19.0281
19.8512
1.02442
1.18636
3.56541
1.24055
1.13339
23.3859
279.003
3.81352
2.95757
20.2824
0.989644
266.032
1.0332
3.0713
1.28192
4.57934
257.979
1.30313
248.665
0.768584
0.665931
6.39577
34.0528
163.605
147.45
1.63434
0.360172
1.91457
0.63397
31.7696
2.69939
168.355
0.569056
5.19677
33.1698
6.56108
3.24333
2.61286
1.44022
185.234
0.539256
5.0305
5.87891
37.8895
6.66681
9.07788
192.957
0.701475
24.6827
54.4171
20.0781
15.7349
87.4257
186.542
151.783
8.33102
1.77823
2.74525
11.8983
9.69289
44.6661
4.32815
8.42083
107.77
0.654699
52.2606
12.3405
48.3474
161.077
47.9137
7.11574
25.1032
0.991519
22.9221
1.35708
179.89
26.9731
10.8106
7.59111
24.8741
23.6077
37.3389
89.2632
77.0633
12.9327
9.87394
172.163
22.9483
15.2656
64.1364
87.4399
84.5824
14.9771
43.4544
12.6829
21.2631
154.41
66.3738
78.2035
36.7666
80.5455
62.9132
52.7373
0.990699
76.5494
1.5502
53.9421
155.5
377.929
80.6324
163.57
94.2319
41.3447
629.268
41.3678
10.3323
1.85546
55.7746
57.4402
56.4363
92.9814
80.2354
6.81384
62.6874
34.3253
0.949939
149.612
71.1547
73.3231
58.022
69.7014
52.5188
39.6414
43.0851
32.6783
22.5599
19.7539
93.1166
17.2557
61.8443
205.924
29.2459
25.3561
44.4818
72.9584
31.1074
39.5347
64.8605
180.865
180.193
34.9315
55.5691
21.0151
44.1261
36.7755
116.762
53.0386
1.98373
4.17742
1.15066
37.6637
45.8415
71.6251
61.5765
57.2897
209.891
2.19271
39.4467
44.063
35.454
29.2499
47.8868
48.9431
41.3099
43.9649
73.1832
8.73361
56.6031
13.2695
46.2323
31.0923
0.758293
79.0129
55.2503
39.1148
319.287
4.05978
62.9022
18.4865
60.5268
107.227
1.96556
54.9173
154.934
38.562
37.3764
35.2108
240.531
35.3718
53.1193
74.6168
125.652
44.4386
7.69207
35.2566
49.0456
50.5281
21.0946
171.345
170.095
69.1977
45.2487
46.4541
55.0035
55.642
20.2428
19.1479
34.6971
5.12424
56.4728
35.1959
273.556
81.8996
47.7888
29.9817
281.957
25.0498
44.2987
9.3019
14.8602
10.5933
34.8105
278.098
0.87596
3.43139
63.7443
51.6501
9.73028
49.7161
106.028
43.3381
80.9088
33.2476
15.1141
85.5972
228.225
47.8488
11.4128
96.6322
139.065
37.8129
59.829
22.2432
121.668
296.679
107.122
181.605
25.4766
44.8324
56.3768
8.26974
32.7965
43.6306
23.4378
87.9285
57.7972
56.0669
2.70002
65.4562
87.4584
19.793
146.183
54.6117
9.9636
37.7472
69.0324
56.533
127.994
189.717
0.44039
79.1549
38.547
2.48402
139.803
40.3227
76.982
279.103
287.066
1.71733
32.6731
49.7496
4.57639
49.5136
67.4439
36.8481
33.8469
5.94077
58.252
0.940922
24.365
15.1499
11.0881
0.85298
406.396
54.1839
56.9885
6.91666
39.9463
7.68134
401.064
143.348
41.2161
1.22131
2.35101
46.5672
0.835011
1.06231
56.2598
9.07014
54.073
32.1381
51.5499
70.1315
61.6327
28.0198
7.05968
34.8296
59.7018
19.1188
36.8888
0.301876
53.1256
1.36703
72.3262
159.337
37.663
35.5172
23.6412
31.451
81.7292
13.7573
35.0705
65.0379
30.2795
8.99686
1.572
30.5136
1.33444
56.1293
28.4099
26.4174
6.38705
68.326
70.2671
796.748
29.3133
40.6215
38.1305
39.2214
575.157
3.76807
20.2016
164.716
67.6846
299.069
59.0086
9.13011
87.7806
58.4566
3.84244
98.2038
47.0344
76.4904
101.719
33.9035
58.7935
16.276
8.90692
0.518652
82.93
322.466
311.464
25.1717
30.1256
303.521
50.6104
89.5739
61.9257
13.3394
56.0839
3.1298
0.43544
35.596
50.038
173.817
0.828956
354.842
31.8745
144.103
45.6079
16.6251
34.4226
14.2387
4.0249
1.43792
5.38354
55.857
2.77222
0.347166
11.4115
34.543
50.925
22.4801
70.3595
51.6075
69.2391
0.679885
153.28
50.2989
79.6185
658.233
61.4842
101.983
37.2225
7.40288
1.49529
95.553
46.1692
74.4045
251.405
1.5156
71.3228
174.802
565.182
315.864
396.957
70.114
48.7494
53.7185
61.3675
57.6686
79.9641
45.7677
36.6901
33.5751
35.5828
35.9215
54.6039
89.1988
32.7621
37.664
42.8675
30.4352
44.9747
44.2504
29.4792
43.396
42.3345
29.4379
40.3638
65.6896
129.836
0.78646
27.897
36.5622
17.3689
16.724
233.266
45.7339
17.873
15.3056
19.4611
3.75872
337.653
33.5821
3.28242
141.809
48.2565
72.0676
25.6118
2.99009
331.528
7.83348
37.9514
42.4422
32.1346
3.26367
7.4681
140.59
32.529
31.7398
64.1137
59.7068
40.1826
47.6217
159.577
1.68727
0.55883
9.97722
1.17179
51.7753
63.9996
27.4924
39.3098
35.7557
11.9301
29.0395
5.6576
15.3282
41.1714
156.059
68.1108
40.9957
67.2919
6.96373
35.0056
1.9178
37.5175
8.72829
3.96652
41.3775
27.1198
353.836
3.36274
31.8365
10.3423
54.0217
1.12481
918.578
57.1399
31.3309
0.668318
331.709
59.2417
139.401
0.942999
0.603887
1.83605
6.95832
12.3972
53.8221
29.8985
433.633
206.894
37.379
58.1347
1.03568
37.0777
24.3904
46.8334
27.0386
17.5249
47.7596
66.7549
60.8259
103.354
78.656
1.6466
1.14154
26.2006
53.746
52.1795
5.15143
46.9178
29.8468
35.8337
15.3096
42.3487
34.1631
171.575
476.028
1.42624
65.19
29.5364
2.38033
62.4726
343.863
27.4207
42.2961
19.096
163.838
147.662
1.78407
16.9518
38.5803
42.4811
362.349
165.081
71.0639
35.6154
3.36923
132.643
2.19845
58.9134
21.0291
379.111
87.4718
307.442
164.4
57.9126
31.5983
50.446
2.57177
5.27551
1.63674
1.89737
1.31715
45.1982
83.3951
39.5319
47.6744
75.8185
168.397
0.523547
3.09722
75.8953
384.063
50.8407
366.523
91.7338
72.7575
408.911
36.7775
414.88
418.165
436.945
339.564
345.391
325.147
440.993
294.113
0.626509
1.18459
1.13617
0.624182
0.732598
0.870163
56.4587
42.705
82.1523
43.8742
58.8973
28.167
0.775536
53.9567
0.87786
1.33134
45.0437
0.542616
29.1819
18.393
4.63467
10.9855
6.79801
68.1933
68.1094
41.4624
45.2547
43.1286
3.66999
34.8209
736.685
30.7629
9.10293
24.2794
48.1616
1.78223
18.4292
160.606
0.453636
53.8766
0.520828
10.086
1.46615
30.7266
28.8573
5.1518
0.470544
33.3235
8.56723
6.41265
62.8154
79.2677
2.65501
20.6797
28.3237
198.195
0.772556
164.955
244.171
7.48258
183.626
36.333
9.02277
46.2585
164.566
1.98419
48.8459
54.7462
118.535
71.9616
30.0232
37.5546
7.10178
0.624937
65.4376
27.9957
52.1714
150.884
198.499
200.772
97.782
21.0485
24.0759
51.5583
2.02614
6.11359
2.49991
31.8092
8.63326
234.34
62.7894
1.46101
157.872
41.5917
15.6906
72.8687
4.46247
46.9479
180.08
63.2623
47.293
0.504507
53.2231
54.2075
189.166
79.6039
355.214
0.615695
9.13642
34.1652
299.221
150.109
92.7001
64.8657
52.2589
0.587889
342.27
7.43462
41.9257
31.5107
30.0344
11.5757
65.7801
0.844375
44.8991
37.0419
180.386
10.6566
70.7422
46.4265
22.9567
0.781124
6.23181
5.62813
107.42
28.2164
70.3532
149.517
52.2492
62.0411
40.5269
22.9836
0.901429
30.1532
15.6481
44.4169
389.301
38.9433
719.85
36.0557
9.01327
36.8209
165.251
37.2693
1.1636
9.014
47.5533
88.0817
33.9285
71.163
105.511
60.2945
15.0534
24.8636
12.3966
1.18007
41.2378
225.426
60.0163
265.663
44.4019
30.523
40.2212
46.2594
30.1838
6.0131
54.1601
13.3383
1.00312
36.8982
424.294
39.8407
41.2427
1.26074
3.2842
22.8227
37.7555
23.554
403.723
63.2708
86.4999
140.533
9.09222
43.5112
50.1528
51.0955
165.486
48.4392
64.3671
32.5932
48.8255
15.7935
64.2451
21.0187
35.0847
342.439
45.5445
8.23263
34.7892
63.0349
100.633
21.4916
44.7433
12.0986
302.12
31.8838
2.7733
0.558307
605.391
38.8914
67.4029
1.60115
3.11596
246.642
12.6775
291.532
1.88854
1.55182
5.67609
450.211
1.60458
393.371
180.695
4.58947
49.7779
191.818
297.409
86.7727
330.578
6.86445
8.75458
26.5914
46.1902
6.99584
164.049
2.31995
51.8711
452.946
399.969
33.9239
36.3021
2.77028
171.712
1.72922
40.5813
12.4519
298.885
1.47928
4.62712
16.4034
86.7957
64.6251
35.6884
6.70827
0.668989
1.63945
197.42
383.367
1.58155
40.9707
7.55955
1.90787
27.1975
31.8774
13.081
48.1423
0.742587
23.3317
21.9141
34.1089
192.386
33.2237
1.00894
44.6203
29.1159
0.661209
1.68805
50.9544
18.0256
1.41249
17.4139
20.4605
29.5172
1.31681
0.794522
194.128
175.273
67.7914
18.9099
1.30864
2.62115
0.41569
40.5088
1.77023
2.29087
3.26175
3.67434
8.8231
0.839209
171.971
47.021
18.851
65.3385
63.5989
159.798
40.705
0.726479
9.48581
103.916
35.8159
172.31
11.8931
23.5489
52.8119
30.3899
2.45464
20.8239
1.35336
2.98516
3.35392
167.935
253.3
63.7137
109.223
11.2819
82.8857
31.931
46.8399
97.7288
11.8855
15.9386
45.4918
102.754
4.22752
0.833152
69.5838
51.5638
18.7708
11.443
)
;

boundaryField
{
    frontAndBack
    {
        type            empty;
    }
    wallOuter
    {
        lowReCorrection 0;
        type            epsilonWallFunction;
        value           nonuniform List<scalar> 
96
(
64.5765
27.9813
30.2233
273.556
281.957
278.098
49.7161
33.2476
15.1141
228.225
11.4128
139.065
22.2432
296.679
181.605
279.103
287.066
32.6731
7.05968
72.3262
8.99686
101.719
33.9035
322.466
311.464
70.114
48.7494
53.7185
61.3675
57.6686
79.9641
45.7677
36.6901
33.5751
35.5828
35.9215
54.6039
89.1988
32.7621
37.664
42.8675
30.4352
44.9747
44.2504
29.4792
43.396
42.3345
29.4379
40.3638
37.9514
63.9996
27.4924
37.5175
3.96652
353.836
37.379
103.354
65.19
29.5364
27.4207
362.349
3.36923
2.19845
379.111
384.063
366.523
408.911
36.7775
414.88
418.165
436.945
339.564
345.391
325.147
440.993
294.113
0.626509
1.18459
1.13617
0.624182
0.732598
0.870163
28.167
4.63467
30.7266
30.0232
355.214
5.62813
389.301
403.723
64.3671
32.5932
1.60458
330.578
452.946
2.77028
)
;
    }
    inlet
    {
        type            fixedValue;
        value           nonuniform 0();
    }
    outlet
    {
        type            zeroGradient;
    }
    wallInner
    {
        lowReCorrection 0;
        type            epsilonWallFunction;
        value           nonuniform List<scalar> 
126
(
49.2255
9.90246
16.513
0.779016
1.01428
0.500566
0.532243
1.38531
4.89497
2.21824
6.02595
26.0396
311.8
11.4343
1.43769
7.36859
18.4073
13.5658
2.61673
0.337015
1.27799
9.03207
36.0407
3.05842
12.9853
9.89017
15.7605
1.65215
2.38827
0.729573
34.787
33.9235
359.199
22.0451
249.155
1.04015
1.67417
36.3734
19.5886
1.03297
0.359062
47.9836
5.46353
1.95377
9.64767
7.25445
2.40667
255.996
1.83478
91.5187
145.488
2.34184
161.629
9.1393
45.9332
55.8819
4.74032
186.759
106.103
53.0379
3.26632
0.953673
1.07551
113.208
11.3883
8.91358
76.0726
101.709
0.556453
130.101
73.9142
63.2832
6.19138
5.47993
87.4257
107.77
7.59111
172.163
87.4399
154.41
80.5455
155.5
62.6874
149.612
93.1166
205.924
180.193
47.8868
0.758293
154.934
125.652
121.668
107.122
7.68134
101.983
95.553
41.1714
198.499
33.9239
36.3021
103.916
35.8159
11.8931
52.8119
30.3899
2.45464
1.35336
3.35392
167.935
253.3
63.7137
109.223
11.2819
31.931
46.8399
97.7288
11.8855
15.9386
45.4918
102.754
4.22752
0.833152
69.5838
51.5638
18.7708
11.443
)
;
    }
    procBoundary3to1
    {
        type            processor;
        value           nonuniform List<scalar> 
48
(
88.2448
90.6996
80.2189
83.854
54.3871
90.9004
90.6996
21.655
79.1058
2.69518
2.69518
3.57259
3.57259
2.85233
2.94289
4.0046
5.69228
5.42808
5.69228
4.86361
2.33144
4.71958
4.86361
36.9004
2.54024
3.23951
7.23876
4.71958
9.44672
15.6525
15.6525
15.3938
15.3938
79.1058
2.90832
54.5499
33.162
2.54024
91.7349
47.0217
2.85233
49.3589
64.0528
4.86361
3.04841
64.8715
51.0841
2.38518
)
;
    }
    procBoundary3to2
    {
        type            processor;
        value           nonuniform List<scalar> 
29
(
1.64572
1.64572
1.81379
2.19764
7.02953
4.2276
1.347
2.09812
1.60363
1.74522
2.97185
4.50726
1.70119
0.649082
0.492509
0.776266
1.31262
1.34941
1.71804
0.593566
0.55376
1.31262
0.668026
1.34941
0.456739
1.39404
1.34941
3.32146
3.32146
)
;
    }
}


// ************************************************************************* //
