/*--------------------------------*- C++ -*----------------------------------*\
| =========                 |                                                 |
| \\      /  F ield         | OpenFOAM: The Open Source CFD Toolbox           |
|  \\    /   O peration     | Version:  v1912                                 |
|   \\  /    A nd           | Website:  www.openfoam.com                      |
|    \\/     M anipulation  |                                                 |
\*---------------------------------------------------------------------------*/
FoamFile
{
    version     2.0;
    format      ascii;
    class       volScalarField;
    location    "0.74";
    object      k;
}
// * * * * * * * * * * * * * * * * * * * * * * * * * * * * * * * * * * * * * //

dimensions      [0 2 -2 0 0 0 0];


internalField   nonuniform List<scalar> 
1431
(
2.1368
1.80502
0.222351
0.126057
0.365273
1.88084
0.169538
6.14036
1.97319
0.125534
2.4818
6.25299
3.14941
0.604124
0.641557
0.138657
0.820724
0.430846
0.802763
0.58823
4.14206
1.04897
1.75459
7.32504
1.84635
2.19906
1.90219
0.491878
0.797461
0.467755
0.686557
1.00158
0.630631
0.34054
2.5429
0.127113
3.39114
0.0660027
0.0508303
0.840384
2.24257
2.58161
2.78436
0.0941264
1.51542
0.453574
1.12457
1.68919
0.18427
0.101311
2.00199
0.0842636
2.4058
6.7142
1.28368
1.35176
0.288953
6.84781
0.981616
0.332576
0.518396
0.065307
0.0723268
0.0487133
0.0403216
0.0750269
0.206944
0.122803
0.234176
0.600197
3.57464
0.385315
0.089007
0.264868
0.552649
0.383591
0.13036
0.0345096
0.0938698
0.32653
0.828518
0.14747
4.18536
1.29049
3.38329
0.189317
0.223138
0.863865
4.47783
5.18212
0.674528
0.38675
0.150006
0.117892
1.21902
0.471831
6.47836
4.56036
0.0914018
0.419769
1.93957
0.077928
1.01992
0.291571
0.0359769
0.927966
1.20462
2.21065
1.36736
0.994013
0.316204
3.39216
1.11577
2.08093
1.73413
0.371199
0.492892
0.105038
0.123097
0.0548716
0.710698
0.772236
3.13485
0.554106
2.66173
0.0727303
0.105584
0.620342
0.19135
0.423406
0.733118
0.487366
0.389381
0.714868
0.765352
0.157716
0.0552562
0.116528
4.91172
0.0697954
0.0373318
0.59701
0.89032
0.199978
1.81861
0.611831
0.11042
2.2201
0.120026
0.324748
0.111597
0.288225
0.905773
0.128889
1.17872
0.10646
4.10281
3.00035
4.94397
0.274847
5.92905
3.47794
0.0790931
0.232738
2.80297
2.04996
1.9829
1.62757
0.091296
3.44473
5.83597
2.60073
0.743072
4.99738
2.37358
3.95157
0.349605
1.69535
2.36401
2.64104
0.0941204
0.0684804
1.24668
10.1285
1.71256
1.15753
1.56696
3.02044
0.764645
3.8174
0.65558
0.814686
0.849309
2.71381
0.121451
3.55023
4.53896
2.24475
0.219791
0.907113
1.48046
0.103034
2.11741
0.294189
3.19704
0.702633
0.961076
0.188917
5.68349
0.77217
1.8863
0.0628841
1.15176
0.951986
4.89933
0.643964
0.930713
2.28773
1.29844
1.9515
1.1668
1.22756
1.49841
0.160964
1.24873
6.88633
2.43637
3.98663
1.12812
1.30157
4.66258
0.669869
0.906827
0.818826
1.04424
5.95345
1.09204
0.984779
0.633741
0.912365
0.316915
2.15849
6.19796
0.845322
0.797381
1.39883
0.930563
2.0723
1.22696
0.0785802
0.530329
4.80153
0.24611
0.0844452
0.679161
2.30091
0.212
7.78678
5.69128
0.889545
0.857096
4.83344
1.23287
0.321825
1.35521
2.43665
2.65504
3.7644
1.63054
0.254778
1.44419
1.03319
1.35592
0.506748
5.64315
0.712352
5.36459
1.26522
0.713518
0.966378
2.88911
3.44255
0.608047
1.45764
0.654517
4.92379
2.35291
5.16138
3.3174
1.86012
0.175148
2.40882
4.04713
2.73792
0.970362
1.1202
1.95123
1.32067
0.767677
0.783833
2.46293
0.155712
0.983465
2.73058
1.24044
0.176772
2.41421
0.844825
2.75199
2.87822
3.952
0.0638676
0.0718123
1.29796
2.13501
4.37453
2.30141
0.924555
0.21313
11.3964
2.39204
4.00114
0.218911
2.32887
2.11086
0.355511
0.285861
2.13734
6.8173
0.0854784
0.988557
0.330647
2.14993
1.25352
0.307295
2.7609
2.11417
5.7771
2.04072
1.21205
0.0481446
2.80359
3.46979
2.1201
1.98714
0.770619
1.4721
5.2072
3.47668
2.81189
1.81073
0.26428
2.30093
2.70028
0.425565
0.844846
3.92947
1.63344
4.35424
2.30337
1.15121
1.03916
0.874975
0.667279
0.271356
2.89896
1.97797
11.144
1.14606
0.620341
2.29693
0.458693
4.88742
1.90479
2.09241
8.87379
2.83267
0.444955
2.06464
9.91053
3.66568
1.89504
0.542025
0.452228
12.6003
1.97261
2.55875
1.94518
2.0112
2.01155
0.343626
2.70431
2.73282
0.144736
5.9924
2.41545
3.29669
3.28016
1.9722
2.07366
2.94909
2.03718
5.10996
2.24174
0.750443
3.11988
1.82924
0.191428
0.478863
3.12202
3.22485
2.25426
3.11929
3.13091
1.90253
0.203041
2.49683
0.178222
2.07638
3.1122
1.44779
3.24412
1.45319
2.58655
3.10679
0.464804
0.459946
1.28016
0.897921
6.27383
3.59607
3.61308
3.6846
3.70338
3.72529
3.69113
3.6832
3.66603
3.7426
3.6969
0.440729
4.86817
0.396401
0.263583
0.18894
0.177638
0.200338
0.212082
1.30046
0.987487
0.958805
0.136627
0.168022
0.216199
0.169081
0.164949
1.20715
7.07833
0.223823
0.237166
1.07124
0.116622
6.76594
0.146839
0.267205
0.142547
0.243117
6.52588
0.155452
6.2502
0.113086
0.100824
0.294842
1.5355
4.93557
4.69032
0.186947
0.0668535
0.173581
0.101968
1.49907
0.210799
5.01492
0.0961274
0.27784
1.48958
0.326052
0.208912
0.187804
0.20251
5.20497
0.0923803
0.340833
0.591195
1.43378
0.35667
0.559159
5.19143
0.111134
0.769259
2.35911
1.40977
0.487946
1.10062
5.03923
4.81661
0.421608
0.216162
0.291768
0.508632
0.834831
1.59803
0.262173
0.642233
1.17187
0.114116
2.34756
1.03542
1.69035
4.89496
1.46432
0.613246
0.900315
0.118563
1.63636
0.184587
4.79366
0.826842
0.449267
0.216525
1.76818
1.5985
2.31876
2.44052
3.4695
1.08181
0.616948
1.82079
1.66465
0.544566
3.30053
1.25627
2.17858
1.11004
1.31026
0.725256
1.58651
1.65024
3.31285
3.36739
2.4273
1.09327
1.9938
2.93432
0.127538
1.76806
0.214926
2.36817
1.67901
5.18995
3.44279
4.65721
4.47216
2.45113
8.01649
1.98561
0.820204
0.196013
2.93131
2.20512
3.13359
3.44194
3.76344
0.586902
0.91251
2.03381
0.128787
1.65575
3.56952
3.50286
3.17161
2.69157
1.59247
2.54301
2.7164
1.06621
0.778604
1.41573
1.20753
0.7311
3.28803
1.93183
1.9928
1.83984
1.32456
3.45819
1.33715
2.53768
3.60899
5.29388
1.84839
2.25977
2.9141
1.39827
2.46594
1.83028
1.54486
3.05089
0.163365
0.275358
0.154613
2.14168
2.74797
3.6034
1.89223
2.13531
3.35813
0.295156
2.43217
2.61861
2.28189
2.03205
0.762011
2.8186
2.49557
1.88
3.35447
0.472366
2.94799
0.878692
2.76632
2.00489
0.0515503
3.77078
3.1012
2.43041
6.06406
0.442774
1.74626
1.35326
1.94485
4.88155
0.279104
2.93208
1.68351
2.38427
2.17436
2.06601
3.36129
2.39367
2.8531
2.86865
1.4389
2.68355
0.414729
1.91057
1.89901
2.09765
1.62767
5.34862
6.10242
3.21517
2.62469
2.77331
2.442
1.64471
0.714278
1.41172
2.23967
0.254466
3.09054
2.12244
2.27585
3.71663
2.70115
1.05364
2.32646
1.32733
1.57437
0.77177
1.14932
0.850812
2.37139
2.29127
0.0783854
0.178663
3.35014
1.66351
0.463005
0.699626
2.49672
1.15877
2.10894
0.534925
0.304952
3.65428
1.90641
1.52768
0.243983
4.03892
1.3588
2.43837
3.21195
0.405641
1.51844
2.42856
1.28206
1.62623
1.84153
2.25986
1.96209
0.553656
0.997754
1.2723
0.678492
2.15928
3.00671
1.39142
0.277477
1.87431
2.25791
0.724758
4.67575
3.08765
0.524173
1.78923
1.64279
2.93602
2.20567
3.09652
0.0777523
3.75276
2.43958
0.303114
3.23112
1.15678
2.06967
2.20723
2.31479
0.242505
0.525726
1.96966
0.445264
1.60516
3.40511
1.80402
1.40468
0.279369
1.83238
0.118844
1.71137
1.08803
0.896674
0.11794
8.4066
1.76962
1.99425
0.33315
1.83264
0.224961
8.84201
3.15627
1.23513
0.15773
0.182332
1.24568
0.128391
0.156627
2.89258
0.649662
2.64507
0.918528
1.65429
2.02509
2.00078
1.97681
0.183406
1.73269
2.71278
0.624885
2.44262
0.0479731
3.0438
0.167997
0.896749
4.78151
1.69324
2.36749
0.778694
2.17593
2.35127
0.492019
0.978495
2.9752
0.90184
0.205403
0.228373
0.890643
0.189046
3.12284
0.873454
1.33668
0.286975
3.40091
3.50892
10.1715
0.903249
1.97233
1.85126
1.6835
10.3608
0.32994
1.46335
4.5356
2.69313
7.49172
3.19111
0.453613
3.59755
1.87095
0.245548
2.28053
2.81084
3.5825
1.11449
0.539987
2.20867
0.589069
0.460965
0.0848208
3.57912
2.46175
2.3605
0.809411
2.11951
6.70098
1.29598
3.71818
3.25989
1.02212
3.12988
0.360896
0.0844382
0.981652
2.89606
5.96137
0.106029
8.19271
1.62946
5.60474
1.20964
0.599962
2.24617
0.974007
0.194424
0.100931
0.511366
1.86871
0.167622
0.0522885
0.864492
2.35459
1.9212
1.67322
3.55012
2.48327
3.5331
0.101936
5.02154
2.55727
3.71952
8.82983
2.71151
1.15772
1.28054
0.314175
0.195329
1.43549
2.2596
1.74145
6.09137
0.197766
1.82544
2.83112
8.64104
7.13803
5.66168
0.799729
0.682965
0.703235
0.701375
0.70066
0.920881
0.656442
0.487539
0.511505
0.497045
0.502469
0.647615
1.02033
0.509163
0.514535
0.55091
0.502368
0.631221
0.607748
0.492013
0.587135
0.582363
0.482048
0.57813
3.41108
4.8821
0.108325
1.78652
1.78289
0.971393
0.707785
4.673
1.10332
0.63845
0.792916
0.529005
0.355405
7.76586
1.41776
0.2462
5.31752
1.60691
3.62222
1.05945
0.257977
8.06838
0.330368
0.563537
2.41356
2.22332
0.14871
0.586986
4.10517
0.798771
1.29441
3.32497
1.97443
2.38534
2.82168
4.53763
0.178309
0.0767779
0.481482
0.158342
3.00137
0.836677
0.464556
2.15719
2.36557
1.00583
1.2298
0.265861
1.07839
0.64874
4.27195
3.43017
2.58836
1.21655
0.309937
1.46193
0.280793
0.535443
0.488177
0.133995
2.57187
0.846227
2.37136
0.230998
1.12915
0.378303
3.02645
0.151974
12.4542
2.8761
0.96216
0.0877626
6.29161
2.86549
5.43357
0.140041
0.092623
0.2638
0.44463
0.481062
3.03414
0.891191
5.71729
5.47925
0.547036
2.86254
0.143588
0.973699
1.22572
1.34972
0.857337
0.744128
1.39471
1.68306
3.19557
1.15049
2.89279
0.242035
0.147442
1.16437
1.2216
1.06766
0.216836
2.70972
2.0902
2.39082
0.425501
2.6247
2.3163
3.93927
6.07162
0.173847
0.755877
0.470215
0.267117
2.95273
7.47297
0.463557
1.8617
0.652113
5.74355
4.47125
0.243783
0.798063
1.08791
2.56725
2.67961
3.52387
2.78228
2.38252
0.118236
2.46569
0.0867134
2.41858
1.54021
2.97967
3.4302
6.26834
5.16786
2.41172
1.39742
2.66328
0.297244
0.467048
0.129365
0.27654
0.130404
2.70469
3.312
1.99862
2.79066
3.12363
5.7634
0.0607868
0.171391
3.71187
2.89742
2.51868
3.01055
3.7162
3.55448
2.95765
0.545177
2.86885
2.79343
2.82298
2.88943
2.7427
2.59953
2.95566
2.48529
0.0393368
0.0536743
0.0488483
0.0368256
0.0341776
0.0418228
3.13225
1.22866
3.48742
1.11394
2.38811
0.46661
0.0992366
2.97353
0.12361
0.189393
2.71976
0.0891679
0.96963
1.06294
0.15038
0.436241
0.380776
2.69263
3.36993
1.19966
2.39627
1.23181
0.278376
2.35831
11.2786
1.0179
0.405212
0.956408
2.66081
0.24574
1.4017
3.59102
0.0816791
2.39881
0.0626745
0.538172
0.210189
0.462848
1.25269
0.257602
0.0641165
1.26329
0.385961
0.316356
3.20169
3.04396
0.23371
1.02599
1.90511
2.78491
0.107368
3.33128
5.34738
0.663793
4.02206
1.19141
0.338879
1.59245
3.59973
0.159322
2.71858
1.50904
2.2154
2.98507
0.4669
1.04967
0.461076
0.102997
2.63242
1.48723
3.00617
3.50826
2.04022
4.56956
4.33875
0.730769
1.71986
0.95882
0.135979
0.328119
0.177439
1.02979
0.343532
5.96171
3.31499
0.173618
3.14939
2.59875
0.849536
3.14885
0.342812
1.39772
3.55529
1.53755
2.55855
0.0788251
1.59165
1.95908
3.34814
3.25508
2.35149
0.0710578
0.422543
1.15968
5.54708
4.63265
2.24505
2.77041
2.15244
0.0992336
7.94483
0.362914
1.47877
1.44307
0.964836
0.451904
2.72892
0.126207
0.770253
1.08881
4.68687
0.554757
3.46404
2.373
1.22042
0.110553
0.324501
0.168583
3.68396
1.06956
3.12169
3.72537
2.81398
3.29178
2.57671
0.691572
0.1284
0.840698
0.524679
2.30028
2.82644
2.49428
12.2213
0.950594
0.611024
2.42306
4.53732
2.39465
0.113991
0.722145
1.84417
1.42113
1.71428
1.91932
2.26439
2.0776
0.591498
1.78488
0.712749
0.166651
2.38442
4.24946
2.39343
4.16714
1.97854
1.99005
2.36278
2.72414
1.22312
0.276739
1.49716
0.764122
0.144474
2.42188
6.25333
2.48218
2.57482
0.123338
0.238302
0.761169
2.41607
0.72407
2.87434
2.75061
3.69099
4.21072
0.479353
2.67047
2.60748
2.97696
3.44594
1.35733
0.717774
0.479467
0.901575
0.71182
1.2434
0.74873
1.12138
7.6882
2.7438
0.335989
1.48524
3.07145
2.06188
0.737657
1.20171
0.491459
6.85194
1.81185
0.180216
0.0759144
11.0691
2.10563
3.03899
0.160139
0.278762
3.28092
0.802341
5.8358
0.145966
0.205939
0.390142
9.36744
0.0680336
5.80919
5.12809
0.487002
1.43623
3.85702
6.20616
3.51814
2.65271
0.480322
0.351128
1.394
0.922238
0.379481
4.41339
0.19084
2.23783
2.34179
7.62792
0.601659
0.625176
0.102867
3.65951
0.253792
1.20016
0.403528
6.71433
0.203592
0.359057
1.11163
3.17654
1.33826
0.961622
0.429541
0.1087
0.216827
4.78658
8.59972
0.211282
2.20691
0.452592
0.182495
0.749174
0.931131
0.619578
2.28745
0.122039
0.695709
0.699731
0.968633
5.11176
0.948311
0.0749663
1.12653
0.903976
0.100705
0.249952
2.36523
0.964154
0.179046
0.611904
0.707256
0.985625
0.102613
0.0528365
4.95407
4.31895
1.34031
0.967102
0.167263
0.174688
0.0661723
1.14737
0.149569
0.169639
0.233353
0.239253
0.326226
0.129712
5.62555
1.10478
0.662909
3.37538
1.58097
4.40647
2.48765
0.115567
0.534806
1.22383
0.625411
2.82237
0.379855
1.2064
0.858021
0.597334
0.115065
0.64055
0.0783631
0.247569
0.120701
2.13124
2.85351
1.13092
1.51973
0.304384
1.07858
0.575541
0.77004
1.27673
0.296354
0.376391
0.918563
1.34956
0.164274
0.0554597
1.05571
0.961101
0.451311
0.31645
)
;

boundaryField
{
    frontAndBack
    {
        type            empty;
    }
    wallOuter
    {
        type            kqRWallFunction;
        value           nonuniform List<scalar> 
96
(
0.797461
0.467755
0.471831
2.27585
2.32646
2.29127
0.699626
0.534925
0.304952
1.90641
0.243983
1.3588
0.405641
2.42856
1.62623
2.20723
2.31479
0.525726
0.183406
0.896749
0.205403
1.11449
0.539987
2.46175
2.3605
0.799729
0.682965
0.703235
0.701375
0.70066
0.920881
0.656442
0.487539
0.511505
0.497045
0.502469
0.647615
1.02033
0.509163
0.514535
0.55091
0.502368
0.631221
0.607748
0.492013
0.587135
0.582363
0.482048
0.57813
0.563537
0.836677
0.464556
0.535443
0.133995
2.37136
0.547036
1.15049
0.755877
0.470215
0.463557
2.67961
0.118236
0.0867134
2.97967
2.89742
3.01055
2.95765
0.545177
2.86885
2.79343
2.82298
2.88943
2.7427
2.59953
2.95566
2.48529
0.0393368
0.0536743
0.0488483
0.0368256
0.0341776
0.0418228
0.46661
0.15038
0.462848
0.4669
2.35149
0.168583
2.82644
2.87434
0.717774
0.479467
0.0680336
2.65271
2.34179
0.102867
)
;
    }
    inlet
    {
        type            fixedValue;
        value           nonuniform 0();
    }
    outlet
    {
        type            zeroGradient;
    }
    wallInner
    {
        type            kqRWallFunction;
        value           nonuniform List<scalar> 
126
(
0.981616
0.332576
0.518396
0.065307
0.0723268
0.0487133
0.0403216
0.0750269
0.206944
0.122803
0.234176
0.600197
3.57464
0.385315
0.089007
0.264868
0.552649
0.383591
0.13036
0.0345096
0.0938698
0.32653
0.828518
0.14747
0.419769
0.371199
0.492892
0.105038
0.123097
0.0548716
0.710698
0.772236
3.13485
0.554106
2.66173
0.0727303
0.105584
0.733118
0.487366
0.0697954
0.0373318
0.89032
0.199978
0.11042
0.324748
0.288225
0.128889
2.80297
0.0941204
1.15753
1.56696
0.121451
1.8863
0.254778
0.713518
0.966378
0.175148
1.95123
1.32067
0.783833
0.155712
0.0638676
0.0718123
1.29796
0.355511
0.285861
0.988557
1.21205
0.0481446
1.63344
1.03916
0.874975
0.191428
0.178222
1.10062
1.17187
0.216525
1.82079
1.25627
1.65024
1.09327
1.67901
0.91251
1.65575
1.20753
1.93183
1.84839
0.762011
0.0515503
1.68351
1.4389
1.51844
1.28206
0.224961
1.15772
1.43549
0.64874
2.04022
0.601659
0.625176
1.22383
0.625411
0.379855
0.858021
0.597334
0.115065
0.0783631
0.120701
2.13124
2.85351
1.13092
1.51973
0.304384
0.575541
0.77004
1.27673
0.296354
0.376391
0.918563
1.34956
0.164274
0.0554597
1.05571
0.961101
0.451311
0.31645
)
;
    }
    procBoundary3to1
    {
        type            processor;
        value           nonuniform List<scalar> 
48
(
3.3247
2.15241
2.27304
2.96654
1.48284
1.86949
2.15241
1.66502
3.58885
0.192315
0.192315
0.217107
0.217107
0.23309
0.273389
0.230491
0.294532
0.271934
0.294532
0.291136
0.191433
0.387464
0.291136
0.889655
0.180863
0.221695
0.643873
0.387464
0.868234
0.470986
0.470986
1.30214
1.30214
3.58885
0.221925
1.356
2.20059
0.180863
3.6612
1.29148
0.23309
2.80822
3.25966
0.291136
0.290445
0.872393
1.43509
0.186776
)
;
    }
    procBoundary3to2
    {
        type            processor;
        value           nonuniform List<scalar> 
29
(
0.1858
0.1858
0.0956863
0.11114
0.229045
0.168511
0.0787123
0.198119
0.214546
0.202243
0.193435
0.250182
0.141708
0.114064
0.0873635
0.112123
0.167374
0.191589
0.199696
0.108843
0.0999992
0.167374
0.0420469
0.191589
0.0677129
0.122309
0.191589
0.287765
0.287765
)
;
    }
}


// ************************************************************************* //
