/*--------------------------------*- C++ -*----------------------------------*\
| =========                 |                                                 |
| \\      /  F ield         | OpenFOAM: The Open Source CFD Toolbox           |
|  \\    /   O peration     | Version:  v1912                                 |
|   \\  /    A nd           | Website:  www.openfoam.com                      |
|    \\/     M anipulation  |                                                 |
\*---------------------------------------------------------------------------*/
FoamFile
{
    version     2.0;
    format      ascii;
    class       volScalarField;
    location    "0.74";
    object      nut;
}
// * * * * * * * * * * * * * * * * * * * * * * * * * * * * * * * * * * * * * //

dimensions      [0 2 -1 0 0 0 0];


internalField   nonuniform List<scalar> 
1431
(
0.00436885
0.0115136
0.000882688
0.000971078
0.00151103
0.00856951
0.00209371
0.0094519
0.00706619
0.00121656
0.00417052
0.0125391
0.0151268
0.00224894
0.00165117
0.00179473
0.00202077
0.001182
0.0020786
0.00162322
0.00554473
0.00532232
0.0056374
0.0150819
0.00592671
0.0116571
0.00370096
0.001619
0.000886314
0.000703739
0.00203205
0.00256479
0.00191608
0.00124844
0.0128361
0.00154725
0.011806
0.000945299
0.000580113
0.00231683
0.00563217
0.00768015
0.0135563
0.00120682
0.00387843
0.00192385
0.0035747
0.0035054
0.0023403
0.00140578
0.0124801
0.00115826
0.0139
0.0127186
0.00893091
0.00754553
0.000908169
0.0134969
0.00176171
0.00100526
0.00146467
0.000492737
0.000464178
0.000426655
0.000274921
0.000365704
0.000787403
0.000611859
0.000819033
0.00124507
0.00368834
0.0011686
0.000495935
0.000856873
0.00149331
0.00097619
0.00058448
0.000318034
0.000620536
0.00106243
0.00171416
0.00063996
0.012206
0.00413101
0.00648227
0.00218356
0.00168483
0.00307392
0.0102397
0.0128208
0.00153619
0.00147229
0.00182716
0.00167436
0.00802708
0.00066294
0.0118996
0.0196143
0.00108324
0.00122128
0.0106624
0.000791096
0.00267256
0.00108501
0.00043025
0.00235136
0.00296682
0.0032715
0.00428437
0.00226335
0.00111574
0.0157095
0.0057247
0.0047311
0.0109922
0.00125387
0.00138731
0.000601012
0.000571021
0.000371424
0.00130676
0.00158213
0.00246229
0.00125348
0.00255918
0.000457696
0.000599294
0.00267111
0.00102761
0.00366694
0.00132986
0.00109131
0.00410977
0.00156694
0.0017573
0.00163355
0.000901627
0.00117757
0.013332
0.000424433
0.000349325
0.00192492
0.00148676
0.000658768
0.00548275
0.00180466
0.000561647
0.0126129
0.00152426
0.000983816
0.00102198
0.00103063
0.00245158
0.000621232
0.00330723
0.00168999
0.00995707
0.0165462
0.0131138
0.00324868
0.0183201
0.0158546
0.00071735
0.00228567
0.00276214
0.00421909
0.00402739
0.00972119
0.00130276
0.0169691
0.0176126
0.0143468
0.00219579
0.0134031
0.0139789
0.00935246
0.00371325
0.00626618
0.0139222
0.0138451
0.000434536
0.000950045
0.00839983
0.0180677
0.00681291
0.00131764
0.0015189
0.016394
0.00239753
0.00734088
0.00225363
0.00242855
0.00255547
0.0036521
0.000566876
0.0180538
0.0201412
0.0126391
0.000947627
0.00154467
0.00971973
0.000916579
0.00418308
0.00234994
0.0156977
0.00237207
0.00231874
0.000729874
0.0146076
0.00223017
0.00198128
0.000569125
0.00293927
0.00237341
0.0120517
0.00152564
0.00273516
0.0129268
0.00910741
0.0040354
0.00313474
0.00789341
0.00260392
0.0014766
0.00343849
0.0162676
0.00441137
0.0183393
0.00278159
0.00304778
0.00613353
0.00202731
0.00237434
0.00248613
0.00267861
0.0189834
0.00291952
0.00263796
0.00216517
0.00624643
0.0038894
0.0136178
0.0153965
0.00253284
0.00244593
0.0041724
0.0026663
0.00391566
0.0033056
0.0012966
0.00261926
0.0139493
0.00284
0.00123822
0.00233261
0.00731403
0.00238181
0.017049
0.0205975
0.0026061
0.00169587
0.0130643
0.0086726
0.00342247
0.00366299
0.00475295
0.0111707
0.00449538
0.00345442
0.000639224
0.00448935
0.00289368
0.00931136
0.00377781
0.017016
0.00203601
0.016036
0.00320194
0.000997528
0.00150406
0.0152733
0.0127769
0.00179538
0.00955137
0.00567022
0.0184356
0.00716898
0.0205274
0.00565916
0.0118059
0.00058243
0.00927781
0.0191459
0.0148182
0.002641
0.00256777
0.00183475
0.00147946
0.00222264
0.00104257
0.0138802
0.000668082
0.00734083
0.0148263
0.00295823
0.0019273
0.0143147
0.00243354
0.00870381
0.0153146
0.0180381
0.00038495
0.000431547
0.00133933
0.00840057
0.0198961
0.0128475
0.00713237
0.00156524
0.0137821
0.0144305
0.0191311
0.000777381
0.0125717
0.0107518
0.00099882
0.000825088
0.00724895
0.0129858
0.00108793
0.00115616
0.00180623
0.00757072
0.00605849
0.00378632
0.0147884
0.0071819
0.0191831
0.00999823
0.00129995
0.000374894
0.0146508
0.0151257
0.00522534
0.00758906
0.00231965
0.00979306
0.0155329
0.0169742
0.0150101
0.00723224
0.00132655
0.012586
0.0157129
0.00163142
0.00610401
0.00773887
0.00184574
0.011995
0.00644602
0.00555572
0.00131486
0.00108879
0.00555494
0.00167952
0.00515377
0.00654551
0.017659
0.00262157
0.0020005
0.00394859
0.00226348
0.0115393
0.0123909
0.00548049
0.0183745
0.0161145
0.00238884
0.0126765
0.0186135
0.0160081
0.00869009
0.00315752
0.0015423
0.0169383
0.00826949
0.0147412
0.00728905
0.0107742
0.0128836
0.0039446
0.0148818
0.0148868
0.00154134
0.0201989
0.0134438
0.0144206
0.0140027
0.00606255
0.00978283
0.0162583
0.00558591
0.020626
0.00735838
0.00534628
0.0139785
0.00795139
0.000532677
0.00468073
0.0142611
0.0171292
0.0120027
0.0145291
0.0146716
0.00730595
0.000871814
0.0148759
0.000521662
0.010215
0.0147662
0.00368718
0.0152092
0.00970724
0.0152834
0.0150017
0.00206533
0.00179812
0.00374704
0.005633
0.0140879
0.0152578
0.0149081
0.0146877
0.0146962
0.0146995
0.0149543
0.015355
0.0145478
0.0155144
0.0148607
0.00176514
0.0135343
0.00170338
0.00148075
0.00110353
0.00131185
0.00157718
0.00160712
0.00444232
0.00461221
0.00416788
0.00163998
0.0021417
0.00117989
0.00207405
0.00216053
0.005608
0.016162
0.00118229
0.00171164
0.00509205
0.00123688
0.0154869
0.0018782
0.00209222
0.00142659
0.00116164
0.0148572
0.00166896
0.0141389
0.0014975
0.00137385
0.00122329
0.00623149
0.0134004
0.0134277
0.00192458
0.00111681
0.00141636
0.00147605
0.00636609
0.00148154
0.0134445
0.00146144
0.0013369
0.0060204
0.00145828
0.00121109
0.00121489
0.00256275
0.0131631
0.00142432
0.00207833
0.00535066
0.00488303
0.00171735
0.00309977
0.0125706
0.00158462
0.00215772
0.00920458
0.00890872
0.00136183
0.00124704
0.0122516
0.0137563
0.00192027
0.00236491
0.00279084
0.00195688
0.00647123
0.00514559
0.00142928
0.00440832
0.00114684
0.00179017
0.00949078
0.0078189
0.00531888
0.0133878
0.00402767
0.00475654
0.00290605
0.00127597
0.0105134
0.00225964
0.0114966
0.00228117
0.00168036
0.000555843
0.0113122
0.00974122
0.0129597
0.00600532
0.0140582
0.00814432
0.00346936
0.00173309
0.0108677
0.00174835
0.0152864
0.00162443
0.00505022
0.00740452
0.00355568
0.00373256
0.0106537
0.00158731
0.0148816
0.0130498
0.0144223
0.00133554
0.00568676
0.014694
0.00147768
0.00367532
0.00268183
0.00935707
0.00163163
0.00641442
0.0132298
0.0119341
0.019102
0.0130785
0.00919126
0.00857766
0.00585988
0.00186363
0.0138653
0.00761885
0.0156592
0.0114671
0.0158871
0.00454969
0.00119547
0.0108455
0.00157141
0.00164917
0.0161161
0.0150607
0.0156031
0.00935433
0.00434578
0.0146822
0.0154135
0.0031309
0.00241846
0.00913169
0.00140933
0.00278781
0.0157331
0.00163107
0.012221
0.0120149
0.00354979
0.0147524
0.00517292
0.0146601
0.0180732
0.0139455
0.00170645
0.0131569
0.0137537
0.0083732
0.0124025
0.0081982
0.00183959
0.0157944
0.00121081
0.00163354
0.00186977
0.0109604
0.0148254
0.0163156
0.0052333
0.0071629
0.00483553
0.00357574
0.0134964
0.0140058
0.013218
0.0127053
0.00109131
0.0146089
0.0135684
0.00723526
0.0138381
0.00229935
0.0138183
0.00523676
0.0148971
0.0116351
0.000315404
0.0161959
0.0156663
0.0135913
0.0103655
0.00434615
0.00436308
0.00891556
0.00562426
0.0200012
0.00356687
0.0140891
0.00164637
0.0132677
0.0113844
0.0109101
0.00422751
0.0145786
0.0137919
0.00992569
0.00148296
0.0145849
0.00201247
0.00931811
0.00661755
0.00783747
0.0113033
0.0150263
0.019704
0.0134449
0.0137023
0.014901
0.0097576
0.00437542
0.00226834
0.00936742
0.0130111
0.0011373
0.015222
0.0115192
0.00170406
0.0151796
0.0137409
0.00333247
0.00172764
0.00632985
0.00503574
0.00576298
0.00800021
0.00615005
0.0145391
0.00169901
0.00063129
0.000837221
0.0158462
0.00482196
0.00198284
0.000886089
0.00529128
0.00278849
0.00494736
0.000774583
0.000553764
0.0140406
0.00143322
0.00438969
0.000469428
0.0151932
0.00119491
0.0141515
0.0155192
0.000665775
0.00170553
0.00178919
0.00138097
0.00131062
0.01198
0.0102521
0.00614583
0.00333603
0.00273188
0.00333912
0.00176772
0.00477235
0.0140773
0.00310779
0.00256643
0.00483029
0.0052463
0.00238845
0.0134601
0.0157113
0.00248185
0.00763292
0.00351846
0.0137233
0.00342085
0.00454867
0.00123547
0.0160127
0.0138958
0.00332889
0.006721
0.00298671
0.00500789
0.00157098
0.00167991
0.00308199
0.000761326
0.00701835
0.00389901
0.00468331
0.0154725
0.00794893
0.00524657
0.00118238
0.00518757
0.00135095
0.0108184
0.00703258
0.00652612
0.00146765
0.0156507
0.00520155
0.00628082
0.00144419
0.00756695
0.000592953
0.0175441
0.00625459
0.00333122
0.00183335
0.00127266
0.00299901
0.00177671
0.00207838
0.0133849
0.00418797
0.0116449
0.00236269
0.00477792
0.00526281
0.00584562
0.0125518
0.000428832
0.00775772
0.0110939
0.00183815
0.0145566
0.000686134
0.0156954
0.0018581
0.00100066
0.0129139
0.0068512
0.014203
0.00230838
0.0135487
0.00608792
0.0015837
0.00245708
0.0122492
0.00241742
0.000422049
0.00298591
0.00233968
0.00241034
0.015637
0.00241687
0.00608703
0.00116046
0.0152352
0.0157702
0.0116868
0.00250492
0.00861875
0.00808917
0.00650348
0.0167974
0.00260011
0.00954015
0.0112402
0.00964419
0.0168902
0.0155314
0.00202832
0.0132696
0.00538932
0.00141223
0.00476635
0.0151182
0.0151011
0.00109897
0.000774043
0.00746751
0.00191878
0.00214709
0.00124845
0.0139022
0.0016914
0.00161006
0.00234244
0.0134208
0.0133147
0.00298677
0.0138906
0.0154446
0.00704872
0.0157203
0.00374533
0.00147364
0.00243644
0.0150854
0.018401
0.00122057
0.017024
0.007497
0.0196191
0.00288746
0.00194862
0.0131912
0.0059965
0.000845249
0.000637612
0.00437157
0.00562661
0.000912176
0.000708791
0.00589414
0.0144449
0.00652317
0.0112086
0.0161215
0.0107542
0.0162257
0.00137551
0.0148058
0.0117014
0.0156387
0.0106602
0.0107622
0.00118282
0.0039648
0.00120001
0.0022964
0.00194089
0.00995299
0.00366831
0.0132831
0.00232253
0.00420482
0.00412678
0.0118901
0.0145177
0.00726758
0.000820963
0.000861132
0.000828553
0.000721447
0.000766158
0.000954453
0.000847375
0.00058306
0.000701336
0.000624876
0.000632568
0.000691278
0.00105043
0.00071217
0.000632623
0.000637201
0.000746295
0.000797328
0.00075123
0.000739062
0.000714938
0.000721001
0.000710422
0.00074525
0.0159415
0.016522
0.00134284
0.0102968
0.00782457
0.00488946
0.00269591
0.00842523
0.00239554
0.00205257
0.00369697
0.00129418
0.00302447
0.016075
0.00538688
0.00166198
0.0179455
0.00481584
0.0163852
0.00394423
0.00200318
0.0176723
0.00125396
0.000753113
0.0123527
0.0138443
0.000609842
0.0041523
0.0107882
0.00176529
0.00475095
0.0155191
0.0058763
0.012744
0.0150471
0.0116126
0.00169592
0.000949368
0.00209119
0.00192569
0.0156588
0.000984421
0.000706492
0.0106542
0.0140855
0.00763216
0.0046873
0.0011244
0.00682818
0.000920003
0.0105246
0.0155474
0.014708
0.00197943
0.0012415
0.00549486
0.00370009
0.000687759
0.00245736
0.000407391
0.0143872
0.00237646
0.00143033
0.00142812
0.00360432
0.00124539
0.0152596
0.001848
0.0151969
0.013029
0.00265928
0.00103724
0.0107401
0.0124742
0.019061
0.00187173
0.00127857
0.00341119
0.00255703
0.00168004
0.015394
0.00239075
0.00678424
0.0130598
0.00072052
0.0126856
0.00179166
0.00230134
0.00554377
0.00350083
0.00244658
0.00284369
0.00366564
0.00381909
0.0151096
0.00115262
0.00957516
0.00320191
0.00171395
0.00465709
0.00249892
0.00196611
0.000821447
0.0140849
0.0131741
0.0143564
0.00106434
0.0146407
0.0141344
0.00813991
0.00696978
0.00190716
0.000788795
0.000673718
0.00269778
0.0125604
0.0146165
0.000705293
0.00737503
0.00200422
0.0181212
0.0121851
0.00299803
0.00338142
0.00276099
0.0139631
0.00178344
0.00676994
0.00980379
0.0143443
0.00037343
0.0041251
0.000307822
0.0089361
0.0101528
0.00210772
0.0121064
0.0115023
0.0146205
0.00903907
0.00556201
0.0126546
0.00309198
0.00372136
0.000920225
0.0036275
0.00116195
0.0145665
0.0118381
0.00909403
0.0147018
0.0115821
0.0177528
0.000635194
0.000853585
0.0163386
0.00196727
0.0112299
0.00222553
0.0135491
0.0156285
0.00192534
0.000727337
0.0017854
0.00167946
0.00164146
0.00221282
0.00196014
0.00187048
0.00178287
0.00189008
0.000222287
0.000218881
0.000189015
0.000195538
0.000143503
0.000180912
0.0156396
0.00318145
0.0133239
0.00254539
0.00871474
0.00069568
0.00114284
0.0147483
0.00156647
0.00242484
0.0147798
0.00131876
0.00289962
0.0055285
0.000439141
0.0015591
0.00191955
0.00956874
0.0150065
0.00312394
0.0114196
0.00316642
0.00190038
0.0143749
0.0155406
0.00303127
0.0016234
0.00339071
0.0132303
0.0030495
0.00959503
0.0072263
0.0013236
0.00961242
0.000678783
0.00258443
0.00271197
0.000627489
0.00489411
0.00115926
0.000786287
0.00431021
0.00156491
0.00140461
0.014687
0.0105202
0.00185153
0.00458126
0.0115327
0.00352185
0.00134296
0.00605481
0.0105398
0.00529975
0.00792878
0.00351615
0.00114549
0.00493379
0.00708667
0.00115135
0.0136176
0.00374362
0.00372651
0.0111443
0.000653481
0.00264048
0.00269413
0.00152777
0.0095307
0.00711058
0.0155897
0.00734147
0.00188729
0.00936024
0.0173266
0.0022834
0.0110573
0.00160479
0.000821331
0.00158492
0.00113348
0.00300048
0.00123028
0.0136502
0.0157515
0.00185686
0.00565446
0.0146138
0.00413967
0.0122463
0.00237017
0.00374514
0.00631723
0.00336322
0.0124576
0.00110842
0.00428389
0.0063722
0.00533343
0.0119793
0.001401
0.000738075
0.00175876
0.00354267
0.00925508
0.0128676
0.00489344
0.0106492
0.00797892
0.00150752
0.0165975
0.00159438
0.00469423
0.00594782
0.00278953
0.00158777
0.0101889
0.00169774
0.00118925
0.00288038
0.0109599
0.00259913
0.0152661
0.0109162
0.00583914
0.00140821
0.00152076
0.000454469
0.0113707
0.00364883
0.0124663
0.00835393
0.0136397
0.015719
0.0147445
0.00187284
0.00164605
0.00210954
0.00158332
0.0107215
0.00184686
0.014378
0.0186738
0.00225558
0.00372801
0.0143509
0.0112124
0.0138477
0.00100502
0.00520684
0.0064367
0.0020636
0.00779548
0.0046589
0.00437367
0.006443
0.00209178
0.0115317
0.00368819
0.00211813
0.0124083
0.00720952
0.00859041
0.00588284
0.00793467
0.0116773
0.012492
0.0144379
0.00446077
0.00114627
0.00372476
0.00393974
0.00187272
0.0143068
0.00829465
0.0139181
0.0144674
0.00108595
0.00155621
0.00228475
0.0139149
0.00200326
0.00184177
0.0107621
0.0141747
0.0113548
0.00227449
0.0147509
0.0122009
0.0156101
0.006458
0.00342308
0.000720368
0.000634795
0.0014983
0.00288739
0.00216581
0.00240042
0.00322574
0.0155349
0.0148769
0.00123411
0.00570674
0.0134694
0.00380216
0.00227867
0.00290478
0.00179672
0.0139859
0.00926657
0.00105397
0.000929003
0.0182151
0.0102601
0.0123317
0.00144146
0.00224449
0.00392795
0.00457011
0.0105137
0.00101536
0.00245967
0.00241346
0.0175415
0.000259614
0.00772094
0.0130981
0.00465095
0.0037295
0.00698003
0.0116556
0.0128376
0.0019158
0.00302483
0.00126747
0.00657701
0.00165722
0.00185261
0.010686
0.00141287
0.00868902
0.00108966
0.0130927
0.000960368
0.000968981
0.000343773
0.0070192
0.00335235
0.00319445
0.00117694
0.0135751
0.0025218
0.0025076
0.00678004
0.0104629
0.00249414
0.00233198
0.00247537
0.00158958
0.00258089
0.0104448
0.0173619
0.00254031
0.0106989
0.00243871
0.00157107
0.00185728
0.00244783
0.00264116
0.00978178
0.00180506
0.00186703
0.00201086
0.00247567
0.0122239
0.0024361
0.000501313
0.00255975
0.00252596
0.00138041
0.00333097
0.00988113
0.00464135
0.00204262
0.00193514
0.00220029
0.00296203
0.000719656
0.000316231
0.0113783
0.00957823
0.00238495
0.00445142
0.00192408
0.00104779
0.000948037
0.00292485
0.00113735
0.00113056
0.00150252
0.0014021
0.00108557
0.0018044
0.0165622
0.00233617
0.00209804
0.0156935
0.00353703
0.0109358
0.0136827
0.00165459
0.00271369
0.00129719
0.000982874
0.00416064
0.0010919
0.00556232
0.0012546
0.00105669
0.000485449
0.00177332
0.000408368
0.00184785
0.000390943
0.00243426
0.00289313
0.00180664
0.0019031
0.000739102
0.00126318
0.000933647
0.00113934
0.00150114
0.000665038
0.000799963
0.00166927
0.00159525
0.000574503
0.000332257
0.00144153
0.00161226
0.00097659
0.000787611
)
;

boundaryField
{
    frontAndBack
    {
        type            empty;
    }
    wallOuter
    {
        type            nutkWallFunction;
        Cmu             0.09;
        kappa           0.41;
        E               9.8;
        value           nonuniform List<scalar> 
96
(
0.000105453
8.47549e-05
7.99333e-05
0.000195052
0.000197544
0.000194524
0.000106529
9.39466e-05
6.83926e-05
0.000166326
5.82475e-05
0.000140561
8.13189e-05
0.000204047
0.00015312
0.000181052
0.000192509
9.12091e-05
5.34154e-05
0.000119284
5.24196e-05
0.000130097
9.26629e-05
0.000193829
0.000185096
9.86751e-05
0.000102532
9.88361e-05
8.65357e-05
9.16929e-05
0.000113925
0.000100957
7.0423e-05
8.42803e-05
7.53473e-05
7.62837e-05
8.35519e-05
0.000124727
8.56036e-05
7.65172e-05
7.71073e-05
8.95785e-05
9.52374e-05
8.99368e-05
8.87638e-05
8.57411e-05
8.646e-05
8.54605e-05
8.92776e-05
9.01984e-05
0.000116513
8.50557e-05
8.26444e-05
5.08354e-05
0.000165849
8.64324e-05
0.00013609
9.4324e-05
8.12676e-05
8.49034e-05
0.000203538
4.65934e-05
3.84016e-05
0.000237403
0.000222812
0.000249569
0.000218431
8.72533e-05
0.000203755
0.000192545
0.000188515
0.00024826
0.000222055
0.000212676
0.000203476
0.000214726
2.54168e-05
2.63516e-05
2.18412e-05
2.19464e-05
1.4782e-05
2.02093e-05
8.37735e-05
5.47959e-05
7.5776e-05
7.88318e-05
0.000162724
5.66664e-05
0.000210206
0.000209677
8.64222e-05
7.67148e-05
3.23079e-05
0.000217367
0.000128615
4.28973e-05
)
;
    }
    inlet
    {
        type            calculated;
        value           nonuniform 0();
    }
    outlet
    {
        type            calculated;
        value           nonuniform List<scalar> 9(0.017659 0.0169383 0.00183959 0.0156507 0.0116868 0.00696978 0.00210772 0.00352185 0.0105398);
    }
    wallInner
    {
        type            nutkWallFunction;
        Cmu             0.09;
        kappa           0.41;
        E               9.8;
        value           nonuniform List<scalar> 
126
(
0.000201855
0.000119572
0.000170911
6.04909e-05
5.65935e-05
5.18724e-05
3.28478e-05
4.48201e-05
9.52391e-05
7.4827e-05
9.97176e-05
0.000145977
0.000397525
0.000137295
6.18878e-05
0.000102397
0.000172734
0.000117119
7.16843e-05
3.87647e-05
7.54881e-05
0.000125002
0.000196838
7.72279e-05
0.000141501
0.000148059
0.00016122
7.46852e-05
7.04237e-05
4.49523e-05
0.000152911
0.00018297
0.000272963
0.000146797
0.000284313
5.57806e-05
7.35775e-05
0.000155556
0.000128699
5.0212e-05
4.1984e-05
0.000172499
7.96098e-05
6.88739e-05
0.000118709
0.000124227
7.64083e-05
0.00030434
5.31783e-05
0.000153205
0.000175647
7.01208e-05
0.000223789
7.77048e-05
0.000117957
0.000173217
7.15238e-05
0.000209273
0.000170676
0.000123011
7.14574e-05
4.65915e-05
5.31222e-05
0.00015656
0.000119163
9.72727e-05
0.000135673
0.000151932
4.01705e-05
0.000210106
0.000152877
0.000128191
6.29419e-05
6.01328e-05
0.000147007
0.000136038
6.61291e-05
0.000198542
0.000187453
0.000182958
0.000156436
0.000187756
0.000137869
0.00018944
0.000160948
0.000186466
0.000195427
0.000126361
3.81478e-05
0.000188072
0.000171772
0.000194364
0.000160864
6.79154e-05
0.000139268
0.000219145
0.000107513
0.000214909
0.000114119
0.000115594
0.000151943
0.000115898
0.000128401
0.000147923
0.000121101
5.72566e-05
4.8236e-05
4.80223e-05
0.000270468
0.000318093
0.000205823
0.000216495
8.90901e-05
0.000111067
0.000133609
0.000173644
8.04033e-05
9.55426e-05
0.00019107
0.000182301
7.03469e-05
4.05723e-05
0.000167629
0.000185926
0.000115623
9.52693e-05
)
;
    }
    procBoundary3to1
    {
        type            processor;
        value           nonuniform List<scalar> 
48
(
0.0112735
0.00459712
0.00579667
0.00944536
0.00363861
0.00346038
0.00459712
0.0115219
0.0146536
0.00123504
0.00123504
0.00118742
0.00118742
0.00171431
0.00228576
0.00119396
0.00137158
0.00122609
0.00137158
0.00156847
0.00141465
0.00286287
0.00156847
0.00193043
0.00115896
0.00136545
0.0051544
0.00286287
0.00718182
0.00127548
0.00127548
0.00991321
0.00991321
0.0146536
0.00152409
0.00303367
0.0131426
0.00115896
0.0131509
0.00319242
0.00171431
0.0143794
0.0149297
0.00156847
0.00249056
0.00105588
0.00362841
0.00131633
)
;
    }
    procBoundary3to2
    {
        type            processor;
        value           nonuniform List<scalar> 
29
(
0.0018879
0.0018879
0.000454313
0.000505857
0.000671673
0.000604512
0.000413963
0.0016837
0.00258334
0.00210929
0.00113315
0.0012498
0.00106237
0.00180401
0.00139472
0.00145753
0.00192078
0.00244816
0.00208905
0.00179629
0.00162523
0.00192078
0.000238186
0.00244816
0.000903478
0.000965788
0.00244816
0.00224382
0.00224382
)
;
    }
}


// ************************************************************************* //
