/*--------------------------------*- C++ -*----------------------------------*\
| =========                 |                                                 |
| \\      /  F ield         | OpenFOAM: The Open Source CFD Toolbox           |
|  \\    /   O peration     | Version:  v1912                                 |
|   \\  /    A nd           | Website:  www.openfoam.com                      |
|    \\/     M anipulation  |                                                 |
\*---------------------------------------------------------------------------*/
FoamFile
{
    version     2.0;
    format      ascii;
    class       surfaceScalarField;
    location    "0.74";
    object      phi;
}
// * * * * * * * * * * * * * * * * * * * * * * * * * * * * * * * * * * * * * //

dimensions      [0 3 -1 0 0 0 0];
oriented        oriented;


internalField   nonuniform List<scalar> 
2708
(
-0.000428074
-1.40077e-05
0.000203902
0.000238179
0.000167138
0.00024665
-0.000194284
-0.000219505
1.25238e-06
3.04819e-05
-5.37546e-05
2.20203e-05
-0.000120157
0.000154516
-5.25258e-05
1.81668e-05
-0.000455045
-0.000205799
0.000338968
0.000321876
0.000761291
-0.000922248
0.000428785
-0.000267827
7.23001e-05
-7.53311e-05
3.52117e-05
-3.21806e-05
-0.000119296
0.000193076
-2.24832e-05
-5.12962e-05
-0.000598342
0.000646628
0.000648714
-0.000697
2.37576e-05
8.67296e-05
-3.81871e-05
0.00093137
-0.000964756
0.00028885
-0.000255464
0.000269134
-0.0003463
0.000749518
-0.000672351
-0.000169557
0.000228467
-0.000275099
0.000216189
-0.000107337
-0.000374767
0.000345441
0.000136662
0.00034874
-0.000494725
-0.000125246
0.000271231
0.00010263
2.30884e-05
-0.000101961
-0.000779657
0.00061787
-0.000187833
0.00034962
0.000242089
-0.00036155
0.000221043
-0.000101582
0.000353239
0.000134072
-0.000453717
-3.35944e-05
-0.000186557
-7.8802e-05
0.000251151
1.42074e-05
-0.000394667
0.000782613
0.000543424
6.6622e-05
-3.53091e-05
-0.00013865
-0.000614593
-0.00032983
0.000485294
0.000459128
-0.000269059
-0.00126381
0.00130209
0.000230785
-0.000691901
-0.000521035
-0.000113177
4.825e-05
0.000156861
-9.19339e-05
-0.000937543
-0.000163526
0.000136314
-0.000238604
9.86142e-05
0.000276992
-0.000137002
5.96572e-05
-0.000463899
0.000404242
-2.09563e-05
-0.000517674
0.00053863
0.000616074
4.92649e-05
-5.20401e-05
-0.000613299
-0.000576717
5.01643e-05
-2.16324e-05
0.000548185
0.000589452
4.40499e-05
-2.40108e-05
-0.000609491
-0.000233669
0.000170921
6.92297e-05
-6.48168e-06
0.000697523
0.000303439
-0.000733808
-0.000267154
-5.96741e-05
0.000108826
-7.33102e-05
2.41584e-05
0.000218721
0.000832978
-0.000129652
-2.22895e-06
6.58338e-06
2.36875e-05
-2.80419e-05
-2.43793e-05
3.77691e-05
2.37927e-05
-3.71825e-05
8.98107e-05
0.000498622
-0.000570461
-1.79715e-05
-0.000514923
0.000453255
0.00092179
0.00105005
-0.000166189
-0.000116545
-5.4809e-05
-2.40046e-05
3.78636e-05
4.09499e-05
-0.000459259
0.000638844
-0.000500284
0.0003207
0.000178317
-3.06239e-05
-0.000179052
3.13589e-05
0.000170975
-0.000122812
-7.3424e-05
2.52615e-05
-0.000885942
0.000108697
-0.000160298
3.43754e-05
-3.64655e-05
-7.32409e-05
3.02841e-05
-1.13244e-05
-3.69968e-05
1.80371e-05
1.89954e-05
-0.000332569
0.000374435
-6.08617e-05
5.50328e-05
-5.63215e-05
-4.34511e-05
4.47398e-05
0.000419521
-0.000229865
-0.000206895
1.72383e-05
2.45648e-06
0.000293055
-0.00015115
-0.000144361
9.58483e-05
0.000184861
-0.000131891
-0.000148818
-9.46085e-05
0.000201899
6.50446e-06
-0.000113795
0.000127832
-0.000195407
-6.81478e-05
0.000135722
-0.000418288
-0.000379317
0.000490962
0.000306643
0.000798596
-0.00018748
-0.000611116
0.000152016
5.17808e-05
-0.000203797
0.000110136
5.11405e-05
-1.24152e-05
-3.87253e-05
-3.8215e-05
6.96974e-05
-3.14824e-05
1.75613e-05
-1.97902e-05
-1.19801e-05
-1.23991e-05
9.84535e-06
6.1399e-07
0.00030719
-4.20457e-05
6.42905e-05
2.27738e-05
-6.15427e-05
0.000127281
-6.57379e-05
-0.000154039
0.000224545
-7.05061e-05
-0.000150745
0.000157539
-6.79328e-06
-0.000248882
1.52134e-05
7.58426e-05
-2.54271e-05
4.0369e-05
0.000130552
-0.000288012
-8.67547e-05
0.000277846
-9.95291e-05
4.97798e-05
7.20895e-05
-0.000121869
-2.24038e-05
2.05894e-05
1.81438e-06
7.78025e-05
8.92705e-06
7.0767e-05
0.000171322
-0.000660774
-0.000118883
1.37392e-05
-7.39367e-05
6.01975e-05
-0.000163255
8.25169e-05
0.000507551
-0.000426813
-0.000228897
0.000203685
0.000196187
-7.72364e-05
5.36331e-05
0.00122807
-0.00120447
2.20983e-05
0.000157749
-3.08417e-05
-0.000149006
-1.09794e-05
9.9957e-06
-8.91322e-06
9.89691e-06
0.000175558
-0.000195689
1.52334e-05
4.89733e-06
2.43754e-05
2.69138e-05
-0.00101588
0.000964595
-0.000120288
4.65556e-05
-0.000751421
0.000825153
-1.72529e-06
0.000202789
-7.32314e-05
0.000239679
-0.000252557
1.11528e-05
1.32739e-05
-2.7068e-05
2.03774e-05
-8.84941e-06
4.5922e-05
-0.000109881
7.28085e-05
0.000147455
-0.000110134
5.85271e-05
3.31583e-05
-0.000445552
0.000412394
-0.000299899
-0.000285074
-0.000405584
0.00047268
0.000217977
-4.97052e-05
-3.76528e-05
3.2549e-05
-0.000183522
0.000170732
1.27907e-05
0.000291336
-0.000198292
-0.000187653
3.15139e-05
-3.00786e-05
-0.000499297
2.58319e-05
-4.76734e-05
0.000521139
-6.50007e-05
-7.37616e-05
0.000160813
-2.20511e-05
-3.75061e-05
-9.68211e-06
2.47843e-05
-0.000585586
-2.51343e-06
0.000595539
-7.43943e-06
8.52211e-06
0.000609396
-0.000591684
-2.6234e-05
-0.000123757
0.000670906
-0.000723963
0.000176814
0.000434693
-0.000286314
-0.000478209
0.000634942
-0.000335643
2.99461e-06
8.4021e-05
-0.000392986
0.0001709
0.000450553
6.43496e-05
-2.6206e-05
3.20827e-05
-7.02263e-05
-0.000659655
0.000598831
0.000514078
0.000115677
0.000236322
-0.000177199
9.65591e-05
-4.43147e-05
0.000190613
-0.000168514
-2.06537e-05
-5.223e-05
-0.000101809
-8.41576e-05
-0.000410567
0.000103995
-0.000101538
-6.34672e-05
-5.36629e-05
0.000211202
8.0839e-05
-3.03651e-06
5.10322e-05
-9.74225e-05
-0.000193169
0.000165345
8.5578e-05
-5.70386e-05
1.94252e-06
-4.39776e-05
3.02265e-05
1.24246e-05
1.32639e-06
0.000223883
0.000393986
-5.72429e-05
-0.000304307
-5.04441e-05
-5.52146e-05
6.16811e-05
7.20498e-05
-0.000360392
0.000641581
-0.000171176
0.0002901
-0.00030548
4.57339e-05
-2.79568e-05
-6.34283e-05
1.97311e-05
-1.61532e-05
-5.08152e-06
1.50369e-06
9.00605e-05
-1.89343e-05
-8.35415e-05
0.00119623
0.000119932
-0.00115725
-0.000158908
3.69614e-05
5.61289e-06
3.21562e-05
0.000586025
2.94263e-05
6.89947e-05
-0.000684446
-0.000146735
0.000317567
0.000314463
0.000102017
0.000520593
-9.40467e-05
-0.000238125
0.00026197
0.000267492
0.000102708
0.000123875
-5.23061e-05
-9.21665e-05
-7.54428e-05
0.000563752
1.97182e-05
-0.000508028
-3.32189e-05
0.000223832
-0.000527866
-3.39727e-06
-7.06235e-05
0.000601887
-1.29196e-05
1.62693e-05
-3.04177e-05
-0.00120038
-0.000123759
0.00116017
0.000163974
0.000468985
0.000364665
-0.000319128
-0.000514523
-0.000156859
8.31477e-05
-0.000605713
0.000679424
-4.73759e-05
4.86909e-05
7.6726e-06
-8.98757e-06
0.00104794
-0.000909914
0.000209807
-0.000347832
-0.000325403
-0.000195782
0.000246086
6.93445e-05
-8.21498e-05
-4.06235e-06
1.68677e-05
2.05303e-05
-1.92664e-05
1.75639e-05
-1.88278e-05
-6.0103e-05
0.000164098
-0.000706815
0.000350634
-7.18931e-05
0.000190093
7.30394e-05
-8.27504e-07
1.13214e-05
0.000397729
-0.000376498
-0.000169803
0.000148572
-0.000133544
-0.000931423
5.92994e-05
0.00100567
-0.00026127
-0.000309928
0.000333072
3.36292e-05
0.000588294
-2.20788e-05
-0.000599845
0.000264065
-0.00149899
3.47603e-05
0.00120017
0.000355152
-0.000316925
0.000208424
0.000312943
-0.00124926
-3.24701e-05
-3.26027e-05
1.46287e-05
0.000889718
-0.000587686
5.80547e-05
0.000388039
-2.65731e-05
0.000544386
-9.3232e-05
-0.000412948
-3.82065e-05
-2.83417e-05
3.0656e-05
4.81695e-05
0.000215748
-0.00024954
0.000124847
-9.10546e-05
0.00115193
-0.00113096
-0.000290028
0.000495116
-9.86749e-05
0.000493277
-0.00046329
0.000471812
-0.000318074
0.000194317
0.000221183
0.000602954
-0.000762494
0.000341235
-9.85377e-05
0.000519796
-2.64964e-05
-5.46749e-05
-0.00109004
0.00117121
0.000598581
-0.000652381
0.000155818
0.000638004
-0.000544618
-1.46569e-05
-7.87299e-05
0.000546222
-0.000778913
0.000322501
0.000593582
-6.67578e-05
0.000144082
-1.3998e-05
0.000195273
0.00082214
-0.000652749
-0.000308753
-0.000356456
0.000380135
0.000650041
-0.000615142
-0.000130874
9.59748e-05
0.000105006
-2.67317e-05
4.90059e-05
-0.000144637
0.000108022
0.000213517
-0.000176902
0.000220661
-0.000218905
0.000102406
-0.000104162
2.40941e-05
5.09704e-05
-5.7201e-06
-0.000626452
-0.000402817
0.000771745
0.000257524
-6.11592e-06
-2.63784e-06
8.46037e-06
2.93384e-07
1.07885e-05
0.000283056
-0.000335103
4.12592e-05
9.1479e-06
0.000647044
-0.000645516
-1.06759e-05
0.000158683
-0.000626527
0.000633932
-0.000166088
-0.000121063
-6.07186e-06
9.49993e-05
3.21355e-05
0.00108665
-0.00111193
-5.75635e-05
8.28477e-05
-0.00015496
-3.6849e-06
0.000128095
9.02102e-06
-0.000137116
-1.72579e-05
2.07488e-05
-8.56407e-05
0.00062772
4.92357e-05
-6.756e-05
-0.000517452
-4.20273e-05
-2.61069e-05
-9.45575e-05
-0.00116412
0.00118144
-9.12308e-05
-6.60026e-06
-8.56914e-05
0.000632019
-0.000184114
-0.000523348
1.687e-05
0.000654514
-2.13431e-05
0.000277757
-7.62355e-05
9.09067e-05
-0.000292428
0.000226781
-0.000586223
-0.00026701
0.000453223
0.000305193
-0.000612198
-0.000146218
-9.6284e-05
0.000187755
0.000124277
0.000282594
-0.000277431
0.000453275
-0.000458438
4.06001e-05
2.56303e-05
-3.02336e-05
-3.59969e-05
-0.000616279
0.000541635
-0.00107119
0.00109519
-0.000118557
-0.000592901
0.000722044
-0.00053196
-0.000177427
0.000169572
-0.00041007
3.31551e-05
0.000682108
-0.000484839
6.20794e-05
0.000649541
-3.51416e-05
-0.000179836
0.000294158
-7.91796e-05
-1.47556e-05
1.35209e-05
0.000617309
3.80414e-07
-0.000593025
0.000601793
0.000366734
-0.000121842
0.00030133
-1.2683e-05
-0.00060001
3.59764e-05
-0.000763177
-0.000223836
0.000841904
0.000145109
0.000626769
0.000138105
-0.000137154
-1.28506e-05
-0.000364897
-0.000139704
-0.000120246
0.000395945
0.000322882
-0.000129696
0.000102902
0.000208163
-0.000181369
-6.16114e-05
7.593e-05
-4.67887e-05
-0.000174187
0.000345119
0.000180907
-0.00035184
0.000100365
-8.4905e-05
-0.000340028
0.000506224
-0.000179046
-9.08601e-05
-0.00011638
-0.00010062
8.33241e-05
0.000133676
-0.000363691
0.000207938
-0.000281295
0.000845102
0.000320286
-0.000533179
-0.000399305
-4.1789e-05
-9.08028e-05
3.7702e-05
-4.43217e-05
-0.000365554
0.00121949
-0.00082956
-4.87148e-05
2.18692e-05
9.48442e-05
-1.79909e-05
1.5031e-05
3.87122e-05
-0.00119005
2.84064e-06
0.00093605
0.000251162
-5.14444e-05
3.52946e-05
-3.2565e-05
-0.000180971
0.00111896
0.000157197
-0.000615528
0.000775141
-0.000444869
0.000285257
1.17893e-05
0.000289213
0.000153491
-8.42173e-05
-0.000358486
9.09455e-05
-0.000393708
-9.50134e-05
0.00012323
-1.54902e-05
-2.32284e-05
5.92285e-05
-0.000355222
-0.000604347
-0.000574777
0.000441049
-0.00049052
-0.000597494
0.000646965
-4.8835e-05
0.000166173
0.000476244
0.00011244
-0.000790445
-5.98114e-05
-0.000135595
0.000194321
9.36371e-05
0.000606111
0.000182602
-0.000161944
-0.000174862
-0.000151313
-0.000128101
0.000128009
-0.000129603
0.00122664
-0.000312246
-4.01143e-05
0.000529871
0.00149811
-0.000190038
-8.14341e-05
-0.000671853
-0.000107515
-1.80165e-06
0.00078117
-0.0004103
0.000410681
-0.000521048
0.000659153
-0.00031874
0.000376232
-0.000318761
-0.000266499
0.000333213
-0.000592473
0.000525759
-2.38483e-07
0.000400586
0.000292838
-0.000162564
-4.69513e-05
-8.33231e-05
0.000116903
-9.14452e-05
-8.71831e-05
6.17248e-05
-0.000266893
0.000567143
-0.000463505
-0.00100632
0.000105316
-0.000289044
-0.000409741
6.75993e-05
-8.66705e-05
0.00117982
-0.00116075
0.000205923
-0.000139276
-0.000286152
-1.60564e-05
-0.000618063
0.000573332
-0.000649562
0.000694293
-4.42592e-06
-0.000481754
2.95183e-05
-0.000268603
-3.87631e-05
0.000277848
2.44937e-05
-0.000776343
2.96636e-05
-0.000585952
0.000283215
-0.000601288
5.34456e-05
-0.000516736
2.46921e-05
-0.00015767
4.17473e-05
-0.000406243
-4.05728e-06
0.000249726
0.000275914
-0.000263671
5.17481e-05
-4.79221e-05
-3.82599e-06
0.0001093
-0.000156247
-0.000127916
-0.000223428
0.000257198
-4.64489e-05
1.26789e-05
-0.000245777
-0.000521648
0.00013338
0.000634044
-5.63791e-05
4.55349e-05
-0.000430129
-0.000625858
0.000447974
0.000351792
0.000916977
-0.000308682
0.000153367
-0.00072258
0.000794658
0.000123195
-2.02365e-05
0.000101076
6.40745e-06
-0.000127559
7.87237e-05
0.000672159
-0.000665472
0.000639941
-0.000596397
0.000235515
-0.000347721
-0.000499025
0.000231605
7.73851e-05
3.53131e-05
-8.57724e-05
9.6175e-05
-4.57158e-05
-0.000623865
0.000581436
0.000749402
-0.000706973
0.000289224
-0.000338674
-0.000380679
0.00017714
4.86032e-05
-9.15788e-05
4.16129e-05
-2.39708e-05
0.000247243
2.96613e-06
-0.000220691
-0.000543716
0.000279661
0.000442035
-0.000177979
-6.95771e-05
1.58225e-05
7.91529e-05
0.000708488
-0.000659911
-0.000683783
0.000635206
0.000330619
-0.000347178
7.7726e-05
-6.11673e-05
0.000109472
-3.229e-05
1.76624e-05
0.000408756
-0.000450784
8.13503e-05
-7.87743e-05
-6.83139e-05
0.00070863
-0.000643669
-0.000683024
-2.45831e-05
1.92268e-05
5.18848e-05
-4.65286e-05
-5.27624e-05
-2.43392e-05
-0.000229748
1.71087e-05
-0.000717924
0.000502664
0.000644492
-0.000429232
-0.000245936
-0.0006741
-0.00065754
0.000410282
-0.000296458
1.4242e-05
5.9472e-06
-0.000204188
-3.15068e-05
-0.000192752
0.000313564
-0.000727405
0.000606594
-0.000267258
0.00103237
-0.000166285
-0.000558092
0.000421561
0.000808691
-0.000782057
0.000510355
0.000667647
-8.92783e-05
-0.00020131
0.000759611
-0.000526544
0.00126505
-0.000226277
-0.000689056
3.27628e-05
0.000258752
-4.96121e-05
-0.000241903
7.44828e-05
-4.57198e-05
0.000752882
-0.000781645
8.96372e-06
0.000160172
-4.74189e-05
-0.000121717
0.000335272
-1.09331e-05
-7.70964e-05
0.0004976
0.000247125
-0.000489222
-0.000255503
-0.00022095
0.000249668
-1.97535e-05
0.000212832
-0.000168295
-6.86424e-05
2.41051e-05
0.000353217
-2.51476e-05
0.000982584
-0.00131065
3.87091e-05
-7.38507e-05
0.000108281
-0.00133734
0.00120256
-2.38821e-06
4.85101e-06
6.41592e-05
-0.000124107
-0.000123585
8.99317e-05
-0.000746385
0.0011353
0.000122816
-0.000511735
-0.000621403
0.000638133
-0.000559114
0.000432647
0.000127307
-0.000640392
0.000572742
-4.72105e-05
-0.000626651
0.000652905
0.000842175
-0.000861619
-0.000131645
-0.000114842
4.06881e-05
-0.00058226
9.70694e-05
0.00111631
-0.000631117
-0.00032444
-0.000152516
0.000302769
0.000915816
0.000221874
0.000901843
-0.000890687
-0.000129714
0.000272302
-3.82892e-05
8.33634e-05
-0.000100036
5.49615e-05
6.74202e-05
-4.0558e-05
-8.35127e-05
5.66505e-05
-0.000213439
0.000934311
0.000295767
-0.000211914
-0.000409256
-0.000641834
0.00047941
-4.43643e-05
0.000125356
7.30875e-05
-0.000154079
1.5389e-06
-0.000937852
-0.000727031
7.30557e-05
0.000676977
-7.61099e-05
-0.000673923
0.000435185
0.000160272
-0.00016602
-0.000429437
0.000592234
9.93617e-08
-0.000398135
-0.000194199
0.000771332
-0.000892599
-9.60758e-06
-0.000352209
-0.000164176
0.000191944
9.55583e-05
-7.48428e-05
-0.000387656
5.87886e-05
3.13679e-05
0.000297499
-0.000513374
7.70107e-05
4.87079e-05
-6.52077e-05
4.74628e-05
-3.86342e-05
0.000858263
-0.000329058
-0.000172947
-0.000681389
0.000495185
-0.000132225
0.000318428
-0.000404315
-0.000110258
-0.000166815
-0.000621776
0.000686595
0.000229551
-0.000716124
-0.000240081
0.000726655
0.000606724
-0.0005987
0.000239101
3.60666e-05
0.00088259
-0.00060162
0.000572014
-3.17248e-05
0.000831456
0.000136319
-1.38658e-05
6.19915e-05
2.03416e-05
-6.84673e-05
0.000491278
-6.96965e-05
-5.71522e-05
-0.000364429
-0.000755809
6.31113e-05
-8.19072e-06
-8.72808e-06
1.69188e-05
-7.4964e-05
4.94621e-05
0.000507623
3.2076e-06
-1.95527e-05
0.00067179
-0.000413854
2.17244e-05
0.000479551
1.85104e-05
9.56101e-06
-0.000125931
7.66345e-05
-8.32414e-05
0.000132538
1.30588e-05
0.000652231
5.99627e-05
5.99804e-05
-7.83302e-05
0.000487823
0.0001507
-0.000468972
-0.000169551
-5.2555e-05
0.00021817
-0.000958679
0.00045645
2.82375e-06
2.02776e-05
-0.000127061
0.00060371
0.000233396
-0.000145889
-0.000216082
2.8911e-05
0.000282923
0.000211998
-0.000213397
-2.31446e-05
3.81841e-05
0.00044141
8.93924e-05
-7.85455e-05
-0.000142492
-0.000116352
-0.000124385
0.000161935
0.000174218
0.000294989
-0.000335135
1.42953e-05
4.2336e-05
7.71825e-06
-0.000214571
-0.00120344
0.000154203
-0.000192642
0.000314779
6.57991e-05
-0.000187937
0.000324341
-0.00028909
0.000202783
-0.000238034
0.000452078
-0.000320379
0.000183176
-8.07967e-05
0.000269808
0.000210837
0.000266557
-2.53163e-05
-0.000356717
0.000437371
-0.000311415
0.000230761
0.000168899
-9.56404e-05
0.000424034
-0.000296218
-3.21755e-05
0.000378081
-3.63509e-05
-4.53873e-05
-3.07073e-05
0.000500129
1.50986e-05
-0.000308675
0.00017246
0.000121117
0.00106701
0.000528087
-0.000304338
-0.00129076
-3.58279e-06
0.000268349
-1.63273e-05
0.000172916
8.04786e-05
-6.79347e-05
-2.16211e-05
-4.40043e-05
-4.27615e-06
1.99262e-05
2.83543e-05
6.87549e-05
-1.65842e-05
0.000219077
-0.000210215
-0.000267258
0.000258397
-7.32579e-05
5.95982e-05
6.89749e-05
-5.53152e-05
-0.000101329
-8.34161e-05
0.000111487
-3.94652e-05
-3.35501e-05
4.75234e-05
2.54919e-05
-9.21365e-05
9.36231e-05
2.52642e-05
-2.67508e-05
-4.50023e-05
-0.0001152
1.70297e-05
3.15868e-05
9.64117e-05
-6.09699e-05
5.55369e-05
3.04484e-06
-0.000982157
3.55246e-05
0.000917001
2.96312e-05
2.05753e-05
-2.59561e-05
-3.96215e-05
-3.84023e-05
-0.000131419
2.95505e-05
3.18457e-05
-3.32174e-05
-1.10987e-05
5.86655e-05
-4.61842e-05
-1.38252e-06
-0.00105651
0.000109114
3.00023e-05
-0.000101217
0.000102801
-4.46456e-05
-7.58321e-05
6.40807e-05
-3.0378e-05
-4.48014e-05
-0.000290494
-0.000131356
-0.00116991
0.000204342
6.12586e-05
-3.66431e-05
-0.000328456
-0.000721521
7.3998e-05
-8.28111e-05
-1.51915e-05
5.55401e-05
-0.000227726
-0.000156706
5.7932e-05
-2.67606e-05
-7.68667e-05
4.56954e-05
-0.00132306
0.000274091
0.000831441
-0.000649542
0.000885114
4.23818e-06
-8.26181e-05
2.12025e-05
1.75232e-05
-1.89946e-05
-9.34054e-06
-1.65567e-05
6.5683e-05
3.57791e-05
1.2454e-05
2.08949e-05
1.87636e-05
-8.17791e-06
-0.000932305
0.000440684
-8.76437e-05
5.24689e-05
-2.44994e-05
0.000107639
-7.60852e-05
4.58933e-05
0.000111948
-0.000145387
-0.000159938
-4.05305e-05
2.31481e-05
1.7168e-06
-9.8026e-05
-5.96409e-06
1.05151e-05
3.37418e-06
-7.92519e-06
-0.000750518
5.4189e-05
-5.16199e-05
-9.02128e-05
-2.9271e-05
-6.59231e-05
-7.94508e-06
2.81216e-06
-2.50282e-06
7.63575e-06
0.000126885
-0.000201367
6.86292e-05
5.85222e-06
-1.08948e-05
4.21902e-05
-7.99438e-05
4.03347e-05
-5.53104e-05
-0.00122075
0.00016589
6.94032e-05
3.0077e-05
-4.52912e-05
0.000115457
0.000286251
-0.00016203
2.83888e-05
-2.39471e-05
4.4215e-05
-4.86567e-05
1.51703e-05
9.5332e-05
-6.22522e-05
0.000302807
6.97815e-05
3.60687e-05
-7.67984e-06
-0.00033207
-0.00087604
-1.26365e-05
-0.00118735
-0.000468969
0.000112054
-2.27567e-05
-1.08382e-06
0.000122956
5.44956e-05
-3.82843e-05
0.00020652
9.40319e-05
-0.000185094
2.45057e-05
-1.72805e-05
0.000155809
5.94532e-05
-4.10439e-05
-1.89667e-05
-3.29504e-06
-4.07711e-05
7.68398e-05
4.03114e-05
7.83001e-05
-6.02656e-05
-4.45259e-06
-1.12035e-05
3.85214e-05
-0.000110015
0.000149444
-0.000759805
-0.000259611
0.000350064
-0.000213266
0.000115403
-0.000271357
0.000191563
3.95524e-05
-8.0666e-05
-1.33492e-05
9.74776e-05
8.21838e-05
-7.94328e-05
4.27838e-05
-0.00142437
-0.000211475
0.000374228
2.55279e-06
-5.14361e-05
4.27842e-06
-1.30065e-05
-0.000154769
9.46694e-05
-0.000161044
-0.000118729
0.000185104
0.00016146
-0.000168862
-4.36888e-05
1.07284e-05
-7.70546e-05
0.00050833
-0.000407982
-0.000620389
0.000520041
-1.2122e-05
8.12736e-05
6.10008e-05
0.000675583
-0.0006011
-2.04749e-05
0.000105034
1.29185e-05
-7.31599e-05
0.000207389
-0.00042867
0.000508192
-0.000149218
-1.79551e-05
-3.26753e-05
5.06304e-05
-7.74443e-07
0.00071276
-0.000675919
5.82236e-05
0.000151849
-0.000388917
0.000403811
4.72628e-05
-0.000296451
0.000268782
-0.000745936
0.000873967
-0.000128031
0.000183297
-0.000116782
-0.000596621
5.78596e-05
-0.000263707
0.000802468
-0.000353758
0.000301688
-0.000261691
0.000313762
-2.56349e-05
2.89297e-05
0.000821936
0.000394706
-0.000428124
0.000485479
-0.00045206
2.7143e-06
-2.52121e-05
-8.98463e-06
9.05997e-05
-0.000234909
8.24527e-05
3.50257e-05
-4.62982e-05
6.48782e-05
-7.03534e-05
-0.000752883
0.00059717
-0.000238953
-0.0001678
-0.000474208
-0.0013096
-0.00030481
0.000766544
0.000205255
7.20082e-06
-0.000179703
0.000205265
-0.000521226
0.000679973
-5.33244e-06
-0.000148652
0.000161185
0.000209684
-2.62011e-05
-5.58588e-05
-0.00010915
0.000118711
0.000191195
-0.000687604
3.91219e-05
0.000457287
-0.000384268
0.000349317
1.18062e-05
-0.00083804
0.000371381
0.000780223
-1.21209e-05
0.000359495
0.000122577
5.86025e-05
-0.000110695
0.000109398
1.29697e-06
0.000742483
7.95285e-05
-8.204e-05
4.20639e-05
4.24419e-05
0.000448606
-0.000491048
4.87455e-05
0.00028835
-0.000373447
0.000167346
-0.00027326
-0.000405492
2.40483e-05
0.000263768
-0.000270863
-0.000830945
-0.000490927
0.000673736
-0.000442419
0.000588572
0.000125804
-0.000563676
0.00020187
0.000594234
-0.000611629
0.000721294
-0.000241177
8.27441e-05
-9.34588e-05
-0.000116027
-7.95109e-05
0.000140217
0.000130857
0.000196491
-0.000203604
0.000508788
-0.000509562
-0.000321466
-0.000466481
0.000219991
0.000337397
-0.000570087
-0.000240638
0.000277546
-0.000483159
0.000287254
-0.0002754
0.000471306
-0.000121788
8.97008e-05
0.000181531
0.000242859
0.000403407
-0.00021108
0.00113773
0.000158094
0.000489779
-0.000522835
7.12404e-05
6.1196e-05
0.00075723
-0.000744979
-0.000183447
0.000171195
0.000627255
0.000212255
-0.000429229
-0.00115086
0.00106676
0.000241038
-0.000690992
-1.91117e-05
0.000174861
-0.000147865
-7.88438e-06
4.84263e-05
4.75586e-05
-4.9519e-06
-0.000112042
-3.16582e-05
-0.000332983
0.000198497
-0.000378889
3.51283e-05
0.000241101
-0.000541073
0.000596574
0.000702932
-0.000704002
0.000649794
-0.000648724
0.000144724
0.00110923
-0.000941014
2.62043e-06
-6.6919e-06
8.47591e-05
7.11416e-05
-8.84806e-05
0.000645554
-0.0001481
4.69328e-05
0.000136064
-0.000274541
-0.000218903
7.70539e-06
0.000101692
-0.000461451
0.000536724
-0.000408257
-0.000116234
-6.84208e-05
-0.000105252
0.00078778
-0.000381797
-0.00054542
0.000444057
-7.62818e-05
0.000118959
-0.00013188
0.000132094
0.000220724
-9.56196e-05
0.000209959
1.95338e-05
8.19315e-05
-5.33315e-05
0.000330895
0.000107533
0.00023759
4.19442e-06
0.000107748
0.00067257
0.000666948
-0.000798881
-0.000103513
-0.000358392
-0.000560766
0.000530241
-0.000212923
9.692e-05
0.000679379
-0.000636359
0.000400438
9.69011e-05
-8.07788e-05
-6.29109e-05
-4.56053e-05
5.18563e-05
0.000483528
-1.73846e-05
0.000526172
-9.61825e-05
-0.00056853
5.32901e-05
-0.000194417
-0.00039334
-0.000242842
-9.75882e-05
-6.02184e-05
0.000913647
-7.07302e-05
-0.000591755
0.000456122
-7.51568e-06
0.00050076
0.00054975
2.73176e-05
-0.000137812
-0.000970991
-0.000275487
0.00035105
-0.000468112
-3.29517e-05
2.31008e-05
-5.47702e-05
8.69731e-05
0.000274439
9.26002e-05
-0.000116539
-0.000179022
-1.10104e-05
0.000229821
0.000503338
8.19535e-05
0.000244203
0.0009915
-0.000937867
0.00063992
-7.30947e-05
4.04573e-07
9.71838e-06
7.32011e-05
0.00107831
-8.6807e-05
-4.28429e-05
0.000641193
0.00022682
-0.000142241
0.000116009
-0.000255393
-0.000202353
-0.000404384
-0.000869924
-6.79429e-05
-3.0586e-05
2.38772e-05
2.32486e-05
-1.65398e-05
-0.000163731
0.000197611
1.56249e-05
-4.95043e-05
6.19906e-05
0.000169629
-0.000595433
-3.6812e-05
0.000186515
-4.78716e-05
8.12832e-05
-3.34116e-05
-0.000257399
6.65253e-05
0.000201602
0.000239088
0.000274928
0.000724305
-2.18379e-05
-2.60337e-05
1.27831e-05
1.6048e-06
-1.43879e-05
-0.000311357
-0.00028207
0.000351499
-6.94293e-05
-0.000139713
0.00026088
2.20857e-05
-9.30258e-06
0.00110117
0.00021984
-0.000166222
-5.36175e-05
-6.82153e-05
-0.000516804
4.52816e-05
-0.000432264
-2.02331e-05
-4.38954e-05
0.000570068
-9.83606e-05
0.00117667
-7.72522e-06
0.000463847
-6.22301e-05
0.000179941
-0.000151824
0.000274652
9.06879e-05
-7.70945e-05
-0.000660782
0.000647189
-0.000383845
-0.000157128
-0.000106712
-0.000641414
-7.76495e-05
-0.00066033
0.000188002
0.000599635
8.14482e-05
-0.000118943
0.000698428
-0.000317633
9.56872e-05
-0.000116079
-0.000107709
-0.000503163
-0.000470159
1.61141e-05
1.54339e-06
-0.000661815
-2.34498e-05
0.000593397
0.00032856
-0.00033289
-4.43234e-05
2.99198e-05
-3.35186e-05
4.04334e-05
-0.000144888
0.000186408
-0.000412576
-0.000110066
-0.000132276
9.64524e-05
-3.19109e-05
-0.000342271
0.000387937
0.000123907
0.000154706
-8.1687e-05
0.000117745
7.99749e-05
-7.49989e-05
6.15493e-05
0.000288406
1.18351e-05
-6.11522e-05
0.000772524
-9.2114e-05
0.000434016
-0.000802325
2.30931e-05
8.12288e-05
-0.000455684
0.000433605
-0.000360419
-1.09214e-05
0.000544944
-0.000256738
0.000273632
4.89055e-05
-0.000968617
0.000177364
-1.7545e-05
-0.000294456
0.000264328
-0.000127759
-1.9215e-06
0.000627131
-3.80731e-05
8.99843e-05
-2.51639e-05
3.55875e-05
9.46104e-05
-0.00011147
0.000117855
-8.01357e-05
4.73867e-05
-3.04796e-05
0.000312429
-5.82991e-05
0.000677705
0.00025341
-0.000780139
5.82961e-05
8.36506e-05
-7.31918e-05
-0.000693707
-0.000120401
-0.000159267
-0.000226574
0.000227047
0.000127366
-0.000137475
0.000309341
9.48869e-05
-9.68396e-07
4.42994e-05
-0.000101984
2.96625e-05
4.46884e-05
-0.000547246
-0.000122114
5.35417e-05
-5.89991e-05
0.000799815
0.000940309
8.56247e-05
0.000738971
-7.74455e-05
-1.45999e-05
-2.8967e-05
3.44509e-05
-5.48395e-06
-0.000170158
0.000180829
-0.000704139
0.000649931
0.00062754
7.59543e-05
-0.000132573
-0.000404614
-1.15933e-05
0.000319657
2.06846e-06
0.000121717
-0.00126863
-0.000691375
0.000892709
-0.000419334
0.000502161
2.0676e-05
-0.000635178
-0.000391261
0.000259043
-0.000204529
-0.000463347
-0.000396837
9.34797e-05
-6.88125e-06
2.68315e-05
0.000114608
-0.000118347
-0.000370736
0.000147342
-0.000298254
0.000114163
-0.000102865
3.14863e-05
0.000206899
2.9708e-05
5.08045e-06
4.97838e-05
6.42971e-05
-0.000241892
6.90848e-05
0.000103195
-0.000672524
-0.000225311
0.000594556
7.95491e-05
0.000688116
-7.67529e-06
-0.000256306
0.000641239
-0.000598372
5.35069e-06
6.64018e-06
-0.000241236
0.000146168
-0.00115634
9.25933e-05
-9.35338e-05
-0.000748151
0.000204357
0.000637328
-3.60434e-05
0.000895481
-0.000194738
0.000173697
0.000229429
-0.000566103
0.000122881
-0.00053181
0.000478846
-5.45512e-05
-0.000200693
-0.000290995
0.0004223
-4.45059e-05
-0.000435008
5.03173e-05
0.000590331
1.41584e-05
-1.84646e-05
-0.000118345
-5.88028e-05
4.41677e-05
0.000267756
0.000514154
-8.01382e-05
-0.000689866
-0.000112459
4.03797e-05
0.000322708
-0.000107496
0.000340448
0.000459055
4.26149e-05
-0.000180236
-0.000451099
0.000310956
7.9136e-05
0.000121998
8.95999e-05
-0.000343354
1.27679e-05
-1.37791e-05
5.76685e-06
-1.86613e-05
0.000431354
-0.000577312
-7.93532e-05
0.000309487
1.37835e-05
-3.13409e-05
-0.000612747
-2.84184e-05
0.000605122
-2.70694e-05
0.000196965
-0.000914122
0.00104127
-6.35899e-05
0.0001223
2.29119e-05
-5.92316e-05
0.000145609
-0.000175672
-2.79148e-05
0.000171374
1.89791e-05
1.47254e-05
5.3938e-05
2.57507e-05
-0.000284351
0.000189037
-0.000173775
0.000269089
-0.000117121
0.000111115
-6.37792e-06
2.60807e-05
-0.000393028
-0.000424852
-0.000472584
0.000613085
-0.000157581
-0.000270415
-8.40919e-05
0.000637295
4.5347e-05
-0.00059855
-0.000113874
-0.000160283
0.000157318
0.000116839
0.000118046
-1.83749e-05
-3.34834e-05
-0.00061395
0.000581544
-0.000177319
-0.000384368
0.000460312
-0.000580571
-0.000532337
0.000404848
0.00014269
-7.815e-05
-0.000400183
0.000131225
-0.000174964
5.99084e-05
-5.1806e-05
0.000655692
-6.26197e-05
-0.000674272
-0.000544066
-0.00027673
0.000810885
0.000151362
-0.000441453
-2.49154e-05
7.91599e-05
-0.000338208
-0.000302466
0.000525961
-0.000363455
0.000244095
0.000793408
-0.000676787
-0.00011662
-0.000413542
0.000425017
-1.14747e-05
-0.000380387
0.000350723
-0.000334831
-1.58919e-05
0.000905847
0.000412334
-0.000351471
0.00035585
-4.37868e-06
0.000393491
4.202e-05
0.000409636
-5.37858e-05
-0.000614708
0.00101454
0.0004589
0.000590214
-0.000558476
-3.17382e-05
0.000472421
0.000390701
0.00037415
1.65512e-05
0.000469563
2.85834e-06
0.00036836
5.78971e-06
0.000385248
-1.68881e-05
0.000404967
-2.74864e-05
0.000920423
0.000386002
-1.18814e-05
-5.21039e-06
5.08505e-05
-0.000173519
4.56786e-05
-2.67993e-05
-9.23033e-05
0.000813339
-0.000135565
-5.44602e-05
0.00014826
0.000478943
6.39305e-06
0.000644711
8.42269e-05
0.000116595
-0.000122053
0.000217448
1.26268e-05
9.73015e-05
7.01269e-05
0.000634722
-0.000633103
-3.59465e-05
0.000406739
0.00033324
-0.000107859
-4.55496e-06
2.03595e-06
-8.01104e-05
-5.53696e-05
-0.000265335
0.000410047
0.000822461
-0.000339691
0.000179795
-0.000132154
-2.40494e-05
-3.79134e-05
-0.000122974
0.000885009
-0.00115574
9.32468e-05
0.000254262
-0.000148722
0.000892071
2.01247e-05
0.000243906
-0.0011561
-3.68559e-05
-8.24053e-05
-3.96836e-05
-8.28853e-05
-4.82564e-05
7.86159e-05
0.0002927
-0.000494762
6.14787e-05
-9.21565e-05
4.59035e-05
5.53649e-06
0.000195026
0.000109914
-0.000235965
0.000115331
-7.59129e-05
-6.53744e-05
3.71676e-05
7.4623e-05
-0.00047539
-8.39432e-05
0.000427109
-0.000361766
0.000393982
-0.000260366
-8.95948e-05
-0.000223125
-6.52272e-06
2.95758e-05
0.000157885
-7.76377e-05
-2.74803e-05
-0.000392076
0.000394628
5.86779e-05
-0.000123763
-1.34607e-05
3.554e-05
-4.0095e-05
0.000267517
-0.000630155
3.9156e-06
-0.000545142
0.000100225
0.000302193
-0.000431832
-5.81938e-05
-5.65696e-05
7.38539e-05
0.000203759
-0.000218927
-8.52561e-05
-0.00057696
3.92744e-05
-0.000155078
0.000658774
1.81661e-05
3.56163e-05
-0.000160487
0.000680604
-0.000296708
0.0001783
1.02694e-05
7.86321e-05
-2.115e-05
0.000120516
4.19603e-05
-0.000243548
1.03499e-05
-0.000100917
0.00013519
-6.33812e-05
-6.38188e-05
-0.000272957
8.62931e-05
-8.18534e-05
8.52611e-05
-0.000567265
-0.000101768
0.000221625
2.45846e-05
0.000152701
-0.000227248
-0.000186037
0.00081397
1.86539e-05
0.000106224
0.000161572
-3.22713e-05
-3.81657e-05
-0.000173184
0.00040567
-0.000376399
-0.000131466
0.000427216
-0.000194674
5.71841e-05
0.000124334
-8.65192e-05
-0.000129702
0.000454554
-0.000490872
0.00022104
-0.00127646