/*--------------------------------*- C++ -*----------------------------------*\
| =========                 |                                                 |
| \\      /  F ield         | OpenFOAM: The Open Source CFD Toolbox           |
|  \\    /   O peration     | Version:  v1912                                 |
|   \\  /    A nd           | Website:  www.openfoam.com                      |
|    \\/     M anipulation  |                                                 |
\*---------------------------------------------------------------------------*/
FoamFile
{
    version     2.0;
    format      ascii;
    class       volVectorField;
    location    "0.68";
    object      U;
}
// * * * * * * * * * * * * * * * * * * * * * * * * * * * * * * * * * * * * * //

dimensions      [0 1 -1 0 0 0 0];


internalField   nonuniform List<vector> 
1431
(
(0.0174308 -0.507918 -3.38235e-17)
(0.0227883 -1.01532 -1.38829e-16)
(6.06887 0.912721 9.96817e-17)
(-2.94764 1.83086 -4.78794e-17)
(-0.120555 -0.23967 -1.83769e-16)
(1.74356 -0.0321583 3.18622e-16)
(-1.54671 0.350283 -1.97691e-16)
(9.78681 0.605996 -2.2205e-16)
(-0.216913 3.87126 0)
(-0.529314 3.61523 -1.02117e-16)
(0.623283 3.01349 0)
(0.704135 -0.292881 7.0446e-17)
(-0.758202 0.549894 0)
(9.11937 0.487844 1.94753e-18)
(0.269947 0.613193 -2.59715e-16)
(-0.155242 3.80023 0)
(0.419046 2.04566 -3.28457e-16)
(1.97746 0.515729 0)
(0.873246 -0.200354 1.33292e-16)
(0.788628 2.87509 3.72064e-17)
(0.0466877 -0.579967 -2.17133e-17)
(-0.600916 2.52705 2.43687e-19)
(0.919721 0.458281 -5.36014e-17)
(8.8347 0.537991 -3.15219e-17)
(1.67926 3.18658 -1.28991e-16)
(0.854336 2.49985 -1.06896e-16)
(-1.55233 4.65945 1.20519e-16)
(9.37358 0.438243 -2.34578e-20)
(10.8524 0.590821 6.24741e-18)
(1.37278 -0.494796 -5.09619e-16)
(7.68587 0.284575 2.39795e-16)
(7.29479 -0.183052 -1.7651e-16)
(-1.82487 0.409505 -1.17378e-16)
(-1.1092 0.228027 0)
(-1.43399 0.413512 1.02725e-16)
(2.09949 8.71097 1.26937e-16)
(0.288134 0.360731 1.36725e-16)
(9.76896 -0.0084178 0)
(0.569032 0.162608 -1.89456e-16)
(9.68654 -0.00441608 0)
(5.07544 0.121723 1.35373e-16)
(-0.163875 -0.129092 -8.21724e-17)
(-1.08772 0.428673 0)
(-1.43864 0.68223 -6.6476e-17)
(-1.01678 0.718155 1.56199e-16)
(0.0567095 -0.414989 -4.66944e-16)
(1.49239 4.6016 2.25186e-16)
(7.32199 1.17558 -5.84364e-17)
(9.04599 0.532388 1.61108e-16)
(9.53106 0.0898137 3.71889e-17)
(1.41786 -0.202525 -8.9294e-17)
(-0.448392 3.51157 1.06286e-16)
(-0.161287 5.0139 4.97448e-17)
(-0.774438 0.368328 -1.76832e-17)
(-1.24516 0.776004 -1.3233e-16)
(8.08793 1.70307 0)
(-0.289374 2.15094 7.2892e-17)
(-0.137024 3.8126 -2.35488e-16)
(-0.509451 6.23157 0)
(0.0592573 -0.540811 -8.58555e-16)
(0.689024 1.88253 0)
(1.25306 1.65435 -1.47479e-16)
(1.45957 7.5216 -1.42092e-16)
(10.5983 0.119515 0)
(10.0206 0.303524 -1.85888e-17)
(0.877933 -0.223258 0)
(6.61615 0.426199 0)
(1.78139 -0.0439758 0)
(0.344967 -0.938955 1.40372e-16)
(10.7833 0.0883271 0)
(-0.725335 0.269712 9.50554e-17)
(-0.72871 0.355997 -1.00671e-16)
(0.049656 0.774964 0)
(1.47078 0.0211949 -3.14061e-16)
(-0.0690848 1.56908 -8.28759e-21)
(-0.96124 0.322427 2.83921e-16)
(-0.0412254 -0.399393 6.22759e-17)
(3.96459 0.752413 3.16178e-16)
(10.0112 0.166496 1.32173e-17)
(0.923076 -3.0336 -2.21017e-17)
(9.95857 0.0972821 -2.5794e-16)
(1.48921 -0.245198 -2.21926e-18)
(0.225122 -0.123236 2.53366e-16)
(1.16939 0.320873 -8.79231e-17)
(-2.79218 1.41953 4.85192e-17)
(-0.136207 -0.417451 -6.19876e-16)
(-0.102263 -0.395325 -1.26487e-16)
(-0.645776 0.787501 1.84476e-16)
(8.47521 0.581323 9.47795e-17)
(1.15898 2.33727 -5.05059e-17)
(1.41728 0.876571 1.89829e-16)
(-1.08929 0.69205 2.81532e-16)
(-0.209471 -0.472567 0)
(9.83172 0.0329165 0)
(1.82402 -0.165217 2.1581e-18)
(0.0328739 -0.632285 -1.41275e-19)
(-0.100416 1.50095 -3.65119e-20)
(10.3909 0.538159 3.34702e-18)
(-0.017876 -0.392061 2.49381e-16)
(8.93058 0.496839 -4.54961e-16)
(0.209581 -0.60523 -1.5004e-16)
(9.93133 0.166664 -6.8289e-17)
(0.714613 0.299946 0)
(-0.013918 -0.161854 3.63111e-20)
(-0.815207 2.19691 1.87341e-16)
(-0.191989 0.00499589 9.24718e-17)
(10.0388 0.0656447 -1.07735e-16)
(4.74495 -0.0327134 7.75414e-17)
(6.92627 0.02628 9.74838e-17)
(-0.0269308 -0.363492 9.96853e-17)
(-0.796536 -2.51134 1.9339e-16)
(0.281203 -0.269157 -8.43689e-17)
(9.73313 0.829633 0)
(1.52804 1.93168 -1.42374e-16)
(-0.332306 2.40815 0)
(0.0172564 -0.127169 0)
(1.66641 0.592571 0)
(0.364732 -0.0950749 7.68786e-20)
(8.01917 0.599738 -6.51103e-17)
(-1.56317 0.661581 -1.5683e-16)
(9.96028 0.259901 -2.05767e-17)
(-0.206333 5.16704 -1.3935e-16)
(-0.386574 3.33726 -4.74673e-16)
(8.86939 0.824272 -1.20453e-16)
(10.1349 0.165979 0)
(-0.150285 0.284254 -1.13322e-16)
(7.48149 0.587665 1.71822e-17)
(0.0472513 0.928756 6.74758e-17)
(-0.10031 -0.460064 1.1571e-16)
(10.658 0.423509 -7.47639e-17)
(-0.0769069 -0.0939255 -1.6218e-16)
(4.19235 -0.150239 2.53572e-16)
(7.27806 0.279326 0)
(1.2003 0.979175 -1.70256e-16)
(-0.333867 -0.572549 -1.19758e-17)
(-1.88864 0.877972 -2.94075e-16)
(0.229977 0.885919 0)
(0.365374 -0.307949 1.39007e-16)
(0.460298 0.0686112 5.35343e-17)
(3.42664 -0.072115 -4.16381e-16)
(-0.118181 4.06285 0)
(-0.515333 -0.520409 3.50949e-17)
(10.5447 0.0570575 -7.78088e-18)
(8.99799 0.386178 -2.07591e-17)
(8.66688 0.168491 0)
(11.3972 0.281758 4.52905e-17)
(10.3746 0.359118 3.49013e-17)
(4.52364 -0.0600736 0)
(0.542695 1.20978 -1.21552e-16)
(9.40029 0.932375 -5.32933e-17)
(10.8819 0.0437262 8.10246e-17)
(9.93376 0.42221 -1.61075e-17)
(-0.252902 -1.31489 -1.75485e-16)
(0.633251 -0.295631 1.07108e-16)
(0.778091 0.784533 1.64328e-16)
(0.0343484 0.938804 -4.61979e-17)
(10.1022 0.109418 8.90647e-17)
(1.63813 1.61039 -3.54213e-16)
(9.62737 0.935627 0)
(9.53566 1.15814 -9.86591e-17)
(2.02698 0.254611 -1.4108e-19)
(0.823712 2.26683 3.55326e-17)
(0.384457 -0.0733432 0)
(-0.271204 1.28944 -4.24729e-17)
(0.0153906 -0.258373 -2.87834e-16)
(-1.00047 -0.29467 -1.96729e-16)
(-0.0344461 -0.464203 -1.4037e-16)
(9.88967 0.105793 0)
(1.39732 -0.320454 4.04981e-16)
(0.724546 0.533418 -1.75481e-16)
(9.75028 0.921496 -1.38641e-17)
(0.067749 2.59211 2.70331e-17)
(8.56621 0.559776 -1.17976e-16)
(11.0742 0.0504172 0)
(10.5287 0.0383162 1.4757e-17)
(0.0974524 -0.0501436 0)
(-0.0552826 0.253096 9.39592e-17)
(9.38936 0.603127 -1.8303e-17)
(1.20647 -0.672212 3.19751e-16)
(9.55235 1.09197 1.01218e-16)
(9.75725 0.295936 4.23837e-17)
(0.537114 0.629534 1.22594e-16)
(8.89391 1.70628 0)
(1.25577 1.91049 3.01398e-16)
(11.262 0.114631 9.89112e-17)
(9.92376 1.10137 -1.37891e-17)
(9.88631 0.695294 1.05182e-16)
(-2.80759 4.34815 -1.36101e-16)
(0.738726 1.87059 1.61544e-16)
(10.2869 0.104668 -2.60321e-20)
(0.775211 -1.665 -2.93329e-19)
(0.662727 2.09792 -1.24596e-16)
(0.00886925 -0.551803 -3.95483e-16)
(10.0829 0.0428749 -6.51314e-17)
(-0.226672 2.40389 5.15556e-21)
(10.1068 0.421683 4.08553e-17)
(10.0403 0.0865843 0)
(7.3605 2.09749 -1.08629e-16)
(0.565349 0.721839 0)
(0.341649 0.128228 0)
(0.0321377 -0.453292 -2.18102e-16)
(2.84745 2.57926 -2.86908e-16)
(9.40748 1.03661 -2.78262e-17)
(3.71782 0.128695 -4.71578e-16)
(10.0587 0.0525669 3.58044e-17)
(-2.48598 2.51243 -3.06647e-16)
(-0.0790409 -0.573647 1.06547e-15)
(9.80118 0.21062 2.54555e-17)
(0.105016 1.69755 1.53644e-17)
(9.29044 0.243115 0)
(10.1474 0.0666458 8.08004e-18)
(9.95786 0.333484 6.39603e-17)
(8.05543 0.668145 1.4066e-17)
(9.8765 0.193972 2.44656e-17)
(-0.19152 0.49795 0)
(-0.0434889 0.628881 3.94698e-16)
(9.51541 1.03224 0)
(0.862318 -1.70908 0)
(-0.208825 -0.729402 0)
(10.1263 0.232615 -6.39498e-17)
(9.89929 0.165436 0)
(0.134723 1.12245 1.51354e-16)
(11.1428 0.0294654 -1.30091e-16)
(4.52913 1.29823 -7.55002e-17)
(10.7295 0.35009 0)
(9.40842 0.908749 0)
(9.47643 0.944659 -7.40881e-17)
(1.2793 1.4514 0)
(10.5835 0.63555 0)
(7.7336 0.226505 -7.32787e-17)
(-0.134312 -0.333891 0)
(-2.33962 1.91795 3.52198e-16)
(10.6432 0.0879385 6.15442e-20)
(9.93087 0.484921 -1.91905e-16)
(9.81585 0.422791 8.82493e-17)
(9.84091 0.377018 4.96863e-17)
(10.5098 0.249648 -2.68311e-17)
(0.0400443 -0.407746 2.46794e-16)
(9.86915 0.10673 0)
(-0.541698 -0.233687 2.00656e-16)
(9.56509 0.188599 -3.25e-17)
(9.48413 1.1259 8.36314e-17)
(-0.125329 2.97356 -2.22055e-16)
(0.988552 4.28206 -2.99334e-16)
(-0.185246 1.02743 2.38941e-20)
(-0.370234 0.951307 5.25051e-20)
(10.5439 0.270892 -1.81141e-16)
(-1.9271 0.262482 0)
(-1.32135 0.0994721 0)
(10.0652 0.893712 0)
(10.1308 0.959398 -9.54159e-17)
(-0.159224 3.36502 0)
(-0.576189 3.41465 1.02524e-16)
(6.43533 3.18967 2.12869e-17)
(1.36621 5.41927 -1.66001e-16)
(8.20878 0.0501642 -4.53906e-17)
(1.14399 -0.0116283 1.86521e-17)
(-0.510828 -0.578361 4.79774e-19)
(8.35194 0.00339177 7.00362e-20)
(8.30162 0.0176236 8.80669e-17)
(8.17171 0.0673852 8.72473e-17)
(-0.496676 0.843429 3.07294e-17)
(0.0329976 -0.326958 5.13834e-16)
(-0.0429214 4.22051 -4.28487e-17)
(9.80103 0.311618 -7.76634e-17)
(10.6969 0.539403 6.86857e-18)
(8.23629 0.00945069 -8.16283e-17)
(9.95509 0.879158 0)
(8.50429 2.69893 2.82634e-17)
(-0.035385 3.35361 -1.39347e-17)
(9.85539 1.01671 0)
(9.20721 0.731004 3.08242e-16)
(10.2681 0.833553 2.77501e-17)
(10.3109 0.730524 0)
(8.12799 0.0766541 -5.39603e-17)
(10.0542 0.633312 1.11979e-18)
(1.11439 0.693298 -1.11284e-16)
(0.837664 -0.552822 7.80762e-20)
(0.841608 0.0227239 -4.05117e-17)
(-0.461497 3.7944 1.74282e-16)
(-0.32884 4.48495 0)
(-0.556741 0.110363 -4.16226e-17)
(-0.134105 -0.831205 0)
(1.56695 1.25599 2.569e-16)
(8.29624 -0.00738272 -4.46001e-17)
(-3.36831 3.21848 6.14339e-17)
(-0.195366 -0.41638 1.26442e-16)
(9.2275 1.16695 5.22536e-17)
(10.2872 0.826374 2.08143e-19)
(9.67971 0.175879 6.78426e-17)
(11.1723 0.43399 1.55027e-16)
(9.60056 0.00959473 -6.07942e-17)
(9.46384 1.02924 0)
(1.10315 -1.24047 0)
(10.0933 1.03647 -4.43359e-17)
(9.49297 1.34833 4.7646e-18)
(-0.0534824 -0.485351 0)
(9.1309 2.03117 1.57598e-18)
(-0.478834 -0.807476 -1.86061e-16)
(9.57484 1.14658 2.8486e-17)
(9.68148 0.348843 2.90069e-17)
(9.28445 0.820424 7.43319e-17)
(0.508561 0.268378 0)
(8.11857 0.14537 0)
(1.57702 1.59307 -2.06287e-16)
(-0.398921 -1.00668 1.60023e-16)
(9.94204 0.122162 8.22997e-17)
(8.25841 0.0319999 -8.90181e-17)
(8.31161 0.00901113 -8.56891e-17)
(-0.327129 -0.297523 1.91127e-16)
(9.68715 0.239443 -1.35634e-17)
(10.8178 0.206739 5.47794e-17)
(0.659812 -0.117212 -1.82203e-17)
(-0.241142 -0.482354 -1.93164e-17)
(-0.642773 0.27024 -4.5926e-19)
(-0.303134 -1.04893 -1.55624e-16)
(-0.409938 3.86947 -4.66649e-17)
(-0.514586 0.4071 -8.13154e-17)
(9.8422 0.321012 -4.6528e-17)
(-0.217502 -0.969006 -1.41437e-16)
(-0.463796 -0.723127 -2.54826e-16)
(-0.172273 -1.12084 2.23953e-16)
(-0.0827437 3.86608 3.03296e-20)
(-0.58781 0.0808527 -4.65961e-20)
(0.132998 1.03197 -1.44993e-16)
(-0.169757 -0.711113 -7.53903e-17)
(9.86785 0.0733074 1.76328e-16)
(0.0203771 -0.558117 -6.68069e-17)
(7.76726 0.472175 0)
(9.79146 0.171424 -6.82159e-17)
(0.273833 -0.327841 -1.05664e-16)
(0.148063 -0.56758 0)
(-0.429541 0.126395 0)
(0.912755 -1.52494 1.78121e-16)
(10.3086 0.113756 0)
(-0.0165778 1.68028 -1.26311e-16)
(1.31379 -0.307077 -5.99053e-17)
(-0.328823 -0.973856 0)
(1.3658 -0.156642 -1.72975e-17)
(-0.95735 0.1366 1.65033e-16)
(0.226845 -0.180851 0)
(9.84915 0.0888354 -7.95131e-17)
(-0.177147 -0.353895 7.76059e-17)
(10.07 0.208888 3.37302e-17)
(6.69115 3.51986 -2.63532e-16)
(-0.194734 -0.0638532 1.94768e-16)
(10.5269 0.238466 1.45908e-17)
(0.0820154 -0.079421 1.81262e-16)
(-0.376797 0.110323 -8.56378e-17)
(-0.90646 0.00853099 -7.47429e-17)
(0.257225 0.0211137 -1.32767e-16)
(0.297339 0.00542432 -4.64782e-16)
(0.137332 -0.069118 0)
(1.5842 0.012287 -1.44149e-16)
(-0.344247 -0.0166757 0)
(0.191474 0.0422384 0)
(0.248568 0.0282512 0)
(-0.271398 0.0477151 -3.94709e-16)
(1.36028 0.132018 0)
(0.2829 0.133564 5.01114e-16)
(1.06925 -0.0530563 -1.84464e-17)
(-0.414115 0.0246393 1.41739e-16)
(1.46445 -0.0231888 2.25669e-18)
(-0.078155 -0.0246812 -9.59388e-17)
(-0.717189 0.117651 2.61287e-16)
(0.217148 -0.0543575 -1.76414e-16)
(1.2205 -0.0116986 0)
(-0.144607 0.111644 0)
(0.0477073 -0.268521 -2.66871e-17)
(0.400418 0.0047315 0)
(-0.0947992 -1.14712 5.1034e-16)
(-0.458972 -0.186792 1.34999e-16)
(-0.00203536 -1.04296 -1.27282e-16)
(10.0387 1.08863 5.15688e-17)
(1.17696 -1.23743 0)
(-0.843149 -1.68261 1.91424e-16)
(0.288323 -0.359305 1.00568e-16)
(9.8277 0.283513 3.15194e-17)
(10.0043 0.031789 8.25282e-17)
(1.11207 0.198506 5.87368e-16)
(0.230032 -0.0491262 2.90314e-17)
(0.298429 -0.0218579 4.14625e-17)
(-0.895704 0.0821216 -2.44147e-16)
(0.144231 0.0186266 0)
(-0.349417 0.0774648 1.34986e-16)
(1.32486 -0.0240606 0)
(0.116164 0.0919114 0)
(-0.275458 0.0230878 1.96559e-16)
(1.57077 0.0734369 1.35896e-16)
(-0.14728 0.0434683 1.72679e-16)
(-0.118475 -0.124516 0)
(2.5213 5.27943 1.77686e-16)
(9.76904 1.06083 -2.7964e-17)
(9.98774 0.000734959 0)
(0.044641 -0.878393 4.04668e-19)
(0.0444666 -0.238645 -1.8239e-16)
(-0.369898 -0.677403 -1.60273e-16)
(9.96281 0.188866 0)
(0.190079 0.446695 0)
(10.4631 0.0770032 0)
(0.453148 0.0434994 -6.15206e-17)
(0.181747 -0.482474 1.76845e-16)
(10.0241 0.206086 2.77122e-17)
(1.44839 -0.134743 3.10424e-17)
(0.0961021 -0.531547 1.21185e-17)
(10.0638 0.850006 0)
(-0.459935 0.346148 1.12649e-16)
(8.85213 0.0234206 1.65056e-16)
(-0.309593 -0.137516 -3.24419e-17)
(0.377401 -0.122836 -1.4978e-16)
(9.73339 0.0785871 6.49033e-17)
(0.0570359 -0.775683 0)
(0.506639 0.0841164 -3.24165e-21)
(2.24699 7.74692 -3.89671e-16)
(8.85282 0.235797 -2.19984e-17)
(1.78592 4.49897 6.61839e-17)
(0.209206 -0.579641 -1.53736e-16)
(-0.0606392 3.89617 1.876e-16)
(-0.522897 -0.00557086 -2.37404e-17)
(-0.348503 -0.459103 9.01021e-20)
(-0.560919 0.325627 4.58362e-17)
(0.50106 -1.03168 1.378e-16)
(-0.121381 0.769326 5.0458e-17)
(-0.0626818 -1.75181 -2.45568e-16)
(0.357283 -0.873888 0)
(0.232154 -0.571313 1.52817e-16)
(-0.00121838 -1.68094 4.12222e-17)
(0.314855 -0.888541 9.85394e-18)
(-0.254901 0.647394 -1.18072e-16)
(0.229409 -0.97625 -3.25721e-16)
(1.00749 0.678719 0)
(-0.0858417 -1.48804 -1.877e-16)
(-0.0127692 -0.742927 0)
(0.464813 -1.10506 2.25448e-16)
(-0.555513 0.353014 -9.22286e-18)
(0.260377 -0.723316 0)
(0.514186 -0.932868 -1.99587e-16)
(0.396885 -1.26701 2.35961e-18)
(0.0465621 -1.81337 5.12976e-16)
(-0.451737 0.198601 1.95907e-16)
(-0.754664 0.5246 -1.7027e-18)
(-0.0463124 2.91618 -4.02548e-17)
(0.502047 -1.3498 0)
(0.464146 -1.56386 4.41412e-17)
(-0.119732 -0.443804 0)
(0.475278 -0.396111 8.38959e-18)
(0.355131 0.0113642 -4.62307e-18)
(0.0234624 -1.52216 -1.1321e-16)
(0.596769 -1.08163 0)
(0.357713 -0.704053 1.47654e-16)
(0.437819 -0.806793 -9.43534e-17)
(0.0249103 0.127476 3.92351e-16)
(0.406745 -0.26802 -1.42716e-16)
(-0.209589 0.871897 -1.29424e-16)
(0.365049 -1.08973 7.34554e-17)
(-0.259969 0.770416 -1.8748e-16)
(0.0256168 -0.00210674 -2.86421e-16)
(0.146409 -0.374628 -6.1228e-18)
(-0.119098 0.39725 0)
(-0.551196 0.431933 0)
(2.86408 2.41358 2.78455e-16)
(0.644927 -1.32891 0)
(-0.0373874 0.27062 0)
(0.353541 0.521988 -2.35456e-16)
(-0.542016 0.35185 2.02663e-16)
(-0.474785 0.197233 -4.54078e-16)
(-0.18204 -0.00525369 -1.77337e-16)
(1.91075 3.22719 1.05802e-16)
(-0.0152638 0.569194 -2.51716e-16)
(-0.532016 0.139168 -5.85661e-16)
(1.86929 5.38381 1.60565e-16)
(1.39647 -0.302529 0)
(8.16518 0.096997 -1.53318e-17)
(1.07514 7.05872 -5.79324e-17)
(-0.351765 0.851959 3.2695e-16)
(-0.477998 -0.0266068 -1.95636e-16)
(2.53846 7.42201 -2.71194e-16)
(2.26769 7.97003 2.4814e-16)
(1.06845 3.99735 1.72703e-16)
(0.0766813 -0.519612 0)
(0.251947 -1.04308 -4.4656e-17)
(1.28976 -0.388085 0)
(0.694745 8.48424 -4.76855e-17)
(9.98441 0.363108 -1.83017e-17)
(8.84747 0.15237 -3.19532e-17)
(-0.658276 1.14151 -1.68715e-16)
(0.116067 0.831803 -1.522e-16)
(0.0423115 0.579968 1.23076e-16)
(0.251592 -0.842214 -9.39443e-17)
(0.209151 -0.647295 0)
(-0.00196082 -0.369002 -1.25292e-17)
(0.252289 -0.985882 0)
(-0.492378 -0.147918 2.41167e-17)
(2.21602 6.80932 5.72766e-17)
(0.100115 -0.668706 0)
(1.23375 -0.369415 0)
(-0.583901 3.85167 0)
(0.460198 -1.87637 3.73013e-17)
(9.93109 0.152122 -1.36683e-17)
(0.327829 -1.9199 0)
(0.0395572 0.900119 -5.78698e-19)
(-1.26132 5.57486 1.34776e-17)
(0.288806 -0.954832 -1.17585e-21)
(0.269381 -0.885593 0)
(0.197973 -1.18428 1.88295e-16)
(0.338496 -1.64921 0)
(-0.441806 -0.179684 9.08401e-21)
(-0.0307984 0.665558 -6.62736e-17)
(0.218687 -1.37172 -3.99558e-17)
(-0.0849657 2.92718 -7.75986e-17)
(-0.152857 2.75793 0)
(0.152991 -1.53009 3.24055e-17)
(9.71728 1.18747 0)
(-0.253155 -0.395179 4.38259e-17)
(10.5276 0.117474 -9.49052e-17)
(0.388539 -1.40272 0)
(1.57551 5.97952 -3.83475e-16)
(-0.791115 4.8845 7.75831e-18)
(0.195639 -1.21264 4.14906e-17)
(-0.350514 0.212683 0)
(0.603273 -1.74819 -1.55801e-20)
(0.0560601 -1.84284 -1.16293e-16)
(0.514747 -1.92614 5.66362e-17)
(-0.510395 -0.0709899 -1.73047e-16)
(0.833885 -0.336623 1.13194e-18)
(0.376097 -0.889779 0)
(-0.0881806 -0.71105 1.60281e-16)
(0.271216 -1.18229 0)
(0.185834 -1.91321 3.75059e-17)
(0.392729 -1.66393 -9.45125e-17)
(8.81259 0.188895 4.39939e-17)
(8.07796 0.166353 -1.27517e-16)
(0.139663 -1.86841 4.69011e-17)
(0.329807 -1.9526 -1.49135e-17)
(0.180658 -0.434813 1.88556e-17)
(0.285461 -1.1538 -3.70223e-17)
(0.205328 -0.505502 3.8057e-17)
(0.307575 -1.71787 0)
(0.533803 -0.615263 3.16145e-16)
(3.06756 3.99475 0)
(0.266606 -0.939155 -1.23335e-16)
(0.742891 2.40678 1.84397e-16)
(0.194332 -0.540951 1.61946e-16)
(-0.284465 1.28008 0)
(0.0893404 -0.120053 4.77225e-17)
(-0.0746109 1.20807 5.13766e-17)
(0.340677 -1.35937 2.3878e-17)
(9.81091 0.0998197 0)
(0.0879827 0.0681618 0)
(-0.435309 -0.270465 5.52006e-21)
(0.218326 -1.91027 -4.06361e-17)
(-0.0938096 -0.131437 2.3035e-16)
(8.22128 -0.0473966 4.31063e-17)
(0.286771 -0.875875 7.04317e-17)
(-0.426521 0.354943 3.36796e-17)
(-0.0254699 -0.62561 -5.89861e-17)
(0.140152 0.071449 -8.05042e-17)
(0.292753 -0.361926 -1.81181e-16)
(8.13514 -0.0431578 -5.01142e-19)
(9.33077 1.18328 4.65587e-17)
(0.491949 -0.687873 -3.1907e-16)
(0.0959776 -1.71029 0)
(-0.00149262 0.918229 0)
(0.947475 3.66383 6.93593e-16)
(-2.17881 0.443639 -1.19395e-16)
(-0.433109 -0.32952 -4.93252e-16)
(0.608861 -0.784351 0)
(9.72545 0.942899 1.31941e-16)
(1.03977 0.807702 0)
(0.201516 -1.31902 1.23248e-16)
(-0.565271 -0.0966348 -6.08235e-16)
(0.0922817 0.966455 1.64854e-16)
(1.94904 2.29141 0)
(0.00280783 1.09888 9.06334e-18)
(1.65163 6.74174 0)
(1.73345 1.53105 2.05918e-16)
(0.639054 -0.967137 1.10851e-16)
(1.26404 -1.00789 1.08453e-16)
(0.103535 -1.54241 -1.22641e-16)
(8.90126 2.36193 -2.91684e-17)
(1.24551 -0.282581 -4.52526e-18)
(9.81109 0.0792568 2.2347e-16)
(-0.10417 -0.705821 0)
(0.286207 -0.674547 -7.90289e-20)
(-0.322076 0.230443 -2.58828e-17)
(0.231131 -1.7266 0)
(-0.0358183 -0.689015 3.13863e-16)
(9.96554 0.981383 0)
(1.44193 -0.200132 4.464e-18)
(10.7939 0.444927 -3.31126e-18)
(-0.230874 1.59932 0)
(-0.0397115 3.27906 -9.47893e-17)
(10.0004 0.068644 -1.12443e-16)
(9.90526 1.22252 0)
(9.76528 1.51177 -5.20146e-18)
(0.170245 -1.70393 0)
(-0.303732 0.437469 -8.92738e-17)
(0.589068 -1.77561 -1.60517e-17)
(9.77138 0.848275 7.1463e-18)
(0.568728 -0.280756 -2.14045e-16)
(0.0748206 -0.613973 -2.10212e-16)
(-0.0727634 -0.782428 -3.55436e-16)
(-0.409901 -0.322459 -4.25853e-17)
(0.286467 -1.41366 -5.11339e-18)
(0.259423 -1.0097 5.73084e-19)
(0.117738 0.50557 -8.51247e-17)
(0.498885 1.98748 0)
(-0.340809 -0.373226 1.30234e-20)
(-0.0981152 1.77965 4.86975e-17)
(5.82305 1.227 -4.56332e-17)
(7.14094 2.37641 6.29744e-18)
(0.409765 -0.226749 -1.43681e-16)
(-0.360931 -0.545656 0)
(0.291993 -0.591041 -1.5243e-16)
(6.50461 1.74555 0)
(9.81994 0.73665 -1.32733e-17)
(-0.556544 5.87402 0)
(-0.241817 3.76239 4.37581e-17)
(0.206726 -0.45184 -1.00859e-16)
(0.146325 0.00742026 1.18765e-20)
(-0.361796 -0.437215 1.04412e-16)
(-0.473371 0.274901 0)
(2.00913 0.688213 2.81917e-16)
(-0.105327 -0.643975 -7.27387e-17)
(0.710129 -1.82884 4.60982e-20)
(6.73884 1.61781 -6.24936e-17)
(-0.418453 -0.573164 8.81804e-17)
(-0.230729 0.351156 9.16823e-17)
(0.42186 -0.546445 -1.3175e-17)
(9.81559 0.0537241 0)
(-0.0029277 1.60054 4.50372e-17)
(1.76428 0.461447 -9.5502e-17)
(0.305588 0.180519 -1.3386e-16)
(9.82049 0.0458102 -4.67375e-17)
(-0.569293 -0.30157 6.70973e-17)
(0.230643 -0.483665 3.50431e-17)
(-0.375334 -0.449418 -8.41056e-17)
(9.16323 1.20627 3.71409e-17)
(9.06201 1.64385 2.0731e-17)
(1.60891 0.614593 2.34554e-16)
(0.243351 -1.42632 -1.71434e-17)
(-0.336386 3.40888 0)
(9.8314 0.0572638 1.8489e-16)
(0.287923 0.0881696 3.3721e-16)
(0.867802 -1.66287 -1.88543e-17)
(0.214966 -0.549121 0)
(0.209773 -1.42245 2.86431e-17)
(-0.0877275 4.58811 -6.49766e-17)
(-0.476085 3.42888 5.36568e-17)
(1.22337 0.302588 3.21614e-16)
(0.556862 -0.021418 0)
(-0.423121 -0.624844 2.40285e-17)
(9.5015 1.78756 4.35303e-17)
(8.77559 0.997106 0)
(-0.0490744 4.35833 8.859e-17)
(0.312767 -0.526382 -6.43951e-17)
(9.80821 0.0677847 8.30979e-17)
(9.92004 0.15677 -2.28697e-17)
(0.658721 -1.60923 -2.41585e-16)
(0.304832 -0.0673548 -3.86159e-16)
(0.301384 -0.556972 1.86969e-17)
(-0.0988844 -0.263784 1.02527e-16)
(1.83297 1.1023 -3.06744e-16)
(1.84476 1.16947 -8.57758e-19)
(9.81244 0.128555 0)
(0.16878 -0.20879 1.91538e-16)
(10.0119 0.069032 3.9643e-17)
(-0.148711 1.31361 -5.07609e-17)
(0.217698 -0.0417478 1.44351e-16)
(0.548717 0.34012 -5.49906e-17)
(-0.143913 0.182065 -9.36062e-17)
(9.83299 0.0841 -2.60171e-17)
(1.95054 0.957173 -1.60019e-16)
(0.301841 -0.183808 -2.26964e-17)
(8.76074 0.283682 0)
(8.88242 0.735681 8.0056e-17)
(-0.0885968 0.738387 7.15315e-17)
(-0.397315 0.784413 2.05442e-16)
(-0.59024 -0.523852 0)
(9.05713 1.99476 -3.12953e-17)
(0.497296 0.541623 -1.62806e-16)
(-0.298896 -0.0830839 1.68166e-18)
(-0.208049 1.35886 -3.13744e-17)
(0.486545 0.0811881 2.26236e-17)
(1.04316 -1.4432 -1.92268e-16)
(-0.161108 -1.5195 -1.01742e-19)
(0.599236 -0.918495 3.76126e-16)
(0.239227 -0.564426 -3.74823e-17)
(0.410947 -0.068854 0)
(-0.199351 -0.768414 1.46163e-16)
(7.13817 0.110281 2.24457e-17)
(0.29659 -0.341361 0)
(0.250174 -1.02611 -1.66058e-17)
(0.16749 -0.315795 -7.59905e-17)
(0.519415 -0.643888 1.05982e-16)
(-0.347917 -0.620437 -4.18843e-17)
(-0.101779 -0.0482093 -8.18032e-17)
(-0.389442 -0.163124 3.41075e-16)
(9.8256 0.10917 0)
(9.06169 1.23957 -6.00606e-17)
(0.245653 -1.03668 0)
(-0.207866 -0.560031 1.71695e-16)
(9.44842 1.01993 -6.6265e-17)
(-0.336761 -0.689323 7.79663e-17)
(-0.0377954 -0.702999 3.25232e-16)
(4.87955 2.84349 9.71556e-17)
(8.96231 1.30007 -3.26999e-19)
(0.178362 0.601305 -1.69374e-16)
(10.0082 0.0745419 -1.15658e-17)
(5.45149 0.326859 2.46435e-16)
(1.34408 -0.659226 2.45863e-16)
(-0.329905 0.383125 4.17628e-18)
(-0.339037 -0.314262 -1.03259e-16)
(-0.2449 1.40464 -3.20577e-17)
(0.215098 -0.410058 -8.99141e-17)
(8.12473 0.298871 4.91215e-21)
(0.109786 -0.775924 2.7872e-16)
(-0.253268 2.5076 -1.15174e-16)
(8.93114 1.23556 -9.00594e-19)
(0.166607 -0.26813 9.2783e-17)
(8.50243 0.331079 0)
(9.58289 0.109189 2.26358e-17)
(9.82023 0.103 1.26982e-17)
(-1.32758 5.18599 1.4229e-16)
(-0.816692 -0.245149 -4.63547e-16)
(7.70014 0.295502 -2.3625e-17)
(-0.477514 2.17985 0)
(0.106904 0.727361 1.14625e-16)
(1.98103 0.150561 -2.68139e-16)
(0.907411 -0.130032 0)
(0.293829 -0.983398 0)
(0.608442 0.246561 1.57503e-16)
(2.47989 0.163514 2.49773e-16)
(2.89196 0.196324 0)
(-0.30979 4.06365 -1.87801e-16)
(9.54225 0.911674 -7.17705e-18)
(1.67931 1.32817 1.41286e-16)
(1.0224 -1.12916 1.11936e-16)
(0.274927 0.264505 0)
(1.70724 1.19841 -2.95266e-16)
(0.28095 -0.533365 1.39633e-16)
(-0.0734546 2.58397 1.12409e-16)
(6.08448 -0.281353 0)
(0.64979 0.301143 0)
(5.26279 0.107984 0)
(8.92872 0.352978 7.91868e-18)
(9.2181 1.5584 1.09164e-17)
(10.451 0.730873 -1.35888e-17)
(9.34402 0.906879 7.35684e-17)
(0.677883 -0.0698107 2.44829e-16)
(-0.0156629 4.27792 4.2844e-17)
(9.06688 1.32288 -1.33564e-16)
(3.33673 0.205327 0)
(4.12008 0.178203 4.9513e-17)
(1.82335 1.28005 0)
(0.186226 0.0743472 -1.2542e-16)
(9.9458 0.0353638 6.00662e-18)
(10.9528 0.0528346 0)
(9.51165 0.107743 5.44253e-18)
(6.86974 0.53906 -1.65136e-16)
(1.79331 -0.0817713 -3.58605e-16)
(6.99657 0.746168 1.23904e-16)
(4.63466 4.51047 0)
(3.14346 5.39706 1.74451e-18)
(9.62426 0.0103047 1.03443e-16)
(0.297892 1.88279 -1.82506e-16)
(-0.295842 0.0201395 -6.99436e-18)
(2.29172 6.55468 -3.69201e-17)
(5.44209 0.166471 6.91642e-19)
(3.76012 0.198929 8.03672e-19)
(1.00331 -1.13858 4.49808e-19)
(0.89364 6.26485 0)
(-0.451217 0.371117 1.6532e-16)
(-0.276849 -0.352165 1.66906e-16)
(-0.0271817 -0.652646 -1.67778e-16)
(4.98946 0.101824 0)
(-0.0783436 -0.368521 9.04639e-17)
(0.958316 1.7066 3.25604e-17)
(0.626725 -1.3477 -1.46796e-16)
(0.345178 -0.455764 -2.0951e-17)
(0.209376 0.457606 -1.4183e-16)
(-0.143531 -0.143595 6.50305e-17)
(4.43511 0.149874 -5.11831e-17)
(0.0119979 3.85047 0)
(-0.183233 -0.485985 1.64145e-16)
(3.63359 2.68618 -4.65051e-16)
(-0.557158 0.372108 -9.23432e-17)
(-0.200836 -0.253549 -1.45456e-16)
(-0.0671944 -0.225921 2.39276e-20)
(6.12286 0.454773 -1.13884e-18)
(1.42563 0.965183 1.5071e-16)
(9.61356 0.814688 0)
(1.55603 0.0399791 0)
(3.36914 1.59345 -9.82206e-17)
(9.99386 -0.0117891 2.85981e-18)
(9.87095 0.207352 0)
(-0.301829 0.246369 -8.91164e-17)
(-0.399301 -0.460321 0)
(0.200316 4.15435 -1.19904e-16)
(9.89154 0.112611 2.54345e-17)
(0.646722 -0.917203 2.04298e-16)
(0.23823 -0.0591185 0)
(8.8044 1.18055 2.84081e-17)
(-0.471883 -0.613377 -1.22773e-16)
(-0.179712 -0.0894242 8.88084e-17)
(-0.5275 0.0713183 -1.99082e-16)
(1.7689 7.83737 1.01187e-16)
(1.9626 0.00732825 -3.49283e-17)
(0.136832 2.67737 4.32957e-16)
(-0.0691033 -0.394407 0)
(9.72004 0.139903 -8.53031e-17)
(9.86079 0.0771962 -2.75825e-18)
(0.047648 4.54802 -7.78619e-17)
(-0.0926961 -0.0181124 1.02003e-16)
(2.44314 -1.82409 -1.25139e-16)
(6.1576 0.0485035 3.3269e-17)
(5.66471 0.219543 -4.60252e-17)
(4.62319 -0.294911 -2.08025e-16)
(5.24566 0.172512 0)
(5.61646 0.0569948 -1.53042e-16)
(7.25803 -0.0458558 0)
(6.11876 -0.0789902 3.81186e-17)
(4.7209 0.121894 5.87569e-18)
(-0.131327 -0.747183 -6.98939e-16)
(-0.344093 0.0481112 -4.48634e-16)
(11.114 0.436864 5.2621e-17)
(0.0521875 0.862479 -3.32732e-17)
(0.177569 -0.000284436 2.17752e-17)
(-0.673864 -0.487452 6.4748e-16)
(-0.113007 -0.0862189 -1.06781e-20)
(0.286712 -0.20507 0)
(-0.809199 0.266599 -1.93944e-16)
(0.0449404 -0.0772692 -4.30583e-17)
(-0.213719 -0.286396 0)
(-1.04209 0.0647403 3.08719e-16)
(9.08921 0.536256 3.04524e-16)
(0.759488 -1.46533 -2.22427e-16)
(8.35839 -0.0208382 4.17197e-17)
(0.372606 -0.159856 -7.13333e-17)
(0.777631 -1.20318 -1.2357e-16)
(9.68706 0.712276 0)
(8.68141 0.894965 -4.09435e-17)
(10.3829 0.452854 0)
(5.93535 0.117158 0)
(1.10518 4.06137 1.52706e-18)
(8.71446 1.06844 1.00901e-19)
(-0.341073 -0.167934 4.18919e-17)
(-0.21762 -1.22676 -3.44024e-16)
(-0.308982 -0.768057 3.10233e-16)
(9.74459 0.0235076 1.09629e-17)
(0.0784276 -0.711342 1.25272e-16)
(-0.0216954 -1.34405 2.34432e-16)
(-0.366634 -1.11868 1.46656e-16)
(-0.839289 -0.0252639 -3.28253e-16)
(3.30015 4.85627 3.6316e-17)
(1.13235 1.02814 2.00161e-16)
(-0.355859 2.82251 -5.0906e-17)
(-0.0602329 4.82911 0)
(9.89237 0.196679 0)
(9.57789 0.0204879 5.96441e-17)
(9.80041 0.0570907 -8.7373e-17)
(1.75158 1.32572 -1.83335e-16)
(-0.128168 -0.401933 -4.51382e-17)
(0.767993 -0.427797 3.62506e-17)
(-0.311703 0.293105 0)
(-0.0916398 -0.420625 0)
(9.96907 0.25064 6.51227e-17)
(8.51294 1.75352 0)
(-0.148161 -0.132842 -8.89538e-17)
(-0.770434 -0.193376 -2.74919e-16)
(8.66202 0.414191 1.61534e-17)
(1.84679 7.37055 0)
(1.21796 0.690187 2.73047e-16)
(0.153756 -0.997264 0)
(-0.625414 0.141743 1.84602e-16)
(8.64974 2.21302 -1.01224e-16)
(-0.706815 0.617704 0)
(-1.14726 1.05528 -1.24385e-16)
(1.09993 -0.55115 -7.68667e-17)
(9.80002 0.0573408 -7.84807e-17)
(-0.00396217 -0.398814 1.88818e-16)
(-0.746196 0.227337 0)
(0.362117 -0.0487585 9.10889e-17)
(-0.514578 -0.221195 -8.5706e-17)
(10.5455 0.0948049 0)
(-0.0524289 -0.498334 0)
(0.783382 0.557552 2.26655e-16)
(-0.205295 0.723189 -1.23515e-16)
(0.497442 0.892212 0)
(6.98896 0.075845 1.82604e-16)
(9.41388 0.122564 0)
(-1.1726 5.99191 -1.32529e-17)
(0.805989 0.339291 -1.52571e-16)
(9.75185 0.1179 6.42286e-17)
(0.823138 1.03574 -1.83765e-16)
(4.52085 1.91804 -2.80242e-16)
(-0.581371 0.261184 -1.19513e-16)
(-0.169243 -0.135022 0)
(1.25895 -0.873247 -2.28054e-16)
(0.164091 0.468106 3.54244e-17)
(1.38067 -0.300509 0)
(1.36133 -0.197419 -1.89977e-17)
(0.17672 -0.482926 1.71438e-16)
(0.318416 -1.09427 6.42179e-17)
(1.52525 0.0675387 0)
(1.81315 -0.00465161 5.91378e-19)
(11.2163 0.183635 -4.91311e-17)
(0.33583 -0.113791 4.31793e-17)
(-0.396059 0.0737896 5.92827e-16)
(-0.0114684 -0.309798 1.03256e-16)
(1.81919 1.00014 3.09005e-16)
(9.81298 0.0814743 6.10998e-17)
(-0.333887 4.38969 0)
(1.55919 -0.154091 2.21068e-18)
(0.0429161 -0.240498 -1.84904e-16)
(0.317622 -0.139786 -3.21761e-16)
(0.224252 -0.426031 -1.06831e-16)
(9.55447 0.0359475 9.57787e-20)
(-0.148285 1.44452 0)
(-0.160244 0.626168 5.94114e-18)
(0.949013 -1.3249 -9.58132e-17)
(9.98055 0.230352 2.88827e-17)
(0.865082 0.426335 2.37863e-16)
(9.80185 0.0350245 4.49855e-21)
(9.80969 0.133892 0)
(7.89537 0.109331 4.94347e-17)
(-0.467031 0.652675 0)
(5.839 -0.0444473 -2.0402e-16)
(-0.412396 3.3778 -1.65159e-16)
(1.93848 0.068938 0)
(0.105721 0.209839 -8.04179e-17)
(8.57004 1.39403 -2.00726e-17)
(0.968497 1.72388 8.82638e-17)
(0.122571 3.21206 -6.85981e-18)
(0.294558 2.45395 0)
(0.204663 2.89288 6.98537e-18)
(0.0575895 3.45146 1.50365e-17)
(0.353375 1.88403 3.17528e-17)
(0.319437 1.22145 -7.293e-17)
(-0.0905873 -0.754592 1.967e-16)
(-0.431314 -0.103697 0)
(-0.96625 -0.0484095 3.29294e-16)
(9.77503 0.0686339 1.1239e-17)
(0.191757 0.596276 -1.36332e-22)
(-0.0846871 -0.465784 0)
(-0.158905 -0.101024 7.76126e-17)
(0.091862 -2.57867 1.49241e-18)
(-0.0473354 -0.399639 -2.56937e-16)
(1.70679 -0.259453 -4.32631e-18)
(0.0699835 -0.378938 -2.21549e-16)
(-0.183639 1.89397 -8.13253e-17)
(0.065659 -0.0612965 -1.46841e-16)
(-0.283304 3.73998 5.04655e-17)
(0.575081 -1.04669 3.09562e-16)
(1.92412 4.82418 0)
(-0.323555 -0.228182 -2.02092e-16)
(0.0764023 0.155311 -1.30986e-17)
(1.52665 -0.10425 3.68297e-17)
(0.601236 -0.89522 -1.06193e-16)
(1.01223 0.0387669 -4.35773e-17)
(0.10134 4.17374 1.28578e-16)
(0.128579 0.743484 7.46025e-17)
(-0.493813 0.149635 1.29553e-16)
(1.5807 -0.28038 2.19372e-18)