/*--------------------------------*- C++ -*----------------------------------*\
| =========                 |                                                 |
| \\      /  F ield         | OpenFOAM: The Open Source CFD Toolbox           |
|  \\    /   O peration     | Version:  v1912                                 |
|   \\  /    A nd           | Website:  www.openfoam.com                      |
|    \\/     M anipulation  |                                                 |
\*---------------------------------------------------------------------------*/
FoamFile
{
    version     2.0;
    format      ascii;
    class       volVectorField;
    location    "0.59";
    object      U;
}
// * * * * * * * * * * * * * * * * * * * * * * * * * * * * * * * * * * * * * //

dimensions      [0 1 -1 0 0 0 0];


internalField   nonuniform List<vector> 
5794
(
(-0.100697 0.0660748 -3.69104e-17)
(-0.0351854 1.56883 0)
(0.244141 -0.573133 -1.59317e-16)
(0.284996 2.89102 1.18344e-16)
(1.16585 2.15484 2.79052e-17)
(-0.156751 0.979293 -1.30201e-16)
(1.12221 -0.27765 -2.3409e-16)
(0.797198 -0.166463 0)
(5.94673 0.834395 1.03398e-16)
(0.953649 -0.107082 2.1687e-16)
(4.60346 -0.10766 -3.20349e-19)
(-2.66071 0.0212786 0)
(-2.44624 -0.416661 5.33569e-16)
(0.714021 6.83967 1.83762e-16)
(0.973707 0.116804 5.08222e-16)
(0.169165 -0.193709 -1.81372e-16)
(0.361129 0.0316061 4.56117e-17)
(0.450137 6.68931 1.31771e-16)
(0.937632 0.0776795 4.73118e-16)
(0.159162 1.65374 1.49252e-16)
(-2.96342 1.81184 -4.84939e-17)
(-0.0580185 0.636367 -1.72191e-16)
(1.64656 0.127031 3.23707e-16)
(0.851684 0.0356087 -6.67121e-16)
(3.10592 0.248824 -3.54514e-16)
(2.75875 11.0732 2.0816e-17)
(5.22727 -0.634343 0)
(0.313024 1.67296 -1.75436e-16)
(-0.274832 9.04109 -4.08292e-17)
(1.14834 -0.0945227 2.72409e-16)
(-2.22009 -0.43591 -5.63645e-16)
(-2.11209 0.1074 -5.05051e-16)
(-2.06046 0.106409 -9.42163e-16)
(1.19351 -0.17399 4.41176e-16)
(-1.42181 0.118471 -1.97517e-16)
(-1.47798 0.33944 1.98157e-16)
(9.77944 0.652645 -2.2589e-16)
(3.69893 -0.355338 0)
(2.55795 -0.46967 1.49466e-16)
(-0.530823 4.70175 0)
(-0.132874 3.8494 -1.01101e-16)
(0.180462 0.693032 1.66859e-16)
(7.36213 0.110981 -8.87809e-19)
(0.781379 2.03154 0)
(1.01983 0.181763 -4.47904e-16)
(4.75814 -0.175607 1.4045e-16)
(4.46333 -0.171248 -2.33953e-16)
(0.0335361 -0.572653 0)
(0.157019 -0.306582 8.71827e-16)
(0.659666 -0.428336 7.23336e-17)
(-0.520197 0.27663 -1.88775e-16)
(6.04053 -0.238074 -1.88993e-16)
(-0.98586 1.0117 0)
(-0.702665 -0.535376 1.67068e-16)
(-0.0790416 -0.0717872 1.10499e-17)
(4.9844 -0.494037 0)
(4.65926 -0.487324 -1.8654e-16)
(-1.42498 -0.567735 1.75153e-16)
(8.43533 0.0666263 0)
(4.21001 10.4454 -7.17508e-19)
(9.00904 0.521386 1.99491e-18)
(0.508222 0.897361 -1.32035e-16)
(-1.37026 -1.23994 -1.55986e-16)
(-1.21853 0.137167 2.12087e-16)
(-1.17286 0.118011 0)
(0.764069 0.308736 -2.72099e-18)
(0.298862 0.875076 -2.58777e-16)
(-0.0688162 3.71461 0)
(0.621937 5.54509 -1.47083e-16)
(0.0131231 0.517404 1.23809e-21)
(4.71652 -0.514774 1.46259e-16)
(0.434198 2.44479 -3.16473e-16)
(11.539 2.04574 -3.66448e-18)
(0.801737 0.113401 0)
(0.565797 6.55382 1.32292e-16)
(0.516127 0.654427 1.47588e-21)
(0.388909 -0.119491 1.48015e-16)
(1.50133 10.9236 -2.14164e-17)
(0.524717 1.52047 4.66268e-17)
(-0.074775 -0.0788306 8.07828e-17)
(-0.215384 0.272463 -2.30947e-17)
(-0.000705657 1.32192 -1.52164e-16)
(-0.408078 2.2608 6.62658e-19)
(1.49448 -1.55244 -1.00556e-16)
(3.12305 -1.48662 -3.25837e-16)
(-0.0717977 4.74514 -4.75842e-17)
(0.20146 6.59348 3.03755e-17)
(0.0364635 5.20727 -2.60378e-17)
(0.976354 0.0891787 -1.7715e-16)
(0.59803 0.681056 -5.41734e-17)
(0.894643 5.47423 -8.34757e-17)
(0.116559 7.43788 -8.22905e-17)
(-0.126633 6.90311 1.51385e-16)
(0.0946942 7.47977 6.14979e-17)
(0.0215877 6.12499 3.76421e-17)
(-2.10814 0.0415848 5.62631e-18)
(0.0164969 6.06228 -5.8507e-17)
(-0.113124 6.6073 -1.64547e-17)
(-0.0655176 7.45488 0)
(8.69998 0.571491 -3.23397e-17)
(1.69463 3.19716 -1.31587e-16)
(-1.0832 0.165831 -4.33515e-16)
(8.28155 0.144761 7.57494e-17)
(0.74713 5.53134 -2.59912e-16)
(1.51863 0.277399 0)
(-0.440046 5.5099 0)
(-0.00245232 1.04323 0)
(-0.295457 0.0765866 -2.8504e-16)
(-1.37216 0.578724 -1.28974e-16)
(0.26859 1.05881 -1.43426e-16)
(0.787559 -0.00660822 -3.42437e-19)
(0.367266 0.0525697 0)
(-1.51688 4.66612 1.22273e-16)
(-0.106828 -0.209143 1.60515e-16)
(0.113441 6.24884 0)
(-0.162518 7.54941 0)
(0.477636 0.253653 -3.64397e-16)
(-0.243045 7.84368 -7.10454e-20)
(9.28425 0.470292 -2.38016e-20)
(10.849 0.59366 6.36435e-18)
(-0.458069 7.53308 1.19087e-16)
(0.319381 0.0113279 0)
(-1.31191 0.160308 0)
(0.280929 1.0838 -2.39979e-16)
(0.863458 0.257992 2.34803e-16)
(4.60583 2.27886 5.27974e-17)
(0.97998 6.46558 0)
(-0.0813228 1.2474 7.90685e-17)
(6.17833 -0.644328 1.25353e-16)
(-0.43203 -0.0434377 1.73995e-16)
(-1.25412 -1.06043 3.05886e-16)
(-0.118198 -0.837964 2.34209e-16)
(0.190527 1.22698 2.42971e-17)
(1.05373 10.6182 -6.43804e-17)
(-0.543735 6.51304 1.47e-16)
(0.952973 0.147977 0)
(3.97445 -0.212263 9.8577e-17)
(0.534209 0.838656 -1.91854e-16)
(-0.289539 0.232766 2.08018e-16)
(1.23527 0.053676 0)
(0.841724 -1.04459 -5.26011e-16)
(0.898983 2.61773 0)
(0.805645 0.245415 0)
(0.739821 2.98376 2.93827e-16)
(-0.322873 0.383199 2.23547e-16)
(1.3172 -0.239271 1.55444e-17)
(-0.750119 0.794634 2.55354e-16)
(7.43955 0.277549 2.48076e-16)
(0.539326 1.40988 -1.9452e-18)
(0.316681 0.631218 4.98454e-16)
(7.19923 -0.18059 -1.80956e-16)
(0.223989 -0.17853 3.45602e-16)
(-0.473271 5.76993 0)
(-1.12553 0.381023 2.00953e-16)
(3.19539 -0.781143 0)
(4.81782 0.157626 0)
(1.45023 -0.666682 -2.87225e-16)
(2.87638 0.0672907 3.74691e-16)
(5.17707 0.173034 -2.76253e-16)
(2.77475 -0.662138 -1.27116e-16)
(0.63755 0.0295201 4.2359e-16)
(-1.81285 -0.128261 -3.70557e-16)
(0.689479 0.0286652 0)
(-2.29248 -0.125094 -1.38914e-16)
(-2.96607 0.0200831 -3.1721e-16)
(-3.08529 -0.100537 1.73084e-16)
(-1.73489 -0.29958 1.29127e-18)
(-0.857517 -0.305296 -4.3878e-18)
(0.686715 -0.0320527 0)
(0.279505 0.0281286 1.04951e-18)
(0.771557 0.0471277 0)
(-1.83247 0.411983 -1.21371e-16)
(-1.59661 0.35671 0)
(-1.73482 0.28245 1.0065e-16)
(0.232757 -0.235535 4.90479e-16)
(1.8636 0.0720569 0)
(0.641792 0.0410304 -2.54388e-16)
(2.88212 -0.0422072 -2.26207e-16)
(0.740436 -0.0151938 -9.6654e-17)
(6.29209 0.101872 7.11116e-18)
(0.409745 -0.41708 -6.31287e-18)
(-1.57957 -0.32588 0)
(0.264589 -0.362343 0)
(-1.80294 -0.31567 1.30902e-16)
(0.8963 -0.212559 0)
(-1.22496 -0.749833 6.01494e-17)
(-1.30091 0.214862 -1.51598e-16)
(-1.21116 0.286909 -1.05196e-16)
(0.645138 -0.202179 1.39363e-16)
(-1.0767 0.0262917 3.52269e-16)
(4.51128 -0.0722054 -3.56096e-16)
(-2.23887 -0.0917751 3.74188e-16)
(-2.19059 -0.0830491 6.2692e-16)
(-1.53521 -0.30652 6.01002e-16)
(-0.607831 -0.464827 -1.06799e-16)
(-1.87474 -0.607748 -4.88335e-16)
(1.59447 -0.415114 -2.25194e-17)
(0.737594 0.0230049 -1.94419e-16)
(0.977201 0.0506251 -3.07459e-16)
(6.381 -0.0477865 1.26748e-16)
(1.76508 -0.110317 -2.16336e-17)
(5.92849 0.00405832 0)
(0.575165 -0.596156 0)
(-0.345182 -0.256833 1.19154e-17)
(4.39288 0.0300947 -5.62836e-17)
(4.69954 0.0138556 0)
(-0.0182082 -0.172666 1.28936e-17)
(0.344361 -0.0221412 2.08237e-19)
(4.33076 1.20042 -6.4481e-18)
(2.02528 8.84261 1.28896e-16)
(0.0961819 0.22182 1.51779e-16)
(9.76357 -0.00217287 0)
(-1.69011 -0.129775 -1.05682e-16)
(-1.17275 -0.554297 1.74048e-16)
(1.23215 -0.0443895 0)
(1.62169 0.285267 7.15866e-16)
(0.442344 0.361321 -1.87521e-16)
(1.16911 1.68978 9.74157e-17)
(4.0117 -0.190382 1.38539e-16)
(1.41552 5.53196 -1.84193e-16)
(9.67981 -0.0003617 0)
(1.67445 0.545429 2.42451e-16)
(-0.313671 1.9576 0)
(-0.0779447 4.91065 3.07477e-17)
(4.76459 0.120037 1.41439e-16)
(11.7069 0.697537 2.14056e-18)
(1.01621 -0.0305842 -7.62323e-17)
(0.656226 0.00204384 -1.16612e-16)
(-1.5607 -0.00946043 0)
(0.854913 0.238783 -3.16935e-16)
(-1.57737 0.653768 0)
(-1.69669 0.639825 -6.50717e-17)
(1.13874 0.00152495 -1.11296e-16)
(-1.03522 0.736483 1.61306e-16)
(2.7101 0.605646 1.56167e-16)
(10.4122 0.205641 5.39154e-18)
(7.75553 1.1 1.99217e-18)
(7.06933 0.479967 3.00578e-17)
(-2.1195 0.205368 -1.66546e-16)
(-0.0894189 0.378472 -4.74092e-16)
(-0.171572 0.936278 0)
(1.17863 0.820152 1.21069e-15)
(1.57058 4.84517 2.23465e-16)
(-0.471389 0.80472 -2.69338e-16)
(-1.39906 1.07392 2.70802e-16)
(0.859718 0.089495 3.23452e-16)
(1.08783 0.305905 -1.54613e-16)
(0.246987 0.975671 9.09294e-18)
(-0.112693 5.86665 0)
(-0.0109265 5.16115 0)
(-0.0729927 6.09644 0)
(0.557803 0.367482 2.86242e-17)
(1.72752 -0.667805 -7.37738e-17)
(-0.0379283 0.134888 -1.92943e-20)
(7.21699 1.18916 -6.01114e-17)
(4.0663 2.62185 -1.05287e-17)
(8.18537 0.210804 -1.56033e-16)
(8.9857 0.543841 1.64567e-16)
(0.0711433 -0.340383 3.00731e-16)
(0.814946 0.195602 0)
(5.61482 -0.0756534 -1.18997e-16)
(-1.64032 -0.270032 9.33756e-17)
(-0.878333 -0.602117 -1.03137e-16)
(1.02314 -0.469275 0)
(-2.01889 -0.111622 0)
(-0.513771 0.0113777 -7.06652e-19)
(0.282392 1.55245 1.71049e-16)
(3.62597 0.742177 0)
(0.725769 0.0947181 -7.40791e-16)
(4.31924 0.000603356 -1.30259e-16)
(4.01688 0.0317507 0)
(1.99154 -0.848574 -2.60425e-16)
(1.50513 1.64377 -4.95731e-16)
(4.93684 -0.384408 -1.77832e-16)
(9.52177 0.0894184 3.78639e-17)
(0.71813 0.115354 3.29519e-16)
(-0.669143 -0.553468 -1.80067e-16)
(1.27927 -0.689661 -8.62081e-17)
(0.314312 -0.0265497 -1.93445e-16)
(-1.81887 1.23796 -2.55382e-16)
(0.892458 0.0833451 3.79626e-16)
(0.903373 3.25199 2.69936e-16)
(0.020374 3.92531 1.00405e-16)
(0.519859 0.746613 -4.50955e-16)
(-0.543349 5.59555 4.9239e-17)
(-0.148578 4.93672 1.27177e-16)
(0.138232 6.01104 1.28178e-17)
(0.0637287 5.37892 0)
(0.568747 5.76165 4.40458e-17)
(-0.557061 7.75456 0)
(-1.23093 0.611873 -1.64607e-17)
(-1.13236 0.588353 -1.33381e-16)
(1.39488 -0.114308 2.36814e-18)
(-0.478085 -0.367397 0)
(7.98383 1.74237 0)
(1.19069 7.78856 6.75059e-18)
(-0.0673889 2.70557 6.81117e-17)
(0.941888 1.18675 8.38284e-20)
(-0.417467 3.70997 -2.46059e-16)
(0.96156 -0.590161 -1.71273e-16)
(0.0583653 1.01538 1.11967e-16)
(-0.494624 6.2558 0)
(-0.0459605 -0.0180942 -9.87874e-16)
(0.733261 2.07631 0)
(0.712532 2.22977 -1.47312e-16)
(3.40259 0.240295 1.7226e-18)
(0.282372 0.0393423 -2.65617e-16)
(0.790882 4.07199 2.74388e-16)
(4.95371 0.0930005 2.57071e-16)
(4.58742 0.106454 0)
(2.51092 -0.252957 -5.36368e-16)
(-0.153008 0.503212 -3.186e-16)
(1.44747 7.74132 -1.43081e-16)
(0.00933771 -0.360162 -8.99525e-17)
(10.5981 0.121077 0)
(9.99031 0.316973 -1.89791e-17)
(-0.0609905 0.073054 -1.01703e-16)
(0.307653 2.40264 -3.14564e-16)
(-2.04642 0.379927 -2.30846e-16)
(-0.167498 6.47761 -4.6362e-17)
(0.528584 -0.221258 5.61491e-16)
(-0.197562 -0.937548 -2.05892e-16)
(-0.151181 6.86727 -8.85563e-17)
(0.965787 1.64805 -8.81105e-19)
(-0.44073 -0.408163 0)
(1.37441 -0.625416 0)
(0.380591 0.594809 0)
(-2.45586 -0.311122 6.5172e-17)
(-1.62367 -0.408207 -3.59777e-16)
(4.38799 -0.126232 3.11905e-16)
(6.32753 -0.0390851 -7.39617e-18)
(6.55153 -0.126869 3.16655e-16)
(-2.18919 -0.159739 8.2107e-17)
(-1.78443 0.241941 5.17925e-16)
(-1.83284 0.237282 0)
(0.925939 -0.134114 -2.45514e-16)
(1.15156 -0.0568724 0)
(0.686716 0.0334906 0)
(0.277685 -0.215851 -3.43056e-16)
(-0.61069 0.0214803 0)
(0.754569 -0.0299679 4.66313e-16)
(3.04781 -0.00106212 3.80865e-16)
(6.4753 0.378529 0)
(1.78297 0.0506509 0)
(0.522792 0.0604041 4.38876e-16)
(0.828167 -0.0477067 4.25286e-16)
(-1.02763 -0.503992 3.41058e-16)
(-0.533944 -0.463522 -2.37732e-17)
(-2.99538 -0.15203 -1.29646e-16)
(3.81479 0.156376 6.61572e-17)
(2.94737 0.0779071 6.81376e-17)
(-0.584989 0.115959 2.46908e-16)
(-2.26219 -0.161005 -2.36787e-17)
(-2.22094 -0.17937 1.50444e-16)
(-0.644388 -0.424443 0)
(-2.0527 -0.580002 0)
(1.09187 0.0469497 1.82177e-16)
(5.3219 -0.431145 1.80434e-16)
(1.38699 -0.0672445 7.85882e-17)
(0.930118 -0.206104 0)
(0.20485 0.00997582 -2.82885e-16)
(2.24198 -0.212758 4.31876e-16)
(4.40367 -0.0930569 3.88069e-17)
(0.751844 -0.660363 -3.96941e-17)
(1.40045 -0.723594 -2.81934e-16)
(-0.970863 0.315619 4.15281e-16)
(-3.21782 -0.0118116 -3.98961e-17)
(4.1835 -0.334214 0)
(3.86274 -0.326208 3.23273e-16)
(-0.228578 -0.25761 -1.14208e-16)
(-0.714644 -0.62515 -1.2918e-16)
(1.33243 -0.131271 0)
(-0.705086 0.414559 -1.01919e-16)
(0.474725 -0.14123 3.51325e-16)
(0.525585 0.0761648 9.19936e-17)
(-2.77744 0.165812 1.47493e-16)
(3.73933 -0.0108804 0)
(3.42817 0.0851846 8.60955e-17)
(-1.32662 0.0282819 0)
(0.580313 0.0742309 1.46499e-17)
(-0.142156 -1.15506 1.46216e-16)
(-0.631155 -0.583775 0)
(10.7815 0.093745 0)
(-1.88349 0.128798 1.39051e-16)
(-1.79228 -0.137101 -5.64095e-16)
(1.11025 -0.119311 -3.52104e-16)
(-0.597746 9.21161 -3.06679e-17)
(-0.738135 -0.883833 2.89578e-16)
(0.108888 -0.754328 -1.15706e-15)
(-1.13656 -0.390805 0)
(-0.339053 -0.249225 -8.54478e-16)
(-1.32848 1.03958 -5.76108e-19)
(-0.0504096 0.487291 -2.73505e-18)
(1.12807 0.178028 1.62329e-16)
(-0.979348 0.378119 9.41806e-17)
(-1.14857 0.359098 -9.79241e-17)
(-0.181608 0.0562625 1.23851e-16)
(0.924351 1.25152 0)
(0.927326 0.0585082 0)
(1.39143 0.179123 -3.11421e-16)
(0.961421 -0.0237766 1.49075e-16)
(2.89594 0.0459476 -3.6814e-16)
(9.46279 -0.400938 3.05512e-17)
(0.595772 0.070605 2.18052e-16)
(0.215662 -0.0205243 0)
(6.20151 0.908778 4.86184e-17)
(0.289524 1.97387 5.17192e-21)
(-0.127045 0.717495 2.36506e-16)
(0.0973542 0.763501 -4.05153e-17)
(-0.230588 5.68606 -6.38753e-17)
(-0.077723 6.40615 2.62655e-17)
(0.0693195 7.45893 0)
(0.846961 0.460401 1.81274e-16)
(-0.9554 0.315518 2.93932e-16)
(4.99227 -0.039594 2.1173e-17)
(4.65504 -0.0175586 6.95566e-17)
(1.6548 -0.547938 0)
(0.641323 4.19451 1.78847e-16)
(-2.41301 0.183822 0)
(-0.14592 6.18816 4.04254e-17)
(-0.111778 7.53834 -6.28342e-17)
(-0.133433 6.61306 3.46793e-17)
(0.0112415 -0.0283842 -1.65449e-17)
(-0.76387 -0.635014 -3.95418e-17)
(-2.03818 0.0249614 0)
(-2.02291 -0.0668641 0)
(0.529096 -0.115325 -2.15799e-16)
(-0.17581 -0.068366 -2.12201e-16)
(0.0372408 1.70954 -1.29515e-17)
(-0.155697 0.425987 6.07878e-17)
(3.73971 0.67558 3.33546e-16)
(10.0107 0.182823 1.34618e-17)
(0.452609 2.21578 -3.3295e-16)
(0.944519 -3.0334 -2.24667e-17)
(1.13309 0.192819 3.27586e-16)
(0.196824 0.204155 0)
(1.1396 -0.583206 1.67084e-16)
(0.0421908 -0.416587 -1.11594e-17)
(-2.28656 -0.0284378 -8.84561e-17)
(-2.0548 -0.147518 1.88406e-16)
(0.816279 -0.0595677 2.53158e-16)
(9.95767 0.0984003 -2.62526e-16)
(0.326352 -0.409351 0)
(-0.717871 -0.312803 8.55819e-17)
(1.27508 0.00772064 -2.30599e-18)
(-0.0756217 7.58324 -6.08873e-17)
(0.0843691 6.1595 -4.96068e-20)
(-0.281314 -0.00095972 0)
(0.899911 -0.549838 2.26559e-16)
(1.21248 0.387232 -8.77766e-17)
(1.12713 -0.0233994 -2.19391e-16)
(0.139354 1.71078 -6.17169e-17)
(-2.77488 1.38573 4.92257e-17)
(-0.0747406 0.53598 -6.13798e-16)
(-0.135735 6.11744 -3.02826e-17)
(0.717609 -0.304977 -5.69198e-16)
(0.349206 5.14891 -2.33047e-18)
(-1.53215 -0.479937 -2.34913e-16)
(0.0254413 5.90418 -3.69619e-17)
(0.935504 6.43811 9.27592e-17)
(-0.0573716 0.365638 -1.33127e-16)
(0.352312 1.56562 -2.06862e-16)
(-0.898361 1.14576 1.77174e-16)
(1.13104 0.188291 -4.05828e-16)
(8.3119 0.612393 9.74344e-17)
(-0.43293 -0.047138 -2.98867e-16)
(10.62 0.243756 -2.13286e-18)
(2.29427 3.69103 6.46634e-17)
(0.55035 0.0628533 -4.60691e-16)
(0.392377 1.41813 -6.32339e-17)
(0.176469 -0.029539 4.37739e-17)
(6.08764 1.25946 -5.14215e-18)
(1.49919 0.6858 -7.15872e-17)
(-0.761055 0.0737186 2.50657e-17)
(-0.287499 -0.487062 -2.06965e-16)
(-1.00499 -1.03851 1.18554e-15)
(8.80078 2.73468 -2.78313e-18)
(0.18065 2.2115 1.86376e-16)
(0.839413 0.588371 2.20315e-16)
(0.260486 1.49318 5.05352e-17)
(-1.28136 0.890427 2.74307e-16)
(-0.110624 0.249211 0)
(-1.45422 -0.309811 -1.67067e-16)
(-1.18837 -0.00569813 1.0572e-17)
(0.0417637 0.0481399 1.89736e-16)
(3.31466 -0.125144 -4.25258e-20)
(9.82786 0.0416866 0)
(1.41263 0.333384 2.2003e-18)
(-0.00292584 -0.226714 -5.13241e-17)
(-0.156687 0.352642 -1.26201e-19)
(0.0488354 1.44188 1.88906e-16)
(0.0149664 4.09529 -1.56585e-16)
(-0.156044 5.46463 4.80895e-16)
(0.682648 1.13892 8.33423e-18)
(0.0864351 1.86261 -9.30093e-20)
(1.12909 0.0599751 2.47832e-16)
(0.956083 0.0632219 0)
(-0.855766 -0.789035 0)
(-0.147304 -0.2571 -3.9991e-17)
(6.6532 0.777863 -1.32963e-19)
(2.67313 2.29816 2.33082e-17)
(8.99391 1.55737 -5.88769e-18)
(10.3867 0.578764 3.4016e-18)
(0.576601 -0.0890591 0)
(0.515843 2.94981 0)
(0.457054 1.47165 2.06734e-16)
(-0.0118678 0.208272 2.68341e-16)
(8.77562 0.500385 -4.67209e-16)
(1.54468 0.67392 0)
(0.934198 0.238392 0)
(-2.05504 0.133584 2.18561e-16)
(0.270667 0.11608 1.57056e-18)
(-0.251133 -0.848567 -1.59215e-16)
(0.416527 -0.165552 2.17351e-16)
(0.347011 -0.628636 -9.9603e-17)
(0.208705 6.62728 -3.22433e-17)
(-0.304919 7.26321 -1.51305e-17)
(0.289605 -0.0962565 -2.94155e-16)
(9.93128 0.181596 -6.93583e-17)
(9.45084 -0.118664 3.46848e-18)
(-0.112701 0.381038 1.72761e-16)
(0.358168 1.23599 -4.01731e-17)
(1.63534 2.534 -1.10178e-17)
(-0.495692 8.36285 -1.42654e-16)
(-0.17119 0.00513481 1.12142e-15)
(-0.143276 0.904044 7.09869e-18)
(0.336368 0.943349 0)
(5.43786 3.71193 6.972e-17)
(0.309262 1.52904 1.07845e-16)
(-0.0111306 0.708022 1.59374e-20)
(-0.881727 2.32021 1.87823e-16)
(-0.492147 -0.207415 0)
(10.9047 0.0715813 0)
(-0.773252 -1.16312 -6.10228e-17)
(-0.900991 0.274492 0)
(0.0394425 -0.467583 8.88163e-17)
(10.0383 0.0721817 -1.09629e-16)
(4.446 -0.0474441 8.05655e-17)
(-0.418202 -0.00747288 1.31571e-16)
(6.65223 0.0039926 1.00737e-16)
(-0.0952026 0.540258 9.44624e-17)
(-0.761022 -2.53038 1.96475e-16)
(0.113061 1.76264 1.93458e-16)
(0.808573 7.26604 -1.03389e-16)
(0.156292 0.459394 -8.71681e-17)
(-0.706743 -0.328593 0)
(9.71486 0.890611 0)
(0.804112 3.01212 -2.8406e-16)
(-0.299694 -0.25908 -2.12782e-16)
(-0.0897756 0.78625 7.27138e-16)
(0.845336 5.14923 -2.83027e-17)
(0.592278 -0.000998138 0)
(0.68686 0.0286666 -4.81807e-16)
(0.735777 2.11884 -1.51909e-16)
(-0.114491 0.625743 1.77559e-16)
(0.575574 0.100318 0)
(-0.367351 2.56129 0)
(0.0094527 0.748839 0)
(0.310479 1.3058 -1.737e-16)
(0.754275 2.35463 7.76647e-18)
(9.8579 2.81401 -2.56228e-18)
(0.674492 -0.00338948 0)
(5.14668 1.22785 0)
(-0.000651639 -0.27259 -1.10769e-16)
(0.966301 7.20104 7.38983e-17)
(0.749353 0.108186 0)
(0.29115 0.0529742 4.77831e-16)
(0.440084 0.0475055 2.1613e-20)
(-0.0165266 0.0211293 -1.94656e-16)
(1.07138 -0.127643 0)
(7.82338 0.625429 -6.71125e-17)
(-1.576 0.682084 -1.62152e-16)
(0.565033 3.03729 7.689e-17)
(0.0791382 3.81323 0)
(0.965101 3.86757 -1.01109e-17)
(9.96901 0.277503 -2.08806e-17)
(2.26457 2.98556 -4.17182e-18)
(-0.546602 5.51517 -1.40199e-16)
(0.536747 1.10117 -2.74675e-16)
(-0.0320201 3.78317 -4.63291e-16)
(-0.348073 6.53282 9.68481e-19)
(0.401463 6.52827 5.05023e-17)
(2.53154 2.57686 0)
(11.2311 -0.261221 1.98851e-17)
(-2.64539 -0.222741 1.46152e-16)
(8.66648 0.847002 -1.23985e-16)
(-0.209748 0.0939763 1.91794e-16)
(-0.122009 6.13745 0)
(-0.0995676 7.08087 -5.1998e-17)
(-0.200498 4.80026 1.95753e-16)
(1.0052 0.133926 -7.49102e-18)
(-0.103597 1.12916 5.79619e-17)
(0.558549 0.650439 6.95387e-18)
(-0.290876 6.42422 -3.04123e-17)
(0.302785 6.16988 -3.26955e-17)
(2.03849 8.72299 5.87904e-17)
(0.469436 0.129146 1.97424e-17)
(10.1343 0.166348 0)
(1.11304 -0.326055 4.58554e-16)
(-0.711858 0.286448 -1.05917e-16)
(0.294107 -0.197217 -4.0101e-16)
(7.25146 0.605669 1.77618e-17)
(0.169417 6.14147 -5.21637e-17)
(-0.171939 6.66074 2.02083e-16)
(0.910045 -0.525857 -2.08305e-19)
(-0.377902 0.0732512 -1.2591e-16)
(0.976183 6.91291 0)
(1.07983 -0.0898995 0)
(-0.0833766 -0.188026 -2.19798e-17)
(-0.28291 1.80658 0)
(2.88014 4.53927 -6.17187e-17)
(4.17439 3.37047 0)
(1.00936 5.95173 -1.63201e-16)
(0.33977 1.11908 6.38124e-17)
(0.856397 -0.232549 4.07384e-16)
(1.18756 -0.0100072 4.80559e-17)
(6.9785 0.628475 -1.5732e-17)
(3.78711 -0.00530153 -2.43633e-16)
(7.6623 0.13493 -3.01668e-16)
(2.18895 0.509391 0)
(0.284922 1.12662 -8.52811e-17)
(4.97098 2.84591 1.67683e-16)
(3.48227 1.58661 -7.69105e-17)
(0.0686728 0.0373367 -3.82866e-16)
(0.369063 1.0522 6.13917e-16)
(-0.148872 0.82821 3.67475e-17)
(0.598087 -0.390636 -4.98512e-16)
(0.836354 2.3247 3.80598e-19)
(0.914047 1.13446 -2.52633e-16)
(-0.547577 -0.00767563 1.99995e-16)
(-0.12444 0.234377 1.16778e-16)
(-0.0549621 1.47674 0)
(0.216625 0.500563 -8.21099e-17)
(-0.286847 0.386609 -8.87518e-17)
(0.232294 1.16673 3.15457e-16)
(-1.40892 -0.256406 -9.18258e-17)
(1.37487 9.07597 -3.56402e-17)
(10.6567 0.423724 -7.60986e-17)
(-1.42836 0.0843728 8.77558e-17)
(0.576578 2.2769 -5.72546e-17)
(0.223052 -0.0698626 -1.64986e-16)
(8.69271 0.158823 3.68501e-16)
(3.8557 -0.127631 -2.5271e-17)
(-0.000259714 6.97999 3.47517e-18)
(3.92817 -0.161343 2.63057e-16)
(-0.124224 4.80914 -1.8676e-16)
(0.146932 5.10532 9.91543e-17)
(7.26904 0.283166 0)
(-0.121602 -0.761626 -1.10834e-16)
(-0.0108132 0.0236296 3.19527e-17)
(-0.195001 -0.0411502 0)
(0.63385 1.40949 -1.75228e-16)
(-0.588666 -1.139 5.87759e-17)
(0.963285 0.267496 2.94594e-16)
(0.967533 0.219032 3.10298e-16)
(3.63448 0.156338 -4.35827e-17)
(8.93753 0.305034 -1.12979e-18)
(1.05087 1.67228 -1.73928e-16)
(-1.99369 0.215651 2.47038e-16)
(0.213858 -0.394082 -3.69772e-16)
(0.29055 0.308495 1.17666e-16)
(-1.43234 -0.292479 0)
(-0.13776 0.131209 -1.32521e-17)
(-1.90183 0.967531 -2.93698e-16)
(0.145071 1.42169 -2.20439e-20)
(0.0279905 5.39511 3.15509e-17)
(0.174009 5.48328 -3.01216e-18)
(-0.234485 4.83345 -1.24713e-16)
(0.466056 5.97307 3.20086e-17)
(1.96425 4.51141 -1.49495e-16)
(6.89503 0.309253 7.45464e-17)
(1.0095 1.55653 0)
(10.5877 0.886372 0)
(-2.05765 0.110324 3.66723e-16)
(-0.335673 0.437557 6.16015e-16)
(0.112262 6.066 1.59459e-16)
(-0.083359 6.80069 -1.35887e-16)
(-0.186378 0.495555 1.41739e-16)
(1.09412 6.19548 -4.31719e-17)
(0.23007 0.607284 5.43142e-17)
(-0.157863 0.62387 2.47982e-17)
(0.381792 -0.077152 1.49095e-19)
(-0.791253 -0.618008 -6.44604e-17)
(-0.457625 -0.400216 -1.13251e-17)
(0.962848 2.56738 -5.83167e-17)
(3.16603 -0.0785959 -4.35836e-16)
(0.289448 3.63432 7.30179e-18)
(-0.956442 -0.957996 1.49823e-16)
(0.317862 -0.0833581 0)
(0.188808 -0.137668 0)
(-0.259579 4.69545 0)
(0.769347 6.08873 2.4059e-16)
(1.14706 8.96103 2.36981e-16)
(-0.0438944 6.32263 2.57772e-16)
(-0.732019 -0.504525 3.81051e-17)
(5.81908 3.25128 -4.1376e-17)
(0.33288 0.118243 0)
(0.103788 0.975534 9.55466e-17)
(-0.372537 -0.123444 3.95176e-17)
(10.5445 0.0595878 -7.91917e-18)
(-0.0171788 -0.158818 -1.17435e-16)
(-1.60438 0.179305 3.45493e-18)
(-0.700175 -0.160632 -1.68711e-16)
(8.90361 0.387336 -2.123e-17)
(0.683236 2.11113 0)
(3.43374 1.19617 -3.67154e-16)
(3.58197 0.959614 2.12221e-16)
(-1.24995 -0.104476 0)
(-0.234867 -1.14672 6.91222e-17)
(1.27256 2.26607 -2.69262e-16)
(8.53151 0.1541 0)
(1.68294 5.80652 -4.88052e-16)
(0.0110227 5.6563 -1.45753e-16)
(0.0947633 2.86835 0)
(1.14227 0.539288 0)
(11.3964 0.282132 4.61435e-17)
(10.372 0.386869 3.55733e-17)
(8.83374 1.02276 1.94917e-18)
(5.18201 2.08305 -6.15667e-21)
(0.336662 2.31889 0)
(1.34042 0.611743 2.11994e-16)
(2.31104 7.39184 -2.9321e-17)
(4.22904 -0.0743108 0)
(0.112598 -0.901622 -4.73773e-16)
(3.33022 2.42526 2.28681e-17)
(0.910998 1.84329 -1.15206e-16)
(9.36393 0.9686 -5.43063e-17)
(10.8796 0.0445777 8.24699e-17)
(1.6275 1.82124 -1.91319e-16)
(9.89637 0.439269 -1.64519e-17)
(0.0377788 6.13944 1.79228e-16)
(0.76912 9.42037 4.04518e-17)
(0.578069 6.79818 -1.08121e-16)
(6.64233 3.53698 0)
(-0.602423 -0.432818 1.59179e-16)
(-0.395434 -1.17674 -1.76698e-16)
(1.24581 0.145599 2.97447e-17)
(-0.024202 0.0762955 1.43091e-16)
(0.0656834 7.44092 1.43221e-20)
(-0.0828734 6.7817 2.60566e-19)
(0.535876 5.87318 7.8264e-17)
(0.156822 0.53552 0)
(-0.878545 0.110592 0)
(1.52368 -0.698135 9.55577e-17)
(0.375793 0.975837 1.72891e-16)
(-0.0920403 5.05053 -1.18788e-16)
(-0.0523057 5.83832 -3.57448e-18)
(-0.234086 2.35414 0)
(0.291392 1.18657 -4.38153e-17)
(10.1016 0.110202 9.06473e-17)
(-0.307099 0.364938 0)
(0.867279 1.82846 -3.78166e-16)
(-0.977055 -0.641852 7.12159e-17)
(0.566615 -0.261654 2.75804e-16)
(0.181771 6.34439 7.05557e-17)
(-0.240246 7.05257 1.49817e-16)
(9.6028 1.00013 0)
(0.240868 7.26483 -3.80881e-17)
(0.0292956 6.12951 -3.64076e-17)
(9.52869 1.22094 -1.00302e-16)
(0.801895 0.32068 -1.53561e-20)
(7.37244 2.00936 6.77807e-18)
(-0.309802 6.20765 -5.65021e-20)
(0.0414047 5.45926 0)
(-0.0153904 5.49206 3.08244e-18)
(-0.359746 4.72832 -1.06293e-16)
(0.787922 5.66585 -3.90722e-17)
(3.51608 4.05993 1.49519e-16)
(0.903548 2.09309 3.79689e-17)
(-0.126543 6.37089 2.39458e-16)
(-0.0497406 7.31116 0)
(-0.262497 5.31812 -1.48586e-16)
(0.562389 1.7256 3.17818e-17)
(-0.35824 -0.951214 -1.40302e-16)
(-0.507553 0.382981 7.48193e-17)
(0.0484208 0.172128 4.91819e-18)
(-0.134457 0.943657 1.3122e-16)
(0.104359 0.648871 0)
(1.12866 3.8712 1.29192e-17)
(-0.180675 1.02821 -2.47388e-17)
(0.564474 0.0191803 -1.29024e-16)
(8.81615 0.6153 -7.56757e-19)
(-0.391666 1.65582 -3.9814e-17)
(-0.00559848 0.56933 -2.7396e-16)
(0.421324 1.54097 -1.72725e-16)
(-0.331874 6.09548 -2.33837e-16)
(0.488405 6.48956 0)
(0.576956 0.165186 2.55519e-16)
(-0.343288 6.25313 9.83086e-17)
(0.462313 6.17744 2.51789e-17)
(-0.522719 0.259807 -9.19719e-17)
(3.44282 3.54449 -1.57688e-16)
(-0.801761 -1.31367 5.17534e-16)
(-0.909929 -1.25196 5.81849e-16)
(0.530271 0.193482 -3.05682e-16)
(0.587824 5.91932 2.54098e-16)
(0.0882725 1.69391 -3.53006e-16)
(-0.962261 -0.34044 -2.01325e-16)
(-0.139766 0.529537 -1.42187e-16)
(1.15025 9.38227 0)
(9.89015 0.118102 0)
(0.0371356 0.0860758 -3.09356e-16)
(-0.61655 -0.786437 1.85859e-16)
(0.283786 -0.203001 -8.02106e-17)
(-0.278101 0.52428 0)
(-0.0417142 -0.239628 1.33848e-16)
(0.533667 -0.017334 -3.01333e-20)
(0.6815 0.365094 -6.43605e-16)
(3.88438 0.0645398 2.37312e-16)
(1.00886 4.97567 1.19469e-16)
(-0.0787631 6.02861 -3.25303e-16)
(1.1047 -0.902293 3.91346e-16)
(0.30339 0.849061 -1.78151e-16)
(9.62948 0.967074 -1.41917e-17)
(0.582344 3.23408 2.18052e-16)
(1.15004 0.118558 1.89191e-16)
(1.26825 0.435426 0)
(-0.907129 0.754346 5.72458e-17)
(2.04008 1.34209 -7.65697e-16)
(0.231318 0.927957 -2.64148e-17)
(-0.00382047 0.740553 3.20118e-16)
(0.150991 2.8611 2.65343e-17)
(8.35646 0.562223 -1.21876e-16)
(10.6044 0.351684 -2.65815e-19)
(-0.459354 -0.132857 1.93803e-16)
(11.072 0.0546058 0)
(0.0580583 -0.270165 -5.58512e-18)
(-0.786767 0.0135355 2.45191e-18)
(-1.18058 -0.540592 -1.68664e-17)
(-0.0308932 6.98279 4.02655e-17)
(-0.12629 6.10363 4.45353e-17)
(0.0165733 4.94523 1.86037e-17)
(10.5283 0.0416252 1.50224e-17)
(-0.873878 -1.00077 -3.71763e-19)
(-0.26007 7.20895 -5.06739e-17)
(-0.807975 -0.0396705 6.86335e-21)
(0.518554 -0.161456 0)
(8.97244 1.54195 -4.63709e-18)
(-0.045422 0.18152 0)
(-0.298116 0.278937 1.03149e-16)
(-0.484391 0.297815 9.05765e-17)
(-0.0519141 0.718019 5.33281e-18)
(0.614553 0.260008 2.54761e-16)
(-0.213683 0.412016 3.88024e-16)
(9.38057 0.607367 -1.86351e-17)
(0.170631 -0.472602 2.78042e-16)
(0.518193 -1.02129 3.25369e-16)
(9.54285 1.15766 1.03024e-16)
(9.75535 0.297336 4.31467e-17)
(5.83162 3.10356 2.80731e-17)
(0.18812 5.9864 -5.18374e-17)
(-0.102731 6.47217 2.58678e-17)
(0.199009 2.28067 1.40118e-16)
(0.116302 1.85133 0)
(3.9981 0.681818 4.93067e-17)
(5.56092 3.01198 8.95156e-17)
(9.55961 -0.309111 -1.95165e-17)
(0.548846 0.774273 1.24663e-16)
(0.482527 -0.645424 2.59019e-16)
(0.0957631 0.0613284 0)
(8.8071 1.77143 0)
(0.863401 2.53189 0)
(0.457909 1.43715 3.48253e-16)
(-1.0244 0.166745 8.0225e-17)
(2.29989 4.33325 2.20369e-16)
(0.0442898 4.99447 3.18522e-17)
(1.40907 7.59766 -5.69276e-17)
(0.15816 0.193019 0)
(-0.75458 -0.553486 9.22606e-17)
(0.393424 5.18259 -1.4123e-16)
(-0.223694 0.323431 -8.67578e-16)
(11.2614 0.115155 1.0068e-16)
(5.55484 1.12404 0)
(-0.243962 0.856651 1.97263e-16)
(0.985585 5.93734 0)
(0.0837522 -0.243944 1.75132e-16)
(-0.703405 -0.746597 -2.1999e-17)
(0.919958 10.264 6.0172e-17)
(9.87318 1.15804 -1.40568e-17)
(9.8741 0.75351 1.07084e-16)
(-0.995842 0.26289 0)
(1.34753 3.137 -5.52026e-17)
(-0.391446 -0.0290276 0)
(8.59215 0.330799 0)
(0.707695 0.306156 -1.43236e-16)
(-0.81623 -0.988643 2.11594e-17)
(-2.80187 4.4221 -1.38061e-16)
(2.79121 0.773501 -1.28677e-16)
(0.11085 0.681677 2.17064e-16)
(10.2864 0.105262 -2.78789e-20)
(5.84256 3.48187 -8.11673e-17)
(0.484826 -1.69372 -3.10592e-19)
(0.0633899 5.74936 6.53924e-17)
(-0.0691145 6.11146 -5.61945e-17)
(0.662042 2.40449 -1.22726e-16)
(1.21769 5.97369 -2.61282e-16)
(0.773015 1.84665 -1.31499e-17)
(-0.24163 0.45367 -4.00636e-16)
(0.0109561 1.55336 -1.95906e-16)
(0.348473 1.13836 6.69115e-17)
(0.870376 -0.163953 2.13471e-16)
(0.202998 0.250462 -3.01653e-16)
(0.0959948 1.00235 -5.58603e-16)
(-0.237324 0.606407 -4.29728e-16)
(6.86163 4.14503 3.2567e-18)
(0.542535 1.0329 5.93908e-16)
(10.0822 0.0459606 -6.62971e-17)
(0.803016 0.161654 0)
(-0.284002 2.90766 -8.76694e-21)
(3.76583 -0.848518 -1.12647e-16)
(0.0803483 2.31962 0)
(10.1211 0.455277 4.13361e-17)
(-0.454852 0.0438815 3.21144e-16)
(0.387947 0.00363764 -2.87181e-16)
(9.61372 2.26285 0)
(0.167931 6.84344 -2.10191e-20)
(-0.347896 7.30014 0)
(10.0398 0.0957301 0)
(0.651933 0.380556 -5.2061e-17)
(10.1028 1.5941 -5.21572e-17)
(8.92137 3.94469 -1.91229e-16)
(1.10789 6.94811 2.35559e-17)
(7.22893 2.11975 -1.11547e-16)
(-0.103452 3.69492 -8.03698e-17)
(0.0187605 3.44545 4.11691e-20)
(0.0274589 3.92546 -8.30662e-17)
(-0.0298239 -0.106322 0)
(-0.0992792 2.44538 1.17738e-16)
(-0.0149509 -0.537253 0)
(0.478668 1.60839 0)
(0.593563 1.02504 0)
(0.258041 -0.818259 -2.1099e-16)
(-0.233665 0.491231 0)
(-0.100044 0.975244 1.28839e-16)
(2.84863 2.58851 -2.9111e-16)
(0.562852 3.50665 0)
(-0.305894 4.81552 1.71389e-16)
(-0.186836 6.29557 -2.56842e-17)
(-0.079935 7.48387 8.09861e-17)
(-0.114098 6.52654 -4.45978e-17)
(1.00836 1.61141 2.6893e-16)
(9.3871 1.08428 -2.83321e-17)
(0.165839 0.890661 2.32489e-17)
(-0.0685459 0.682702 -8.96142e-17)
(-0.131102 0.916112 0)
(0.940103 -0.364382 3.23198e-20)
(4.65735 1.98378 0)
(0.561818 -0.0581828 3.34534e-21)
(3.42258 0.126857 -4.97445e-16)
(10.058 0.0571443 3.64366e-17)
(-0.267079 7.34363 1.25199e-16)
(-2.45055 2.49062 -3.12934e-16)
(0.105339 1.58415 0)
(-0.103883 0.408771 1.11979e-15)
(4.88465 2.87265 -3.41826e-17)
(11.4955 0.434491 0)
(9.79962 0.211533 2.59072e-17)
(0.901295 2.2771 1.34972e-17)
(9.28055 0.245213 0)
(4.26055 3.77582 1.11782e-17)