/*--------------------------------*- C++ -*----------------------------------*\
| =========                 |                                                 |
| \\      /  F ield         | OpenFOAM: The Open Source CFD Toolbox           |
|  \\    /   O peration     | Version:  v1912                                 |
|   \\  /    A nd           | Website:  www.openfoam.com                      |
|    \\/     M anipulation  |                                                 |
\*---------------------------------------------------------------------------*/
FoamFile
{
    version     2.0;
    format      ascii;
    class       volScalarField;
    location    "0.93";
    object      nut;
}
// * * * * * * * * * * * * * * * * * * * * * * * * * * * * * * * * * * * * * //

dimensions      [0 2 -1 0 0 0 0];


internalField   nonuniform List<scalar> 
1466
(
0.000681731
0.00116147
0.00204636
0.000475711
0.000820842
0.00113054
0.000808114
0.00107365
0.00264863
0.000558685
0.000604071
0.00171514
0.000103227
0.000420026
0.000825451
0.000317362
0.000266841
0.000354853
0.0015162
0.000443896
0.00170029
0.00118751
0.000202792
0.0014358
0.000461808
0.00366128
0.00460405
0.00124321
0.000290566
0.000332516
0.00114579
0.0015008
0.00164721
0.00076525
0.000363821
0.00092776
0.000491625
0.000677878
0.00317241
0.00112803
0.00168299
0.000668129
0.0016516
0.00124157
0.00168536
0.00118728
0.00106167
0.000287432
0.000597749
0.0017455
0.00320733
0.000216187
0.00043971
0.000877004
0.000292303
0.0016859
0.000450927
0.00378127
0.00048201
0.00165348
0.000373454
0.000325237
0.000768754
0.00114411
0.00110805
0.000807043
0.00175055
0.00162632
0.000465587
0.000716379
0.00342365
0.00057968
0.000479688
0.000960118
0.000159939
0.00140409
0.000822819
0.000585776
0.000865488
0.0019069
0.00190212
0.00102253
0.00101518
0.000594544
0.000594032
0.00177903
0.000609651
0.00114499
0.00100562
0.0013178
0.000784593
0.000291127
0.00224771
0.000330842
0.00303102
0.00139528
0.00102486
0.000630648
0.00206699
0.000774454
0.000367368
0.00137336
0.0012524
0.000410868
0.00102913
0.00160038
0.00148244
0.00106547
0.00198773
0.000548334
0.000369521
0.000666017
0.000806318
0.000760366
0.000120319
0.00553293
0.00024738
0.000336234
0.0016613
0.00417547
0.00128503
0.000505492
0.000199917
0.00122255
0.00095581
0.00211865
0.000628958
0.000862495
0.00225849
0.00318668
0.000856595
0.000730408
0.000888859
0.00181001
0.00346877
0.00207238
0.000798862
0.00074389
0.00162267
0.000467053
0.000245519
0.000280947
0.00240785
0.00281673
0.00166279
0.000233604
0.000319238
0.00205561
0.00187211
0.000529189
0.00220088
0.000762827
0.000991828
0.00112833
0.000975445
0.00493418
0.000549697
0.00134719
0.00266244
0.00178209
0.0014741
0.000822058
0.000816192
0.00135343
0.00122055
0.00219224
0.00253986
0.000151185
0.000648336
0.00452099
0.00145919
0.00177882
0.000669398
0.00178979
0.00356409
0.00122082
0.00104676
0.00191766
0.000739288
0.00210568
0.000579467
0.00126022
0.00110657
0.000873612
0.00125193
0.000358973
0.00125925
0.00480862
0.00106224
0.000402299
0.000292249
0.000180316
0.000854458
0.000913409
0.00117969
0.000630403
0.00158095
0.000638146
0.000568677
0.000476968
0.000950832
0.00242252
0.00106799
0.000698537
0.000756931
0.000744136
0.00128659
0.000450866
0.000786293
0.000700298
0.000756583
0.000786716
0.00267597
0.00114297
0.00196943
0.00117804
0.00172803
0.000144922
0.000395254
0.000775206
0.00462115
0.000699865
0.000438862
0.00114492
0.00169355
0.00131613
0.000426367
0.000508296
0.000715256
0.00247189
0.00102327
0.00100963
0.00107102
0.000458915
0.000928501
0.000720211
0.000626555
0.000662158
0.000899454
0.00053779
0.00254339
0.00111421
0.000307856
0.000943665
0.000891923
0.000225647
0.000705438
0.000268856
0.000173806
0.000243097
0.00103787
0.00369775
0.000769156
0.000970544
0.00109743
0.00372382
0.000555589
0.00273093
0.00532436
0.000913225
0.001244
0.000971131
0.00332193
0.00144844
0.00111784
0.000734222
0.00270509
0.00102268
0.0022233
0.000694395
0.003255
0.000553865
0.000955478
0.000553961
0.000849227
0.000567029
0.000780741
0.0010268
0.00202776
0.000785412
0.000655972
0.000202589
0.000257784
0.000478631
0.00172399
0.000631942
0.00330677
0.000354443
0.00587078
0.000714181
0.0014782
0.00274509
0.00386353
0.00115277
0.00108565
0.00243586
0.00392426
0.00647129
0.00284774
0.000289128
0.00107523
0.00100954
0.000501286
0.00379767
0.000750725
0.00139854
0.000791638
0.000622771
0.000150551
0.00655943
0.00328671
0.00219439
0.00229745
0.00161605
0.00081974
0.00205479
0.000892373
0.00237861
0.00172848
0.000644545
0.00148702
0.00203341
0.00132902
0.000238243
0.000186889
0.000298588
0.000419894
0.00034355
0.00054321
0.0005203
0.00021106
0.00021968
0.000465059
0.000418302
0.000193097
0.000227423
0.000126638
0.000854715
0.000172299
0.000521478
0.000286372
0.000273443
0.00025684
0.000375419
0.000377996
0.000637132
0.000243911
0.000199453
0.00101209
0.00616708
0.00103236
0.00132499
0.00100123
0.00050428
0.000485738
0.00237084
0.000801488
0.000345435
0.00557437
0.00266089
0.00560465
0.00191704
0.00210098
0.000382928
0.000199114
0.000412518
0.00039042
0.000514032
0.000274351
0.000301392
0.000570583
0.000176012
0.000240885
0.000218621
0.000353492
0.000197596
0.000273884
0.00469495
0.000850123
0.000187845
0.000712189
0.00130544
0.00385881
0.00232472
0.00116997
0.00326719
0.000573023
0.00214856
0.000972344
0.00138148
0.00195781
0.00293523
0.00167119
0.0066419
0.000168237
0.000656155
0.00199537
0.00232995
0.00097632
0.000182941
0.000184071
0.00338276
0.00177487
0.00125036
0.00155262
0.00154972
0.00301104
0.00498459
0.00140076
0.000726666
0.00195213
0.00127732
0.0001945
0.000221229
0.00653961
0.00271877
0.00342462
0.00388591
0.00227524
0.00259699
0.00410887
0.000291021
0.0019011
0.00216686
0.00226952
0.00240531
0.00196198
0.00197013
0.00216182
0.00206683
0.00102834
0.0019117
0.00352525
0.00327147
0.00124146
0.00463651
0.00670487
0.00126526
0.0045471
0.00427848
0.000463439
0.00182803
0.00195501
0.00424156
0.00429515
0.00658884
0.00421709
0.00408874
0.00637809
0.00389678
0.006679
0.00615837
0.00331894
0.00422618
0.00667994
0.00413971
0.00450634
0.00600083
0.000670748
0.00408237
0.00660388
0.00387589
0.00420291
0.00407922
0.0023262
0.000653011
0.00522369
0.00157367
0.000928028
0.000510592
0.0041813
0.0044202
0.00413806
0.00360495
0.00137658
0.00135066
0.000613206
0.000568616
0.00137268
0.00196447
0.000789025
0.00132586
0.00123788
0.00141043
0.0013787
0.000722118
0.00122203
0.00327371
0.000887097
0.00171452
0.0011868
0.000634453
0.00145943
0.00352611
0.000290264
0.0012306
0.0019214
0.0062894
0.000580209
0.000525378
0.000752137
0.00159583
0.000208371
0.00111908
0.00376736
0.00211773
0.0016988
0.00426674
0.00347777
0.00429252
0.0038453
0.000830347
0.00384771
0.00422075
0.00303705
0.00384385
0.000686242
0.00163015
0.00423706
0.00420191
0.00426167
0.00663674
0.00327536
0.00115738
0.000870235
0.00139046
0.00286429
0.00360666
0.00023249
0.00395868
0.0015572
0.00219697
0.00398105
0.00368438
0.00404437
0.00539194
0.00149814
0.00484463
0.0017727
0.00100743
0.00515585
0.00666612
0.00458418
0.00619125
0.00389403
0.00281562
0.000371379
0.0064117
0.00676924
0.00082197
0.00169053
0.000813248
0.00603171
0.00272736
0.00233013
0.00519581
0.000957906
0.00158583
0.00383877
0.00444588
0.00105072
0.00147364
0.00241097
0.00603909
0.00163824
0.00165702
0.0014628
0.000725147
0.00354267
0.00641776
0.000509902
0.00532393
0.00334347
0.00165281
0.00212019
0.00329709
0.000528556
0.00405543
0.00344831
0.00319674
0.00160491
0.000697705
0.0033686
0.00211188
0.00095703
0.00681654
0.00107953
0.00158922
0.00653492
0.00272304
0.00017367
0.000258017
0.00173856
0.0019971
0.000757027
0.00170539
0.0019307
0.00207116
0.00670169
0.00236038
0.00657143
0.000855492
0.0016763
0.00185833
0.00362139
0.00309648
0.00371268
0.00166136
0.00621687
0.00610796
0.00211933
0.00192858
0.00252951
0.00470662
0.000476153
0.00443324
0.0062877
0.000414527
0.00541801
0.000718565
0.00141466
0.0014279
0.000450918
0.00139137
0.00147896
0.00359253
0.000447509
0.000778074
0.00148452
0.00606123
0.00333213
0.00609722
0.00253909
0.000201948
0.00196791
0.00193486
0.00195802
0.00657116
0.000786054
0.00164763
0.00147869
0.00571793
0.000479507
0.00460844
0.00342729
0.00137839
0.00248083
0.00582911
0.0047498
0.00141357
0.000719307
0.00649211
0.00168081
0.00639542
0.00330735
0.00250177
0.00169335
0.00190892
0.00129334
0.00274432
0.000326252
0.00673898
0.00158995
0.000549092
0.00183231
0.00603578
0.00322654
0.00134781
0.00656316
0.00146165
0.0011427
0.000836634
0.000310186
0.00231894
0.000177668
0.000249106
0.0023467
0.00655868
0.00129698
0.0014578
0.000668712
0.00131562
0.000181939
0.00192579
0.000539255
0.00305915
0.000614991
0.00163879
0.000362467
0.000944662
0.000985577
0.00098949
0.00462008
0.00252941
0.00202827
0.000693031
0.0010249
0.00146275
0.00150833
0.00274856
0.00337962
0.00159358
0.00134723
0.00632453
0.0023744
0.000952614
0.00311124
0.00591852
0.00326488
0.000750792
0.001492
0.000238559
0.00106351
0.000813971
0.00156138
0.000603778
0.00132811
0.00634979
0.000843558
0.00509628
0.00276346
0.0040756
0.00158918
0.00244085
0.00619819
0.00158504
0.0030065
0.000627909
0.00574589
0.00142373
0.00286827
0.000659328
0.00181427
9.33723e-05
9.92539e-05
0.00434083
9.62006e-05
0.000122228
0.000865394
0.00647273
0.000266206
0.000102774
0.000119695
0.000137629
0.000272888
0.00191368
0.000163091
0.00113983
0.00252709
0.00123883
0.00224256
0.000156243
0.000472286
0.00193915
0.00265677
0.00152734
0.00583144
0.00255896
0.00191997
0.000530404
0.000137736
0.000689598
0.00168004
0.000424612
0.00112235
0.00209714
0.00192548
0.000147586
0.00210094
0.00200275
0.00299074
0.00207351
0.000436884
0.000222198
0.00169791
0.00145958
0.000680576
0.00110921
0.000718182
0.00139921
0.00310414
0.0061673
0.00013018
0.000177395
0.00192145
0.000628904
0.00131523
0.001423
0.00401754
0.000169142
0.000954803
0.00131545
0.000669054
0.000497459
0.00106106
0.00248931
0.00421104
0.000781624
0.00179926
0.000196082
0.000348496
0.00258376
0.00140331
0.00209827
0.00158585
0.000366199
0.0048205
0.000752098
0.00115546
0.00330124
0.00443582
0.000216217
0.00112634
0.00518822
0.000502235
0.0010398
0.000479958
0.000366757
0.000964636
0.0015417
0.00333936
0.00112461
0.00396478
0.00316633
0.00018089
0.000185804
0.00161735
0.00164509
0.00125737
0.00254954
0.000711345
0.00226784
0.000862803
0.000668884
0.00106746
0.000623633
0.00267416
0.00183778
0.000366304
0.000229929
0.000277259
0.00148256
0.00172919
0.00280166
0.000292038
0.00391833
0.00135635
0.00143423
0.00349206
0.00360693
0.00642905
0.00168797
0.0025346
0.00614341
0.000161648
0.00372606
0.00366801
0.000312636
0.00189572
0.000129524
0.00148568
0.000293859
0.00307395
0.00120375
0.00148335
0.000881567
0.000469421
0.00091445
0.00316542
0.00058778
0.00136627
0.000242727
0.00547216
0.00119797
0.00189794
0.00173276
0.00104782
0.000971369
0.0039884
0.00396641
0.0010132
0.00283275
0.00478733
0.00162753
0.000546221
0.00183835
0.00106715
0.0024231
0.00380964
0.00112719
0.00146922
0.00171662
0.000454836
0.000525346
0.00141069
0.00395463
0.00454498
0.00475743
0.00500736
0.000883784
0.00123494
0.00148998
0.00146395
0.00390725
0.00327271
0.000222052
0.00171887
0.000824698
0.00153698
0.00133645
0.000670816
0.0021882
0.0027971
0.000177033
0.00173628
0.00011436
0.00136841
0.00101534
0.00103102
0.000790201
0.000800905
0.00116716
0.0032794
0.00110879
0.00581721
0.000555108
0.00151738
0.00284917
0.00176231
0.00319576
0.0011332
0.000906902
0.000516303
0.00334555
0.000141737
0.00462013
0.00168726
0.00333405
0.00103096
0.000127681
0.000129212
0.000118075
0.000126975
0.000269619
0.000238619
0.000279012
0.000264716
0.000123413
0.000246012
0.000253535
0.000116626
0.000108338
0.000103991
0.00153314
0.000104765
0.000110695
0.00167633
0.000195618
0.00177219
0.000169372
0.000272898
0.00475378
0.00341737
0.000580912
0.000486958
0.0003949
0.0051028
0.000394506
0.0029573
0.00114252
0.000223798
0.00246496
0.000175815
0.00292023
0.00416043
0.000206243
0.00152021
0.000916503
0.000290015
0.000414145
0.00554995
0.0018694
0.00444352
0.00408463
0.00162611
0.00297336
0.000511604
0.000864551
0.000708601
0.00411605
0.00161558
0.000893626
0.000245626
0.000294347
0.00481452
0.00312385
0.000113242
0.00663714
0.00376545
0.0032851
0.000265365
0.000286514
0.00231787
0.00134705
0.00161795
0.00043172
0.000414583
0.00158111
0.000599949
0.000198296
0.00127062
0.000151143
0.000169617
0.00202166
0.00044107
0.00110294
0.00145838
0.00088586
0.000430342
0.00239468
0.000772156
0.000341294
0.000645991
0.00035794
0.0010729
0.0015127
0.00173892
0.000788271
0.000760359
0.0018917
0.00167018
0.00142912
0.00536597
0.000205205
0.000138547
0.00290523
0.00235006
0.000153951
0.00120409
0.00169641
0.00383206
0.000138306
0.00120999
0.000934352
0.000676341
0.0024398
0.00109231
0.000115648
0.00349423
0.00139973
0.000830602
0.00186489
0.00439639
0.00444387
0.000120806
0.00303913
0.00444842
0.00370927
0.00133197
0.000515073
0.00372897
0.000589664
0.00062321
0.000115623
0.00089892
0.00080516
0.000507413
0.00594763
0.00114482
0.00169258
0.000414309
0.000218134
0.00116228
0.000835774
0.00535173
0.00129536
0.00150569
0.000794662
0.00169195
0.000638532
0.00182378
0.000226026
0.000189177
0.00511299
0.00101009
0.00170773
0.00489162
0.0017161
0.00243603
0.000829257
0.00546056
0.00187486
0.00109818
0.00548955
0.000154354
0.000170988
0.00217719
0.00528589
0.00153492
0.00122952
0.000193829
0.000190687
0.00152075
0.0031267
0.00163297
0.00035758
0.000112693
0.000165591
0.00103555
0.00019194
0.00496398
0.00282369
0.00163746
0.00052706
0.00483405
0.000143907
0.000429747
0.000596673
0.000571439
0.000942872
0.000168583
0.000370575
0.0041064
0.00098116
0.000174022
0.000295109
0.00030916
0.00270931
0.000206063
0.00451148
0.00117357
0.000317511
0.00087331
0.00362071
0.000768712
0.000332901
0.00357245
0.000127754
0.00586344
0.0039808
0.000171855
0.000565357
0.00148714
0.00068548
0.000957864
0.00144702
0.000108292
0.00152537
0.00361801
0.000269032
0.000849211
0.000142895
0.000435748
0.000492868
0.000184281
0.00422627
0.000172389
0.00167019
0.000358247
0.000959529
0.00264689
0.00305336
0.00382618
0.000215812
0.00399145
0.00115039
0.000215738
0.000333331
0.000708145
0.00201698
0.000101273
0.00131698
0.00469206
0.000829955
0.000143356
0.00124002
0.0015961
0.00187614
0.000429059
0.00416337
0.000293491
0.00115094
0.00051286
0.000475794
0.000149227
0.000443424
0.00383998
0.00131273
0.00288885
0.00149308
0.00153028
0.0011295
0.000524597
0.000141151
0.000660415
0.00598962
0.00265157
0.00316651
0.000385039
0.00254905
0.000768814
0.00506711
0.0013678
0.00160634
0.00115238
0.000754329
0.000430114
0.00624009
0.0048082
0.00487214
0.000508912
0.00167437
0.00398625
0.00155074
0.00555064
0.000836059
0.00290503
0.00388923
0.00244955
0.000163322
0.00108048
0.0010739
0.00156845
0.00129782
0.00452508
0.000359696
0.000112983
0.00670403
0.00376202
0.000660363
0.000706591
0.000897773
0.00029765
0.00059698
0.000382963
0.0041004
0.00274462
0.000738446
0.000946939
0.000699264
0.0019656
0.000989745
0.0059271
0.00648616
0.00309989
0.00611247
0.0011811
0.000637739
0.00276311
0.0014787
0.00207263
0.00412903
0.00290198
0.00256227
0.00414268
0.00064172
0.00256257
0.000653051
0.0041403
0.00357498
0.000723428
0.00033873
0.00130371
0.000993219
0.00300392
0.000675338
0.000829963
0.00147667
0.000185816
9.61518e-05
0.000644412
0.00299091
0.000884924
0.000342121
0.00681845
0.00387436
0.00341422
0.000416775
0.000817347
0.000745008
0.00347395
0.00123915
0.0014727
0.00293266
0.00112607
0.000721052
0.00265987
0.00207595
0.00120999
0.001044
0.00108117
0.0065249
0.00321857
0.00101468
0.00551658
0.00527071
0.00325835
0.00010863
0.00363486
0.000186999
0.00291098
0.00302405
0.000154699
0.000363365
0.00472849
0.00251401
0.00301978
0.00181929
8.46752e-05
0.00316276
0.00166466
0.000963353
0.000376632
0.000141679
0.000516589
0.0038759
0.000932595
0.000590573
0.00217791
0.00557242
0.00172721
0.00066916
0.00269452
0.000786637
0.00136631
0.00418903
0.0012878
0.00144622
0.00208978
0.00103483
0.000419372
0.00553665
0.000440411
0.000774427
0.00248034
0.000111547
0.00128951
0.00103983
0.000819276
0.000824406
0.00168207
0.00540668
9.92604e-05
0.000960233
0.00078607
0.000179359
0.000646553
0.00248618
0.00111025
0.000794567
0.0039826
0.000488828
0.00299247
0.000960781
0.000788804
0.00405491
0.00402131
0.00193028
0.00417524
0.00062202
0.000490772
0.000831732
0.000405438
0.00115498
0.000478642
0.00159016
0.00324606
0.00314659
0.00576751
0.000106874
0.00118155
0.000783212
0.00104999
0.000854524
0.000170291
0.000720809
0.000194945
0.00372978
0.00112549
0.000604005
0.000448773
0.000668633
0.000768361
0.00158417
0.00178246
0.000405794
0.000774474
0.00126767
0.00106117
0.000851454
0.00048594
0.00118179
0.00078669
0.00336244
0.00174998
0.000275465
0.00124551
0.000513894
0.00227703
0.000367626
0.00147481
0.00154264
0.00541617
0.000683731
0.000873556
0.00172453
0.00022352
0.000280935
0.000794378
0.000692467
0.000355805
0.000516618
0.00181694
0.0017742
0.00123549
0.000456703
0.000675744
0.00108624
0.00648919
0.00318436
0.00160681
0.00122294
0.000595585
0.00066144
0.000415615
0.0028783
0.00262634
0.00045688
0.00129254
0.000615501
0.00121274
0.00102242
0.000712547
0.000472791
0.000742638
0.00139764
0.00121764
0.00025086
0.00278195
0.000924777
0.00140278
0.00101716
0.000511274
0.00246234
0.00274566
0.0020628
0.000671704
0.000861353
0.000696156
0.00226691
0.000678568
0.000197363
0.00403006
0.00458163
0.0047349
0.000469672
0.000870358
0.00360841
0.0018258
0.00100857
0.000344307
0.000476806
0.000480976
0.000283636
0.000371876
0.000266088
)
;

boundaryField
{
    frontAndBack
    {
        type            empty;
    }
    wallOuter
    {
        type            nutkWallFunction;
        Cmu             0.09;
        kappa           0.41;
        E               9.8;
        value           nonuniform List<scalar> 
102
(
8.70145e-06
8.70145e-06
2.31305e-05
1.68659e-05
1.11952e-05
1.56354e-05
1.81947e-05
1.99907e-05
7.37365e-06
8.21028e-06
7.83647e-06
1.15259e-05
8.86049e-06
1.11428e-05
1.37237e-05
3.1719e-05
1.75803e-05
1.67208e-05
1.40857e-05
1.55088e-05
2.54904e-05
1.26715e-05
1.95473e-05
2.17278e-05
4.12859e-05
1.99469e-05
2.06759e-05
1.70679e-05
1.28817e-05
1.95335e-05
1.05915e-05
1.22443e-05
1.24747e-05
1.09145e-05
1.21889e-05
3.13312e-05
2.72675e-05
3.25646e-05
3.0739e-05
1.16088e-05
2.83169e-05
2.93227e-05
1.06312e-05
9.52501e-06
9.05061e-06
9.23278e-06
1.00804e-05
1.81709e-05
3.18595e-05
2.55793e-05
1.89415e-05
2.33346e-05
3.40923e-05
2.83966e-05
3.46673e-05
1.05188e-05
3.09406e-05
3.36695e-05
1.60351e-05
1.83834e-05
2.34819e-05
1.61069e-05
1.3905e-05
1.05118e-05
1.15966e-05
1.07594e-05
2.52071e-05
2.62593e-05
2.13121e-05
1.82767e-05
2.13771e-05
2.14807e-05
1.03059e-05
1.80301e-05
2.15245e-05
1.50054e-05
1.80332e-05
1.89041e-05
2.35333e-05
1.26712e-05
1.88697e-05
9.59714e-06
2.05688e-05
1.89168e-05
2.48778e-05
8.78148e-06
1.49318e-05
1.55932e-05
1.45998e-05
1.05186e-05
2.02006e-05
7.67941e-06
9.50388e-06
1.6211e-05
5.97936e-06
1.46839e-05
1.01953e-05
8.46166e-06
1.96843e-05
9.30504e-06
1.8341e-05
2.20351e-05
)
;
    }
    inlet
    {
        type            calculated;
        value           nonuniform 0();
    }
    outlet
    {
        type            calculated;
        value           nonuniform 0();
    }
    wallInner
    {
        type            nutkWallFunction;
        Cmu             0.09;
        kappa           0.41;
        E               9.8;
        value           nonuniform List<scalar> 
138
(
7.39733e-05
3.13675e-05
3.45324e-05
4.02694e-05
2.50017e-05
5.32921e-05
0.000104317
3.50165e-05
3.93631e-05
3.45651e-05
4.42789e-05
4.90547e-05
2.26628e-05
2.88986e-05
3.32441e-05
2.67978e-05
3.77378e-05
1.56921e-05
4.81055e-05
3.42385e-05
1.97312e-05
1.48965e-05
3.67407e-05
2.58759e-05
8.54346e-05
3.16638e-05
1.88552e-05
2.82223e-05
0.000131321
2.27632e-05
3.0187e-05
4.27248e-05
2.76749e-05
2.06657e-05
3.55284e-05
5.08516e-05
4.13054e-05
6.57701e-05
6.32449e-05
2.41779e-05
2.53224e-05
5.63689e-05
5.04936e-05
2.15616e-05
2.6301e-05
1.16113e-05
0.000102642
1.86362e-05
6.35256e-05
3.41613e-05
3.25695e-05
2.99859e-05
4.53472e-05
4.5656e-05
7.74393e-05
2.83999e-05
2.29213e-05
4.08677e-05
4.5994e-05
2.22438e-05
4.99445e-05
4.72232e-05
6.22644e-05
3.27946e-05
3.59963e-05
6.95039e-05
1.94132e-05
2.79553e-05
2.51375e-05
4.24924e-05
2.2241e-05
3.2282e-05
2.08461e-05
1.90458e-05
2.02572e-05
2.17913e-05
2.5312e-05
3.36391e-05
0.000144932
5.71533e-05
8.09177e-05
7.99275e-05
6.16651e-05
7.40255e-05
6.8659e-05
3.46673e-05
7.12858e-05
6.46721e-05
2.36153e-05
0.000135683
0.000103533
2.65463e-05
4.47998e-05
6.45908e-05
1.87194e-05
3.01199e-05
5.43599e-05
2.26487e-05
6.68506e-05
1.93016e-05
2.90396e-05
4.33245e-05
2.74647e-05
0.000103836
3.11171e-05
5.26974e-05
1.84115e-05
4.36425e-05
2.43311e-05
4.4011e-05
8.09372e-05
2.69273e-05
3.14894e-05
3.73809e-05
2.8318e-05
2.56444e-05
1.4476e-05
2.15738e-05
4.71195e-05
2.21351e-05
7.75373e-05
4.33009e-05
1.41078e-05
7.74529e-05
1.60105e-05
4.46148e-05
3.17546e-05
1.47417e-05
2.44664e-05
3.49506e-05
1.72053e-05
3.35121e-05
0.000119208
4.15951e-05
5.77069e-05
3.32947e-05
4.51298e-05
3.13116e-05
)
;
    }
    procBoundary2to0
    {
        type            processor;
        value           nonuniform List<scalar> 
42
(
0.00693368
0.00693368
0.000908348
0.000748728
0.00109303
0.00652407
0.000955594
0.000955594
0.00113057
0.00089629
0.00165373
0.00165373
0.00118391
0.0028166
0.00423351
0.00528633
0.00593619
0.000750967
0.00106949
0.00147932
0.000995957
0.000688545
0.000688545
0.000934133
0.000995957
0.000597007
0.00207341
0.000640532
0.00207341
0.0069922
0.00657538
0.000697593
0.000730766
0.000727419
0.000699663
0.000748728
0.00593619
0.00030941
0.0037264
0.000866676
0.000866676
0.000706219
)
;
    }
    procBoundary2to1
    {
        type            processor;
        value           uniform 0.00184017;
    }
    procBoundary2to3
    {
        type            processor;
        value           nonuniform List<scalar> 
29
(
0.000984744
0.00104022
0.000279727
0.000230067
0.00100751
0.000457711
0.000256946
0.00099872
0.00173223
0.00144686
0.000733322
0.00117513
0.000392903
0.00160702
0.0015049
0.0010655
0.00187707
0.00187707
0.00104022
0.00160702
0.00170613
0.00173726
0.000195921
0.00183953
0.000934283
0.00120176
0.00173223
0.00170295
0.00117513
)
;
    }
}


// ************************************************************************* //
