/*--------------------------------*- C++ -*----------------------------------*\
| =========                 |                                                 |
| \\      /  F ield         | OpenFOAM: The Open Source CFD Toolbox           |
|  \\    /   O peration     | Version:  v1912                                 |
|   \\  /    A nd           | Website:  www.openfoam.com                      |
|    \\/     M anipulation  |                                                 |
\*---------------------------------------------------------------------------*/
FoamFile
{
    version     2.0;
    format      ascii;
    class       volVectorField;
    location    "0.46";
    object      U;
}
// * * * * * * * * * * * * * * * * * * * * * * * * * * * * * * * * * * * * * //

dimensions      [0 1 -1 0 0 0 0];


internalField   nonuniform List<vector> 
1431
(
(-0.177951 0.465932 -2.94089e-17)
(0.737773 -0.232449 -1.61557e-16)
(5.67475 0.804887 9.89422e-17)
(-3.07571 1.84154 -4.19995e-17)
(0.0465495 1.20728 -1.41835e-16)
(3.87481 0.186729 2.09655e-16)
(1.3414 -0.52658 -1.84373e-16)
(9.70405 0.630273 -2.11606e-16)
(0.15625 3.42984 0)
(0.528823 1.25808 -1.1097e-16)
(-0.0340997 0.25471 0)
(-0.0351913 -0.668693 6.79101e-17)
(-0.763217 1.22597 0)
(9.02586 0.497068 1.86436e-18)
(0.187081 0.795442 -2.41886e-16)
(0.29172 3.00372 0)
(0.323934 2.40101 -2.93316e-16)
(0.156435 0.80247 0)
(-0.694718 -0.229434 1.23553e-16)
(0.0176441 0.213107 5.79155e-17)
(-0.224254 0.943576 -1.8088e-17)
(-0.0211768 -0.266885 -5.25109e-19)
(2.73147 1.74072 -4.25345e-17)
(8.73263 0.546613 -3.02306e-17)
(1.78198 3.40202 -1.13959e-16)
(0.0301802 0.187112 -1.62414e-16)
(-1.35006 4.86333 1.03906e-16)
(9.28777 0.447474 -2.44931e-20)
(10.8287 0.651192 5.70359e-18)
(-0.0442306 -1.05747 -4.84131e-16)
(7.55261 0.274427 2.32619e-16)
(7.04207 -0.164771 -1.73765e-16)
(-1.85267 0.415173 -1.13718e-16)
(-1.64922 0.43056 0)
(-0.461252 -0.662712 9.50854e-17)
(1.84313 8.6228 1.22627e-16)
(-0.00983279 0.132901 1.42916e-16)
(9.63625 -0.0083651 0)
(1.76308 0.450515 -1.4292e-16)
(9.55158 -0.00714071 0)
(4.94274 0.120913 1.31186e-16)
(0.821627 0.194699 -7.31197e-17)
(-1.4718 0.689607 0)
(0.315296 0.199736 -6.4936e-17)
(-1.08439 0.746676 1.50209e-16)
(-0.601913 0.613361 -3.83801e-16)
(1.44052 4.73907 2.08832e-16)
(7.11532 1.20265 -5.73554e-17)
(8.90435 0.522981 1.56417e-16)
(9.38404 0.0832112 3.55465e-17)
(0.596942 -0.792553 -8.31128e-17)
(0.937091 1.69016 1.07452e-16)
(0.443287 4.76718 4.74716e-17)
(-0.998329 0.807552 -1.55299e-17)
(1.84809 0.0568789 -1.08852e-16)
(7.90244 1.73022 0)
(1.64576 2.72036 5.24091e-17)
(0.446391 4.96791 -1.9026e-16)
(-0.419708 6.54533 0)
(0.0379126 0.471429 -8.07543e-16)
(0.629868 2.04287 0)
(0.173697 0.761533 -1.79373e-16)
(1.28669 7.58405 -1.35406e-16)
(10.5672 0.121483 0)
(9.95928 0.307094 -1.7712e-17)
(-0.847865 0.996897 0)
(6.19652 0.366575 0)
(3.92112 0.039489 0)
(-0.508832 -1.03235 1.45231e-16)
(10.7454 0.0900836 0)
(-0.911804 0.402441 8.55019e-17)
(-1.47727 -0.282327 -8.93221e-17)
(0.79352 0.50864 0)
(3.55615 0.190672 -2.26765e-16)
(1.64709 2.14555 1.46813e-19)
(-0.955769 0.309839 2.75855e-16)
(-0.14508 1.14008 4.90553e-17)
(3.55571 0.674759 3.17726e-16)
(9.96453 0.17454 1.25649e-17)
(1.0573 -2.99706 -1.97339e-17)
(9.91549 0.101096 -2.45114e-16)
(0.802151 -0.306175 -2.09696e-18)
(2.05922 -0.331932 1.86485e-16)
(1.11088 0.380445 -8.10915e-17)
(-2.71692 1.34612 4.33559e-17)
(0.0356044 1.13391 -4.89821e-16)
(0.137541 0.686351 -1.09685e-16)
(-1.18244 1.74038 1.47672e-16)
(8.36392 0.588648 9.10118e-17)
(0.0435569 0.262639 -7.38522e-17)
(-0.494773 0.477336 2.09127e-16)
(-1.69389 1.43729 2.26212e-16)
(0.149948 0.680707 0)
(9.70043 0.034565 0)
(1.3543 0.128872 2.01436e-18)
(-0.0756309 0.992926 1.64919e-19)
(1.25276 2.24536 -3.22968e-19)
(10.3421 0.555278 3.1854e-18)
(0.132965 0.39943 2.28967e-16)
(8.79342 0.484766 -4.41528e-16)
(-0.534747 -1.14924 -1.62211e-16)
(9.82287 0.176112 -6.50065e-17)
(-0.243418 0.308877 0)
(0.0656694 1.11446 2.53975e-20)
(-1.05213 2.69051 1.61487e-16)
(1.17036 -0.634437 7.13582e-17)
(9.9944 0.0691307 -1.02342e-16)
(4.63427 -0.0416773 7.52017e-17)
(6.82217 0.00927965 9.46113e-17)
(-0.0193635 1.24362 7.48324e-17)
(-0.592474 -2.57628 1.68065e-16)
(-1.41748 0.980116 -6.39707e-17)
(9.63243 0.861582 0)
(0.139896 0.44901 -1.88949e-16)
(-0.331427 2.93105 0)
(0.0477656 1.13482 0)
(0.141463 0.59471 0)
(0.283751 -0.249227 -3.90581e-19)
(7.89871 0.605086 -6.25921e-17)
(-1.61798 0.705613 -1.51315e-16)
(9.83679 0.26661 -1.95923e-17)
(0.426729 5.46146 -1.26237e-16)
(1.0677 2.28988 -4.31447e-16)
(8.73368 0.826953 -1.16214e-16)
(10.1047 0.176062 0)
(-1.1639 0.100431 -9.04169e-17)
(7.35275 0.590812 1.65531e-17)
(1.90077 1.27037 5.10505e-17)
(-0.34856 0.732977 8.55363e-17)
(10.6223 0.42665 -7.08783e-17)
(-1.01809 0.720083 -1.28251e-16)
(4.10746 -0.161005 2.46119e-16)
(7.10255 0.39054 0)
(-0.122546 0.275007 -2.00521e-16)
(0.109587 0.731612 -1.11821e-17)
(-2.07838 1.46977 -2.5098e-16)
(0.386172 0.607248 0)
(-1.54227 0.322945 1.11979e-16)
(-0.528597 0.410592 4.65778e-17)
(3.33057 -0.0782735 -4.05428e-16)
(-0.0116806 2.62172 0)
(0.184479 0.391048 3.51735e-17)
(10.5106 0.0591213 -7.38483e-18)
(8.85074 0.368716 -2.01618e-17)
(8.52073 0.14155 0)
(11.3665 0.286399 4.28707e-17)
(10.3308 0.37091 3.31959e-17)
(4.42493 -0.0693592 0)
(0.155807 0.539881 -1.40571e-16)
(9.28036 0.936577 -5.15754e-17)
(10.8371 0.0439551 7.69583e-17)
(9.86907 0.426704 -1.53619e-17)
(0.0412994 0.113527 -1.94903e-16)
(2.66734 -0.693037 7.9723e-17)
(0.405145 0.354666 1.78829e-16)
(1.53444 1.20953 -3.52639e-17)
(10.0647 0.113457 8.46061e-17)
(0.0527317 0.248284 -4.72603e-16)
(9.52383 0.970245 0)
(9.44365 1.18138 -9.48521e-17)
(0.286653 0.855186 -8.09307e-20)
(0.0760566 0.359051 4.99198e-17)
(-0.346814 0.379242 0)
(-0.295863 2.14372 -3.33911e-17)
(0.0575923 0.847755 -2.27925e-16)
(-0.745844 -0.441324 -1.78062e-16)
(-0.0362277 1.16444 -1.13968e-16)
(9.76077 0.109185 0)
(0.349745 -0.838546 3.83821e-16)
(-0.0911428 0.26594 -1.82778e-16)
(9.637 0.932507 -1.33273e-17)
(0.652849 3.18224 2.21178e-17)
(8.42553 0.55411 -1.14462e-16)
(11.0338 0.0514674 0)
(10.4937 0.0402065 1.40106e-17)
(-0.841164 0.285896 0)
(-1.11906 0.31886 7.69063e-17)
(9.24552 0.715708 -1.7393e-17)
(-0.235506 -1.18625 2.80308e-16)
(9.47112 1.12077 9.70628e-17)
(9.70809 0.341379 4.02023e-17)
(0.333271 0.625451 1.15235e-16)
(8.72471 1.7426 0)
(0.0257357 0.279416 3.99527e-16)
(11.2323 0.11909 9.38451e-17)
(9.82287 1.11712 -1.32631e-17)
(9.78134 0.726942 1.0043e-16)
(-2.82933 4.92302 -1.22385e-16)
(0.0287511 0.161779 2.27652e-16)
(10.2551 0.109145 -1.33111e-20)
(-0.114948 -1.05643 -1.5466e-19)
(0.51111 2.38238 -1.13424e-16)
(-0.204643 1.13586 -3.22657e-16)
(10.039 0.0449556 -6.18826e-17)
(-0.129991 2.66713 -6.10317e-21)
(9.98457 0.437737 3.88043e-17)
(9.99521 0.091209 0)
(7.13916 2.12387 -1.05295e-16)
(0.0601821 0.771347 0)
(0.241471 0.751661 0)
(0.203679 -0.580695 -2.04394e-16)
(2.8751 2.8182 -2.68456e-16)
(9.29789 1.04875 -2.68714e-17)
(3.5904 0.130397 -4.58629e-16)
(10.0136 0.055031 3.40119e-17)
(-2.29679 2.55929 -2.74628e-16)
(0.0165661 1.01131 8.92924e-16)
(9.75777 0.240355 2.41583e-17)
(1.16385 1.09399 1.42106e-17)
(9.11474 0.297722 0)
(10.106 0.0687201 7.67515e-18)
(9.90907 0.346808 6.08331e-17)
(7.91297 0.665915 1.35817e-17)
(9.84053 0.211799 2.31854e-17)
(2.02082 2.86901 0)
(0.295335 1.80253 3.22892e-16)
(9.40651 1.06956 0)
(-0.12386 -1.28658 0)
(-0.533339 -0.51968 0)
(10.1019 0.245121 -6.05913e-17)
(9.86072 0.178281 0)
(0.307574 1.28579 1.32744e-16)
(11.1021 0.0299677 -1.23508e-16)
(4.37298 1.20494 -7.30674e-17)
(10.7151 0.359357 0)
(9.32095 1.03389 0)
(9.35176 0.94893 -7.15589e-17)
(0.0161089 0.303687 0)
(10.5101 0.652637 0)
(7.60295 0.211463 -7.11407e-17)
(0.103024 0.980581 0)
(-2.76388 2.44995 2.95416e-16)
(10.6065 0.0908256 5.69598e-20)
(9.83498 0.509876 -1.82693e-16)
(9.74474 0.441126 8.39303e-17)
(9.78329 0.392656 4.72882e-17)
(10.4687 0.258625 -2.5517e-17)
(-0.330854 0.496248 2.04442e-16)
(9.82626 0.113562 0)
(0.600656 0.636349 1.8444e-16)
(9.4589 0.232639 -3.093e-17)
(9.38395 1.14415 8.05262e-17)
(0.140898 2.3226 -2.38533e-16)
(0.827414 4.53434 -2.76093e-16)
(0.659659 1.43061 -1.31812e-19)
(0.0853996 1.58822 9.43899e-20)
(10.5251 0.280529 -1.71586e-16)
(-0.307837 -0.582778 0)
(-2.12427 0.310994 0)
(9.96409 0.908112 0)
(10.062 0.984317 -9.13437e-17)
(0.173823 2.81157 0)
(0.469748 0.713798 1.22699e-16)
(6.25198 3.22118 2.05796e-17)
(1.25957 5.55711 -1.55088e-16)
(8.12347 0.0716081 -4.32893e-17)
(1.21748 -0.190111 1.70363e-17)
(0.29262 0.584548 6.56355e-19)
(8.26725 0.0138745 7.93926e-20)
(8.21634 0.0321699 8.39547e-17)
(8.08757 0.0930052 8.32613e-17)
(-0.440651 1.71734 2.45586e-17)
(0.0569064 0.558626 4.47233e-16)
(0.148374 2.80867 -4.61899e-17)
(9.73841 0.325509 -7.39135e-17)
(10.6296 0.555418 6.55148e-18)
(8.17324 0.0116431 -7.72536e-17)
(9.83575 0.917621 0)
(8.31761 2.75987 2.71888e-17)
(0.112723 2.1472 -1.60281e-17)
(9.72843 1.05902 0)
(9.0746 0.72671 2.98784e-16)
(10.2062 0.856852 2.64768e-17)
(10.2544 0.752476 0)
(8.02875 0.111363 -5.17212e-17)
(9.94039 0.665661 1.2676e-18)
(-0.310164 0.317689 -1.21335e-16)
(-0.563339 -0.975486 -4.66556e-19)
(-1.23728 -0.570469 -3.25514e-17)
(0.471571 1.85982 1.76043e-16)
(0.0558863 4.18927 0)
(0.502185 0.546852 -3.82124e-17)
(-0.439378 -0.581127 0)
(-0.191595 0.27677 3.2502e-16)
(8.22816 -0.000599645 -4.23541e-17)
(-3.4863 3.59579 5.16908e-17)
(0.0737 1.04955 1.08009e-16)
(9.11988 1.20239 5.02192e-17)
(10.197 0.843056 1.99358e-19)
(9.60306 0.202518 6.45305e-17)
(11.1447 0.438203 1.46894e-16)
(9.45767 0.00118871 -5.80741e-17)
(9.37968 1.05971 0)
(-0.401064 -1.5916 0)
(10.0163 1.05979 -4.24909e-17)
(9.34792 1.39025 4.55582e-18)
(-0.319369 1.03371 0)
(8.93668 2.0795 1.6162e-18)
(0.706558 0.581012 -1.88381e-16)
(9.48964 1.17332 2.74103e-17)
(9.60089 0.412479 2.75429e-17)
(9.15324 0.81966 7.1899e-17)
(2.64858 0.110747 0)
(7.92654 0.136444 0)
(0.290384 0.18604 -2.71135e-16)
(0.965281 0.508734 1.58535e-16)
(9.90366 0.130123 7.81587e-17)
(8.17144 0.0496127 -8.49016e-17)
(8.22705 0.0208644 -8.16556e-17)
(-0.378582 0.549105 1.65562e-16)
(9.62039 0.278073 -1.28553e-17)
(10.7918 0.212902 5.19351e-17)
(0.390154 -0.081703 -1.67631e-17)
(0.243864 0.260171 -1.85647e-17)
(-1.65295 0.917751 -7.71984e-19)
(0.996019 0.280183 -1.73327e-16)
(0.289869 2.28732 -4.89232e-17)
(1.07465 0.112545 -7.51314e-17)
(9.76629 0.336081 -4.42438e-17)
(-0.291176 -0.708576 -1.58074e-16)
(1.09926 0.587828 -2.51671e-16)
(-0.371437 -0.643274 2.39743e-16)
(-0.0636987 3.40434 8.64224e-20)
(1.21165 0.618463 -1.2089e-19)
(-0.164114 0.597471 -1.64259e-16)
(-0.406282 -0.854336 -8.30397e-17)
(9.81795 0.0764495 1.67639e-16)
(-0.540763 -1.06667 -7.07562e-17)
(7.62281 0.467405 0)
(9.73947 0.193511 -6.47402e-17)
(-0.102099 -0.553473 -9.69416e-17)
(1.94171 -1.51287 0)
(-0.152959 0.485033 0)
(-0.270241 -1.28516 1.66819e-16)
(10.2722 0.116084 0)
(0.0702648 1.56064 -1.36558e-16)
(0.544895 -0.55011 -5.86442e-17)
(-0.363488 -0.533048 0)
(0.955846 -0.572393 -1.58783e-17)
(-1.25404 0.512405 1.36433e-16)
(0.328882 0.605029 0)
(9.79667 0.09541 -7.56249e-17)
(-0.53299 -1.04433 8.17713e-17)
(10.073 0.23421 3.08838e-17)
(6.58614 3.60131 -2.53409e-16)
(0.185974 -0.25453 1.67848e-16)
(10.5146 0.250641 1.38052e-17)
(0.490334 -0.437692 1.58399e-16)
(0.252892 0.0942864 -8.27882e-17)
(-0.592081 0.226275 -7.09163e-17)
(1.82263 -0.0440635 -1.01196e-16)
(-2.15277 -0.0456167 -3.27375e-16)
(-1.52529 -0.331773 0)
(1.40035 0.229326 -1.35044e-16)
(-0.213371 -0.155533 0)
(1.95955 0.0872068 0)
(-2.18828 -0.107054 0)
(0.00554666 0.0779162 -3.70473e-16)
(0.666441 0.278898 0)
(-1.39412 0.0240144 4.05449e-16)
(0.741175 -0.230248 -1.75131e-17)
(-0.752578 -0.256219 1.25816e-16)
(1.60917 0.141219 2.05087e-18)
(0.463063 -0.0106304 -8.54052e-17)
(0.01871 0.141356 2.67515e-16)
(1.11427 -0.258337 -1.46589e-16)
(1.54178 -0.0920056 0)
(-1.44497 -0.0957165 0)
(-0.333622 -0.241321 -2.42821e-17)
(0.243581 -0.0754704 0)
(0.849348 0.0260889 5.6646e-16)
(0.0156418 0.600014 1.2459e-16)
(-0.402483 -0.709809 -1.41249e-16)
(9.95005 1.10874 4.9468e-17)
(-0.404799 -1.60487 0)
(-0.883544 -1.65414 1.78275e-16)
(-0.0332699 -0.664512 9.31484e-17)
(9.79593 0.3274 2.98267e-17)
(10.0048 0.0370353 7.75684e-17)
(0.273172 0.2363 6.05057e-16)
(-1.82458 0.235727 2.15963e-17)
(1.56756 -0.115302 3.28174e-17)
(-0.139604 0.161289 -2.42143e-16)
(-1.89835 -0.240359 0)
(-1.21853 -0.2681 1.16324e-16)
(1.68001 0.0295962 0)
(-1.55384 -0.0277425 0)
(-0.0557381 0.0593915 1.89438e-16)
(1.0711 0.282578 1.31079e-16)
(0.411717 0.0496186 1.57927e-16)
(-0.301838 -0.605009 0)
(2.08384 4.8577 1.77225e-16)
(9.65565 1.07103 -2.69542e-17)
(9.98808 0.0042099 0)
(-0.458086 -0.866094 -1.73357e-19)
(-1.9456 0.59364 -1.34051e-16)
(-0.40927 -0.258612 -1.55448e-16)
(9.94412 0.204205 0)
(-0.313507 -0.180191 0)
(10.4281 0.0792377 0)
(-1.21434 0.0593806 -5.16488e-17)
(-0.241509 -0.669814 1.69796e-16)
(10.0014 0.220014 2.62416e-17)
(1.26925 -0.465345 2.79938e-17)
(-0.419027 -0.581874 1.1133e-17)
(9.9416 0.896389 0)
(1.03187 -0.136393 1.01103e-16)
(8.57864 0.0194025 1.62016e-16)
(-0.308196 0.816867 -2.61863e-17)
(0.145767 -0.315005 -1.36509e-16)
(9.67968 0.0770859 6.16623e-17)
(-0.132081 -0.7869 0)
(-1.68001 -0.371508 -2.06351e-21)
(1.90968 7.44689 -3.851e-16)
(8.70303 0.212261 -2.13999e-17)
(1.72508 4.45397 6.38334e-17)
(0.154897 -0.698944 -1.53794e-16)
(0.273441 2.73703 2.10916e-16)
(-0.215138 -0.855881 -2.11432e-17)
(-0.406102 0.126848 -7.72536e-20)
(1.15824 0.393991 4.12999e-17)
(-0.384744 -1.40043 1.3163e-16)
(-0.289503 -0.57749 5.4718e-17)
(0.151174 -0.451099 -2.8435e-16)
(-0.324634 -1.42631 0)
(0.283697 -0.62839 1.55427e-16)
(0.35368 -0.308858 5.14008e-17)
(0.226995 0.265868 1.11257e-17)
(-0.348396 0.656871 -1.12908e-16)
(0.612512 -0.116857 -3.84734e-16)
(0.844029 0.695305 0)
(-0.0633654 -0.674501 -2.01005e-16)
(-0.2265 -0.377985 0)
(0.0426792 -0.158979 2.53019e-16)
(0.42577 0.326862 -8.92825e-18)
(0.556649 -0.307532 0)
(-0.409069 -1.2344 -1.95491e-16)
(0.20557 -0.0657811 2.77103e-18)
(0.445412 -0.617819 6.3491e-16)
(-0.285438 0.604937 1.72548e-16)
(2.08971 -0.172309 1.61946e-20)
(-0.048521 3.55989 -3.72134e-17)
(0.11242 -0.284267 0)
(0.193921 -0.430335 5.02449e-17)
(0.0595565 -0.808954 0)
(-0.281231 -0.368415 8.46255e-18)
(-0.219057 0.0612294 -4.89536e-18)
(0.219898 -0.976464 -1.1684e-16)
(0.255154 -1.40834 0)
(0.0795447 0.242157 1.65836e-16)
(-0.0259302 -0.0307578 -1.07782e-16)
(-0.408836 -0.917532 3.91533e-16)
(-0.156557 0.0373197 -1.48652e-16)
(-0.329537 -0.751666 -1.50056e-16)
(-0.360544 -1.32552 7.16341e-17)
(-0.421698 -1.01976 -2.18369e-16)
(-0.463835 -1.10407 -2.87867e-16)
(-0.456859 -1.07758 -6.47971e-18)
(-0.43973 -1.05988 0)
(0.400137 0.0567062 0)
(2.45422 2.15742 2.81345e-16)
(-0.312518 -0.490885 0)
(0.490908 0.609263 0)
(1.96102 1.32521 -1.77069e-16)
(0.42383 -0.24998 1.94317e-16)
(0.617317 -0.542811 -4.11544e-16)
(-0.101989 0.912148 -1.46243e-16)
(1.49794 2.83842 1.06855e-16)
(0.612639 0.846095 -2.09792e-16)
(0.0154084 -0.654019 -5.38585e-16)
(1.50163 4.95961 1.60375e-16)
(-0.0257497 0.580835 0)
(7.97105 0.0857946 -1.49856e-17)
(1.03486 6.94634 -5.603e-17)
(0.331944 1.35546 2.63858e-16)
(0.246457 -0.85275 -1.72552e-16)
(2.13872 7.12947 -2.67026e-16)
(1.94193 7.95307 2.39034e-16)
(0.879322 4.37806 1.58326e-16)
(-0.124637 -1.25818 0)
(-0.271956 -1.33174 -4.19295e-17)
(0.0327901 0.254393 0)
(0.66523 8.32553 -4.64212e-17)
(9.88095 0.38518 -1.73847e-17)
(8.66884 0.130216 -3.11717e-17)
(2.58075 1.52266 -1.17618e-16)
(1.58427 2.178 -1.15295e-16)
(-0.313869 -0.323778 1.2972e-16)
(-0.423277 -1.14767 -9.74241e-17)
(0.215324 -1.21316 0)
(0.146472 -0.926278 -1.11344e-17)
(-0.173373 -0.786085 0)
(-0.0553896 -0.901815 2.18073e-17)
(1.90303 6.84737 5.5345e-17)
(-0.133958 -1.05034 0)
(0.063995 -0.0527582 0)
(-0.45485 4.53757 0)
(0.281866 -0.804932 3.95572e-17)
(9.91778 0.166944 -1.29175e-17)
(0.429297 -0.782279 0)
(1.07561 2.43936 -1.31451e-18)
(-1.13534 5.81431 1.2581e-17)
(0.363476 0.309711 2.89985e-20)
(0.553094 -0.0616051 0)
(0.575433 -0.102967 2.30239e-16)
(0.277374 -1.40835 0)
(0.308731 -1.04013 4.66048e-20)
(-0.290762 -0.416429 -7.10409e-17)
(-0.256937 -1.02198 -4.0506e-17)
(0.0264241 3.75392 -6.80782e-17)
(0.100725 3.72961 0)
(0.29173 -1.22295 3.13566e-17)
(9.57955 1.23124 0)
(-0.5333 -0.323769 3.94704e-17)
(10.4992 0.122909 -9.00541e-17)
(-0.330987 -0.871236 0)
(1.33966 6.3043 -3.5886e-16)
(-0.665301 5.29901 7.10169e-18)
(-0.249046 -1.1871 4.05002e-17)
(1.16839 -0.327637 0)
(0.215118 -1.44823 1.65176e-20)
(0.422449 -0.878238 -1.23604e-16)
(0.223925 -1.15959 5.71049e-17)
(-0.455944 0.802664 -1.47033e-16)
(-0.771644 -0.0433079 1.04208e-18)
(-0.402476 -1.20278 0)
(-0.206055 -0.450212 1.68956e-16)
(-0.374659 -1.13776 0)
(0.436561 -1.04281 3.82527e-17)
(0.33165 -0.426218 -1.0642e-16)
(8.64342 0.171877 4.28923e-17)
(7.89054 0.162361 -1.24498e-16)
(0.574527 -0.645284 5.43589e-17)
(0.353573 -1.13627 -1.50294e-17)
(-0.425242 -1.02111 1.9353e-17)
(-0.354381 -1.23366 -3.70437e-17)
(0.385185 0.557509 4.21703e-17)
(0.484429 -0.413138 0)
(-0.236417 -0.36869 3.25115e-16)
(3.06341 4.13133 0)
(0.552039 -0.00347975 -1.44702e-16)
(0.627673 2.62445 1.68795e-16)
(-0.0323841 -0.706894 1.60718e-16)
(1.99973 1.59421 0)
(-1.44792 0.354874 3.76433e-17)
(-0.257427 0.0844856 5.74222e-17)
(0.362548 -0.0635792 2.84923e-17)
(9.75029 0.103412 0)
(-0.3757 -0.772275 0)
(0.226984 -0.930913 5.49601e-20)
(0.54361 -0.739899 -4.44487e-17)
(0.205132 0.0369197 2.22386e-16)
(8.14354 -0.0386035 4.10074e-17)
(-0.404783 -1.17352 7.13257e-17)
(-0.333403 0.264134 3.23205e-17)
(-0.500345 -0.592589 -5.46579e-17)
(0.270673 0.72396 -8.26939e-17)
(0.059119 -0.679596 -1.68782e-16)
(8.06287 -0.0356609 -5.13288e-19)
(9.21743 1.22198 4.45644e-17)
(-0.135401 -0.166678 -3.4211e-16)
(0.537023 -0.414778 0)
(0.0565969 1.33891 0)
(0.780582 4.10111 6.27048e-16)
(-2.22958 0.448227 -1.15261e-16)
(-1.09344 0.0158685 -4.39705e-16)
(-0.338922 -0.78236 0)
(9.65462 0.971109 1.26311e-16)
(1.03846 0.881693 0)
(0.587954 -0.13957 1.46807e-16)
(-1.7471 -0.405558 -4.86211e-16)
(-0.284663 0.186637 1.81817e-16)
(1.99709 2.45189 0)
(-0.291454 0.137997 9.94996e-18)
(1.41607 6.93151 0)
(-0.0210284 0.21821 2.76085e-16)
(-0.409097 -1.21259 1.03204e-16)
(-0.4056 -1.6226 9.74605e-17)
(0.53078 -0.271676 -1.45163e-16)
(8.73847 2.42999 -2.79397e-17)
(0.0762917 -0.352627 -4.53038e-18)
(9.74979 0.0819942 2.12503e-16)
(-0.509789 -0.598837 0)
(0.541459 -0.197816 -7.88412e-20)
(2.06344 0.364584 -1.93965e-17)
(0.608832 -0.411192 0)
(-0.178365 -0.519911 3.21318e-16)
(9.83464 1.0396 0)
(0.739838 -0.585577 4.13535e-18)
(10.7318 0.459408 -3.15415e-18)
(1.88677 2.11607 0)
(0.755668 4.83226 -8.08206e-17)
(10.0002 0.0808254 -1.05566e-16)
(9.75962 1.28323 0)
(9.60287 1.57059 -4.97036e-18)
(0.640638 -0.383745 0)
(0.0824657 0.312436 -8.86063e-17)
(0.12191 -0.812914 -1.68281e-17)
(9.70435 0.876712 6.80045e-18)
(2.36763 -0.714766 -1.60727e-16)
(-0.218453 -0.614833 -2.08466e-16)
(0.21536 -0.403552 -4.20048e-16)
(0.445871 -1.21787 -3.61982e-17)
(0.504976 -0.0584405 -6.13835e-18)
(0.476421 0.26731 6.72191e-19)
(-0.330524 -0.252573 -8.93318e-17)
(0.117749 0.466812 0)
(0.703437 -1.3076 1.59203e-19)
(-0.244188 0.598598 5.39777e-17)
(5.81718 1.31847 -4.28784e-17)
(7.07904 2.47284 5.9638e-18)
(-0.333901 -0.414962 -1.41976e-16)
(-0.77411 -0.144953 0)
(0.173103 0.4411 -1.70536e-16)
(6.48094 1.84167 0)
(9.75745 0.762862 -1.26523e-17)
(-0.241875 6.05838 0)
(0.171214 3.2484 4.34744e-17)
(0.311917 0.636727 -1.11361e-16)
(-0.370357 -0.685783 -2.19103e-20)
(0.632706 -1.67931 8.52603e-17)
(1.83665 0.43422 0)
(-0.255203 0.930486 2.93257e-16)
(1.4886 -1.57774 -5.01145e-17)
(0.0680585 -1.16451 -1.4889e-20)
(6.51235 1.64954 -6.09753e-17)
(0.559697 -1.91275 7.07214e-17)
(0.131041 0.130993 9.03736e-17)
(-0.392135 -0.887668 -1.27205e-17)
(9.75504 0.055847 0)
(-0.236097 0.621277 4.94156e-17)
(-0.41133 1.10182 -9.82321e-17)
(-0.471138 0.242644 -1.24833e-16)
(9.76222 0.0478123 -4.44498e-17)
(1.12489 0.723256 6.08575e-17)
(-0.40745 -0.981528 3.52309e-17)
(0.704131 -1.62864 -6.62866e-17)
(9.06085 1.2388 3.56429e-17)
(8.94826 1.71537 1.96997e-17)
(-0.622864 1.02302 2.43488e-16)
(0.619893 -0.0959832 -2.06124e-17)
(-0.0410382 1.68097 0)
(9.77701 0.0596916 1.75817e-16)
(-0.32532 -0.307835 3.40297e-16)
(0.106049 -1.37772 -1.81396e-17)
(0.439447 0.420848 0)
(0.647307 -0.148102 3.37213e-17)
(0.497768 3.96884 -6.44022e-17)
(0.849668 1.07692 5.86236e-17)
(-0.79202 1.12435 2.76621e-16)
(-1.38601 -0.545039 0)
(1.28344 0.489044 2.39546e-17)
(9.32255 1.84209 4.17381e-17)
(8.70268 1.05915 0)
(0.444249 3.41634 8.98328e-17)
(-0.400824 -0.953465 -6.3586e-17)
(9.75116 0.0733133 7.9008e-17)
(9.90618 0.176498 -2.15955e-17)
(-0.00152937 -0.741527 -2.55759e-16)
(-0.34655 -0.511186 -3.8263e-16)
(0.480619 -0.0883046 2.10059e-17)
(0.314004 -0.187851 9.51605e-17)
(-0.573976 0.694039 -3.52148e-16)
(-0.512896 0.581797 -1.51399e-19)
(9.75856 0.142436 0)
(1.22218 -0.550108 1.50275e-16)
(10.0131 0.085673 3.71222e-17)
(-0.207506 0.00503178 -5.89608e-17)
(-0.371789 -0.615631 1.41153e-16)
(0.459925 0.342577 -4.99047e-17)
(0.163535 -0.0487397 -8.92469e-17)
(9.77467 0.0920764 -2.47411e-17)
(-0.50085 0.880397 -1.77058e-16)
(0.356244 0.00999433 -2.44771e-17)
(8.60175 0.27381 0)
(8.75097 0.738046 7.78065e-17)
(0.529399 1.97134 5.87109e-17)
(2.40054 2.38266 1.2607e-16)
(0.185213 -0.732039 0)
(8.91991 2.06687 -2.98076e-17)
(0.320555 0.542963 -1.54163e-16)
(0.0807546 0.0724799 1.66224e-18)
(0.115035 2.14457 -2.5907e-17)
(-1.86919 -0.170031 1.69037e-17)
(-0.272469 -1.4875 -1.74668e-16)
(0.0408146 -0.215998 -7.61346e-20)
(-0.384457 -1.48693 3.27233e-16)
(0.461582 0.263918 -4.29474e-17)
(0.188005 -0.260537 0)
(-0.708763 -0.392991 1.40956e-16)
(7.0195 0.0925927 2.17196e-17)
(0.409578 0.0618886 0)
(0.584837 0.0733613 -1.96218e-17)
(-0.244412 0.365748 -6.65351e-17)
(-0.372957 -0.831229 1.04272e-16)
(0.940491 -1.93579 -3.09769e-17)
(0.392235 -0.0638765 -7.27718e-17)
(-1.09156 -0.601701 2.76227e-16)
(9.77053 0.118817 0)
(8.95759 1.26976 -5.76634e-17)
(0.562369 0.180739 0)
(1.2285 -1.73028 1.18881e-16)
(9.36095 1.05407 -6.33508e-17)
(0.909061 -1.67859 6.27512e-17)
(-0.00253321 0.774399 2.89708e-16)
(4.71331 2.86293 9.40429e-17)
(8.86906 1.36839 -3.09081e-19)
(-0.27955 0.0247713 -1.86209e-16)
(10.0082 0.0976288 -1.0681e-17)
(5.31309 0.325186 2.3833e-16)
(-0.253529 -1.33758 2.32724e-16)
(0.0241847 0.486764 4.04854e-18)
(0.642637 -1.28951 -8.69812e-17)
(-0.168632 -0.128855 -3.91378e-17)
(0.219277 0.642315 -1.01101e-16)
(8.09857 0.303098 5.51532e-21)
(0.368193 -0.515023 2.97903e-16)
(-0.100589 2.70676 -1.1121e-16)
(8.82357 1.26245 -8.6665e-19)
(-0.4599 0.491298 7.80986e-17)
(8.48514 0.335269 0)
(9.46669 0.135637 2.16022e-17)
(9.74312 0.106308 1.20865e-17)
(-1.21649 5.47637 1.31812e-16)
(-0.809946 -0.373645 -4.02222e-16)
(7.66555 0.299065 -2.24078e-17)
(-0.0137677 -0.0824143 0)
(0.0763354 1.13252 1.17454e-16)
(1.88554 0.157696 -2.59322e-16)
(0.41586 -0.150874 0)
(-0.526251 -0.637193 0)
(-0.10272 0.219333 1.53238e-16)
(2.38276 0.16848 2.41438e-16)
(2.79516 0.200119 0)
(-0.337965 4.45095 -1.69471e-16)
(9.45853 0.944298 -6.85018e-18)
(-0.208031 0.24955 1.76755e-16)
(0.166337 -1.43075 1.0924e-16)
(-0.270903 -0.0221486 0)
(-0.423127 0.4146 -3.4624e-16)
(0.446896 0.126349 1.59002e-16)
(0.0586668 1.86413 1.25421e-16)
(5.88619 -0.263891 0)
(-0.528112 0.39489 0)
(5.20309 0.110987 0)
(8.91939 0.356532 7.49127e-18)
(9.05984 1.59851 1.04974e-17)
(10.3699 0.748386 -1.29891e-17)
(9.21896 0.913851 7.08796e-17)
(2.90495 -0.448966 1.70372e-16)
(0.343593 3.08601 4.82021e-17)
(8.94423 1.35743 -1.28492e-16)
(3.24178 0.208611 0)
(4.03426 0.181924 4.75439e-17)
(-0.432643 0.410724 0)
(-0.555648 0.499377 -1.10058e-16)
(9.94368 0.0448143 5.66665e-18)
(10.9027 0.0535977 0)
(9.35624 0.102318 5.20918e-18)
(6.73471 0.540077 -1.59396e-16)
(2.73213 -0.294402 -2.93563e-16)
(6.87145 0.915885 1.18436e-16)
(4.54087 4.55535 0)
(3.09538 5.45709 1.66182e-18)
(9.48997 0.00563024 9.87694e-17)
(1.52327 3.42783 -1.54018e-16)
(1.06709 0.21705 -5.87195e-18)
(2.23053 6.51471 -3.54925e-17)
(5.38813 0.168412 6.59898e-19)
(3.6689 0.202325 7.73241e-19)
(-0.302485 -1.44251 -2.26896e-19)
(0.761608 6.40906 0)
(0.288603 0.220537 1.62355e-16)
(0.559512 -1.46238 1.40358e-16)
(0.091851 -0.153587 -1.73426e-16)
(4.9234 0.105568 0)
(0.260586 -0.0245936 8.53135e-17)
(0.95198 1.85456 2.97469e-17)
(-0.0726803 -0.561871 -1.54946e-16)
(2.22663 -1.06703 -1.4266e-17)
(2.26959 0.576406 -9.2e-17)
(-0.805422 0.351739 5.5551e-17)
(4.35549 0.153806 -4.91069e-17)
(0.0919704 3.4715 0)
(-1.01433 -0.201744 1.48745e-16)
(3.52469 2.51866 -4.45949e-16)
(0.192353 0.355649 -9.2637e-17)
(0.84052 -1.12452 -1.20867e-16)
(-1.57683 0.763704 -1.42957e-19)
(5.98437 0.454 -1.22135e-18)
(-0.371464 0.338193 1.79609e-16)
(9.53361 0.84502 0)
(1.4513 0.0444528 0)
(3.25465 1.62592 -9.56455e-17)
(9.99402 -0.00939139 2.69798e-18)
(9.84141 0.228649 0)
(0.348365 0.0568986 -8.48722e-17)
(0.191967 -1.64931 0)
(0.121193 4.64699 -1.08053e-16)
(9.78259 0.11946 2.4242e-17)
(-0.286594 -0.708319 2.03209e-16)
(0.300911 0.359629 0)
(8.693 1.20337 2.7407e-17)
(0.403643 -1.722 -9.89457e-17)
(0.284089 -0.0781038 8.15405e-17)
(1.7213 0.596555 -1.7257e-16)
(1.64391 7.81338 9.70779e-17)
(0.525006 0.726953 -3.38618e-17)
(1.11516 4.45114 3.59043e-16)
(-0.201509 1.01546 0)
(9.64333 0.156456 -8.11844e-17)
(9.75342 0.0825633 -2.62954e-18)
(0.921704 4.39411 -7.33789e-17)
(0.177077 -0.182316 9.17616e-17)
(2.44629 -1.68294 -1.13822e-16)
(6.11404 0.0482254 3.16692e-17)
(5.62305 0.21804 -4.3815e-17)
(4.58678 -0.295339 -1.98036e-16)
(5.2095 0.170469 0)
(5.57478 0.0557085 -1.4548e-16)
(7.20945 -0.04598 0)
(6.07529 -0.0789387 3.62442e-17)
(4.64802 0.125882 5.62704e-18)
(0.240161 -0.330132 -8.13452e-16)
(1.4497 0.193092 -3.28077e-16)
(11.0918 0.443559 4.98498e-17)
(1.70059 0.781035 -2.60254e-17)
(0.29333 0.525852 2.27962e-17)
(-0.447324 -1.06617 5.4996e-16)
(0.347197 -0.199004 -5.44967e-20)
(-0.903228 -0.437721 0)
(0.106221 0.260629 -1.97771e-16)
(1.38261 -0.560614 -3.32572e-17)
(0.319896 -0.0757046 0)
(-2.01214 0.397942 2.4565e-16)
(9.02972 0.551777 2.87975e-16)
(-0.181929 -0.912211 -2.19617e-16)
(8.27593 -0.011206 3.97288e-17)
(-0.975458 -0.158105 -6.19023e-17)
(-0.314868 -1.0273 -1.17537e-16)
(9.6088 0.738974 0)
(8.55826 0.90658 -3.96096e-17)
(10.3375 0.467147 0)
(5.89269 0.116509 0)
(0.878955 3.75677 1.11703e-18)
(8.59836 1.08617 1.05276e-19)
(0.669375 -1.01931 3.55757e-17)
(0.868345 0.164625 -3.97845e-16)
(1.03395 0.272885 3.12279e-16)
(9.64307 0.0311088 1.04488e-17)
(0.11728 -0.551823 1.30438e-16)
(0.680787 0.0107515 2.63928e-16)
(0.346098 0.376955 1.57838e-16)
(-1.0739 0.158008 -2.95961e-16)
(3.20303 4.84053 3.49903e-17)
(0.19845 0.104518 2.41267e-16)
(1.29345 1.543 -4.56372e-17)
(0.784719 4.8976 0)
(9.87111 0.218611 0)
(9.43531 0.0121389 5.70038e-17)
(9.73127 0.0597411 -8.31932e-17)
(-0.305113 0.308605 -2.30209e-16)
(1.2409 -1.31883 -3.14719e-17)
(-0.797287 0.285028 3.2533e-17)
(1.51018 -0.0772772 0)
(-0.226969 0.858028 0)
(9.86367 0.263144 6.1963e-17)
(8.33526 1.78516 0)
(0.392768 -0.155242 -7.97071e-17)
(-1.46102 -0.261107 -2.27908e-16)
(8.51422 0.411236 1.57232e-17)
(1.77966 7.3368 0)
(-0.43812 0.49448 2.85633e-16)
(0.690551 -0.19852 0)
(-0.172462 0.511878 1.76935e-16)
(8.44194 2.2536 -9.75418e-17)
(-0.852807 0.995792 0)
(2.13999 0.735831 -9.55171e-17)
(-0.572375 -1.23393 -6.7514e-17)
(9.73621 0.0603811 -7.46999e-17)
(0.110174 0.0698927 1.84807e-16)
(-0.422627 0.584203 0)
(-1.18953 1.06864 6.85212e-17)
(-0.707985 0.600033 -7.35344e-17)
(10.5087 0.098853 0)
(-0.193598 0.586674 0)
(-0.0570274 0.151973 2.45719e-16)
(-0.404126 0.765471 -1.2093e-16)
(0.313181 0.890587 0)
(6.76555 0.0740592 1.79739e-16)
(9.24242 0.132371 0)
(-0.998389 6.1863 -1.24345e-17)
(2.6086 0.86779 -1.09062e-16)
(9.67803 0.128011 6.11209e-17)
(-0.0301731 0.198876 -2.11988e-16)
(4.05919 1.66625 -2.81443e-16)
(-0.00619534 0.45386 -1.18345e-16)
(1.06191 -0.846522 0)
(-0.339617 -1.51144 -2.09854e-16)
(1.74808 0.422419 2.69768e-17)
(-0.0561355 -1.03323 0)
(0.047092 -0.899137 -1.84239e-17)
(-0.499265 -1.14313 1.8219e-16)
(-0.438875 -1.06718 6.86064e-17)
(1.4156 0.0718002 0)
(1.72196 -0.000720132 7.42208e-19)
(11.1636 0.187507 -4.67345e-17)
(-0.166759 0.28063 3.93747e-17)
(-0.220132 0.811913 5.1402e-16)
(-1.05679 -0.109311 8.89205e-17)
(-0.429235 0.693527 3.4221e-16)
(9.73751 0.0842622 5.8179e-17)
(-0.109899 4.44357 0)
(1.38543 -0.280887 1.99819e-18)
(-0.535466 -1.18546 -1.8865e-16)
(0.188153 -0.348845 -3.10642e-16)
(-0.249216 -0.52728 -9.88592e-17)
(9.41032 0.0286085 9.78872e-20)
(0.648082 2.18191 0)
(0.845361 0.765617 4.87417e-18)
(-0.36727 -1.36603 -8.95303e-17)
(9.93225 0.240659 2.7485e-17)
(-0.42497 0.40538 2.42635e-16)
(9.7272 0.0373691 4.284e-21)
(9.74867 0.139249 0)
(7.75244 0.170076 4.7437e-17)
(0.0911592 1.06505 0)
(5.79794 -0.0445661 -1.94137e-16)
(0.0782271 1.50939 -1.76271e-16)
(1.8446 0.0771878 0)
(0.207644 1.006 -8.24879e-17)
(8.43412 1.42302 -1.93301e-17)
(0.0528093 0.465547 1.14239e-16)
(-0.0171076 0.0709867 -1.06973e-17)
(-0.0449324 0.0935278 0)
(-0.111887 0.0547367 1.10078e-17)
(0.257744 0.471957 2.14922e-17)
(0.00284311 0.107396 4.36844e-17)
(0.00790063 0.0923453 -9.16464e-17)
(-0.139066 -0.341976 2.06869e-16)
(0.235887 0.0290769 0)
(-2.08496 -0.115578 2.60076e-16)
(9.7025 0.0710278 1.06953e-17)
(0.00888767 0.0723434 1.82986e-20)
(-0.211346 0.71225 0)
(0.300861 0.0603911 7.6056e-17)
(0.330499 -2.64457 1.31702e-18)
(-0.0848077 1.22346 -1.95439e-16)
(0.800561 0.235433 -4.24065e-18)
(-0.0308724 0.209416 -2.15284e-16)
(-0.199353 0.536555 -9.1306e-17)
(0.00931141 1.0244 -1.13205e-16)
(0.00733165 3.41954 4.87317e-17)
(-0.121266 -0.391033 3.30037e-16)
(1.70922 4.74361 0)
(0.504566 -0.754273 -1.63511e-16)
(0.00360071 0.0482444 -1.33778e-17)
(-0.140544 0.895173 3.55979e-17)
(-0.215441 -0.508284 -1.08095e-16)
(-0.840192 1.16397 -3.57801e-17)
(0.848956 3.95135 1.29954e-16)
(0.0131084 0.984415 7.86543e-17)
(-1.03709 -0.439695 1.1666e-16)
(0.825104 -0.029296 2.14714e-18)
(0.639953 -0.125111 -2.46344e-17)
(-0.0402985 0.130264 2.00524e-16)
(-0.00483597 0.0483781 -2.5833e-17)
(-1.82461 0.609468 -6.04161e-17)
(0.00475122 1.19974 0)