/*--------------------------------*- C++ -*----------------------------------*\
| =========                 |                                                 |
| \\      /  F ield         | OpenFOAM: The Open Source CFD Toolbox           |
|  \\    /   O peration     | Version:  v1912                                 |
|   \\  /    A nd           | Website:  www.openfoam.com                      |
|    \\/     M anipulation  |                                                 |
\*---------------------------------------------------------------------------*/
FoamFile
{
    version     2.0;
    format      ascii;
    class       volScalarField;
    location    "0.57";
    object      k;
}
// * * * * * * * * * * * * * * * * * * * * * * * * * * * * * * * * * * * * * //

dimensions      [0 2 -2 0 0 0 0];


internalField   nonuniform List<scalar> 
1431
(
2.27427
2.13254
0.262177
0.294249
0.397046
1.87181
0.0727512
6.36043
2.11717
0.0604989
2.45818
6.77106
1.73762
0.369552
0.932536
0.0685221
0.815176
0.323641
0.744667
0.449233
4.01749
0.641779
1.94674
8.46298
1.99969
0.622839
1.92681
0.704581
0.719472
0.575682
0.733521
0.894615
0.678458
0.200768
1.99314
0.0995069
3.86695
0.0949509
0.0836685
0.765626
2.34955
2.83782
1.3504
0.0714946
1.58217
0.5068
0.976517
1.7351
0.0840176
0.0997412
1.19283
0.0797459
1.35498
7.36523
2.14114
0.635199
0.325065
7.7057
0.9872
0.647076
0.786556
0.0483111
0.08859
0.0871334
0.0549183
0.0532806
0.546374
0.0679101
0.214493
0.488718
4.2313
0.229661
0.215189
0.155817
0.36482
0.434041
0.35121
0.0710308
0.0591687
0.371793
0.840325
0.277976
4.90299
1.25233
3.51301
0.494648
0.860614
1.1882
4.75751
5.75729
1.03421
0.472906
0.10865
0.0661934
2.30292
0.573683
7.1187
4.884
0.0666025
0.282859
0.945726
0.058164
1.00915
0.532726
0.0789772
1.07604
1.17307
2.28339
1.66864
0.988808
0.58806
2.10132
0.220782
2.11944
2.46454
0.413888
0.298573
0.236129
0.22391
0.0813069
0.639923
1.13204
2.78081
0.404991
3.09444
0.0598426
0.280651
0.867772
0.368586
1.40215
0.732693
0.207688
1.27161
0.648984
0.647973
0.115219
0.10551
0.0653535
5.17197
0.0951072
0.0783521
0.69658
0.899592
0.483822
2.16842
0.661397
0.107487
1.11654
0.0673937
0.562378
0.101823
0.288267
0.819747
0.209002
1.14879
0.113654
4.28142
2.53506
5.57039
0.855
5.74562
2.14764
0.500329
0.876268
3.12805
2.06928
1.97491
2.6504
0.0992903
3.90548
6.15187
1.2148
0.729421
5.38711
2.4831
4.0859
1.16385
1.69287
1.36465
1.89966
0.053832
0.0945601
0.844339
12.026
1.68755
1.0547
1.61952
2.95015
0.893157
3.92202
0.831714
0.918009
0.900531
2.7365
0.246865
2.87868
4.4656
1.74402
0.192077
1.19652
1.31585
0.615057
2.20139
1.0325
1.6026
0.878758
1.01807
0.147863
6.29887
1.01928
2.12291
0.418227
1.14414
1.08078
5.32182
0.463305
0.954067
1.77275
0.810393
2.05761
1.09668
0.895375
1.48074
0.76463
1.21573
7.89287
2.52655
4.4246
1.00913
1.39952
5.07879
0.717476
1.14489
0.85099
0.934064
6.3701
1.11105
1.11614
0.793278
0.998309
0.972969
1.45585
6.98122
1.00207
0.928248
1.32158
1.07415
2.14973
1.16205
0.105556
0.682076
4.74741
0.833467
0.423895
0.859414
2.69831
0.810801
9.06229
5.75256
0.938389
0.711213
5.12641
0.808677
1.06522
1.3344
2.57675
2.44885
3.72598
1.68628
0.2589
1.85906
1.0555
1.8688
0.813423
5.36899
0.706704
5.10153
1.54007
0.741911
0.899343
1.44842
3.72153
0.660054
0.801897
1.58433
5.4783
2.70348
5.34271
3.42854
1.82833
0.14533
2.56281
4.11439
0.938711
1.09618
0.977074
1.98174
1.20925
0.469839
0.803706
1.30268
0.0841839
1.6012
0.860933
1.58163
0.778146
2.1266
0.925891
3.14638
3.34633
3.10535
0.064958
0.0573199
1.38396
2.23338
3.98412
1.76019
1.84327
0.202425
12.4636
1.84146
3.4512
0.193762
0.636578
1.83908
0.204636
0.195831
2.45139
8.23135
0.489049
1.00122
0.360658
2.40421
0.875753
0.923708
0.957987
2.51196
6.2169
1.83834
1.28834
0.0803826
1.07225
2.59684
2.21311
2.08153
1.02684
1.64763
5.10022
2.62054
0.908099
1.56747
0.493619
0.779612
1.94219
0.611919
0.505752
3.463
1.75891
4.41036
2.54042
0.763271
0.94815
0.891168
1.34328
0.250299
2.13967
2.16837
13.0805
1.01518
0.737212
2.34835
0.540121
5.27021
1.2819
2.22806
10.4256
2.15646
0.550648
0.808234
11.7161
2.52839
1.80706
0.390702
0.668071
14.386
2.04087
1.61762
2.03487
1.6947
1.31817
1.0424
1.656
1.63574
0.730788
6.0141
0.975752
2.47102
2.61704
2.18885
2.02393
2.14786
2.2096
4.86899
2.67601
0.341407
2.24396
1.85324
0.18927
1.4006
2.14761
2.43459
1.85177
2.06144
1.36215
1.97542
0.299479
1.7356
0.183454
1.95267
1.98141
1.34265
1.7541
0.83936
1.81481
1.91192
0.618777
0.410841
1.03811
0.305284
7.10742
3.52158
3.83301
3.88959
4.09338
3.86605
3.5728
3.51773
3.47064
3.2681
3.33687
0.629229
4.82572
0.55922
0.409712
0.260741
0.203628
0.135845
0.162037
1.19352
0.716209
0.706857
0.102646
0.0899383
0.430594
0.105303
0.0785872
0.927134
8.02797
0.435594
0.60974
0.785449
0.101807
7.59304
0.0726492
0.692918
0.105536
0.472158
7.2871
0.107404
6.93545
0.0649084
0.0694742
0.458212
1.30358
5.13408
4.67911
0.122993
0.108098
0.140446
0.0700778
1.21957
0.128499
5.15022
0.0895144
0.139901
1.26247
0.371035
0.137265
0.452479
0.113612
5.30745
0.0779335
0.387829
0.129636
1.25789
0.312885
0.319791
5.18527
0.103812
1.12701
0.396659
0.198205
0.622925
0.117423
4.87463
4.67305
0.549432
0.141969
0.166632
0.694475
0.138441
1.20416
0.265031
0.342249
0.135129
0.461384
0.34891
0.149298
1.44091
4.70045
1.5397
0.280123
1.26166
0.665321
0.237503
0.7361
4.38861
0.752277
0.636215
0.209359
1.56602
0.877276
0.584051
2.30245
3.10672
0.306776
0.476681
1.77381
0.232674
0.779883
2.06385
0.339691
2.24301
0.562507
1.65352
0.571049
1.0681
1.56283
2.27954
3.42733
1.60268
0.178364
2.18519
1.87711
0.0971501
1.89837
0.744252
0.503565
1.63756
5.15881
3.52718
4.10757
3.70927
0.528106
8.10861
0.336842
0.530332
0.822666
1.02988
2.68198
1.65768
2.52164
3.02709
0.297322
0.196615
1.69277
0.664585
1.89461
2.69333
3.72484
1.7208
2.0153
1.69662
1.83961
1.95893
1.04852
0.923084
0.763517
0.21979
1.0071
1.82078
2.10641
1.16592
1.15194
1.25771
2.68843
1.06962
1.66203
3.60964
5.78215
1.61324
0.5001
2.09385
0.689661
1.92246
1.69495
1.54196
2.26698
0.325372
0.359582
0.709297
0.360775
1.59783
2.49687
1.9804
2.47343
3.47447
0.883938
0.963293
1.87662
2.86218
1.57446
0.18241
1.80799
0.532204
1.57617
2.9146
0.573399
2.22495
0.741125
0.90406
1.09143
0.0499571
2.80086
1.61773
1.85627
6.21923
1.15857
1.93939
1.16401
2.16852
4.32038
0.757909
2.03978
1.87773
0.506454
1.75964
1.74614
3.62658
1.71585
0.999356
3.37484
1.68719
2.01098
0.476362
1.70979
2.02112
1.67116
0.497685
5.66636
6.08084
2.75997
1.02287
0.904087
0.706605
1.26373
0.673556
0.273107
1.25028
0.523838
1.83614
3.0534
2.34973
3.16868
1.00057
0.986465
2.40807
0.956537
1.58336
1.1284
1.3966
0.482738
1.64275
2.36721
0.0865577
0.46521
1.79225
1.87284
0.619596
1.28728
2.75145
1.10247
2.15708
1.14604
0.905798
3.82222
2.38792
1.63145
0.806595
3.03017
1.88855
1.77263
1.81223
1.02014
1.73021
2.53073
1.52234
2.13195
1.27898
2.16673
2.07729
0.362438
1.29725
1.16447
0.202446
2.16496
1.14322
1.75411
0.619308
2.00888
2.32337
0.889621
4.64767
1.40329
0.108344
2.80997
1.98813
1.36354
2.28892
3.07718
0.103978
4.49693
1.83164
0.805649
3.18995
1.12452
2.10163
2.6639
2.39624
0.737108
0.581287
2.08842
0.940658
1.69562
2.97365
1.59814
1.27193
0.512284
1.88998
0.0630209
0.249806
0.939245
1.98722
0.0632706
9.80365
1.80676
2.28872
0.211487
1.87381
0.177589
10.3961
2.76665
1.25723
0.0996845
0.36738
1.20385
0.0661487
0.0724766
2.15493
0.760117
1.00822
1.11139
1.68078
2.08147
2.17784
1.20728
0.71774
0.479363
2.61278
0.745522
1.6931
0.0948089
1.34215
0.11277
1.47997
4.03121
1.61009
1.45492
0.754746
1.39362
1.93247
0.484227
1.01946
2.72745
0.989912
0.746133
0.623603
1.17463
0.655106
1.45552
0.79419
1.05483
0.482857
3.32228
2.88125
10.6078
0.985043
2.02233
0.381448
1.63445
12.1478
1.13712
1.11427
4.84561
3.22591
8.58166
1.91597
0.598596
3.92055
2.02561
0.209201
2.59705
1.22469
2.80666
1.67307
0.588088
2.66605
0.691165
0.546236
0.0971128
3.62253
2.89357
2.4512
0.779687
1.4654
7.41434
1.24176
4.09152
1.92428
0.537365
1.48829
0.125229
0.115222
0.931458
1.6556
6.32404
0.103104
9.38093
0.609625
5.17368
1.07419
0.712888
0.487027
0.681822
0.503882
0.0728177
1.54608
1.82124
0.38687
0.097621
0.592756
1.60231
1.85663
1.08873
2.11768
2.29216
2.08379
0.0677311
4.96295
2.20398
2.91165
9.4427
2.75268
1.39188
1.23003
0.554375
0.0854219
1.66399
2.20205
1.90743
6.65038
0.481065
1.94309
2.38451
9.81526
8.11565
5.92344
0.884272
0.668085
0.675977
0.658888
0.665662
0.995262
0.651104
0.564148
0.574637
0.567562
0.581454
0.743563
1.08548
0.59201
0.620147
0.654203
0.590492
0.63456
0.618607
0.585813
0.604197
0.600985
0.580409
0.599415
1.82835
3.93756
0.101335
0.305793
1.62552
0.60198
0.417218
4.47246
0.971673
0.754573
0.480245
0.794921
0.189312
8.66275
1.136
0.257008
4.60169
1.67994
2.37245
0.87888
0.944191
9.3608
0.343421
0.591559
1.96991
1.47374
0.252366
0.262608
4.19767
0.592377
1.16084
1.69799
2.20498
0.559493
0.926673
3.37777
0.112981
0.0786252
0.572883
0.520635
1.32256
0.749411
0.572428
0.3384
1.40459
0.14804
1.07495
0.493875
0.159551
0.184673
4.50253
2.233
1.5231
1.56026
0.486507
1.3243
0.737884
0.575344
0.639989
0.559697
1.43035
1.13536
2.4737
0.173606
1.06401
0.44168
2.06315
0.0827085
13.7721
2.22555
1.04589
0.113888
6.61617
2.37333
5.90841
0.0678444
0.0724943
0.725979
0.499372
0.264397
1.69424
1.16224
5.97737
6.07779
0.5811
2.30771
0.476274
1.24381
0.910156
1.22594
1.13804
1.04107
1.31454
2.06354
3.08739
1.20226
3.35566
0.589452
0.103833
0.930238
1.70929
1.20266
0.181493
1.87313
1.50351
1.51443
0.319941
1.75061
1.52035
4.21149
5.90043
0.0697569
0.688889
0.577838
0.929067
2.5204
8.44584
0.570763
1.91941
0.69874
5.21423
4.50908
0.578655
0.501581
0.972964
1.85619
3.09252
3.61204
3.30277
1.60313
0.513327
1.89132
0.433347
2.76332
1.08159
3.20745
3.89227
6.672
4.3144
2.66267
0.190018
2.13695
0.989994
0.124253
0.640461
0.724431
0.695837
1.80973
3.71146
2.01406
2.10905
3.49931
5.20263
0.0911178
0.418387
2.50064
3.16077
2.24669
3.25297
4.19745
2.47362
3.24294
0.586631
3.23352
3.13437
3.14737
3.11228
2.94567
2.78269
3.26197
2.64769
0.172345
0.355933
0.31903
0.215195
0.268263
0.33376
1.51794
1.22474
3.59707
1.11486
2.83386
0.572888
0.563649
2.91148
0.0985333
0.10041
1.43237
0.0786809
0.971496
2.1363
0.613267
0.65865
0.425762
3.59275
3.60541
1.10216
2.13158
1.45841
0.528429
1.5902
12.911
1.00396
0.200181
1.3044
3.50709
0.121716
0.837142
3.77141
0.111078
2.44216
0.377934
0.724883
0.648688
0.566956
1.08361
0.462658
0.341785
1.13439
0.377509
0.312722
4.00001
3.51112
0.109664
0.75413
1.08884
2.65568
0.0967898
3.44688
6.00175
1.73785
4.14033
1.1343
0.59793
1.54674
2.9467
0.713655
1.98829
1.37955
2.24381
3.38833
0.571915
0.929146
0.54256
0.0693671
3.16604
0.649531
1.47211
2.53564
2.40409
5.00711
4.99457
0.845685
1.3497
0.9107
0.2098
0.175393
0.595913
1.0027
0.485875
6.52966
1.84108
0.137464
2.56766
1.48866
0.524355
3.29863
0.168569
1.37456
3.69894
1.60805
2.09737
0.102382
1.63396
2.15254
3.46234
3.60296
2.50018
0.0692977
0.338464
0.999415
5.42227
5.2933
2.30428
3.06537
2.33266
0.457866
8.9297
0.393481
1.46827
1.1847
0.900476
0.342232
3.17636
0.578113
0.857838
1.17365
5.01284
0.321336
2.44803
0.982292
0.839574
0.596836
0.186928
0.67338
4.46811
0.978449
3.06382
3.80679
2.05771
1.833
1.57226
0.690021
0.424126
0.789741
0.360925
2.14345
3.22475
1.70727
14.4821
0.976036
1.64258
1.67716
3.32187
1.73918
0.0743253
0.397141
0.649222
1.69276
0.228568
2.12758
2.43082
1.98689
0.405987
1.30204
0.443603
0.643432
1.94281
5.28908
2.90171
4.77958
2.06289
0.374872
1.91103
1.82972
1.08709
0.51848
0.16549
0.478371
0.618115
1.65264
5.25001
1.78712
1.76172
0.0989783
0.565295
1.01714
1.7244
0.441242
3.2567
2.89627
4.08772
4.28481
0.279896
1.71952
2.16427
1.33535
3.69157
1.31299
0.662382
0.586291
1.05859
0.982088
1.24994
0.901236
1.09772
8.59677
1.04638
0.434426
1.32447
2.38207
2.1361
0.980533
1.05918
0.701397
7.77309
0.360622
0.52044
0.101804
13.0522
1.96374
2.87927
0.109198
0.686521
3.3986
1.8668
5.78014
0.241326
0.460384
1.30594
11.0473
0.394678
5.92795
5.73106
0.122753
1.41931
3.88731
6.63747
3.91929
2.80279
1.45788
0.242923
2.46366
0.836018
0.406741
3.25195
0.788506
3.19152
2.46204
9.05315
0.374016
0.619331
0.472061
3.75399
0.577382
1.14192
0.679313
7.93957
0.105723
1.25478
0.155679
4.02214
1.50977
0.950159
0.464457
0.508257
0.445776
5.25551
10.0402
0.428929
2.03537
0.482744
0.114012
0.498699
0.829193
0.36312
2.24977
0.499496
0.691854
0.740433
0.861752
5.65629
0.839263
0.526176
0.989293
1.04661
0.526729
0.565999
2.30692
0.638974
0.498555
0.709553
0.803678
0.972179
0.572287
0.393682
5.46206
4.5626
1.48843
0.392643
0.498082
0.479958
0.103598
1.04612
0.0972931
0.0962081
0.55465
0.577428
0.339864
0.54395
5.94716
0.964829
0.775766
2.02627
1.75121
4.52337
1.83385
0.546209
0.314695
1.22902
0.91977
3.00541
0.101005
0.191678
0.155656
0.131901
0.0838762
0.242858
0.0860019
0.155815
0.155992
1.68839
3.20406
0.978386
1.48802
0.253056
1.29626
0.522007
0.644292
1.60552
0.34795
0.304272
0.85251
1.53698
0.429091
0.0675811
1.06512
1.38405
0.75365
0.334484
)
;

boundaryField
{
    frontAndBack
    {
        type            empty;
    }
    wallOuter
    {
        type            kqRWallFunction;
        value           nonuniform List<scalar> 
96
(
0.719472
0.575682
0.573683
2.34973
2.40807
2.36721
1.28728
1.14604
0.905798
2.38792
0.806595
1.88855
1.02014
2.53073
2.13195
2.6639
2.39624
0.581287
0.71774
1.47997
0.746133
1.67307
0.588088
2.89357
2.4512
0.884272
0.668085
0.675977
0.658888
0.665662
0.995262
0.651104
0.564148
0.574637
0.567562
0.581454
0.743563
1.08548
0.59201
0.620147
0.654203
0.590492
0.63456
0.618607
0.585813
0.604197
0.600985
0.580409
0.599415
0.591559
0.749411
0.572428
0.575344
0.559697
2.4737
0.5811
1.20226
0.688889
0.577838
0.570763
3.09252
0.513327
0.433347
3.20745
3.16077
3.25297
3.24294
0.586631
3.23352
3.13437
3.14737
3.11228
2.94567
2.78269
3.26197
2.64769
0.172345
0.355933
0.31903
0.215195
0.268263
0.33376
0.572888
0.613267
0.566956
0.571915
2.50018
0.67338
3.22475
3.2567
0.662382
0.586291
0.394678
2.80279
2.46204
0.472061
)
;
    }
    inlet
    {
        type            fixedValue;
        value           nonuniform 0();
    }
    outlet
    {
        type            zeroGradient;
    }
    wallInner
    {
        type            kqRWallFunction;
        value           nonuniform List<scalar> 
126
(
0.9872
0.647076
0.786556
0.0483111
0.08859
0.0871334
0.0549183
0.0532806
0.546374
0.0679101
0.214493
0.488718
4.2313
0.229661
0.215189
0.155817
0.36482
0.434041
0.35121
0.0710308
0.0591687
0.371793
0.840325
0.277976
0.282859
0.413888
0.298573
0.236129
0.22391
0.0813069
0.639923
1.13204
2.78081
0.404991
3.09444
0.0598426
0.280651
0.732693
0.207688
0.0951072
0.0783521
0.899592
0.483822
0.107487
0.562378
0.288267
0.209002
3.12805
0.053832
1.0547
1.61952
0.246865
2.12291
0.2589
0.741911
0.899343
0.14533
1.98174
1.20925
0.803706
0.0841839
0.064958
0.0573199
1.38396
0.204636
0.195831
1.00122
1.28834
0.0803826
1.75891
0.94815
0.891168
0.18927
0.183454
0.117423
0.135129
0.209359
1.77381
0.339691
1.56283
0.178364
1.63756
0.196615
1.89461
0.21979
2.10641
1.61324
0.18241
0.0499571
1.87773
1.68719
1.73021
1.52234
0.177589
1.39188
1.66399
0.184673
2.40409
0.374016
0.619331
1.22902
0.91977
0.101005
0.155656
0.131901
0.0838762
0.0860019
0.155992
1.68839
3.20406
0.978386
1.48802
0.253056
0.522007
0.644292
1.60552
0.34795
0.304272
0.85251
1.53698
0.429091
0.0675811
1.06512
1.38405
0.75365
0.334484
)
;
    }
    procBoundary3to1
    {
        type            processor;
        value           nonuniform List<scalar> 
48
(
3.78802
2.12962
2.35041
3.28993
1.35317
1.89112
2.12962
0.84665
3.99753
0.367382
0.367382
0.426572
0.426572
0.682963
0.785432
0.421802
0.386589
0.452452
0.386589
0.300135
0.52796
0.397248
0.300135
0.974877
0.33349
0.208675
0.335571
0.397248
0.316501
0.474656
0.474656
0.416004
0.416004
3.99753
0.223413
1.26072
1.68193
0.33349
4.16803
1.14754
0.682963
2.78379
3.50786
0.300135
0.771415
0.777687
1.29338
0.63195
)
;
    }
    procBoundary3to2
    {
        type            processor;
        value           nonuniform List<scalar> 
29
(
0.12445
0.12445
0.083681
0.0658358
0.608412
0.0739953
0.191966
0.120328
0.119381
0.0909914
0.096662
0.618405
0.132669
0.409444
0.375159
0.36576
0.123961
0.119399
0.135023
0.398448
0.411172
0.123961
0.13225
0.119399
0.312584
0.0950891
0.119399
0.675035
0.675035
)
;
    }
}


// ************************************************************************* //
