/*--------------------------------*- C++ -*----------------------------------*\
| =========                 |                                                 |
| \\      /  F ield         | OpenFOAM: The Open Source CFD Toolbox           |
|  \\    /   O peration     | Version:  v1912                                 |
|   \\  /    A nd           | Website:  www.openfoam.com                      |
|    \\/     M anipulation  |                                                 |
\*---------------------------------------------------------------------------*/
FoamFile
{
    version     2.0;
    format      ascii;
    class       volVectorField;
    location    "0.24";
    object      U;
}
// * * * * * * * * * * * * * * * * * * * * * * * * * * * * * * * * * * * * * //

dimensions      [0 1 -1 0 0 0 0];


internalField   nonuniform List<vector> 
1466
(
(-3.32849 -0.190465 -1.33531e-16)
(4.91543 -0.031892 5.91753e-19)
(-0.104925 -0.663237 6.08048e-16)
(-0.762622 8.79691 -3.8724e-17)
(0.785348 -0.638565 -6.36308e-16)
(-3.1407 0.386852 -7.66128e-16)
(0.812423 -1.36978 1.77948e-16)
(0.809014 -0.232682 1.67683e-16)
(7.59273 0.117918 -9.06035e-19)
(5.96924 -0.608436 1.18303e-16)
(7.9746 -0.000739272 -1.38995e-16)
(5.37488 -0.991508 0)
(8.5599 0.0684292 0)
(0.606724 -1.24772 -1.43767e-16)
(-2.16662 0.167246 0)
(7.24124 -0.0494372 1.02696e-16)
(-0.318403 -1.18042 -9.82801e-17)
(0.115998 5.76687 -2.38272e-17)
(0.767974 5.51796 -8.53775e-17)
(-0.47414 8.54321 1.25458e-16)
(0.105177 8.46997 5.6275e-17)
(-2.38193 0.202185 4.76158e-18)
(-0.000344925 6.04309 -5.92128e-17)
(-0.606113 7.79024 -1.33774e-17)
(8.48512 0.151475 6.99973e-17)
(-0.961733 -0.179136 -2.72899e-16)
(-0.837469 0.732406 -1.19597e-16)
(-0.111373 8.79996 0)
(-0.391142 0.058689 0)
(4.81922 2.45015 4.90932e-17)
(8.96153 -0.379639 8.67178e-17)
(-1.11991 0.02226 1.48927e-16)
(2.37197 -0.383538 1.61015e-16)
(-2.16313 4.56658 1.85064e-16)
(4.79209 -0.182914 8.68322e-17)
(-0.645838 0.335552 2.81848e-16)
(-2.01259 3.81342 0)
(0.647577 -0.0472193 -2.92858e-16)
(6.55936 0.249432 -2.23605e-16)
(2.36117 0.564513 -2.80058e-16)
(4.27466 -0.29598 -9.9823e-17)
(-3.41986 0.0242249 -2.64045e-16)
(-3.82424 -0.0497955 1.37469e-16)
(4.50133 0.096679 8.30405e-19)
(-0.0528245 0.209921 -3.93422e-18)
(0.289092 -0.385417 0)
(6.51508 0.320393 6.32228e-18)
(2.22339 -0.0551436 0)
(-2.31955 -0.412241 1.17749e-16)
(2.27636 0.248041 0)
(-1.13363 0.491137 -9.46467e-17)
(4.7058 -0.026826 -3.29143e-16)
(-3.12958 -0.00951768 5.19081e-16)
(1.21464 -0.440458 5.83397e-16)
(1.79795 -0.142742 -8.52427e-17)
(6.6043 -0.0443472 1.16435e-16)
(-2.2141 -0.668175 -1.69828e-17)
(7.19349 0.174371 0)
(-1.94965 -0.72054 8.8617e-18)
(5.94322 -0.129394 0)
(0.37745 -0.433385 3.27338e-19)
(3.21714 -0.637045 -7.38003e-17)
(1.41033 1.17783 1.39697e-16)
(4.45803 -0.0844635 1.2107e-16)
(1.51203 5.54933 -1.8665e-16)
(1.3436 -0.74745 2.27628e-16)
(0.137512 2.02444 0)
(-1.15434 7.52572 2.24873e-17)
(7.62963 0.572881 2.73439e-17)
(-1.59203 -0.659048 -1.58267e-16)
(1.39682 0.616522 1.3165e-15)
(-0.127908 5.81741 0)
(-0.115356 3.87691 0)
(8.41023 0.22911 -1.43169e-16)
(0.0767162 -0.618444 3.14479e-16)
(6.46574 -0.0279177 -1.0538e-16)
(3.57908 -0.173756 6.44355e-17)
(0.76447 1.2414 -8.25002e-17)
(-2.64852 0.282369 0)
(4.00423 0.853242 0)
(6.06167 -0.0216274 -1.0061e-16)
(7.39808 -0.0329628 -1.19232e-16)
(-0.618102 -0.748937 -2.83511e-16)
(0.839639 3.0685 2.77734e-16)
(-0.388483 6.36361 1.0016e-16)
(0.727428 6.44722 4.07633e-17)
(-1.47506 3.91356 0)
(3.85375 0.303857 1.5555e-18)
(6.57335 0.240556 1.98492e-16)
(0.0106598 0.473622 -3.06476e-16)
(-0.741396 -0.229702 -1.00675e-16)
(-1.90529 0.485781 -2.13398e-16)
(-0.0909881 5.28968 -4.63911e-17)
(-2.09579 0.83278 -1.4586e-16)
(0.476982 -0.492962 0)
(0.785259 -0.502708 -3.52852e-16)
(4.76158 -0.0798962 2.84846e-16)
(7.24361 0.128067 -6.2364e-18)
(6.76958 -0.121888 2.92164e-16)
(0.344054 -0.170257 1.01973e-16)
(-2.34844 0.581116 4.40954e-16)
(-0.320909 -0.15799 0)
(2.00817 0.131387 3.23312e-16)
(-1.43352 -0.577754 3.29144e-16)
(-3.79397 -0.0939323 -1.02576e-16)
(1.03804 -0.161854 7.525e-17)
(-3.08119 -0.169573 -2.04552e-17)
(1.82028 -0.268919 0)
(7.05041 -0.365352 1.36577e-16)
(-3.03573 -0.528267 5.40211e-17)
(0.0865509 -0.448572 -3.11481e-16)
(5.18517 -0.0653547 3.44018e-17)
(-2.79309 -0.0692361 -2.38307e-17)
(-3.82222 0.0314522 -3.20926e-17)
(4.41378 -0.655484 0)
(0.227829 -0.178851 9.94242e-17)
(-2.98782 0.208616 1.24867e-16)
(3.46538 -0.0357925 0)
(2.12325 -1.20265 1.1594e-16)
(0.986747 -0.382805 -4.87209e-16)
(-1.46401 10.0094 -2.60678e-17)
(1.86702 0.551139 1.83036e-16)
(-1.44628 0.840926 -8.91757e-16)
(4.06309 0.0922901 0)
(-0.332324 -0.127001 -7.743e-16)
(-0.936871 0.197566 6.83783e-19)
(6.7536 1.04734 4.38677e-17)
(-0.0453628 5.88575 -6.22116e-17)
(-0.614186 6.69401 2.44044e-17)
(0.87073 0.485397 1.69594e-16)
(6.55012 -0.0874577 1.69387e-17)
(-2.61291 0.197654 0)
(-0.121472 6.19546 4.07621e-17)
(-0.551002 7.37537 2.90459e-17)
(-0.711016 -0.0275437 -1.52422e-17)
(3.39485 -0.0662803 0)
(3.37942 -0.183646 0)
(-0.384234 -0.628519 -9.44705e-18)
(3.58713 -0.497503 -6.559e-17)
(2.79856 0.231117 1.40642e-16)
(2.74861 0.106709 0)
(-0.0301251 8.75259 -5.33748e-17)
(-0.655248 8.22564 -2.30915e-17)
(0.31418 5.12151 -2.40096e-18)
(-2.2215 -0.109149 -1.91189e-16)
(1.02582 7.09066 9.09039e-17)
(-1.07457 0.0556796 -2.56434e-16)
(0.665266 0.373846 -4.31209e-16)
(1.58925 0.684511 -6.71383e-17)
(-0.903224 -1.39093 1.1389e-15)
(-0.654491 -0.138002 1.86397e-16)
(3.68052 0.0335862 1.28091e-19)
(7.20761 0.90297 -1.43556e-19)
(0.140492 -0.746779 0)
(1.57328 0.751234 0)
(-2.10822 0.385393 1.95506e-16)
(-0.354711 8.81241 -1.2532e-17)
(-0.925306 3.26533 -2.3092e-16)
(-0.55714 0.227122 9.95176e-16)
(5.88655 4.36684 5.90666e-17)
(-0.998896 0.153057 1.12806e-16)
(5.61261 1.4003 0)
(0.635055 3.21962 6.90682e-17)
(-0.349361 8.01076 6.57985e-19)
(2.67817 2.57846 0)
(-3.45104 -0.115197 1.13463e-16)
(-0.800104 8.31621 0)
(-0.133678 4.88489 2.00152e-16)
(-0.16712 7.51892 -2.64154e-17)
(2.42096 8.71212 5.80047e-17)
(-0.0683099 7.63796 1.79051e-16)
(-0.444592 0.181984 -1.18584e-16)
(2.05375 0.448975 3.49764e-17)
(7.52844 0.737404 -1.42157e-17)
(3.86731 -0.038972 -2.2514e-16)
(7.92509 0.153556 -2.75071e-16)
(5.08984 3.03809 1.58017e-16)
(3.70761 1.70883 -7.15831e-17)
(-0.169683 -0.414451 -4.29085e-16)
(1.00263 1.15143 -2.71131e-16)
(8.80983 0.184412 3.42188e-16)
(4.40787 -0.0958475 -2.20037e-17)
(-0.0526776 5.16964 -1.72234e-16)
(1.00992 0.562448 2.53798e-16)
(4.16573 0.219576 -3.93358e-17)
(0.311514 6.19914 -2.66883e-18)
(-0.307851 6.09598 -1.01253e-16)
(1.76167 4.21309 -1.55519e-16)
(7.49428 0.395118 6.73403e-17)
(-1.68968 0.609291 3.25213e-16)
(0.00463376 7.74097 -1.22336e-16)
(0.464659 -0.345135 7.66127e-19)
(0.773447 2.41135 7.24181e-18)
(0.734302 6.81726 2.37195e-16)
(6.30468 3.78095 -3.36471e-17)
(0.110723 -0.355566 0)
(-0.905473 0.0136318 3.52347e-18)
(3.94925 1.49397 -3.32148e-16)
(1.34481 2.41641 -2.89527e-16)
(1.77205 6.38127 -4.69471e-16)
(0.344615 1.69029 0)
(1.19298 0.524043 0)
(5.5132 2.27933 -4.19502e-20)
(1.03643 4.98321 0)
(1.64875 0.247929 2.25182e-16)
(1.79057 1.82678 -2.09123e-16)
(0.584343 7.71943 -1.00589e-16)
(6.77593 3.76984 0)
(-0.183579 0.376596 1.28747e-16)
(-0.529341 8.36863 4.62461e-19)
(0.439545 5.85667 8.00694e-17)
(-0.559852 6.931 -8.90814e-17)
(-0.123544 2.30715 0)
(-0.162185 8.27048 1.30421e-16)
(0.247348 8.20363 -3.52429e-17)
(-0.436697 7.9164 1.96572e-19)
(0.105126 6.18101 2.83847e-18)
(-0.221801 5.75638 -9.16812e-17)
(3.2356 3.85694 1.562e-16)
(-0.718478 7.9104 1.88602e-16)
(-0.152113 5.42448 -1.50951e-16)
(0.265291 -0.0656142 -1.32416e-16)
(-0.309426 7.57853 -1.93398e-16)
(0.581027 -0.354711 2.83845e-16)
(-0.219527 7.47301 8.41219e-17)
(3.47566 3.43248 -1.65862e-16)
(-0.301149 -1.48938 5.72603e-16)
(1.12424 1.07226 -2.35697e-16)
(-0.458366 -0.334284 -3.32709e-16)
(0.249578 -0.0887755 -7.4633e-20)
(0.804094 0.210233 -7.08097e-16)
(4.49294 0.121974 2.09512e-16)
(1.07436 5.58876 1.19727e-16)
(0.402099 2.52075 2.52117e-16)
(-1.08308 1.29505 5.07982e-17)
(2.34831 1.18561 -8.11108e-16)
(-0.730557 8.2507 3.37483e-17)
(0.0286683 4.99406 1.90853e-17)
(0.637823 0.478653 2.35453e-16)
(0.00766427 7.33841 2.31035e-17)
(0.229412 1.59835 0)
(4.431 0.797418 4.48154e-17)
(5.71247 3.21595 8.3637e-17)
(2.42775 4.87955 2.18298e-16)
(0.146525 0.273983 0)
(6.05639 1.29115 0)
(-1.17078 0.00114637 0)
(8.8077 0.356835 0)
(3.06138 0.859026 -1.1868e-16)
(5.92417 3.69566 -7.63482e-17)
(0.0446165 6.90078 -5.1503e-17)
(1.42521 5.80629 -2.7108e-16)
(6.90132 4.38762 3.60534e-18)
(6.9419 0.064749 -6.4408e-17)
(-0.772298 0.256739 2.88134e-16)
(0.426902 0.308926 -2.62981e-16)
(-0.492367 8.92103 0)
(9.17666 4.30952 -1.70473e-16)
(-0.227613 4.66024 -6.23842e-17)
(-0.0718419 2.54073 1.08537e-16)
(-0.088559 -0.724576 0)
(-0.13151 6.3223 -2.60277e-17)
(-0.437906 6.64226 -3.8722e-17)
(0.341108 -0.03843 1.08551e-20)
(4.58271 4.51338 9.37474e-18)
(1.25043 0.38253 -2.72524e-16)
(4.39884 -0.0954139 2.25125e-16)
(1.56702 0.766099 -1.18919e-16)
(0.535921 7.6273 -1.83805e-17)
(9.4773 3.85948 -8.35112e-17)
(1.78713 4.34594 -1.16143e-16)
(-0.172531 4.35858 0)
(-0.32347 -0.760391 7.23417e-18)
(-0.0700384 0.369227 -1.6749e-16)
(-0.939329 -0.0856864 -3.79399e-16)
(0.873887 -0.257881 5.44964e-16)
(-0.157722 -0.281976 -2.90573e-16)
(2.76055 5.78401 -1.27247e-16)
(-0.153545 6.97588 -1.18804e-16)
(2.07584 0.838199 1.82319e-16)
(0.219942 0.0572166 2.19869e-16)
(3.83896 -0.443814 1.99595e-17)
(2.47517 4.34551 0)
(5.56446 0.577594 -3.9898e-17)
(-0.00537027 -1.33366 5.01092e-16)
(1.86482 1.19495 -1.26982e-16)
(2.62956 1.27315 0)
(2.65725 1.26924 -3.34531e-16)
(-2.83764 -0.28986 0)
(7.88534 4.28402 -2.81689e-16)
(7.91839 1.2671 1.4155e-16)
(-2.97898 -0.152573 6.03384e-19)
(8.72947 0.137302 -3.58979e-16)
(-2.81009 0.0776451 0)
(3.96795 6.37378 1.07669e-16)
(0.857066 2.06718 -4.0694e-16)
(-0.0392644 3.7358 1.2434e-16)
(2.65148 0.399977 3.29962e-17)
(2.59266 1.22794 8.16135e-17)
(0.0934729 0.0630494 -2.84469e-16)
(0.936971 -1.08598 0)
(-1.22751 -0.464063 1.84763e-16)
(-0.585883 -0.309345 0)
(8.95558 0.422307 -2.15238e-16)
(-0.865086 2.15854 0)
(-4.70933 4.44566 5.70795e-17)
(0.398011 1.46917 1.29988e-16)
(-1.37099 -1.5628 -1.95802e-17)
(3.26813 8.43879 -2.74697e-17)
(-1.00074 8.62674 5.94163e-17)
(7.26286 2.01251 1.54945e-16)
(-0.154945 4.44745 0)
(-0.8936 8.08782 -1.08994e-18)
(3.01465 0.46996 -1.45729e-16)
(3.7434 1.91275 -1.95985e-16)
(4.78069 2.95521 -2.92534e-16)
(-1.35844 -0.134709 0)
(5.17971 3.6399 2.19563e-16)
(-0.889316 -0.108149 0)
(-1.15029 0.614447 2.97487e-16)
(0.0117417 -1.36431 0)
(-0.113519 4.04113 -1.26461e-16)
(0.100375 1.96629 -6.73425e-17)
(-0.0619384 0.0797409 3.52444e-16)
(-1.8321 6.11442 -2.441e-17)
(7.77275 5.53026 -8.87053e-17)
(2.29675 1.00359 -6.46396e-17)
(4.7033 3.81977 -2.23089e-16)
(-0.457121 0.0380696 -2.69737e-16)
(3.66446 -0.0490161 1.6738e-16)
(0.263035 6.26904 1.0072e-16)
(7.88041 4.90599 5.35557e-16)
(-0.27169 -1.45608 -3.93018e-16)
(3.64807 7.55434 2.3457e-17)
(2.412 3.39193 -1.61897e-16)
(7.51432 1.84641 6.15173e-17)
(2.65291 1.8248 -4.14257e-16)
(0.738035 0.439976 4.20134e-16)
(-0.684963 1.56109 -1.80661e-16)
(2.90309 0.700633 -1.18425e-16)
(-1.38523 0.581978 -1.11296e-19)
(6.58876 3.30597 7.01867e-17)
(-1.42637 -1.66882 3.718e-17)
(3.10951 3.33844 -3.48052e-17)
(2.10276 8.53508 -6.00272e-17)
(-0.842279 -0.215 -9.50677e-17)
(5.83718 0.473451 -1.87244e-17)
(3.79721 6.1354 -8.17106e-17)
(7.21419 0.267488 2.50511e-17)
(3.05504 2.8487 1.647e-16)
(6.60347 5.1806 -2.4639e-18)
(8.98542 2.95021 -4.66923e-17)
(-0.0349948 10.9142 -5.74892e-17)
(0.495233 1.35708 1.34517e-17)
(-2.42652 -1.28537 0)
(0.510767 1.97002 2.5099e-16)
(-0.840516 0.762931 -3.97108e-16)
(3.64717 0.429302 7.12725e-18)
(9.82834 2.68718 0)
(3.48962 7.4265 2.46302e-17)
(-1.52564 -0.403669 0)
(1.09865 3.23375 1.2166e-16)
(1.94474 5.24611 1.18921e-16)
(-0.218469 5.08947 0)
(-2.40619 -0.489523 -2.30137e-16)
(0.462528 2.21464 1.38872e-18)
(7.22113 3.10983 5.57004e-17)
(7.46014 2.66307 4.82015e-17)
(-1.2374 -2.13067 1.55681e-16)
(2.9225 7.2058 4.08139e-18)
(3.18272 8.9692 0)
(0.240095 2.27785 1.36014e-16)
(1.36532 2.99283 -3.36326e-17)
(3.18513 8.57238 -3.27234e-18)
(-0.543401 -2.00012 5.44449e-16)
(-4.1325 6.86832 3.67827e-17)
(4.1485 -1.24024 -2.35592e-17)
(1.22934 5.36289 7.4768e-17)
(-1.18883 0.907203 4.68689e-16)
(4.22069 5.32365 -8.51138e-17)
(-1.10367 3.93815 8.63775e-17)
(-1.25624 3.6224 -2.86894e-16)
(-1.17223 4.09125 -1.76536e-16)
(-1.32677 4.27259 2.5137e-16)
(-1.5944 3.99423 0)
(-1.35324 3.74621 1.40748e-16)
(-1.15691 -2.30579 -1.87657e-17)
(-0.332692 -2.19805 -1.93996e-16)
(0.407656 -1.26996 1.56026e-16)
(0.422274 0.018569 -4.23976e-17)
(-1.52101 2.49345 1.39435e-17)
(-4.33227 4.97162 3.34206e-17)
(-0.61416 4.0218 -5.13576e-17)
(-3.40659 4.38918 -4.21341e-17)
(0.0773594 0.464316 8.61386e-19)
(0.224969 -1.84468 1.12428e-16)
(0.561462 1.18473 -4.75055e-17)
(1.24298 7.08308 -3.00956e-17)
(0.0387242 -0.173314 7.99254e-17)
(0.898915 -1.24151 0)
(0.440636 1.81211 -1.55577e-16)
(1.29102 1.65222 1.74588e-16)
(2.19636 9.07773 0)
(-0.869115 -0.34578 2.95231e-16)
(1.76764 9.54674 -2.00983e-17)
(1.23005 0.176786 -3.54984e-19)
(2.13128 7.9637 -3.13359e-16)
(-0.0646009 0.661124 -1.21159e-16)
(4.60159 -0.0332771 0)
(3.9404 0.192558 8.31183e-17)
(0.263712 1.22077 -1.33346e-16)
(1.92814 7.21494 -1.38953e-16)
(1.53473 3.98765 2.52334e-16)
(2.60088 0.17552 4.69274e-16)
(3.65825 1.942 -1.04411e-16)
(-0.919358 -1.08237 0)
(-0.558365 -0.631384 0)
(1.51495 1.29949 1.24471e-16)
(0.616953 0.706946 0)
(-1.74887 -1.39605 0)
(1.96287 0.399213 -1.42134e-16)
(0.535008 0.393743 3.7207e-16)
(-1.86948 -1.66475 0)
(1.4052 4.90718 1.02886e-16)
(-0.553209 -1.7405 1.06789e-16)
(-2.96672 0.328469 5.56396e-19)
(1.00177 0.605846 3.81341e-16)
(2.05524 0.592065 2.67212e-17)
(-0.130725 -1.68766 -5.87348e-16)
(-2.36803 -0.840065 2.36293e-16)
(1.46669 -0.474953 0)
(0.266634 -1.69948 -6.35999e-19)
(-0.649248 -0.889802 5.53704e-16)
(-1.51763 10.8235 1.77929e-17)
(2.46058 0.116882 -4.67521e-16)
(-0.08383 -1.11498 -3.26903e-16)
(-0.955309 1.00388 6.40886e-17)
(-0.178482 -1.39576 -6.04312e-17)
(-0.118528 -1.20158 3.01732e-16)
(0.499197 -0.731735 -3.53253e-16)
(-0.492502 1.69869 3.58262e-17)
(-0.878618 1.64251 -7.199e-17)
(1.66302 -1.17193 2.57327e-16)
(-1.88238 0.712487 0)
(1.53075 0.105212 -2.8498e-16)
(-0.926365 -0.054732 1.31874e-16)
(8.87001 0.12183 7.60245e-17)
(2.49124 0.029122 0)
(-1.06724 0.361053 -7.88395e-17)
(3.23426 -1.45072 1.41065e-16)
(2.94564 -0.0659687 -1.43232e-19)
(-1.49213 0.642948 -9.67868e-17)
(-0.168166 -1.0901 -4.2256e-17)
(8.89802 0.152459 3.49593e-17)
(-2.04924 3.13737 -1.54276e-18)
(-0.603312 0.711733 5.15358e-18)
(0.0113503 -1.04274 0)
(-0.583741 0.0787911 0)
(-0.507993 0.0110804 0)
(1.65885 0.0479584 2.5343e-16)
(1.53218 -0.987697 -3.90533e-16)
(-1.04566 1.86907 -1.92903e-17)
(-0.171362 -0.85705 -2.22064e-16)
(-0.869274 0.345468 7.35772e-16)
(2.14394 -1.64242 2.04142e-16)
(0.0301037 0.792078 -1.2115e-16)
(-1.52137 3.4379 -1.02485e-16)
(-0.919899 1.35493 -3.02625e-17)
(-1.19477 0.938595 -5.36514e-17)
(-1.36679 3.25788 5.34056e-17)
(-0.963079 0.963308 1.24109e-16)
(0.315934 -0.488735 1.31638e-18)
(0.19493 -1.64445 -6.8935e-16)
(0.712198 1.14085 2.83747e-18)
(1.13555 -0.00360589 1.52158e-16)
(1.16199 0.938519 7.03949e-19)
(-3.62223 2.49833 -1.27956e-16)
(1.78202 5.0487 0)
(1.59131 2.24122 0)
(3.75383 2.42047 -6.98145e-18)
(2.67836 7.68923 -9.13636e-17)
(-1.02146 0.821212 3.22655e-16)
(-1.2198 1.66277 -2.86833e-16)
(1.81133 3.15531 7.79083e-17)
(2.68628 2.28977 -2.82999e-17)
(6.7507 4.93518 -1.76722e-16)
(0.94334 0.994943 -1.22906e-16)
(-4.31541 3.19244 1.31961e-16)
(0.0102307 1.9857 -1.28822e-16)
(1.58621 5.25433 1.12111e-16)
(2.25902 1.29166 1.34182e-16)
(-0.133319 8.90092 3.30575e-17)
(-0.583401 -1.95231 -1.83238e-16)
(-1.9385 3.7818 9.50266e-17)
(1.98456 4.75799 0)
(-4.4851 5.53803 1.92796e-17)
(-4.23227 6.10103 0)
(-2.15012 4.43243 5.31827e-18)
(4.44312 2.82798 0)
(-0.729327 4.6722 5.77907e-17)
(-1.69939 4.77405 0)
(-1.86723 5.80658 0)
(-0.37487 1.271 2.82632e-19)
(0.901642 -1.20943 3.09698e-16)
(-0.505177 2.51206 -1.95452e-16)
(0.027347 5.53123 0)
(2.32581 8.02798 0)
(2.35491 -0.038546 2.12096e-16)
(-0.0603425 1.12489 9.57368e-17)
(-4.61112 5.96891 0)
(2.03895 0.17591 2.54595e-16)
(2.77179 3.37132 -1.21967e-17)
(0.277763 5.0834 4.18618e-17)
(-0.846584 10.1486 -5.96356e-17)
(-3.67863 5.33794 -9.05055e-17)
(-0.521509 4.93025 -8.15138e-17)
(-1.17794 2.21742 -1.9742e-17)
(8.94548 0.163486 -3.24533e-16)
(8.47751 0.301403 8.06144e-18)
(0.105553 -0.803608 7.15725e-16)
(-2.42654 5.34381 -4.5775e-18)
(-1.28297 1.36246 2.09934e-16)
(0.977855 4.28569 6.45076e-18)
(5.61089 4.95076 0)
(2.43347 4.35436 0)
(-1.32067 2.67876 3.1737e-17)
(-1.27133 1.80097 0)
(0.0392951 -1.06353 -4.27615e-16)
(-1.40238 2.88529 -4.28044e-17)
(1.73568 4.08357 -9.90488e-17)
(1.30595 -0.669365 1.38333e-16)
(-1.14875 11.1044 -2.02609e-17)
(-0.780494 0.559917 -2.93424e-16)
(-3.6936 5.04158 0)
(-3.93127 5.74721 0)
(-1.17126 1.95217 -3.7723e-17)
(5.35032 6.72164 0)
(2.28847 6.62864 0)
(-1.43602 2.61168 0)
(-0.921913 1.35058 -3.00248e-16)
(6.64399 5.67802 7.07729e-17)
(0.11071 -1.11297 -3.17755e-16)
(-0.0926073 2.78354 -1.87574e-16)
(-0.3393 3.96949 1.37262e-16)
(-1.72573 3.21234 5.15503e-17)
(4.53497 7.54143 -3.18073e-17)
(-2.42275 3.73315 1.43756e-18)
(6.60928 6.64636 -3.6342e-17)
(0.365682 6.29027 -4.62782e-17)
(1.5165 -0.0699815 1.22616e-16)
(4.08485 -0.417766 1.44077e-16)
(0.349258 1.26983 7.6212e-17)
(-4.70197 4.06371 -2.62285e-17)
(-3.01879 5.10787 -7.5434e-18)
(-0.869711 10.7131 2.41234e-17)
(-3.62686 4.98541 1.5716e-16)
(-4.2751 5.507 5.41304e-19)
(-0.774031 4.15362 2.348e-17)
(2.19466 -0.314556 1.18588e-16)
(7.4279 6.16948 -1.56591e-16)
(1.41527 4.86419 1.18143e-17)
(-1.90756 -1.04549 1.87473e-16)
(0.75584 0.0940823 2.80082e-16)
(4.22857 4.81617 2.68174e-17)
(8.52008 0.382019 -2.78826e-16)
(-0.348068 2.21416 5.64823e-17)
(-2.71733 4.3611 5.40662e-18)
(0.859727 5.01321 -1.1965e-17)
(2.50638 4.95249 5.83017e-17)
(-3.79281 7.54957 7.85606e-17)
(-2.01063 7.34804 2.02209e-17)
(0.678556 5.6112 0)
(0.824544 0.500881 0)
(3.83847 2.05017 4.7143e-16)
(3.34555 3.66868 -3.64864e-18)
(-1.08411 10.1059 4.07253e-17)
(9.10635 3.92014 -3.66575e-17)
(-4.01738 7.10503 1.88627e-17)
(-4.53983 6.08247 -9.19742e-18)
(8.13601 -0.193062 1.70139e-16)
(3.67084 3.50184 -3.67875e-17)
(-3.65429 6.94243 -3.74753e-17)
(-4.43677 6.55296 7.09916e-17)
(0.49406 5.59468 -1.27118e-16)
(-0.936557 4.22067 1.6055e-16)
(2.99885 4.33673 4.26223e-17)
(-1.36244 10.3381 -1.1305e-19)
(9.22318 1.95028 1.03494e-17)
(-4.77992 5.66317 -1.20752e-16)
(-0.542928 2.68983 -8.97072e-17)
(-1.00178 2.90285 -1.40406e-16)
(5.48061 7.2482 0)
(-2.32911 -0.928736 0)
(-4.06114 6.46605 -7.48745e-17)
(0.262516 7.43247 3.1039e-19)
(-0.508141 8.13585 2.72365e-17)
(1.35414 5.25161 8.02445e-17)
(-0.171523 10.5429 4.94346e-18)
(4.42009 3.20532 1.52509e-18)
(0.0830981 8.48347 1.57223e-17)
(4.1306 2.43743 0)
(8.62429 5.05524 -6.10632e-18)
(8.58437 4.80181 -7.12454e-17)
(3.75261 8.33238 3.05376e-18)
(1.12906 4.19298 -7.85166e-17)
(-2.44284 -1.17828 -1.67991e-16)
(2.08026 0.148439 -1.89385e-16)
(1.54615 0.560927 -1.07295e-16)
(-0.371582 -1.61534 -1.08046e-16)
(-1.32922 5.04515 0)
(2.01398 3.55925 4.52326e-18)
(-0.35236 5.34416 0)
(6.24747 6.57847 0)
(6.02296 5.89355 3.83214e-17)
(-0.551742 1.01768 0)
(5.68657 4.06784 1.05093e-16)
(4.14805 2.18344 -1.273e-16)
(5.3911 5.96773 4.75387e-17)
(7.62663 1.45062 0)
(-1.26843 10.5212 -5.84527e-18)
(4.30339 7.84574 1.10865e-17)
(2.09877 0.391837 2.81712e-16)
(1.25818 0.190234 -1.38124e-16)
(7.45762 5.93249 2.10591e-16)
(7.61417 0.147718 -5.28634e-18)
(-3.29436 5.99073 7.84313e-17)
(-0.149661 2.02568 1.58659e-16)
(-2.6299 -1.44714 9.65206e-17)
(-2.20237 -1.62404 -1.66602e-16)
(-3.68701 6.00342 0)
(3.36699 1.4008 -4.04001e-17)
(7.69381 3.691 1.01682e-16)
(7.63751 1.80144 -1.04069e-16)
(7.91733 5.25717 5.83201e-17)
(-3.4501 6.88349 -3.93288e-17)
(9.26298 3.07186 5.26658e-17)
(-0.809851 10.0888 -2.48636e-18)
(0.0271778 8.94155 -2.14331e-17)
(2.77293 1.17207 3.80222e-16)
(-1.03734 5.38638 4.57026e-17)
(0.29345 6.82556 4.7404e-17)
(1.05638 8.97899 2.8198e-17)
(0.281547 11.03 4.79001e-18)
(0.577264 -0.266524 2.33909e-16)
(-1.90243 7.04606 -7.27459e-17)
(8.27677 5.59924 -9.05771e-17)
(-1.74849 -1.46974 9.71768e-17)
(0.234691 5.86988 0)
(0.203827 10.9589 2.24792e-18)
(4.89308 7.00044 -2.34731e-17)
(-2.75851 6.52792 -3.82612e-17)
(8.84514 0.418294 3.91359e-16)
(3.88924 0.397362 3.22338e-19)
(2.55934 -0.311635 1.76107e-16)
(-0.624061 -0.441528 2.52083e-16)
(-1.39571 6.206 1.40893e-16)
(-0.221518 1.4511 1.22096e-16)
(-0.00770913 1.06941 2.15936e-16)
(-0.358576 0.0459303 3.38731e-16)
(9.71046 1.22864 6.34989e-17)
(0.96884 3.59981 -8.32463e-17)
(4.99666 0.0445816 4.64559e-18)
(-0.0200276 -1.18382 3.12461e-16)
(8.75568 4.44647 0)
(1.67209 0.421997 0)
(0.513464 0.214849 1.58637e-16)
(-0.656168 3.01611 2.62446e-19)
(1.92907 0.791512 0)
(3.51462 -0.471627 0)
(-0.900459 1.13101 0)
(-2.47009 -1.42706 -3.33756e-17)
(0.649036 0.472074 5.26616e-17)
(4.41903 -0.546234 0)
(1.21229 0.443328 7.57145e-16)
(-0.756337 -0.679443 -1.05039e-15)
(-0.100758 -1.38697 1.2788e-16)
(-0.278279 -0.0461657 -2.71878e-16)
(-0.615564 -0.27023 2.73754e-17)
(-2.82826 -1.08378 8.47724e-17)
(8.23028 3.22669 2.50586e-16)
(-0.490925 2.74613 7.12988e-18)
(0.747404 -1.80049 -1.59629e-17)
(-1.42822 -0.0451179 8.20815e-16)
(0.809982 -0.366442 0)
(-0.241073 0.113411 -3.75648e-16)
(-0.0200294 -0.0593168 2.73365e-16)
(0.54948 0.211826 0)
(-0.475503 0.0113679 2.16223e-16)
(4.68176 2.24896 6.76907e-18)
(-0.488161 -0.00536466 0)
(-1.19222 -0.45347 1.21143e-16)
(8.3518 2.61126 -3.67607e-17)
(8.70218 3.87556 -1.68876e-16)
(2.48052 9.37049 -1.11287e-16)
(-0.015619 0.146117 3.61207e-16)
(-0.532107 0.03963 -7.44836e-16)
(2.3364 9.78158 -6.50177e-17)
(2.66878 -0.582472 -8.00203e-17)
(0.816982 0.211513 -5.40034e-18)
(1.08396 5.43944 6.48737e-17)
(-1.96598 8.37782 1.07957e-16)
(0.282941 0.173413 0)
(-0.47349 -0.00900728 1.98712e-16)
(-0.472825 0.0381387 0)
(-1.07225 4.61193 0)
(-0.778923 4.70473 9.42077e-17)
(1.25667 0.533997 -1.69516e-16)
(-0.156859 -1.96511 6.84312e-17)
(-0.654773 0.0628265 3.53441e-16)
(-0.971051 4.43495 -8.24752e-17)
(0.954757 3.67956 0)
(0.553383 4.84987 1.59137e-18)
(-3.07282 -0.0949144 2.14873e-16)
(-0.403436 11.1583 1.73922e-17)
(0.179159 7.2536 4.64344e-17)
(-0.181095 1.83287 2.61591e-16)
(4.68445 1.47016 -4.39553e-17)
(-0.432166 5.379 -9.5933e-19)
(-1.20847 -1.63243 -1.61165e-16)
(1.76279 0.615297 -1.13012e-16)
(7.1457 -0.0285597 5.68286e-17)
(6.1043 -0.0199515 -1.19273e-16)
(0.0187006 -0.0852455 0)
(-0.89927 6.02643 0)
(-0.224079 1.48863 0)
(-3.27233 8.16655 2.16842e-16)
(-0.919028 4.18273 -3.00314e-17)
(-1.30372 2.4685 0)
(-0.551457 2.02131 0)
(-1.08026 -0.163137 5.57714e-17)
(1.5406 -0.850635 7.60769e-17)
(-0.229593 0.562126 3.03932e-16)
(-0.126167 -0.56325 3.33139e-16)
(0.119491 -0.992643 0)
(1.94117 -0.182139 -5.46403e-17)
(3.36252 1.80031 7.30478e-16)
(-0.234292 7.37615 -2.14571e-20)
(-0.0974089 9.11655 0)
(-0.844875 -0.058861 -2.62645e-16)
(0.500689 5.75783 4.39905e-17)
(-2.84418 5.01557 9.2668e-17)
(3.00114 0.148148 9.41441e-17)
(-2.38085 6.6803 0)
(-0.530152 -0.112364 1.84876e-16)
(-4.84008 -1.78722 3.0065e-16)
(-1.12599 -1.76139 2.43666e-16)
(1.64533 0.186442 0)
(0.161651 -0.708032 2.97138e-17)
(0.142511 3.8429 -8.99904e-17)
(6.36223 1.16421 -9.39733e-18)
(-0.711005 3.34811 -1.93018e-17)
(7.93474 -0.165179 -2.03122e-16)
(-1.18546 -0.0663448 8.50753e-19)
(0.764642 1.69379 1.13731e-16)
(-0.587686 4.80862 2.38903e-16)
(2.91404 0.838819 -1.14549e-16)
(1.39916 6.66836 1.13701e-16)
(-0.99223 6.94383 0)
(8.70381 0.980264 -1.14634e-16)
(0.227887 2.56216 -9.39218e-17)
(-0.473448 6.64384 4.84304e-17)
(0.622411 -0.876329 1.46254e-16)
(1.21659 -0.210733 -1.17166e-18)
(3.3059 1.37931 -4.11999e-17)
(0.618784 2.76233 -6.0217e-17)
(5.65202 2.79482 0)
(-0.213823 8.72775 -1.71191e-17)
(3.38441 3.58792 0)
(2.25015 -1.0234 0)
(-0.020446 5.90436 1.71802e-16)
(2.14019 0.224781 -7.20552e-17)
(0.979263 0.724849 4.37839e-19)
(-1.51794 1.2159 2.08689e-16)
(1.20823 0.138586 1.35452e-16)
(-0.221258 0.625315 4.33622e-19)
(-0.0400665 5.59591 -2.83919e-16)
(3.96532 1.97538 2.84383e-17)
(-0.398789 0.0679898 3.87167e-16)
(-1.29653 3.08486 -8.02104e-19)
(1.66951 6.6602 1.55819e-16)
(-2.99934 3.74815 0)
(0.590033 -1.22301 3.37275e-17)
(-0.0694339 8.68155 2.28444e-17)
(4.32104 0.603877 -1.18339e-17)
(-1.42776 -1.37001 -7.09453e-17)
(-0.12968 -1.59243 -2.31247e-16)
(0.786229 0.381364 3.26819e-16)
(-2.8403 4.64317 0)
(-0.610346 5.10258 4.98075e-17)
(2.54358 8.17855 -1.40576e-16)
(-1.15467 3.35465 9.32897e-17)
(1.12572 -0.334072 -4.63024e-16)
(-0.0858837 5.96595 0)
(0.271449 -1.24079 -3.75371e-16)
(3.11498 0.0822184 -9.32297e-18)
(8.53189 1.57621 -5.74682e-17)
(-0.408486 8.5602 7.16991e-17)
(7.73364 0.5409 6.91412e-18)
(-0.396948 -1.08248 -2.37969e-16)
(-4.37586 4.06238 -3.11011e-17)
(1.3648 0.971914 -2.32509e-16)
(-1.0271 -1.04647 -1.64273e-16)
(-3.02663 6.71058 8.59598e-17)
(0.126339 -2.03208 -2.40666e-16)
(6.33288 2.98562 1.73004e-16)
(1.84808 0.864008 -2.59611e-16)
(0.036516 -0.666582 1.891e-16)
(8.68651 0.559327 7.72103e-17)
(-1.25756 0.502079 5.6004e-19)
(-0.888442 8.09074 8.14393e-17)
(-0.137986 7.70636 3.9962e-17)
(0.310295 8.00572 -5.73975e-17)
(0.0460595 5.86346 3.91385e-18)
(-0.656255 6.25592 9.3243e-17)
(1.56467 -0.0343694 -9.6991e-19)
(0.501798 -1.3672 1.9821e-16)
(1.04013 -0.326758 -8.05436e-17)
(-0.144613 8.70855 0)
(-0.898985 -0.094984 -1.76183e-16)
(-0.450548 9.3786 -4.37122e-17)
(5.4618 0.917854 -6.24163e-17)
(-0.148716 5.64265 -3.76235e-19)
(-0.819483 1.37316 -2.29391e-16)
(2.7872 1.12855 -9.5278e-17)
(-2.91131 1.10683 1.0661e-16)
(-0.5153 -1.0384 1.27182e-16)
(-0.0145476 3.5534 0)
(8.96175 1.518 0)
(8.4396 1.13825 4.20202e-17)
(0.148622 5.99706 0)
(3.56413 0.892937 0)
(2.26547 0.904175 -2.01111e-16)
(0.407491 1.37694 0)
(3.69775 0.0200248 7.16453e-17)
(-0.863511 -0.413564 1.84465e-16)
(0.356001 1.26674 1.6727e-18)
(-1.28375 1.33166 -9.20453e-17)
(-0.477058 0.0261781 -3.94079e-16)
(0.307795 -1.08844 -7.32006e-19)
(0.116951 -0.36663 0)
(-0.08479 1.80731 -5.90827e-17)
(-0.738333 6.58273 7.65169e-17)
(0.996458 5.39401 2.30582e-17)
(-3.37382 -0.517425 -1.15249e-18)
(1.47953 -0.371431 0)
(2.31477 8.72584 1.67111e-18)
(1.88353 0.151432 -1.45586e-16)
(-2.37917 5.46397 1.84387e-16)
(4.46467 0.0483708 0)
(-1.3217 -1.02634 -6.14893e-16)
(5.28425 -0.297341 1.17435e-16)
(5.93939 0.36049 3.85508e-17)
(-0.72236 9.37342 -4.68787e-17)
(-4.69814 5.1936 0)
(-0.467891 2.06554 1.1609e-16)
(1.34041 0.406584 5.94853e-16)
(2.88406 0.416568 -8.83056e-19)
(4.53153 -0.048281 4.07241e-16)
(4.56299 0.414029 4.82797e-17)
(-0.99869 11.2718 -8.64342e-17)
(0.175447 2.20564 -3.87701e-16)
(-3.07296 5.90157 -3.2812e-16)
(8.84249 0.269911 6.86765e-19)
(-0.968965 2.11031 -4.19942e-16)
(-0.478315 -0.325909 -1.47785e-17)
(2.46442 0.127738 1.23168e-16)
(-0.633867 9.59352 4.96367e-17)
(0.201509 2.93575 -2.76372e-16)
(3.18068 0.126422 2.18972e-16)
(-4.53033 5.39146 4.19007e-17)
(-0.742873 3.09658 -6.58985e-17)
(-1.42171 -0.0307826 4.97259e-16)
(-2.05715 -0.914419 -9.21285e-17)
(-0.306179 0.310956 -6.17442e-17)
(1.15024 1.45459 -1.35203e-16)
(-1.23857 2.04665 -1.25001e-18)
(0.586524 5.68953 0)
(-0.13459 5.20326 0)
(-0.111663 5.49501 0)
(-0.163455 4.77428 -4.09784e-17)
(-0.309369 6.06481 2.1302e-17)
(-0.117668 5.53153 0)
(-0.318397 6.77419 0)
(-0.213489 5.62759 0)
(0.0957216 8.23168 -7.09837e-17)
(0.00557695 6.0017 0)
(0.0850535 5.82427 0)
(0.145603 7.91197 7.15339e-17)
(0.0167206 8.27139 0)
(-0.0491732 8.21271 -3.23648e-17)
(0.176246 7.54941 1.75325e-17)
(-0.0708846 6.00528 0)
(0.196267 5.41662 -1.01971e-16)
(0.22458 6.69087 -3.39823e-17)
(0.214227 7.14927 2.07838e-17)
(0.330732 4.75122 1.12906e-16)
(0.441937 3.86263 3.41964e-17)
(0.596637 2.15123 1.85043e-17)
(0.519407 2.99868 -2.01406e-17)
(-0.0711141 8.14865 3.37501e-17)
(-0.070128 8.13899 0)
(-0.0596808 8.13868 0)
(-0.166921 4.35193 4.25573e-17)
(5.15459 -0.0397315 4.0639e-17)
(8.51335 0.0312662 -2.29677e-18)
(-1.23017 -0.185011 -2.87844e-16)
(-1.0826 -0.876671 -8.52041e-17)
(3.46134 2.37159 -1.02254e-16)
(-1.65008 0.860392 -1.88255e-16)
(-1.28376 1.0388 2.23403e-16)
(1.35976 -0.826169 2.26473e-16)
(-2.76796 -0.260362 0)
(-0.689411 7.80233 -1.26366e-16)
(0.362413 6.65498 -6.70641e-17)
(-2.92821 8.22293 -4.05013e-17)
(-2.04281 0.777938 -3.63152e-16)
(1.38673 0.207258 0)
(8.99863 2.33125 -9.71661e-18)
(1.41346 -1.51121 -1.30401e-16)
(-1.20667 1.39116 1.25478e-16)
(-2.46286 -0.964355 7.95425e-17)
(1.70203 0.0898665 7.63964e-16)
(-0.403191 8.59979 9.19834e-17)
(3.45977 0.0361226 0)
(2.70628 9.65097 3.06629e-16)
(0.446203 6.06895 0)
(-2.09751 -0.271531 0)
(-0.068511 8.15694 0)
(3.75745 0.398697 4.53834e-17)
(-0.294056 0.485869 1.78352e-16)
(9.29776 0.958596 -2.41356e-16)
(-1.00615 0.108486 -1.94881e-16)
(8.98534 0.613194 -7.62796e-17)
(0.200107 1.77717 0)
(2.97788 0.51608 0)
(-2.806 -0.219954 -9.68907e-17)
(-2.29509 6.07493 2.00814e-16)
(-0.807305 0.146072 0)
(-4.21773 -0.619308 -1.44652e-16)
(-1.10069 -1.84294 0)
(1.2489 -1.21396 0)
(0.00376438 0.341855 3.58021e-17)
(4.55076 0.13272 1.37237e-19)
(-2.79372 8.18263 -3.99888e-17)
(2.22326 -1.06004 -2.74214e-16)
(0.657177 0.839279 2.16296e-16)
(2.76451 0.334058 -1.4366e-16)
(0.0738043 5.68904 0)
(7.33994 0.215838 3.09371e-17)
(8.66132 2.03199 0)
(2.52834 0.615142 -3.73267e-16)
(2.44856 0.958963 -2.34008e-16)
(3.4056 1.09963 -3.0428e-16)
(3.46074 0.461869 -1.4091e-16)
(2.34554 -0.169377 -1.72485e-16)
(1.74149 -1.18563 -5.28195e-16)
(-0.365279 -0.448796 -1.62287e-17)
(3.18961 -0.320172 4.61906e-17)
(6.06961 0.296564 -9.24944e-18)
(4.17132 0.423935 1.54184e-17)
(0.151685 6.50412 8.66413e-17)
(4.20276 2.19044 2.95324e-16)
(-0.0901304 7.80273 1.6953e-17)
(2.0641 0.108223 6.58904e-19)
(-0.74561 7.27279 -9.22901e-19)
(-0.304391 1.73315 -1.79634e-18)
(1.4913 1.15659 2.05392e-16)
(5.06928 -0.937963 1.85229e-16)
(-1.17489 2.7122 1.08253e-16)
(-1.96886 -0.157681 -3.54216e-16)
(-0.444587 -0.32598 3.02968e-16)