/*--------------------------------*- C++ -*----------------------------------*\
| =========                 |                                                 |
| \\      /  F ield         | OpenFOAM: The Open Source CFD Toolbox           |
|  \\    /   O peration     | Version:  v1912                                 |
|   \\  /    A nd           | Website:  www.openfoam.com                      |
|    \\/     M anipulation  |                                                 |
\*---------------------------------------------------------------------------*/
FoamFile
{
    version     2.0;
    format      ascii;
    class       volScalarField;
    location    "0.64";
    object      p;
}
// * * * * * * * * * * * * * * * * * * * * * * * * * * * * * * * * * * * * * //

dimensions      [0 2 -2 0 0 0 0];


internalField   nonuniform List<scalar> 
1466
(
97.6759
97.3868
97.8912
97.4758
99.3025
93.7209
96.9608
98.8004
99.0466
96.7194
98.3065
96.9567
97.7384
97.6113
97.461
97.725
98.0341
97.25
99.285
97.6375
96.8637
97.6674
96.5749
97.6314
97.6294
98.4937
98.528
96.8653
97.5061
98.4169
99.1333
92.8313
97.7518
97.4672
97.5041
97.4309
97.299
97.1979
95.518
97.8165
96.8821
97.0641
99.1422
98.3233
96.726
98.3505
97.0863
97.251
97.1141
96.9339
98.0311
96.6964
99.3371
93.6879
97.9033
97.2002
97.1523
98.3766
97.1355
97.2719
97.6751
97.7783
99.2185
93.1676
97.2477
97.65
97.1348
96.8562
97.3269
97.5505
98.3506
97.3956
97.3288
97.3712
97.3503
96.5014
97.3694
97.2657
97.506
97.3249
98.2392
97.3563
97.2608
97.1595
97.3437
97.1884
97.3338
97.1446
97.6572
97.7898
97.4886
97.1927
97.4564
97.3547
98.0602
97.0249
97.6072
97.0224
97.9915
97.5645
97.6011
96.877
97.7243
97.4998
97.0296
98.6827
96.9236
97.1487
97.9604
97.6273
97.2307
97.6251
96.5309
97.2445
97.7318
97.6304
97.3879
97.5385
97.8802
98.3723
96.8812
97.5157
96.9948
97.2157
97.7693
97.6948
97.679
97.8396
97.551
99.0398
97.2662
97.3653
97.6323
97.0732
98.1998
97.3549
97.0112
97.333
96.539
97.3559
96.9523
97.066
97.7083
97.2357
96.6516
98.4328
97.1145
97.9302
97.1239
97.3404
97.615
97.6818
97.6998
97.4867
97.4945
98.4159
97.3268
96.3994
97.9719
97.8414
96.8327
97.6183
97.0578
96.9184
96.9137
97.3558
99.2955
97.7106
97.6614
98.5632
97.311
97.3003
97.692
97.1679
98.5396
97.3721
96.9642
97.4003
97.5377
97.4363
97.3162
96.9493
97.3287
97.6603
97.2708
97.3815
97.077
97.4522
97.3434
97.5769
97.3052
97.8697
97.6624
97.1554
96.978
97.3588
96.4637
97.6534
97.569
97.5544
96.5646
97.8756
97.0653
97.6847
97.6846
97.1188
96.9834
97.5497
97.4809
97.7698
97.7268
96.4919
97.9725
97.3135
97.9576
97.2125
97.5706
97.2239
97.6469
97.449
98.4073
97.6287
97.7272
97.1705
97.1955
97.2224
97.4416
97.7683
97.246
99.3418
97.3245
97.0089
97.5516
97.2529
97.369
97.6861
97.2497
98.6124
97.2844
97.6632
99.2474
97.3354
97.3551
96.9664
97.0088
97.2214
98.4972
97.0026
97.2875
97.1106
97.4715
98.5341
97.1772
97.0727
97.7039
98.302
97.4678
99.2444
96.9099
96.4934
97.3486
97.3169
98.389
97.7476
94.6477
97.4716
98.7149
96.5538
97.6897
97.4375
97.4432
97.3726
97.3149
97.3443
97.284
97.1189
97.1141
97.9957
97.9591
97.0621
97.6793
97.2762
97.0204
97.6804
97.3254
97.2883
98.1777
97.5102
98.5003
97.316
97.2649
98.5222
98.2725
96.6964
97.2869
98.0935
97.6308
96.6628
98.0727
97.1078
97.5824
96.3296
97.7689
98.2011
97.6242
97.3851
96.9025
97.2286
97.709
95.996
99.2393
98.1002
97.912
97.0751
97.2279
97.7297
96.576
98.5529
96.4333
97.6905
97.114
97.2796
97.3854
97.5013
96.957
97.4008
98.2524
97.3531
98.3426
98.189
96.7958
97.4519
98.276
97.9312
96.9441
97.471
97.7376
98.5864
96.5066
98.2575
96.6467
97.4215
97.3664
98.194
97.3723
98.3969
96.5085
97.5317
97.5707
98.4658
97.2216
97.3511
97.1537
97.1983
97.2115
97.8717
96.5498
97.4375
96.0897
98.1949
98.511
97.2523
97.2786
97.7856
97.1012
97.343
98.2261
98.3028
97.4541
96.5369
98.3187
97.6027
96.5196
97.466
98.0802
96.8935
97.3929
95.8046
97.3209
97.6125
97.3213
97.1098
98.13
98.1704
97.1524
98.2731
97.5305
97.6673
97.2904
97.7256
97.767
99.0476
97.2086
97.407
97.7203
97.5201
97.2192
98.4692
97.0408
97.7633
96.5351
98.3161
97.162
97.3378
96.6842
97.2645
97.4987
96.4299
97.3446
96.5339
97.4651
97.0982
97.5794
97.0029
98.2379
97.8589
97.5943
98.4568
97.8858
97.8935
98.3732
97.6424
97.5756
97.5606
97.5068
97.4495
97.6589
97.6436
97.5139
97.4179
96.4958
97.4978
97.8323
96.8416
98.0323
96.7689
98.2256
98.7637
98.477
98.5871
97.5984
97.8294
96.9441
98.3955
98.5097
98.3872
98.7983
98.9237
96.2871
98.4164
96.0397
98.5787
98.4097
98.2532
98.1512
98.4759
98.9007
98.6523
98.2991
98.3836
98.2944
97.9673
98.1562
98.3706
97.4816
98.6717
97.1222
97.3571
96.4158
98.3307
97.3186
98.4202
98.3668
98.4305
93.0505
98.8339
98.3503
98.3715
99.1227
94.6118
96.369
97.272
93.8625
97.2425
98.7317
96.4238
97.268
98.1434
94.2331
96.3076
98.5168
96.5128
97.2822
98.2057
96.9603
99.0573
94.816
98.1481
98.4505
98.1017
96.6514
97.3833
97.0672
97.1616
98.262
97.062
96.3554
98.3931
98.5817
98.4357
98.8351
98.7792
98.682
98.3756
98.4018
98.5636
96.6509
97.3613
98.3118
98.3465
98.2596
98.0401
98.2196
98.0233
98.0336
97.6518
97.8802
98.4354
97.62
98.2463
97.2458
97.2477
98.4173
98.4815
98.39
98.2388
96.8974
97.6758
97.0513
97.5904
98.0277
97.9416
98.8005
97.9519
98.477
98.3898
98.1338
97.8946
97.9562
96.7748
97.4312
97.1268
97.685
97.6654
97.3302
98.8057
96.5203
97.5607
97.8304
98.6742
97.6392
97.575
97.4673
98.0071
96.5299
97.3477
96.9979
97.6976
98.549
97.5847
97.324
98.5202
98.6487
96.7926
97.8425
98.7198
98.9968
98.3138
98.6254
98.7862
97.5384
97.7351
97.4007
97.1637
97.0747
95.7272
98.7767
97.4116
97.1218
99.2256
97.0118
97.9934
96.5417
97.7138
96.7793
97.4199
97.1855
97.5565
97.7671
97.1642
96.5792
96.8464
97.4351
97.5502
98.4506
97.5604
97.6335
97.6491
98.5236
97.3738
97.5081
98.0296
99.3458
97.0055
97.736
98.3582
98.1888
97.6944
98.4656
96.8902
97.3265
96.917
99.3764
97.3597
97.419
98.5765
97.2055
97.7229
96.8731
97.1274
98.6673
97.692
97.7016
97.7258
97.2173
97.4678
97.2303
97.7321
96.8511
97.4267
96.9016
98.3128
97.1786
98.5619
98.3524
96.9412
97.5964
98.5551
98.2036
96.9993
97.7689
96.9301
97.4201
98.4896
98.1329
98.8407
99.2827
97.0056
97.1564
97.7114
97.7458
97.653
96.8478
99.1658
99.3968
97.3481
98.8903
97.3602
97.2753
97.4357
97.3188
97.2743
97.2679
97.5816
96.9689
97.6467
99.2657
97.4776
97.3727
97.5986
96.8877
97.3073
97.3394
97.5639
97.1426
98.2802
98.133
97.8795
97.8902
96.9565
97.5678
97.4141
98.5193
97.9297
96.61
97.4414
97.0887
97.3523
97.4642
97.7878
98.7343
97.5446
97.2845
98.2703
97.7628
97.7197
97.7308
96.7606
98.7161
96.8758
97.377
97.3456
96.4771
96.8746
97.3909
97.2968
97.2092
97.3471
97.4387
98.5085
97.0276
98.0386
97.349
97.6072
98.3825
97.3263
97.1755
97.6772
98.4186
96.6495
99.144
97.6132
97.6783
97.2838
97.2879
99.0269
97.2597
97.2824
98.6374
95.8966
97.7204
97.2146
97.2838
97.6052
97.0821
98.2218
97.7983
97.5703
98.3959
96.986
97.7286
96.8665
97.2241
97.5793
97.4762
97.9446
96.3758
99.3671
97.7374
97.2206
96.9624
97.6519
97.5263
97.0156
97.8242
99.4396
97.1049
96.9117
97.6286
97.8478
97.0968
95.5325
99.3128
97.3163
97.4824
97.4625
97.72
97.0324
97.7219
99.3288
95.4491
98.3505
97.7176
97.7512
97.5198
97.1983
97.4108
97.17
98.4139
97.6935
97.2885
97.426
96.9318
97.9322
97.237
99.3386
97.0998
97.8417
97.4609
97.6245
97.0177
97.1033
97.3664
97.9812
97.6555
97.8892
98.7054
97.1003
97.404
97.9454
95.8859
97.339
96.9385
98.6188
97.6728
99.1521
97.4003
97.9314
97.4532
99.3321
95.5279
97.3096
98.2427
97.8748
97.3191
97.3596
97.8851
97.3724
97.5177
98.0766
97.358
97.7962
97.3139
98.34
97.3104
97.3193
97.8984
97.5565
97.2936
95.924
97.8044
97.4718
96.665
99.1369
97.2694
98.0636
97.1397
97.0791
98.7344
97.9698
98.3971
97.5724
97.2791
98.5386
97.3365
98.1972
98.1399
97.444
97.9108
97.0205
99.0936
97.2717
95.9277
97.4278
97.4196
96.8875
97.48
97.0844
97.1342
97.3246
97.2548
97.6444
98.5578
97.9224
97.7909
97.2375
97.455
96.9518
96.1227
98.4597
97.2975
97.919
98.4314
97.3164
97.6127
97.8334
97.5241
98.5105
98.5631
99.1664
97.4581
97.1253
97.1336
97.7761
97.3046
97.7189
98.4367
98.4748
98.538
96.8582
97.8008
97.2213
97.5692
98.3895
97.2034
97.9699
96.9901
97.2941
97.027
97.5762
97.7148
98.3727
99.1228
97.5532
97.5791
97.7816
96.9159
97.5951
97.0402
97.701
97.0206
97.5301
98.891
96.3098
98.6578
97.7037
96.9428
98.0229
97.6181
98.5978
97.4576
96.9854
97.1753
98.7218
97.1983
98.4671
96.8928
98.8111
97.2673
97.6559
97.6375
97.6107
97.6214
97.3127
97.2256
97.392
97.4629
97.6781
97.5286
97.5899
97.7021
97.7261
97.7471
97.8767
97.7631
97.7749
96.7957
97.3429
97.0229
97.2432
97.6582
95.9712
98.071
97.7789
97.5481
97.8695
98.7422
97.3266
98.0334
97.2906
97.8906
97.0258
97.621
98.2211
98.2516
97.8374
97.4458
96.8581
97.7365
97.7321
98.6383
99.4433
96.6137
99.1089
96.8539
97.875
96.9463
96.4831
97.3337
98.3295
97.6807
97.0408
97.9208
97.8167
98.5982
98.2839
97.4732
96.4101
98.9788
98.2097
97.9213
97.8846
97.4337
97.1042
96.9797
97.6999
97.7183
98.1988
97.7381
97.3641
97.0758
97.6487
97.5672
97.6355
97.2585
96.5343
97.4417
96.7927
97.2391
99.1384
97.0943
97.4034
98.1183
98.6194
97.7808
96.7835
97.4709
97.0168
99.2262
94.6206
96.8411
97.5488
98.8202
96.7063
97.4727
98.9468
97.8454
97.3086
97.3442
99.4507
96.6895
97.2954
97.4333
96.4313
97.068
96.9807
97.7819
97.7215
97.5739
97.3913
96.6765
98.1892
98.3265
98.9226
97.0851
97.9932
96.3691
98.2415
97.7787
96.7691
97.9199
97.5177
97.3457
97.7824
97.3086
96.4089
97.2442
97.1542
96.7869
96.8649
97.2512
96.5201
97.3383
96.5515
97.3294
97.5444
96.723
98.2041
97.6109
98.7811
97.5651
97.6553
96.7653
98.5582
97.606
96.8091
97.7173
96.7424
97.6672
97.4006
98.4654
97.1045
97.5352
98.1242
97.0172
97.6193
98.5
98.453
97.0403
97.4613
97.5968
96.6416
97.4038
98.8583
98.0754
97.2991
97.7779
96.8182
96.7238
97.772
98.4864
96.9491
97.4104
97.5687
98.5618
97.4584
97.5909
97.1529
97.3115
96.6742
97.2974
98.0308
98.2909
97.3616
97.2152
97.7026
96.549
98.2468
96.3978
98.5877
97.7954
96.5993
97.2864
98.6747
97.7283
96.567
98.056
97.4369
96.1399
98.3914
97.7102
97.0776
97.5276
98.1929
97.3956
98.4606
97.766
97.7149
97.5403
97.8067
97.7447
97.5962
97.1689
97.7911
97.7803
98.3146
97.8241
97.863
96.44
97.3885
97.7456
98.9369
98.7376
96.4678
97.9513
97.6713
97.358
97.6962
97.382
98.2967
97.3943
97.2769
98.7083
97.4089
97.5798
98.9964
93.7556
97.9151
97.6512
98.3717
97.6065
96.9009
97.4608
97.6412
97.4561
97.7062
98.3367
97.5621
99.1057
97.5236
97.278
97.3055
97.7557
97.4407
97.2772
96.7246
99.2331
98.8611
97.6928
97.2889
97.2672
98.4295
98.326
97.4545
97.3229
96.9351
97.2658
97.1317
98.395
97.938
97.1692
97.4519
98.2751
97.9228
97.8633
97.1994
96.9843
98.441
96.9649
96.9337
97.4838
97.3843
97.5885
97.3203
98.3489
97.44
97.4127
96.3522
99.0669
97.3659
97.4941
96.4431
97.6992
97.6471
97.5793
98.1366
98.1638
97.0994
97.3133
98.1426
97.5365
97.4052
98.2107
96.8417
98.9432
97.0123
97.2503
96.9062
97.8795
97.4149
99.4519
96.8586
97.982
96.369
98.3497
97.7746
97.9586
96.4863
98.188
98.3888
97.7934
97.2583
97.3372
96.9353
97.2234
97.7511
97.3588
97.7444
97.1448
97.6056
97.5842
99.038
96.8662
97.31
95.9548
99.1092
99.1643
97.1896
97.1158
97.677
98.1353
99.4439
97.1354
97.3362
97.4866
96.9274
97.0671
96.9955
97.8743
97.274
96.6048
96.2092
99.2272
98.0332
98.6948
98.8701
97.2931
97.7258
97.9795
97.3129
99.0073
96.0769
97.3215
97.2471
98.3847
97.3532
98.3409
96.0845
97.2886
98.0606
96.9251
97.3141
97.3906
97.5128
97.2664
97.9735
97.6606
96.597
97.8828
98.557
97.782
96.619
97.2856
97.3845
97.0051
98.204
97.6058
97.4114
97.8528
96.7167
97.5069
98.5301
97.5463
96.4875
97.3703
97.1527
97.3856
97.475
96.8808
97.4692
97.7975
98.4756
97.4151
97.4114
96.6861
97.2641
97.2601
98.2113
97.4777
96.9161
98.4413
97.6295
98.9955
97.4541
96.8069
98.5373
98.2013
97.6911
98.2886
97.1028
97.4469
96.4634
97.6978
97.8821
97.3123
97.8043
98.147
97.9591
96.514
97.7449
97.6703
96.5603
97.3407
96.383
97.2076
98.2434
97.7201
98.5853
97.5863
96.9528
97.2185
97.6004
96.9262
97.4509
96.826
97.7834
97.655
96.8223
97.2868
96.8896
97.3971
97.2993
97.6261
98.6669
97.4099
97.3081
97.5847
96.9816
97.2064
97.2858
96.8143
96.3695
98.335
97.4003
96.4168
97.3504
97.2847
97.7804
97.6166
96.9725
97.7642
97.7302
97.9365
97.3224
97.4441
97.7943
98.0282
97.1174
96.4995
99.1575
92.4014
97.3791
96.9564
97.73
97.4749
97.3068
97.4224
97.7902
97.305
96.9167
97.5071
97.8137
97.3567
97.6167
97.2406
97.9143
97.3421
97.7514
98.3594
97.2901
97.4709
96.4153
97.7864
97.2352
97.1762
98.0425
97.68
96.8179
97.5946
97.9111
96.4887
97.2925
98.1348
98.878
98.7231
97.7806
96.9773
98.9868
98.1259
97.6447
97.3974
97.7409
99.586
95.4536
97.4465
97.092
)
;

boundaryField
{
    frontAndBack
    {
        type            empty;
    }
    wallOuter
    {
        type            zeroGradient;
    }
    inlet
    {
        type            zeroGradient;
    }
    outlet
    {
        type            fixedValue;
        value           nonuniform 0();
    }
    wallInner
    {
        type            zeroGradient;
    }
    procBoundary2to0
    {
        type            processor;
        value           nonuniform List<scalar> 
42
(
95.7587
95.7587
96.8867
96.9593
96.5554
95.7682
96.9164
96.9164
96.5812
96.4271
96.0568
96.0568
96.418
95.7983
95.6094
95.6763
95.6066
96.3911
96.5137
92.649
93.6569
96.392
96.392
94.7164
93.6569
96.5373
95.1022
96.6868
95.1022
95.5354
95.4542
96.8079
96.8669
96.8814
96.8837
96.9593
95.6066
96.9347
95.6058
96.8965
96.8965
96.8793
)
;
    }
    procBoundary2to1
    {
        type            processor;
        value           uniform 92.2928;
    }
    procBoundary2to3
    {
        type            processor;
        value           nonuniform List<scalar> 
29
(
99.1792
99.0177
97.5921
97.8453
93.2943
99.3123
96.3621
99.1927
97.7482
97.7991
99.2628
92.7938
99.0986
96.2389
96.2182
96.2403
97.6641
97.6641
99.0177
96.2389
96.1481
97.6677
96.301
97.7538
96.3068
97.6151
97.7482
92.2448
92.7938
)
;
    }
}


// ************************************************************************* //
