/*--------------------------------*- C++ -*----------------------------------*\
| =========                 |                                                 |
| \\      /  F ield         | OpenFOAM: The Open Source CFD Toolbox           |
|  \\    /   O peration     | Version:  v1912                                 |
|   \\  /    A nd           | Website:  www.openfoam.com                      |
|    \\/     M anipulation  |                                                 |
\*---------------------------------------------------------------------------*/
FoamFile
{
    version     2.0;
    format      ascii;
    class       volScalarField;
    location    "0.51";
    object      k;
}
// * * * * * * * * * * * * * * * * * * * * * * * * * * * * * * * * * * * * * //

dimensions      [0 2 -2 0 0 0 0];


internalField   nonuniform List<scalar> 
1466
(
0.0577806
0.102833
0.0512911
0.0752586
0.0987428
0.891781
0.0979683
0.143087
0.168087
0.264886
0.0211107
0.296066
0.0203153
0.0587457
0.0761564
0.0802315
0.0552152
0.0934239
0.10404
0.0571746
0.120619
0.0924846
0.0617639
0.0856082
0.0583894
0.0647743
0.0932223
0.217822
0.050785
0.115489
0.13065
0.922197
0.0956785
0.173493
0.090121
0.0850042
0.0626926
0.0758665
1.63913
0.0901226
0.274047
0.278797
0.162149
0.148715
0.237709
0.19131
0.0732022
0.0802285
0.2974
0.109007
0.0451909
0.214485
0.0884706
0.690125
0.0726842
0.368576
0.0610469
0.123624
0.144834
0.418928
0.0683089
0.128507
0.120874
0.818776
0.122469
0.0762285
0.333626
0.130417
0.0545059
0.0861653
0.0414407
0.0636395
0.0717215
0.0695919
0.0221475
0.331669
0.0685298
0.0825326
0.0623448
0.317087
0.0463206
0.0693711
0.082707
0.30315
0.0558738
0.0826281
0.0338584
0.169722
0.0681394
0.0936175
0.0776048
0.0850749
0.306134
0.0563462
0.0457933
0.128408
0.100152
0.154639
0.097925
0.0814297
0.0682172
0.271424
0.0530491
0.0559805
0.0715403
0.188596
0.132559
0.0808575
0.0843283
0.0579904
0.118831
0.0612906
0.108188
0.0829612
0.0236026
0.338053
0.0446259
0.0528755
0.0955076
0.12008
0.126799
0.0785438
0.0336383
0.173436
0.0654295
0.265035
0.0620343
0.0504897
0.366048
0.124209
0.273711
0.0710785
0.0589216
0.310939
0.0498585
0.26806
0.264884
0.043666
0.255354
0.0687883
0.229639
0.0833152
0.314236
0.237466
0.236372
0.0539389
0.0540167
0.0614024
0.242295
0.0700641
0.373645
0.0814094
0.0910114
0.114871
0.0744853
0.0593631
0.0651171
0.278091
0.125547
0.0636801
0.250056
0.0818262
0.086314
0.128526
0.288915
0.24333
0.118094
0.0516019
0.0665377
0.093778
0.107792
0.0754818
0.0687366
0.235441
0.0769877
0.13647
0.314648
0.398296
0.0683486
0.342156
0.0829283
0.0790345
0.348664
0.0674694
0.164043
0.0533949
0.0927217
0.628557
0.0911326
0.0463587
0.0915586
0.0567608
0.0788671
0.11645
0.0704863
0.0678318
0.318388
0.0617944
0.0568793
0.054153
0.145012
0.0600861
0.0768651
0.0678081
0.0839397
0.370177
0.0874784
0.185563
0.0749298
0.0906578
0.0791201
0.168292
0.0656794
0.07479
0.0970612
0.0939441
0.0366506
0.0224594
0.0578244
0.0652847
0.0495698
0.0808422
0.0682146
0.0791164
0.175337
0.0814946
0.052836
0.0925073
0.0859616
0.132732
0.0624702
0.164998
0.0686347
0.145607
0.0812087
0.0779517
0.15875
0.137455
0.201708
0.063391
0.149547
0.258632
0.0848515
0.256719
0.339632
0.0601242
0.0197522
0.0796308
0.0356955
0.0681569
0.0704517
0.21172
0.366778
0.174059
0.0672167
0.21378
0.0586833
0.12575
0.991517
0.353699
0.0776844
0.0830823
0.223841
0.0617948
0.945029
0.0799226
0.198441
0.122157
0.0634604
0.0630511
0.185103
0.0812982
0.056816
0.0601
0.0815274
0.178605
0.121891
0.0690641
0.0559836
0.358639
0.067404
0.0492358
0.0742004
0.0568027
0.0696878
0.0495213
0.114048
0.0825977
0.154118
0.0707977
0.0792404
0.247838
0.116494
0.297843
0.4217
0.0771213
0.579687
0.51765
0.0932023
0.0414045
0.105926
0.223272
0.0575392
0.120241
0.075617
0.0659107
0.0575145
0.223493
0.0387393
1.47372
0.146475
0.0483582
0.0599183
0.24373
0.334694
0.0597516
0.111129
0.0565947
0.332277
0.0753568
0.074237
0.231499
0.382777
0.0492694
0.0466074
0.0421562
0.0314364
0.0490641
0.017876
0.0445252
0.0596693
0.0525782
0.0242198
0.0482569
0.050106
0.0509764
0.0265289
0.031306
0.0721384
0.0371177
0.0686588
0.0543458
0.0282727
0.0364612
0.0466763
0.0136507
0.0828375
0.047807
0.0988187
0.148907
0.446429
0.0783299
0.443072
0.185819
0.194339
0.0583471
0.126029
0.0706496
1.60552
0.101136
0.146617
0.265041
0.209598
0.048649
0.0828945
0.0495919
0.0355822
0.0186192
0.0520628
0.0854991
0.0230126
0.041164
0.0817686
0.0519731
0.0459664
0.054254
0.0363144
0.329755
0.0578647
0.0627191
0.0411183
0.209593
0.140113
0.0528097
0.14283
0.112436
0.0960211
0.0670632
0.137124
0.127308
0.162367
0.163194
0.160403
0.238906
0.047981
0.0625796
0.185332
0.0360391
0.0678919
0.0180071
0.0629064
0.028568
0.180302
0.075113
0.258344
0.0770644
0.237333
1.38694
0.0833249
0.0917355
0.0685138
0.165235
0.0744568
0.084079
0.144949
0.207072
0.221351
0.152153
0.147486
0.170455
0.149817
0.0550456
0.107675
0.102554
0.115619
0.127185
0.091746
0.100314
0.110686
0.126361
0.116533
0.0642939
0.208142
0.274168
0.526079
0.279246
0.12655
0.144135
0.143995
0.121848
0.104604
0.137036
0.224815
0.133152
0.124415
0.134457
0.130931
0.134571
0.312758
0.125378
0.50167
0.16471
0.132891
0.17372
0.103256
0.124563
0.154344
0.184596
0.0528857
0.117051
0.101355
0.192484
0.173067
0.127239
0.200344
0.0470213
0.238354
0.0661901
0.114143
0.088626
0.229378
0.144542
0.118895
0.150945
0.858988
0.131902
0.0487878
0.0680287
0.1091
1.37307
0.112747
0.072756
1.01022
0.0826277
0.118953
0.102972
0.084116
0.0465054
0.806373
0.392805
0.123256
0.0886232
0.0945094
0.0473139
0.111904
0.112237
1.25361
0.0881988
0.0687126
0.0876735
0.0666289
0.0806795
0.0937244
0.142552
0.0477141
0.195038
0.342444
0.121694
0.136266
0.124304
0.119588
0.126688
0.114944
0.121063
0.123502
0.113631
0.0604953
0.0845861
0.148012
0.126594
0.146444
0.174537
0.124588
0.26607
0.129674
0.128003
0.163604
0.0778412
0.060514
0.0469492
0.0759608
0.205942
0.115399
0.122018
0.126809
0.0837816
0.307048
0.183643
0.0944646
0.103834
0.135239
0.13647
0.147869
0.131575
0.114468
0.121423
0.0352247
0.231355
0.152787
0.0534418
0.0786116
0.0697408
0.176574
0.275133
0.235232
0.17627
0.108065
0.0606331
0.204463
0.129
0.0728353
0.20191
0.282375
0.246611
0.287494
0.478124
0.0711236
0.0872002
0.118394
0.248919
0.06765
0.130561
0.12749
0.254726
0.0422199
0.143463
0.116036
0.0429197
0.117306
0.134249
0.341215
0.0883327
0.224789
0.199511
0.0686738
0.831901
0.151344
0.0699701
0.258843
0.14443
0.0418427
0.0498605
0.27651
0.0474543
0.0461847
0.0765896
0.244688
0.444911
0.213415
0.210719
0.30246
0.0494196
0.0759047
0.0387334
0.0472857
0.188576
0.214932
0.070574
0.161219
0.301881
0.41838
0.195598
0.122024
0.980977
0.0484951
0.0381633
0.195714
0.0699893
0.108277
0.0565778
0.0654059
0.074512
0.0950913
0.505618
0.0624564
0.155744
0.14836
0.0842294
0.0890469
0.242633
0.213899
0.253839
0.0463406
0.0472892
0.229126
0.47297
0.196841
0.170992
0.045247
0.0699022
0.101265
0.056433
0.0615882
0.120598
0.0295879
0.339966
0.0395315
0.172584
0.250786
0.107618
0.091218
0.256425
0.519969
0.161496
0.114789
0.203398
0.143215
0.188018
0.106222
0.0433533
0.085908
0.186824
0.278904
0.111608
0.123831
0.211454
0.181206
0.147952
0.236387
0.485185
0.0993663
0.0789163
0.0802719
0.0373254
0.0434373
0.0483343
0.141983
0.204537
0.0609401
0.169285
0.0657866
0.0643786
0.0204549
0.0411671
0.232717
0.0384078
0.153566
0.0624559
0.0258181
0.104272
0.0754213
0.0903299
0.118539
0.136182
0.292768
0.067509
0.426627
0.101291
0.41915
0.259582
0.119916
0.0411985
0.509121
0.0740544
0.246206
0.0811536
0.236276
0.26328
0.123612
0.0503327
0.0668
0.0209917
0.247377
0.0503232
0.0722659
0.0815824
0.483704
0.270428
0.0804326
0.10717
0.228596
0.1988
0.0824974
0.319878
0.166462
0.0791923
0.234746
0.0703129
0.0965285
0.182138
0.144195
0.0886251
0.194726
0.0495307
0.0402778
0.172798
0.0594942
0.031517
0.0355936
0.462796
0.0477085
0.0681914
0.0227423
0.0297738
0.0519713
0.10298
0.0562494
0.0442068
0.036464
0.37504
0.0380885
0.0725034
0.05231
0.4042
0.260534
0.0980606
1.36842
0.125437
0.041367
0.0577098
0.0774899
0.0534137
0.462264
0.0691468
0.0628286
0.11207
0.142928
0.0750889
0.0376956
0.0380703
0.174699
1.24341
0.060694
0.0184775
0.518467
0.184986
0.0779555
0.40379
0.0892544
0.108946
1.68878
0.0896294
0.0303003
0.0555284
0.497263
0.276328
0.0593315
0.123728
0.0554752
0.0488756
0.0843983
0.058267
0.0632386
0.0643065
0.111254
0.121918
0.926935
0.0625826
0.114017
0.0355512
0.0539129
0.224826
0.0676964
0.042926
0.0392408
0.0201422
0.145153
0.0649762
0.0551763
0.214438
1.64934
0.0249893
0.120403
0.154935
0.0662555
0.124469
0.056204
0.0300421
0.10153
0.122257
1.65951
0.063685
0.20745
0.214954
0.0556433
0.0576314
0.0720791
0.0800039
0.0821251
0.0487295
0.0690916
0.207009
0.0617864
0.0209088
0.0584744
0.0724945
0.251851
0.45381
0.0501038
0.0601522
0.0184085
0.102316
0.246806
0.124418
0.0594321
0.172902
0.453706
0.423238
0.182815
0.182516
0.126584
0.339194
0.235321
0.176707
0.0263825
0.0472967
0.125835
0.0477019
0.0382147
0.0793005
0.14774
0.0493457
0.316278
0.122926
0.0742749
0.0577825
0.0560993
0.103993
0.232166
0.0557327
0.0706455
0.083645
0.156566
0.152527
0.0356126
0.0735184
0.0703111
0.14086
1.60904
0.17692
0.0743474
0.0428604
0.0669009
0.0705691
0.0565199
0.0353433
0.102369
0.238374
0.197414
0.11428
0.303515
0.0726765
0.0457284
0.0832309
0.0752195
0.356592
0.0537045
0.0739752
0.111904
0.153287
0.0810491
0.0830277
0.18351
0.124513
0.214253
0.0396091
0.0764039
0.0779528
0.390255
0.0471404
0.0879357
0.0332695
0.166983
0.0596879
0.301609
0.0283998
0.263579
0.0726719
0.137543
0.0864366
0.13523
0.0689046
0.122964
0.260019
0.18606
0.0647032
0.124194
0.113216
0.247396
0.0759468
0.0696979
0.161853
0.24965
0.158801
0.0184327
0.235672
0.0863547
0.200689
0.102056
0.0214787
0.0196627
0.0196977
0.018919
0.0638712
0.059845
0.0646374
0.0631961
0.0238755
0.0629484
0.0637512
0.0262336
0.0283228
0.0298422
0.081398
0.030181
0.0299291
0.259207
0.0396558
0.298657
0.0415741
0.0636714
0.30491
0.134883
0.095997
0.0556872
0.0177821
0.163201
0.0539591
0.0472049
0.104817
0.0557266
0.222437
0.0370072
0.0475423
0.124864
0.0546603
0.0777193
0.0611634
0.0627319
0.0838868
0.174367
0.107946
1.32463
0.159285
0.116901
0.0437374
0.243382
0.118281
0.0617512
0.12093
0.0925416
0.234327
0.0569704
0.0613961
0.133936
0.0473385
0.0344261
0.465812
0.123358
0.243098
0.058324
0.0597972
0.123082
0.118739
0.352308
0.0675744
0.0766044
0.248764
0.0853691
0.0696
0.121417
0.0520058
0.0446355
0.325945
0.082863
0.195285
0.0775081
0.0678647
0.126463
0.165532
0.0658072
0.0587136
0.134925
0.125167
0.151436
0.226587
0.0853857
0.202911
0.0858586
1.29435
0.102412
0.0376663
0.18064
0.0674077
0.0431042
0.191244
0.211782
0.0138503
0.186367
0.102701
1.50813
0.0162673
0.0616508
0.108363
0.19204
0.214156
0.0985499
0.0228303
0.199404
0.0766113
0.0783227
0.0462901
0.0351622
0.164338
0.0789626
0.150027
0.300379
0.0477208
0.0667393
0.122375
0.245017
0.0834614
0.0474863
0.0259517
0.0680084
0.106006
0.0642894
0.409371
0.183782
0.283752
0.108379
0.068754
0.0707024
0.10253
0.641798
0.112956
0.201967
0.166579
0.0459737
0.0340093
0.0771825
0.0631306
0.0698131
0.134569
0.0424287
0.259731
0.354963
0.244962
0.0373718
0.0796496
0.117722
0.141112
0.0870191
0.252299
0.0697801
0.0396741
0.055026
0.0886539
0.248783
0.0752355
0.0430536
0.0612221
0.0873108
0.127314
0.0730628
0.0293666
0.0230498
0.070154
0.151144
0.0537183
0.0918712
0.220105
0.0860441
0.0783502
0.112647
0.0492688
0.0604571
0.0847678
0.0727219
0.142726
0.0347542
0.0329382
0.197362
0.0549355
0.0505105
0.0387777
0.0824572
0.0498699
0.112484
0.0928828
0.0319777
0.0778315
0.0620003
0.20051
0.0351236
0.0810905
0.153434
0.0457017
0.307225
0.0421638
0.0528587
0.152207
0.208885
0.100522
0.0896851
0.133679
0.0209445
0.0808989
0.213021
0.0334543
0.0592864
0.0448727
0.0632692
0.0787725
0.0620774
0.124883
0.0657
0.0365726
0.0912117
0.0524441
0.0392969
0.140542
0.191274
0.0845089
0.209779
0.0587753
0.0748731
0.0735426
0.0480602
0.0424763
0.0382262
0.0682681
0.207366
0.0494053
0.0511516
0.119016
1.09387
0.0863607
0.0636319
0.121674
0.0428499
0.224769
0.0802395
0.0627173
0.0597737
0.0427502
0.117967
0.0904154
0.130847
0.101974
0.0952527
0.0776303
0.0800742
0.0478693
0.06518
0.974396
0.124025
0.153065
0.0403337
0.173194
0.0780947
0.060745
0.225345
0.0747818
0.0733953
0.136185
0.0675574
0.342398
0.0407732
0.251731
0.164821
0.0723695
0.0381307
0.0684751
0.253751
0.0743676
0.19656
0.206256
0.164812
0.0790575
0.062548
0.105377
0.0967058
0.102657
0.0302981
0.0664058
0.0424827
0.737529
0.131971
0.0747612
0.0596562
0.111785
0.039446
0.0627785
0.0507289
0.174262
0.0470877
0.177578
0.0695705
0.0477391
0.0852419
0.0716941
0.217692
0.320413
0.161251
0.539415
0.0641293
0.0980627
0.0465778
0.133374
0.112666
1.23418
0.13214
0.319354
0.174844
0.0940248
0.0764692
0.176934
0.1967
0.0376613
0.0770515
0.0990667
0.0711076
0.209644
0.163514
0.087399
0.0846583
0.0944505
0.0551098
0.0217149
0.0798872
0.143712
0.283226
0.0223676
0.996776
0.14111
0.161044
0.133767
0.0670511
0.0749513
0.0462257
0.105801
0.148687
0.956067
0.0673201
0.0598394
0.152278
0.179537
0.0626508
0.072403
0.160267
1.22796
0.133602
0.0499934
0.173402
0.1845
0.192754
0.0211068
0.207616
0.0900579
0.130679
0.314186
0.0145831
0.091102
0.0389798
0.131209
0.11786
0.298359
0.0162381
0.124771
0.314419
0.0984229
0.0901745
0.0502728
0.0625969
0.21027
0.0534271
0.114222
0.0548408
0.177438
0.0549457
0.102103
0.143613
0.0798026
0.259475
0.145386
0.0383152
0.0939363
0.112521
0.222936
0.086835
0.204124
0.0590932
0.113108
0.145981
0.0749964
0.280241
0.0748547
0.0739881
0.0747636
0.0891642
0.114778
0.0345859
0.0690974
0.098458
0.0533062
0.108446
0.0543704
0.0735332
0.0654442
0.197137
0.0622629
0.17988
0.0713711
0.0850681
0.0928508
0.130364
0.0909926
0.0410349
0.223736
0.0576851
0.11967
0.0538936
0.0514779
0.0253728
0.0764318
0.0485805
0.176161
0.287259
0.0204117
0.0589311
0.104972
0.0663928
0.10945
0.0467179
0.102432
0.0622943
0.179957
0.0608193
0.0576463
0.0674201
0.0621863
0.153272
0.0789985
0.153764
0.0878628
0.0721208
0.206676
0.0968473
0.153687
0.0705365
0.138039
0.054755
0.073336
0.0724122
0.0176802
0.0647379
0.0864456
0.135284
0.0393264
0.259993
0.379633
0.231802
0.0604254
0.111371
0.124133
0.0326116
0.0697645
0.0849974
0.153968
0.0865425
0.0596959
0.0827313
0.0731863
0.0980809
0.0868104
0.0711921
0.140796
0.884551
0.127058
0.851915
0.0682594
0.106246
0.0627602
0.0717683
0.163122
0.210678
0.0857695
0.0591382
0.0741952
0.0946592
0.0608664
0.0740661
0.061533
0.0899903
0.0652776
0.152762
0.0538288
0.125359
0.118992
0.105545
0.30393
0.0681183
0.13232
0.145195
0.0496957
0.0857362
0.153386
0.0797837
0.0915934
0.180383
0.0242791
0.144342
0.175692
0.183085
0.0590281
0.201793
0.172563
0.0475482
0.854383
0.156139
0.18879
0.0766747
0.10375
0.0869657
0.222174
)
;

boundaryField
{
    frontAndBack
    {
        type            empty;
    }
    wallOuter
    {
        type            kqRWallFunction;
        value           nonuniform List<scalar> 
102
(
0.0203153
0.0203153
0.0617639
0.0221475
0.0236026
0.0387393
0.047981
0.0204549
0.0495307
0.0402778
0.0594942
0.031517
0.0681914
0.0227423
0.0297738
0.0519713
0.0562494
0.0725034
0.0774899
0.0750889
0.0184775
0.0303003
0.0555284
0.0355512
0.0539129
0.0556433
0.0576314
0.0263825
0.0793005
0.0596879
0.0283998
0.0214787
0.0196627
0.0196977
0.018919
0.0638712
0.059845
0.0646374
0.0631961
0.0238755
0.0629484
0.0637512
0.0262336
0.0283228
0.0298422
0.030181
0.0299291
0.0415741
0.0636714
0.0557266
0.0370072
0.0546603
0.0627319
0.0569704
0.0613961
0.0344261
0.058324
0.0597972
0.0520058
0.0446355
0.0674077
0.0138503
0.0162673
0.0228303
0.0789626
0.0259517
0.068754
0.0631306
0.0698131
0.0396741
0.0430536
0.0612221
0.0230498
0.070154
0.0537183
0.0492688
0.0347542
0.0505105
0.112484
0.0457017
0.0528587
0.0209445
0.0620774
0.0657
0.0845089
0.0382262
0.0511516
0.0597737
0.0478693
0.0424827
0.0551098
0.0217149
0.0211068
0.0145831
0.0162381
0.0502728
0.0749964
0.0345859
0.0533062
0.0204117
0.0467179
0.0622943
)
;
    }
    inlet
    {
        type            fixedValue;
        value           nonuniform 0();
    }
    outlet
    {
        type            zeroGradient;
    }
    wallInner
    {
        type            kqRWallFunction;
        value           nonuniform List<scalar> 
138
(
0.0211107
0.0552152
0.050785
0.115489
0.214485
0.0884706
0.690125
0.0726842
0.128507
0.0850749
0.0682172
0.0559805
0.0336383
0.229639
0.0833152
0.0539389
0.0540167
0.0516019
0.0463587
0.0915586
0.0567608
0.0224594
0.0848515
0.0601242
0.0197522
0.0796308
0.0356955
0.0681569
0.945029
0.0492358
0.0742004
0.0825977
0.0492694
0.0466074
0.0421562
0.0314364
0.0490641
0.017876
0.0445252
0.0596693
0.0525782
0.0242198
0.0482569
0.050106
0.0509764
0.0265289
0.031306
0.0721384
0.0371177
0.0686588
0.0543458
0.0282727
0.0364612
0.0466763
0.0136507
0.0828375
0.047807
0.0706496
0.048649
0.0828945
0.0495919
0.0355822
0.0186192
0.0520628
0.0854991
0.0230126
0.041164
0.0817686
0.0519731
0.0459664
0.054254
0.0363144
0.0627191
0.0180071
0.0629064
0.0744568
0.084079
0.0550456
0.526079
0.104604
0.0528857
0.0470213
0.088626
0.0487878
0.0680287
0.111904
0.0687126
0.0876735
0.0937244
0.26607
0.129674
0.060514
0.0352247
0.116036
0.0418427
0.0498605
0.0950913
0.0472892
0.111608
0.0434373
0.0483343
0.0258181
0.0209917
0.0355936
0.0477085
0.060694
0.0488756
0.0201422
0.0249893
0.0300421
0.0209088
0.0601522
0.0184085
0.0477019
0.083645
0.0396091
0.0184327
0.0396558
0.0177821
0.0696
0.134925
0.125167
0.0431042
0.0340093
0.0697801
0.0329382
0.0334543
0.0448727
0.0748731
0.0428499
0.0790575
0.0697645
0.854383
0.156139
0.0766747
0.10375
0.0869657
0.222174
)
;
    }
    procBoundary2to0
    {
        type            processor;
        value           nonuniform List<scalar> 
42
(
1.28988
1.28988
0.0910962
0.0716374
0.164145
1.59359
0.116351
0.116351
0.13955
0.123443
0.277587
0.277587
0.210433
0.306547
0.333621
1.65119
0.427527
0.120643
0.128835
0.793612
0.796242
0.111444
0.111444
0.672058
0.796242
0.0962813
1.11015
0.0585572
1.11015
1.11549
0.714818
0.0435846
0.0472199
0.0568905
0.0726646
0.0716374
0.427527
0.0538566
1.55474
0.132361
0.132361
0.0960833
)
;
    }
    procBoundary2to1
    {
        type            processor;
        value           uniform 0.789427;
    }
    procBoundary2to3
    {
        type            processor;
        value           nonuniform List<scalar> 
29
(
0.145087
0.149837
0.0553726
0.0669029
0.560756
0.0954311
0.232667
0.141392
0.0971063
0.0989572
0.135275
0.742422
0.130579
0.389944
0.439956
0.395842
0.0789013
0.0789013
0.149837
0.389944
0.441413
0.0767415
0.155074
0.0946878
0.358811
0.0707999
0.0971063
0.794254
0.742422
)
;
    }
}


// ************************************************************************* //
