/*--------------------------------*- C++ -*----------------------------------*\
| =========                 |                                                 |
| \\      /  F ield         | OpenFOAM: The Open Source CFD Toolbox           |
|  \\    /   O peration     | Version:  v1912                                 |
|   \\  /    A nd           | Website:  www.openfoam.com                      |
|    \\/     M anipulation  |                                                 |
\*---------------------------------------------------------------------------*/
FoamFile
{
    version     2.0;
    format      ascii;
    class       surfaceScalarField;
    location    "0.51";
    object      phi;
}
// * * * * * * * * * * * * * * * * * * * * * * * * * * * * * * * * * * * * * //

dimensions      [0 3 -1 0 0 0 0];
oriented        oriented;


internalField   nonuniform List<scalar> 
2776
(
7.77181e-06
0.000149311
-5.31018e-06
-0.000151773
-3.77763e-05
8.75841e-06
-0.000122426
0.000151444
-5.35154e-05
1.40362e-05
-2.91932e-05
6.86724e-05
-1.90447e-06
8.09968e-07
0.000110251
-0.000109157
8.69893e-05
8.90231e-05
-7.61038e-05
-9.99087e-05
0.000318978
0.00024519
-0.000357906
-0.000206262
0.000105727
-6.34952e-05
6.44907e-05
-0.000106722
-0.000103507
-0.000113718
0.000114475
-5.70177e-05
4.27071e-05
-0.000100165
-0.00011748
0.000223179
-0.000115178
9.47838e-06
5.49434e-06
2.58854e-06
-8.08288e-06
-0.000204291
0.000249842
6.59689e-06
-5.2148e-05
1.47568e-05
-1.47568e-05
0.000118518
-6.15651e-05
-5.54646e-05
-1.48878e-06
-4.72583e-05
-0.000103624
9.00388e-05
6.08435e-05
4.83607e-06
2.49573e-05
-1.45457e-06
-2.83388e-05
-1.53272e-05
-8.85018e-06
2.41774e-05
8.2087e-05
2.85689e-05
4.36706e-07
-0.000111093
7.45623e-05
2.31604e-06
7.11917e-05
-0.00014807
2.25558e-05
-3.6619e-05
9.80214e-05
-8.39582e-05
-2.27238e-05
3.30665e-05
3.69377e-05
-4.72804e-05
-4.2302e-05
-4.74648e-05
7.33452e-05
1.64217e-05
-2.89804e-05
1.64761e-05
1.25043e-05
1.03043e-05
0.000139942
-0.000128865
-2.13812e-05
3.34333e-05
9.94063e-05
-1.43212e-05
7.10701e-06
1.37604e-05
1.98564e-06
-2.2853e-05
4.87546e-06
3.07286e-05
-2.32129e-05
-1.23912e-05
2.67137e-05
-1.86787e-05
-6.41813e-06
-1.61684e-06
-8.95901e-05
1.63861e-05
-0.000132556
0.000140867
-8.31154e-06
3.55896e-05
-9.50235e-05
-0.000155752
0.000142658
-0.000256425
-0.00033004
0.000443808
6.07067e-05
-5.40893e-05
-7.04887e-05
-1.25554e-06
1.15377e-05
0.000162959
-0.000173241
-0.00013299
-2.00079e-05
9.48401e-05
5.81573e-05
6.63107e-05
-5.85791e-05
-5.49899e-05
-2.74652e-05
2.62081e-05
-5.03167e-05
5.15738e-05
-8.31432e-06
8.0745e-05
-9.92674e-06
-6.2504e-05
0.000107358
0.000215843
-0.000283064
-4.01374e-05
2.35564e-05
-4.85932e-05
-3.31996e-05
-0.000170566
-5.24623e-07
2.61677e-06
8.83607e-07
-1.63875e-05
1.28871e-05
7.88358e-05
-4.31191e-05
7.87588e-05
0.00019181
-0.00012763
8.08669e-08
-6.42603e-05
-0.000104368
8.93613e-05
-2.85635e-05
4.357e-05
-0.000132926
0.000151843
1.74739e-05
-3.63905e-05
-3.35938e-05
9.51541e-05
0.000100168
-0.000161729
3.85204e-05
-7.84381e-05
0.000122005
5.61681e-06
-2.29092e-05
1.99092e-05
5.88413e-05
-5.71926e-06
-7.58459e-05
2.81133e-05
-3.38485e-05
2.53146e-05
-1.95794e-05
-3.82491e-05
-6.34257e-06
-1.86137e-05
-8.79103e-05
0.000243317
-0.00027867
4.72069e-05
-1.18545e-05
-0.000111866
3.0836e-05
0.000100103
-1.90729e-05
0.000168113
-7.6549e-06
-0.000111775
-4.86827e-05
-1.61379e-05
2.56559e-05
-1.90888e-05
9.57091e-06
6.27911e-05
0.000203203
-2.2677e-05
2.4196e-06
-1.58039e-06
3.0904e-05
-3.17432e-05
-0.000133811
2.34465e-05
-0.0001269
7.55105e-05
2.79431e-05
3.98182e-05
-8.22912e-05
4.21529e-05
3.20048e-07
-0.000315244
4.29467e-05
-6.37182e-06
3.81942e-05
1.71993e-05
-2.2327e-05
-2.61436e-06
-0.000157447
0.000175362
-1.5301e-05
-4.15289e-05
6.48427e-05
-6.56158e-05
2.93828e-05
-1.27168e-05
-2.51337e-05
8.46771e-06
-0.000118157
0.000171004
-7.13626e-05
1.85158e-05
-6.49703e-06
3.17363e-05
-3.35536e-05
-0.000148149
8.74836e-05
0.00012912
-6.84537e-05
-4.98874e-06
-1.50829e-06
3.6486e-05
0.000183235
-6.94653e-06
-0.000157572
-5.28902e-05
6.23126e-05
7.83148e-05
-0.000165556
0.000125761
-0.000137854
-5.93231e-05
0.000107587
0.000113328
0.000214999
-0.000265536
-3.33497e-05
5.77445e-05
-6.60734e-05
4.16786e-05
9.30434e-05
0.000110239
-0.000113667
-8.96159e-05
9.35788e-05
-1.96873e-05
-9.04466e-05
1.65552e-05
-2.10295e-05
9.10036e-06
1.75459e-05
-3.48287e-06
-1.64107e-05
2.87457e-05
-8.85216e-06
9.14391e-05
3.49699e-05
-1.92281e-05
-0.000107181
2.36059e-05
-1.7569e-05
-9.51981e-06
7.57385e-05
5.36163e-05
-4.91889e-05
-8.0166e-05
0.00012973
1.2911e-05
-2.85464e-05
-0.000114095
-0.000116727
0.000117122
-1.96243e-06
1.56785e-06
8.84427e-05
-2.52165e-05
5.9723e-05
-0.000122949
-3.49611e-05
9.7785e-05
-6.28239e-05
7.18371e-05
-8.99977e-05
-0.000169638
0.000187799
-1.96657e-05
-0.000101761
0.000141271
-1.98444e-05
2.11597e-05
6.83576e-05
-6.1404e-05
6.47148e-05
-4.08346e-05
-1.61091e-05
-0.000132171
2.47098e-05
0.000123571
4.31685e-06
-6.72424e-06
-3.1288e-05
3.36954e-05
-3.74544e-06
0.000120544
1.13622e-06
-0.000117935
2.60315e-05
-1.02587e-05
7.267e-05
-3.21277e-05
-3.92258e-05
3.86083e-05
2.73311e-05
6.58056e-07
-3.51787e-05
-5.41023e-05
8.8623e-05
5.16035e-05
-6.77126e-05
5.47042e-05
-9.14667e-05
7.85035e-05
-4.1741e-05
-0.000138139
8.40483e-05
-2.48358e-06
5.98357e-08
4.0618e-05
2.18821e-06
9.45181e-05
-3.1275e-06
-0.000144995
-8.78437e-07
0.000142128
5.07058e-05
-8.28284e-05
7.49559e-05
-4.28333e-05
-1.69233e-05
9.54227e-06
-5.09434e-06
1.24753e-05
2.17384e-06
-4.43194e-05
-8.75786e-05
0.000129724
3.10604e-05
-5.22293e-05
-4.64501e-05
6.7619e-05
-2.08515e-05
6.80027e-05
2.63868e-05
-1.163e-05
5.24594e-05
-1.28903e-05
-4.78603e-05
8.29112e-06
0.000108018
4.32811e-05
-6.19799e-05
-8.93189e-05
0.000112348
-7.97449e-05
7.54142e-05
5.17998e-06
-0.000119256
-2.65077e-06
0.000126833
-3.37244e-05
-0.00019328
0.000100172
-7.91701e-05
9.76435e-06
8.6605e-05
-3.6287e-06
-9.27948e-05
0.000120847
-2.4424e-05
4.21115e-05
1.16962e-06
0.000106638
-9.042e-05
5.9521e-05
5.2098e-05
-2.23491e-05
9.99814e-05
0.000120208
-5.16204e-05
0.00010571
-0.000174298
7.95901e-07
-4.79606e-06
-2.87782e-08
4.02893e-06
-4.81301e-05
5.42341e-05
-1.43875e-06
-4.66523e-06
4.79826e-05
-0.00017707
0.000200924
2.99844e-05
-0.000168136
1.32198e-05
0.000124932
-1.4709e-05
1.66008e-05
2.36365e-05
-2.55283e-05
3.41547e-05
-2.24566e-05
-0.00016927
1.73625e-05
-5.72994e-06
-7.92494e-05
6.76168e-05
5.10079e-05
-8.99285e-07
-0.000365353
-6.95694e-05
-2.89425e-05
5.15965e-05
4.69153e-05
0.000143363
0.000166575
-0.00019661
1.6839e-06
-5.50665e-06
4.70636e-06
1.15539e-05
1.28354e-05
-2.14018e-05
-2.98748e-06
0.000138231
-0.000132784
3.12867e-05
-3.67333e-05
0.00013086
1.80817e-05
-0.000114787
0.000209052
1.41277e-05
-2.24824e-05
0.000120267
-0.000220551
0.000190164
4.43996e-05
-1.40123e-05
-5.2026e-05
0.00015421
4.43061e-05
-0.00014649
-5.19625e-06
3.90595e-05
-6.87074e-05
5.55329e-05
1.31744e-05
-2.79634e-05
-0.000122193
0.000150157
7.11036e-05
-5.51256e-06
-6.16824e-05
-3.90856e-06
5.33696e-05
-0.000332139
0.000329777
-5.52589e-06
-0.000171017
-1.55197e-06
-2.68968e-05
1.72437e-05
1.04489e-05
4.97811e-06
0.000119712
-7.56804e-06
-2.09232e-06
-0.000114325
8.09277e-05
3.54897e-05
5.49876e-05
7.02705e-05
-9.92266e-05
-1.30241e-05
9.18818e-06
-3.34439e-06
7.18033e-06
0.000154447
-9.57982e-05
-1.29108e-05
4.63298e-05
-2.07595e-05
-1.26595e-05
-6.25109e-05
7.59221e-05
4.44315e-05
-5.78427e-05
7.72065e-05
-9.22937e-07
3.13489e-05
-4.50584e-05
-2.55163e-05
8.5639e-05
-3.12988e-06
-1.02368e-05
-7.22722e-05
0.000134429
6.05682e-06
-2.85286e-05
4.34993e-05
2.09895e-05
-2.58805e-05
-0.000100706
0.000154071
-6.41666e-05
-1.11177e-05
0.000168131
-9.28467e-05
2.50863e-05
-4.4509e-05
1.94227e-05
-7.23923e-05
4.59255e-05
-4.0746e-06
3.05415e-05
-2.28279e-05
2.02099e-05
7.49341e-06
5.8135e-05
8.21796e-06
2.50861e-05
-7.16171e-05
0.000109348
-2.76094e-06
1.02935e-05
-1.02702e-05
-4.81933e-06
-2.25708e-07
-0.000139516
0.000193111
9.18586e-06
2.86498e-05
0.000168715
-9.92372e-05
-0.000107255
-5.96824e-06
4.3549e-05
5.91861e-06
0.000130048
-7.75045e-05
0.000162456
-4.66429e-05
1.73347e-05
-7.43158e-05
0.000126985
-0.000139601
6.79166e-05
-7.36538e-05
6.04415e-05
2.22601e-05
-5.44799e-05
1.75108e-05
1.34557e-05
7.84605e-05
5.57044e-05
7.43796e-05
-5.11633e-06
5.58997e-05
7.46435e-05
-7.35012e-05
1.04591e-06
-2.92708e-06
-4.81632e-05
2.08389e-05
3.02514e-05
7.10903e-05
3.75453e-05
-4.2325e-05
3.47336e-06
5.1944e-05
1.48885e-05
-6.68325e-05
-8.57936e-05
6.99166e-05
1.5877e-05
1.62588e-05
6.11452e-05
-9.43385e-05
3.36212e-05
0.000128634
-4.17943e-05
7.80846e-05
3.90619e-05
-2.72695e-05
-0.000144577
-6.25529e-05
5.45236e-05
-5.69564e-05
6.49857e-05
-6.01664e-05
4.83193e-05
-8.10737e-05
-3.87397e-05
3.6985e-05
-3.90098e-05
1.57765e-05
-4.21634e-05
2.45338e-05
-6.01183e-05
6.54145e-05
-2.983e-05
2.60597e-05
-2.30084e-05
-1.55036e-06
-5.69978e-05
-1.38441e-05
2.14968e-05
-3.81001e-05
4.04804e-05
-4.57951e-05
-1.75946e-05
2.70494e-05
2.44068e-05
0.000174833
-4.73971e-05
-4.94448e-05
-5.57772e-05
-4.77575e-05
4.97179e-05
-1.36385e-05
1.1678e-05
-5.57434e-05
6.25095e-05
2.66594e-05
-1.60019e-05
-4.96673e-05
8.2032e-05
-4.62002e-05
-1.1298e-05
3.58097e-05
-3.49205e-05
3.0188e-05
-3.10772e-05
-4.22506e-06
-2.20982e-05
1.68069e-06
-7.27849e-05
4.55094e-06
6.65532e-05
-2.72292e-06
4.73886e-06
-2.01594e-06
7.62894e-05
-3.81222e-05
-0.000100147
-0.000146643
-1.63064e-06
9.53831e-05
-1.93112e-05
3.01898e-05
1.4078e-05
-2.49567e-05
-0.000145479
-4.08454e-06
0.000157335
-4.88955e-05
7.62874e-05
6.83505e-05
-3.76706e-05
6.44742e-05
-5.83865e-05
-2.40012e-05
8.2162e-05
-2.95215e-05
0.000103244
-5.37244e-06
2.37002e-05
-7.13405e-05
3.13109e-05
2.79749e-05
-5.34225e-05
-5.8633e-06
-3.56154e-05
-8.62186e-05
4.89419e-05
7.28921e-05
7.42693e-05
-8.41623e-05
0.000145685
-0.000135792
8.77636e-06
-7.91976e-06
1.06973e-05
3.242e-05
-4.91342e-05
3.02123e-05
-1.3498e-05
0.000105343
-0.00011366
2.42395e-05
-1.59229e-05
-2.7111e-05
-1.16484e-05
2.19946e-05
1.67648e-05
3.71375e-05
4.06933e-05
-6.83982e-05
4.92016e-05
-2.4112e-05
-1.30693e-05
1.00702e-05
-0.000154728
-1.67328e-05
9.2216e-06
8.52462e-05
-2.45796e-05
0.000115331
-9.80793e-05
6.70126e-06
-1.17395e-06
-1.59264e-05
-4.68975e-05
1.8694e-06
-6.15374e-06
4.631e-05
-8.26773e-06
-0.000103473
6.78577e-05
1.27607e-05
-7.89466e-08
-1.26817e-05
0.000130032
-3.01881e-05
-0.000125922
2.24487e-05
2.62645e-05
0.000121767
-8.03623e-06
6.51413e-05
9.11777e-06
-6.62228e-05
3.36767e-05
-1.42258e-05
2.45075e-05
-4.12764e-05
0.000125146
-4.83497e-05
6.76525e-05
-7.25563e-05
-3.13243e-06
-4.87327e-05
2.55513e-05
0.000112448
-4.53932e-05
-0.000131221
-7.50975e-05
2.93945e-05
4.38408e-05
1.86224e-06
1.79306e-05
2.66554e-05
-5.90779e-05
-5.36416e-06
-3.79474e-05
5.39513e-05
5.16486e-05
-3.31869e-06
7.85627e-05
-0.000238484
-0.000119421
9.45502e-05
7.42344e-05
-0.000107941
1.22564e-05
-0.000107688
-3.97922e-05
1.66787e-05
-5.79713e-05
7.08056e-05
-7.29526e-05
3.69803e-05
-6.31181e-05
5.93835e-05
-3.32457e-05
9.43546e-06
-0.000133172
-1.58644e-05
3.97934e-06
-2.47324e-06
-9.42587e-06
-3.19676e-05
6.93505e-06
1.46663e-05
-1.8345e-05
-1.24592e-05
-9.38758e-05
3.40899e-05
-6.31214e-06
-1.58725e-05
5.86928e-05
3.76696e-05
4.11001e-06
-2.35363e-06
-1.38266e-05
1.61515e-05
-3.03123e-05
3.88522e-05
-6.65505e-05
5.80105e-05
1.55796e-05
-9.20428e-06
-1.18134e-05
5.438e-06
4.90581e-05
2.07541e-05
9.79688e-05
-0.000167781
4.22086e-05
5.09517e-06
7.25238e-06
1.40116e-05
-2.63592e-05
3.97764e-05
0.000153396
6.75904e-05
6.5842e-05
-5.35335e-05
-5.76126e-06
7.15511e-05
-0.000167136
-5.96418e-05
4.99949e-05
0.000176783
-5.23938e-06
0.000197953
1.15367e-05
-7.32705e-05
7.2539e-06
-5.79336e-05
-7.41676e-05
9.77276e-05
3.43736e-05
4.51858e-06
-6.08639e-05
5.34183e-05
8.14843e-05
1.62882e-05
-7.16259e-05
-2.61466e-05
8.59949e-05
-6.18965e-05
3.14282e-05
5.56697e-06
0.000126711
-5.63805e-05
4.63872e-05
-0.000116718
-6.11903e-05
-9.22562e-06
-5.22688e-06
1.01147e-05
4.33783e-06
-0.000169258
5.11803e-05
-7.40568e-05
1.17817e-05
7.96098e-05
-4.5059e-05
-4.72983e-05
5.98268e-05
3.25305e-05
-4.35066e-06
5.58781e-05
-6.21633e-05
1.06358e-05
2.57152e-05
-1.5148e-05
-2.98041e-05
2.74504e-05
7.39756e-05
0.000101658
-6.67815e-05
8.22133e-05
-9.9594e-05
-8.68532e-05
9.84596e-06
9.81669e-05
-5.22077e-05
4.34546e-05
3.6819e-05
-0.000177195
-0.000191763
1.96851e-05
6.48675e-05
-9.02071e-05
-3.26316e-05
1.65775e-05
-2.48125e-05
-3.15572e-05
2.36857e-05
-7.39483e-07
-0.000114624
5.23034e-07
0.000153163
8.4556e-06
-5.0385e-06
-7.37815e-05
0.000132883
-8.61851e-05
9.91416e-05
-0.000209567
-2.02301e-05
1.8144e-05
1.95968e-05
0.000132453
-0.000115366
-1.70869e-05
-9.16399e-05
0.000101113
-9.4728e-06
-8.18389e-05
5.05842e-05
3.12547e-05
-2.10933e-05
4.62521e-05
-2.51589e-05
9.94722e-05
-7.14099e-05
-2.80623e-05
-4.56444e-06
-2.52134e-06
7.08578e-06
4.60394e-05
4.47271e-05
-9.07665e-05
-3.20528e-05
5.79612e-05
-2.59084e-05
0.000170895
-0.000158161
-1.27336e-05
-3.69709e-06
-1.73962e-05
-0.000130301
9.40143e-05
3.62867e-05
-7.7751e-05
-1.38889e-05
0.000147578
-1.51245e-05
2.7787e-05
-3.61775e-05
8.3905e-06
3.64464e-05
7.23053e-05
-7.69928e-05
4.68749e-06
1.26897e-05
1.26199e-05
-4.46728e-05
0.000217092
-4.61974e-05
-1.81578e-05
-7.82618e-06
2.5984e-05
-7.4238e-05
-2.1824e-05
9.6062e-05
-0.000126281
4.44421e-05
2.99584e-06
-3.07479e-06
-6.23258e-05
8.32264e-05
-2.09007e-05
-0.000143648
9.29519e-05
5.06964e-05
-1.82749e-05
0.00012555
1.94356e-05
3.83993e-07
1.76813e-05
-1.29701e-05
-9.09497e-05
3.45347e-06
9.29779e-06
1.93301e-05
-0.000104089
-4.45536e-06
-2.89854e-05
1.62171e-05
-1.29537e-05
2.5722e-05
-1.49186e-05
-1.11628e-05
-4.15878e-05
-1.57686e-05
0.000131693
0.000210242
6.44757e-05
5.4006e-05
1.61164e-05
-3.2982e-05
2.4118e-05
-0.000304515
9.77148e-05
-9.92788e-05
-8.94263e-05
-4.08747e-05
2.8599e-05
5.72766e-05
-8.58756e-05
-2.68088e-05
-2.79859e-05
-8.26153e-06
7.34436e-05
-4.97058e-05
1.56856e-05
7.90445e-05
1.39075e-05
0.000106566
-2.33399e-05
-1.05835e-05
7.97603e-05
1.4254e-05
-1.97899e-05
3.24264e-05
5.16161e-05
-0.000101723
-6.22081e-05
4.39332e-05
-1.84283e-06
-3.98323e-05
-6.28646e-05
-7.09942e-05
-0.00019153
0.000126059
0.000136465
-6.60403e-05
-4.26369e-05
-6.96198e-05
0.000102803
8.21996e-05
3.54662e-05
-7.54573e-05
-4.7006e-05
6.56039e-05
-1.7624e-05
1.82271e-05
8.61849e-06
5.87373e-05
-2.57643e-05
0.000113708
-0.000146681
0.000144704
-0.000141341
5.5374e-05
3.24106e-05
4.29204e-05
-7.34287e-05
-1.90219e-06
6.46022e-06
-2.71818e-05
-3.27966e-06
-4.43903e-05
1.79643e-05
-2.88979e-05
5.53239e-05
-2.13485e-05
-5.14168e-05
5.02913e-05
1.42843e-05
2.68128e-05
-3.4637e-05
-1.16653e-05
-1.75587e-06
-4.47904e-05
2.89554e-05
2.72314e-05
5.55586e-07
6.17409e-05
1.05644e-05
2.10592e-06
5.27165e-06
-1.56391e-05
2.19024e-05
-2.26195e-05
-2.64646e-05
7.00837e-06
-1.83828e-07
-0.000191762
-4.35955e-05
0.000230118
-3.40577e-05
-3.29146e-05
3.666e-05
0.000196043
-5.96204e-05
-0.000188449
-7.86145e-05
-0.00010579
0.000109307
9.00537e-05
4.57085e-06
-8.86198e-05
-6.00482e-06
-5.29796e-05
-7.2467e-05
2.46631e-05
0.000100783
-7.90466e-05
7.08928e-05
2.40571e-05
7.16849e-05
-7.38396e-05
-0.000118589
-5.58796e-06
-5.91594e-05
1.81091e-05
4.1395e-06
3.69108e-05
-3.76093e-05
2.03507e-05
-0.000168398
0.000185657
-7.90042e-05
0.000143047
0.000132
-0.000174448
-5.89485e-06
0.000193529
-1.31863e-05
7.26065e-05
-6.74548e-05
0.000139552
-0.000157294
0.000192291
4.96521e-06
-0.000176631
-2.78277e-06
-5.91547e-05
3.33903e-05
-5.59614e-05
6.45731e-05
-5.60765e-05
-5.92847e-05
6.48239e-05
-8.15707e-05
7.60315e-05
-6.66664e-05
-4.85797e-05
4.9234e-05
-3.46092e-05
-8.12911e-05
-7.70143e-05
-7.04134e-05
9.33385e-05
5.23827e-05
-9.88128e-05
6.6476e-05
-0.00011791
6.19199e-05
-4.28224e-05
1.75897e-05
-8.66543e-06
-7.37296e-05
-7.82696e-05
0.000163768
-0.0001872
-5.55732e-05
-3.10882e-05
9.66077e-06
7.93269e-06
1.34947e-05
9.68762e-05
-9.23577e-05
-1.51847e-05
-5.33736e-05
3.74701e-05
-3.51719e-05
-4.33132e-05
1.93258e-05
-0.000118107
7.07908e-05
-3.88764e-05
-8.02111e-05
4.82967e-05
-0.000190193
-1.24799e-05
0.00017513
2.7543e-05
-6.55851e-06
4.0122e-05
-3.35635e-05
-1.30241e-05
5.92772e-05
2.91767e-05
-9.98656e-06
-9.52934e-06
-4.28652e-05
0.000102745
5.75377e-05
-0.000117418
-0.000149904
3.05024e-05
3.13721e-05
-3.1165e-05
-3.53791e-05
8.59635e-05
-0.000109896
8.41207e-05
-6.01887e-05
7.72149e-05
-4.6375e-05
5.51236e-05
-2.07412e-05
-0.000120269
8.51744e-05
5.58361e-05
-4.05619e-05
-0.000184689
0.000219356
0.000116262
-6.8244e-05
-6.87589e-05
-5.40867e-05
6.29223e-05
2.25365e-05
3.53225e-05
-1.56899e-05
-6.24978e-05
-0.000164981
7.31353e-06
0.000152229
5.43812e-06
-2.27536e-05
-3.73619e-05
1.68023e-05
-5.55204e-06
-2.39168e-05
-9.40758e-06
-6.87558e-05
3.72135e-05
0.000108757
4.7972e-07
-4.98192e-05
-4.74723e-06
6.42994e-06
2.53959e-05
-3.18258e-05
-0.000165055
-5.28072e-05
0.000177301
-3.02628e-05
-2.36558e-05
0.000109355
-4.11119e-05
9.55258e-05
1.93013e-05
1.09415e-05
-0.000195224
-1.34478e-07
-0.000179589
-1.51601e-05
3.77783e-05
-4.13688e-05
1.50043e-05
2.63645e-05
2.77909e-05
-2.50968e-05
-1.78788e-05
-6.19396e-05
-7.83405e-05
1.78116e-05
2.8019e-05
1.84261e-05
2.86516e-05
-4.70778e-05
2.05634e-05
-3.62004e-05
5.87344e-05
-3.83569e-05
-0.000257968
-0.000142788
-7.03429e-05
9.70601e-06
2.81321e-05
8.85202e-05
-0.0001442
0.000130243
0.000197942
-0.000357302
0.000266718
7.40479e-05
-3.05142e-05
-6.54831e-05
-0.000329703
0.000269677
-7.97485e-05
1.63197e-05
-0.000175334
0.000124419
0.000139435
-2.07213e-05
9.2303e-05
-5.06805e-05
6.09857e-05
2.60607e-05
-3.00113e-05
-6.05654e-05
6.4516e-05
-0.000105458
0.000136432
-6.00719e-05
-6.58508e-05
-0.00012171
1.22269e-05
2.61911e-05
-4.59528e-05
-1.56808e-07
2.20645e-05
7.54407e-05
-7.14445e-05
8.70902e-05
-6.3033e-05
-4.63508e-05
-0.0001637
-4.29774e-05
-3.25418e-05
6.01665e-06
-1.08368e-05
-4.61023e-05
4.73357e-06
-5.98031e-06
-7.97395e-05
3.47646e-05
6.9638e-05
-1.91227e-05
-7.9428e-05
9.93096e-06
1.21451e-06
6.24447e-05
1.6886e-05
-5.72661e-05
-3.58565e-05
4.24404e-05
-2.92034e-05
0.000177766
0.000150249
-0.000152477
5.97654e-05
-0.00012919
0.000116076
0.000110448
-9.73352e-05
5.90795e-05
-0.000182109
-4.79963e-05
0.00012021
-1.63142e-05
-0.000151747
-0.000167851
-2.67382e-05
-5.81646e-05
-0.00014712
4.75964e-05
-8.1962e-05
-0.000164626
2.72783e-05
2.47451e-05
-3.74233e-05
-2.76522e-05
2.08442e-05
-0.000190161
-0.000192469
2.33305e-05
-0.00019419
-3.14481e-05
1.97553e-05
2.98019e-05
-3.74732e-05
3.04072e-05
1.17996e-05
5.69321e-05
3.99442e-05
1.00044e-05
4.69277e-05
-0.000109441
-9.41026e-05
5.68631e-05
-5.67517e-06
2.61003e-05
-1.52215e-05
6.31776e-06
5.86765e-05
-2.5496e-06
-8.03282e-06
7.53223e-06
3.71606e-05
1.90452e-05
9.2954e-05
6.76431e-05
0.000169423
0.000157809
-0.000127986
-1.06641e-05
4.22262e-06
0.000101462
-9.35931e-05
1.9462e-05
1.73793e-05
-2.49108e-06
7.95141e-05
-0.000104461
8.87209e-07
1.85148e-05
-2.29223e-05
2.79814e-05
1.17432e-05
-2.14669e-05
3.68318e-05
1.6091e-06
6.38761e-05
4.51785e-05
-9.84888e-05
0.000105908
-9.11967e-06
2.49569e-05
5.20617e-06
-2.10434e-05
1.58591e-05
-5.92988e-05
4.13703e-05
5.26931e-05
-4.32065e-05
-6.44501e-05
2.82285e-05
-2.01038e-05
0.000104956
-0.000107861
1.22936e-07
-1.00492e-06
-2.04981e-05
0.000197565
-0.000202238
2.51715e-05
1.76875e-05
0.000155429
2.5629e-05
-6.21225e-05
7.3707e-05
-3.35417e-05
6.37307e-08
-0.00011688
-5.15962e-05
9.40253e-05
0.000158376
9.55048e-05
1.94362e-05
-5.01179e-05
6.71475e-06
1.5312e-05
2.80911e-05
1.39691e-05
0.000117759
-8.53406e-05
1.53264e-05
0.00019016
2.1111e-05
-1.40441e-05
-1.61866e-05
-2.0942e-05
0.000156972
-3.12729e-05
-8.86351e-05
0.000115022
2.59853e-05
-1.50886e-05
-4.89968e-05
8.62713e-05
0.000135414
-4.43985e-05
2.4965e-05
3.94314e-06
-1.11227e-05
0.000117328
-0.000110148
2.08117e-05
-3.04537e-05
2.57585e-05
9.71227e-05
0.000105225
8.73209e-05
-3.24744e-05
3.45148e-05
-2.40218e-05
5.4358e-05
-3.42447e-05
8.43888e-05
-3.59407e-05
6.20004e-05
-3.91289e-05
-8.41579e-05
0.000123287
8.82817e-06
3.74406e-05
0.00010888
5.38118e-05
8.92222e-05
9.22893e-05
-2.08744e-05
7.1683e-05
-3.25455e-05
-1.82632e-05
1.61036e-05
-2.94138e-05
6.30281e-05
0.000114083
-3.97424e-05
5.76598e-05
-3.55083e-05
-0.000138034
3.14441e-05
-7.63282e-05
0.000160587
2.95131e-05
-0.000172626
5.47129e-05
1.6492e-05
-1.10124e-05
-6.01925e-05
8.26658e-05
-6.78885e-05
3.18705e-06
3.91545e-05
6.20492e-05
-7.40373e-05
-2.71665e-05
-0.000109476
-1.27179e-05
9.48398e-05
-3.93069e-05
0.000163508
-2.07435e-05
-3.21138e-05
2.06128e-05
-2.59169e-05
6.82092e-05
-8.58636e-05
4.47404e-05
-0.000129893
-3.93648e-06
9.32672e-05
-3.58215e-05
-4.47853e-06
-1.89445e-05
-9.68462e-05
-3.60963e-05
4.0672e-05
3.67946e-05
-6.30356e-05
-4.68537e-05
4.54392e-05
-6.41659e-05
2.39029e-05
4.19436e-05
-7.62344e-06
-2.05626e-06
-8.79611e-05
8.1996e-05
4.29453e-05
0.000122131
8.59775e-05
3.13181e-05
-1.58321e-05
3.08811e-05
3.61807e-05
-4.05869e-05
4.42403e-05
-4.93907e-05
4.57372e-05
-0.000135948
4.53174e-06
3.1295e-05
-2.58223e-05
5.11045e-05
0.000100498
4.38593e-05
-6.2628e-05
9.46619e-06
-1.37728e-05
-4.91904e-06
2.03116e-05
-9.88192e-06
-1.60155e-06
-2.39938e-05
3.27524e-05
-2.34188e-05
1.99633e-05
4.72606e-06
-3.86334e-06
1.31489e-05
5.83225e-06
-3.46076e-05
2.44247e-05
-4.94303e-05
3.2921e-05
-2.85497e-05
-5.17186e-05
9.17174e-05
2.01434e-05
-4.09077e-05
2.07643e-05
3.40862e-05
9.21787e-05
-0.000119011
7.3705e-05
1.52333e-05
-7.24463e-05
0.000123621
-2.74273e-05
-1.0242e-05
9.5358e-06
3.15911e-05
-2.86416e-05
-4.68974e-05
5.56203e-05
1.68695e-07
-4.44391e-05
1.91736e-05
4.97182e-05
-2.25244e-05
-6.38743e-05
-1.78832e-05
-2.27906e-05
1.99303e-05
5.83453e-05
-3.3259e-05
5.17537e-05
-8.40635e-05
0.000110571
3.6928e-06
8.17336e-06
1.39603e-05
-1.52475e-05
-4.54977e-05
2.56496e-05
2.58417e-05
8.57077e-06
-0.000117402
-1.45684e-05
-7.07731e-05
7.55622e-05
2.27539e-05
2.74958e-06
-3.165e-06
0.000111194
1.12581e-05
-3.50898e-05
-2.03021e-05
3.75086e-05
2.09687e-05
-1.69698e-05
-3.03581e-05
-8.29596e-06
-5.84035e-06
1.21078e-05
2.02854e-06
-4.47646e-05
3.12861e-07
1.31465e-05
-9.55573e-06
2.80004e-05
-1.59586e-05
9.41458e-05
0.000106994
-6.52639e-06
-2.8373e-05
6.0502e-05
-0.000142288
8.00814e-05
-6.9492e-05
-3.47943e-05
0.000107006
-4.00028e-05
8.60352e-06
-4.3158e-05
-2.37048e-05
-2.5843e-05
-3.20374e-05
-1.52714e-06
7.62864e-06
1.88558e-05
1.56154e-05
2.50767e-05
-6.40145e-05
-4.30871e-05
0.000153977
-1.8715e-05
-0.000108834
5.75848e-06
3.41414e-05
6.89339e-05
5.02007e-06
2.50779e-06
4.13678e-06
-1.16647e-05
-5.07373e-06
3.65217e-05
3.5427e-05
-3.82054e-05
-4.72776e-05
5.73383e-06
1.00081e-05
-3.37039e-05
1.7962e-05
6.38323e-06
9.16217e-06
-1.39353e-05
-1.61005e-06
1.07672e-05
-9.52352e-05
-8.36277e-06
-2.05263e-05
2.83992e-05
-7.25768e-06
6.85066e-05
4.59291e-06
-5.78662e-05
-0.000124822
3.16067e-05
-4.19852e-06
-6.30368e-06
1.12093e-05
-4.42617e-05
-1.63779e-05
-1.05146e-05
7.78969e-06
5.36219e-05
-1.62647e-05
2.32202e-05
2.16502e-05
-3.37747e-05
0.000168679
3.09476e-05
4.38251e-05
3.87401e-05
-7.14245e-05
3.26844e-05
7.84823e-05
0.000100092
-3.55721e-06
-2.9493e-05
-6.37023e-05
-1.37459e-06
-2.11018e-05
0.000145608
-6.85669e-05
1.96715e-07
3.87148e-07
2.22974e-05
-4.81629e-05
-0.000110897
-9.06485e-06
-2.40468e-05
1.07245e-05
2.03307e-05
3.53518e-05
1.93139e-05
0.000190016
-5.31294e-05
0.000135271
5.10012e-05
-1.26785e-06
-0.00014683
-1.52579e-05
-3.78991e-06
-0.000139396
-1.10517e-06
-4.92552e-05
5.99458e-05
0.000105907
1.33762e-05
6.44683e-05
-1.45949e-05
6.76874e-06
9.44918e-05
-5.40592e-06
-0.000116355
1.94405e-05
5.05356e-05
-1.95386e-05
0.000103506
-0.000173963
1.31682e-06
-6.29727e-05
-1.4328e-05
1.66079e-05
-2.54928e-05
-3.08605e-05
-6.31226e-05
1.69484e-05
7.70347e-05
6.456e-05
0.000104758
-3.32571e-05
-5.40741e-06
4.3798e-05
5.98085e-05
3.44373e-05
8.36068e-05
1.91881e-05
5.93331e-05
-1.17866e-05
-5.27427e-05
-8.70199e-05
-0.000136098
9.49406e-06
-1.27515e-06
-8.21891e-06
1.58773e-05
-8.62217e-05
-5.43958e-05
7.72117e-05
6.34059e-05
8.26711e-06
2.17485e-05
-5.87124e-06
-1.57807e-05
5.22271e-05
-3.11801e-06
-3.1081e-05
-1.02994e-05
1.85665e-05
1.39066e-05
7.84197e-06
-1.92241e-05
1.48415e-05
4.38259e-06
-0.000102509
5.439e-05
4.81185e-05
-5.53867e-05
2.91106e-05
8.0282e-05
4.93372e-06
8.21275e-06
1.14056e-05
-6.01573e-05
-4.80883e-06
5.35605e-05
6.9021e-06
0.000113625
3.48747e-06
7.49362e-05
-5.66187e-05
-4.23394e-05
-3.92261e-05
3.25582e-05
6.66787e-06
6.93066e-06
2.40163e-05
-0.000116202
1.09626e-05
0.00014998
2.68825e-05
-0.000119193
-1.80482e-07
7.55441e-05
-2.24652e-05
-8.77656e-05
-5.91437e-05
-1.29186e-05
6.63536e-05
-1.59873e-05
-1.16513e-05
-4.32896e-06
4.13757e-05
-4.0504e-05
-8.7169e-07
-5.39205e-05
-3.09989e-06
2.37614e-05
-5.93038e-05
7.37812e-05
-8.17095e-05
-2.48843e-05
6.0396e-05
-6.56131e-05
0.000176148
-4.39657e-05
-0.00013744
2.14966e-06
-0.000103374
-2.65548e-05
9.25997e-05
3.7329e-05
-3.95983e-05
2.90429e-05
5.64407e-05
-4.58852e-05
0.00011933
-0.000141971
6.12381e-05
-5.89221e-05
-1.93668e-05
8.31174e-05
3.22362e-06
3.27301e-05
-3.09336e-05
-1.58926e-05
-5.5395e-06
1.64147e-05
-3.1009e-05
-3.80731e-05
-0.000151421
2.57933e-05
-0.000351111
2.50704e-05
1.25009e-05
1.26936e-05
6.37951e-05
1.36374e-05
-5.39785e-05
4.91285e-05
-5.53426e-05
5.6273e-06
9.14447e-05
-1.71244e-05
-7.43203e-05
8.84209e-05
-0.000127213
4.45255e-05
3.49381e-05
-4.14954e-05
-4.07411e-05
7.78015e-06
4.42233e-05
3.87464e-06
2.73622e-05
7.6482e-05
0.000133196
7.6221e-05
5.26761e-05
-4.09638e-05
2.39592e-05
1.61465e-05
2.15158e-05
-4.55625e-05
-5.20429e-05
-2.2354e-05
7.44507e-05
-5.0286e-05
-3.69496e-05
2.72168e-06
-7.92869e-06
6.75859e-05
2.43824e-05
1.43577e-05
2.06688e-05
5.33691e-05
-9.40512e-05
-2.96495e-05
7.89103e-05
3.30593e-05
-5.6377e-05
5.22729e-05
-8.62826e-05
-0.000115269
0.000219721
-9.68666e-06
-4.90825e-06
8.82314e-05
3.51551e-05
4.68443e-05
-6.13307e-05
-8.12558e-05
-4.25867e-06
-0.000160307
-0.000147211
-8.00771e-07
-9.79793e-05
8.64079e-05
-0.000104269
-1.31392e-05
6.80954e-06
-2.74638e-05
-1.22049e-05
-5.73659e-05
5.47263e-05
-6.99167e-05
0.000191314
-5.05525e-05
-9.21682e-05
9.61114e-05
-8.6178e-05
-5.99023e-06
-6.35663e-07
3.89758e-07
0.000152647
-0.000152401
6.7998e-05
1.11406e-05
5.47556e-05
-7.0118e-05
-7.47873e-05
9.01497e-05
2.94418e-05
6.51362e-05
-7.17853e-05
-2.27926e-05
-1.30232e-06
-3.99256e-05
-7.10811e-06
-1.03476e-05
-9.9711e-07
-5.34178e-05
1.29211e-05
8.49388e-05
1.92459e-05
-1.31735e-05
-9.95752e-05
4.38739e-05
0.000107974
2.13742e-05
4.54493e-05
1.62916e-05
2.83748e-05
-1.14333e-06
9.76435e-05
-6.51556e-05
2.22677e-05
0.000158972
-2.61257e-06
0.000140402
-0.000107805
1.50047e-05
-1.17138e-05
-0.00021112
0.000128421
4.15877e-05
-0.000194882
-0.000206794
1.17069e-05
-1.38561e-05
-0.000106684
-7.53799e-05
0.000107026
-2.03744e-05
-1.68933e-05
1.5385e-05
1.21891e-05
-0.000179751
-3.0145e-05
-4.12649e-05
-3.08644e-05
-9.6925e-06
-3.61872e-05
-9.09465e-06
1.10063e-05
1.30931e-05
-4.95833e-05
1.27664e-05
-2.05899e-05
7.49803e-05
7.72212e-05
3.31412e-05
-6.30099e-05
2.02872e-05
-0.000137698
-8.92112e-06
-5.91741e-07
2.44615e-05
0.000105786
3.54808e-05
2.45116e-06
4.02518e-05
-2.11746e-05
-7.2495e-05
-3.61869e-05
0.000118387
-1.47967e-05
-0.000198721
8.26289e-05
6.31007e-05
6.21835e-05
-7.08118e-05
6.50367e-05
-7.15274e-05
7.96344e-05
2.05893e-05
6.02457e-05
0.000184546
-0.000139218
3.85173e-06
0.00012218
0.000127133
9.79823e-07
7.00995e-05
-8.98875e-06
1.59192e-06
1.04728e-06
4.89304e-05
0.000139577
-3.93381e-06
1.36679e-05
3.51641e-05
3.21548e-05
7.94829e-05
-2.34129e-05
-6.80014e-05
1.19314e-05
-3.25212e-05
8.66599e-05
-1.0008e-05
-4.51095e-05
8.46328e-07
2.25747e-05
2.88688e-06
6.30118e-06
1.80206e-05
2.90965e-05
-9.92228e-06
3.47048e-06
-1.17163e-06
-2.31805e-05
-9.59483e-06
-1.63441e-05
-8.86895e-06
-2.76727e-05
1.7863e-05
-0.000140044
2.21587e-06
2.67734e-06
1.23722e-05
8.53052e-05
-1.60735e-06
4.08726e-05
6.65206e-05
-2.97263e-06
-1.23546e-05
-3.45489e-05
0.000105873
-0.000100441
-0.000204205
1.36707e-05
4.87361e-05
-5.86495e-05
-1.49269e-05
-1.75475e-05
4.91496e-05
-3.33957e-05
-9.68349e-05
5.38994e-05
4.29354e-05
0.000130361
1.17206e-05
-1.30356e-05
1.315e-06
-7.6282e-05
0.00025638
-0.000213297
-1.18583e-05
-1.90987e-05
-1.03195e-05
-9.82053e-05
5.87621e-05
-8.90646e-06
-8.08606e-05
-1.71453e-05
2.28484e-06
-4.45646e-05
-3.29108e-05
7.01484e-06
-6.64214e-06
-5.74877e-05
7.15132e-05
2.587e-05
3.30789e-05
-3.44938e-05
-4.76698e-06
9.93875e-05
-4.19622e-05
-1.98673e-05
-1.86773e-05
5.79786e-05
-7.47445e-05
5.11164e-05
-4.01038e-05
3.79293e-05
8.22918e-07
-2.95448e-06
2.13156e-06
-9.84975e-07
1.80789e-06
2.95051e-06
-4.17816e-06
1.22765e-06
1.96554e-06
-8.29782e-05
0.000101148
-1.81701e-05
-6.31384e-05
-1.98398e-05
0.000109907
0.00010775
2.15708e-06
-4.53487e-06
0.000110582
-2.8328e-06
0.000121205
-1.06222e-05
-6.22837e-06
1.6935e-06
-7.68294e-06
-9.21008e-06
-3.09257e-06
-0.000139602
-1.08694e-05
1.65935e-06
8.51206e-07
2.32148e-06
-0.000112202
-6.06855e-05
1.51602e-05
-0.000130672
3.71141e-05
2.01666e-05
-5.72807e-05
0.000131509
-4.78879e-05
-0.000122312
6.84773e-05
-0.000181312
7.20695e-05
-7.0508e-05
-7.84024e-06
1.42528e-05
2.48983e-05
-1.74957e-06
2.80784e-05
-2.21968e-05
-3.4418e-05
5.37119e-06
-1.53244e-06
0.000136453
-0.00013847
2.01631e-06
6.21957e-05
-2.55134e-05
3.15946e-06
4.25832e-05
-5.62831e-05
0.000239819
-9.38603e-06
-0.000180438
0.000137665
-1.21171e-06
9.64653e-05
2.61951e-05
-5.80267e-05
3.18114e-05
0.000138309
-6.79953e-06
-4.57939e-05
-7.32575e-06
2.97008e-05
3.15373e-05
0.000106925
-8.29401e-05
-7.00632e-05
1.03374e-05
4.51463e-07
-0.000168216
0.000300986
-6.86369e-05
-3.17975e-05
5.07286e-05
0.000116303
-0.000193569
0.00015071
-7.06803e-05
-0.000130255
1.55593e-05
-0.000135534
0.000144684
4.08469e-05
-0.00022363
-0.000141319
2.8497e-06
0.00014236
-4.05101e-06
3.36678e-05
-3.98167e-05
4.8388e-05
-4.75781e-05
-5.7043e-06
8.70545e-05
-7.06987e-06
-0.000141724
4.04617e-07
-4.01446e-05
-5.39975e-05
-2.49757e-05
-0.000177787
4.79245e-05
2.89876e-05
7.38585e-05
-6.06885e-05
-1.22822e-05
-0.000102466
-1.23206e-05
-0.000132729
0.000128795
-1.26006e-05
6.09887e-05
3.41205e-07
8.66114e-06