/*--------------------------------*- C++ -*----------------------------------*\
| =========                 |                                                 |
| \\      /  F ield         | OpenFOAM: The Open Source CFD Toolbox           |
|  \\    /   O peration     | Version:  v1912                                 |
|   \\  /    A nd           | Website:  www.openfoam.com                      |
|    \\/     M anipulation  |                                                 |
\*---------------------------------------------------------------------------*/
FoamFile
{
    version     2.0;
    format      ascii;
    class       volScalarField;
    location    "0.03";
    object      p;
}
// * * * * * * * * * * * * * * * * * * * * * * * * * * * * * * * * * * * * * //

dimensions      [0 2 -2 0 0 0 0];


internalField   nonuniform List<scalar> 
1466
(
97.4763
97.2217
97.8114
96.749
97.8259
99.66
91.8784
97.0397
96.7574
91.215
97.0888
92.7786
96.8835
96.7468
96.5728
96.7663
96.625
96.433
98.0645
96.6867
96.4094
95.4271
92.4473
96.6867
96.7663
97.8324
97.8255
93.8404
94.2706
96.2631
97.5965
99.3638
94.905
95.4808
97.6113
96.5622
96.4931
96.3671
99.6877
94.9583
92.2826
95.2229
96.8193
96.7762
92.7318
96.0585
96.3629
96.274
95.4323
96.3878
97.6659
91.4566
97.839
99.5767
95.2169
95.2254
96.4411
96.4734
95.3399
95.4874
96.8283
95.1836
97.6574
99.4729
97.6454
97.0344
94.8605
96.4302
96.7245
95.8114
97.7836
96.6588
96.3574
96.8445
96.3444
91.4363
96.589
96.4418
93.7391
95.5745
97.7863
97.0386
96.5125
95.5794
96.3064
96.345
96.278
98.166
97.1342
97.6676
96.9299
96.372
95.8942
96.6585
97.6024
96.3877
96.3864
94.9358
96.7071
97.0193
93.5444
93.8091
97.9207
96.0406
96.4377
96.2456
96.449
96.4869
96.9507
96.7367
95.6547
96.9175
98.5509
96.3488
96.8799
97.1942
96.3423
96.6511
97.4761
96.4596
96.4304
97.2674
95.8648
98.1903
97.1051
96.0066
96.8647
95.8792
95.9594
96.7873
95.8497
96.4139
98.0896
94.3152
97.6584
95.6881
94.978
96.2341
92.1669
95.8637
91.3492
96.3927
96.0565
96.0568
92.438
97.332
99.4419
96.879
94.464
96.3361
96.0032
96.8375
97.7603
96.5785
97.0703
97.604
96.536
98.0933
96.5468
97.4598
93.455
97.0654
97.6164
96.409
94.2007
95.809
96.9772
98.1944
96.8636
97.7226
96.3454
96.3244
96.8645
95.0035
97.8301
97.2166
94.5741
95.7427
96.6116
95.8154
96.6589
96.4304
95.8943
97.0201
97.6369
96.5637
96.4789
97.3623
96.5314
96.0115
93.9279
96.5542
97.0384
97.6134
96.4049
96.5594
91.9562
96.6994
96.6808
96.7192
98.5396
96.8932
96.4607
96.9538
96.8362
95.4091
96.4542
95.052
96.5968
96.7144
96.7124
98.6541
96.8651
96.284
97.1326
96.5043
97.8071
96.4634
96.6038
96.7082
96.7234
97.5567
96.7298
96.3436
95.4351
96.3222
96.6851
96.8039
96.482
97.0179
96.2307
98.1995
97.1518
95.8397
96.5406
96.797
95.901
96.7432
95.9514
96.7838
96.946
95.9832
96.3532
94.7051
94.9145
96.4664
97.8381
96.4137
96.4716
96.4531
97.0895
95.8493
95.5901
98.738
97.2258
95.7204
96.6556
96.8426
97.797
91.2844
96.2619
96.2985
95.3874
97.781
100.011
96.5668
96.4295
98.5165
96.9228
96.6475
95.5188
96.9072
96.192
96.6139
96.324
95.3701
99.2506
97.2934
96.1761
95.183
96.7488
96.4691
96.4341
96.8657
96.9262
96.1293
96.724
96.3342
97.3119
96.3147
96.3064
96.4581
96.6056
91.3775
95.7765
96.9123
96.9342
97.5326
96.8331
96.3204
96.1927
98.5288
96.8712
96.6078
96.6306
97.1359
98.7453
95.8027
96.8691
97.9457
96.9709
97.5466
96.9322
93.4491
95.7333
96.9097
98.6129
97.865
91.8766
96.8398
96.3444
95.5208
95.9884
97.141
98.8118
96.857
97.6159
96.8994
97.4833
97.8106
98.447
96.9976
97.6054
97.9187
98.6054
97.0733
96.8612
97.8379
98.5997
97.8024
98.4332
96.9717
96.7129
97.5739
96.8849
97.8171
98.5015
96.946
95.9992
97.1476
95.6114
96.2408
95.4121
95.6227
95.7277
96.8902
98.6605
95.4395
98.213
96.8102
97.5362
95.3459
95.7026
98.0186
95.1401
96.8956
97.6049
97.576
96.9551
98.4516
97.8039
96.9232
98.5513
97.028
97.8598
98.4972
96.8111
97.8532
96.2682
95.8192
96.183
94.5862
96.4853
97.5971
95.2619
96.7505
96.3269
96.9258
96.0423
95.5592
95.9826
96.3226
95.7992
97.102
96.8434
96.6349
95.8167
97.832
96.4184
96.7635
98.5296
97.6209
96.0045
96.2083
91.9314
96.9278
96.1131
98.2295
96.9602
98.3417
96.9234
96.2099
96.0737
93.8405
96.8956
96.1696
96.1559
96.279
96.1782
96.2122
96.3094
94.7093
95.3546
94.8253
95.2152
95.009
94.7129
95.038
94.5013
93.8672
98.4561
96.927
96.2197
97.2119
95.5312
97.3463
96.8882
97.2244
96.3817
96.775
93.2105
95.939
96.569
95.8415
96.5578
96.9808
96.911
96.9216
97.5426
96.3062
97.6086
96.9835
95.2473
96.2651
96.8169
95.7198
96.9661
97.0353
93.3688
96.262
96.947
96.243
96.2845
96.3509
95.372
95.8373
96.9331
96.9327
98.4074
95.939
96.6384
95.9685
96.3329
94.9712
99.0939
97.3415
94.6681
95.4075
97.8115
99.6214
98.3627
96.934
99.3707
96.9312
97.3545
98.3319
96.9427
97.7254
98.883
91.7319
97.1544
98.2679
96.9431
97.7305
96.5671
97.7522
99.2063
96.6825
95.1375
94.309
98.3276
96.9722
96.025
95.8436
97.7392
96.0507
91.7271
96.0891
96.3332
96.2463
96.812
97.4508
96.698
96.1644
95.6752
96.5345
98.2377
96.951
96.3473
96.4164
96.3861
96.8943
95.508
95.5694
96.0115
95.8236
95.2157
96.0587
95.3651
97.705
96.9156
95.8656
96.2316
96.3193
96.0169
96.472
93.6427
96.2097
96.366
95.736
96.2038
96.7466
96.9739
96.5396
96.3393
96.0858
97.5153
96.9846
96.8596
98.3319
96.9891
96.4611
96.5221
96.0949
95.9211
97.0253
98.5361
96.9194
96.1762
96.9708
96.8675
96.1681
95.9746
96.9591
91.8072
95.6834
96.3688
96.8335
96.4116
97.121
96.5175
97.6971
96.4509
92.9743
96.6164
96.367
95.0682
97.7482
96.5304
96.4862
96.1376
96.6781
96.1104
95.9665
96.3818
97.7211
96.9091
96.9238
97.2704
96.6661
99.592
97.3041
92.0133
97.8242
98.2114
96.9607
95.0061
95.9817
96.9621
95.9855
97.4478
98.3566
97.0139
97.8027
97.8157
94.9948
96.08
96.9012
96.9521
97.2827
95.9106
96.4277
97.0776
97.8926
96.8763
97.7544
96.9117
96.6864
97.2839
98.4881
97.1023
96.3959
96.375
95.806
96.9185
96.2808
95.6577
96.7558
96.4226
97.0606
95.6692
97.1002
97.7476
98.3013
95.2978
95.8693
95.5771
96.764
98.1825
96.9749
96.4465
96.7943
96.4637
97.094
97.5444
94.0995
97.7337
97.2245
96.7921
96.4696
96.7735
97.2934
95.8345
97.0538
96.7499
95.412
96.9899
96.1796
96.4945
97.6146
96.7587
96.9176
93.2543
95.5934
97.1558
96.6976
96.1144
96.134
97.0713
95.9275
96.5198
96.5645
95.9
97.5751
99.1318
97.2284
96.6451
96.888
96.9041
95.9614
98.0094
97.0315
96.3202
97.849
95.504
97.6445
96.5996
96.8885
96.8009
97.7851
97.0918
96.5475
96.8341
96.338
97.6703
96.6119
95.1694
96.2165
96.0251
96.1341
96.6278
97.9382
95.6419
96.8553
96.0602
97.6057
96.1693
97.3239
96.5542
98.1116
96.9943
96.4544
92.0229
98.4031
97.049
96.411
95.4367
97.2622
96.5781
97.8581
96.0649
96.1944
96.9261
96.0227
96.8941
96.2902
96.0952
96.7919
97.1629
92.6628
96.5922
97.7682
95.9503
95.791
95.9053
96.9449
95.6449
95.9751
97.7656
97.6746
98.1616
95.4872
96.0548
97.015
97.3838
96.7292
96.7761
98.1228
96.7143
94.5241
96.855
93.9943
96.4936
96.0363
96.0491
96.4369
98.0011
96.9908
97.3715
96.5363
94.5991
98.263
96.0518
99.5075
97.2954
97.2109
92.6997
94.3049
97.4135
97.3266
95.8334
99.9058
97.8127
96.2935
95.9534
96.2033
96.8632
94.8757
96.8075
98.0498
99.2515
97.0571
96.8836
96.8115
95.9686
95.6958
96.8793
96.3668
97.0121
96.7063
96.7865
97.2129
99.0326
96.9505
97.1754
97.1825
97.8188
96.8281
95.7527
97.0419
97.5221
96.0277
96.9
97.4699
97.8213
96.1372
97.0437
96.421
96.8448
95.1024
98.5646
96.271
96.4512
97.184
96.7578
97.5799
96.9378
97.2646
96.2582
97.3799
98.6963
96.8982
95.9475
96.2226
96.5043
96.5199
96.9125
96.2756
96.2961
97.7697
96.5808
96.0714
96.697
97.3273
96.8929
96.1214
94.4189
96.0512
96.602
98.04
96.468
96.2723
92.2427
96.7548
95.9959
96.3411
95.1784
94.8558
96.1545
96.2992
97.0694
96.1161
96.0062
97.1129
96.3661
97.6933
96.5884
96.8899
95.7582
94.865
96.9878
96.0704
98.0433
96.8425
97.0768
98.5648
97.1313
96.4686
96.0648
96.4296
96.9022
96.3041
97.3662
96.3468
96.9322
96.3247
97.1557
98.1369
99.0685
96.208
97.0851
97.5598
97.4018
96.914
97.387
96.2652
96.4754
94.9553
96.0875
97.7939
96.1128
96.3466
96.4448
96.7409
96.9081
96.6691
97.8051
97.838
97.7327
93.8199
97.5676
96.9196
96.0573
96.279
96.0011
96.7561
96.3713
96.5126
94.4516
98.0064
96.8271
97.8041
96.274
96.5837
96.0599
96.8198
91.2328
97.1132
97.9186
96.8015
98.8401
97.2336
96.6942
98.3776
97.0793
96.8143
96.4651
96.6952
95.9991
97.7315
97.1835
98.3972
95.6385
96.2654
96.3022
96.6948
96.3945
95.908
96.4858
96.8972
96.9447
96.9639
96.9648
97.3174
97.2491
97.3024
97.1614
96.8511
96.9636
96.7909
96.8175
96.796
96.7846
97.437
96.7858
96.7995
92.3198
95.2979
93.6941
96.4094
96.7353
97.7297
96.4976
96.8265
97.2653
95.4005
97.0459
96.614
97.7276
96.5082
97.3008
96.074
97.007
97.7624
96.514
97.3516
97.0338
98.4617
96.8071
96.7384
97.1294
97.6419
98.4735
96.9621
96.4412
97.6458
90.1375
98.4261
96.9615
96.4732
96.5681
91.5873
97.24
96.9428
97.1972
97.7693
96.7676
97.5578
96.862
96.6143
97.1651
97.0662
95.5942
96.4874
93.9537
96.7801
96.7043
96.0597
96.8137
96.198
96.4679
97.3642
96.8632
96.0175
95.9779
92.242
97.0038
98.4136
95.7677
96.0727
96.4393
96.6841
95.6245
94.1882
96.1219
93.1457
93.8025
94.9717
97.7921
99.8347
96.4178
98.019
96.9653
93.005
96.5147
95.7709
96.4222
96.2041
96.0652
98.5206
99.6767
96.151
96.9368
98.4748
95.1678
96.181
96.3733
96.8778
95.7164
96.985
98.3896
97.791
97.7105
96.9541
95.1013
96.3551
97.5961
97.672
95.8584
96.601
96.7327
96.8004
96.639
96.8387
96.9461
98.3918
96.4899
97.4027
93.2601
92.8628
95.8791
92.2067
96.9677
98.3935
97.4889
96.2807
92.9065
96.4053
97.9027
97.3896
94.4397
96.6192
93.3347
97.4666
98.1937
92.6837
97.0021
92.5572
97.2722
96.5558
97.5812
96.1647
96.309
96.8998
95.5924
96.9926
95.5389
97.7227
92.7353
96.8891
96.9362
92.7325
96.3264
96.6012
96.8464
96.1655
96.8537
93.6812
93.0838
97.3901
97.8072
96.0984
96.2647
97.4147
97.4731
97.011
96.9622
97.2311
96.4874
92.8308
96.3867
97.4239
96.1148
96.7876
96.4541
96.8869
98.5698
97.6431
91.9073
97.4232
96.8257
98.6327
96.1394
96.0112
96.875
98.6138
96.3826
96.818
97.6164
97.7875
97.4022
95.1486
96.2168
96.5822
96.5314
97.0028
96.8647
96.7229
95.9462
96.8213
97.5063
96.6324
96.4187
96.8448
96.6897
96.4791
96.7242
96.7122
98.5456
96.8731
97.4821
96.511
96.6788
92.0531
96.0673
97.9671
96.4297
96.7907
96.7807
97.7899
96.6942
96.8975
96.7747
96.8419
97.2676
97.5899
99.5979
96.7462
96.884
96.3157
96.8696
94.1791
97.1552
96.9503
96.5495
96.8786
96.6124
96.7159
96.709
96.6217
96.9257
96.1592
96.8009
96.9027
96.5271
97.7207
96.8646
96.3636
96.8792
94.2583
96.0766
97.7715
95.7215
96.2899
97.1762
98.1968
96.3787
97.3685
97.7623
96.8909
95.5067
96.9086
97.6801
97.0734
97.0294
96.484
96.0133
95.9828
96.08
95.4812
94.1005
95.8315
96.5686
96.1667
97.6948
96.7288
96.7418
97.6638
96.9115
96.4237
96.9285
98.489
96.8802
98.1674
96.6213
96.3341
97.7628
94.3443
96.8407
97.827
94.3838
96.9952
96.8761
97.402
96.3128
97.4887
97.1009
97.9725
97.7362
96.2047
97.6437
98.625
96.4868
97.9294
96.2292
96.8472
96.7513
98.5338
96.1758
97.3759
95.2604
95.7892
96.8989
94.4542
95.5349
96.8589
96.5046
95.1782
97.2974
96.9896
96.2723
96.5395
91.3014
96.2074
97.7508
96.9536
96.9289
95.5051
96.4011
96.6687
97.6797
97.5669
91.8281
97.9048
97.1543
98.8516
95.8753
96.2355
97.3936
96.9428
92.5387
97.8435
96.9484
97.8511
96.9199
97.0095
95.8418
96.8755
95.6594
96.9736
96.6349
97.9416
96.2458
96.5287
97.6739
95.3657
96.6828
98.1989
96.1258
96.6262
93.3185
97.3983
97.0552
97.1449
96.0658
95.9343
98.0228
98.6601
96.8301
96.8749
96.8814
98.6554
95.1915
96.5408
91.029
96.4203
98.0592
92.9496
96.2546
97.5421
97.3602
96.8515
96.9425
98.5193
94.7068
95.3082
96.0661
97.0465
98.5317
96.8534
96.6224
97.8393
96.7056
96.9875
98.4221
96.4795
95.9984
97.6282
97.0923
98.6501
96.1147
96.9892
96.0682
97.0145
98.4585
96.5343
96.5166
94.6496
97.7141
95.3397
96.9555
98.4753
96.7622
97.8916
96.2364
96.7972
97.6358
96.2783
97.515
96.8716
96.905
98.594
96.9401
98.4096
96.432
96.3944
96.6519
96.1918
97.2294
99.166
96.3967
96.6536
94.4195
96.3053
91.4987
96.7997
96.9958
93.5422
96.0955
94.1311
96.5432
97.4263
98.1605
97.3815
96.2967
96.2783
97.2887
99.3438
95.9747
96.1256
91.8542
91.7817
96.8213
96.9411
98.442
96.1478
96.1132
95.6034
97.059
94.6886
96.7728
96.8341
97.2097
96.3083
96.8966
96.7884
96.7534
96.4324
97.6892
96.8809
99.3162
97.232
98.7863
96.9335
96.56
94.9931
94.0499
96.8245
97.1776
98.6543
96.8108
97.4826
96.5211
96.9905
97.3855
97.2448
97.2189
96.6903
96.4318
95.24
96.7292
91.848
96.8605
95.6584
95.6042
97.8062
96.6431
93.5136
96.606
96.5326
98.1663
96.1357
96.4239
96.867
96.8186
96.8052
94.7369
96.8132
97.7998
100.229
93.2362
94.1323
98.831
89.036
96.5158
86.3911
)
;

boundaryField
{
    frontAndBack
    {
        type            empty;
    }
    wallOuter
    {
        type            zeroGradient;
    }
    inlet
    {
        type            zeroGradient;
    }
    outlet
    {
        type            fixedValue;
        value           nonuniform 0();
    }
    wallInner
    {
        type            zeroGradient;
    }
    procBoundary2to0
    {
        type            processor;
        value           nonuniform List<scalar> 
42
(
97.8192
97.8192
97.5966
97.551
98.4086
97.9138
97.7575
97.7575
98.382
98.3302
98.2726
98.2726
98.3152
98.0239
97.8813
98.058
97.7524
98.3056
98.3546
98.9565
98.4714
98.3043
98.3043
98.2294
98.4714
98.1976
98.6447
98.1359
98.6447
97.7507
97.7343
98.0656
97.9566
97.6908
97.2564
97.551
97.7524
97.3597
98.1716
97.5334
97.5334
97.033
)
;
    }
    procBoundary2to1
    {
        type            processor;
        value           uniform 99.1708;
    }
    procBoundary2to3
    {
        type            processor;
        value           nonuniform List<scalar> 
29
(
97.295
97.3111
94.429
94.9122
99.5175
97.6452
91.3081
97.5341
94.7598
94.7341
97.5926
99.4495
97.2819
91.5213
91.5935
91.3218
94.5702
94.5702
97.3111
91.5213
91.5538
94.6131
91.7403
94.7153
91.6422
94.4659
94.7598
99.4025
99.4495
)
;
    }
}


// ************************************************************************* //
