/*--------------------------------*- C++ -*----------------------------------*\
| =========                 |                                                 |
| \\      /  F ield         | OpenFOAM: The Open Source CFD Toolbox           |
|  \\    /   O peration     | Version:  v1912                                 |
|   \\  /    A nd           | Website:  www.openfoam.com                      |
|    \\/     M anipulation  |                                                 |
\*---------------------------------------------------------------------------*/
FoamFile
{
    version     2.0;
    format      ascii;
    class       volVectorField;
    location    "0.03";
    object      U;
}
// * * * * * * * * * * * * * * * * * * * * * * * * * * * * * * * * * * * * * //

dimensions      [0 1 -1 0 0 0 0];


internalField   nonuniform List<vector> 
1466
(
(-0.0172131 1.71534 0)
(-0.231502 2.63287 -1.03571e-16)
(0.352152 0.0430933 -1.77748e-16)
(0.146203 1.72331 1.43991e-16)
(0.913628 0.139552 -6.5438e-16)
(0.743564 0.0620379 -5.44734e-16)
(0.519393 -0.675566 2.84103e-16)
(0.996645 -0.308916 4.54311e-16)
(0.735165 2.19625 1.40151e-16)
(1.62552 -0.214466 6.6136e-16)
(0.201495 0.170923 -1.84088e-16)
(2.38122 0.969523 1.36798e-16)
(0.0297094 0.0275643 1.10278e-17)
(0.521898 0.536902 -1.39431e-16)
(0.464866 0.0298153 -2.94433e-18)
(0.073901 0.964013 1.9782e-22)
(0.143654 -0.0983301 7.68787e-17)
(-0.12594 2.0766 -1.31962e-16)
(0.789628 0.443537 -1.86877e-16)
(0.0820998 1.00484 0)
(0.466825 0.0253901 1.62619e-16)
(1.60833 0.117438 -3.1961e-16)
(2.11219 -0.0620787 0)
(0.0226234 2.72937 6.37352e-17)
(0.481401 0.405088 -1.98937e-16)
(0.448529 0.305941 1.98375e-16)
(0.374112 0.633378 2.15034e-16)
(1.91702 0.236285 2.81595e-16)
(0.952133 -0.0519941 0)
(0.15311 -0.442773 4.77097e-16)
(1.07093 0.0146379 0)
(0.88269 0.0241143 9.04633e-16)
(1.74164 0.000153748 -2.86594e-16)
(0.955039 -0.137725 -1.09888e-16)
(-0.256828 1.43424 0)
(0.474643 0.0307444 3.06551e-17)
(0.503608 -0.0354005 -3.06539e-21)
(0.504901 0.0229021 0)
(0.509456 0.926374 -6.20719e-16)
(1.70242 -0.0672034 2.93216e-16)
(2.59383 0.649355 -1.40267e-16)
(1.314 0.432263 -1.78492e-16)
(0.946963 2.07618 -3.82003e-16)
(1.33013 -0.314215 2.33987e-18)
(2.28708 0.1972 0)
(1.36537 2.28017 3.86193e-19)
(0.491998 0.029967 -1.89252e-16)
(0.088182 1.4911 9.85026e-17)
(1.1972 0.472092 -2.54351e-16)
(0.460588 0.0318958 -9.17987e-17)
(0.348209 0.00787065 0)
(1.56909 -0.0913842 -2.89917e-16)
(0.879165 0.0330787 4.50806e-16)
(0.704005 0.0267522 5.14043e-16)
(1.49353 0.0255725 3.96516e-16)
(1.12749 1.04424 -1.26251e-16)
(0.487712 0.0131972 0)
(0.017015 1.65119 2.86098e-16)
(1.269 0.150805 1.33131e-17)
(0.995496 0.982966 0)
(0.0223781 0.983311 -2.48133e-18)
(-0.894586 -0.0395358 1.1808e-16)
(0.995615 0.0355641 1.47603e-16)
(0.837934 0.00318745 -5.29658e-16)
(-0.131981 2.49228 1.72297e-16)
(-0.00643113 0.949129 -3.84495e-17)
(1.29895 1.12727 -3.71321e-17)
(0.47206 0.0215125 -2.12188e-16)
(-0.0223755 1.91541 -1.24007e-17)
(1.42014 0.169294 0)
(0.369654 0.0931161 0)
(0.188656 1.90121 -5.86974e-17)
(0.51538 0.0221951 -5.78079e-16)
(0.447799 1.44501 -2.04882e-16)
(0.496322 -0.0150018 4.07451e-17)
(2.38888 -0.234824 -1.69178e-16)
(0.516139 1.67249 4.7346e-17)
(0.0672814 1.98554 1.71228e-16)
(0.966464 -0.312918 0)
(0.895923 1.07795 0)
(0.375354 0.0274901 -3.87606e-17)
(0.514159 1.15637 2.13888e-16)
(0.469991 0.0165413 0)
(1.09614 0.484423 1.53578e-18)
(0.541256 0.0371288 2.05951e-16)
(0.446734 0.0615706 -1.04321e-16)
(0.566744 0.0465583 -2.74221e-16)
(0.0746958 2.24613 1.35945e-16)
(0.0639574 0.881323 -4.06297e-17)
(0.411957 1.63678 6.30699e-18)
(0.226005 1.43768 1.07811e-16)
(0.423085 0.0301913 0)
(0.728366 1.14762 -6.43326e-17)
(0.102698 1.94047 1.84126e-16)
(0.347953 -0.0095421 0)
(0.454927 0.00643173 -2.20488e-16)
(0.164341 2.65613 5.62595e-16)
(1.47666 0.172232 0)
(0.651792 2.37201 1.31886e-16)
(0.181256 1.31946 -1.71997e-16)
(0.148598 -0.311339 0)
(1.93768 0.404385 -8.88436e-17)
(0.325204 0.0853153 4.75275e-16)
(-0.101179 1.6776 -1.49504e-16)
(0.482189 0.0149451 0)
(1.06061 2.31427 -2.4515e-16)
(0.47718 0.0187755 1.9253e-16)
(0.475283 0.0139894 -8.31357e-18)
(0.405135 2.36874 4.71804e-17)
(0.427562 0.167361 7.4993e-18)
(1.08525 0.127512 1.84376e-17)
(0.53959 0.117231 5.07882e-16)
(0.484511 0.151813 -3.90587e-16)
(0.505991 0.0236517 3.32978e-20)
(0.0346751 0.0765136 -2.20371e-17)
(0.274716 2.3754 0)
(0.391248 1.07919 -8.3314e-17)
(0.448822 0.860875 6.18849e-16)
(0.564116 1.83977 3.01997e-17)
(0.235233 1.69915 -4.01722e-16)
(0.466435 -0.00534555 2.06301e-16)
(-0.103827 1.6936 0)
(0.473667 0.542683 -7.85861e-17)
(-0.222736 2.13817 -7.05091e-17)
(-0.0611621 0.822165 3.20929e-16)
(0.627703 1.30825 -1.13189e-16)
(0.173163 0.14787 2.98296e-17)
(0.46843 1.97203 0)
(0.682763 1.14603 6.19681e-17)
(0.495665 1.87798 -2.9754e-16)
(0.882566 0.496549 1.13657e-16)
(0.414537 1.84343 -5.2465e-20)
(0.104248 1.05428 2.34902e-17)
(1.50527 1.24729 -5.74806e-17)
(0.319924 0.0189351 -1.19363e-17)
(0.811481 1.13724 1.54977e-16)
(1.43908 0.414401 0)
(0.590276 0.0887715 0)
(2.33148 0.0331215 3.2036e-17)
(0.503893 1.67933 8.20185e-17)
(1.00364 -0.0956884 -9.62713e-17)
(0.440549 0.0241308 -1.7546e-16)
(0.66161 1.21484 7.04539e-17)
(0.797285 1.2126 -4.46975e-16)
(2.32026 0.0937018 1.23904e-16)
(-0.266451 0.287986 0)
(-0.94862 0.757848 0)
(0.910229 1.91635 0)
(1.33238 1.43745 6.42329e-17)
(0.528189 0.0256868 2.72038e-16)
(0.628476 1.17404 -1.44023e-16)
(0.243573 0.132096 4.76151e-18)
(0.22837 1.48882 1.24211e-16)
(-0.0368099 2.82232 -1.84774e-17)
(0.267306 1.24389 -1.8227e-16)
(-0.130698 0.187074 -9.47983e-17)
(0.0978637 2.00131 -3.30532e-16)
(0.496377 1.59829 1.97643e-16)
(0.716473 0.892335 -7.00724e-17)
(0.829659 1.67529 0)
(2.0613 0.320252 1.01501e-16)
(0.0991606 1.09206 -2.53948e-17)
(0.148754 2.6679 2.48407e-16)
(0.461552 -0.00123548 2.01206e-16)
(1.78336 0.461932 -4.65904e-18)
(0.760707 1.16565 2.14303e-19)
(0.520213 1.83169 0)
(-0.780793 0.421613 9.35267e-17)
(-0.0218906 0.999464 4.97389e-18)
(0.531691 0.86512 3.51277e-16)
(0.433888 0.0423499 2.80171e-16)
(0.435253 0.0946314 2.71996e-16)
(0.182779 0.214947 0)
(0.893452 1.51298 8.11997e-17)
(0.57081 0.411492 -8.18253e-16)
(-0.296262 2.62466 1.52587e-16)
(1.62187 0.489646 1.50763e-16)
(0.811591 1.02669 -2.28282e-17)
(0.457774 0.029166 -1.50586e-16)
(0.754122 1.09656 2.23276e-17)
(-0.055618 2.06999 -1.78692e-16)
(0.482969 0.0151658 2.35256e-16)
(0.813919 0.598928 -2.88621e-16)
(-0.0520379 0.916355 -5.47332e-16)
(-0.293212 2.43768 -3.22762e-16)
(0.644502 0.692702 5.87921e-16)
(0.476849 0.0102885 0)
(0.126815 2.36703 0)
(0.474922 0.0205967 -5.7003e-17)
(0.090859 1.76436 0)
(-0.532737 2.27543 0)
(-0.191908 0.76791 1.31553e-16)
(0.0268207 1.00316 2.17203e-17)
(-0.0344714 2.55782 -6.92313e-17)
(0.478312 0.0221573 -3.56379e-20)
(0.195145 1.94719 0)
(2.32655 -0.000405913 -4.18248e-17)
(0.423707 0.0914387 -1.54417e-17)
(0.45898 0.110198 -1.47798e-17)
(0.489471 0.203422 -6.86878e-18)
(0.0718261 0.467524 -1.13011e-16)
(0.35586 0.413 3.22092e-16)
(0.479462 0.0133611 -6.84259e-17)
(-0.038901 0.965998 2.55451e-16)
(0.260309 0.192865 0)
(1.17459 0.593926 3.41787e-16)
(0.478796 0.0108896 1.79546e-16)
(1.62964 2.13399 1.12393e-16)
(0.472436 0.0440045 5.51573e-17)
(0.390597 0.0264016 1.21877e-17)
(0.396753 0.0644414 6.07532e-17)
(0.127523 0.831139 -2.02481e-20)
(0.45204 0.551371 -1.1271e-16)
(0.532879 0.0844725 6.58901e-20)
(0.665417 2.0997 -6.72239e-17)
(0.475089 0.01385 2.94507e-17)
(0.792184 0.436789 -8.31722e-17)
(0.337142 -0.0531492 0)
(0.223616 1.04354 0)
(0.335707 1.65672 -9.62638e-20)
(-0.335464 2.0356 1.47231e-16)
(0.0138777 1.63471 0)
(0.0856249 0.996145 6.19877e-17)
(0.490988 0.042935 4.12984e-17)
(0.710505 1.3847 -4.47817e-17)
(0.50641 0.0714653 0)
(0.594076 0.244364 8.77596e-17)
(0.221131 0.692272 1.29476e-16)
(0.480272 -0.0121206 2.94379e-18)
(0.638886 1.92585 -3.72726e-16)
(0.575217 0.141013 2.86937e-16)
(0.564965 2.22127 0)
(0.269151 0.884493 -1.35728e-16)
(0.924607 0.253692 -1.83643e-19)
(0.466616 0.0236249 0)
(0.330785 0.165601 0)
(0.8649 0.324391 0)
(0.602046 -0.423725 -6.4039e-16)
(0.807494 0.418535 -1.09432e-16)
(0.416165 0.29392 0)
(0.716176 2.04769 1.46434e-16)
(0.753045 0.503878 3.02108e-16)
(0.3977 0.0442865 -4.14657e-17)
(1.55977 0.395796 -7.08926e-16)
(1.4558 0.555055 0)
(0.464026 0.0110984 -1.83994e-16)
(0.508503 0.0637077 -5.77631e-19)
(0.450859 0.0204239 3.5845e-16)
(0.439701 -0.0234034 0)
(0.460795 0.0155244 -5.70951e-18)
(0.333718 1.09934 -7.42964e-16)
(0.766164 1.91539 -9.30043e-17)
(1.05884 0.590204 -1.25962e-16)
(0.324852 1.82939 4.43497e-16)
(0.160521 0.699856 0)
(0.889709 1.86583 1.5089e-16)
(0.510128 0.118253 -1.3869e-17)
(0.434792 1.86042 -6.59398e-17)
(0.253531 2.19861 1.24712e-16)
(2.07502 -0.240827 -1.02126e-16)
(0.541793 0.118303 7.98669e-20)
(0.536365 0.0553449 2.91728e-16)
(0.946221 2.08094 -5.71816e-19)
(0.646696 1.44484 -2.30279e-17)
(0.404025 0.107272 -2.50199e-16)
(0.461214 0.0100948 -2.92391e-16)
(0.70152 2.38839 9.51728e-17)
(0.242293 0.291393 1.95503e-19)
(0.403692 0.260634 -7.17132e-17)
(0.280885 1.80815 -5.30452e-17)
(1.32546 1.48332 -8.91802e-17)
(-0.131275 1.89382 5.47081e-17)
(0.609749 0.177081 3.11787e-17)
(0.590939 0.110503 3.30299e-18)
(0.509573 0.0313092 -4.32516e-16)
(1.23696 0.224074 5.76299e-17)
(-0.137563 1.35557 1.35005e-16)
(-0.0182706 0.51287 0)
(0.798253 2.06468 -4.88443e-18)
(1.30775 0.579688 1.99735e-16)
(0.38652 0.130936 3.13594e-17)
(0.468199 0.00123066 0)
(0.457692 0.0178276 3.70217e-20)
(0.166234 0.0879255 5.12013e-18)
(0.370134 0.083761 -1.02024e-16)
(0.68302 0.153201 -9.66695e-17)
(0.189536 1.09147 0)
(0.335033 0.0459337 0)
(-0.0655868 1.83004 2.82324e-16)
(0.73176 1.54783 1.16788e-16)
(0.497015 0.0899169 -2.27732e-16)
(0.6021 2.50143 -4.70859e-17)
(0.254484 1.37419 -4.17093e-17)
(2.32456 -0.22778 0)
(0.90518 0.665271 -1.74093e-16)
(0.108297 0.582546 0)
(0.0127079 2.48385 7.57239e-17)
(0.355677 2.26043 -3.97909e-19)
(0.318127 0.725635 0)
(0.739697 0.218551 -2.17455e-16)
(0.0429546 0.629454 -6.33144e-17)
(-0.103234 1.13316 4.21645e-16)
(0.112781 0.389744 -4.13953e-17)
(0.345751 1.26051 7.64921e-17)
(0.434633 0.03765 2.80208e-16)
(0.372839 0.133268 -4.35571e-16)
(0.562419 0.10343 -1.78904e-16)
(0.945121 0.401386 -1.23432e-16)
(0.159017 0.0323136 5.39814e-18)
(0.45872 2.26819 2.53877e-16)
(0.585888 1.96684 3.08913e-16)
(0.325034 -0.0266285 4.42122e-17)
(0.220774 0.356338 -1.45145e-16)
(1.50897 1.7846 -1.8049e-16)
(0.963028 0.558549 6.12357e-17)
(0.49356 0.277887 -2.51117e-17)
(0.377031 0.3669 6.40662e-21)
(0.54662 0.201806 1.94271e-16)
(2.36262 -0.00256071 0)
(0.231183 0.0784158 -4.05866e-17)
(0.483092 0.0650738 -3.35829e-17)
(0.860644 1.20631 -1.6244e-16)
(0.730999 0.656677 5.49261e-16)
(0.320559 -0.00493853 -1.87397e-16)
(0.381173 -0.0208526 1.89978e-16)
(0.373044 -0.0099745 -1.32697e-16)
(0.277259 0.00217064 2.21892e-17)
(0.328473 -0.0104497 0)
(0.189384 -0.0455801 0)
(0.34275 0.00377634 -1.61578e-16)
(0.39094 -0.0337586 0)
(0.400118 -0.0281923 3.92289e-16)
(0.264619 0.00445335 2.09912e-17)
(0.304518 -0.00442182 0)
(0.400319 -0.040402 -1.28475e-17)
(0.364503 -0.0208148 0)
(0.626245 0.0593451 -4.6332e-17)
(0.615366 0.140071 -1.2525e-16)
(0.656889 0.0755751 -1.55034e-17)
(0.355056 0.0209109 1.65236e-16)
(0.390411 -0.0160472 0)
(0.419426 -0.0165851 -2.91908e-16)
(0.260417 -0.0880793 0)
(0.279219 -0.00711881 0)
(0.362173 -0.00662463 -1.41013e-16)
(0.429537 0.0407792 0)
(0.430254 -0.00706494 -9.08244e-17)
(0.457818 -0.0220357 8.90416e-17)
(-0.0310583 0.794625 1.02303e-16)
(0.00541155 2.0314 -3.02627e-16)
(1.01593 0.703814 4.99429e-17)
(0.53646 0.177126 5.38218e-16)
(1.13848 0.721448 -5.00026e-17)
(1.06738 0.283086 -3.8667e-16)
(1.00187 0.320263 2.21718e-16)
(0.490245 0.422057 -4.55206e-18)
(0.290403 0.591175 -4.42682e-16)
(-0.245991 1.87154 3.2539e-16)
(0.550051 2.14115 1.26334e-18)
(0.0194821 0.891175 -1.95846e-16)
(-0.0387984 1.50766 0)
(0.993352 1.15676 1.67918e-16)
(0.776341 1.20541 1.78943e-16)
(0.240925 0.034333 -2.92661e-16)
(0.295035 1.69048 3.03306e-17)
(0.358012 -0.00776239 0)
(0.282768 -0.00191806 -2.29404e-17)
(0.278292 -0.00440506 -1.53215e-17)
(0.44518 -0.0244601 1.36969e-16)
(0.414809 -0.0134069 0)
(0.387747 0.0302896 1.99215e-17)
(0.48434 0.00311602 -9.00308e-17)
(0.468555 0.0216295 -2.7519e-16)
(0.388089 -0.027084 0)
(0.292542 -0.016938 -4.64553e-16)
(0.39721 -0.0401259 0)
(0.351795 -0.034971 9.18241e-17)
(0.217972 2.15923 -8.74249e-18)
(0.560071 0.0783489 3.77006e-16)
(0.0109749 0.0976304 -2.2008e-16)
(0.633393 0.126262 2.63679e-17)
(0.859045 1.85003 -2.10773e-17)
(0.509898 1.26988 -7.18189e-18)
(0.320667 -0.00270364 -9.08833e-17)
(0.558028 1.53546 -1.90773e-17)
(0.0978307 1.23623 3.7512e-16)
(0.352083 0.06645 1.06108e-16)
(0.299669 0.210028 0)
(0.731424 0.356893 0)
(0.76317 1.36097 0)
(0.707311 1.36095 3.02545e-16)
(0.447627 1.98974 0)
(0.625888 1.24778 1.11273e-17)
(0.39173 2.34289 6.64333e-17)
(0.221881 0.0270491 -4.32833e-17)
(0.469399 0.068244 -8.63824e-17)
(0.705384 1.2025 1.58191e-18)
(0.459802 0.118147 -1.39279e-16)
(0.483149 0.0166396 -1.01766e-16)
(0.803487 0.138167 4.83543e-17)
(0.94578 0.206945 3.56084e-17)
(0.254041 0.0159687 -4.31124e-18)
(0.651803 1.14704 -1.57503e-16)
(0.572414 0.214241 -2.661e-17)
(2.64805 0.123363 0)
(0.38837 0.0574711 3.07837e-16)
(0.753346 1.24928 -1.22834e-16)
(0.331487 2.06161 -2.59438e-16)
(0.408061 0.0271645 -1.06717e-16)
(0.375757 -0.00833048 -1.15952e-16)
(0.344015 0.134168 2.33553e-17)
(0.569527 1.04984 -3.25675e-16)
(0.0167705 0.203139 5.80724e-17)
(0.269481 2.355 3.07613e-17)
(0.328474 2.2604 -4.4625e-17)
(0.683705 1.2292 1.35535e-16)
(0.751022 1.30998 -3.06038e-17)
(0.478137 1.80341 -4.22054e-20)
(0.813355 1.19333 0)
(0.698848 1.20361 0)
(0.467101 1.6937 6.36447e-16)
(0.748553 0.988291 8.14576e-17)
(1.66618 0.292878 -1.37559e-16)
(2.02863 0.209621 4.7407e-16)
(1.808 0.420282 -2.90122e-16)
(2.02617 0.597136 6.06272e-16)
(1.8239 -0.0142256 -1.43517e-16)
(1.81958 0.165985 -3.75219e-16)
(2.24144 0.358272 -2.41728e-16)
(2.28972 0.756127 -2.523e-16)
(0.283297 0.187888 -2.37202e-17)
(0.403517 0.178293 -4.59434e-17)
(0.694772 1.31158 3.63395e-17)
(0.725816 2.1193 6.64632e-19)
(-0.426103 2.24217 -1.04937e-16)
(0.556904 2.17754 -1.65126e-16)
(0.274764 2.28391 2.74311e-16)
(1.19769 -0.230751 2.26925e-16)
(0.796344 1.87636 4.00878e-16)
(0.586457 1.81675 -1.7373e-16)
(1.16016 1.73965 -4.5534e-17)
(1.11538 1.15368 0)
(1.34795 2.13098 3.13378e-16)
(0.3216 2.22057 3.84519e-17)
(0.608849 1.89014 -2.24314e-16)
(0.24433 2.19188 -2.45598e-16)
(0.472836 1.88875 0)
(0.456328 1.91289 3.14685e-16)
(0.390829 2.24281 0)
(0.392286 1.82426 6.41493e-17)
(0.345616 2.24596 2.35161e-16)
(0.338889 2.14031 0)
(0.401193 1.94333 -4.33835e-17)
(0.576509 1.58622 -3.34284e-16)
(0.186514 2.35585 -8.44643e-17)
(1.32477 1.85824 -2.52929e-16)
(0.428859 1.93431 1.39959e-20)
(0.31117 2.05533 0)
(0.822418 1.5072 0)
(0.314279 1.88921 -1.07618e-16)
(0.137744 2.24756 1.75228e-16)
(0.665009 1.38242 2.83481e-18)
(0.602955 1.48604 3.03081e-16)
(0.372928 1.72216 3.41323e-16)
(1.16175 2.58368 -5.70646e-17)
(-0.359854 0.506138 0)
(0.58074 2.33869 1.86049e-16)
(0.406657 0.120488 -1.24585e-17)
(0.316139 0.10761 0)
(-0.199953 0.446859 1.12439e-16)
(0.659226 2.48031 3.22496e-17)
(0.607966 2.14731 -2.88662e-17)
(0.292254 1.77518 -2.46021e-16)
(0.912457 2.16294 5.45607e-17)
(1.07774 -0.0816451 -1.1093e-15)
(1.21841 -0.130868 -6.92755e-16)
(0.20958 0.398083 0)
(-0.0898401 0.200244 -4.81919e-17)
(1.14354 0.415254 -1.24581e-16)
(0.77787 0.642574 3.05226e-16)
(0.32767 0.0481496 -5.9341e-17)
(0.407496 0.0768252 -5.77371e-17)
(1.07686 0.301496 5.51216e-16)
(0.410654 0.0442016 -1.7912e-16)
(1.48248 0.258994 0)
(0.355984 0.021192 1.4591e-16)
(0.416531 0.043974 -5.70617e-16)
(0.349888 0.0302843 7.01507e-17)
(1.45469 0.577783 -2.43218e-16)
(2.33746 -0.0229247 -4.49147e-17)
(1.65036 0.543478 -1.6128e-16)
(0.350523 -0.0147002 -1.04325e-16)
(0.408396 0.0470773 1.02095e-16)
(0.344115 0.0398084 -4.76525e-17)
(0.493073 0.831487 0)
(1.25034 0.734127 1.61427e-16)
(1.05203 1.04067 5.2692e-19)
(0.0947739 2.48937 1.43604e-16)
(-0.17473 0.260015 -1.4522e-17)
(0.322381 0.719625 1.23233e-17)
(0.385488 -0.0171426 2.15278e-16)
(0.414767 0.0378002 1.31728e-17)
(0.279911 1.23927 4.75722e-17)
(0.464727 1.2831 -4.86869e-17)
(0.337847 0.0572764 4.92276e-17)
(0.743054 1.12919 -1.26513e-16)
(2.39274 -0.0498354 2.9347e-16)
(0.355531 2.0973 -1.77293e-17)
(0.491886 1.91781 -3.78055e-16)
(0.513297 2.03372 -9.16283e-18)
(0.489389 1.91033 -3.94099e-16)
(1.44836 1.1702 0)
(0.554015 1.90253 2.51196e-16)
(0.227986 2.01802 6.76094e-17)
(0.00246169 1.74364 -5.55997e-18)
(0.558069 1.91845 -7.6977e-17)
(0.375536 -0.040111 3.11004e-18)
(0.418997 0.0334083 -1.00875e-16)
(0.475666 1.60045 -4.91842e-16)
(0.363891 1.63207 -1.73742e-16)
(0.483542 1.51473 8.27158e-16)
(0.351558 2.32442 5.04899e-17)
(0.240275 2.31494 1.24727e-18)
(-0.163419 2.30648 2.7381e-16)
(0.0744409 2.19537 0)
(0.535819 1.39343 2.27323e-16)
(0.705616 2.48965 0)
(-0.142968 2.17262 8.27006e-17)
(0.217156 0.288049 8.76967e-17)
(0.318007 0.0447999 -5.35941e-17)
(0.38698 0.0416632 3.71183e-16)
(0.743255 1.17927 -4.63118e-17)
(0.393525 1.95944 -5.90613e-17)
(0.440192 1.89894 1.25434e-16)
(0.0936214 2.10563 0)
(-0.0460305 2.58323 0)
(2.00848 0.556155 1.68652e-16)
(0.466254 2.70441 -3.04139e-17)
(0.45238 0.0432714 -4.66786e-17)
(0.128772 1.03865 -4.03417e-16)
(0.176339 2.7206 3.89867e-17)
(0.259023 2.43086 4.39947e-17)
(0.42196 1.90194 2.56627e-16)
(0.222344 2.58328 -1.24831e-16)
(0.494173 1.96154 9.87408e-17)
(-0.194394 1.56349 -4.47238e-17)
(0.263948 -0.0172728 0)
(0.382426 2.36098 0)
(0.299468 2.35489 0)
(0.407281 -0.0327903 1.10959e-16)
(0.414107 0.0420869 3.02273e-16)
(0.479001 0.000630613 -9.57593e-18)
(0.401148 2.55894 7.17543e-17)
(0.706849 1.21869 7.75052e-17)
(0.744518 1.17481 -1.30957e-16)
(0.374781 1.95661 0)
(0.379203 0.214399 -1.62342e-16)
(0.474459 0.175088 -5.93828e-17)
(0.732196 1.40277 -1.32396e-16)
(0.4704 1.83923 -6.47443e-17)
(0.283885 0.0462643 5.49258e-16)
(0.2287 0.839725 1.22362e-17)
(0.728331 1.18145 8.43379e-17)
(0.382909 2.39046 0)
(2.51088 -0.00874624 -4.38478e-16)
(0.886053 0.938692 -9.09399e-17)
(0.484734 0.0346441 0)
(0.281535 0.25936 5.14556e-17)
(0.495844 1.93448 -1.13193e-17)
(0.372284 2.34711 2.10334e-17)
(0.466261 0.0201235 0)
(0.0928386 1.22853 0)
(0.515759 1.93773 9.99806e-17)
(2.23789 0.290126 1.83006e-16)
(0.991297 1.02397 -6.51933e-17)
(0.519733 1.92619 1.27466e-16)
(0.297756 2.46175 1.12854e-16)
(0.32575 0.0842953 0)
(0.536566 1.93464 -1.28582e-16)
(0.517729 1.92171 1.02889e-16)
(0.493679 0.748539 -9.96731e-17)
(0.411653 0.0178979 9.99002e-17)
(0.826292 1.32185 0)
(0.712106 1.15064 2.53154e-16)
(0.497911 0.0224822 0)
(0.312245 2.272 -2.01255e-21)
(1.30686 1.78638 -1.78019e-16)
(0.430184 0.0243349 9.46459e-17)
(0.391951 2.30971 0)
(0.348696 1.89719 1.07626e-16)
(-0.0211772 0.342926 -2.25439e-17)
(0.0885779 0.133231 1.86616e-16)
(2.3941 0.0442656 3.91273e-16)
(0.392876 0.0763705 0)
(0.396986 -0.0717203 0)
(0.424755 0.0378658 -9.05517e-17)
(1.10736 1.28387 -7.60813e-17)
(0.622857 1.08885 -1.10002e-17)
(0.376374 2.35139 0)
(0.76085 1.15867 -1.65685e-16)
(0.388974 2.26937 1.39674e-16)
(0.449515 -0.0462898 -1.99971e-16)
(0.415411 0.0584069 -3.90557e-16)
(0.630712 0.207099 4.0286e-16)
(0.41822 0.18592 2.27022e-16)
(1.49304 1.75992 2.46739e-16)
(0.836933 1.41782 0)
(0.258802 0.120335 -1.78785e-16)
(0.363419 2.20492 -2.22067e-20)
(0.320785 2.3211 4.07518e-16)
(0.692261 1.08033 -1.11094e-17)
(0.506305 2.69774 6.87207e-17)
(0.409165 1.77219 2.63465e-16)
(0.0831583 2.15702 -3.39538e-16)
(0.108488 0.306472 0)
(0.303854 0.129411 -2.15635e-16)
(0.389661 2.33949 -9.26261e-18)
(0.273667 0.885531 -5.52953e-16)
(-0.281832 1.59708 -7.18669e-19)
(0.737415 0.0457496 -1.94419e-16)
(0.442494 0.165397 -1.99911e-16)
(0.480251 0.0164794 -1.57009e-16)
(-0.0825917 1.87987 -3.30901e-19)
(0.854998 0.7853 0)
(0.455599 0.0240639 0)
(0.515995 1.89808 -1.34989e-16)
(1.07027 0.191485 -9.84685e-17)
(0.360343 0.0787166 -6.12037e-17)
(0.479463 0.0211574 -1.00534e-16)
(0.469779 2.35147 -1.09057e-16)
(0.753528 2.07236 0)
(0.348844 2.363 -1.69991e-17)
(0.407725 0.044774 -2.43533e-17)
(-0.113135 0.223589 2.44214e-17)
(0.899543 1.31904 7.1879e-17)
(0.73385 0.996663 2.33779e-17)
(0.766188 1.27236 0)
(0.349624 2.44598 7.31235e-18)
(0.451427 -0.128529 -9.17787e-17)
(0.439577 0.0503692 8.92449e-17)
(0.477811 0.0177166 0)
(-0.129725 2.40536 -2.10317e-19)
(0.482672 0.0120936 -7.19851e-17)
(0.573795 1.61701 -2.18236e-16)
(0.224309 -0.0672055 4.20109e-17)
(1.81692 0.651795 0)
(0.507933 0.0490768 -3.81541e-16)
(0.146835 1.8794 -3.12956e-16)
(0.400739 2.44874 1.57371e-16)
(0.478132 0.0164363 0)
(0.331292 0.067199 -4.87188e-17)
(0.424731 2.30048 0)
(0.790793 0.905031 0)
(0.207253 2.09625 0)
(0.334774 1.00438 -7.50581e-17)
(0.650144 2.30253 2.30848e-16)
(0.852572 1.94015 9.45353e-17)
(0.787912 0.990577 9.83122e-16)
(0.478892 0.0167247 -5.53496e-17)
(0.450494 -0.0394763 -3.12834e-18)
(0.100724 0.928264 1.32285e-20)
(0.356647 2.38187 -6.38043e-18)
(2.15336 0.419676 -1.78828e-16)
(0.124164 2.10928 1.15755e-16)
(0.738246 1.82201 1.10675e-16)
(0.523502 2.43001 -8.64385e-17)
(0.544613 1.99182 1.5119e-16)
(0.593493 0.431351 -4.11991e-16)
(0.410754 2.35388 0)
(0.763318 0.745002 -8.07483e-18)
(0.480998 0.0196764 4.1315e-17)
(0.90002 0.273149 9.65832e-17)
(0.905866 0.116803 9.64131e-17)
(0.689546 0.00631009 1.64419e-16)
(0.288451 0.0664324 -2.23683e-16)
(0.23685 0.0398118 -1.63622e-19)
(0.202724 1.95559 2.17981e-19)
(0.422282 2.40941 0)
(0.525023 0.0293119 0)
(0.264465 1.27334 3.83294e-17)
(0.912502 -0.0856957 -1.84094e-20)
(0.553329 0.155911 1.9438e-16)
(0.510102 -0.0206218 0)
(0.478072 0.155869 1.44241e-16)
(1.14933 0.358449 0)
(0.282492 0.0230323 0)
(1.6796 1.56205 6.24985e-17)
(0.158132 0.18088 -1.72591e-16)
(-0.18497 -0.278142 -4.83954e-17)
(0.40352 2.83343 -3.41202e-17)
(0.226959 1.14204 8.98493e-17)
(0.485079 0.0263983 -1.37225e-17)
(0.776377 1.56878 2.72659e-16)
(0.745694 1.05781 1.08692e-16)
(0.635236 1.86464 -1.84213e-16)
(0.501607 0.0675421 4.18535e-17)
(1.27903 0.726294 9.42184e-17)
(0.533707 0.283668 -1.90247e-16)
(0.665665 0.714722 8.74119e-17)
(0.683389 1.22884 -2.05957e-16)
(0.538771 1.93326 2.34886e-16)
(0.486439 0.261359 -1.81092e-16)
(0.962084 0.8252 9.24835e-17)
(0.0460617 2.34405 2.40661e-19)
(0.655905 1.25168 1.20506e-16)
(0.162096 1.70363 -2.72498e-17)
(0.706716 1.25364 0)
(0.478056 2.26139 0)
(0.534706 1.93487 -2.79111e-16)
(0.615632 -0.205433 9.16473e-17)
(0.476975 0.0791112 -1.90056e-16)
(0.0987017 -0.154204 1.15682e-17)
(2.33242 0.0166441 2.13661e-17)
(0.550419 -0.0549517 0)
(0.424035 0.0925928 1.98333e-16)
(0.145636 1.91646 0)
(1.08376 0.858645 0)
(0.357905 2.31811 -1.22749e-16)
(0.491242 0.0403917 0)
(0.142572 0.752549 -4.31046e-16)
(0.863399 1.18199 5.14377e-16)
(0.697909 1.48931 9.00118e-17)
(0.421246 0.0267504 -9.19617e-17)
(0.694415 1.18994 -7.98006e-17)
(0.384761 2.27845 -1.81787e-16)
(0.49199 0.127836 -2.60543e-16)
(0.8466 1.23963 1.86968e-16)
(0.366571 0.222118 -1.57971e-17)
(-0.229442 2.04081 -2.67826e-16)
(2.23443 0.0872814 -9.96925e-17)
(0.405178 1.92632 6.84666e-17)
(0.00885593 1.41081 0)
(0.589445 1.39705 -2.21429e-16)
(0.952995 0.0114988 9.02846e-18)
(0.890001 0.0152396 -3.42742e-17)
(0.527234 2.07421 -6.70801e-20)
(1.04077 0.0230206 -9.19281e-18)
(0.842082 0.0328875 0)
(0.871242 0.296172 -2.60628e-16)
(0.306933 2.24653 0)
(0.110705 0.0781793 4.24862e-16)
(1.13929 0.0348424 -7.29655e-17)
(0.70756 0.0416241 0)
(-0.0152941 0.754344 7.41345e-16)
(0.0133083 1.52944 1.51826e-16)
(-0.146866 0.797356 -3.07561e-16)
(0.309784 0.00196856 -4.32654e-16)
(0.301173 0.384072 2.8014e-17)
(-0.309767 1.07672 0)
(1.62142 0.692201 2.39919e-16)
(0.929866 0.111466 8.25131e-17)
(1.82604 -0.0179208 1.27146e-16)
(0.529157 -0.0824736 1.43628e-16)
(0.53206 1.10984 4.5894e-17)
(0.740913 1.20818 3.90219e-17)
(0.507559 2.55905 -1.48527e-19)
(0.403291 2.16996 5.91851e-19)
(0.58704 1.87731 0)
(1.02633 0.991218 4.19944e-17)
(0.6673 0.081171 0)
(1.60051 0.0126401 -5.24611e-19)
(-0.016464 0.476874 -1.34211e-20)
(0.60161 0.822952 4.84008e-17)
(0.212348 0.774154 -1.36165e-16)
(0.148224 0.334825 0)
(0.537122 1.75087 -6.89221e-17)
(2.15185 1.42901 -2.75829e-16)
(1.71216 -0.00133533 -2.58493e-16)
(0.985953 0.301692 0)
(0.281156 -0.236779 -1.09697e-19)
(1.26909 1.20228 -1.7389e-16)
(0.391951 0.439193 6.08275e-16)
(0.598472 -0.144009 5.65922e-16)
(0.505443 -0.0118441 -4.49993e-16)
(0.699359 0.872727 -1.98251e-17)
(0.488984 0.522229 1.85373e-16)
(0.194367 0.288486 -3.32035e-17)
(1.44003 0.71624 -1.73575e-16)
(0.28915 0.0672066 -8.48288e-21)
(0.79474 0.95211 1.17102e-16)
(0.675229 1.31944 8.32806e-16)
(-0.0377931 2.23645 -3.43271e-20)
(0.089227 0.0356195 0)
(0.28184 0.0180847 8.98441e-17)
(0.651312 0.979416 -3.54505e-21)
(1.01338 0.470628 -9.50545e-17)
(0.428362 0.00847085 -9.42311e-17)
(0.446574 0.0212311 4.43451e-17)
(-0.206922 0.889693 -2.98222e-16)
(-0.00293039 0.795716 1.18312e-16)
(0.847879 0.993557 -8.22242e-17)
(0.344299 0.252743 1.64492e-16)
(0.648144 0.405407 2.10645e-16)
(-0.316234 0.837704 2.94199e-16)
(-1.13747 1.82099 -1.67925e-16)
(0.169516 1.74079 -4.39655e-16)
(-0.288778 2.15065 9.42244e-19)
(0.193568 0.0351547 -1.14679e-19)
(1.47399 0.37144 2.62081e-16)
(0.0174817 0.902701 -2.52742e-16)
(0.0400777 1.91801 0)
(0.795821 1.17158 2.8413e-16)
(0.412194 0.016753 -1.0182e-16)
(0.3156 -0.0919726 4.19218e-17)
(0.831323 0.92544 2.40182e-17)
(-0.845564 -0.160501 4.32205e-17)
(0.405658 1.86103 1.34221e-16)
(0.486426 0.00341107 -1.24987e-16)
(0.462525 -0.012906 9.44955e-17)
(1.20578 1.98902 2.36234e-16)
(0.515325 1.90573 -4.24056e-16)
(-0.31127 -0.00247377 -2.29617e-17)
(0.470906 -0.00723708 -3.67667e-16)
(0.330379 1.79889 0)
(0.0478731 1.03026 -7.05155e-17)
(1.06276 1.38009 -3.13627e-19)
(-0.0676764 1.81791 -5.91271e-17)
(0.0364835 -0.136836 -4.45508e-17)
(-0.0942835 2.60708 -2.19388e-16)
(0.838825 1.6439 6.39185e-17)
(0.802305 1.74749 -2.15213e-16)
(0.662854 0.0983483 -2.94034e-18)
(0.797399 1.75469 -7.22533e-17)
(0.668302 1.24399 8.03506e-17)
(0.460447 -0.0134466 0)
(0.468014 -0.00155179 0)
(0.210954 2.50837 -3.47309e-18)
(0.47148 0.180048 -4.29219e-16)
(0.312459 0.200162 2.50192e-16)
(0.35484 0.0187619 0)
(0.542708 0.0495926 0)
(0.68774 1.2944 -1.64646e-17)
(0.728559 -0.0602391 -9.02829e-17)
(0.516412 -0.10497 1.43682e-16)
(0.389766 0.0268722 1.60936e-16)
(0.798104 0.60024 9.41418e-17)
(1.46782 2.27891 -7.37166e-16)
(0.546494 0.957083 0)
(0.708715 0.291538 -1.0959e-16)
(1.52478 0.392457 -6.2218e-17)
(1.14205 0.255644 0)
(0.35744 0.357661 -1.73996e-16)
(2.42159 0.137827 -2.01762e-16)
(0.499796 1.86533 6.72131e-16)
(0.824589 0.117668 -1.08684e-16)
(0.604829 1.34002 -2.12031e-16)
(1.22625 0.890077 0)
(1.39815 0.9158 0)
(0.57192 1.92731 1.50987e-16)
(0.636224 1.27871 -7.22721e-17)
(0.0893375 2.14968 1.70222e-16)
(0.405818 0.914174 0)
(0.758463 1.18409 8.41672e-17)
(0.172104 1.99835 1.22279e-19)
(0.493258 -0.0137071 0)
(0.328497 0.0298471 0)
(0.447519 1.18173 4.84178e-17)
(0.309961 -0.0191812 0)
(0.628765 0.922012 2.56318e-17)
(1.48412 0.026186 1.35873e-16)
(0.981919 1.86007 1.5933e-16)
(0.76128 0.106732 3.48281e-16)
(0.132468 2.01347 -1.1466e-16)
(-0.152344 2.73782 -1.64432e-16)
(0.385921 0.0675093 2.03369e-16)
(0.474392 0.00462027 0)
(-0.07633 1.73817 -6.70842e-17)
(0.47471 -0.00903226 1.95256e-16)
(0.91501 1.2497 0)
(0.664852 -0.0436802 -1.50136e-16)
(0.398881 0.0275154 0)
(0.251722 0.0555473 -2.61165e-16)
(0.18286 1.70111 0)
(1.59683 -0.0313446 -1.87233e-16)
(0.312903 -0.375518 4.83664e-18)
(0.468563 0.0736809 1.38002e-16)
(0.399805 0.950707 7.44284e-16)
(0.781401 2.36588 0)
(0.337634 1.56669 6.55913e-19)
(0.570198 1.79428 1.79149e-16)
(0.659774 0.921018 -1.74898e-16)
(0.366853 -0.0395372 4.20893e-17)
(-0.223391 0.564148 -1.50774e-16)
(0.358832 0.0574638 1.86656e-16)
(-0.0502178 1.68661 3.89551e-17)
(0.422791 -0.0434284 5.33899e-18)
(0.0449282 2.72258 -4.27339e-16)
(0.903985 2.39089 -1.39422e-16)
(0.650553 1.87041 2.6918e-16)
(1.01399 0.26152 3.24024e-16)
(0.586381 0.614861 -9.47348e-17)
(0.474214 0.0475937 -9.50698e-17)
(0.611187 -0.079241 -7.3276e-17)
(0.370208 0.0302791 4.13685e-16)
(0.401923 0.0196879 1.98884e-16)
(0.176267 2.58996 8.53531e-17)
(0.327265 0.211435 0)
(0.326473 0.319557 0)
(0.290528 1.03035 -1.71106e-16)
(1.92919 0.174043 2.39531e-16)
(0.263109 1.82699 -2.77923e-17)
(0.402469 0.0346878 -3.08522e-16)
(0.165629 1.07357 6.96737e-18)
(0.0253747 1.86774 -7.80539e-17)
(1.01593 1.32116 5.41099e-16)
(0.35223 -0.108452 1.11312e-16)
(0.475352 0.0359108 4.70333e-17)
(0.467352 -0.000932164 0)
(1.5991 0.932522 1.42723e-16)
(0.352745 0.227851 0)
(0.301963 0.339603 0)
(0.411747 0.0740776 -4.08155e-18)
(0.377821 2.00855 0)
(0.425263 0.0167082 0)
(0.39148 1.11847 0)
(0.0340305 0.542359 0)
(2.80012 0.76761 -4.52963e-16)
(0.174809 1.0092 -2.13131e-16)
(0.318265 2.56147 -1.291e-16)
(0.308081 0.112264 -4.52271e-18)
(0.603014 1.63996 -4.45843e-16)
(0.289062 0.625609 -4.00341e-16)
(0.505874 1.91267 2.92811e-16)
(0.202802 1.44013 -6.01664e-16)
(0.287519 1.97323 3.19974e-16)
(0.00606184 1.0256 7.04501e-17)
(0.476484 0.00622117 0)
(0.532751 0.827136 0)
(0.472682 1.30047 2.18117e-16)
(0.782165 0.589076 8.42883e-16)
(0.383791 0.797295 3.33643e-16)
(0.816163 2.0405 0)
(1.07038 0.405925 0)
(0.519743 1.93152 1.86144e-16)
(0.267236 0.0433922 2.32836e-17)
(0.503485 2.39859 -1.36557e-16)
(0.47325 0.0199099 -1.37827e-16)
(0.620554 2.03536 -3.09657e-16)
(0.488751 0.0148005 -3.06639e-18)
(-0.0262813 0.927547 3.18339e-17)
(-0.0524506 0.904648 -1.10167e-17)
(-0.0505051 0.795725 0)
(-0.0627173 0.867313 -4.67121e-17)
(-0.129976 1.81167 0)
(-0.072065 1.60502 0)
(-0.154694 2.00842 0)
(-0.118716 2.16073 0)
(0.000302921 0.932698 0)
(-0.0729913 2.26843 0)
(-0.0326762 2.34614 0)
(0.0190701 0.908615 -2.12047e-17)
(0.0308864 0.8584 -2.08006e-17)
(0.0377717 0.78987 2.13737e-17)
(0.348521 1.98821 1.33957e-17)
(0.0403267 0.707295 1.12319e-17)
(0.0376289 0.62213 2.8895e-18)
(2.54504 0.370367 4.75512e-16)
(0.354001 0.443805 -9.53718e-17)
(1.92012 1.25652 0)
(0.470628 -0.00854632 0)
(-0.00104741 2.37766 0)
(0.330528 2.13282 8.14769e-18)
(0.554454 1.1485 0)