/*--------------------------------*- C++ -*----------------------------------*\
| =========                 |                                                 |
| \\      /  F ield         | OpenFOAM: The Open Source CFD Toolbox           |
|  \\    /   O peration     | Version:  v1912                                 |
|   \\  /    A nd           | Website:  www.openfoam.com                      |
|    \\/     M anipulation  |                                                 |
\*---------------------------------------------------------------------------*/
FoamFile
{
    version     2.0;
    format      ascii;
    class       volScalarField;
    location    "0.68";
    object      k;
}
// * * * * * * * * * * * * * * * * * * * * * * * * * * * * * * * * * * * * * //

dimensions      [0 2 -2 0 0 0 0];


internalField   nonuniform List<scalar> 
5794
(
0.0466923
0.0733148
0.47722
1.95468
1.72028
0.0644883
0.167105
0.174148
1.46966
0.19097
0.926658
0.425524
0.309835
2.02155
0.176787
0.029659
6.38672
2.05831
0.119897
0.0557058
0.938942
0.0516743
0.365191
0.253623
0.324816
2.64932
6.42636
3.15829
2.0385
0.193343
0.270078
0.596254
0.735392
0.23442
0.32745
0.347517
0.196777
0.754082
0.790517
2.02091
1.01989
0.646016
0.279361
0.253465
0.133575
1.11449
0.858725
0.396225
0.157454
0.100913
0.230229
1.43974
0.09869
0.149343
0.0123842
1.06378
0.832463
0.618889
0.220482
4.35269
0.941343
0.0669827
0.284264
1.03626
1.24624
0.0512105
1.19581
0.421025
1.81532
0.0827587
2.4472
1.36827
7.75383
0.132386
1.89248
2.01002
0.295889
2.05631
0.238792
0.0498112
0.0345295
0.0551925
1.3999
0.574272
0.5881
0.75471
0.484386
1.03644
0.428368
0.540875
2.41226
0.655855
1.54329
2.59576
0.951543
2.51559
1.85073
1.33927
0.601023
1.0302
0.882131
0.32963
0.251805
2.49938
0.0866573
3.42086
0.0596891
0.61959
1.60873
0.236469
0.0627959
0.0485438
0.868362
0.0965973
0.786656
1.96748
0.280185
2.19121
0.861611
0.49968
2.49818
0.0458168
0.225157
2.76519
0.0888958
1.49282
1.59351
0.0609404
1.73327
0.672597
0.527663
0.354459
1.23716
1.84193
3.09974
0.205435
2.04712
0.0708373
0.0962187
0.114612
0.0975167
1.55842
0.0749259
1.94111
0.136791
7.01344
0.931102
0.93411
1.43912
0.85876
0.313276
0.114767
3.32513
0.319439
7.19663
1.04219
0.595668
0.375886
1.41299
0.638254
0.0779191
0.238542
0.077682
0.233097
1.17292
1.29738
0.253418
0.209441
0.0564095
0.0455745
0.123729
0.819267
0.200127
0.209907
0.133311
0.268355
0.0937641
0.27544
0.116653
1.26507
0.313881
0.617514
0.207138
0.893112
0.201389
3.9028
0.377512
0.434047
0.149288
0.25655
0.950472
0.55318
0.707586
0.240365
0.271555
0.459968
0.190882
0.0473967
0.0900958
0.278472
0.193236
1.22913
0.234222
0.275276
0.872006
1.13281
0.20634
1.0576
4.36564
0.930494
0.222888
0.313362
0.341484
0.329834
0.256324
0.395894
0.412994
1.40662
1.06149
2.25692
0.306334
0.748723
3.75845
1.41783
2.0014
3.41098
0.212508
0.304083
0.39805
0.255409
0.199882
0.214354
0.193017
1.17117
0.996253
4.54779
5.32959
0.936832
0.277255
0.0708729
0.0464072
2.09332
0.858615
0.749531
0.451685
0.0756528
0.110079
1.50209
1.32857
0.884088
0.480867
0.0543084
6.73293
0.041824
0.211035
4.47379
0.269185
0.437145
0.759964
0.0895951
1.55582
0.334413
0.320511
0.0478841
0.690333
0.297768
1.46739
1.74619
0.0818124
1.38522
1.06443
0.316713
0.460281
2.17577
0.397896
0.234322
0.149412
0.0897632
0.143761
0.303735
0.0473526
1.66988
0.844592
0.545814
1.39063
2.37935
0.946887
1.14129
2.93001
2.53706
0.29563
0.270055
0.25102
0.133498
0.203146
2.36244
0.71465
0.386478
1.07586
0.0548702
0.0500454
0.764117
0.0342296
1.01257
0.195977
1.63442
0.146878
1.44079
1.36813
1.04605
0.354312
1.14919
1.02187
0.0919603
0.29226
0.594505
0.795667
3.45624
1.56505
2.4678
1.09599
0.621256
2.02978
1.82732
0.0343263
0.517919
0.106699
0.43848
0.284424
0.853321
1.18501
0.282358
0.241494
0.590467
0.486511
0.166421
0.171634
0.0585185
0.139169
0.321629
0.175138
0.291161
1.36785
0.302219
0.13925
0.178891
1.18263
0.751439
1.50994
0.899603
0.965186
2.91443
0.75451
0.560799
0.229267
2.86224
0.0690864
1.32415
0.167186
0.146947
0.936769
0.740961
1.84112
0.262594
0.230165
0.676461
1.16431
0.995731
0.769192
0.445088
0.20014
0.0440371
0.609448
0.0892606
1.17763
1.32203
0.888124
0.731484
0.77117
0.10126
0.825341
0.222688
0.322754
0.306082
0.292293
0.206711
2.45204
0.320227
0.270209
0.31525
0.204435
0.999242
0.0808921
0.0691116
0.161224
0.167845
0.113818
0.276334
0.128686
0.35592
0.207703
0.341234
4.97226
0.0519123
0.0384202
1.19344
0.202439
0.0758511
0.0632965
1.84387
1.31549
0.588146
1.26886
0.612315
1.22335
0.938852
0.24772
1.91912
1.09958
1.7233
0.583122
1.26596
0.870747
0.176399
0.233185
0.242273
0.130579
0.0926183
0.0624621
0.0426713
1.36098
0.224002
1.72223
1.29457
0.108439
0.232652
0.456112
0.336735
0.251899
0.254257
0.158126
0.269437
0.244689
0.39296
0.0913752
2.20127
0.85204
0.0659683
0.220859
1.04775
0.178106
0.0607958
1.26703
0.058988
1.88802
0.0444695
1.88883
2.71365
1.11823
3.6456
0.0578885
0.0662983
0.237208
0.0835928
1.13157
0.676962
4.14079
2.60574
1.00849
0.22626
0.0310624
5.09766
1.58636
0.481023
0.201908
1.80554
5.78388
3.59391
0.191058
0.0702178
0.416769
0.0570721
0.202276
0.439327
0.879427
1.12202
0.312408
0.0951735
2.90257
0.0490717
0.0602466
1.90685
1.91745
1.88158
0.180246
0.104907
0.164205
0.20941
0.0419435
1.0782
3.40469
5.88242
0.265559
0.35224
2.02712
0.061016
0.0661803
0.638165
1.45965
0.0557494
2.46731
0.142399
1.02329
0.0481409
0.0743068
0.695152
1.75265
0.0538181
0.222966
5.11121
0.0799189
0.0500872
2.18924
2.19666
0.749026
0.050112
0.198399
1.07357
0.0532927
0.0478222
0.39866
0.0491829
3.97367
0.188466
0.559292
0.165579
0.240094
2.34924
0.657387
1.28143
0.0454212
1.5026
0.0587341
1.79689
0.104404
0.0340579
0.215096
1.91536
0.0812346
0.0879574
2.45865
0.101478
0.101362
0.202755
0.0724458
0.0583291
0.365045
0.043894
0.0525275
0.895127
10.9296
0.160816
1.53274
0.135827
1.82435
0.16113
0.0281493
0.673999
0.043639
0.0592353
1.25107
0.929305
1.43647
1.10041
1.62618
0.292579
2.75572
1.26027
0.485225
0.842937
2.04875
0.752136
2.90268
3.83271
1.83401
0.935895
0.0808671
1.64819
0.676041
2.12772
0.0589624
0.098892
0.0681792
2.3173
0.786941
1.23165
0.086677
0.293551
0.0576748
0.227423
0.0601941
1.39734
0.806054
2.53408
0.0472616
0.51246
2.88939
0.175486
0.0142682
0.849664
3.11857
4.28466
2.10227
0.126793
0.299525
0.18378
0.985642
0.576709
0.273306
0.843228
0.0487353
1.32283
1.71489
0.854564
0.0580707
0.0563517
0.0889629
1.23894
2.15363
0.0770119
0.045767
0.061554
0.0326138
0.0670334
0.0523572
0.264791
2.33956
0.486962
0.489791
3.08585
0.0820077
0.29703
1.08404
0.720276
2.03014
2.80106
0.913491
0.738159
0.19457
0.0383468
0.0376884
0.228219
0.208595
0.153323
0.213342
1.64453
5.8916
0.705987
1.88408
0.513936
0.106049
0.127072
0.0531442
0.644715
0.0691981
1.09001
3.04173
2.47463
0.965509
1.18697
0.955796
0.281272
5.02778
0.911959
0.530352
0.881676
2.74925
0.121873
2.14063
0.157798
0.0329078
1.1254
0.158167
0.0370571
0.859087
2.10111
2.17692
0.183152
0.140088
0.0527732
1.24968
3.98196
2.18423
1.10914
0.133832
0.979549
1.0584
0.0432052
0.0451838
0.28978
0.112738
0.235175
0.0472699
0.4599
0.937862
2.44909
1.60076
0.35798
0.217324
2.82626
0.535118
4.02792
1.18512
1.53369
1.42634
0.373585
0.267138
7.26009
1.33771
1.28712
1.83076
2.65444
2.38201
0.134734
3.93712
0.271528
0.371039
0.506486
2.77426
0.640407
1.07536
1.44247
3.0321
0.89764
0.13153
0.286107
4.84176
0.747036
0.639726
1.47713
2.16495
0.0519339
0.0275371
0.150046
0.161812
2.11138
0.963314
2.50479
0.101717
0.283076
0.0387871
0.202519
0.13378
0.0460412
0.774007
2.32722
0.207149
2.77236
0.993284
0.26201
0.116803
6.00518
2.02175
1.03305
3.10871
2.53438
1.00043
1.41897
0.242347
1.51291
0.64879
2.02021
0.786589
0.206264
0.493082
0.0534463
0.0452574
0.13765
1.75167
0.0737284
1.20852
6.4763
0.190877
0.0604037
0.0571855
2.10253
0.856547
1.21011
2.20485
0.783072
0.170691
2.21636
2.10846
1.45776
0.23275
0.941933
0.0611352
1.86147
0.0546154
2.26862
0.304344
0.863689
0.823228
0.0807626
0.0363194
0.128779
1.17681
1.56063
1.71525
4.28015
1.16504
0.0916508
0.238277
0.645843
4.0783
0.0916274
0.633049
0.677202
2.44395
0.0554411
0.0540592
0.335086
0.888635
4.7433
0.0818749
0.38576
0.142601
0.462996
0.157182
0.699524
1.79089
2.0288
0.282667
0.158162
2.26505
0.433432
0.598675
8.28317
0.0633554
0.0324429
0.0834404
0.0697451
1.03017
0.15617
0.49852
0.0765773
0.111789
0.219597
0.316464
5.56096
0.844446
2.6887
0.812689
1.14006
1.70659
1.20392
4.90871
0.886395
0.0688657
0.0428078
0.206644
0.826108
0.233879
0.523101
4.10869
1.28614
2.74227
0.864974
0.111281
2.83147
0.111543
0.348341
1.41779
0.0705124
3.98731
0.148771
0.229302
1.78694
0.395607
0.231163
0.280641
1.54652
0.653496
0.268415
0.0546005
0.210987
0.75613
1.78532
0.246946
0.299195
1.08804
0.37301
0.977909
2.98479
1.56812
2.45722
1.36265
0.0454564
0.0593931
0.496998
0.0682919
0.112801
0.0569006
0.0756312
0.825065
0.0547447
0.254152
0.0697634
2.25271
1.5661
0.739375
0.276347
0.513384
0.977956
5.48125
0.668269
1.62539
0.234248
0.0599465
5.21687
0.391025
1.4911
0.259813
1.29248
0.675368
0.914606
0.0386688
1.63137
1.10006
0.182317
0.167109
0.129244
0.0323462
0.054196
0.729404
2.38361
3.56137
1.63988
0.57905
1.23488
0.946063
0.327203
0.0597719
0.0700685
0.864746
0.06361
4.98299
1.15927
2.07175
0.246273
2.30738
1.00553
0.0634187
0.0578312
5.04126
3.34167
0.305095
0.248848
0.474304
1.61625
0.137253
1.63601
0.0666412
0.153554
0.217788
0.0592702
0.0611664
0.371902
0.0761566
0.0601448
0.068349
0.060356
0.26422
2.5615
0.215713
0.167671
0.0705727
1.20862
0.299665
0.353351
0.207867
0.53253
0.0520711
0.637419
0.200411
0.199
0.0745155
0.333276
1.52722
0.0739652
0.304257
0.47875
0.0662356
0.291792
1.16001
0.430588
3.83085
1.75642
0.0474593
0.318486
0.531885
2.04482
0.549602
1.07531
1.07156
2.42729
0.0631266
0.239188
0.0660382
0.0273556
0.419522
0.421901
2.02724
1.69238
1.25778
0.0242969
0.654001
1.45413
0.746315
0.802431
0.985604
0.0607946
0.0559616
0.0609163
0.572123
0.302417
1.96836
0.20103
0.501277
0.196783
0.204779
0.28726
0.0390661
0.06139
0.0621592
1.04692
2.32604
0.754189
0.0717764
0.274438
1.43793
0.0538474
0.393339
0.105419
0.291848
0.83006
0.0546743
1.35118
0.0532538
0.311152
1.03366
0.08733
2.08614
0.290693
0.0465277
0.717437
2.23661
0.0532092
1.40848
0.0969714
0.0768216
0.0558884
0.106849
0.0876439
0.05216
0.309229
0.0718307
0.0790391
0.163379
0.242993
0.240698
1.68352
0.551957
0.269267
2.45643
0.808898
0.0782925
0.0772122
2.16696
0.693223
1.06681
2.68671
0.0805417
0.478503
0.0507749
2.84686
0.134352
1.64838
0.158707
3.54382
1.01582
0.0300153
0.6646
0.059883
0.0476805
0.263642
0.0590398
0.622499
0.646096
0.0449479
0.677887
0.0202448
0.036963
0.126862
0.0583291
0.0693948
1.30663
0.210348
1.10144
0.0915815
1.38861
0.159102
0.0718884
0.053429
0.198717
2.27195
0.406571
0.218932
0.57539
0.249365
0.406872
4.00976
2.13867
0.0530644
0.466897
1.84485
0.819032
1.11674
0.238819
2.31282
2.11942
1.54971
0.504686
2.74701
0.266795
0.265183
0.206642
0.338001
0.196129
0.0486757
12.1838
0.694103
0.0460069
0.265839
1.71878
1.67401
0.271818
0.0340491
0.208212
0.3335
0.122366
0.0563679
1.98447
0.112616
0.984688
0.609811
1.8183
0.228634
0.0780063
0.303526
0.258597
0.202027
0.60347
0.0611857
0.745356
0.0574345
3.58838
0.428525
0.165174
0.191289
0.487999
0.292451
0.391527
0.333635
0.193699
0.205049
0.186911
1.52714
0.293636
0.214143
0.0601511
0.0420193
0.664204
2.1234
0.712775
0.253241
0.137182
0.250672
0.317951
0.261382
0.240536
0.187774
0.488647
0.322628
0.567641
0.0526377
2.20318
0.0497945
7.44854
0.0463092
0.115234
0.143792
0.0546848
0.0602923
1.32582
0.175373
0.232513
0.0415963
0.176239
0.651799
1.96877
0.959971
0.165793
0.071906
0.488194
0.241776
1.70073
1.07181
0.378063
0.281583
0.0206652
2.24475
0.290929
1.25847
1.54736
0.169813
0.291083
0.654057
0.491162
0.0417786
2.46759
2.19074
0.632852
1.86956
1.08336
0.307505
0.0344601
2.12794
5.82274
2.09722
1.26261
0.0881192
0.102633
1.17271
0.304523
0.0405094
0.0446911
0.337376
0.800255
0.100232
0.05567
0.46069
0.0614734
0.0535464
0.12292
0.401105
2.59454
0.0536849
0.612124
0.994894
3.20185
3.1785
0.276116
0.940391
0.197852
2.07487
0.111952
2.0913
2.5248
0.83855
1.5264
0.715088
1.34898
1.34787
5.12177
0.379301
0.181672
0.155322
3.10762
0.0957885
0.528057
1.10589
0.701677
0.363016
1.95444
1.23569
0.858944
2.19804
0.0737991
0.0424162
0.257351
0.947914
0.0519965
0.58938
1.28039
0.293921
1.59065
1.37661
1.81555
0.0435931
3.47023
0.103544
1.08553
0.355967
0.327783
0.485494
0.0656516
1.58826
0.0585132
0.0958754
0.0454961
2.28494
0.103639
0.536063
0.435241
3.74709
0.241661
1.66441
4.338
0.301394
0.277835
0.022785
1.12057
0.765834
2.38029
2.25112
0.0823977
0.0340249
1.13786
1.32989
0.605571
1.66132
0.985828
1.37458
0.84177
0.771763
0.0907604
0.364764
0.99339
0.118327
2.25574
0.137498
0.0643242
0.209827
0.571707
0.0891282
0.0785162
0.100558
0.385954
0.213412
0.146456
0.154032
0.0472149
0.263594
1.0575
1.10403
0.892755
0.0627093
2.63277
1.29286
2.03807
0.4379
0.152011
0.878053
0.109592
0.0459793
0.0302645
0.0533262
12.0238
0.323245
1.10242
0.643019
1.7594
2.47684
0.612123
0.0769505
0.0530578
0.0352967
0.0944854
0.0176107
0.0770345
0.0407257
0.051797
0.0640752
0.0746848
0.0214919
0.0886793
0.0615489
0.0408393
0.0435117
0.0216844
0.0755935
0.0438387
0.0180713
0.0384101
0.114944
0.0336342
0.044877
0.0338125
0.0570943
0.117146
0.059263
0.0285857
0.0259435
0.0445754
0.0878009
0.0775427
0.0461869
0.0200021
0.0179174
0.0696007
0.0209093
0.0758989
0.0432818
0.0393623
0.0376793
0.0419061
0.0625704
0.123341
0.568659
0.390013
4.98693
0.0730662
0.577922
1.11385
2.41491
1.48995
0.1827
0.0512662
0.398373
0.191774
0.471334
2.05419
9.52542
2.40114
2.58623
0.592008
0.113061
0.106744
0.0630557
0.314827
0.0369214
0.873342
0.11267
0.450691
0.225713
0.356837
1.01012
0.358822
0.625442
2.27411
1.4169
10.7036
0.179115
0.505531
0.415305
0.339144
3.84396
0.139596
0.786941
2.00455
0.968818
0.309538
0.358964
0.449014
0.575591
0.327888
0.362147
13.5655
0.132477
0.131823
0.0192501
2.11691
2.17331
0.0403391
1.79432
2.04298
0.0488289
0.0182241
0.0379911
0.0752514
0.0811497
0.0524701
0.0370069
0.044554
0.0412792
0.0320876
0.117801
0.0684662
0.0387075
0.128081
0.0342056
0.0441697
0.101035
0.043844
0.0183936
0.0381067
0.0343108
0.0821299
0.0261427
1.30976
1.30874
0.173622
0.469259
1.16289
0.362254
1.97882
0.0514971
1.48813
1.5952
0.510849
1.24753
2.30714
0.750558
0.0424338
2.32493
1.01954
0.345776
5.87344
2.3121
1.77707
0.0511456
3.42601
0.791301
0.0920311
3.44698
0.373437
1.58809
0.138135
0.0936209
0.0316429
2.00377
0.0847115
2.23749
2.57187
0.116505
3.18063
0.0731419
3.11079
0.222638
0.0905182
0.0609656
2.00454
0.125159
0.17146
0.260561
0.0970106
3.06557
0.315572
1.56167
0.384498
1.19041
1.54448
4.83126
0.0287087
0.279559
0.317504
2.21856
1.23054
0.086835
0.0538189
0.363837
0.331562
3.19383
0.30796
0.10959
0.0749635
0.0772057
0.343065
0.0574323
1.96232
0.151755
0.0273138
0.0497861
3.13072
2.71257
0.324246
0.69789
2.00681
0.0691232
3.1434
2.80335
2.19192
3.07504
3.26989
0.0951619
1.76592
0.0516228
0.243959
0.162519
2.00421
0.251981
0.260903
0.426158
2.14741
0.107238
0.0788707
0.110708
0.181818
0.426753
2.19216
2.99803
4.40402
1.37934
0.617815
3.33205
0.197755
0.862085
0.830079
0.959221
0.983061
2.20534
1.22093
2.9198
1.11181
3.25639
1.39521
0.0876319
1.12969
1.0178
0.493364
0.428447
0.579911
3.70641
0.66649
0.535988
1.5243
1.2993
1.41241
0.838392
0.518077
6.57131
0.421817
1.72562
0.778183
0.0968982
0.0690262
0.188283
1.54368
0.127322
0.0950791
0.3221
3.85193
3.85559
2.36104
2.52447
3.89831
2.63402
3.93799
0.089874
3.92934
3.90699
2.88793
3.01841
3.92599
2.77911
3.86598
3.9781
3.90695
0.395689
0.352458
0.556799
4.80672
0.261637
0.510528
0.451919
0.262599
0.0349817
0.0577485
1.75538
2.9841
0.994156
0.225006
0.202228
1.6197
2.97015
1.17366
0.622178
0.304098
0.229301
0.31038
0.550349
1.6371
0.305784
1.41794
0.432921
0.483279
0.110208
0.420378
0.155625
1.04642
0.197513
0.39803
0.114415
0.062982
1.17708
0.185087
0.228758
0.170625
0.29064
0.273673
1.51055
0.242931
1.3671
0.962297
0.241531
1.29236
3.76279
0.251624
1.64868
0.996094
0.962015
3.86947
0.150534
0.191741
3.59574
1.15558
1.85828
0.243922
0.261834
2.11848
3.77808
1.67889
0.196285
0.238157
0.182132
1.18876
0.259819
7.45832
0.262848
0.274797
0.361366
0.235361
1.03849
0.127406
0.245679
1.32833
1.42875
0.429326
7.09433
3.04869
0.161023
3.2262
0.238308
0.422542
0.480731
0.15974
2.09155
0.274388
6.82356
0.46859
0.41911
0.170441
2.28038
6.50888
0.110968
1.3725
1.73624
0.677603
0.439446
0.41652
0.0945152
0.275878
1.98792
1.56212
1.78413
4.97009
4.64369
0.229395
0.795462
0.186849
1.33591
0.910295
0.208625
0.0854359
2.09599
0.12069
0.293929
0.0836727
1.29374
0.290509
0.613038
0.707676
0.355118
0.853534
0.225134
0.988749
0.554418
0.324874
0.205862
1.13395
0.965158
0.239637
0.371948
0.346454
0.0919498
0.945017
0.744534
0.625868
0.143465
0.262517
0.103502
0.298314
0.383338
1.15076
0.104558
0.308412
1.53232
1.91492
0.791897
0.337235
0.196816
1.50899
0.0911555
0.171602
0.211339
0.868452
0.495187
0.606704
0.12005
1.23011
1.39249
5.02466
0.0935849
1.4247
0.888781
0.0896846
1.08238
1.45015
0.758453
0.155776
0.906407
0.138343
0.674121
0.800579
1.37717
1.61189
0.0935764
0.640271
0.0833722
0.806349
0.21492
0.174691
1.54499
1.34954
1.22906
0.0733303
0.0947538
0.771836
0.311383
1.49533
0.179287
1.12785
0.0917189
0.270218
0.0788467
0.0397197
1.52775
0.354738
1.96776
0.545849
0.168715
0.976929
0.11269
0.0836155
1.28148
1.26286
0.302037
0.23665
0.112528
0.398846
0.359936
0.267628
0.395056
0.0673048
0.070343
0.0500104
5.20237
0.643888
0.393834
0.346052
0.342312
0.0779187
0.243545
0.0715303
0.10038
1.35903
0.256115
0.245669
0.33144
0.137458
0.214569
0.0731583
0.104538
1.90513
1.4824
0.428273
1.38587
1.57332
0.265661
0.418278
0.784974
5.14811
0.340655
0.322863
0.300017
2.42049
0.773714
0.071212
0.855461
2.48676
0.304857
0.671135
0.944671
0.208992
0.0684316
0.0967831
0.459055
0.768811
1.15299
1.34458
1.41234
0.0403228
4.93702
4.71874
0.102741
0.226858
0.280534
0.552267
1.75313
0.272612
0.095336
0.115099
0.590215
0.326635
0.303198
0.805771
1.5987
1.77108
0.326381
0.699259
0.385298
0.536783
1.23433
0.206132
0.160598
2.86815
1.70117
1.63693
2.65214
0.315301
0.267288
1.65467
2.50202
0.507825
0.387097
0.188038
0.0735629
0.103579
1.70685
1.92266
0.258548
1.36421
1.2386
1.18452
1.65041
0.459342
0.559598
0.224083
0.483744
0.0467072
4.77609
0.107521
0.718314
2.14314
0.207187
0.321991
3.98384
0.101191
0.422358
0.278416
0.329104
0.361575
1.59774
1.60774
2.12943
0.261101
0.988058
1.15834
0.293532
0.816653
0.988515
0.107532
0.0957246
0.31895
0.317635
0.346994
1.07924
0.164749
0.0651345
0.09602
1.78339
2.10861
0.393567
0.0506487
3.68573
3.05525
0.771281
0.0776283
1.35296
0.664551
0.889319
0.263482
0.0545832
4.60538
0.111929
0.111148
0.169232
3.63714
2.16195
1.01491
0.39584
3.42243
1.89352
0.770854
0.544368
0.493631
0.18904
0.325231
0.0924616
0.127108
0.119254
0.420205
3.0631
1.25014
0.382047
0.356048
0.460092
3.44145
1.49573
3.8344
3.23355
1.12967
0.297671
1.40241
0.0799061
0.0717446
1.30734
2.05486
3.12706
3.23966
1.11302
1.95622
1.12899
0.768535
0.675793
0.159343
0.194062
0.166829
0.0677302
0.0912176
0.127105
0.104242
0.139606
2.49883
2.68229
0.4916
3.66413
1.05249
1.62938
0.62198
0.553243
0.796677
0.460996
0.678364
0.370785
0.181324
0.227252
2.48823
0.392284
0.315547
0.12982
1.68905
0.703576
0.551542
0.601404
1.47827
1.50104
0.7262
1.1071
0.434751
1.16756
0.519464
0.211003
0.0549741
0.0487085
0.154413
0.254176
3.76261
0.218382
0.087675
0.105525
1.28518
0.133462
0.826701
2.65685
0.120315
1.88428
0.0949585
0.103392
0.317843
1.46858
1.8133
0.979601
0.0772457
0.698486
3.90611
1.92921
0.149571
0.771003
0.23499
0.906535
2.23959
0.596838
0.0825048
0.322535
0.238713
0.0963715
0.381565
0.791558
0.222377
0.320151
1.00231
1.21299
0.591789
0.712441
0.571884
1.35038
0.916614
0.67957
0.650736
0.577146
1.08404
3.27397
0.127456
3.35262
1.2588
1.74531
0.893814
0.834614
4.07139
0.906397
1.24369
0.0649671
2.10866
0.370175
0.413862
0.0474465
0.0242586
2.32616
1.0479
1.75078
0.835373
2.44731
2.01023
0.217296
1.87846
0.626574
1.38085
0.599522
1.04796
1.4417
0.143715
0.0609849
0.0940072
1.18289
1.68302
2.61871
0.378967
0.0530876
3.41676
0.557678
1.99556
3.5731
3.37808
3.53351
2.07333
0.0463991
0.61622
0.921388
1.03467
3.36528
3.59084
0.209779
2.12711
0.995711
1.11868
1.84527
0.254227
2.35072
1.9648
2.69683
0.329668
0.150025
1.49366
2.08976
0.409812
0.722354
1.88209
2.87314
0.608131
0.140222
0.70892
1.41421
2.77496
0.426815
0.960736
2.90824
0.612502
0.193571
0.722016
2.46466
3.54943
1.13392
0.462673
0.102105
0.0683685
1.45112
1.7341
1.81179
3.15457
1.51035
5.47287
0.213095
0.904547
1.42374
3.43129
0.415365
1.89837
1.04872
0.211232
0.0878744
0.833478
0.0664379
0.172745
3.83978
3.60363
3.80926
1.8055
4.41169
1.15687
0.954668
0.573885
3.23741
4.05792
1.6219
8.42723
0.202267
0.168964
1.11129
3.50736
0.449894
1.20098
0.914679
0.686364
0.230361
1.19217
0.401676
0.0792202
3.10567
0.067414
1.75021
0.0728428
2.20626
0.138673
1.00247
1.08325
1.74768
0.471879
1.3265
3.23516
1.29077
0.0471699
3.99328
0.269843
0.160969
0.137216
0.030022
0.174387
1.91535
2.79006
3.49385
0.629082
2.3541
3.93372
0.122745
1.16257
0.163956
0.536993
0.144551
0.0645185
3.19255
1.5925
0.206162
0.200408
3.99987
0.252892
0.431154
0.446862
0.113573
0.850998
0.223303
2.67343
0.303315
1.9944
0.078492
0.307573
0.375025
3.65651
0.679689
3.7007
1.93665
0.196427
0.556259
1.69269
0.338513
0.0724587
3.45842
0.181034
0.106122
1.75479
0.312227
3.79263
0.0898596
3.82101
2.24241
0.0558124
1.51892
0.40125
3.77136
2.18371
0.407675
0.592293
1.04536
2.89571
0.359632
0.292487
0.273007
0.524519
0.0632373
0.0689419
2.5519
1.3802
1.23971
0.356398
2.51369
0.334182
3.49779
1.48248
0.431563
0.205154
1.69217
2.47459
0.11523
0.0259442
0.0488764
2.26305
0.82525
2.39223
0.344672
0.375177
2.47682
3.68534
0.151872
1.0108
3.13294
1.99635
0.783791
1.89021
0.0292048
0.917762
0.607975
0.145575
0.0625617
0.084933
0.832645
0.152559
0.805213
1.42561
0.200835
3.51915
1.06759
1.12597
1.55924
1.8213
0.260778
1.10458
0.111778
1.54436
2.10938
1.40077
1.35149
0.125571
0.0558209
0.0870603
1.3761
0.477219
1.85417
1.25096
0.46054
0.972847
4.66412
1.25676
3.62681
0.0275142
2.68021
0.0837874
0.253884
0.915583
1.33398
1.2103
0.201844
0.28075
1.34518
1.61071
0.0949791
0.216342
2.1832
3.01718
0.944867
1.35405
1.00998
3.36459
5.44912
1.82627
0.21913
0.779262
1.09937
2.27285
1.78218
2.88809
0.205672
0.899322
0.732775
1.19443
0.550545
0.944913
0.501555
0.731426
0.0318287
1.44446
1.39146
0.126484
0.994797
0.0772128
1.0002
2.04373
1.05049
0.074269
0.306084
2.34273
1.8991
1.57789
0.891333
0.389217
0.127147
0.0479761
0.0624027
0.0903272
0.218634
1.62945
0.0723501
0.765455
2.74853
0.253871
0.183331
0.23129
0.304767
2.57814
0.110863
0.0581953
0.0605633
0.132998
0.937634
0.453385
0.239801
0.0979758
0.353578
0.0743346
0.0795118
1.21612
0.985898
0.229882
1.23805
0.584587
0.24768
1.27678
0.977154
1.90055
0.111937
0.0293054
0.0247503
0.115739
0.128104
2.32638
0.223387
3.83897
1.97399
0.948008
2.16623
0.117117
0.238347
0.378174
3.38517
1.15387
1.0957
0.126576
0.05752
0.0771871
0.198866
0.0808445
3.53477
2.07128
0.488917
0.636048
0.0452271
0.241597
0.106414
0.523797
0.157174
2.69719
2.66229
2.40851
3.08991
0.0284834
0.117719
0.761947
3.70182
0.532175
2.64008
0.730877
1.46196
0.0791726
0.247102
0.067454
1.31549
1.38249
0.743148
0.79462
0.162972
0.211848
0.760832
0.0798008
0.254012
1.22755
2.30374
1.66405
0.37249
2.52864
0.493259
1.72907
0.703263
1.56098
0.622785
0.847592
0.121194
1.86822
3.54413
3.56226
0.433436
0.0768146
0.112041
0.0298358
0.0822343
0.101713
0.560683
0.406711
1.12806
2.52627
0.143031
0.16493
2.74014
0.259432
0.599847
0.685787
2.31235
1.62513
0.666044
1.12873
1.06727
0.256774
0.332161
0.21375
0.509866
1.52807
0.0566074
1.24723
1.29607
0.145733
0.781278
0.0726674
0.0613745
0.0472534
0.0595849
0.058808
0.0279828
0.135176
0.158522
0.28272
0.0867319
0.0276105
0.047176
3.99809
2.70627
0.359069
1.7458
0.31367
1.32724
1.17508
2.34754
1.62227
2.25387
6.08872
0.588431
1.76791
2.00535
3.67096
0.702752
0.0545381
0.0542645
0.121066
0.0537497
0.0578281
0.264314
1.10868
1.78455
0.0269636
0.0278303
0.129288
0.839213
0.327613
1.94924
0.128005
0.0483881
1.4719
0.320507
0.463313
0.333899
0.269257
0.0894511
1.25935
0.475346
3.27204
0.0989772
0.4746
4.50986
0.423911
0.953693
2.84495
0.0281415
0.0506957
0.173393
0.0656423
0.0550816
0.0736801
0.0656284
0.155452
0.287269
0.423738
0.187943
0.117549
0.897852
1.59343
2.70706
0.0526378
0.187263
0.0527635
1.09368
0.471899
0.356281
1.68176
2.10715
0.105166
1.22788
0.895825
2.03462
3.3064
3.47424
1.45767
0.912207
0.228904
0.907362
1.97208
3.05883
0.293757
0.0277177
3.45674
0.210388
2.87589
0.736999
0.216529
0.365031
1.54514
2.45244
0.0657729
0.0771685
1.26947
0.578044
0.269248
0.22062
1.26306
0.906975
4.05232
0.22366
1.94474
0.106405
0.0535353
0.0676577
0.0178709
0.0833598
0.0153897
1.96829
0.10054
2.04565
3.16326
1.11537
1.7825
5.41633
0.272535
0.20386
1.67677
0.989137
0.917818
5.98964
0.25505
4.1723
0.103529
0.0507993
0.0762609
3.39893
0.188322
0.0933172
0.0497465
0.0611945
0.213861
2.46724
1.85812
0.643109
0.351094
0.491867
3.58963
1.15201
0.568836
1.634
1.10831
0.362716
1.79747
2.09661
2.15244
2.5172
0.0580271
0.174165
0.12252
1.41188
0.104195
1.58738
1.59499
0.748017
1.48914
0.915673
1.77552
0.195365
0.0693051
0.143554
0.0813677
0.203871
1.74608
0.974004
1.48886
0.474009
0.351497
2.82469
2.33548
0.421457
2.29557
0.975202
0.0531117
0.141026
0.0772683
3.93181
0.509014
2.93051
0.440468
0.110024
0.335619
2.42577
2.26792
0.210355
0.320936
1.09509
1.8328
0.0978043
0.0429435
0.167809
0.413647
2.34782
0.268162
1.32766
1.62113
1.65309
0.750689
0.299187
0.218115
1.0712
1.48065
0.428356
0.104923
0.392482
0.0409114
1.96428
0.0319889
0.427622
2.31231
1.58899
0.818012
2.12848
0.0828316
0.249178
0.289242
0.0481916
0.480719
0.0588264
0.023275
0.0728872
0.632539
1.99472
3.55744
1.42504
0.573904
0.0202938
0.11085
0.0540143
0.0145424
0.0313087
0.0225703
0.471885
1.70507
0.474963
0.346062
0.592423
0.907441
1.43383
0.558392
0.124502
0.0370393
0.190162
3.97986
2.78611
1.13173
0.156078
0.0277716
2.04482
0.125598
0.35967
1.54339
0.729403
0.389525
3.3443
0.49568
0.460248
0.204165
3.82489
2.05971
0.165707
1.50669
0.0295179
0.144174
1.65431
0.414883
0.0520388
0.0401579
0.165105
0.16884
0.082802
3.69081
0.968822
0.252046
1.54127
0.92548
0.688703
2.24658
2.18572
0.31549
3.89615
0.0289594
0.615152
0.0491354
0.550101
1.37816
0.0571541
0.389897
3.01668
0.196976
0.601409
0.0318478
0.183315
0.592505
1.45002
1.30155
3.01256
0.404731
2.45601
0.118656
0.478334
2.11191
0.210634
3.23099
0.446064
1.39277
0.433285
0.222748
1.79408
0.766394
1.44059
0.121289
0.0418026
0.054973
1.38379
0.625196
0.190818
0.244129
0.485676
0.515526
0.0553018
0.0278233
0.165612
0.896777
2.78354
0.098119
0.0357493
0.350117
2.43652
0.521759
0.421488
0.172444
1.5779
0.404742
0.215202
0.429874
2.30459
0.0222568
0.794535
1.23297
2.04673
0.736725
0.769749
0.530323
0.169749
0.0604243
0.0544945
0.176623
0.0612583
0.200221
0.306411
2.50081
0.253936
0.912464
3.22096
1.16103
1.21252
0.593544
0.267825
0.816509
0.522431
0.49188
0.133515
1.60212
3.69761
2.07978
3.15651
1.45547
0.638521
0.838466
0.614466
0.352073
0.0178568
0.034613
2.04367
0.499697
0.125227
1.86389
2.17993
0.1901
1.03491
0.737503
2.55816
4.62931
3.09977
0.126795
1.43562
0.0608692
0.128307
0.0524919
1.62064
2.70116
1.3764
0.0786092
0.306095
3.17188
0.259693
0.0500939
0.0796152
2.1057
0.571302
1.88794
3.97405
1.30954
0.0657918
0.0645568
0.906023
3.00492
1.84589
2.37177
3.29214
0.675363
0.0966491
3.25031
1.98004
0.0510729
0.0436641
0.0932906
0.0579469
0.0412963
0.193757
3.87824
2.24421
0.0550988
1.58927
2.70634
0.187986
2.74336
1.74223
2.8582
0.263047
0.532877
0.450287
1.15818
0.702551
0.421033
3.47279
3.34413
1.13456
2.01117
2.34692
2.33824
0.327017
0.0903663
2.3362
2.45642
0.266846
0.449833
0.0361488
0.0248058
0.510177
1.1887
2.05936
0.512866
0.114172
2.52501
0.0680032
0.139383
0.0630538
0.0920822
0.0358468
1.6882
1.8035
3.67891
0.225269
3.38858
0.028278
0.198234
3.51238
1.8216
1.79927
1.42518
0.302153
3.30966
1.90651
0.126021
0.215187
0.44763
0.45879
0.19228
0.958507
0.904967
0.536087
0.590106
0.872918
1.18868
0.320435
1.15266
0.0274567
0.120664
1.30721
0.533643
0.362676
8.96779
0.309646
1.98036
1.83956
0.0514019
0.0545165
0.0450903
0.119243
1.98099
1.50287
2.058
0.265949
0.725706
0.229753
0.819665
0.617954
1.13404
0.220382
0.256688
0.364402
0.103339
0.024598
0.0176879
0.0665789
2.08131
1.95038
0.37173
0.105821
9.47681
2.83906
3.10778
1.21144
0.183033
0.890102
0.239339
0.4824
1.1816
3.13624
0.126152
0.163497
0.0710227
2.92354
0.551156
2.03883
0.106799
0.475918
0.984255
0.478198
0.0641927
0.041973
0.0280775
0.0591591
0.280637
2.11166
2.7117
0.234443
2.25023
0.954683
1.72863
1.97717
0.455053
1.97688
0.603224
0.623244
1.16438
1.53196
1.43341
0.0558138
0.0495572
1.52607
0.187322
0.331542
0.232801
1.19046
0.53776
0.527511
0.0379492
0.518625
0.0385109
0.528248
0.503215
0.508797
0.509201
1.06012
2.89519
0.567609
0.0878364
2.11537
0.551454
0.0535307
0.0546949
0.0712287
0.352152
0.195134
0.384873
2.57974
0.187836
0.226003
1.10232
0.0348805
1.29547
0.0561231
0.200925
4.25234
4.45945
0.104415
0.0523149
0.0397704
0.0810267
0.138525
0.071216
0.133887
0.0557762
0.061324
0.110198
0.0425472
1.34158
0.336862
0.141259
0.577119
1.76129
0.495263
0.619616
0.0758816
0.540841
1.95793
1.89191
0.72642
0.0476042
1.76653
2.27804
2.20611
2.31178
0.53187
0.256815
0.0246617
0.0617788
0.926891
2.92472
1.26642
0.194417
0.725504
0.263106
0.149573
0.246039
0.317595
3.1619
0.486335
2.42978
0.0449999
0.263699
2.64896
0.864993
0.363021
0.505864
0.405551
1.46987
1.38832
0.999009
0.363202
0.196617
0.201933
0.18525
0.236172
0.326362
0.180882
2.9363
2.41127
1.87391
2.3637
0.889157
0.219083
0.69714
0.163881
2.09168
0.819195
0.96544
0.402531
3.51145
0.257715
1.33254
1.64801
0.09512
0.131079
0.31773
3.78635
2.5463
1.2171
3.67413
2.24976
3.7714
0.414926
0.646535
0.033702
0.237083
0.390674
10.7135
3.60382
0.47974
2.50013
0.877264
0.297536
0.04212
0.587196
0.10256
0.112382
0.0540696
2.13074
1.04342
0.83034
1.77277
1.24698
0.0312109
0.158829
0.0585577
0.557229
0.751679
1.22531
11.2511
0.539049
0.320633
0.0340753
0.966058
3.15083
1.42518
0.35762
0.544634
0.0649898
0.344923
0.225101