/*--------------------------------*- C++ -*----------------------------------*\
| =========                 |                                                 |
| \\      /  F ield         | OpenFOAM: The Open Source CFD Toolbox           |
|  \\    /   O peration     | Version:  v1912                                 |
|   \\  /    A nd           | Website:  www.openfoam.com                      |
|    \\/     M anipulation  |                                                 |
\*---------------------------------------------------------------------------*/
FoamFile
{
    version     2.0;
    format      ascii;
    class       volScalarField;
    location    "0.46";
    object      epsilon;
}
// * * * * * * * * * * * * * * * * * * * * * * * * * * * * * * * * * * * * * //

dimensions      [0 2 -3 0 0 0 0];


internalField   nonuniform List<scalar> 
1431
(
138.172
50.6274
3.5475
7.2431
2.76799
39.7905
1.33694
317.574
54.9846
2.37266
69.3044
228.584
20.3369
2.7773
19.6954
3.91842
5.0551
9.33749
3.23254
12.4655
138.376
3.38533
69.2686
208.969
64.1235
11.9044
48.0511
5.31258
83.6471
41.5072
33.8435
43.464
31.0741
1.84409
36.3722
13.7659
72.2266
8.6245
4.06955
36.8058
83.666
87.0755
16.1407
3.97149
76.1461
3.85999
15.8924
40.9547
1.17761
7.07079
29.0838
4.42134
31.3175
238.439
50.054
19.8733
3.24423
253.969
22.6579
30.4518
5.88258
2.723
11.4099
10.0428
5.08282
1.75786
9.66867
4.4712
3.62272
4.67086
231.499
2.41801
9.13746
1.7085
3.38545
3.24881
3.40876
9.84758
6.62976
6.17028
7.19248
9.92026
181.544
24.9883
107.373
7.58659
21.1854
37.3201
150.596
200.401
55.8893
7.07451
7.84847
6.92152
57.8103
47.1767
254.223
127.618
2.74241
20.7272
27.9829
2.63956
11.9382
10.6928
8.8742
51.8083
63.1439
90.7012
69.701
16.6156
19.6309
25.2152
4.58954
84.8104
59.5557
2.33581
3.0931
9.25491
10.698
12.1452
6.13363
34.2649
167.063
4.01932
186.282
13.6119
3.0566
17.4571
3.72068
35.2328
4.40066
13.2029
27.4164
6.79741
23.4808
6.57898
6.96235
1.73355
116.589
9.7837
4.91464
28.6869
13.5207
6.85135
86.0566
31.2848
9.06091
28.9625
8.08433
5.22093
8.42898
3.72152
39.3663
10.1083
53.4563
6.95703
104.483
58.9896
199.783
13.731
144.861
22.8361
4.37739
14.5954
133.742
107.424
93.7533
69.3682
7.02814
101.373
166.316
30.1834
33.4878
116.079
59.8495
106.112
24.4739
55.7998
31.4847
35.7274
1.5854
4.00449
29.7297
350.912
51.4071
109.868
126.994
70.3801
36.1776
139.517
28.0967
40.6417
40.7757
109.43
10.2188
61.8631
107.322
32.8553
3.28084
117.424
34.4188
6.57495
51.263
27.5183
23.2483
30.661
57.7693
3.93727
134.18
67.1965
132.001
3.3575
60.5795
53.6439
116.095
33.1233
44.3233
32.037
28.7718
44.4947
51.7544
29.1081
59.6509
10.4951
57.2251
178.066
72.0703
116.618
49.1416
33.3081
298.917
32.5576
49.4993
37.8579
44.4832
176.869
57.2943
51.9882
27.4242
27.304
19.6895
37.1017
151.46
41.0285
38.7841
16.1278
46.5672
55.095
55.1311
6.89023
14.3174
116.134
12.1282
2.40361
29.1386
69.9103
10.5458
218.948
144.319
43.9241
46.9429
113.282
29.6296
21.4543
63.9906
56.27
44.036
151.323
39.2302
2.79634
78.2725
51.9361
43.874
22.3679
134.492
33.8844
126.484
33.1973
74.789
74.2135
31.8308
55.9597
31.5519
22.9194
35.433
157.561
73.9902
136.385
124.285
44.399
3.40548
50.9337
101.059
23.95
28.4271
49.4213
148.465
125.067
26.2745
85.0724
31.1306
15.6936
36.8391
15.9949
52.9318
8.93154
51.7146
43.2883
81.6865
84.7842
59.199
22.8542
2.08468
82.2017
48.9414
90.5018
33.8701
41.9614
1.70446
542.157
45.067
76.3709
14.4865
21.8279
35.8524
5.81065
19.5165
59.0843
221.441
2.88827
117.833
2.31379
56.6708
3.48393
17.4513
15.9628
58.003
174.488
37.711
99.5325
12.3083
16.1673
42.9372
78.1833
51.6183
37.2779
40.1385
126.634
47.4674
20.6378
48.5863
4.83839
24.9736
43.5239
4.71345
26.797
133.454
100.281
105.673
79.0603
4.59655
91.8949
99.5922
30.1796
2.02235
79.8109
60.0432
436.911
50.5203
26.5874
68.2799
3.5825
169.932
35.406
72.5195
281.48
49.3563
22.7512
5.37994
342.66
27.3026
41.2047
31.3036
6.37926
579.555
45.1033
35.2798
56.117
33.6214
35.0133
22.2906
35.6395
35.1779
7.27268
152.22
27.4332
35.1511
37.1835
65.0509
37.9471
42.8627
67.7978
113.126
66.3864
8.59866
35.7749
42.7108
36.1858
30.7631
35.009
50.2231
34.0505
34.6599
10.6827
53.2032
9.11677
37.4317
45.6513
35.4902
34.5016
63.3878
17.2631
24.9484
39.8447
34.5743
4.7103
5.46471
5.75949
4.18575
162.787
34.4414
41.5316
45.2751
47.2623
45.9423
40.5478
36.3101
42.0018
34.7389
39.4701
3.44671
118.495
3.39398
2.95934
4.1935
1.49227
1.94403
1.86119
23.1506
5.44696
6.11333
6.64827
1.20812
15.9777
1.20942
1.22027
6.57089
204.872
20.4103
5.51136
5.69617
6.74538
196.088
1.36939
7.13935
7.18662
13.3638
192.837
6.52685
188.983
3.80579
4.75394
5.9367
5.24571
119.204
110.252
5.31906
7.12735
1.89232
6.49933
4.20863
2.76895
125.062
8.38565
6.38481
3.91815
4.42226
4.66564
3.51779
6.97468
139.661
6.29251
3.65215
6.24863
3.69853
3.56733
4.12112
145.796
4.98851
59.0397
7.10348
6.08118
40.52
10.6513
139.233
115.456
3.2557
7.11596
5.0238
21.5305
6.26875
9.37398
2.59775
3.91744
15.628
3.32695
6.46202
5.96134
15.1033
122.627
45.3623
7.71673
58.5282
5.62664
6.04179
7.48186
131.785
36.5218
4.19074
30.9764
39.5801
22.038
11.2009
65.645
41.7991
4.22813
29.4629
154.639
6.42013
10.3869
31.1948
9.2396
88.4476
15.2524
80.2391
26.7613
32.5942
124.853
33.0762
49.2523
35.1959
8.26378
64.0521
36.3362
7.61487
83.9626
8.88985
7.7087
135.511
197.327
49.4277
115.597
74.9084
17.1911
345.516
18.373
28.1451
12.5546
7.44835
61.8994
31.0482
49.6582
31.4444
12.3577
30.4253
32.152
4.67676
181.929
23.1471
37.4026
30.7448
44.6881
71.2474
35.4833
38.2005
47.2125
36.6759
20.1213
35.3809
32.4724
12.6495
304.641
27.4682
31.6559
59.7139
35.2473
5.07308
35.4859
87.547
122.945
120.475
10.5971
37.919
19.8838
32.2883
44.3672
70.0905
39.4632
13.2232
2.30414
6.03981
14.5462
34.4639
21.9008
81.8894
57.7857
154.555
15.4443
5.77651
35.3572
71.1853
40.7234
27.3154
36.0528
15.5721
46.0275
40.4628
8.56636
36.1154
25.795
17.5967
27.2239
3.46824
28.6001
31.574
32.3608
265.27
25.5941
87.2756
32.0985
68.325
93.0845
16.8269
37.7895
237.712
13.496
31.4284
34.628
197.473
41.8927
6.73995
66.9383
154.088
34.5499
2.77627
38.8762
59.8406
43.4857
5.05384
156.69
153.845
39.8413
15.1166
22.0406
8.67538
31.8401
13.4007
4.43567
29.4673
7.86798
34.56
83.09
169.367
36.9011
6.20992
13.7891
170.412
4.14818
66.1627
27.4171
34.5853
23.9354
39.5517
175.107
8.03845
4.88642
13.2252
75.0106
3.18756
152.513
80.4266
43.0358
83.3776
131.534
101.117
50.2571
330.271
50.9797
91.0654
54.6294
255.373
34.2565
30.6554
114.359
189.536
174.541
128.775
293.831
35.7093
40.4544
73.8432
31.1233
34.4817
54.8734
5.13645
90.9838
8.61313
96.2126
17.9916
79.8412
91.8451
32.3771
113.053
25.7829
11.1321
97.2373
73.6796
13.0901
83.7684
100.62
7.75761
131.232
10.4823
19.2266
106.204
37.1315
77.0564
364.221
184.261
10.2412
53.0694
61.7454
22.7274
74.2414
24.2938
48.5534
8.69713
14.6846
79.2077
1.79993
7.94897
28.141
49.0708
2.03914
270.887
76.2139
59.0882
5.3883
46.4093
61.5787
273.796
143.818
44.2438
1.33242
10.2846
65.6143
4.11931
1.58386
38.3635
23.7055
10.3427
50.8514
74.8786
68.9715
62.1971
30.8727
74.4188
22.6193
45.5746
45.228
36.0263
8.0634
26.4337
6.05906
182.138
106.05
55.2389
33.8904
34.3548
34.7699
44.9699
9.43336
55.5945
43.5791
50.1169
84.0216
8.76123
44.0109
6.56588
22.977
37.4516
5.5515
24.3457
29.5245
24.3645
482.439
47.4176
42.3842
20.2439
53.486
410.927
31.7573
32.2023
108.166
62.415
219.177
12.5143
3.38792
57.8735
71.3426
2.50369
60.1556
29.0016
34.8313
217.109
54.7122
63.6433
28.1111
3.38063
4.50099
47.1642
385.281
204.013
36.3665
38.0938
221.3
36.3795
56.1184
30.78
18.4329
25.3416
6.60232
6.896
51.6447
34.5218
173.276
7.78989
273.618
25.1969
117.069
50.9559
27.5825
11.1254
27.5795
6.79032
7.35841
37.6465
55.399
3.57697
7.09327
28.4001
37.7943
67.8652
32.2506
20.1797
43.2703
18.0244
10.1917
122.542
40.4758
32.9385
398.82
48.0079
118.972
17.9318
25.9274
1.2406
146.242
41.9473
104.638
198.802
8.05278
88.2089
118.702
376.26
256.753
360.936
56.3595
73.2914
78.5282
86.6765
82.824
57.283
70.5454
59.2057
54.7218
58.0052
57.4222
53.4495
59.677
52.0419
47.7745
49.8294
48.0624
70.8794
71.0311
46.3826
70.6104
68.4181
46.127
64.9566
14.1953
76.9054
6.74815
4.72813
49.6301
2.91665
3.92132
192.634
51.1078
26.1452
3.25981
60.4728
15.0144
263.202
3.70237
2.40772
96.9213
62.1465
21.2935
11.0592
24.154
242.954
1.96671
61.4077
35.1804
36.2614
17.5432
7.3097
101.695
35.5974
12.0275
14.412
61.1444
19.1677
19.4114
88.3914
5.8069
4.02856
3.96918
4.84548
27.2951
80.9298
41.9379
5.26827
32.523
6.52476
13.3545
24.9471
9.54495
26.7452
104.492
29.8266
34.3083
123.262
7.77852
6.85746
14.7598
61.3916
6.74505
41.4528
32.6859
45.0118
238.881
2.66139
5.96749
7.10532
12.7208
1.357
612.229
39.0099
50.1571
4.04565
265.524
40.3481
167.242
1.76597
11.014
11.5577
5.03943
4.80221
33.5132
48.122
247.514
133.619
61.0945
39.8988
4.6645
54.1679
2.97767
57.7855
35.4044
25.7608
62.2516
55.7443
25.4506
65.1094
75.9342
9.7352
7.13987
5.61114
82.7826
76.9743
9.76618
35.945
39.25
34.5948
16.0789
35.593
35.5881
109.365
253.385
1.31712
86.8295
42.7351
16.6999
40.9311
285.365
42.4804
49.8545
31.539
125.169
112.172
15.3446
3.8752
46.3551
34.8152
402.395
125.787
64.3815
35.8023
34.2087
82.5306
19.5408
54.037
32.511
208.623
69.1082
255.157
106.889
53.0225
5.3225
39.081
18.9013
6.95772
12.0569
12.9662
8.45575
36.2261
62.6408
39.9206
12.6879
57.0485
125.653
7.24414
3.83306
24.7384
316.395
41.7105
289.383
62.8659
29.2473
344.907
59.4984
401.079
393.201
397.31
264.642
265.86
246.534
383.21
218.044
1.61686
8.70335
5.94113
1.77607
3.35385
4.96569
24.4896
27.0686
49.8403
66.6976
56.4448
44.0088
3.92524
22.7182
7.08404
1.17763
32.7414
5.45325
43.9381
68.7032
49.2606
40.1778
3.77971
132.049
35.049
52.4645
38.4076
31.0261
18.963
36.5796
503.568
44.8263
9.1298
43.0165
98.2248
6.47672
27.3834
105.331
6.95377
47.9472
2.56601
10.792
7.71098
47.8401
11.155
20.4896
2.19337
4.42918
5.26629
3.86197
114.914
68.9065
8.53546
3.56871
25.6776
105.521
7.4896
114.402
152.534
42.3745
144.74
20.7741
34.7893
39.098
109.347
15.0787
36.8111
66.8505
100.216
57.0153
46.9341
52.585
8.49646
8.0715
61.2182
24.9016
30.5229
84.8441
155.555
125.364
145.663
34.368
36.4749
70.9009
7.43746
5.06526
3.9682
8.29472
7.01611
179.749
27.773
4.30004
102.552
33.7574
3.43788
50.5828
5.98023
62.4541
92.9294
37.1896
37.7695
7.10147
80.223
74.3729
136.93
57.3784
261.388
3.72956
4.75292
3.38314
246.974
192.475
106.607
52.4366
52.9387
2.55757
264.905
2.63156
39.7961
3.30419
3.9675
6.94586
57.2472
3.47958
71.1599
57.0474
159.146
2.17277
31.7061
13.2638
3.17002
3.51883
4.70704
60.3986
167.062
8.72721
46.3801
109.381
37.9579
24.2908
34.8852
35.508
4.54741
3.38166
9.75397
39.2204
407.968
35.0905
507.681
55.7627
52.1098
35.2865
91.1964
34.1487
1.56258
20.3419
10.5015
143.851
14.282
99.6884
134.052
72.84
4.8402
35.9084
2.67526
5.37665
34.4205
135.711
60.2467
148.284
48.1601
10.2153
33.9803
36.1729
16.8237
27.5829
7.09014
3.00301
4.23792
35.0851
301.546
34.394
35.4158
7.84357
5.84077
34.5757
34.5437
24.4331
404.645
49.3667
53.2435
102.967
1.84276
35.7071
39.486
28.4211
98.3557
56.0698
88.2387
45.3571
80.7161
25.0462
72.6274
34.3064
50.1051
273.057
26.3666
6.00078
5.23965
37.5314
58.2754
34.3388
59.5827
6.11117
221.034
8.62412
4.276
6.71593
424.202
36.5724
44.4607
6.70532
8.94372
184.047
59.2861
205.043
8.84634
8.2323
44.616
332.506
13.3929
357.137
202.413
7.14808
63.4749
124.873
233.016
61.3749
187.679
47.2406
7.8947
81.1293
61.0912
2.61092
91.6426
18.073
114.189
319.591
269.342
23.8796
3.69353
26.5718
132.465
12.9774
26.5714
45.0877
213.613
1.22398
37.8884
6.69033
150.078
56.1181
53.2414
5.19023
2.82377
11.9154
187.942
290.605
9.29959
36.8349
3.80842
5.44132
28.2803
40.6121
2.73766
43.6106
3.51587
36.6559
35.3129
42.6424
195.839
41.781
7.41376
50.3706
27.8359
2.84311
10.9506
44.9834
2.96798
6.82987
29.564
33.1603
43.0944
9.28124
4.89336
190.775
145.435
89.4495
15.6747
5.83015
3.67051
6.68715
50.0557
7.43321
5.05952
7.37275
9.47107
2.31623
3.50378
160.387
51.4755
26.2796
28.5287
73.3002
127.846
34.3048
3.24075
1.87117
66.6207
112.973
143.433
6.15045
6.24187
8.94764
17.9952
5.41948
14.7575
39.0223
22.7849
10.5189
81.834
112.053
73.8951
88.5031
5.1471
95.9985
17.2667
65.3649
138.622
9.1849
19.2303
46.3109
193.607
5.87255
8.60987
39.4928
68.3201
62.9145
3.36256
)
;

boundaryField
{
    frontAndBack
    {
        type            empty;
    }
    wallOuter
    {
        lowReCorrection 0;
        type            epsilonWallFunction;
        value           nonuniform List<scalar> 
96
(
83.6471
41.5072
47.1767
169.367
170.412
175.107
152.513
131.534
101.117
330.271
91.0654
255.373
114.359
174.541
293.831
364.221
184.261
53.0694
74.4188
182.138
84.0216
217.109
54.7122
385.281
204.013
56.3595
73.2914
78.5282
86.6765
82.824
57.283
70.5454
59.2057
54.7218
58.0052
57.4222
53.4495
59.677
52.0419
47.7745
49.8294
48.0624
70.8794
71.0311
46.3826
70.6104
68.4181
46.127
64.9566
61.4077
80.9298
41.9379
61.3916
41.4528
238.881
61.0945
65.1094
86.8295
42.7351
42.4804
402.395
34.2087
19.5408
208.623
316.395
289.383
344.907
59.4984
401.079
393.201
397.31
264.642
265.86
246.534
383.21
218.044
1.61686
8.70335
5.94113
1.77607
3.35385
4.96569
44.0088
49.2606
47.8401
46.9341
261.388
60.3986
407.968
404.645
88.2387
45.3571
13.3929
187.679
319.591
26.5718
)
;
    }
    inlet
    {
        type            fixedValue;
        value           nonuniform 0();
    }
    outlet
    {
        type            zeroGradient;
    }
    wallInner
    {
        lowReCorrection 0;
        type            epsilonWallFunction;
        value           nonuniform List<scalar> 
126
(
22.6579
30.4518
5.88258
2.723
11.4099
10.0428
5.08282
1.75786
9.66867
4.4712
3.62272
4.67086
231.499
2.41801
9.13746
1.7085
3.38545
3.24881
3.40876
9.84758
6.62976
6.17028
7.19248
9.92026
20.7272
2.33581
3.0931
9.25491
10.698
12.1452
6.13363
34.2649
167.063
4.01932
186.282
13.6119
3.0566
4.40066
13.2029
9.7837
4.91464
13.5207
6.85135
9.06091
5.22093
3.72152
10.1083
133.742
1.5854
109.868
126.994
10.2188
132.001
2.79634
74.789
74.2135
3.40548
148.465
125.067
85.0724
15.6936
22.8542
2.08468
82.2017
5.81065
19.5165
117.833
99.5325
12.3083
100.281
91.8949
99.5922
36.1858
45.6513
10.6513
15.628
30.9764
154.639
9.2396
124.853
8.26378
135.511
30.4253
181.929
35.3809
304.641
120.475
27.3154
3.46824
237.712
154.088
189.536
128.775
61.5787
118.972
146.242
26.7452
155.555
23.8796
3.69353
66.6207
112.973
6.15045
8.94764
17.9952
5.41948
39.0223
10.5189
81.834
112.053
73.8951
88.5031
5.1471
17.2667
65.3649
138.622
9.1849
19.2303
46.3109
193.607
5.87255
8.60987
39.4928
68.3201
62.9145
3.36256
)
;
    }
    procBoundary3to1
    {
        type            processor;
        value           nonuniform List<scalar> 
48
(
77.9654
89.3382
89.1156
89.3315
64.375
105.768
89.3382
6.00939
45.187
10.5519
10.5519
11.5157
11.5157
4.83117
7.37258
9.63382
4.44529
5.10302
4.44529
3.21161
3.6943
3.70087
3.21161
70.2563
8.06555
2.75716
3.99793
3.70087
4.21272
12.2372
12.2372
4.71447
4.71447
45.187
2.42743
58.435
10.3668
8.06555
65.882
52.1908
4.83117
21.6484
33.1209
3.21161
9.40981
80.3964
61.5251
3.95612
)
;
    }
    procBoundary3to2
    {
        type            processor;
        value           nonuniform List<scalar> 
29
(
5.03066
5.03066
1.24081
1.94763
17.7462
3.54229
9.30796
4.16787
1.28747
1.32448
3.53481
12.4196
5.44896
4.11476
2.36043
4.75239
1.283
1.16059
3.92301
3.28628
2.60285
1.283
1.86109
1.16059
2.12907
1.5077
1.16059
11.1251
11.1251
)
;
    }
}


// ************************************************************************* //
