/*--------------------------------*- C++ -*----------------------------------*\
| =========                 |                                                 |
| \\      /  F ield         | OpenFOAM: The Open Source CFD Toolbox           |
|  \\    /   O peration     | Version:  v1912                                 |
|   \\  /    A nd           | Website:  www.openfoam.com                      |
|    \\/     M anipulation  |                                                 |
\*---------------------------------------------------------------------------*/
FoamFile
{
    version     2.0;
    format      ascii;
    class       volScalarField;
    location    "0.46";
    object      k;
}
// * * * * * * * * * * * * * * * * * * * * * * * * * * * * * * * * * * * * * //

dimensions      [0 2 -2 0 0 0 0];


internalField   nonuniform List<scalar> 
1431
(
2.94003
2.75959
0.202395
0.385191
0.187345
1.60004
0.131221
5.2588
1.89478
0.148242
1.4834
4.81336
1.2624
0.198694
0.568945
0.241636
0.242487
0.326086
0.178266
0.440953
2.33756
0.324164
1.98614
4.89659
1.91776
0.726075
1.17738
0.256787
0.942627
0.614081
0.930411
1.16573
0.870543
0.12399
1.82046
0.765051
3.10413
0.352704
0.245224
1.01154
2.58575
3.07161
0.991155
0.284426
1.63393
0.214265
0.579438
1.06264
0.137279
0.476097
1.74801
0.325051
1.82976
5.22095
2.70032
1.01314
0.147045
5.42433
0.600357
0.720747
0.278528
0.149537
0.355212
0.355318
0.18096
0.0881142
0.339017
0.189111
0.168785
0.190064
3.0523
0.137355
0.308242
0.100235
0.17872
0.149389
0.160078
0.323645
0.275176
0.247535
0.296249
0.319127
4.8831
0.853623
2.31031
0.559685
0.894752
1.05473
3.7656
5.00611
1.00152
0.281273
0.331437
0.400326
2.79304
0.639557
5.1602
4.89158
0.228901
0.559881
1.48499
0.211087
0.424965
0.376837
0.374873
1.27541
1.54192
1.60516
1.8502
0.519348
0.555713
1.52622
0.39401
2.33381
3.04049
0.143493
0.167032
0.334316
0.333612
0.351441
0.221859
0.804981
1.90555
0.177798
2.27175
0.395601
0.155935
0.632053
0.254146
1.77637
0.184972
0.368402
1.66654
0.258038
0.656449
0.401347
0.486298
0.161051
3.46887
0.306641
0.211259
0.847853
0.399199
0.243128
2.25385
0.852726
0.297857
1.65687
0.41487
0.216665
0.368383
0.187467
1.08004
0.332456
1.51489
0.440512
2.82628
2.95143
5.14256
0.958897
4.56661
1.42057
0.266615
0.854359
1.88202
2.49674
2.2224
3.16898
0.440342
4.26563
5.05159
1.80179
0.953861
3.46504
3.06395
2.78234
1.48641
1.62056
1.85155
1.86616
0.0853741
0.297442
1.79332
7.04111
1.56942
1.29965
1.44573
3.38113
1.06538
2.95317
0.899103
1.14748
1.17594
1.8154
0.324823
2.94784
4.36974
1.61617
0.161325
1.76592
2.08059
0.387968
1.26045
1.22951
1.44978
0.966407
1.35228
0.164649
3.88355
1.68621
1.67924
0.184586
1.51833
1.30025
3.24251
0.740747
1.26518
1.59574
1.74909
1.14967
1.45335
1.77141
1.17283
0.596039
1.59806
4.73829
1.5704
4.64878
1.31068
0.931907
4.08181
0.912757
1.24998
1.10711
1.2159
5.48115
1.48564
1.33733
0.870224
1.73214
1.33416
2.11477
4.24104
1.15966
1.12108
0.607191
1.26856
1.28786
1.54071
0.451535
0.568282
3.61685
0.839764
0.213172
0.93306
2.65435
0.721061
5.39038
5.02858
1.23706
0.936115
3.3813
1.78907
1.31295
1.73684
1.35711
2.01576
2.27508
1.03603
0.117557
2.03464
1.40903
2.50107
1.44243
4.20058
0.919157
3.96024
0.960374
0.986395
1.16157
1.8952
2.6291
0.858018
1.42558
2.09885
5.33392
2.71844
5.01538
2.36588
2.51002
0.141812
2.10712
4.24778
1.54526
0.84288
1.2479
1.69093
1.46546
0.764229
1.07317
1.81093
0.402936
2.21073
1.09192
1.21984
0.607474
2.74434
1.18767
3.07985
3.81544
2.67447
0.519251
0.110817
1.06394
1.90644
3.86484
1.68292
2.38218
0.143138
7.465
2.47099
3.43107
0.403769
1.32855
1.5587
0.218658
0.469758
2.15178
5.0079
0.236194
1.32364
0.167646
2.0666
0.34047
1.19943
1.06541
2.33774
5.52696
1.55198
1.20796
0.345444
1.05029
1.93316
2.38648
1.8675
1.0422
2.34087
3.96887
2.27107
1.37204
1.58759
0.23272
1.47794
2.32255
0.227574
1.57566
2.59794
1.39246
3.19568
2.69304
0.366516
1.19433
1.18337
1.91232
0.154869
1.60809
1.94878
7.74754
1.26773
0.810174
1.45015
0.213699
4.27845
2.0661
2.3637
6.44873
2.57151
1.14733
0.41747
7.14358
1.6364
1.55149
1.42399
0.265377
8.70914
1.77147
1.98645
1.90047
1.482
2.03489
1.48674
1.99879
1.98143
0.49971
5.03881
1.64448
1.9259
1.98569
2.00639
1.68656
2.20835
2.31658
4.36716
2.58831
0.556098
1.91703
1.63027
0.60374
1.8678
1.90769
2.50711
1.62735
1.90989
0.784551
1.83069
0.316074
2.03644
0.698404
1.60249
1.9189
1.6947
1.12444
1.54687
2.1539
1.93737
0.239309
0.296197
0.306407
0.37256
4.16416
1.89388
2.1786
2.32776
2.41132
2.36051
2.15408
1.98759
2.19755
1.92747
2.11829
0.197905
3.51087
0.191631
0.18057
0.230049
0.139883
0.153244
0.145198
0.865552
0.377012
0.39213
0.427442
0.139088
0.572393
0.124365
0.143238
0.40158
5.12405
0.675933
0.398636
0.387056
0.420475
4.90234
0.155697
0.496027
0.402046
0.486435
4.76865
0.392181
4.61271
0.265414
0.32707
0.279251
0.381401
3.51503
3.40665
0.343396
0.506211
0.158609
0.406177
0.363457
0.191458
3.60432
0.590164
0.300568
0.323853
0.249949
0.251644
0.285084
0.462419
3.74333
0.470026
0.301773
0.410955
0.2641
0.24626
0.341019
3.69184
0.411564
1.29446
0.437538
0.358745
1.04384
0.266274
3.52925
3.50073
0.200639
0.550135
0.391387
0.655672
0.383868
0.452926
0.197781
0.352409
0.316889
0.341756
0.427112
0.395443
0.585527
3.52353
1.20779
0.550144
1.49572
0.397744
0.414331
0.573637
3.23286
1.00197
0.220963
0.54096
2.29822
1.26813
0.756673
1.5212
2.179
0.374883
1.34703
1.71062
0.480629
0.37573
1.80743
0.278803
2.41732
0.961501
1.83851
1.25041
1.95328
1.44385
1.86276
2.43093
1.97103
0.236761
2.26469
1.97606
0.434176
1.52787
0.672236
0.474933
1.54558
2.98568
2.44023
3.03781
3.17351
1.11335
4.70944
0.876281
1.62085
0.716754
0.576384
2.50682
1.852
1.8019
1.8021
0.8426
0.53892
1.44575
0.384996
1.89123
1.42872
2.00608
1.82821
1.58678
1.68254
1.86993
2.00288
1.38808
1.06862
1.25129
0.605177
1.023
0.89285
2.49632
1.64809
1.89527
1.65196
1.93657
0.326223
1.97578
3.87512
3.63266
1.42285
0.753549
1.96721
1.07526
1.51058
1.52839
1.05705
1.96367
0.610901
0.164247
0.475684
0.870655
1.95164
1.38017
1.95614
2.24264
2.50028
1.07613
0.455263
1.86777
3.41473
2.31838
0.501772
1.9636
1.0544
1.52971
2.11385
0.41178
1.68232
1.51319
1.19308
1.55242
0.14121
1.68942
1.88054
1.63446
4.70339
1.67557
1.97953
1.96353
2.05327
3.7386
1.1594
1.98131
2.22953
0.943754
1.44469
1.52585
2.8598
2.31478
0.525916
2.8263
1.65711
1.75045
0.186017
1.49815
1.92505
1.49636
0.387832
4.56531
4.95629
2.06712
0.961397
1.44813
0.544637
0.993971
0.520524
0.39301
1.71822
0.292653
1.95625
3.57176
1.69233
2.03338
0.489388
0.531961
1.70305
0.366883
1.65102
1.77138
2.09946
1.43846
2.19818
1.72322
0.371973
0.271562
0.938889
1.94176
0.196183
1.50233
1.68172
1.14011
2.29741
1.36247
1.1065
2.48786
2.48218
1.37617
0.997263
2.17696
2.07121
1.7981
1.81202
1.23035
2.03256
1.74742
1.4611
2.27939
2.09293
1.83187
2.0334
1.46154
0.974811
1.52508
0.341569
2.40126
0.654621
1.83869
1.1449
1.98173
2.53748
0.997677
3.51712
1.62323
0.556473
3.24398
1.48131
0.86698
1.56507
1.85699
0.525238
4.78026
0.651026
1.29939
2.20026
1.06588
2.20178
2.68418
1.7636
0.766272
0.728123
1.98986
1.5117
1.80096
1.43769
1.61839
0.434546
0.497592
1.8881
0.182788
0.585681
1.74378
2.47306
0.185608
5.6923
1.82408
2.25626
0.229683
1.69501
0.854596
6.11255
2.77153
1.27539
0.12614
0.458377
1.57163
0.270704
0.149802
1.96249
1.45515
0.671
1.26601
1.71487
2.12707
2.13592
1.8455
0.905743
1.03782
2.09288
1.24741
1.96113
0.497294
1.66562
0.386843
1.68509
3.00005
1.63659
1.96161
0.995928
2.00794
1.34289
0.374196
1.36064
2.12068
1.28216
0.933586
0.672009
1.07961
0.536858
1.44693
1.04679
0.389434
0.796345
1.66398
1.4671
6.38488
1.25367
1.72908
0.942788
1.57277
7.3904
1.39674
1.95602
3.02703
2.69675
5.42945
0.865462
0.200276
2.7159
1.94996
0.15742
1.40867
1.78604
1.93094
1.8776
0.744149
2.53634
0.837957
0.214166
0.351378
2.36701
2.82484
1.82333
1.03186
2.17311
5.09196
0.923139
2.69335
1.8042
1.17937
1.58786
0.387914
0.464242
1.25131
1.96125
5.29465
0.507981
6.24083
1.12807
4.14966
1.33704
0.828706
0.805811
1.57835
0.301554
0.309062
1.96746
1.58434
0.231234
0.42697
1.6194
2.10743
1.8865
1.93095
1.3019
1.93808
1.19929
0.513883
3.83725
1.91318
1.87947
5.51133
2.18384
1.29685
0.63274
0.734259
0.136681
1.90082
1.8597
2.00305
4.59593
0.582368
1.98788
1.90005
5.74245
5.59603
4.86468
0.69884
0.893003
0.902148
0.8788
0.887989
0.744739
0.872935
0.674024
0.71061
0.691212
0.690178
0.645498
0.787709
0.696501
0.609335
0.615662
0.684942
0.852162
0.830862
0.669668
0.81027
0.800478
0.654713
0.79283
0.999731
2.78279
0.459755
0.411018
1.61448
0.287333
0.239332
3.4155
1.21538
0.791349
0.273212
1.26653
0.935903
5.95368
0.287567
0.198715
3.42967
1.62892
1.3557
0.526002
1.05918
5.86459
0.143749
0.776171
1.73378
2.0624
0.530244
0.449648
2.94732
0.797239
0.5195
1.00051
2.24041
1.20404
1.30032
2.4158
0.337183
0.293111
0.239656
0.41726
1.71456
0.973174
0.621043
0.427775
1.90421
0.456896
0.620814
0.748112
0.581268
0.467734
2.88861
1.7402
1.96557
1.73678
0.328575
0.387578
1.03545
0.743782
0.31359
0.66562
1.88734
1.1673
1.86913
0.163431
0.294332
0.29304
0.850371
0.150274
8.37263
1.96535
1.31927
0.269316
5.06003
1.9786
5.4696
0.164392
0.607446
0.851686
0.267877
0.334366
1.94092
1.23498
3.45105
3.62559
0.758856
1.97607
0.401523
1.17345
0.282923
1.5905
0.983751
0.82339
1.69728
1.30087
1.44996
0.851971
3.01958
0.71765
0.427638
0.352885
1.63795
1.25944
0.326397
1.90554
2.23891
1.98147
0.40845
1.94999
2.01483
2.58513
3.50998
0.117446
0.910335
0.607431
1.00166
2.023
6.03216
0.625844
1.7613
0.893835
4.05023
3.32868
1.00828
0.281804
1.26578
1.84771
2.93069
2.66039
2.75549
1.98659
0.580962
1.49996
0.401818
2.31278
1.95813
2.05685
3.01939
4.88365
3.21636
2.19982
0.411402
1.92079
1.15622
0.313577
0.50893
0.933409
0.486985
1.95241
2.7932
1.69707
0.812241
2.63424
4.00978
0.368294
0.23351
1.52106
2.60899
1.92279
2.63673
2.89147
1.70789
2.7046
0.751923
2.86721
2.74198
2.71133
2.50892
2.36172
2.21589
2.75586
2.08684
0.0730648
0.22599
0.163864
0.0764694
0.101983
0.147069
1.53153
0.752914
2.44866
1.48249
2.42801
0.633221
0.293351
1.27243
0.449049
0.136924
1.90729
0.390663
1.28845
2.54751
0.751522
1.1782
0.225187
3.95524
1.87757
1.44994
1.8278
0.918322
1.08216
2.03898
7.74455
1.32978
0.361306
1.30606
3.98254
0.42172
1.67643
2.39974
0.477129
2.01723
0.164251
0.441979
0.610372
0.62658
0.552104
0.655577
0.157081
0.267531
0.282302
0.270315
4.39822
2.90428
0.520108
0.287823
1.52372
1.67413
0.438454
2.32465
3.48138
2.19815
3.15753
0.684627
0.883616
1.22945
2.2017
0.620284
1.9101
1.64146
1.90124
2.61654
0.633684
1.29209
0.389457
0.473032
2.65639
1.11248
1.85139
1.85552
1.79905
2.96745
5.10171
1.00459
2.14916
1.19038
0.385017
0.244665
0.321018
0.343792
0.298299
4.40653
1.67209
0.324826
1.94383
1.93787
0.289503
2.44578
0.328998
1.7089
1.94843
1.00378
1.86726
0.485546
1.7269
2.14874
2.43653
2.65222
1.96395
0.269032
0.279579
0.213428
4.21271
5.06492
2.64891
2.42021
1.9855
0.254086
6.0577
0.183136
1.21441
0.296412
0.221978
0.324133
2.56665
0.333495
1.0212
1.44913
4.01252
0.191934
1.80599
0.754439
0.313246
0.309309
0.221488
0.844411
4.62165
0.431889
2.2873
2.70783
1.95168
1.48771
1.98222
0.900246
0.396576
0.181525
0.384833
1.81785
2.97645
1.92068
8.67859
1.29245
2.01798
1.91497
2.37688
1.78646
0.124797
1.24326
0.505114
1.93328
0.679862
2.13582
2.85237
1.97324
0.223398
2.11558
0.242932
0.45922
1.70973
3.14174
2.54844
2.44729
1.81756
0.734326
1.69729
1.93685
0.713336
0.814847
0.381727
0.267518
0.385432
1.92127
4.51088
1.83558
1.92659
0.395649
0.390529
0.975614
1.82759
0.68585
2.9406
2.28379
2.60329
3.05383
0.1575
1.9727
1.91064
1.76887
2.00008
1.49543
0.881351
0.603745
1.20694
0.8376
1.22107
1.02968
1.45051
6.00359
1.66273
0.27407
0.353564
1.95378
1.31773
0.988007
1.42449
0.270578
5.19256
0.484464
0.31568
0.412128
7.7944
1.64221
2.19045
0.354
0.579957
2.51734
2.26544
4.36205
0.459787
0.581912
1.62434
6.92432
0.309541
5.01756
5.12335
0.475421
1.70098
2.4327
4.9251
2.82097
1.86659
1.80438
0.27628
2.87506
1.1013
0.18058
2.33867
0.749117
3.60494
1.90091
5.28975
0.469533
0.138653
0.492733
2.79396
0.86255
0.783005
1.03591
5.05012
0.139754
1.56787
0.328841
4.3011
1.10283
1.26183
0.284681
0.287426
0.685597
4.36014
6.49126
0.591934
1.71029
0.227817
0.31595
0.71182
1.08909
0.220686
1.89527
0.353596
0.918008
0.944681
1.12455
4.81271
1.09806
0.349025
1.2619
0.831403
0.265446
0.763808
1.93236
0.274791
0.518272
0.860745
0.963085
1.2864
0.413282
0.210493
4.57895
3.57733
1.49164
0.670513
0.470522
0.284975
0.458725
1.36905
0.353836
0.266874
0.453289
0.526164
0.1488
0.345529
4.82491
1.20767
0.787055
1.69637
1.55756
3.47381
1.80077
0.327048
0.176229
0.921459
1.34173
2.31327
0.245561
0.305322
0.257103
0.407545
0.189044
0.433775
0.70988
1.0773
0.256846
1.32853
1.7093
1.25042
1.33337
0.183292
1.1721
0.380805
0.953513
1.62012
0.251217
0.4211
0.923725
2.04479
0.214333
0.257903
0.736017
1.18489
1.01786
0.142233
)
;

boundaryField
{
    frontAndBack
    {
        type            empty;
    }
    wallOuter
    {
        type            kqRWallFunction;
        value           nonuniform List<scalar> 
96
(
0.942627
0.614081
0.639557
1.69233
1.70305
1.72322
1.50233
1.36247
1.1065
2.48218
0.997263
2.07121
1.23035
1.74742
2.27939
2.68418
1.7636
0.728123
0.905743
1.68509
0.933586
1.8776
0.744149
2.82484
1.82333
0.69884
0.893003
0.902148
0.8788
0.887989
0.744739
0.872935
0.674024
0.71061
0.691212
0.690178
0.645498
0.787709
0.696501
0.609335
0.615662
0.684942
0.852162
0.830862
0.669668
0.81027
0.800478
0.654713
0.79283
0.776171
0.973174
0.621043
0.743782
0.66562
1.86913
0.758856
0.851971
0.910335
0.607431
0.625844
2.93069
0.580962
0.401818
2.05685
2.60899
2.63673
2.7046
0.751923
2.86721
2.74198
2.71133
2.50892
2.36172
2.21589
2.75586
2.08684
0.0730648
0.22599
0.163864
0.0764694
0.101983
0.147069
0.633221
0.751522
0.62658
0.633684
1.96395
0.844411
2.97645
2.9406
0.881351
0.603745
0.309541
1.86659
1.90091
0.492733
)
;
    }
    inlet
    {
        type            fixedValue;
        value           nonuniform 0();
    }
    outlet
    {
        type            zeroGradient;
    }
    wallInner
    {
        type            kqRWallFunction;
        value           nonuniform List<scalar> 
126
(
0.600357
0.720747
0.278528
0.149537
0.355212
0.355318
0.18096
0.0881142
0.339017
0.189111
0.168785
0.190064
3.0523
0.137355
0.308242
0.100235
0.17872
0.149389
0.160078
0.323645
0.275176
0.247535
0.296249
0.319127
0.559881
0.143493
0.167032
0.334316
0.333612
0.351441
0.221859
0.804981
1.90555
0.177798
2.27175
0.395601
0.155935
0.184972
0.368402
0.306641
0.211259
0.399199
0.243128
0.297857
0.216665
0.187467
0.332456
1.88202
0.0853741
1.29965
1.44573
0.324823
1.67924
0.117557
0.986395
1.16157
0.141812
1.69093
1.46546
1.07317
0.402936
0.519251
0.110817
1.06394
0.218658
0.469758
1.32364
1.20796
0.345444
1.39246
1.19433
1.18337
0.60374
0.698404
0.266274
0.316889
0.54096
1.71062
0.278803
1.44385
0.236761
1.54558
0.53892
1.89123
0.605177
2.49632
1.42285
0.501772
0.14121
2.22953
1.65711
2.03256
1.4611
0.854596
1.29685
1.90082
0.467734
1.79905
0.469533
0.138653
0.921459
1.34173
0.245561
0.257103
0.407545
0.189044
0.70988
0.256846
1.32853
1.7093
1.25042
1.33337
0.183292
0.380805
0.953513
1.62012
0.251217
0.4211
0.923725
2.04479
0.214333
0.257903
0.736017
1.18489
1.01786
0.142233
)
;
    }
    procBoundary3to1
    {
        type            processor;
        value           nonuniform List<scalar> 
48
(
3.23296
2.36226
2.75451
3.36349
1.67781
2.20855
2.36226
0.400972
2.32347
0.441972
0.441972
0.455826
0.455826
0.375704
0.506358
0.394149
0.24623
0.261654
0.24623
0.220777
0.324826
0.329938
0.220777
1.50633
0.379872
0.195586
0.355654
0.329938
0.357557
0.400378
0.400378
0.370935
0.370935
2.32347
0.191156
1.42401
0.597772
0.379872
2.97119
1.42177
0.375704
1.15663
1.75853
0.220777
0.586012
1.00112
1.65792
0.335727
)
;
    }
    procBoundary3to2
    {
        type            processor;
        value           nonuniform List<scalar> 
29
(
0.342047
0.342047
0.073554
0.102509
0.438777
0.147411
0.28853
0.283045
0.144684
0.134883
0.224448
0.605424
0.290052
0.388417
0.223686
0.397635
0.118555
0.129181
0.295453
0.334645
0.267208
0.118555
0.0805546
0.129181
0.166832
0.120138
0.129181
0.674796
0.674796
)
;
    }
}


// ************************************************************************* //
