/*--------------------------------*- C++ -*----------------------------------*\
| =========                 |                                                 |
| \\      /  F ield         | OpenFOAM: The Open Source CFD Toolbox           |
|  \\    /   O peration     | Version:  v1912                                 |
|   \\  /    A nd           | Website:  www.openfoam.com                      |
|    \\/     M anipulation  |                                                 |
\*---------------------------------------------------------------------------*/
FoamFile
{
    version     2.0;
    format      ascii;
    class       volVectorField;
    location    "0.95";
    object      U;
}
// * * * * * * * * * * * * * * * * * * * * * * * * * * * * * * * * * * * * * //

dimensions      [0 1 -1 0 0 0 0];


internalField   nonuniform List<vector> 
5794
(
(-0.058373 -0.224404 -3.51973e-17)
(-0.14232 -0.204954 0)
(-0.237002 -1.42866 -1.34623e-16)
(0.375857 3.29203 1.05743e-16)
(1.71726 1.78816 2.39032e-17)
(0.00563544 -2.03633 -1.06706e-16)
(2.67232 -0.190262 -1.79627e-16)
(1.12913 -0.359015 0)
(5.78374 0.817357 1.0045e-16)
(-0.0543153 0.0114463 2.56802e-16)
(4.72114 -0.108301 -3.18697e-19)
(-2.03163 -0.206031 0)
(-2.79677 -0.187994 4.88312e-16)
(0.537112 6.88584 1.79053e-16)
(0.278089 -0.0100987 5.42691e-16)
(-0.794898 -0.163062 -1.51685e-16)
(1.3868 -0.0309706 4.7089e-17)
(0.0186532 7.13125 1.21052e-16)
(0.171078 -0.00928588 5.04621e-16)
(-0.0142384 -0.151329 1.904e-16)
(-2.99477 1.78458 -4.59669e-17)
(0.272878 -1.09747 -1.46828e-16)
(3.05779 -0.0502517 2.50107e-16)
(0.84941 0.00698739 -6.35308e-16)
(2.61048 0.235391 -3.67782e-16)
(2.91128 10.7407 2.13732e-17)
(5.9103 -0.586348 0)
(0.00966594 2.07298 -1.48483e-16)
(0.0390291 9.31852 -3.79957e-17)
(0.20719 -0.00803121 3.16254e-16)
(-0.53086 -0.860997 -6.46522e-16)
(-1.81615 0.0323896 -5.07182e-16)
(-2.12707 0.113475 -9.03966e-16)
(-0.174271 -0.190224 4.80021e-16)
(-0.905969 0.325115 -2.15338e-16)
(-0.905268 0.323324 2.14618e-16)
(9.76195 0.606021 -2.18739e-16)
(2.59038 -0.439928 0)
(3.21936 -0.36558 1.31934e-16)
(0.0237043 3.53365 0)
(0.124077 2.54606 -1.04616e-16)
(-0.626499 2.30246 1.35333e-16)
(7.36962 0.110813 -8.8268e-19)
(0.259205 2.59587 0)
(0.295742 -0.032451 -4.71296e-16)
(4.82369 -0.170776 1.34924e-16)
(3.73835 -0.194352 -2.47074e-16)
(-1.43033 -0.384787 0)
(0.0274331 0.0492915 9.2267e-16)
(1.28243 -0.225697 6.42314e-17)
(0.468812 -0.0838076 -1.74149e-16)
(5.90498 -0.230012 -1.83363e-16)
(-0.0862188 -0.333618 0)
(0.324076 0.103138 1.81552e-16)
(-0.0662518 -0.0606795 1.06908e-17)
(5.05467 -0.510654 0)
(3.79127 -0.418094 -1.99426e-16)
(-1.73918 0.00481364 1.54764e-16)
(8.38618 0.0647901 0)
(4.40171 10.1204 -7.21913e-19)
(9.10869 0.484811 1.91897e-18)
(0.313521 0.592141 -1.38267e-16)
(-0.187447 -1.38771 -1.51004e-16)
(-0.943367 -0.0371726 2.09346e-16)
(-1.21337 0.137202 0)
(0.601818 0.253005 -2.71492e-18)
(0.227302 0.916993 -2.31002e-16)
(-0.134488 3.63237 0)
(0.218353 5.41044 -1.3968e-16)
(0.156415 0.529341 -2.10993e-21)
(4.57106 -0.49686 1.41835e-16)
(0.348478 2.48884 -2.88007e-16)
(11.3746 2.094 -3.50242e-18)
(1.94412 0.0813003 0)
(0.11607 6.69161 1.23203e-16)
(0.199565 1.08436 6.56942e-20)
(-0.0364601 -0.100424 1.47268e-16)
(1.58319 10.5543 -2.21305e-17)
(0.378545 2.67829 3.74818e-17)
(-0.299823 0.0678061 7.50762e-17)
(0.132765 -1.42762 -1.75281e-17)
(0.0458619 -0.413444 -1.7927e-16)
(0.102819 1.31052 -1.36946e-20)
(2.38703 -1.52523 -8.72172e-17)
(1.66073 -1.37364 -3.6299e-16)
(-0.10093 5.34603 -4.15367e-17)
(0.211554 6.18159 3.04644e-17)
(0.0307553 5.25973 -2.51664e-17)
(0.923114 0.0485638 -1.70269e-16)
(2.02966 1.13219 -4.65903e-17)
(0.916476 5.58235 -8.03042e-17)
(0.0580792 7.07322 -8.24772e-17)
(-0.0779414 7.45765 1.34536e-16)
(0.104274 7.54568 5.89799e-17)
(-0.029888 6.73395 3.29576e-17)
(-2.14577 0.0442546 5.38272e-18)
(0.0157826 6.18282 -5.60961e-17)
(-0.114319 7.20472 -1.45755e-17)
(-0.031405 7.02987 0)
(8.82545 0.535025 -3.10708e-17)
(1.73367 3.2511 -1.24086e-16)
(-1.20484 0.177302 -4.11623e-16)
(8.26394 0.142201 7.37507e-17)
(0.483125 5.72446 -2.41537e-16)
(0.210049 0.0913346 0)
(-0.291045 5.5833 0)
(0.0926303 0.495707 0)
(-0.323445 0.0688232 -2.77352e-16)
(-1.40464 0.579171 -1.23262e-16)
(0.533605 2.73969 -1.01929e-16)
(0.541585 -0.10232 -5.65244e-20)
(0.372212 -0.0491893 0)
(-1.43885 4.71677 1.14533e-16)
(-0.268449 -0.0491449 1.55451e-16)
(0.0109946 6.64807 0)
(-0.106518 7.66026 0)
(0.278858 -0.0440981 -3.91338e-16)
(-0.228536 8.31183 -9.35186e-20)
(9.36168 0.435334 -2.39091e-20)
(10.8422 0.608528 6.07442e-18)
(-0.392658 7.66838 1.09269e-16)
(0.363646 0.0402093 0)
(-1.70805 -0.0144918 0)
(0.078906 1.51415 -1.98502e-16)
(0.416302 -0.0520637 2.39856e-16)
(4.74269 2.35707 5.09939e-17)
(0.779074 5.71349 0)
(-0.185807 -1.79939 6.74759e-17)
(6.03666 -0.636858 1.21801e-16)
(-0.468419 -0.0415066 1.68434e-16)
(-0.312001 -0.922978 3.39709e-16)
(-0.691714 -0.961311 2.14791e-16)
(0.172007 1.12013 2.35978e-17)
(1.0868 10.2233 -6.68105e-17)
(-0.378081 6.44407 1.3863e-16)
(0.341605 -0.02203 0)
(4.23885 -0.205096 9.3937e-17)
(0.336409 0.592033 -1.97974e-16)
(-1.04734 -0.160554 1.59578e-16)
(0.323818 -0.371618 0)
(1.35873 -0.348697 -5.08394e-16)
(0.425779 2.63563 0)
(0.444958 -0.0922426 0)
(0.402183 3.02224 2.56264e-16)
(-1.02827 -0.216909 1.67612e-16)
(2.10485 -0.127816 1.56752e-17)
(-0.922863 1.02272 2.28497e-16)
(7.67684 0.28381 2.37241e-16)
(1.30728 1.10714 -1.71216e-18)
(0.255724 1.23924 4.12388e-16)
(7.20833 -0.173176 -1.76033e-16)
(0.240336 0.114626 3.56611e-16)
(-0.304511 5.78516 0)
(-1.30758 0.307863 1.88043e-16)
(4.0918 -0.753059 0)
(4.31228 0.125688 0)
(2.22484 -0.664219 -2.55004e-16)
(1.4044 -0.325324 4.01596e-16)
(5.21199 0.178839 -2.66787e-16)
(1.60182 -0.601896 -1.33203e-16)
(0.220988 0.00019141 4.28665e-16)
(-1.61259 -0.0814728 -3.6355e-16)
(-0.0528365 -0.0705288 0)
(-1.85341 -0.0303278 -1.39628e-16)
(-2.9799 0.0205319 -3.04193e-16)
(-3.10733 -0.096497 1.6604e-16)
(-1.85972 -0.136979 1.23894e-18)
(-0.900603 -0.28618 -4.1174e-18)
(0.419007 -0.0764589 0)
(0.246621 -0.0113497 1.02237e-18)
(0.207124 0.00529888 0)
(-1.8516 0.41445 -1.16387e-16)
(-1.08932 0.239024 0)
(-1.00996 0.270678 1.04592e-16)
(-0.443076 -0.0311093 4.57902e-16)
(3.01324 0.00117787 0)
(0.102429 0.00488032 -2.62678e-16)
(2.58888 0.0688895 -2.20292e-16)
(0.591238 -0.10804 -9.24623e-17)
(6.14843 0.102814 6.88841e-18)
(0.743005 -0.184104 -5.74786e-18)
(-1.20213 -0.307978 0)
(1.45153 -0.109758 0)
(-1.87461 -0.32718 1.25904e-16)
(0.606628 -0.233828 0)
(0.0135551 -0.84382 7.00346e-17)
(-1.36998 0.135872 -1.4667e-16)
(-1.22942 0.298352 -1.01602e-16)
(-0.0909932 0.0111325 1.48381e-16)
(-1.09707 0.10721 3.37747e-16)
(4.62402 -0.069371 -3.44761e-16)
(-1.89038 -0.100754 3.75563e-16)
(-2.26942 -0.0866802 6.02309e-16)
(0.0524238 -0.413839 6.40384e-16)
(-1.24963 -0.550521 -9.68731e-17)
(-0.788182 -0.471095 -5.16814e-16)
(2.02939 -0.301106 -2.07675e-17)
(0.0391999 -0.0981267 -1.95739e-16)
(0.100804 -0.0308706 -3.23285e-16)
(6.39435 -0.0465876 1.23085e-16)
(3.01954 -0.0636567 -1.86694e-17)
(5.80723 0.00685499 0)
(-0.62814 -0.441101 0)
(-0.203908 -0.0922335 1.16231e-17)
(3.73999 -0.0112006 -5.81549e-17)
(4.76247 0.0224287 0)
(-0.127987 -0.245948 1.22934e-17)
(0.339249 -0.036372 2.12959e-19)
(4.68668 1.07182 -5.81133e-18)
(1.91463 8.71592 1.24805e-16)
(0.744502 1.40749 1.07062e-16)
(9.73004 -0.00911209 0)
(-1.19064 0.130841 -1.1269e-16)
(-1.0684 -0.252232 1.79243e-16)
(0.546644 -0.170548 0)
(1.18566 0.302114 7.54444e-16)
(0.856363 0.24804 -1.80919e-16)
(1.04256 1.45905 9.64178e-17)
(4.11079 -0.194561 1.33795e-16)
(1.4136 5.60958 -1.76384e-16)
(9.6471 -0.00555954 0)
(1.98971 0.556516 2.20216e-16)
(-0.347151 1.97212 0)
(-0.0358046 5.25802 2.73942e-17)
(5.07964 0.124056 1.33638e-16)
(11.1722 0.71957 2.15612e-18)
(-0.917532 -0.222346 -7.31718e-17)
(0.077297 -0.0800539 -1.34725e-16)
(0.350705 -0.0937413 0)
(0.329878 -0.0411838 -3.48135e-16)
(-1.02451 0.401839 0)
(-0.990795 0.406711 -7.02361e-17)
(-0.413474 0.0846415 -1.15691e-16)
(-1.06688 0.742392 1.54046e-16)
(2.03387 0.347573 1.62455e-16)
(9.76677 0.150523 5.69032e-18)
(7.63538 0.934616 1.9036e-18)
(7.25402 0.509722 2.90067e-17)
(-2.09526 0.124523 -1.59121e-16)
(0.758443 -1.12232 -3.80252e-16)
(-0.0547369 -0.366997 0)
(1.20034 0.817472 1.17866e-15)
(1.47806 4.69536 2.16455e-16)
(-0.705113 0.710929 -2.59694e-16)
(-1.39609 0.892501 2.67349e-16)
(0.563226 -0.0369228 3.06173e-16)
(0.354942 -0.0818333 -1.61688e-16)
(1.1413 0.752883 8.10072e-18)
(-0.116851 5.98035 0)
(-0.0325287 5.86631 0)
(-0.0229032 5.45376 0)
(0.359535 0.260154 2.89282e-17)
(2.84839 -0.697646 -7.24892e-17)
(-0.238627 0.149037 -3.54531e-20)
(7.25732 1.19724 -5.81792e-17)
(4.40103 2.31755 -9.0664e-18)
(8.17392 0.212415 -1.51802e-16)
(8.99343 0.528771 1.59854e-16)
(0.0636188 -0.357071 2.92885e-16)
(0.385523 -0.0298779 0)
(5.90865 -0.0606391 -1.13533e-16)
(-1.25975 0.0693522 9.72864e-17)
(-0.922743 -0.46657 -1.02262e-16)
(0.951581 -0.161927 0)
(-1.36487 -0.160273 0)
(-1.38934 -0.19091 -6.20477e-19)
(0.222841 1.85755 1.46399e-16)
(3.75936 0.780091 0)
(0.30438 -0.0165214 -7.57224e-16)
(4.34916 0.0132858 -1.25405e-16)
(3.49932 -0.0521575 0)
(0.24153 -0.828677 -2.97858e-16)
(1.14456 1.83542 -4.75375e-16)
(4.80186 -0.37109 -1.72796e-16)
(9.48728 0.0883669 3.66486e-17)
(0.247628 -0.0466285 3.50457e-16)
(0.320655 0.13216 -1.96255e-16)
(1.46943 -0.26368 -8.64293e-17)
(0.39964 -0.0915061 -2.05973e-16)
(-1.7618 1.24475 -2.45664e-16)
(-0.0568701 -0.105912 4.0894e-16)
(0.917788 3.28887 2.5954e-16)
(0.254732 3.31471 9.92116e-17)
(-0.495098 2.19002 -3.75143e-16)
(0.230997 4.8604 4.71649e-17)
(-0.125497 5.26935 1.14992e-16)
(0.0452475 6.06252 1.24464e-17)
(0.0217957 5.90253 0)
(0.582177 5.79459 4.22377e-17)
(-0.441065 7.73302 0)
(-0.672634 0.443134 -1.8018e-17)
(-0.633604 0.513948 -1.46557e-16)
(-0.13396 -0.0554511 2.7373e-18)
(0.36291 0.150759 0)
(8.04027 1.71922 0)
(1.14678 7.5437 7.19368e-18)
(0.287929 3.50506 5.89322e-17)
(-0.279865 1.38208 -1.8375e-20)
(0.204179 4.5276 -2.06973e-16)
(0.631551 -0.16861 -1.77713e-16)
(0.0766108 -0.422376 1.26026e-16)
(-0.460529 6.35107 0)
(0.134438 -1.38746 -6.85758e-16)
(0.741751 2.0831 0)
(0.543043 0.661291 -1.73858e-16)
(3.54739 0.263263 1.65937e-18)
(0.472822 -0.16168 -2.84363e-16)
(0.345597 3.66248 2.68664e-16)
(4.9894 0.1027 2.47858e-16)
(4.04579 0.0406313 0)
(0.652229 -0.512236 -6.37334e-16)
(-0.173244 0.487891 -3.08052e-16)
(1.34414 7.60748 -1.38463e-16)
(-0.234419 -0.0910126 -8.72341e-17)
(10.588 0.120014 0)
(10.006 0.302187 -1.82981e-17)
(-0.0890315 0.0636808 -9.8843e-17)
(-0.0508505 2.77319 -2.74361e-16)
(-2.07504 0.379084 -2.20595e-16)
(0.152498 7.08726 -4.20541e-17)
(0.509945 -0.292436 5.04367e-16)
(1.72904 -0.828473 -1.9593e-16)
(-0.126453 7.51731 -7.81242e-17)
(1.66725 1.35586 -7.66595e-19)
(-0.63718 -0.149834 0)
(1.71102 -0.455665 0)
(1.96569 -0.0999032 0)
(-1.58329 -0.295374 6.73225e-17)
(-2.11167 -0.355486 -3.25523e-16)
(4.50297 -0.128561 3.01998e-16)
(6.19266 -0.0353184 -7.15434e-18)
(6.56328 -0.125491 3.07586e-16)
(-1.02407 -0.419634 9.18671e-17)
(-1.83127 0.253914 4.98806e-16)
(-1.72816 0.148066 0)
(-0.0775762 -0.0217159 -2.68232e-16)
(-0.0690636 -0.0191628 0)
(0.232317 -0.0849793 0)
(-0.0229582 0.0339586 -3.61404e-16)
(-0.607128 0.0201347 0)
(0.743501 -0.0702448 4.38724e-16)
(2.60385 0.0864623 3.81056e-16)
(6.31243 0.372444 0)
(3.10501 -0.0928473 0)
(0.134195 -0.00769289 4.50148e-16)
(1.48501 -0.0290271 3.7305e-16)
(-1.06967 -0.525102 3.27929e-16)
(-0.26897 -0.35465 -2.42064e-17)
(-3.02329 -0.150914 -1.24284e-16)
(2.92664 0.0344411 6.80294e-17)
(3.56946 0.16838 6.13578e-17)
(0.526656 0.0908338 2.46013e-16)
(-2.35017 -0.165713 -2.27521e-17)
(-1.78378 -0.202089 1.52267e-16)
(0.913043 -0.305673 0)
(-1.00669 -0.636102 0)
(0.0292585 -0.0524025 1.92437e-16)
(5.21787 -0.424701 1.74696e-16)
(2.7116 0.00481804 6.64062e-17)
(1.37825 -0.27703 0)
(0.193621 -0.00272559 -2.76705e-16)
(1.46322 -0.468548 4.63691e-16)
(4.66443 -0.0872011 3.70782e-17)
(2.0666 -0.395334 -3.33106e-17)
(1.55947 -0.826907 -2.62083e-16)
(0.282661 0.0239683 5.18555e-16)
(-3.23453 -0.008897 -3.82847e-17)
(4.25048 -0.33931 0)
(3.18305 -0.293093 3.36653e-16)
(-1.66583 -0.0108965 -9.26379e-17)
(0.292789 -0.074139 -1.45429e-16)
(1.11436 -0.0314801 0)
(0.395513 0.0570408 -1.18577e-16)
(-0.299473 0.692867 2.86425e-16)
(0.511466 0.0669781 8.98935e-17)
(-2.79848 0.165126 1.41237e-16)
(3.7863 -0.0223876 0)
(2.78858 0.111128 9.07711e-17)
(-1.65024 0.434471 0)
(0.0820306 -0.0227373 1.69376e-17)
(0.120185 -0.362984 1.76942e-16)
(0.245358 -0.0870481 0)
(10.7709 0.0880328 0)
(-1.29286 0.18652 1.52021e-16)
(-1.28516 0.127547 -6.22911e-16)
(-0.187894 -0.239368 -3.8442e-16)
(-0.264294 9.095 -2.95422e-17)
(-0.366535 -0.338216 3.09966e-16)
(0.144937 -1.02124 -1.10609e-15)
(-1.65696 -0.242903 0)
(-0.278282 -0.26029 -8.08278e-16)
(-1.19667 1.0603 -5.88193e-19)
(0.0636099 0.558261 -2.64348e-18)
(0.0376018 -0.289404 1.75618e-16)
(-0.670385 0.253062 9.32453e-17)
(-0.55864 0.24806 -1.00483e-16)
(-0.450333 0.0428559 1.15101e-16)
(-0.0654016 0.643788 0)
(0.357267 -0.0176272 0)
(2.59524 0.0549371 -2.69391e-16)
(0.830428 -0.125724 1.44817e-16)
(2.36659 0.114167 -3.82186e-16)
(8.97668 -0.283549 3.22306e-17)
(0.563141 -0.0101963 2.03827e-16)
(0.385447 -0.0510585 0)
(6.39747 0.954605 4.67961e-17)
(-0.0581477 1.02713 9.32011e-21)
(0.0967643 -1.88541 1.74638e-16)
(-0.104052 0.412884 -4.20042e-17)
(-0.247002 5.79249 -6.13892e-17)
(-0.078075 7.05064 2.30264e-17)
(0.124275 7.06849 0)
(0.854997 0.472978 1.76828e-16)
(-0.960693 0.313756 2.82118e-16)
(5.04505 -0.0315035 2.04041e-17)
(4.04089 -0.0623795 7.16744e-17)
(0.148101 -0.341399 0)
(0.319369 3.90176 1.70832e-16)
(-2.4301 0.182201 0)
(-0.152253 6.31209 3.87491e-17)
(-0.0508499 7.06714 -6.36463e-17)
(-0.145513 7.25472 3.05415e-17)
(-0.020575 -0.0308072 -1.60434e-17)
(0.320368 -0.0380614 -4.41199e-17)
(-1.48952 0.0615999 0)
(-1.44656 0.0545695 0)
(-0.296472 -0.10957 -2.1115e-16)
(-0.283298 -0.000671322 -2.03856e-16)
(0.0585149 -0.0604704 -1.63214e-17)
(0.0376659 -0.683948 5.69665e-17)
(3.6143 0.671763 3.236e-16)
(9.99574 0.166332 1.30074e-17)
(0.276084 2.34705 -2.87455e-16)
(0.980387 -3.03756 -2.12676e-17)
(0.253962 -0.0718733 3.45742e-16)
(0.264386 -0.0206588 0)
(0.30514 -0.408535 1.72771e-16)
(0.658523 -0.53801 -1.01442e-17)
(-1.71118 0.0580872 -9.4103e-17)
(-1.63194 0.00797961 1.95666e-16)
(-0.161088 -0.198947 2.70316e-16)
(9.94487 0.0984763 -2.53787e-16)
(-0.16243 -0.32153 0)
(0.149692 -0.356342 8.23854e-17)
(1.68918 -0.207725 -2.12349e-18)
(-0.0479352 7.67241 -5.80161e-17)
(0.0132577 6.65153 -2.87537e-22)
(-0.908911 -0.153151 0)
(-0.372034 0.244432 2.51768e-16)
(1.31776 0.400618 -8.14269e-17)
(0.0463435 -0.0595053 -2.4683e-16)
(0.0674861 -0.205495 -8.13686e-17)
(-2.75886 1.32356 4.66784e-17)
(0.287764 -1.2133 -5.01261e-16)
(-0.111549 6.52186 -2.7239e-17)
(0.949485 -0.129467 -5.24461e-16)
(0.35903 5.23984 -2.23506e-18)
(-1.56951 -0.49673 -2.23832e-16)
(-0.0246443 6.50156 -3.2414e-17)
(0.942544 6.4877 8.8932e-17)
(0.514659 -1.57843 -1.02104e-16)
(-0.271236 -0.0400375 -2.62155e-16)
(-0.267002 0.388054 1.90752e-16)
(0.47112 -0.132266 -3.99369e-16)
(8.46778 0.578767 9.34301e-17)
(-0.469454 -0.0479926 -2.89244e-16)
(9.99359 0.330379 -2.17054e-18)
(2.5533 3.26294 5.6714e-17)
(0.542625 0.0699435 -4.49712e-16)
(0.76885 2.19955 -5.0465e-17)
(0.636436 -0.0403955 3.91799e-17)
(6.22465 1.10685 -4.73626e-18)
(1.53226 0.705144 -6.98065e-17)
(0.453835 -0.197469 3.28876e-17)
(0.19942 0.0704921 -2.29032e-16)
(-1.01188 -1.04666 1.14655e-15)
(8.36129 2.22148 -2.63077e-18)
(-0.0596196 2.57009 1.6179e-16)
(1.73439 0.0977913 1.76994e-16)
(-0.222703 -0.145161 6.07901e-17)
(-1.02517 0.573609 2.78149e-16)
(0.578687 -1.47901 0)
(0.600386 -0.0255438 -2.08417e-16)
(0.510795 -0.162311 1.41992e-17)
(0.0136081 0.0398805 1.84474e-16)
(3.39071 -0.124807 -5.22715e-20)
(9.79308 0.0323389 0)
(1.36243 -0.0668249 2.22882e-18)
(0.915118 -0.0170674 -5.06121e-17)
(0.146174 -1.35918 -1.36638e-19)
(0.106016 -0.317706 2.28679e-16)
(0.0800475 4.73498 -1.3934e-16)
(-0.10911 6.22528 4.20811e-16)
(1.49835 0.932526 7.32099e-18)
(-0.0759081 0.872885 -8.06063e-21)
(0.388501 -0.250404 2.5732e-16)
(0.262424 -0.0299634 0)
(0.17376 -0.0537443 0)
(-0.952433 -0.0815987 -3.26646e-17)
(6.8437 0.818979 -1.37551e-19)
(3.16334 2.01583 2.02126e-17)
(8.5746 1.28175 -5.67381e-18)
(10.3742 0.536578 3.29671e-18)
(0.809694 0.129383 0)
(0.234007 2.86103 0)
(-0.39047 0.172904 2.4948e-16)
(0.36494 -1.34739 2.0114e-16)
(8.90095 0.493485 -4.50814e-16)
(1.57757 0.696831 0)
(0.642284 0.158445 0)
(-2.08911 0.135173 2.08998e-16)
(0.493656 -0.206675 1.74615e-18)
(0.129757 -0.2628 -1.84571e-16)
(0.827224 -0.137841 1.95215e-16)
(-0.129431 -0.134754 -9.99097e-17)
(0.035537 6.74297 -2.9761e-17)
(-0.199743 7.52691 -1.41083e-17)
(0.782523 -0.140205 -2.55948e-16)
(9.89865 0.167448 -6.72567e-17)
(8.9955 0.0345733 3.58554e-18)
(0.13953 -1.37664 1.40034e-16)
(-0.183658 0.375691 -4.1355e-17)
(2.12091 2.16935 -9.58617e-18)
(-0.44933 8.52521 -1.31284e-16)
(-0.198944 0.00842085 1.08815e-15)
(-0.498471 -0.554448 6.72987e-18)
(0.981181 0.518181 0)
(5.46296 3.72375 6.70491e-17)
(-0.12643 -0.0311841 1.34554e-16)
(0.35412 -1.69608 -1.88835e-19)
(-0.808782 2.10672 1.8277e-16)
(-0.540872 -0.0592201 0)
(10.1976 0.151572 0)
(0.0965717 0.0209007 -7.31992e-17)
(0.319498 -0.0807107 0)
(-0.727497 0.41348 8.46372e-17)
(10.0243 0.0657578 -1.06006e-16)
(4.75359 -0.0332374 7.66467e-17)
(-0.454237 -0.0060346 1.27394e-16)
(6.93596 0.0225889 9.64791e-17)
(0.0844597 -0.665998 8.78203e-17)
(-0.721849 -2.58169 1.85016e-16)
(0.0999553 -0.0744259 2.64062e-16)
(0.642143 6.92679 -1.02713e-16)
(1.26768 -0.11038 -7.4423e-17)
(-0.525275 -0.122494 0)
(9.70554 0.829523 0)
(0.435516 3.0348 -2.43138e-16)
(-0.423976 -0.0665813 -2.08268e-16)
(-0.490193 -1.5536 5.92947e-16)
(0.585506 5.25337 -2.59211e-17)
(0.0653912 0.00609589 0)
(0.0948049 0.00775588 -5.05558e-16)
(1.12064 1.34053 -1.52887e-16)
(-0.740313 -0.984822 1.39789e-16)
(0.450532 -0.101838 0)
(-0.283152 2.25947 0)
(0.30094 -1.82344 0)
(-0.13204 0.0606549 -2.0806e-16)
(0.548213 1.93147 6.77252e-18)
(9.96969 2.89245 -2.40946e-18)
(0.169736 -0.0241413 0)
(5.32385 1.28736 0)
(0.316341 0.130571 -1.10282e-16)
(0.825667 7.01498 7.30911e-17)
(1.56577 0.111262 0)
(-0.704481 -0.174233 4.08685e-16)
(0.305557 -0.0715265 -3.16224e-20)
(-0.2516 -0.614895 -1.6621e-16)
(0.741809 -0.0157764 0)
(8.01411 0.59801 -6.41771e-17)
(-1.60558 0.69494 -1.55095e-16)
(0.56906 3.04064 7.39786e-17)
(0.0645926 4.19279 0)
(0.900297 3.84068 -1.05051e-17)
(9.92211 0.260186 -2.02703e-17)
(2.67856 2.61346 -3.66643e-18)
(0.170175 5.36643 -1.29637e-16)
(-0.425158 2.1745 -2.45339e-16)
(0.244149 3.70896 -4.34854e-16)
(-0.174976 6.80319 5.30472e-19)
(0.126733 6.74193 4.69196e-17)
(2.59081 2.61752 0)
(10.4688 -0.225859 2.12533e-17)
(-2.67506 -0.228057 1.39843e-16)
(8.85584 0.824459 -1.18946e-16)
(-0.282865 0.0578811 1.84952e-16)
(-0.0938955 6.57915 0)
(-0.0547898 6.95963 -5.15868e-17)
(-0.206987 4.88762 1.87986e-16)
(0.671366 0.10307 -7.59997e-18)
(-0.501456 -1.01275 4.99897e-17)
(0.388614 0.536318 7.02388e-18)
(-0.145334 6.57296 -2.86245e-17)
(0.0637577 6.57802 -2.98269e-17)
(2.03079 8.81759 5.65053e-17)
(0.14638 -0.0297459 2.22832e-17)
(10.1253 0.169236 0)
(-0.266542 -0.0857223 5.25913e-16)
(0.470341 0.017968 -1.12797e-16)
(0.620494 0.0703031 -3.55984e-16)
(7.47912 0.587137 1.69406e-17)
(0.0221337 6.65485 -4.61467e-17)
(-0.10645 6.74317 1.931e-16)
(0.855402 -0.177553 -9.44828e-20)
(-0.40642 0.0774535 -1.22121e-16)
(1.00509 6.70771 0)
(-0.0756532 0.025976 0)
(-0.0705074 -0.162271 -2.13411e-17)
(-0.0897819 1.90159 0)
(3.09832 4.08021 -5.39927e-17)
(4.45128 2.98241 0)
(0.950482 5.73961 -1.55741e-16)
(-0.112165 0.286029 7.72093e-17)
(1.04163 -0.00521241 3.72555e-16)
(0.960294 -0.102945 4.83294e-17)
(7.16165 0.664074 -1.51528e-17)
(3.87404 -0.00646205 -2.35873e-16)
(7.67053 0.138686 -2.92865e-16)
(2.3883 0.343316 0)
(0.191739 0.503821 -9.08339e-17)
(5.09712 2.92746 1.6259e-16)
(3.59861 1.64753 -7.44449e-17)
(0.053094 0.0263738 -3.7468e-16)
(0.264929 0.592712 6.4905e-16)
(-0.580275 -0.675536 3.24295e-17)
(-0.286223 0.648081 -4.09892e-16)
(1.08985 1.89561 2.88144e-21)
(0.932755 1.13864 -2.45981e-16)
(-0.483086 0.00747581 1.96107e-16)
(0.1957 -0.639682 1.01832e-16)
(-0.097903 -0.187877 0)
(0.0794169 0.232346 -8.23648e-17)
(0.0772462 -0.963688 -7.63336e-17)
(-0.132654 0.379359 3.34931e-16)
(0.573783 -0.0432565 -1.2203e-16)
(1.29743 8.85427 -3.60203e-17)
(10.6468 0.424506 -7.34991e-17)
(0.21181 -0.0700969 1.2429e-16)
(-0.0121763 2.57014 -4.9453e-17)
(0.46979 -0.032803 -1.47334e-16)
(8.64845 0.162728 3.59254e-16)
(3.95122 -0.132745 -2.43826e-17)
(-0.0113218 6.90971 3.42591e-18)
(4.20376 -0.153665 2.50865e-16)
(-0.0794146 4.81092 -1.79409e-16)
(0.0228177 5.71691 8.79155e-17)
(7.22559 0.311674 0)
(0.041345 0.177449 -1.2833e-16)
(-0.0324252 -0.00858548 3.10445e-17)
(-1.3548 -0.864606 0)
(1.53477 1.09248 -1.60629e-16)
(0.07965 0.0686053 7.0146e-17)
(0.925654 0.237042 2.86186e-16)
(0.957063 0.136682 2.90615e-16)
(3.80632 0.179802 -4.2003e-17)
(8.68108 0.494597 -1.11567e-18)
(1.21205 1.6033 -1.60342e-16)
(-1.34105 0.131497 2.8887e-16)
(-1.08911 1.34903 -2.80978e-16)
(0.424995 -0.206856 1.29502e-16)
(0.601926 -0.0257664 0)
(0.522818 -1.40008 -1.00662e-17)
(-2.0198 1.1491 -2.85604e-16)
(-0.0494234 -0.274093 -2.39686e-20)
(-0.0185348 5.94111 2.77089e-17)
(0.188667 5.51543 -2.87045e-18)
(-0.13396 5.18976 -1.13343e-16)
(0.2122 6.02789 3.09318e-17)
(2.00214 4.57787 -1.43443e-16)
(7.09595 0.337505 7.17347e-17)
(-0.00813456 0.678344 0)
(10.1996 0.977919 0)
(-1.46025 -0.0614798 3.87163e-16)
(-1.03222 0.0515197 5.55642e-16)
(0.0123888 6.63546 1.41182e-16)
(-0.052603 6.86737 -1.29805e-16)
(1.16932 -0.227419 1.24627e-16)
(1.07366 5.89685 -4.12067e-17)
(1.08211 -0.336918 4.7817e-17)
(-0.338701 -0.301983 2.47288e-17)
(0.381032 -0.0939317 1.65301e-19)
(0.320554 0.0101225 -7.14151e-17)
(-0.45582 -0.100502 -9.93862e-18)
(0.430967 2.20678 -5.19534e-17)
(3.4298 -0.0738961 -4.11916e-16)
(0.575885 4.10289 6.71535e-18)
(0.126253 -0.033163 1.77109e-16)
(0.324563 -0.0228481 0)
(0.676598 -0.151037 0)
(0.0994773 3.17893 0)
(0.77183 6.14618 2.30929e-16)
(1.09151 8.73385 2.39376e-16)
(-0.0950315 6.98564 2.24937e-16)
(0.408804 0.11192 4.11874e-17)
(5.84266 3.25873 -3.97001e-17)
(0.319486 0.106422 0)
(-0.229291 -0.18599 1.02281e-16)
(0.592984 -0.885558 3.16858e-17)
(10.5334 0.0574355 -7.65329e-18)
(0.0274139 0.0310976 -1.18525e-16)
(-1.52836 0.249954 3.28383e-18)
(-0.601161 -0.0489088 -1.67154e-16)
(8.94945 0.379266 -2.05971e-17)
(0.632668 1.75864 0)
(3.45088 1.19057 -3.5613e-16)
(3.40886 0.856697 2.10832e-16)
(0.54654 -0.109719 0)
(0.0762472 0.139713 7.90787e-17)
(1.30239 2.29617 -2.6088e-16)
(8.62713 0.157844 0)
(1.68892 5.8467 -4.68777e-16)
(-0.0417135 6.21433 -1.27242e-16)
(0.352727 3.17966 0)
(1.16098 0.553311 0)
(11.3874 0.28325 4.45042e-17)
(10.3597 0.358072 3.43508e-17)
(8.77128 1.22302 1.85678e-18)
(5.33736 2.15791 -5.10553e-21)
(0.320348 2.26319 0)
(1.36186 0.60675 2.06121e-16)
(2.09031 7.30439 -2.97428e-17)
(4.53621 -0.0615029 0)
(0.190747 0.00837371 -4.78378e-16)
(3.75167 2.14124 1.96675e-17)
(0.0866229 0.757272 -1.32955e-16)
(9.35492 0.931943 -5.28122e-17)
(10.8679 0.0437375 7.97064e-17)
(1.66447 1.84193 -1.85972e-16)
(9.9193 0.420503 -1.58586e-17)
(-0.000404113 6.79341 1.55972e-16)
(0.73043 9.03318 4.12817e-17)
(0.582227 6.86238 -1.03744e-16)
(6.74036 3.59676 0)
(0.381705 0.131456 1.65864e-16)
(-0.085553 -0.699673 -1.96835e-16)
(2.06313 0.0869154 2.76893e-17)
(-0.0454068 0.0805423 1.38869e-16)
(0.0435363 7.0649 5.6411e-21)
(-0.0585799 7.34724 2.25481e-19)
(0.548719 5.98969 7.50742e-17)
(3.84423e-05 0.178263 0)
(-0.0965543 -0.146562 0)
(-0.50558 0.00833414 1.08601e-16)
(0.217336 0.107368 1.8263e-16)
(-0.078974 5.32982 -1.07927e-16)
(-0.0386897 5.98442 -3.46472e-18)
(-0.240513 2.37483 0)
(-0.133008 0.09976 -4.95694e-17)
(10.0902 0.110738 8.76205e-17)
(-0.795101 -0.666056 0)
(1.59435 1.26079 -3.63909e-16)
(0.231007 -0.0110328 7.97113e-17)
(0.897321 -0.135157 2.53199e-16)
(0.0177325 6.76942 6.29896e-17)
(-0.151971 7.16473 1.41817e-16)
(9.60003 0.936504 0)
(0.248531 7.3294 -3.65314e-17)
(-0.018551 6.75716 -3.18557e-17)
(9.50003 1.16015 -9.75108e-17)
(2.02259 0.0241778 -4.39416e-20)
(7.2812 1.70323 6.28144e-18)
(-0.159317 6.55183 2.34584e-19)
(-0.0193748 6.03459 0)
(-0.00143466 5.52463 2.96089e-18)
(-0.139965 5.02918 -9.91295e-17)
(0.369654 5.87008 -3.8042e-17)
(3.59493 4.12822 1.44208e-16)
(0.234536 1.58467 3.89416e-17)
(-0.115149 6.90789 2.11022e-16)
(0.00790995 7.08753 0)
(-0.273909 5.42008 -1.42365e-16)
(0.790859 1.3856 2.71271e-17)
(0.0587901 0.116154 -1.6022e-16)
(0.381651 -0.0613967 9.23188e-17)
(0.0124454 0.122525 4.83864e-18)
(-0.389915 -0.448604 1.31982e-16)
(0.48115 -0.0200224 0)
(0.995203 3.46129 1.14898e-17)
(-0.18525 -1.79725 -1.9843e-17)
(0.552005 0.011973 -1.25759e-16)
(8.65956 0.816961 -7.45545e-19)
(-0.0824417 0.841204 -4.51714e-17)
(0.351822 -1.81354 -1.96361e-16)
(-0.232519 0.100931 -2.2491e-16)
(-0.138139 6.36828 -2.12838e-16)
(0.174523 6.62306 0)
(0.572288 0.152956 2.49474e-16)
(-0.151462 6.44389 9.14109e-17)
(0.16483 6.52774 2.34213e-17)
(-0.2604 -0.216918 -7.71709e-17)
(3.52636 3.60463 -1.51943e-16)
(-0.850731 -1.36778 4.94394e-16)
(-0.574371 -1.04625 5.94641e-16)
(0.763227 0.63233 -2.74117e-16)
(0.234754 6.17214 2.37293e-16)
(0.0927324 -0.153376 -4.47747e-16)
(-0.88496 -0.406215 -1.92715e-16)
(0.126519 -1.1419 -1.2067e-16)
(1.1213 9.10895 0)
(9.85108 0.105251 0)
(0.0150662 0.0752859 -3.02543e-16)
(0.412686 -0.403176 2.18003e-16)
(-0.13535 0.281802 -7.0867e-17)
(-0.694087 -0.599666 0)
(0.317718 0.143505 1.31634e-16)
(0.52067 -0.0231744 -3.34552e-20)
(0.69197 0.355253 -6.27671e-16)
(4.08324 0.0838365 2.26641e-16)
(1.00707 5.02203 1.15079e-16)
(-0.127181 6.63589 -2.84361e-16)
(1.3504 -0.292377 4.00959e-16)
(1.17809 1.16454 -1.5157e-16)
(9.73108 0.919375 -1.36855e-17)
(0.561762 3.28394 2.07959e-16)
(0.454314 -0.256408 1.92585e-16)
(0.681936 0.0954849 0)
(-0.927935 0.778023 5.51181e-17)
(2.0833 1.35448 -7.42575e-16)
(-0.140968 0.272329 -2.70224e-17)
(0.209756 -2.04614 2.41664e-16)
(0.102143 2.31377 2.70493e-17)
(8.54795 0.560613 -1.1672e-16)
(9.84917 0.270247 -1.99122e-19)
(-0.464637 -0.0337127 1.90372e-16)
(11.0612 0.050056 0)
(0.325866 0.097314 -5.6393e-18)
(0.463112 -0.178521 3.15867e-18)
(0.470117 0.0495193 -2.02913e-17)
(-0.015318 6.90147 3.97308e-17)
(-0.100879 6.51887 3.99899e-17)
(0.0182447 5.03295 1.78691e-17)
(10.5171 0.0384955 1.45163e-17)
(0.109265 -0.021926 -1.0101e-20)
(-0.330942 7.52789 -4.65565e-17)
(0.4583 -0.144347 -4.53427e-21)
(-0.629028 1.42997 0)
(9.0007 1.72469 -4.40937e-18)
(0.846072 -0.881133 0)
(0.0711649 -0.126792 1.05102e-16)
(0.723732 0.0366051 9.5278e-17)
(-0.0179979 0.484782 5.48949e-18)
(0.613551 0.269162 2.48395e-16)
(-1.16786 -0.210124 2.93404e-16)
(9.34554 0.636842 -1.80036e-17)
(-0.306898 -0.108212 2.69139e-16)
(1.00846 -0.309029 3.24573e-16)
(9.52414 1.09373 9.99133e-17)
(9.74238 0.30988 4.16683e-17)
(5.9462 2.71378 2.51415e-17)
(0.0556402 6.54184 -4.64423e-17)
(-0.0540729 6.53703 2.46816e-17)
(0.0684881 2.6365 1.25089e-16)
(0.184346 1.80349 0)
(4.15112 0.722377 4.75727e-17)
(5.68435 3.08694 8.66054e-17)
(9.0571 -0.173038 -2.03806e-17)
(0.51826 0.858004 1.11012e-16)
(-0.0733209 -0.141116 2.61465e-16)
(0.0462955 0.0201135 0)
(8.85602 1.71742 0)
(0.481086 2.08819 0)
(1.12735 1.97419 2.90726e-16)
(0.350161 -0.131789 1.10721e-16)
(2.30688 4.35459 2.11969e-16)
(0.00547355 5.46137 2.81327e-17)
(1.32706 7.55669 -5.65964e-17)
(0.144127 0.198909 0)
(0.140864 -0.0420285 1.00744e-16)
(-0.0632909 5.77543 -1.27216e-16)
(-1.17493 -0.173731 -6.42481e-16)
(11.2524 0.116057 9.72665e-17)
(5.74065 1.1814 0)
(0.0178281 -1.87403 1.62568e-16)
(1.09002 5.72714 0)
(0.353893 0.0446723 1.79614e-16)
(0.1308 -0.0289671 -2.6091e-17)
(0.90931 9.86649 6.26328e-17)
(9.89327 1.10051 -1.36251e-17)
(9.85662 0.695088 1.03652e-16)
(-1.12814 0.101814 0)
(0.897567 2.64805 -5.45621e-17)
(-0.430214 -0.0272742 0)
(8.5724 0.333046 0)
(0.562941 0.287972 -1.41213e-16)
(0.100422 0.000982257 2.55397e-17)
(-2.76766 4.58219 -1.32711e-16)
(2.88315 0.802676 -1.24761e-16)
(0.672599 2.65737 1.41122e-16)
(10.2766 0.106134 -2.02158e-20)
(5.94888 3.55124 -7.8641e-17)
(1.32197 -1.07689 -2.63963e-19)
(-0.0133726 6.34321 5.69085e-17)
(-0.0505765 6.15604 -5.38466e-17)
(0.618422 2.44479 -1.13649e-16)
(1.21185 6.05612 -2.50485e-16)
(1.37389 1.47701 -1.13887e-17)
(0.136469 -1.22407 -3.39326e-16)
(0.0552337 -0.251347 -2.35396e-16)
(0.597178 0.880852 5.9302e-17)
(0.493897 -0.0237955 2.20724e-16)
(0.291233 -0.151029 -3.2889e-16)
(-0.100875 0.405893 -5.85017e-16)
(0.0987941 -1.56026 -3.47984e-16)
(6.93249 4.19618 3.32847e-18)
(0.29124 0.582913 6.20795e-16)
(10.0687 0.0431684 -6.4084e-17)
(0.426848 0.112264 0)
(-0.279045 2.5237 4.1401e-20)
(3.65822 -0.893648 -1.10213e-16)
(-0.0525678 2.38782 0)
(10.0669 0.421788 4.02393e-17)
(-0.486817 0.0458635 3.11214e-16)
(0.375456 0.00785613 -2.8025e-16)
(8.99579 1.80387 0)
(0.00297971 6.82747 2.49724e-20)
(-0.254464 7.65851 0)
(10.0255 0.0865947 0)
(0.385244 0.224299 -5.34466e-17)
(9.42124 1.26457 -5.30661e-17)
(8.93908 3.9531 -1.85055e-16)
(1.09128 6.99205 2.30936e-17)
(7.30559 2.12334 -1.0724e-16)
(-0.0356759 3.85383 -7.39285e-17)
(0.00504657 4.09847 2.13827e-20)
(-0.0138136 4.40024 -7.30752e-17)
(-0.874714 -1.02812 0)
(-0.0919357 2.43359 1.13866e-16)
(-0.00300993 -0.566837 0)
(0.162624 0.255752 0)
(0.0340174 0.116629 0)
(-0.144744 0.313957 -2.15875e-16)
(0.29458 -0.19955 0)
(-0.0602525 0.258344 1.44439e-16)
(2.85958 2.65565 -2.80706e-16)
(0.199887 3.4151 0)
(-0.299501 5.08361 1.5944e-16)
(-0.195729 6.42197 -2.45785e-17)
(-0.0118438 6.95773 8.23955e-17)
(-0.132619 7.21709 -3.89385e-17)
(0.380754 1.89496 2.2245e-16)
(9.36457 1.03775 -2.75473e-17)
(-0.134026 0.359322 2.28941e-17)
(0.165219 -2.00804 -6.83814e-17)
(0.759417 0.579769 0)
(0.581415 -0.0990946 4.73222e-20)
(4.95855 1.75789 0)
(0.550256 -0.0630055 1.9312e-21)
(3.72054 0.131781 -4.65328e-16)
(10.0441 0.0527171 3.52279e-17)
(-0.287591 7.63581 1.14719e-16)
(-2.38118 2.45946 -2.99074e-16)
(0.104068 -0.264584 0)
(0.232479 -1.34943 8.91759e-16)