/*--------------------------------*- C++ -*----------------------------------*\
| =========                 |                                                 |
| \\      /  F ield         | OpenFOAM: The Open Source CFD Toolbox           |
|  \\    /   O peration     | Version:  v1912                                 |
|   \\  /    A nd           | Website:  www.openfoam.com                      |
|    \\/     M anipulation  |                                                 |
\*---------------------------------------------------------------------------*/
FoamFile
{
    version     2.0;
    format      ascii;
    class       volScalarField;
    location    "0.5";
    object      nut;
}
// * * * * * * * * * * * * * * * * * * * * * * * * * * * * * * * * * * * * * //

dimensions      [0 2 -1 0 0 0 0];


internalField   nonuniform List<scalar> 
1431
(
0.0012493
0.0021733
0.00223526
0.00156377
0.00079925
0.00167244
0.00400474
0.000786714
0.00498059
0.00706434
0.000665628
0.00079098
0.001103
0.00134218
0.00393195
0.000678956
0.00402559
0.00179702
0.000391886
0.000572705
0.000760646
0.00737379
0.00255464
0.00144491
0.00146537
0.000532996
0.00145182
0.00124789
0.00100619
0.00168923
0.00155148
0.000727595
0.00193426
0.00104042
0.000982155
0.00192141
0.000807421
0.000857776
0.00365585
0.00085682
0.00244308
0.000469675
0.00147351
0.00255263
0.00362554
0.00166271
0.00228717
0.00081652
0.000919307
0.000869073
0.00166527
0.00608738
0.00356174
0.00262168
0.00306262
0.000773623
0.00336308
0.00230217
0.00101211
0.000578602
0.00320182
0.000531341
0.00220594
0.000783269
0.000906939
0.00171919
0.00230412
0.00115091
0.00404565
0.000750659
0.000932308
0.000898187
0.000996373
0.0021524
0.000731218
0.00116637
0.00114969
0.0029588
0.000784953
0.00217136
0.000805855
0.00228518
0.00101393
0.00282845
0.00216459
0.000920963
0.000975323
0.000704345
0.00155655
0.000664366
0.00130892
0.000743843
0.00094292
0.000861038
0.00200126
0.000932306
0.000750284
0.000728667
0.00119763
0.00116278
0.00435694
0.000806317
0.00160283
0.000713451
0.000960855
0.0019636
0.000786018
0.00307951
0.00220568
0.000947005
0.00248669
0.00130814
0.000756365
0.000626329
0.000930811
0.00065739
0.00190912
0.00307803
0.00167967
0.00276778
0.000857681
0.00305051
0.00476929
0.00143528
0.000831296
0.00220508
0.00182159
0.000751509
0.00173746
0.000810145
0.000809601
0.00290959
0.00101358
0.00131503
0.000896671
0.000848817
0.000937855
0.00229001
0.00157068
0.00286404
0.00463058
0.000474314
0.000769938
0.000984036
0.00115813
0.00077568
0.000733791
0.00318204
0.000850883
0.000826859
0.000819709
0.000959828
0.00337897
0.000596102
0.000369299
0.000798776
0.000803273
0.000941133
0.000757199
0.000712614
0.00186664
0.000777918
0.00172914
0.00074014
0.000976752
0.00303523
0.000985171
0.000862127
0.00155792
0.00117579
0.00110823
0.000825451
0.00143441
0.000769546
0.000771721
0.000441586
0.000496967
0.000874959
0.00163073
0.000709559
0.000839639
0.00397663
0.000755188
0.000754821
0.000773424
0.000832444
0.000753869
0.00116609
0.000551774
0.0007996
0.00583174
0.00402346
0.00103169
0.000790722
0.00550749
0.000844246
0.000785474
0.00084097
0.000522378
0.00052353
0.000622992
0.000664002
0.000768384
0.00235301
0.000786263
0.00184697
0.000953016
0.000834397
0.00078591
0.000878868
0.000789869
0.000783361
0.00171498
0.000831715
0.00107589
0.00136196
0.000757864
0.00501966
0.001453
0.000833797
0.000830412
0.00225001
0.000777664
0.00210106
0.000825493
0.000874324
0.0010142
0.000844577
0.000840617
0.00169662
0.000925626
0.00101842
0.000747324
0.000797421
0.00079083
0.000784022
0.000736902
0.00178054
0.000827085
0.00278673
0.000842813
0.000733334
0.00550724
0.00332957
0.00086108
0.000873243
0.000830273
0.00204272
0.00171298
0.00100159
0.000725529
0.005294
0.00764288
0.00109942
0.00247392
0.0010933
0.00050942
0.00308846
0.00112754
0.00110201
0.00108187
0.00083684
0.00125942
0.00450033
0.000790476
0.000817719
0.00102734
0.00074491
0.000945546
0.00528739
0.000743725
0.000980689
0.000727289
0.000726789
0.00107158
0.000764376
0.00160183
0.00286726
0.00245752
0.00618942
0.00456502
0.00280274
0.00135825
0.00146757
0.00102468
0.00125169
0.000922992
0.000754401
0.000927299
0.000832934
0.000776733
0.000868596
0.000745842
0.00410625
0.000737242
0.000745707
0.00118704
0.00076249
0.00277757
0.000704764
0.000844663
0.00106235
0.000869401
0.000749911
0.000606348
0.00223152
0.000828758
0.00110028
0.00110985
0.00157429
0.000836477
0.00078377
0.00274702
0.000807134
0.000912346
0.00196929
0.00546861
0.00262911
0.000795824
0.00328182
0.00204435
0.00262769
0.00370701
0.00230785
0.00598836
0.00357469
0.000807026
0.00375598
0.00185108
0.000831125
0.00234093
0.000795819
0.00305606
0.00558102
0.000786458
0.00575222
0.0012009
0.00212951
0.00118439
0.00125658
0.000556474
0.000822785
0.00367906
0.000934462
0.0017044
0.000561348
0.000826104
0.00058214
0.000194558
0.000445708
0.000717449
0.000479353
0.000632865
0.000591092
0.00034169
0.000697717
0.000553789
0.00044289
0.000590721
0.000451079
0.000479095
0.000538772
0.000575716
0.000209513
0.000346371
0.000565582
0.000534087
0.000571528
0.00201504
0.00255386
0.00214026
0.00311902
0.00320667
0.000773226
0.00371673
0.00154471
0.00258601
0.000842221
0.000848853
0.000649792
0.000479126
0.000587854
0.000469823
0.000598722
0.000630641
0.00055624
0.00062797
0.000315659
0.000597517
0.000194964
0.000607117
0.00275453
0.000918064
0.000848693
0.00354654
0.000835173
0.00193171
0.000834654
0.00672279
0.000772238
0.000529827
0.002263
0.000832718
0.00131372
0.00187426
0.000780427
0.00261399
0.00073214
0.00135167
0.00267423
0.000831604
0.00054516
0.0022297
0.00212465
0.00106094
0.00102042
0.00243385
0.00488434
0.00164589
0.00181673
0.00245876
0.00464902
0.00717182
0.00299833
0.00294309
0.00254956
0.00310191
0.005578
0.00606217
0.00280206
0.00540434
0.00227436
0.000425867
0.00630241
0.00292025
0.00266871
0.00584553
0.00591743
0.00340852
0.00403499
0.00363618
0.00116697
0.00615444
0.005915
0.000582818
0.00675255
0.00650021
0.00216461
0.000725235
0.00596283
0.00631214
0.00637676
0.00646058
0.00688923
0.00472625
0.00608648
0.00550596
0.00572814
0.00591515
0.00298169
0.0029679
0.000555658
0.00380024
0.00228817
0.00282152
0.00239878
0.00116697
0.00292073
0.00262971
0.00227547
0.00259456
0.00244278
0.000750214
0.00106771
0.0020929
0.0019174
0.00258637
0.00249109
0.00373667
0.000516433
0.00305987
0.00282007
0.00107867
0.000801002
0.000850445
0.00235266
0.00197623
0.00717178
0.005273
0.000657742
0.000614731
0.000548782
0.00143349
0.00298565
0.00053329
0.00289069
0.00125977
0.00530436
0.000837181
0.00478961
0.0018475
0.0014987
0.00512669
0.00290929
0.00295471
0.00233778
0.00154157
0.00727368
0.00311717
0.00115698
0.001086
0.00218759
0.000743556
0.00176099
0.000792581
0.00321083
0.00325116
0.0013821
0.00309842
0.00234523
0.00271952
0.00333688
0.00440326
0.00122875
0.00282441
0.00572031
0.00152457
0.00445154
0.00356745
0.00555224
0.00083242
0.000750736
0.00385531
0.00392908
0.00603532
0.00460968
0.00414723
0.00503311
0.00671317
0.00215041
0.0031003
0.00349723
0.0023989
0.00469029
0.000505576
0.00719437
0.00548407
0.000796564
0.00672639
0.00126344
0.00426689
0.000423807
0.00107632
0.00551504
0.00303726
0.00176077
0.00383994
0.00268602
0.00103725
0.000758461
0.0065576
0.00340454
0.00471407
0.00379934
0.00247553
0.0016157
0.00666409
0.000737902
0.00273808
0.0031814
0.000609342
0.00650933
0.00254474
0.00682842
0.00279493
0.00119094
0.0059831
0.00290745
0.00316102
0.000956852
0.00265706
0.000798552
0.00162347
0.00275945
0.00112856
0.00442994
0.00178954
0.000778947
0.00194427
0.000801831
0.00400086
0.00238767
0.000848204
0.000769369
0.000760556
0.00383309
0.000769434
0.00577343
0.000736498
0.000640204
0.00209089
0.00139394
0.00130211
0.00493373
0.00460252
0.00695477
0.00081403
0.00106933
0.00652835
0.00197394
0.00160615
0.00674348
0.00205017
0.00548881
0.00182385
0.000742229
0.00251199
0.00335373
0.00459253
0.00684336
0.00117534
0.00168981
0.00151922
0.000874994
0.00500198
0.000935943
0.00100873
0.00089858
0.0065769
0.000805112
0.00618804
0.00135665
0.000574326
0.000805883
0.00219838
0.00626301
0.00111468
0.000729282
0.00104046
0.00121727
0.00429776
0.00598135
0.00080695
0.00672421
0.00407182
0.00371349
0.00365773
0.00416891
0.00729185
0.00123161
0.00232337
0.00145026
0.000758441
0.00109485
0.00456882
0.00642766
0.000820722
0.000841134
0.00610791
0.00682102
0.00277697
0.00120505
0.00114864
0.00122004
0.000827768
0.000620073
0.000848145
0.0074958
0.00684701
0.00282693
0.000990306
0.000822225
0.00128208
0.00282861
0.000820965
0.000775858
0.00164313
0.00160365
0.00107988
0.000996987
0.004055
0.000437627
0.000759448
0.00212525
0.0045428
0.00307058
0.00391347
0.00333463
0.00299769
0.00228957
0.00204075
0.00284424
0.00349567
0.00165036
0.00665103
0.000926789
0.000231585
0.000621799
0.000824706
0.000717871
0.00402972
0.000888024
0.000761288
0.000916413
0.000841258
0.00131137
0.00107717
0.00649542
0.000850404
0.00246395
0.00211388
0.000702239
0.00134173
0.00765587
0.00497692
0.000635459
0.0020681
0.00569061
0.000711111
0.00176378
0.000644457
0.0008398
0.000804261
0.00338063
0.00126045
0.000626238
0.00774876
0.00548788
0.000687486
0.000445114
0.00312692
0.000603683
0.000700898
0.000715715
0.00393038
0.000764096
0.00129726
0.00282027
0.00655956
0.00112025
0.00300592
0.00563792
0.000688233
0.00146788
0.00078462
0.000663505
0.0007498
0.000876073
0.00124601
0.000800319
0.00440745
0.000753642
0.000735253
0.000757723
0.00121746
0.000817296
0.000845059
0.000842719
0.000872712
0.00198628
0.00102834
0.00120361
0.00164762
0.00185838
0.000853442
0.00247904
0.000428733
0.00184317
0.000793533
0.000749927
0.00372315
0.00320905
0.000739352
0.00131397
0.00041775
0.000775561
0.00131987
0.00280712
0.00641751
0.000847977
0.000827255
0.000496672
0.000766335
0.00389862
0.00183085
0.00360863
0.000624791
0.0014554
0.000801686
0.002185
0.00146714
0.00077031
0.000876499
0.000916167
0.00084784
0.000834549
0.000875844
0.00118648
0.00385704
0.000808253
0.00667372
0.00322255
0.000708375
0.00101783
0.000253601
0.00164133
0.00203271
0.00207816
0.00246032
0.00124472
0.000829194
0.000810032
0.00335302
0.0011081
0.00182182
0.000833784
0.000673573
0.000597087
0.000538694
0.00064897
0.000837462
0.000732306
0.000771876
0.00103752
0.000681868
0.000776801
0.000868811
0.0035153
0.00113287
0.00108409
0.00068023
0.000518177
0.00161253
0.00092013
0.00119724
0.00104785
0.00628054
0.00112348
0.000622586
0.00633541
0.000777854
0.000730011
0.000731718
0.000663858
0.00227613
0.000711387
0.00159388
0.00242151
0.00109206
0.000820453
0.00195272
0.00282406
0.00333139
0.000444635
0.00170658
0.000796145
0.00669276
0.00323094
0.000837759
0.000866362
0.000806452
0.00142152
0.00084765
0.00271069
0.00219972
0.00133943
0.00080386
0.000762617
0.000899773
0.00141637
0.000799854
0.00194956
0.00153862
0.00257129
0.000933961
0.000773706
0.00204672
0.00244829
0.00258686
0.000818327
0.00148216
0.00131923
0.00110976
0.00145708
0.000746232
0.0013382
0.00103207
0.00292198
0.00393211
0.000709144
0.000876692
0.00287118
0.00223687
0.000825694
0.000930176
0.00300749
0.000744974
0.00166425
0.00246405
0.000938312
0.00173912
0.00191899
0.00501789
0.00428202
0.000947651
0.0009582
0.000846685
0.00147493
0.00108815
0.000447022
0.00140721
0.000806085
0.00451533
0.00154178
0.00450079
0.00301657
0.00209807
0.000863431
0.000765547
0.00111207
0.00552218
0.000784085
0.00097443
0.00081456
0.000794725
0.0010638
0.00115441
0.000729936
0.00652864
0.000699892
0.00450527
0.000745919
0.000764292
0.000448544
0.000252141
0.000324196
0.000534069
0.000231424
0.000195027
0.00112256
0.000262869
0.000563374
0.000819506
0.000163952
0.0013819
0.000334402
0.00256983
0.00108149
0.00252493
0.000181069
0.00696389
0.000260731
0.000717435
0.0065502
0.00366936
0.00101677
0.000149263
0.00193285
0.00667874
0.00137565
0.00338406
0.00569914
0.00139025
0.00252055
0.00106873
0.00017679
0.000156126
0.00091492
0.00024887
0.00236214
0.00636284
0.00407567
0.00120835
0.000968111
0.00504217
0.00377474
0.000816442
0.000164041
0.000162004
0.000891434
0.00233242
0.000783823
0.00651604
0.0021951
0.00272325
0.000763619
0.000274356
0.00303343
0.000254163
0.00103405
0.000317785
0.000824439
0.00617401
0.00243812
0.000830131
0.00117991
0.00496591
0.000897833
0.00247099
0.00087808
0.000890417
0.00100384
0.000811549
0.00199549
0.00208504
0.000776618
0.00148991
0.00419641
0.000846019
0.00129428
0.00560955
0.00747657
0.000812971
0.00072729
0.000983606
0.00269699
0.00233547
0.00357401
0.00201443
0.0059135
0.00267914
0.00271974
0.00295394
0.00253556
0.00108179
0.00121616
0.00151937
0.00237844
0.000645666
0.00269658
0.00603523
0.00702538
0.00310208
0.00276857
0.000915873
0.00479643
0.00270394
0.000837595
0.00379517
0.00242037
0.0011815
0.000777081
0.000827917
0.00137737
0.00525223
0.00231302
0.0030476
0.00580169
0.000749909
0.00366806
0.00146971
0.000624283
0.00541224
0.00365117
0.00160444
0.00272557
0.00171784
0.000790232
0.00052453
0.000748617
0.00490573
0.00435534
0.000846431
0.000793689
0.000783207
0.00140732
0.000733559
0.000777326
0.000840566
0.00547848
0.0010962
0.000798251
0.00080435
0.00202133
0.000822046
0.00308315
0.000282013
0.000783601
0.000791277
0.000802689
0.00027227
0.000746339
0.00210296
0.00129419
0.000753652
0.000324642
0.0010109
0.00104441
0.000796865
0.004384
0.00265994
0.000743931
0.00183053
0.000769873
0.000534398
0.000217403
0.00127733
0.000833489
0.00181507
0.00237203
0.00188965
0.000306367
0.000766684
0.000909911
0.000461914
0.000865012
0.00265869
0.000975998
0.00119184
0.00080966
0.00105264
0.00471807
0.00343205
0.000697893
0.00183987
0.000902724
0.0027552
0.00223625
0.00101729
0.000798167
0.00246395
0.00227282
0.000790649
0.000279732
0.000939241
0.000242387
0.0023367
0.00238415
0.00264765
0.00318352
0.000788451
0.000462957
0.00105053
0.00516633
0.000436531
0.000720169
0.000733039
0.0010165
0.00258452
0.000479291
0.00153705
0.00105828
0.00576917
0.00712762
0.00160676
0.000800306
0.000821488
0.000349899
0.0017091
0.000822349
0.00297111
0.000725835
0.00140091
0.00400002
0.00188818
0.00180722
0.00425077
0.00116053
0.000518289
0.000836338
0.0013651
0.000232836
0.000942864
0.0016869
0.00656792
0.00166322
0.000770188
0.000570007
0.00148341
0.000267887
0.000840553
0.003017
0.0053315
0.0008261
0.000839351
0.000839723
0.000789337
0.000455409
0.000539467
0.00502041
0.000619447
0.0032329
0.000743596
0.00144386
0.0038263
0.000828079
0.00306371
0.00417176
0.000591963
0.000907888
0.00199841
0.00210838
0.000870567
0.000305401
0.00453363
0.00576536
0.000893972
0.00486915
0.000756128
0.000739516
0.00329518
0.00253532
0.00209138
0.00194317
0.00506733
0.000883577
0.000851788
0.00139123
0.0059285
0.000842422
0.000819721
0.00150998
0.00564066
0.000705844
0.002085
0.00179203
0.00271694
0.000716247
0.0019998
0.00156829
0.00256002
0.00615826
0.000473588
0.000384817
0.00417079
0.000743486
0.000819171
0.00075004
0.0007735
0.00084441
0.000907927
0.0021556
0.000827744
0.000929711
0.000253024
0.00614324
0.00111249
0.000883575
0.00236521
0.00147928
0.00233594
0.00314826
0.0015444
0.001728
0.00210406
0.00515693
0.00107376
0.00102403
0.00252528
0.000733116
0.000964095
0.000715477
0.000791405
0.00198305
0.00325089
0.00625406
0.00210811
0.000622112
0.0057414
0.00159907
0.00122333
0.00334652
0.00345025
0.00354879
0.000770238
0.000844246
0.00283191
0.00233793
0.00155382
0.00461028
0.00259757
0.00249575
0.0010572
0.000829435
0.000731593
0.00081522
0.000871904
0.000696669
0.000839826
0.00101617
0.000595951
0.000776878
0.000826445
0.000964657
0.00323361
0.00267116
0.0059166
0.00574389
0.00780969
0.00226412
0.00264837
0.00115734
0.00344037
0.000744141
0.00102732
0.000845902
0.0019238
0.00423919
0.00126214
0.00127568
0.00578504
0.000785339
0.00395507
0.00516761
0.0077897
0.00609401
0.00656988
0.00077487
0.0027925
0.0074073
0.000845588
0.000785084
0.000707904
0.00357146
0.00159027
0.00078595
0.00266296
0.00483096
0.00158844
0.00234193
0.00111726
0.000287053
0.00305995
0.0077144
0.00322688
0.00236733
0.00104026
0.00085521
0.004947
0.00142664
0.00216723
0.00292959
0.00172624
0.00159058
0.000758103
0.000885734
0.00206035
0.000819418
0.00097917
0.000852043
0.000734281
0.000764742
0.0024778
0.000826985
0.00023006
0.000785122
0.00188868
0.000802266
0.000852587
0.000778108
0.000886061
0.00068334
0.00170653
0.00143812
0.00267113
0.00148052
0.00186635
0.000858804
0.000697287
0.00298188
0.00174361
0.0028164
0.000730587
0.0027613
0.00293894
0.00247916
0.000581719
0.000751462
0.000736691
0.000696422
0.00094772
0.000828665
0.000741808
0.00104706
0.00172241
0.001717
0.00301671
0.000976537
0.000804644
0.00710741
0.000750205
0.00196143
0.00228042
0.00287556
0.000812163
0.00102896
0.00181809
0.000843027
0.000533478
0.000715201
0.000885125
0.00109221
0.00137498
0.00206655
0.00586736
0.00124826
0.00119042
0.00104281
0.000551443
0.000737996
0.000967223
0.00083723
0.000832944
0.00134486
0.0035668
0.00156107
0.000878268
0.000911362
0.00091438
0.000792927
0.00288992
0.00392245
0.0053744
0.00785899
0.000741545
0.000666558
0.00528991
0.0075871
0.00576239
0.00762872
0.00317542
0.000803807
0.000758161
0.00113769
0.000739443
0.000873369
0.00105747
0.0016297
0.000852298
0.000860104
0.00105077
)
;

boundaryField
{
    frontAndBack
    {
        type            empty;
    }
    wallOuter
    {
        type            nutkWallFunction;
        Cmu             0.09;
        kappa           0.41;
        E               9.8;
        value           nonuniform List<scalar> 
90
(
8.20004e-05
7.67425e-05
7.78025e-05
7.5654e-05
8.28067e-05
8.44049e-05
8.61473e-05
9.41048e-05
8.00407e-05
8.8422e-05
9.10195e-05
9.51272e-05
9.01213e-05
9.30651e-05
9.20096e-05
0.000104566
9.97446e-05
8.12189e-05
7.22027e-05
6.52305e-05
7.83331e-05
0.000100167
8.80649e-05
9.26444e-05
8.00826e-05
0.000112643
0.000113722
8.77883e-05
8.41961e-05
5.29169e-05
2.93287e-05
3.70031e-05
6.40514e-05
2.58769e-05
2.11841e-05
1.7464e-05
2.06005e-05
3.06762e-05
8.65708e-05
1.57792e-05
1.99904e-05
1.68792e-05
0.000109405
2.89954e-05
1.81692e-05
1.78159e-05
3.03536e-05
0.000122811
3.79227e-05
0.000107027
0.000116623
7.79646e-05
7.54258e-05
9.52759e-05
9.66824e-05
3.21154e-05
3.88324e-05
0.000120187
0.000123352
8.94116e-05
6.47156e-05
2.55409e-05
3.68293e-05
0.000108688
9.69767e-05
8.39884e-05
0.000107538
3.32251e-05
0.000112044
2.88718e-05
6.27075e-05
2.69518e-05
9.23823e-05
3.20595e-05
9.9201e-05
7.48123e-05
7.15935e-05
0.000103939
3.66103e-05
0.000106847
5.73477e-05
0.000110954
2.96708e-05
7.51687e-05
7.18633e-05
3.44465e-05
9.92791e-05
2.6536e-05
8.23621e-05
8.38908e-05
)
;
    }
    inlet
    {
        type            calculated;
        value           uniform 0.000851986;
    }
    outlet
    {
        type            calculated;
        value           nonuniform 0();
    }
    wallInner
    {
        type            nutkWallFunction;
        Cmu             0.09;
        kappa           0.41;
        E               9.8;
        value           nonuniform List<scalar> 
138
(
9.58884e-05
4.74983e-05
0.000219373
0.000123126
0.000115228
5.7215e-05
0.000257767
0.00013761
0.000110772
0.000106403
0.000137122
0.000120037
7.32967e-05
4.25069e-05
5.38641e-05
6.122e-05
6.07628e-05
6.18649e-05
7.56868e-05
8.00996e-05
0.000236839
0.0001289
6.23613e-05
0.000132689
0.000129864
0.000127634
0.000121559
0.000126494
0.00012126
0.000129673
0.000130733
6.67687e-05
6.8092e-05
7.16658e-05
2.16385e-05
5.43881e-05
8.74081e-05
5.90949e-05
7.76562e-05
7.20349e-05
4.19717e-05
8.51068e-05
6.81812e-05
5.26519e-05
7.1929e-05
5.51985e-05
5.87611e-05
6.63816e-05
7.02192e-05
2.39487e-05
4.02491e-05
6.96578e-05
6.52794e-05
6.98514e-05
7.89472e-05
5.90387e-05
7.22048e-05
5.68984e-05
7.35813e-05
7.7172e-05
6.79038e-05
7.64031e-05
3.79867e-05
7.2779e-05
2.20395e-05
7.47143e-05
6.5048e-05
6.63567e-05
0.000120922
5.22174e-05
0.000137991
7.02448e-05
8.80576e-05
6.69446e-05
0.0001262
6.24876e-05
0.000127423
7.98506e-05
7.4399e-05
6.6144e-05
6.43819e-05
0.000147514
0.000173427
0.000136818
0.000128848
0.000160813
6.23635e-05
5.0871e-05
0.000127011
0.000122662
7.51078e-05
7.84439e-05
7.01733e-05
7.57419e-05
5.38186e-05
2.68262e-05
7.6594e-05
5.46334e-05
7.3794e-05
8.29104e-05
0.000123898
5.23155e-05
5.09201e-05
6.13206e-05
0.000109193
2.97843e-05
8.32463e-05
0.000132239
7.59956e-05
5.43455e-05
5.4498e-05
0.000125633
3.14057e-05
6.94879e-05
3.9691e-05
0.000114972
9.18457e-05
3.2274e-05
0.000106788
0.000119282
6.39984e-05
3.33073e-05
9.39951e-05
5.72888e-05
5.6538e-05
5.34039e-05
9.84134e-05
4.18142e-05
5.56499e-05
6.61348e-05
4.65841e-05
8.0369e-05
0.000133933
8.88723e-05
0.000104854
0.00018739
0.00010119
0.000125943
)
;
    }
    procBoundary0to1
    {
        type            processor;
        value           nonuniform List<scalar> 
29
(
0.00390229
0.00398783
0.00380702
0.00380702
0.00506764
0.00506764
0.00302188
0.00135571
0.00187958
0.00452614
0.00260925
0.00192565
0.00136312
0.00125578
0.00239465
0.00135644
0.00785415
0.00585428
0.00532078
0.00382586
0.000895656
0.000740838
0.00319695
0.00074529
0.000727057
0.00585428
0.000733934
0.000912718
0.00074529
)
;
    }
    procBoundary0to2
    {
        type            processor;
        value           nonuniform List<scalar> 
42
(
0.00759303
0.00601455
0.00112938
0.000901904
0.00177179
0.00759303
0.00112938
0.00150197
0.00166932
0.00152218
0.00258061
0.00339935
0.00258061
0.00361022
0.00362653
0.00761512
0.00362653
0.00131824
0.00167752
0.00389403
0.00389403
0.00131824
0.00111987
0.00333485
0.00333485
0.00089937
0.00547342
0.000748582
0.00719266
0.00550308
0.00550308
0.000759104
0.000850383
0.000938647
0.00105429
0.00112938
0.00374131
0.000282437
0.00719266
0.00150197
0.00152294
0.0012749
)
;
    }
}


// ************************************************************************* //
