/*--------------------------------*- C++ -*----------------------------------*\
| =========                 |                                                 |
| \\      /  F ield         | OpenFOAM: The Open Source CFD Toolbox           |
|  \\    /   O peration     | Version:  v1912                                 |
|   \\  /    A nd           | Website:  www.openfoam.com                      |
|    \\/     M anipulation  |                                                 |
\*---------------------------------------------------------------------------*/
FoamFile
{
    version     2.0;
    format      ascii;
    class       volScalarField;
    location    "0.65";
    object      nut;
}
// * * * * * * * * * * * * * * * * * * * * * * * * * * * * * * * * * * * * * //

dimensions      [0 2 -1 0 0 0 0];


internalField   nonuniform List<scalar> 
1466
(
0.000943425
0.00204391
0.00135792
0.00364976
0.00132759
0.00235572
0.00283182
0.00175113
0.00074626
0.00231046
0.00299526
0.00229826
0.000737389
0.00160594
0.00555855
0.00615099
0.00164674
0.00100573
0.00496684
0.00327432
0.00540973
0.00811762
0.00391511
0.00305164
0.00076424
0.00409799
0.00512709
0.00401059
0.000845225
0.00382311
0.00351855
0.00386286
0.00169624
0.0100156
0.00304276
0.00187111
0.0114494
0.00151469
0.00214563
0.000993225
0.000994621
0.00195887
0.00189854
0.000912293
0.000820912
0.000952138
0.00187925
0.000728572
0.00151163
0.000750678
0.00108919
0.00167388
0.00167502
0.000990955
0.000820323
0.00101442
0.00075621
0.00209914
0.000916105
0.00200974
0.00573704
0.00313684
0.0024134
0.00349456
0.00550357
0.00191287
0.00825934
0.00351067
0.00220952
0.000920305
0.00752581
0.0011233
0.000909596
0.000919089
0.00383286
0.00267209
0.00298495
0.00228388
0.00130677
0.0038313
0.00288186
0.00515002
0.00125346
0.0032052
0.00516289
0.00525557
0.00753676
0.00320812
0.00250335
0.00273772
0.00503544
0.0045985
0.0039547
0.00344759
0.00174601
0.00107284
0.0018772
0.00178856
0.000824953
0.000897886
0.0014657
0.000893033
0.000652232
0.00168196
0.00222125
0.00181825
0.00145303
0.00081272
0.00190152
0.000808094
0.00571464
0.00308385
0.00207246
0.00175324
0.00155358
0.00642546
0.00302084
0.00166235
0.00223453
0.00190152
0.00592735
0.00286972
0.00191365
0.00103906
0.000832917
0.00153776
0.00278876
0.00402361
0.00321941
0.00449512
0.00175173
0.00194649
0.00344579
0.00281801
0.00521336
0.000906697
0.000913418
0.00102095
0.0014126
0.00132596
0.000952491
0.00458233
0.00471772
0.00447535
0.0082318
0.00713582
0.00390374
0.00530734
0.0045545
0.00305835
0.00533129
0.00342282
0.00255221
0.00163901
0.00495971
0.00811058
0.0036544
0.00575667
0.00448642
0.0021296
0.00389856
0.00352688
0.00145646
0.00469167
0.007725
0.00333692
0.00423262
0.00479818
0.00521954
0.00321856
0.00550264
0.00281461
0.000770595
0.0023495
0.00103032
0.00087509
0.00351561
0.00428323
0.00549593
0.00607379
0.00086787
0.00390926
0.00532307
0.000592414
0.00313359
0.0055498
0.00538703
0.00274624
0.00218915
0.00155624
0.00579971
0.00506326
0.00359704
0.00813802
0.00193082
0.00620117
0.000655005
0.00329938
0.00685464
0.0076857
0.00277788
0.00450817
0.00329361
0.00519146
0.00756535
0.0079837
0.00638799
0.00240371
0.00447321
0.00325223
0.00455939
0.00471997
0.00455349
0.00508536
0.00590991
0.00472756
0.00581278
0.00579448
0.00343303
0.00387033
0.00452949
0.00633331
0.00489013
0.00660207
0.00508549
0.005692
0.00680627
0.00110682
0.00551716
0.00628252
0.0055675
0.00319082
0.00872436
0.00962427
0.00296901
0.00802196
0.0045591
0.00471667
0.00461991
0.00572487
0.00236355
0.00370445
0.00316009
0.00749526
0.00395858
0.00327429
0.00379965
0.000911124
0.00405071
0.00290182
0.00588758
0.00597733
0.00224802
0.00344173
0.00301849
0.00555928
0.00316643
0.00109704
0.00133429
0.00193996
0.00124139
0.00318439
0.00270435
0.00608631
0.00343994
0.000530733
0.000936357
0.00484075
0.00531591
0.00128416
0.00166145
0.00141431
0.00106881
0.00426365
0.00507171
0.00683218
0.00606827
0.00408455
0.00537354
0.0044254
0.00593645
0.00624267
0.00483956
0.00328359
0.00873246
0.00127609
0.00484676
0.00494415
0.000978764
0.00184624
0.00185806
0.000666481
0.000801662
0.000854285
0.00322978
0.00102469
0.00158003
0.00138529
0.00458077
0.00597173
0.00146818
0.00647517
0.000479169
0.000888947
0.00564647
0.0116855
0.00846649
0.00123319
0.00298069
0.00802532
0.00239305
0.00549388
0.0037975
0.00469776
0.00446685
0.00373497
0.00922321
0.00300091
0.00127804
0.00569482
0.00094135
0.00149352
0.00150126
0.00570073
0.00578793
0.00162689
0.00133158
0.00298613
0.00540223
0.0051308
0.00388126
0.0017257
0.00172313
0.00292075
0.00525359
0.000856809
0.00546059
0.00482143
0.00942023
0.00427217
0.00292382
0.00254051
0.00149973
0.00383696
0.00348805
0.000433589
0.00312256
0.00304781
0.00225279
0.00485728
0.00172577
0.000925226
0.00336921
0.00715747
0.00987673
0.00702713
0.00292744
0.000639397
0.00106455
0.00302915
0.00919271
0.00630712
0.00485312
0.00728685
0.00124688
0.00934306
0.00226685
0.00217967
0.0011809
0.00320466
0.00293936
0.0076844
0.0014789
0.00279969
0.00163557
0.0130267
0.00380173
0.0014757
0.00343555
0.00349237
0.0108078
0.0121012
0.0112244
0.0117274
0.0134217
0.0127193
0.00151479
0.00148674
0.00122217
0.00123377
0.00831232
0.0151611
0.00810213
0.0149729
0.00834479
0.00359995
0.00131515
0.00151592
0.00730657
0.000786043
0.001381
0.0012259
0.00281635
0.00172758
0.00296396
0.0113803
0.00275999
0.00299077
0.00952248
0.00952641
0.00475496
0.00306113
0.00316638
0.0106718
0.00332887
0.00172084
0.00156431
0.003027
0.00558168
0.00375429
0.00959919
0.0104534
0.00422849
0.0029282
0.00437507
0.00321501
0.00783492
0.00151549
0.00400901
0.0032098
0.00652004
0.00553508
0.0016515
0.00172105
0.00481932
0.000642819
0.00146804
0.00081956
0.00137814
0.00680626
0.00172554
0.00104144
0.00643905
0.00157109
0.00553777
0.0027593
0.00137536
0.0051657
0.00213008
0.00525714
0.00538977
0.00197954
0.0011481
0.000901483
0.0126663
0.00108816
0.00151541
0.00142925
0.00109326
0.00577023
0.00141667
0.00812926
0.00133261
0.00193475
0.00519307
0.00291486
0.0140019
0.0078539
0.00778069
0.0132877
0.00756857
0.00146665
0.00630929
0.00151207
0.00617136
0.00387328
0.00317127
0.00723459
0.0107209
0.00591848
0.00314094
0.00346211
0.00459021
0.010213
0.00874109
0.00213064
0.00526733
0.00579847
0.00861821
0.00523281
0.00965944
0.0038177
0.00164329
0.0146873
0.00457831
0.015918
0.0146712
0.0142036
0.00393795
0.00872131
0.0122576
0.0111392
0.00208299
0.00751135
0.00140794
0.00857547
0.00353693
0.00610311
0.00537376
0.0158349
0.00578969
0.00790033
0.00618039
0.00165736
0.0150673
0.00806019
0.0118439
0.000888315
0.00140676
0.00171115
0.01314
0.00916297
0.0103565
0.00245254
0.00735522
0.0129542
0.0107368
0.0045877
0.0136171
0.00980206
0.00146989
0.00171901
0.00882523
0.0156741
0.0153574
0.0113076
0.00245486
0.0037349
0.0123154
0.00394399
0.00200219
0.00799936
0.00131299
0.00704103
0.0141962
0.00252575
0.0146638
0.00185737
0.00871974
0.00647391
0.00827881
0.00711872
0.00921364
0.0148713
0.00170124
0.0157096
0.0159817
0.00891097
0.00196916
0.00158611
0.00959844
0.0102558
0.00587194
0.00301275
0.00124192
0.00789445
0.0152628
0.0103155
0.00385961
0.0113292
0.00603043
0.0102752
0.00462499
0.00434118
0.00268052
0.00584958
0.000950034
0.0128614
0.0156599
0.00405125
0.0049682
0.0112561
0.0146053
0.00800455
0.00976834
0.00449233
0.00589984
0.00108216
0.0160675
0.00872031
0.00744964
0.00218638
0.00898028
0.0143218
0.00655986
0.00477708
0.00456108
0.00302452
0.00301067
0.00549128
0.00372837
0.00136008
0.00119382
0.00264435
0.00946649
0.00921835
0.00590304
0.00161537
0.00595224
0.0107829
0.00300004
0.00358442
0.0019862
0.00229374
0.00351168
0.00285533
0.00414796
0.00237175
0.00198382
0.00585759
0.00250619
0.00127251
0.00593701
0.00147404
0.00197902
0.0138323
0.00177623
0.00949584
0.0101338
0.0129197
0.00732731
0.00201919
0.00207308
0.00126244
0.0124741
0.00131888
0.00586115
0.00595317
0.00493982
0.00365328
0.00897618
0.0033621
0.00310961
0.00663363
0.0100997
0.00133396
0.00933076
0.00974526
0.00301186
0.00240979
0.0119384
0.00102414
0.00414046
0.00147833
0.0110328
0.0100405
0.00806894
0.00157639
0.00549071
0.000929347
0.0103788
0.00333608
0.00138061
0.00142333
0.0101812
0.0039777
0.00268625
0.0049586
0.00392451
0.00608633
0.00120709
0.00502308
0.00603101
0.00116921
0.00564839
0.00141598
0.00666267
0.00247109
0.00181946
0.00175834
0.00376638
0.00159195
0.0029823
0.00936404
0.00062692
0.00782526
0.00071338
0.000458655
0.00386769
0.000486229
0.0104528
0.00171049
0.00158487
0.00257248
0.000682461
0.000461009
0.00276592
0.00833313
0.000710799
0.00749293
0.00905186
0.000720608
0.000465351
0.00536459
0.0104025
0.00918677
0.00496666
0.00300187
0.000473897
0.0100487
0.00415087
0.0070708
0.0011794
0.00316759
0.00908536
0.00400305
0.00185902
0.00892244
0.00998206
0.00413459
0.00241911
0.0079673
0.0092013
0.00296923
0.00163692
0.00975561
0.00360528
0.0121592
0.0103182
0.000450566
0.00806751
0.0026401
0.00917089
0.00157914
0.00804271
0.00709851
0.00109234
0.00636438
0.00140354
0.00837079
0.0121855
0.00515646
0.0110511
0.000919556
0.00344169
0.00416447
0.000754535
0.000507572
0.00567397
0.00303001
0.00368587
0.00468733
0.00367989
0.00116938
0.0032055
0.00623772
0.00548428
0.00379932
0.0013614
0.00387977
0.00493569
0.00233012
0.0069854
0.00462147
0.0100981
0.00337205
0.00409879
0.00376143
0.00598616
0.0055011
0.00549216
0.00427739
0.00175613
0.00304941
0.00846122
0.00552528
0.00409777
0.000572776
0.012566
0.00257038
0.0129604
0.0068722
0.00439204
0.00170814
0.0105538
0.00157942
0.00624613
0.0137451
0.00912921
0.00327624
0.0115473
0.0103535
0.00556399
0.00372249
0.00431107
0.00151028
0.00782587
0.00308612
0.00163219
0.0107797
0.00787554
0.0070374
0.00938227
0.00159599
0.00170856
0.00107228
0.000401862
0.00123462
0.00850641
0.0039946
0.00112926
0.00501736
0.00408791
0.0030929
0.00727308
0.00180725
0.00525484
0.00419992
0.005095
0.00671043
0.00311784
0.00897656
0.00281684
0.00435392
0.00254111
0.00394431
0.00508314
0.0012982
0.00157758
0.00392233
0.00395032
0.00506619
0.00554103
0.0105787
0.00122194
0.00334255
0.00325316
0.000524805
0.00514554
0.00618359
0.00681642
0.00917264
0.00960461
0.00201942
0.00976226
0.00197228
0.000767901
0.00875938
0.00284325
0.00450533
0.00792164
0.00295267
0.00347987
0.0155701
0.00973055
0.00533628
0.00317838
0.00268767
0.00367814
0.00369118
0.00915416
0.0108108
0.000949201
0.0107291
0.00440269
0.00118371
0.00333412
0.00191261
0.00478149
0.016172
0.00931645
0.00239433
0.0077665
0.00459767
0.0111104
0.0109828
0.00966958
0.00104705
0.00100176
0.00103144
0.00086794
0.000889301
0.000986113
0.00080907
0.00128758
0.00129051
0.00131599
0.00129304
0.0012228
0.00116034
0.00119766
0.0012317
0.00130624
0.000918184
0.00103641
0.00125908
0.0011715
0.00129823
0.00111052
0.0011094
0.00111647
0.00114967
0.000990469
0.00317932
0.000736603
0.000517343
0.00881557
0.00198682
0.0020844
0.00722191
0.00169051
0.00521147
0.00826147
0.00389348
0.00983629
0.00363094
0.000733833
0.00131463
0.00567843
0.00895126
0.00870112
0.00596692
0.00316154
0.00443276
0.00264429
0.0101757
0.00759371
0.00115777
0.00295652
0.00213442
0.00093658
0.000477776
0.000890605
0.00247387
0.00434654
0.00840203
0.00745492
0.00122457
0.00346808
0.00440989
0.0018284
0.00405637
0.0015112
0.00800856
0.00344077
0.00259911
0.00492423
0.00111382
0.00225261
0.00151446
0.00740715
0.00378082
0.00412037
0.00811374
0.00262337
0.00788533
0.00387798
0.00559624
0.00750309
0.00371714
0.00994941
0.00161394
0.00104637
0.000774246
0.00373191
0.00607784
0.00106558
0.00384524
0.0117811
0.00899779
0.00125746
0.00593445
0.00824836
0.00576922
0.00446025
0.0019353
0.00678252
0.0044734
0.00177436
0.00470547
0.00132348
0.00424859
0.00530995
0.0112071
0.00130906
0.00110385
0.00926059
0.0035685
0.00747874
0.00322152
0.00255046
0.00159182
0.00618149
0.0033214
0.0067289
0.00964837
0.00413893
0.00837764
0.00105923
0.00208675
0.0104689
0.00477503
0.00988465
0.00125115
0.00104695
0.00379941
0.00291726
0.00162763
0.0053634
0.000744791
0.00138797
0.00722269
0.00134686
0.000381779
0.0022376
0.000915733
0.0075727
0.00600983
0.00202725
0.00797517
0.000904408
0.00144862
0.010261
0.00331685
0.00636248
0.00119698
0.00101526
0.00428194
0.00320433
0.00205129
0.0034531
0.00621035
0.00647805
0.00279415
0.00223616
0.00691392
0.00494495
0.00448376
0.006724
0.00082651
0.00616139
0.000842546
0.00331263
0.00229893
0.000758193
0.00159994
0.00264729
0.000598005
0.00201206
0.00928483
0.0035936
0.00223198
0.00352046
0.00423592
0.000945926
0.00415485
0.00525538
0.00760841
0.0054191
0.0014424
0.00164893
0.000941848
0.000724392
0.000764874
0.00289801
0.00684009
0.00101904
0.00262157
0.00165761
0.000248973
0.00564831
0.0109887
0.000550541
0.00210584
0.000575195
0.00192346
0.000971939
0.000559152
0.000580539
0.0048769
0.00439421
0.000731368
0.0010867
0.000460188
0.000502747
0.000483906
0.000460482
0.0010087
0.00103075
0.000533133
0.00059286
0.000611301
0.000595085
0.000923194
0.0103685
0.00686759
0.00507498
0.00611052
0.00522607
0.00913768
0.00469434
0.00116397
0.000983563
0.0101499
0.00404866
0.00274921
0.00154966
0.00594134
0.00376428
0.0090975
0.00953225
0.000477887
0.00710602
0.00249651
0.00409254
0.000653523
0.00306502
0.00291963
0.00633513
0.00201726
0.0053619
0.00675346
0.00338938
0.000834073
0.00101972
0.00091668
0.00172953
0.00544939
0.00322522
0.00422405
0.00287924
0.00319112
0.00463812
0.00161496
0.0139779
0.00965605
0.00405065
0.00539524
0.00691275
0.0096574
0.00996911
0.00166761
0.0016885
0.00507262
0.00424354
0.00405262
0.00402855
0.00939807
0.00537881
0.00306455
0.011026
0.00105731
0.00106381
0.00779203
0.00292731
0.00123074
0.0023563
0.00326604
0.0041734
0.00857967
0.00129361
0.00347538
0.00103999
0.000868385
0.00533666
0.0111654
0.002728
0.00987105
0.00668556
0.00244702
0.00373518
0.00913346
0.0153448
0.00362775
0.00260712
0.00978123
0.00342918
0.00840754
0.00813949
0.0106168
0.0112184
0.00173049
0.00447294
0.00413519
0.00380002
0.00243339
0.00821671
0.00707968
0.0100537
0.00405191
0.00567084
0.00210951
0.0102921
0.00689018
0.00348163
0.00320579
0.00312296
0.00137636
0.00292772
0.00485426
0.00380563
0.00304923
0.00369663
0.0028718
0.00279248
0.00624215
0.00926135
0.000960336
0.00180595
0.00393931
0.00279075
0.00334157
0.00460183
0.00350415
0.00224857
0.00092738
0.00386255
0.000909641
0.00286634
0.00965031
0.00985449
0.00148793
0.00297506
0.000925759
0.00802721
0.00250139
0.00157104
0.00642502
0.00311131
0.00964401
0.00829532
0.00415271
0.00363022
0.00150538
0.00523268
0.00614416
0.00762391
0.00173101
0.00151221
0.0063691
0.00146695
0.0103584
0.00266599
0.00217978
0.00298675
0.00632548
0.00557904
0.00103072
0.00795921
0.00189043
0.00089603
0.0092962
0.00547304
0.00335146
0.00280073
0.00213357
0.0105614
0.00237817
0.00560254
0.00307871
0.00294843
0.00512051
0.0049529
0.0070208
0.0109312
0.0103375
0.00237422
0.0020638
0.00175945
0.00387353
0.000789638
0.00309391
0.00340488
0.000489275
0.00962294
0.00578
0.00356466
0.00917539
0.00322812
0.00631862
0.0034912
0.000947338
0.00345149
0.00457108
0.00205559
0.00185007
0.00162338
0.0132308
0.00808855
0.00992783
0.0092183
0.00462907
0.00195341
0.00402636
0.00270853
0.000853499
0.0014333
0.00561062
0.000993071
0.00433543
0.00478976
0.00679085
0.0059878
0.00385375
0.00848279
0.000920563
0.00364645
0.00646819
0.00561772
0.00164726
0.00668983
0.00808879
0.00289477
0.00214184
0.00309185
0.00610598
0.0095409
0.0010612
0.000401266
0.00368351
0.00417147
0.00318949
0.00906552
0.00673669
0.000674605
0.00335786
0.000506363
0.000904371
0.00137897
0.00167315
0.0032151
0.00909712
0.000404105
0.00940698
0.0135804
0.00893878
0.00154483
0.00138612
0.00734804
0.00102152
0.00383506
0.00242465
0.00385567
0.00758701
0.00132259
0.00358763
0.00334248
0.00321296
0.00200976
0.0030115
0.00113308
0.00546286
0.00309552
0.00596838
0.0010667
0.00382158
0.00308814
0.00375045
0.00318815
0.00333726
0.00787817
0.00273534
0.00323126
0.00262952
0.0033873
0.00791602
0.00266895
0.00150577
0.000244758
0.000382569
0.00284439
0.00494668
0.00305708
0.00591565
0.00454054
0.00111773
0.00207369
0.0100856
0.0061867
0.00452001
0.00350179
0.00392315
0.00562745
0.0111431
0.00164814
0.00284163
0.00461018
0.0024322
0.00611147
0.00265743
0.00277267
0.00553469
0.00322389
0.00496893
0.00468405
0.00328223
0.00516882
0.00580859
0.00577984
0.00304866
0.00174367
0.00503415
0.00338141
0.00523691
0.00431742
0.00349164
0.00302478
0.00673404
0.00388419
0.00612541
0.00319833
0.00783923
0.0106859
0.00289409
0.00109004
0.00682941
0.00257521
0.00281814
0.0023368
0.0031878
0.00325798
0.00413022
0.00489844
0.00309041
0.00325638
0.000745061
0.00396902
0.00401929
0.00312511
0.0050927
0.0017231
0.00214583
0.00091687
0.00164861
0.000892039
0.000853913
0.00163995
0.00226005
0.000821275
0.00104123
0.0011999
0.000759805
0.00153486
0.00172761
0.00108359
0.000758315
0.00167805
0.0023978
0.00153978
0.00132298
0.000973969
0.00178829
0.000730499
0.000844963
0.000973359
0.000902253
0.000709811
0.000874326
0.0020361
0.000624192
0.000582432
0.0018304
0.00074541
0.00132807
0.00117045
0.00231106
)
;

boundaryField
{
    frontAndBack
    {
        type            empty;
    }
    wallOuter
    {
        type            nutkWallFunction;
        Cmu             0.09;
        kappa           0.41;
        E               9.8;
        value           nonuniform List<scalar> 
108
(
0.000119161
0.000132232
0.00010807
5.8121e-05
5.25267e-05
7.56757e-05
8.58206e-05
5.54569e-05
5.88211e-05
8.22006e-05
5.57494e-05
8.55281e-05
8.66525e-05
5.62746e-05
5.73289e-05
5.46135e-05
0.000128616
9.06226e-05
6.15477e-05
6.92473e-05
4.85763e-05
0.000132709
6.34924e-05
9.21738e-05
0.000123496
0.00011846
0.000121747
0.000103431
0.000105825
0.000116772
9.67052e-05
0.000150155
0.000150585
0.000153362
0.000150761
0.000143076
0.000136212
0.000140353
0.00014416
0.000152307
0.000109289
0.000122542
0.000147174
0.000137581
0.000151487
0.000130862
0.000130584
0.000131356
0.000135011
0.000117165
6.27363e-05
8.82181e-05
0.000135897
5.7814e-05
0.00013119
0.000123549
9.29134e-05
0.000129938
0.000123823
4.60682e-05
0.000107755
0.000140356
0.000119942
0.000100746
9.10697e-05
7.23671e-05
0.000112476
8.71153e-05
9.18323e-05
0.000120757
2.9012e-05
2.9012e-05
6.67056e-05
6.95928e-05
6.76929e-05
7.02177e-05
0.000128012
5.57507e-05
6.09181e-05
5.86447e-05
5.57798e-05
0.000119536
0.000122013
6.45241e-05
7.16649e-05
7.38535e-05
7.19383e-05
0.000109904
0.000136724
0.000116401
5.78214e-05
7.89374e-05
9.9499e-05
0.000120717
0.00012497
0.000125696
0.000122981
0.000103411
0.000108381
5.92183e-05
0.000101965
0.000117801
4.84925e-05
6.13926e-05
4.88406e-05
2.84513e-05
4.61464e-05
0.000131668
)
;
    }
    inlet
    {
        type            calculated;
        value           nonuniform 0();
    }
    outlet
    {
        type            calculated;
        value           nonuniform 0();
    }
    wallInner
    {
        type            nutkWallFunction;
        Cmu             0.09;
        kappa           0.41;
        E               9.8;
        value           nonuniform List<scalar> 
126
(
0.000174613
0.000241018
0.000119059
0.000119735
0.000221379
0.000214863
0.000110141
9.91009e-05
0.000114254
0.000213496
8.72845e-05
0.000174134
9.01804e-05
0.000128309
0.000191703
0.000191545
0.000118251
9.87755e-05
0.000120191
9.21727e-05
0.00023625
0.000108931
0.000226875
0.000152655
0.000127539
0.000213111
0.000203928
9.87553e-05
0.000107848
0.000169303
0.000106384
7.83416e-05
0.000192259
0.000248143
0.000206395
0.000167858
9.77371e-05
0.000215502
9.83878e-05
0.000199739
0.000178797
0.000124374
0.00010051
0.00019989
0.000220197
0.000109858
0.00011035
0.000120834
0.000113284
0.000168392
0.000121893
7.96549e-05
0.00015511
0.000219538
0.000145185
6.42209e-05
0.00011133
0.000190242
0.00016377
0.000126183
8.17308e-05
0.000102212
0.000121263
0.000181565
0.000111925
0.000172297
0.000173231
7.71178e-05
0.000138124
0.000170953
0.0001706
0.000174905
9.47442e-05
0.000174885
0.000188654
0.000196672
7.79895e-05
9.81194e-05
0.000123261
0.000135731
0.00012872
0.000129462
0.000189891
0.000196449
0.000194557
0.000202031
0.000180935
0.00018733
0.000138215
0.00021631
0.000166924
0.000153861
0.000133176
0.000196923
0.000109126
0.000188316
0.000106413
0.000102408
0.000187647
9.76418e-05
0.000124117
0.000140691
9.08616e-05
0.000177163
0.000196625
0.000127858
9.11819e-05
0.000191919
0.000266946
0.000177437
0.000153922
0.000115603
0.00020382
8.78676e-05
0.00010106
0.000115602
0.000109077
8.66108e-05
0.000105295
0.000228937
7.60989e-05
7.10065e-05
0.000208212
9.02319e-05
0.000154635
0.00013741
)
;
    }
    procBoundary1to0
    {
        type            processor;
        value           nonuniform List<scalar> 
29
(
0.00235972
0.00235972
0.00125493
0.00333681
0.00602237
0.00249158
0.0029232
0.000829555
0.00229095
0.00341418
0.00190325
0.00249158
0.00125493
0.00116326
0.0022183
0.00116675
0.00602237
0.00511598
0.00333681
0.00273585
0.000850898
0.000744855
0.00293522
0.000710234
0.000710234
0.00293522
0.000726271
0.000913807
0.000726271
)
;
    }
    procBoundary1to2
    {
        type            processor;
        value           uniform 0.00316498;
    }
    procBoundary1to3
    {
        type            processor;
        value           nonuniform List<scalar> 
48
(
0.0121391
0.00563848
0.00757803
0.00757803
0.0035554
0.00405208
0.00405208
0.0109584
0.0156735
0.00199731
0.0017445
0.00199731
0.0016098
0.00247846
0.00308671
0.0016098
0.00133248
0.00133248
0.00139393
0.00139393
0.00146323
0.00141332
0.00174525
0.00148985
0.00148985
0.00175099
0.00243317
0.00243317
0.00658434
0.00279076
0.00185554
0.00658434
0.0109584
0.0161694
0.001693
0.00279076
0.0145859
0.0017445
0.0142567
0.00280403
0.00177864
0.0158385
0.0161694
0.001693
0.00324464
0.000945493
0.0033695
0.00177864
)
;
    }
}


// ************************************************************************* //
