/*--------------------------------*- C++ -*----------------------------------*\
| =========                 |                                                 |
| \\      /  F ield         | OpenFOAM: The Open Source CFD Toolbox           |
|  \\    /   O peration     | Version:  v1912                                 |
|   \\  /    A nd           | Website:  www.openfoam.com                      |
|    \\/     M anipulation  |                                                 |
\*---------------------------------------------------------------------------*/
FoamFile
{
    version     2.0;
    format      ascii;
    class       volScalarField;
    location    "0.86";
    object      nut;
}
// * * * * * * * * * * * * * * * * * * * * * * * * * * * * * * * * * * * * * //

dimensions      [0 2 -1 0 0 0 0];


internalField   nonuniform List<scalar> 
1431
(
0.000509879
0.00423588
0.0022653
0.00148419
0.000429876
0.00165376
0.00143039
0.000786189
0.00748951
0.00636158
0.00113414
0.000451574
0.000686538
0.00132507
0.00515418
0.000687236
0.00469717
0.00090725
0.00030971
0.00101874
0.000365033
0.00742678
0.00313609
0.001423
0.00142215
0.000888391
0.00136241
0.00123465
0.00100967
0.0010978
0.00145775
0.000726265
0.00195189
0.000529639
0.00046505
0.00197978
0.00075517
0.000857945
0.00199211
0.000856761
0.00233864
0.000669165
0.000806996
0.000673188
0.00366745
0.000562867
0.00233983
0.000810896
0.000884572
0.000868821
0.00103564
0.0045482
0.0053438
0.00153899
0.00102002
0.000771623
0.00242182
0.00277223
0.000988969
0.000337845
0.00323361
0.000821499
0.00229168
0.00078295
0.00090366
0.000976379
0.00233004
0.00118627
0.00394488
0.00075015
0.000492658
0.000430215
0.000776938
0.00169125
0.00121558
0.00117853
0.000502256
0.00296832
0.000784321
0.00202501
0.000805486
0.000974226
0.000428578
0.00278016
0.00195878
0.00047052
0.000592278
0.000736565
0.00152874
0.000963228
0.00108792
0.00100233
0.000612929
0.000861418
0.000942764
0.00052791
0.00114262
0.000728684
0.000623628
0.00110297
0.0051224
0.000805321
0.00116851
0.000532208
0.00109364
0.000848075
0.000785457
0.00296048
0.00206431
0.000437579
0.00227799
0.00120256
0.000755168
0.000860645
0.00111005
0.000526224
0.000830598
0.00566994
0.00164467
0.00281411
0.000859021
0.00424023
0.00389012
0.0013704
0.000831166
0.00169138
0.00177793
0.00078839
0.000611297
0.0008093
0.00122565
0.00280544
0.00101029
0.000969551
0.000615223
0.00111943
0.000893564
0.00139477
0.000918432
0.00276477
0.00664494
0.000823424
0.00076963
0.000941829
0.00109964
0.00077529
0.000733494
0.00306554
0.000993127
0.00080197
0.000818786
0.000955126
0.00178707
0.00015956
0.00044772
0.000738051
0.000802944
0.000823456
0.00075601
0.000708897
0.000917583
0.00122557
0.00107362
0.000953839
0.000596905
0.00275702
0.000505288
0.000863021
0.00107806
0.000967556
0.00107074
0.00120863
0.00135802
0.000768751
0.000771408
0.00026946
0.00042523
0.000875306
0.0011441
0.000712498
0.000839307
0.00495495
0.000753995
0.000891177
0.0007731
0.00081108
0.000752945
0.00113502
0.000779413
0.000799319
0.00141204
0.00429209
0.000537246
0.000790203
0.00801844
0.000845839
0.00078487
0.000841236
0.000471213
0.000335363
0.000272235
0.000660209
0.000752042
0.00227854
0.000785755
0.00168831
0.000506014
0.000834227
0.00123063
0.000878581
0.000789417
0.000782732
0.00163242
0.000831627
0.000889799
0.00107687
0.000756856
0.00121688
0.00194773
0.000833714
0.000830272
0.00210682
0.000776909
0.00212392
0.000825646
0.000874954
0.000970115
0.000851551
0.000829421
0.00158795
0.000506401
0.00118126
0.000746851
0.000796437
0.00079012
0.000783386
0.000736456
0.000775298
0.00082679
0.00200453
0.000841837
0.000724089
0.00811483
0.00343577
0.000714571
0.000658912
0.000830327
0.000726055
0.000867876
0.000973429
0.000723395
0.00801096
0.00657989
0.00115659
0.00256201
0.00109227
0.000327234
0.00176039
0.00112803
0.00110177
0.00108039
0.000680541
0.000622616
0.0067573
0.000789736
0.000809511
0.00102925
0.000746578
0.000993125
0.00738311
0.000744801
0.000939813
0.000726459
0.00072651
0.0010696
0.000764982
0.00120263
0.00128445
0.00141613
0.00613374
0.00653604
0.00224379
0.00264633
0.00096828
0.00102611
0.0012187
0.000486765
0.000754889
0.000906295
0.00083244
0.000776375
0.000868605
0.000748207
0.00121162
0.000731443
0.00074508
0.000555205
0.000768882
0.00204345
0.000704945
0.000843957
0.00100994
0.000639489
0.000739845
0.000766541
0.00259678
0.000828518
0.00109966
0.00110995
0.00130781
0.000836049
0.000783591
0.00310996
0.000778402
0.000445212
0.00300903
0.00600734
0.00224334
0.000795019
0.00276576
0.00247639
0.00182915
0.00520169
0.00244905
0.00626666
0.00408609
0.000806593
0.00503919
0.00175169
0.00083092
0.00355106
0.00138654
0.00205613
0.00133284
0.000786089
0.00827649
0.00107469
0.00131532
0.00104867
0.000961516
0.000270759
0.000822484
0.00550515
0.000935692
0.00182341
0.000238596
0.000826216
0.000204925
0.00019153
0.000343205
0.000477145
0.000344996
0.000379862
0.000337052
0.000298933
0.000542723
0.000364612
0.000258444
0.000351659
0.000259526
0.000334324
0.000397784
0.000330344
0.000229405
0.000290984
0.000216762
0.000324435
0.000362782
0.0028302
0.0027284
0.00363365
0.00177852
0.00268783
0.000760561
0.00119502
0.00160705
0.00455023
0.000841993
0.000848846
0.000400093
0.000360463
0.000308353
0.000371789
0.000373869
0.0004479
0.000325915
0.000364854
0.000275078
0.000346556
0.000198714
0.000220793
0.00277683
0.000885903
0.000848692
0.00377978
0.00143756
0.00130085
0.000834639
0.00563631
0.000771954
0.000272334
0.00449827
0.000832679
0.00101111
0.00381675
0.000790327
0.00199467
0.000723795
0.00117089
0.0034722
0.000830734
0.000552867
0.00141959
0.00215184
0.00101112
0.00103895
0.00530257
0.00731039
0.00155102
0.00134564
0.0024242
0.00219143
0.00726166
0.00166699
0.00145379
0.00546916
0.00250386
0.00543082
0.00611011
0.00544457
0.00534174
0.00115253
0.000554978
0.00328787
0.00238046
0.00573539
0.00300094
0.00348408
0.00153221
0.00214867
0.00157795
0.00133694
0.00270818
0.00228989
0.000315028
0.00385347
0.00491571
0.000951492
0.000350748
0.00491217
0.00395151
0.00652271
0.00467032
0.00751794
0.00264009
0.0075431
0.00648931
0.00545253
0.0071232
0.00229988
0.00300238
0.000447724
0.00198272
0.00182913
0.00205309
0.00163838
0.00105398
0.00295196
0.0014497
0.00168519
0.00260264
0.000898637
0.000739921
0.00108237
0.00120104
0.00121803
0.00262197
0.0025737
0.00395049
0.000326239
0.00169601
0.00089937
0.00109183
0.000799989
0.000826428
0.000948802
0.00168929
0.00645506
0.00397016
0.000261776
0.000244559
0.00038599
0.00147866
0.0030975
0.000327385
0.000904612
0.00125782
0.00143758
0.000837181
0.00144246
0.00162182
0.00150784
0.00580686
0.0061221
0.00491516
0.000596058
0.00119122
0.00685512
0.00158253
0.00129762
0.00119496
0.000728815
0.000743843
0.00240367
0.000792369
0.00183263
0.00343313
0.00138473
0.00161868
0.00161167
0.000583745
0.00113119
0.000904146
0.00103095
0.00105474
0.00355494
0.00408696
0.00281542
0.000957386
0.00232519
0.000809668
0.000740993
0.00168704
0.000873996
0.00514849
0.00269144
0.00778166
0.00245777
0.00355876
0.00220439
0.00630566
0.00357775
0.00510127
0.00202702
0.000400113
0.00681586
0.00379967
0.000795863
0.00617577
0.00153825
0.00154186
0.00043331
0.00107721
0.00376078
0.00224728
0.00373929
0.00847257
0.00503549
0.00103825
0.000757939
0.00394346
0.00250979
0.00842225
0.00409998
0.00250449
0.00119077
0.00277394
0.000740408
0.00267598
0.00462733
0.000274414
0.0060623
0.00254206
0.006433
0.00290868
0.000806116
0.00224284
0.00114423
0.00339286
0.00100616
0.000915567
0.000797852
0.00339457
0.00603144
0.000952239
0.00261304
0.00452497
0.000790078
0.0010001
0.00079575
0.00225195
0.00294682
0.000848184
0.000780139
0.000770016
0.00269399
0.000758771
0.00154909
0.000739194
0.000187412
0.00481693
0.0044747
0.00131058
0.00409029
0.00608918
0.00603318
0.0012615
0.00161574
0.00676063
0.00208019
0.00172317
0.00423294
0.00141524
0.00597778
0.00193989
0.000744278
0.00274951
0.00419945
0.00761377
0.00580787
0.00131664
0.00223811
0.000925507
0.00152136
0.00108958
0.000934402
0.00150038
0.000931478
0.00410678
0.000804463
0.00649294
0.000917652
0.000347205
0.000805302
0.00240484
0.00485933
0.00148797
0.00073266
0.00109102
0.000923627
0.00429779
0.00706092
0.000806434
0.00496113
0.000797841
0.00771616
0.00436573
0.00652405
0.00522316
0.000942734
0.00139176
0.00289611
0.000766448
0.0011325
0.00708102
0.00455565
0.000820389
0.000841092
0.00176448
0.00502303
0.00650228
0.000769391
0.000948437
0.00107019
0.000827544
0.000214742
0.000848094
0.0071622
0.00543263
0.00294087
0.00093856
0.000821946
0.00094558
0.00644513
0.000798935
0.000758531
0.00131695
0.000981141
0.00148414
0.00104866
0.00511296
0.000501181
0.00101257
0.00143359
0.00121757
0.00167686
0.00139428
0.00750957
0.00413107
0.0015528
0.00191517
0.00697065
0.00629206
0.000881984
0.00336355
0.00159684
0.000263743
0.000239645
0.00082445
0.000721698
0.00623204
0.0016264
0.000762983
0.00157632
0.000548823
0.00136834
0.00112268
0.00555339
0.000850294
0.00238601
0.00106628
0.000617
0.00108733
0.00743928
0.00716322
0.000635514
0.0050117
0.00863151
0.000714438
0.000847492
0.000644484
0.000838709
0.000803402
0.00359154
0.00132326
0.00062633
0.00762488
0.00820098
0.000686271
0.00033884
0.0026718
0.000318376
0.000703433
0.00072016
0.00430933
0.000765555
0.000824385
0.000726139
0.00507785
0.00088721
0.00723095
0.00788475
0.000691518
0.000661739
0.000785413
0.000663516
0.000748892
0.000860642
0.00119671
0.000667788
0.00681051
0.000754053
0.000740263
0.000761875
0.00106396
0.00104038
0.000845058
0.000841159
0.000872327
0.00193238
0.00116021
0.00119706
0.00172119
0.00191853
0.000853277
0.00329192
0.000510416
0.0018952
0.000793617
0.000754723
0.00121854
0.00334788
0.000691491
0.00109975
0.000702576
0.000777151
0.000688702
0.0027848
0.00222475
0.0011689
0.000650222
0.000428656
0.000769663
0.00586461
0.00136324
0.00370121
0.000539074
0.000870495
0.00135774
0.00211892
0.00122859
0.00077114
0.000879049
0.000940584
0.000847845
0.000834486
0.000875805
0.00132264
0.00416561
0.000807239
0.00260354
0.00752943
0.000710104
0.00154262
0.000304584
0.00250607
0.00211156
0.000924811
0.00313505
0.000491896
0.000828662
0.000809016
0.00539551
0.000816126
0.00172289
0.000833819
0.00067378
0.000597412
0.000538641
0.00064897
0.000837377
0.000732215
0.000774327
0.00417106
0.000834372
0.000776475
0.000750914
0.00801876
0.00147325
0.000854982
0.000403192
0.000426314
0.000579339
0.000943316
0.000668076
0.0010523
0.00163772
0.00112422
0.000301736
0.00177956
0.00077803
0.000722493
0.000731677
0.000663791
0.00229855
0.000709843
0.000976242
0.00288933
0.00359585
0.000819141
0.00501025
0.00344601
0.00189569
0.00034416
0.00176846
0.00074311
0.00360778
0.00499596
0.000837709
0.000866275
0.000805688
0.000996748
0.00154982
0.00102803
0.00173566
0.000481026
0.000802869
0.000761134
0.00091203
0.00112884
0.00078002
0.0020092
0.000805578
0.00483542
0.000728287
0.00077822
0.0012469
0.000887621
0.00127413
0.000817829
0.000626384
0.00108827
0.00109414
0.00120124
0.000745839
0.000480881
0.000805795
0.00296468
0.00390232
0.000708198
0.000876224
0.00303394
0.00178789
0.000825121
0.000851053
0.00304623
0.000585163
0.000784459
0.0011318
0.000836148
0.000980667
0.00095621
0.00540988
0.00331075
0.000956065
0.000953258
0.000844671
0.00108327
0.000927473
0.000368219
0.000949091
0.000805245
0.00560798
0.000983412
0.00608369
0.00557533
0.00339455
0.000863289
0.00107575
0.00091336
0.00134092
0.000783457
0.000870716
0.000813818
0.000794015
0.00106122
0.000861045
0.000729991
0.00707639
0.000691692
0.00891053
0.000748299
0.00104455
0.000602394
0.000586617
0.00059764
0.000613654
0.000563261
0.000520076
0.003198
0.00035304
0.000316432
0.000818878
0.000459104
0.000471775
0.000351453
0.00237819
0.000478445
0.000942655
0.000180464
0.00702995
0.00025953
0.000722638
0.00295548
0.00375934
0.00162887
0.000397149
0.000902446
0.00304516
0.000960364
0.0054196
0.00756384
0.00174861
0.000955747
0.00405055
0.000198413
0.000353451
0.000885266
0.00016485
0.00302511
0.00549319
0.00604046
0.00352123
0.000966788
0.00634966
0.00725204
0.000815778
0.000214356
0.000283328
0.00147383
0.00507891
0.000780197
0.00215592
0.00247303
0.0030621
0.000754108
0.000324658
0.00309852
0.000126841
0.00104282
0.000233211
0.000823281
0.00189676
0.0039714
0.000830228
0.00165509
0.00896401
0.000896675
0.00226805
0.000436168
0.000957695
0.00100167
0.000809916
0.00107345
0.000971265
0.00077647
0.00168639
0.00466245
0.000845982
0.00123486
0.00675379
0.007705
0.000812209
0.000727256
0.000983904
0.00288663
0.00237239
0.00481249
0.000921446
0.00700745
0.00591316
0.00362471
0.00225649
0.00259977
0.0010741
0.00165745
0.00272315
0.00110084
0.000663871
0.0025802
0.00603591
0.0077551
0.00290729
0.00279268
0.000705532
0.0065203
0.00269359
0.000837464
0.00121897
0.00142779
0.00124879
0.000451226
0.000852362
0.00109524
0.00139391
0.00191554
0.00304754
0.00701699
0.000751356
0.00605812
0.00172591
0.000624177
0.00725411
0.00471719
0.000851334
0.000689742
0.000891665
0.000785631
0.000340526
0.000749459
0.00145491
0.00494288
0.000846325
0.000775357
0.000776099
0.000993917
0.0012517
0.000777039
0.000840465
0.00712417
0.000913931
0.000797436
0.000810829
0.00208663
0.000820804
0.00121012
0.000226486
0.000778493
0.000791355
0.000802744
0.000245733
0.000575246
0.00111145
0.00104098
0.000744654
0.000264027
0.001022
0.00103508
0.000794452
0.00780241
0.00199333
0.000743931
0.0010074
0.000767604
0.000534285
0.000127897
0.000951913
0.000833569
0.000682809
0.00243746
0.00195847
0.000150344
0.00124744
0.000875376
0.000452662
0.000864832
0.00605647
0.000924528
0.00141359
0.000809126
0.000595333
0.00630995
0.00123065
0.000698452
0.00144472
0.000907576
0.00450275
0.000879287
0.00107787
0.00080031
0.000921613
0.000932601
0.000790609
0.000152112
0.000902764
0.000119464
0.00134499
0.00204792
0.00161478
0.00106337
0.000788506
0.000370542
0.000533986
0.0093602
0.000451037
0.00100119
0.00251711
0.00104181
0.000901063
0.000423826
0.0006153
0.000987672
0.0090074
0.00712841
0.00119055
0.000799471
0.000810168
0.000332281
0.00172144
0.000821747
0.0030074
0.000717022
0.00093379
0.00719818
0.00094089
0.000960854
0.00570429
0.00115041
0.000514186
0.000835197
0.00133974
0.000137627
0.0007535
0.000637067
0.00717864
0.00156568
0.000770727
0.000544341
0.000763851
0.000133831
0.000840555
0.00162129
0.00746633
0.000794803
0.000838515
0.000839724
0.000786253
0.000357486
0.000482778
0.00433721
0.000619241
0.00324274
0.000746417
0.000584211
0.00450946
0.000827422
0.00311963
0.00880627
0.0005921
0.000722443
0.00107311
0.00222203
0.000870455
0.000155654
0.00522133
0.0074467
0.000861778
0.00678315
0.000798537
0.000738995
0.00687923
0.00251975
0.00233538
0.00112117
0.00689256
0.000881093
0.000851332
0.00111794
0.00637957
0.000842448
0.000819743
0.00163041
0.0070726
0.00111933
0.00111629
0.00135725
0.00276506
0.0020487
0.00196267
0.00158664
0.00142278
0.00707369
0.000473747
0.000249871
0.00468892
0.000745934
0.00124355
0.000739253
0.000772744
0.000844374
0.000906076
0.0019873
0.000423323
0.000893545
0.000143324
0.00612229
0.0010633
0.000593636
0.00204382
0.000556742
0.000932602
0.00309504
0.00158468
0.000893222
0.000901997
0.00771184
0.000662871
0.000480685
0.00280988
0.000726837
0.000589016
0.000847051
0.000790674
0.000896665
0.00318125
0.00578515
0.00212404
0.000622047
0.0068373
0.000909277
0.00131811
0.00147897
0.00363985
0.00550896
0.000769446
0.000844126
0.00531835
0.00240501
0.000922124
0.00546746
0.00531601
0.00134513
0.00087745
0.000828217
0.00121329
0.00081413
0.000875557
0.000857072
0.000838913
0.00101022
0.00063501
0.00327792
0.00081697
0.000960279
0.00237083
0.00265898
0.00681829
0.00876049
0.00729014
0.000999894
0.00270308
0.00116958
0.00485714
0.00101109
0.00069453
0.000845886
0.000868755
0.00547531
0.00133265
0.000707655
0.00764844
0.000784717
0.00479924
0.00788106
0.00757227
0.00531951
0.00777941
0.000774578
0.00249058
0.00726959
0.000845259
0.000782406
0.000326645
0.00347885
0.00369833
0.000408744
0.00569351
0.00861482
0.000598927
0.00139187
0.000502545
0.000141228
0.00165046
0.00743877
0.00144086
0.00244884
0.0010383
0.00085488
0.00728904
0.00123745
0.00115745
0.00274204
0.000619304
0.00150862
0.000758388
0.00131846
0.00193168
0.000818043
0.00111937
0.000527589
0.000725082
0.00398603
0.00111285
0.000794514
0.000140932
0.00149648
0.00113731
0.000801409
0.0011827
0.0012019
0.00138971
0.000683394
0.00107392
0.004543
0.00107925
0.00162952
0.000828584
0.00085626
0.00073981
0.00389386
0.00130627
0.00178699
0.000722391
0.00208554
0.00297288
0.00152002
0.000722096
0.000752844
0.000814953
0.000696425
0.000945675
0.000744501
0.00124254
0.00102994
0.00432119
0.000793406
0.00584555
0.000968588
0.00079422
0.00729982
0.00124534
0.002053
0.00200121
0.0027569
0.000811122
0.00102616
0.00186306
0.000842927
0.00292446
0.000530699
0.00114748
0.000919026
0.00133591
0.0017004
0.00694211
0.00110337
0.00117662
0.00133233
0.000368401
0.00125791
0.000817204
0.000837283
0.00083176
0.0013328
0.00287676
0.00157905
0.000877026
0.000909646
0.000912757
0.000792205
0.0012388
0.00661035
0.00900846
0.00750626
0.000740956
0.000668985
0.00939548
0.00741034
0.00905204
0.00719512
0.00554944
0.000802341
0.000758976
0.00115367
0.000744484
0.00060749
0.000935855
0.00164309
0.000577712
0.000857144
0.00120505
)
;

boundaryField
{
    frontAndBack
    {
        type            empty;
    }
    wallOuter
    {
        type            nutkWallFunction;
        Cmu             0.09;
        kappa           0.41;
        E               9.8;
        value           nonuniform List<scalar> 
90
(
8.27033e-05
7.67499e-05
7.78063e-05
7.56666e-05
8.27056e-05
8.4713e-05
8.66616e-05
9.42007e-05
8.00422e-05
8.89945e-05
9.14925e-05
9.51432e-05
9.06673e-05
9.32506e-05
9.239e-05
0.000104909
9.97506e-05
8.12454e-05
7.22435e-05
6.52244e-05
7.83339e-05
0.000100157
8.80538e-05
9.29264e-05
8.00743e-05
0.00011363
0.000113293
8.77961e-05
8.33285e-05
7.27285e-05
7.08567e-05
7.21656e-05
7.40604e-05
6.80714e-05
6.28813e-05
5.5456e-05
1.92877e-05
2.98369e-05
8.68255e-05
4.77615e-05
2.17976e-05
4.21721e-05
0.00010549
1.73242e-05
2.41117e-05
3.29637e-05
1.23066e-05
0.000123186
2.63618e-05
0.000106904
0.000116749
7.99693e-05
7.54119e-05
9.29852e-05
9.69924e-05
2.79211e-05
3.03783e-05
0.000120858
0.000122462
8.94116e-05
6.47006e-05
1.20408e-05
1.56075e-05
0.000104375
9.69228e-05
8.41295e-05
0.000108148
1.56101e-05
0.000107472
1.11713e-05
6.22726e-05
1.35092e-05
9.25079e-05
1.3333e-05
9.51639e-05
7.48286e-05
7.16123e-05
0.000103928
1.62565e-05
0.000102838
5.737e-05
0.00010643
1.43201e-05
7.51603e-05
7.65795e-05
1.43732e-05
9.51301e-05
1.40451e-05
8.23698e-05
8.38913e-05
)
;
    }
    inlet
    {
        type            calculated;
        value           uniform 0.000851986;
    }
    outlet
    {
        type            calculated;
        value           nonuniform 0();
    }
    wallInner
    {
        type            nutkWallFunction;
        Cmu             0.09;
        kappa           0.41;
        E               9.8;
        value           nonuniform List<scalar> 
138
(
5.38177e-05
3.80123e-05
0.000221145
6.41093e-05
5.67117e-05
8.09855e-05
0.000260095
0.000138945
5.97027e-05
5.24183e-05
0.000138424
0.000119687
1.69201e-05
5.45331e-05
3.15483e-05
5.14352e-05
5.74715e-05
4.06239e-05
3.25821e-05
7.96393e-05
0.00023885
0.000128829
3.98177e-05
0.000132796
0.000129886
0.000127508
0.000121826
0.000126307
0.000121474
0.000129651
0.000130794
3.2335e-05
2.74573e-05
2.35907e-05
2.143e-05
4.20528e-05
5.71795e-05
4.04349e-05
4.43208e-05
4.04945e-05
3.56802e-05
6.54512e-05
4.25481e-05
3.01438e-05
4.19905e-05
3.07481e-05
4.07571e-05
4.82836e-05
3.98031e-05
2.55637e-05
3.57905e-05
2.4605e-05
3.9362e-05
4.41133e-05
4.78927e-05
4.22254e-05
3.59663e-05
4.57444e-05
4.351e-05
5.4809e-05
3.94059e-05
4.43867e-05
3.24667e-05
4.15025e-05
2.15604e-05
2.57412e-05
3.24085e-05
6.68432e-05
0.000122894
6.72392e-05
0.000155334
3.77161e-05
4.18401e-05
5.55982e-05
0.000127715
3.96179e-05
0.000128759
3.08851e-05
2.83776e-05
4.76264e-05
3.98391e-05
0.00014694
0.000173997
0.000151052
0.000139838
0.000160741
4.75104e-05
5.19788e-05
0.000127166
0.000122828
3.25641e-05
2.04929e-05
4.14818e-05
2.4179e-05
6.01975e-05
3.02771e-05
2.80556e-05
4.12932e-05
3.77734e-05
8.33219e-05
0.000136137
6.19583e-05
8.4851e-05
5.1333e-05
0.000111881
3.57104e-05
4.75187e-05
0.000132376
3.62554e-05
4.22016e-05
4.56251e-05
0.000125373
4.1803e-05
3.74015e-05
4.25587e-05
0.000114806
9.053e-05
3.86947e-05
0.000113522
0.000118621
4.13781e-05
2.56817e-05
9.33828e-05
5.44091e-05
4.57923e-05
5.47149e-05
9.7001e-05
3.94415e-05
4.40033e-05
5.84626e-05
2.88344e-05
8.06856e-05
0.000135634
8.94798e-05
7.33464e-05
0.000188457
7.00943e-05
0.000141053
)
;
    }
    procBoundary0to1
    {
        type            processor;
        value           nonuniform List<scalar> 
29
(
0.00116079
0.00189149
0.0018755
0.0018755
0.00514215
0.00514215
0.00292296
0.00133295
0.0019015
0.00235752
0.00175191
0.00194897
0.000674011
0.000591127
0.00224456
0.0012825
0.00792203
0.00581823
0.00263177
0.00186291
0.000867723
0.000730567
0.00319453
0.000741354
0.000728637
0.00581823
0.000727145
0.000916108
0.000741354
)
;
    }
    procBoundary0to2
    {
        type            processor;
        value           nonuniform List<scalar> 
42
(
0.00677337
0.00759511
0.000619639
0.000565746
0.00103865
0.00677337
0.000619639
0.000642475
0.00111419
0.00123398
0.00176179
0.00309717
0.00176179
0.00448602
0.00614132
0.00557185
0.00614132
0.0011721
0.00120744
0.00143653
0.00143653
0.0011721
0.000951551
0.000900759
0.000900759
0.000792916
0.00186297
0.000700874
0.00321589
0.0078586
0.0078586
0.000802624
0.000934944
0.000903209
0.000733422
0.000619639
0.00778969
0.000295185
0.00321589
0.000642475
0.000606795
0.00061002
)
;
    }
}


// ************************************************************************* //
