/*--------------------------------*- C++ -*----------------------------------*\
| =========                 |                                                 |
| \\      /  F ield         | OpenFOAM: The Open Source CFD Toolbox           |
|  \\    /   O peration     | Version:  v1912                                 |
|   \\  /    A nd           | Website:  www.openfoam.com                      |
|    \\/     M anipulation  |                                                 |
\*---------------------------------------------------------------------------*/
FoamFile
{
    version     2.0;
    format      ascii;
    class       volScalarField;
    location    "0.73";
    object      epsilon;
}
// * * * * * * * * * * * * * * * * * * * * * * * * * * * * * * * * * * * * * //

dimensions      [0 2 -3 0 0 0 0];


internalField   nonuniform List<scalar> 
1431
(
0.216725
4.00985
89.852
56.8083
0.242727
14.9202
2.96787
4.43208
75.1606
21.1576
9.17558
1.12743
0.889215
59.2123
39.4636
24.5683
50.6777
2.46334
17.7197
8.40194
0.320838
20.2132
20.365
65.7895
49.6416
8.11779
51.9074
53.4148
22.2218
0.756556
49.9604
12.2381
31.5204
3.55535
4.09112
44.465
8.20534
10.3054
4.95792
9.86107
147.735
8.06809
2.19639
3.02518
34.3483
0.326975
34.7946
4.9476
18.3761
16.4041
0.896242
19.8914
53.9932
2.46927
2.77634
4.82757
24.5939
46.6297
53.4794
0.417048
38.1171
5.01471
47.6146
9.81982
35.0946
2.03191
74.7365
13.6033
7.34682
12.4977
2.42933
2.88326
3.99994
10.6344
5.04713
29.0714
0.286567
59.0393
5.7598
75.5239
8.1127
1.07193
2.87503
49.296
78.5124
0.287725
0.259213
9.42022
73.5698
6.66964
2.80129
24.6681
0.294897
10.2053
1.81958
0.320132
4.43711
8.67828
0.265959
31.0685
8.3703
5.56121
3.65567
0.224393
17.0425
0.804614
6.60678
160.826
65.447
0.294393
91.5196
1.77518
5.52076
5.10433
14.6585
0.234651
2.67522
12.3516
83.2026
27.9064
8.98147
50.579
22.1044
54.4752
9.33132
1.48677
95.5603
1.52753
0.260798
26.3805
1.62061
127.599
48.4355
5.96412
0.359004
46.3051
4.83034
1.04389
0.864092
139.405
33.8008
0.468547
9.81987
18.9143
21.5239
16.2036
8.7472
160.099
5.6619
14.7086
28.2014
38.4683
2.29955
2.8241
5.00659
1.12255
8.98296
5.26919
5.11366
8.48071
2.09749
7.12201
1.09937
5.90132
0.257999
119.348
0.333547
9.66971
0.809885
6.32731
33.6222
12.584
49.0238
17.4215
9.3225
0.412553
1.66766
25.5489
0.830886
6.00679
10.7408
23.9539
5.12
6.32694
14.1272
16.6759
6.39707
47.697
8.6369
10.0803
1.84741
68.9171
0.292849
7.35844
80.8147
8.1413
6.29413
7.33141
5.06834
3.90715
2.09258
72.4845
12.2921
164.074
6.94809
57.7969
0.342999
10.043
6.29204
23.05
7.96063
5.35213
76.1015
9.71858
16.076
25.8781
4.77946
0.871665
9.06184
9.99349
9.22989
59.241
21.4796
137.429
11.0553
29.0849
26.4971
6.48807
18.7594
50.5673
0.24496
31.8304
11.0206
4.5682
4.41115
4.81871
10.073
0.30286
8.1996
1.63245
10.3552
10.1484
67.1372
63.6656
1.18324
1.54604
10.364
3.45715
3.05146
27.1804
8.86469
73.5009
19.878
19.3563
43.6405
36.2892
1.29035
1.7422
30.8212
33.995
38.1743
2.44267
0.264206
37.5418
4.50134
18.1405
28.8547
7.55374
16.0937
48.7702
6.94146
23.0268
8.71521
8.64081
40.432
8.70569
4.20929
0.807575
1.01183
22.5824
72.1612
1.58871
3.55198
5.28384
31.8311
43.7569
0.272317
4.35635
22.9585
9.24897
17.7724
11.5345
4.49263
0.930422
10.3587
5.56652
0.2742
7.48922
2.06644
7.23425
11.1038
26.9513
0.967134
6.40987
4.39879
2.4975
8.61386
34.9073
32.3742
0.597958
9.9847
13.0736
32.7791
0.385697
2.1289
2.75194
24.8284
1.60953
4.43236
7.09835
2.32926
5.60419
32.198
1.9961
28.5002
7.98789
7.39122
8.13552
78.9683
9.35812
7.05529
0.723103
1.2735
1.44546
8.83908
56.752
0.991132
4.16065
1.12128
0.675269
2.63973
7.60409
9.53098
18.4293
44.734
0.467018
11.3807
0.984952
0.762556
1.92514
0.675506
0.762801
0.781798
2.32994
1.24103
0.81206
0.719643
0.555266
2.76726
2.94134
1.00966
1.49461
2.07974
0.172394
0.972259
0.901143
1.57285
2.56766
13.5887
20.2524
3.5363
1.29631
6.10794
13.1787
0.67347
50.2209
5.01302
11.4929
13.9055
2.72726
0.65019
0.783532
1.22296
0.711067
2.12509
1.8298
2.62678
0.834941
2.55748
0.410116
1.05215
61.2193
21.3047
13.9162
6.77264
0.69027
2.13328
10.7385
14.4042
9.11186
1.72433
4.14083
10.2508
1.25838
5.4177
12.1995
1.37622
7.83239
0.450857
9.62937
41.3547
9.13759
0.877619
59.1564
20.1017
41.0342
4.45479
53.2838
0.984108
1.04739
1.83519
5.00762
16.0557
2.30432
4.57687
5.44351
3.29025
15.0984
45.3289
7.58831
56.0211
2.34469
6.84015
7.80122
1.56248
7.1098
5.36982
7.92818
2.12475
2.86019
2.83057
90.3469
5.82979
4.55746
1.98661
8.99003
15.4086
2.00941
1.58425
13.9236
10.0893
12.7066
13.6977
16.2791
5.99874
15.449
11.6031
10.0969
13.9359
1.45794
51.0216
18.5237
3.40695
7.21107
1.28379
1.08698
0.335238
79.6804
2.96629
1.0649
75.1196
1.52583
6.08586
43.5244
3.82704
0.909301
59.1773
55.7307
76.8271
5.06732
6.14108
1.34611
45.6167
4.83211
10.6794
5.00889
10.5362
15.1408
8.12039
1.26889
1.12703
10.9226
0.868454
61.1245
6.96569
1.2019
80.7924
2.28568
11.3712
2.27141
17.2072
112.699
15.0974
9.72309
7.00695
1.26558
0.807502
15.6817
7.83912
67.8415
55.2116
1.69955
6.28812
10.7977
11.3101
8.81162
69.3337
97.2078
6.87827
1.16271
1.07377
1.61662
1.14885
0.5647
1.28458
6.47351
2.87406
7.27997
1.37921
4.44319
10.9881
6.76315
2.45854
1.23031
9.80996
6.63162
24.0522
4.44348
8.37748
39.793
11.0118
50.1309
3.89249
11.4788
0.619521
19.4447
8.23138
5.34082
12.423
0.767603
2.34187
0.423512
31.619
7.37448
1.36099
4.32707
33.4247
5.56959
32.4053
4.44954
9.91082
3.57823
52.1071
63.6232
40.1551
2.56207
5.35523
4.94496
38.3186
7.02679
1.03366
19.4513
44.7784
19.3519
60.2954
4.26744
4.22342
0.674206
4.70963
17.8226
1.08379
5.62626
3.72517
8.43181
2.60798
4.39507
3.00517
11.3349
0.979466
18.043
19.6179
42.6214
13.7238
10.0746
8.886
4.15556
0.387686
2.45002
5.09578
1.57846
3.39041
3.00948
0.722338
8.26704
14.6592
14.5668
7.2249
0.694923
25.3988
78.5458
50.617
9.48038
2.20604
18.2298
65.041
5.09531
58.1607
27.8764
25.1515
11.6974
0.62734
2.07557
2.43093
0.660416
1.05626
9.07658
0.606161
0.363258
7.12699
5.91368
26.648
2.16512
0.864283
6.35048
2.11793
9.06855
0.661148
4.82344
24.1719
2.40084
7.95842
30.9705
6.81582
12.048
0.891319
21.6801
7.22647
58.3728
17.8125
2.37054
0.873836
2.47582
8.05489
30.207
56.2991
8.08206
7.23419
11.8061
2.98662
10.4765
11.0083
0.320175
2.90192
3.46597
8.69383
0.813443
13.6825
19.5663
10.8605
23.9876
0.322657
7.65063
2.63686
14.8575
11.5232
11.6784
18.1622
9.78446
0.583279
20.774
27.0632
0.436919
4.78533
0.853551
0.728897
2.34094
3.58728
18.7132
9.74612
4.12001
65.3948
14.6421
12.3239
0.506257
6.15471
0.633122
0.152522
1.07498
8.10916
5.12509
13.6225
0.6689
4.17208
0.617523
0.358938
29.2045
27.56
16.8143
13.9262
167.635
0.696514
0.399555
0.675143
20.079
24.3174
25.1538
4.04012
85.8297
5.4889
0.530816
23.8936
9.61032
5.33187
67.2857
0.659899
26.274
21.3479
43.6895
30.0481
0.787285
5.94849
1.32094
28.4978
28.3202
54.8391
4.24167
3.58552
0.872489
15.2456
3.19751
15.8883
58.2085
13.0194
0.998929
40.2329
22.2188
5.35744
20.3219
42.0921
0.986378
42.2326
4.34328
28.8447
31.5419
4.10581
2.626
13.0552
29.1106
18.3342
111.621
30.6993
47.4296
32.9077
32.9162
9.90562
31.7751
6.02388
37.8673
42.7882
29.9426
0.700483
63.73
0.433578
0.614882
8.00971
37.8405
0.313792
35.5794
4.38665
0.75537
1.93285
0.593117
33.3202
33.6312
4.42022
143.611
0.485875
0.635231
0.846779
132.524
4.20691
4.30863
82.5517
35.2014
13.9625
10.3411
0.369471
0.616395
61.0431
5.89103
5.19447
23.3965
6.03191
0.608829
0.280508
2.34914
38.9795
1.80259
38.7933
0.266208
8.55577
6.11947
40.3974
0.291878
75.3123
31.2107
37.1711
40.5287
46.6218
35.1162
27.8229
31.87
35.4258
2.83969
3.6293
17.1711
3.03129
27.7745
0.622436
0.26472
0.950229
0.66227
0.664254
0.416213
0.769532
28.4231
2.59135
30.6361
1.21142
2.97652
4.36897
8.33828
8.53659
34.6961
89.3542
6.89014
0.754047
2.89895
2.89004
6.17915
3.51482
3.93523
2.16305
2.86143
39.1446
3.68837
18.5137
45.2824
11.0453
12.3617
5.66187
4.71005
0.683872
1.48674
1.40034
0.248225
5.21876
4.92593
0.221502
0.793732
11.5831
36.2583
1.99212
5.50158
0.618584
7.11561
2.15483
2.73777
0.753516
6.78306
0.279748
0.573093
2.34259
0.800468
10.3704
0.219039
3.10143
54.5541
44.0559
10.8748
20.5562
72.9614
10.9731
7.93416
7.90711
57.4688
0.539593
0.68718
0.739458
0.606674
0.793484
0.884313
9.20246
7.70206
60.6401
53.8246
25.5667
2.27165
0.416406
12.1271
2.91703
5.5605
79.0398
1.41711
10.1724
10.2249
8.65807
13.2921
4.28511
0.577074
1.54463
5.54053
2.77735
6.01273
5.07367
43.0245
0.660729
34.6678
28.2482
36.3514
40.6511
4.3471
5.98656
18.0275
14.4139
16.1462
19.773
12.7522
11.0608
3.2055
0.565018
0.970142
6.90198
8.92533
0.231872
1.85978
91.4681
0.303463
1.34349
0.395236
24.4288
0.273439
26.4757
6.43737
96.4729
0.708895
5.82069
1.72379
6.6291
2.25365
35.0486
38.2713
1.32814
1.18503
2.95613
0.399358
2.46988
57.7553
0.314835
19.5134
19.3196
10.0453
2.92773
31.0042
27.4032
13.7861
6.35064
0.686968
1.08268
0.679871
4.76565
18.8298
3.86243
51.8004
27.6976
45.6939
0.883315
59.9601
0.282953
30.9718
0.246297
6.97692
3.37338
4.19719
11.6665
0.804923
58.2735
43.7194
113.208
0.282874
50.4633
71.9281
23.1108
3.23699
3.91548
4.56201
21.0334
61.0492
13.0643
3.69416
25.8941
19.4832
5.77326
8.63595
55.7304
66.3246
37.4137
29.3618
2.07073
33.9654
8.2009
30.0779
1.37485
34.5444
44.2098
0.93294
2.45407
1.0345
22.7105
156.014
23.3912
19.5328
3.55826
79.5001
2.61389
30.436
57.7385
10.7621
1.11315
0.999188
31.4249
0.227139
0.216554
0.705786
2.02522
1.23548
61.1547
37.2518
4.3118
28.3347
1.11024
30.6541
43.4742
17.1102
2.56153
3.14696
2.71691
18.2049
0.724444
5.01436
2.85268
65.2772
12.9879
38.6347
5.26986
1.68481
12.3946
11.0786
11.48
38.5268
2.60246
4.61353
27.0811
33.2733
6.53597
0.656458
0.540842
69.2167
14.1777
14.1361
0.237415
1.80144
0.719875
1.63466
7.274
0.233461
25.117
55.8605
22.807
43.1802
5.5044
17.9328
0.73003
5.01222
43.4241
0.305421
1.8492
12.0797
0.269244
54.3108
80.296
0.296295
12.4946
73.659
0.591076
14.6619
10.2755
0.299571
0.631326
45.1074
1.70814
50.0067
1.50033
59.983
0.834975
79.4205
5.59336
1.36497
17.7825
7.00238
1.0781
0.98123
15.2961
0.39489
96.4755
0.285922
0.867268
8.09061
2.43197
2.68557
14.4587
7.1108
0.249144
61.6608
4.11264
5.63008
3.13465
27.6969
1.06912
0.593542
0.643886
2.58246
84.6684
25.9002
2.04486
4.82959
57.6549
0.587981
56.1274
7.3743
56.7651
0.342416
0.690454
34.9298
0.991225
1.6028
71.8808
48.3576
46.0451
8.89875
113.223
0.432797
0.770937
0.759982
29.1098
61.3567
112.483
0.481529
0.659763
0.282111
12.1213
4.71403
74.276
88.1552
39.0189
14.3822
4.79787
4.33985
1.77556
8.60842
107.192
46.8247
4.45307
0.265804
7.15687
43.7286
70.7224
38.0341
28.4418
0.399353
0.879597
57.6704
30.6604
0.325888
78.5496
48.2743
59.3741
12.3239
2.14579
11.0074
22.3727
26.7723
48.44
0.81659
63.2691
46.7784
12.6568
0.511147
29.0712
13.2129
14.2267
43.4246
34.4779
6.67723
0.926077
1.2586
88.223
2.92109
1.74027
67.8937
1.02307
31.4061
35.2849
0.414163
56.5982
4.6449
6.91197
8.64014
19.786
12.6207
37.0329
85.7101
0.26345
85.0601
0.428036
25.4348
53.0765
0.41025
1.49688
0.453944
1.55288
68.4623
40.0069
3.85057
4.88675
15.8718
0.297114
1.38191
22.9282
9.0312
0.250219
7.50133
4.6394
2.34674
98.3412
22.2267
55.1725
30.9198
37.507
1.92066
0.547459
1.77731
57.9505
35.7823
18.3087
12.385
7.58436
53.3658
1.21814
82.722
5.75225
0.840557
1.10529
7.63105
10.1172
5.65518
15.7738
7.80694
34.444
41.0685
21.3091
2.93239
5.83932
14.3672
2.74341
73.5136
31.218
67.2745
21.949
1.74743
78.6627
43.4709
39.3683
0.69486
0.491312
13.0983
2.60313
43.5702
0.573541
0.297782
46.5149
6.0123
38.3267
33.9507
21.0631
16.461
17.7591
12.5258
2.55745
23.6275
11.858
20.2744
0.308861
6.1718
3.25963
0.270336
6.75956
39.4361
1.98923
0.959087
0.26024
0.285531
1.07695
23.0792
1.07959
66.8233
52.3677
13.3289
13.8994
2.83107
2.45643
2.96944
0.272363
1.69853
5.3822
0.705882
65.9161
5.89624
22.3255
0.225373
7.12598
2.90384
0.653751
113.924
0.37764
1.02269
1.11976
5.07655
0.515945
0.628857
0.858776
35.9069
2.75927
3.30263
1.14545
1.57609
2.73348
30.2215
9.68285
5.09417
1.30655
1.3078
7.37052
1.29025
58.4073
9.94518
8.98976
5.00669
0.90641
20.1611
37.2681
4.61675
5.80561
0.927475
3.56291
2.20613
16.0682
0.644343
6.73172
27.1361
11.0816
44.4228
1.39212
159.099
6.11954
44.3011
79.0846
12.0928
3.50242
0.2552
13.2265
6.30524
52.7096
6.36237
36.8666
0.50413
44.9645
0.612946
0.264622
11.8546
1.48204
12.607
8.24287
56.452
7.20634
47.853
41.4354
34.0982
41.47
4.83795
2.02126
11.6989
54.2403
23.2796
11.8778
11.8925
60.4797
25.28
77.4883
23.8295
17.0067
23.7983
5.0498
44.0636
18.1245
2.74633
40.9469
125.181
2.57799
29.3273
49.8719
)
;

boundaryField
{
    frontAndBack
    {
        type            empty;
    }
    wallOuter
    {
        lowReCorrection 0;
        type            epsilonWallFunction;
        value           nonuniform List<scalar> 
90
(
24.5683
25.1538
23.8936
26.274
30.0481
28.4978
28.3202
40.2329
22.2188
28.8447
31.5419
42.7882
29.9426
37.8405
33.3202
82.5517
31.2107
37.1711
40.5287
46.6218
35.1162
27.8229
31.87
35.4258
34.6961
60.6401
53.8246
34.6678
36.3514
18.0275
14.4139
16.1462
19.773
12.7522
11.0608
8.92533
0.395236
0.273439
26.4757
5.82069
0.399358
2.46988
57.7553
0.314835
0.686968
1.08268
0.282953
30.9718
0.246297
43.7194
55.7304
22.7105
30.6541
38.6347
27.0811
0.237415
0.233461
25.117
55.8605
17.9328
43.4241
0.305421
0.296295
73.659
45.1074
59.983
79.4205
0.39489
96.4755
0.285922
46.0451
0.432797
112.483
0.282111
88.1552
107.192
28.4418
30.6604
0.325888
59.3741
35.2849
85.0601
0.428036
30.9198
21.3091
0.285531
113.924
0.37764
35.9069
20.1611
)
;
    }
    inlet
    {
        type            fixedValue;
        value           uniform 14.855;
    }
    outlet
    {
        type            zeroGradient;
    }
    wallInner
    {
        lowReCorrection 0;
        type            epsilonWallFunction;
        value           nonuniform List<scalar> 
138
(
1.12743
17.7197
31.5204
3.55535
4.09112
8.06809
74.7365
13.6033
2.42933
2.88326
29.0714
48.4355
2.8241
5.00659
0.412553
1.66766
5.06834
3.90715
2.09258
72.4845
137.429
36.2892
1.29035
30.8212
33.995
38.1743
28.8547
40.432
31.8311
34.9073
32.3742
2.63973
0.467018
0.984952
0.762556
1.92514
0.675506
0.762801
0.781798
2.32994
1.24103
0.81206
0.719643
0.555266
2.76726
2.94134
1.00966
1.49461
2.07974
0.172394
0.972259
0.901143
1.57285
2.56766
2.72726
0.65019
0.783532
1.22296
0.711067
2.12509
1.8298
2.62678
0.834941
2.55748
0.410116
1.05215
1.72433
9.13759
41.0342
6.84015
90.3469
1.98661
1.58425
18.5237
43.5244
5.06732
45.6167
1.26889
1.12703
10.9226
6.96569
80.7924
112.699
67.8415
55.2116
97.2078
0.619521
0.423512
31.619
32.4053
1.03366
1.57846
0.864283
0.813443
0.436919
0.152522
1.07498
0.787285
1.32094
13.0194
30.6993
6.02388
8.00971
0.593117
35.2014
0.280508
0.950229
30.6361
1.21142
2.86143
12.1271
43.0245
0.565018
0.970142
1.85978
31.0042
45.6939
0.883315
50.4633
71.9281
0.724444
0.540842
69.2167
0.591076
7.1108
4.11264
57.6549
0.587981
4.33985
1.77556
0.414163
11.8925
44.0636
18.1245
2.74633
125.181
2.57799
49.8719
)
;
    }
    procBoundary0to1
    {
        type            processor;
        value           nonuniform List<scalar> 
29
(
2.95599
3.3265
2.9824
2.9824
45.7608
45.7608
124.872
8.5475
77.5642
4.99335
7.86124
56.5874
4.03599
4.33875
69.2765
26.4661
59.9467
72.1166
3.97112
3.526
11.2792
6.17774
59.3686
10.4651
10.5481
72.1166
8.27287
66.7924
10.4651
)
;
    }
    procBoundary0to2
    {
        type            processor;
        value           nonuniform List<scalar> 
42
(
18.7357
18.5212
0.273319
0.276017
4.49989
18.7357
0.273319
0.273266
2.06884
0.44043
6.4377
8.55844
6.4377
9.35618
11.2427
16.38
11.2427
0.343525
0.836217
3.06713
3.06713
0.343525
0.282492
3.16425
3.16425
0.349536
6.29653
0.345844
15.0848
17.7056
17.7056
0.350494
0.338445
0.30654
0.279874
0.273319
15.5097
0.299699
15.0848
0.273266
0.279943
0.274279
)
;
    }
}


// ************************************************************************* //
