/*--------------------------------*- C++ -*----------------------------------*\
| =========                 |                                                 |
| \\      /  F ield         | OpenFOAM: The Open Source CFD Toolbox           |
|  \\    /   O peration     | Version:  v1912                                 |
|   \\  /    A nd           | Website:  www.openfoam.com                      |
|    \\/     M anipulation  |                                                 |
\*---------------------------------------------------------------------------*/
FoamFile
{
    version     2.0;
    format      ascii;
    class       volScalarField;
    location    "0.73";
    object      nut;
}
// * * * * * * * * * * * * * * * * * * * * * * * * * * * * * * * * * * * * * //

dimensions      [0 2 -1 0 0 0 0];


internalField   nonuniform List<scalar> 
1431
(
0.000470332
0.00523066
0.00222917
0.00140833
0.000654734
0.00130062
0.00187309
0.00078597
0.00636057
0.00562605
0.00082284
0.000412313
0.000759909
0.00132455
0.0041917
0.000665632
0.0039559
0.00102859
0.000492471
0.000749523
0.000433098
0.00800072
0.00235669
0.00142253
0.00140789
0.000690902
0.00130721
0.00123412
0.00101139
0.000822628
0.0014602
0.00072573
0.0019614
0.000592416
0.000603501
0.00188462
0.000756439
0.000857626
0.00237454
0.000856283
0.00234056
0.000669186
0.000972848
0.000872846
0.00367727
0.000451981
0.00212676
0.000809274
0.000885016
0.000868162
0.000807412
0.0035638
0.00431148
0.00192606
0.00135281
0.000770708
0.00209404
0.00237337
0.000980866
0.00034841
0.0027852
0.000781629
0.00215388
0.000782839
0.000903272
0.000963868
0.0023058
0.000942324
0.0062049
0.000749967
0.000555496
0.000552135
0.00110879
0.00135586
0.000842335
0.00118507
0.000654854
0.00289493
0.00078407
0.00198686
0.000805354
0.000849174
0.000922671
0.00237506
0.00183829
0.000883381
0.00105533
0.000576337
0.00152837
0.000776627
0.00108292
0.00077642
0.00112679
0.000861179
0.00098998
0.000704496
0.00077058
0.0007285
0.00102865
0.00110389
0.00783062
0.000804808
0.000958746
0.000719445
0.00092656
0.00182578
0.000785256
0.00296934
0.00207957
0.000685961
0.00220839
0.000994138
0.000754761
0.000797018
0.000925899
0.000644436
0.0011142
0.00485521
0.00164448
0.00284113
0.000858884
0.00345095
0.0031138
0.0013694
0.00083112
0.00236106
0.00177803
0.000703667
0.000605008
0.000808911
0.000854828
0.00281776
0.00101125
0.00102665
0.000976875
0.000932392
0.00116855
0.00114398
0.000765202
0.00277214
0.00589634
0.00076032
0.000769513
0.000943803
0.0011073
0.000775134
0.000733289
0.00307558
0.0011403
0.000801431
0.0008184
0.000954684
0.00263431
0.000319103
0.000503035
0.000661898
0.000802824
0.000852545
0.000755615
0.000708609
0.000975684
0.00099785
0.000815931
0.000648981
0.000842176
0.00260836
0.00077668
0.000862849
0.000801254
0.00100026
0.00106958
0.000954415
0.00135838
0.000768482
0.000771285
0.000234659
0.000335873
0.000875019
0.000819533
0.000712505
0.000839163
0.00405585
0.000753462
0.000818772
0.000772979
0.000810245
0.000752565
0.00109171
0.000668541
0.000799217
0.00241674
0.00371
0.000676981
0.000790026
0.00685588
0.000845707
0.00078465
0.000838467
0.000565371
0.000460627
0.000381196
0.000659738
0.000751452
0.00228014
0.000785577
0.00157597
0.000804031
0.000834152
0.00100657
0.000877921
0.000789262
0.000782464
0.00163227
0.00083159
0.000922611
0.00110172
0.00075648
0.00152606
0.00171164
0.000833685
0.000830214
0.00203958
0.000776614
0.00209032
0.000825746
0.000874958
0.000969176
0.000899861
0.000828764
0.00159361
0.000919475
0.00102472
0.000746679
0.000796104
0.000789918
0.000783166
0.000736252
0.000645701
0.000826674
0.00256803
0.0008414
0.000723623
0.00761834
0.00310615
0.000617235
0.000588729
0.000830375
0.000950106
0.00104124
0.000972373
0.000723162
0.0071159
0.0060422
0.00113393
0.00235748
0.00109403
0.000396917
0.00222906
0.00113002
0.00110366
0.00108204
0.000564977
0.000890036
0.0058336
0.000789527
0.000808948
0.00103111
0.000746356
0.00098029
0.00725826
0.000744561
0.000939722
0.000726278
0.000726335
0.00107111
0.000764875
0.00106567
0.00122237
0.00124742
0.00520915
0.00537268
0.00284957
0.00242771
0.00101737
0.00102796
0.00116001
0.000925583
0.000754647
0.000905378
0.000832239
0.00077623
0.000868084
0.000748189
0.00121935
0.000731061
0.000744759
0.000645484
0.000767288
0.00287123
0.000704818
0.000843636
0.00100912
0.000752577
0.000738933
0.000708069
0.00363852
0.000828423
0.0011015
0.00111187
0.00144915
0.000835869
0.000783532
0.00250439
0.00127605
0.000606501
0.00412619
0.00500619
0.00263559
0.000794785
0.00648081
0.00345982
0.00479956
0.00440979
0.00324513
0.00822013
0.00762762
0.000806445
0.00805101
0.00175227
0.000830832
0.00282103
0.000735705
0.0025056
0.0019272
0.000785962
0.00849263
0.000709782
0.00310221
0.000734408
0.00103828
0.000391533
0.00082237
0.00853585
0.000936507
0.00172778
0.000217717
0.00082629
0.000312703
0.000305045
0.000453295
0.000377772
0.000237905
0.000319715
0.000472899
0.000313128
0.000416231
0.000277946
0.000233354
0.000474947
0.000330168
0.000374062
0.000449559
0.000458531
0.000174273
0.000425748
0.000303975
0.000418577
0.000448517
0.00232193
0.00210699
0.00477573
0.00212229
0.00600881
0.000759939
0.00115119
0.00143693
0.00396799
0.000841893
0.000848842
0.00051139
0.000226007
0.000308958
0.000485976
0.000298551
0.000535529
0.000439089
0.000459427
0.000265062
0.000480339
0.00023538
0.000328571
0.00263505
0.000884942
0.000848691
0.00705403
0.000967181
0.00215867
0.000834636
0.00839274
0.000771828
0.000332198
0.00406151
0.000832667
0.000780772
0.00333334
0.000788876
0.00238808
0.000723377
0.00144341
0.0027466
0.000830402
0.000516398
0.00114634
0.00205417
0.00101545
0.00102761
0.00521768
0.00657934
0.0025019
0.00165194
0.00298833
0.00339148
0.00962506
0.00278891
0.00212974
0.00540548
0.00394262
0.00688439
0.00609362
0.00614493
0.005195
0.00171836
0.000533874
0.00545995
0.0029261
0.00600037
0.00475157
0.00546668
0.00283248
0.00273462
0.00209429
0.00119733
0.00472635
0.00411848
0.000390717
0.00656606
0.00747199
0.0014567
0.000350398
0.00686026
0.00622975
0.0091454
0.00715853
0.00966064
0.00390031
0.00957947
0.0090798
0.00814645
0.00947017
0.00280052
0.00289674
0.000703542
0.0026313
0.00173995
0.00263439
0.00243053
0.00146068
0.00286391
0.0019291
0.00259325
0.0024889
0.000881028
0.000739389
0.00106779
0.00144948
0.00248799
0.00247597
0.00243293
0.00355521
0.000456366
0.00236893
0.000883057
0.00107572
0.000799582
0.000828687
0.00117765
0.00166568
0.00910817
0.00637127
0.000312042
0.000306356
0.000617498
0.0023392
0.00290258
0.000524376
0.000893071
0.00120061
0.00271445
0.000837184
0.00278482
0.00167267
0.00145307
0.00699026
0.00652608
0.00597141
0.000760855
0.00240663
0.00941152
0.00242691
0.00116508
0.00107355
0.0010238
0.000743574
0.00201274
0.000792297
0.00278873
0.00318843
0.00132978
0.00237563
0.00209688
0.000702904
0.00206704
0.0014038
0.00144404
0.00105978
0.00545481
0.00405478
0.00456779
0.00172076
0.00414107
0.000810712
0.00073977
0.00317574
0.00146882
0.0078495
0.00420633
0.00789202
0.00426019
0.00617243
0.00202118
0.00672519
0.00313822
0.00489884
0.00166263
0.000257455
0.00921291
0.0056227
0.000795644
0.00889359
0.00208476
0.00297834
0.000388917
0.00107913
0.00594622
0.00278192
0.0034522
0.00779588
0.00446421
0.00104009
0.000757606
0.00638734
0.00409491
0.00734799
0.00363684
0.0025208
0.00203428
0.00522678
0.000740387
0.00228163
0.00585175
0.000342169
0.00863105
0.00227635
0.00892941
0.00270671
0.000813486
0.00409912
0.00100146
0.00486589
0.000993535
0.000904169
0.000797634
0.00316908
0.00622169
0.00113402
0.00437967
0.00457321
0.000788486
0.000826299
0.000795255
0.00199089
0.00250964
0.000848174
0.000778622
0.000768594
0.00439964
0.000811917
0.00285728
0.000739199
0.000304961
0.00471924
0.00486364
0.00219941
0.00574054
0.00701804
0.00873943
0.00107338
0.00173284
0.00875061
0.00197523
0.00164737
0.00695801
0.00237483
0.00745887
0.00184705
0.00074424
0.00241308
0.00351462
0.00799627
0.00852975
0.00191026
0.00266525
0.000973123
0.000840742
0.0015477
0.000930851
0.00155576
0.000796744
0.00646862
0.000804263
0.0085289
0.000870731
0.000387371
0.000805116
0.00331651
0.00745095
0.00186502
0.000732643
0.00107702
0.000841678
0.00578525
0.00725395
0.000806264
0.00777716
0.000951799
0.00765377
0.00573224
0.00538089
0.00395476
0.000870344
0.00117894
0.0038173
0.000764993
0.00111858
0.00602617
0.00697125
0.000820267
0.000841071
0.00331154
0.00772585
0.00644657
0.00131004
0.000879598
0.00106131
0.000827452
0.000250027
0.000848068
0.0094187
0.00811098
0.00235819
0.000912317
0.000821839
0.000923422
0.00585335
0.000799184
0.000758075
0.00134943
0.00107516
0.00094964
0.00103525
0.00414216
0.00039621
0.000667943
0.00110429
0.00131925
0.00262598
0.0022596
0.0073429
0.00332722
0.00331361
0.00192567
0.00658778
0.00683735
0.000655037
0.00585888
0.00143359
0.000171892
0.000345187
0.000824349
0.000721706
0.00695009
0.00128941
0.000762938
0.00101366
0.000708022
0.00134286
0.00110852
0.00827996
0.00085024
0.00238804
0.000895129
0.000957259
0.00217458
0.00950529
0.00793493
0.000635549
0.00541065
0.00750027
0.000714402
0.000650452
0.000644502
0.000838232
0.000803081
0.0032007
0.00113155
0.00062639
0.00880147
0.00870535
0.000687115
0.000348565
0.00538064
0.00041022
0.000704305
0.000721032
0.00378608
0.000765503
0.000803085
0.000724403
0.00778346
0.000834006
0.0069924
0.00790788
0.000691409
0.000756365
0.000785749
0.000663524
0.000748479
0.000859863
0.00119553
0.000542265
0.00577488
0.00075375
0.000741106
0.000762591
0.0010451
0.00083796
0.000845058
0.000840712
0.000871603
0.00193293
0.000982019
0.00119634
0.00162659
0.00178599
0.000852703
0.00268804
0.000493085
0.00179617
0.000793847
0.000755513
0.00121943
0.00314058
0.000666892
0.00182457
0.000701392
0.000777589
0.00124453
0.002394
0.00419357
0.000579352
0.00086203
0.000282249
0.000770295
0.00473528
0.00274005
0.00356727
0.000762557
0.0019817
0.000913156
0.00212016
0.00111778
0.000771044
0.000882021
0.000934909
0.000847849
0.000834457
0.000663132
0.00158351
0.00372341
0.000806703
0.00500308
0.0068254
0.000709954
0.00124814
0.000221627
0.00317928
0.00198804
0.000939702
0.00265933
0.000569786
0.000828454
0.000808474
0.00413121
0.00116596
0.00168861
0.000833936
0.000673933
0.000597582
0.000538667
0.000649027
0.000837399
0.000732216
0.000774865
0.00438579
0.00101979
0.000776338
0.00100505
0.00730271
0.00117072
0.00105549
0.000355717
0.00065289
0.00138026
0.00126487
0.00101263
0.00105434
0.00307922
0.00112621
0.000356408
0.00338523
0.000777882
0.000721997
0.00073149
0.000663794
0.00224496
0.000709509
0.00230103
0.00408128
0.00443986
0.000818674
0.00521481
0.00476565
0.00271669
0.000468972
0.001695
0.000693302
0.0028971
0.00389423
0.000837685
0.000865713
0.000805454
0.00102616
0.00113306
0.00103584
0.00194116
0.00050734
0.000802393
0.00076044
0.000865427
0.00120715
0.000779627
0.00188769
0.000999971
0.00572445
0.00115206
0.000776382
0.00152764
0.00112107
0.00120537
0.000817659
0.00105741
0.000906651
0.000946268
0.00156245
0.000745674
0.000471288
0.000702647
0.00296889
0.00380017
0.000708516
0.00087546
0.00272011
0.00156335
0.000824907
0.00090311
0.0029226
0.000955648
0.00198051
0.000898882
0.000802772
0.000915672
0.00091125
0.00808165
0.00526856
0.000960568
0.00095692
0.000844271
0.000743645
0.00138922
0.000590823
0.0010658
0.000804936
0.00470887
0.000851898
0.00874728
0.00484117
0.00270146
0.000862695
0.000704084
0.000776943
0.00184935
0.000783198
0.000752155
0.000813577
0.000793796
0.00106255
0.000766011
0.00073009
0.00723128
0.000692365
0.00854127
0.000748025
0.00103257
0.000584255
0.000564293
0.000577886
0.000595982
0.000537013
0.00048788
0.00306488
0.000291508
0.000312894
0.000818661
0.000417482
0.000473821
0.000453146
0.00232786
0.000693612
0.00088688
0.000133883
0.00892827
0.000171091
0.000698463
0.00524041
0.00353348
0.00149512
0.000338615
0.000875039
0.00552632
0.000919626
0.00408621
0.00856563
0.00226027
0.000868186
0.00474852
0.000140533
0.000264901
0.000862158
0.000144976
0.00242178
0.00795076
0.00878277
0.00451044
0.000961205
0.00561577
0.00930414
0.000815555
0.000169573
0.000202341
0.000973549
0.00558386
0.000779772
0.00410845
0.00216426
0.00258369
0.000739476
0.000280399
0.00290651
0.000139488
0.00100075
0.000185882
0.000822844
0.00356947
0.00513883
0.00083029
0.00178393
0.00793942
0.000896694
0.00217813
0.000718907
0.000855747
0.000947168
0.000809531
0.00135143
0.00120411
0.000776319
0.00131506
0.00394079
0.000845963
0.00113123
0.0080778
0.0094167
0.000811969
0.000727078
0.000988039
0.00256401
0.00214086
0.00412955
0.00103033
0.00820841
0.00566599
0.00281165
0.00284705
0.0026489
0.00107361
0.00198652
0.00358878
0.0010902
0.000644138
0.00258384
0.00796083
0.00895325
0.00431649
0.00254157
0.000953638
0.00586384
0.00241362
0.000837404
0.00118717
0.0011803
0.00112395
0.000646248
0.000555833
0.00126754
0.0019883
0.00270632
0.00297774
0.00814731
0.000751081
0.00511052
0.00222831
0.00062413
0.0073281
0.00381626
0.00103006
0.000895783
0.00111205
0.000785182
0.000334754
0.000748737
0.00227351
0.00428165
0.000846278
0.000770651
0.000774262
0.000936504
0.00095802
0.00077694
0.000840417
0.00731225
0.000807639
0.000797172
0.0007816
0.00192552
0.000820349
0.00115191
0.000196502
0.000777641
0.000791405
0.000802779
0.000165525
0.00069622
0.00105554
0.00161553
0.000743402
0.00019653
0.000982144
0.00103849
0.000794065
0.00675072
0.00455314
0.000743932
0.000927001
0.000766418
0.000534244
0.000126921
0.00115573
0.000833618
0.000610107
0.00223681
0.00186388
0.000160787
0.000969176
0.00086341
0.000328576
0.000864212
0.0056933
0.000771871
0.00135846
0.00080925
0.00107901
0.00531438
0.00125489
0.000701574
0.00106
0.000911095
0.0056016
0.00155579
0.00105717
0.00079804
0.00143368
0.000910812
0.000790609
0.000166435
0.000888897
0.000138555
0.00124552
0.00391428
0.00206173
0.0013723
0.000788548
0.000567356
0.000459753
0.00846959
0.000430581
0.000879893
0.00308857
0.00103022
0.00106169
0.000541383
0.00146745
0.000869834
0.00799933
0.00731863
0.000959544
0.000799181
0.000805398
0.000284624
0.00160208
0.000821531
0.0029605
0.000489317
0.00134274
0.0062171
0.00160001
0.000929489
0.00466676
0.00114989
0.000515035
0.000834715
0.00133512
0.000141762
0.00121676
0.00122104
0.00832026
0.00156712
0.000772999
0.00049464
0.00143135
0.000141452
0.000840556
0.00182679
0.00633876
0.000779069
0.000838123
0.000839725
0.000785028
0.00051219
0.000411882
0.00682955
0.000620752
0.00312799
0.000746084
0.000620546
0.00731305
0.000827105
0.00298197
0.00823506
0.000592187
0.00123121
0.0023191
0.00207415
0.000870516
0.000169392
0.00450074
0.00808037
0.000851557
0.00923334
0.000834396
0.000738789
0.00612344
0.00219103
0.00206138
0.00107846
0.0058217
0.000880836
0.000851122
0.000788981
0.00829748
0.000842464
0.000819758
0.00156169
0.00730129
0.000874064
0.00108979
0.00184297
0.00274732
0.00244178
0.00217298
0.00151486
0.00121644
0.00827013
0.000473847
0.00021632
0.00404737
0.000745448
0.00107264
0.000738336
0.000772462
0.000844356
0.000905537
0.00190829
0.000650907
0.000880209
0.000153795
0.00813825
0.00103704
0.000736355
0.0027372
0.000488383
0.000910887
0.00269609
0.00152449
0.00109208
0.00112448
0.00942852
0.00120005
0.000697885
0.00218137
0.000726414
0.000943311
0.000619898
0.000790462
0.00106978
0.00286541
0.00820884
0.00190762
0.00062203
0.00812126
0.000866062
0.000713771
0.00183443
0.00332699
0.00417443
0.000769169
0.000844071
0.00465324
0.00245993
0.00119682
0.00466666
0.00579319
0.00120044
0.00136417
0.000827737
0.000886241
0.000813769
0.000876298
0.000773961
0.000838505
0.00100976
0.000616776
0.0039666
0.000814781
0.000956524
0.00346891
0.00238057
0.00837958
0.0084511
0.00773671
0.00100227
0.00249257
0.00114813
0.00390075
0.000606092
0.000383435
0.000845878
0.00110197
0.00455834
0.000891812
0.00130755
0.00844396
0.00078448
0.00387959
0.00847302
0.00927977
0.00739508
0.00943952
0.000774475
0.00353216
0.00904548
0.000845114
0.000782019
0.000288362
0.00620493
0.00474684
0.00046985
0.00557677
0.00863277
0.000857535
0.00125933
0.000515879
0.000148662
0.00212133
0.0090922
0.00161655
0.00226423
0.0010387
0.00085475
0.00943655
0.00107163
0.00156996
0.00392729
0.000562439
0.00209566
0.000758226
0.00105204
0.00189173
0.000817563
0.000949826
0.000822208
0.000723928
0.00445806
0.00101302
0.000780199
0.000136152
0.00153078
0.000907381
0.000801098
0.000674007
0.00086955
0.00122919
0.000683486
0.00135871
0.00511946
0.00107865
0.00216696
0.00111497
0.000855849
0.000733002
0.00523938
0.00107596
0.00245683
0.000722067
0.00276935
0.00280741
0.00221145
0.000659814
0.00075277
0.000493018
0.000696427
0.000945269
0.000667175
0.000919374
0.000699122
0.00515019
0.00108393
0.00502064
0.000655698
0.000792069
0.0083732
0.000923616
0.00191469
0.00269546
0.00276286
0.000810601
0.00102572
0.00177008
0.00084288
0.00315728
0.00063609
0.000930878
0.000885432
0.00132499
0.00348836
0.0083326
0.000744588
0.00117374
0.000658326
0.00026088
0.00094707
0.000524296
0.000837315
0.000831276
0.00133112
0.00447704
0.00152533
0.000876586
0.000909259
0.000912239
0.000791988
0.00161798
0.0091193
0.00883893
0.00862403
0.00074074
0.000669064
0.00877574
0.00846812
0.00831369
0.00749691
0.00462266
0.000801953
0.000758872
0.00115133
0.000743954
0.000629317
0.000922922
0.00160433
0.0005686
0.000837297
0.00105079
)
;

boundaryField
{
    frontAndBack
    {
        type            empty;
    }
    wallOuter
    {
        type            nutkWallFunction;
        Cmu             0.09;
        kappa           0.41;
        E               9.8;
        value           nonuniform List<scalar> 
90
(
8.02155e-05
7.67539e-05
7.78084e-05
7.56734e-05
8.28172e-05
8.48091e-05
8.67484e-05
9.42375e-05
8.00431e-05
8.90748e-05
9.15608e-05
9.51703e-05
9.07418e-05
9.32964e-05
9.24517e-05
0.000105278
9.97639e-05
8.12627e-05
7.22626e-05
6.52278e-05
7.83407e-05
0.00010016
8.80542e-05
9.29805e-05
8.00748e-05
0.000114152
0.000113781
8.78075e-05
8.34549e-05
7.05914e-05
6.81413e-05
6.98058e-05
7.20004e-05
6.48065e-05
5.8768e-05
4.99817e-05
1.35118e-05
1.82021e-05
8.40424e-05
3.98647e-05
1.42488e-05
3.01965e-05
0.000102944
1.5038e-05
1.79131e-05
2.24733e-05
1.43764e-05
0.000118488
2.07056e-05
0.000106911
0.000117257
7.76968e-05
7.54067e-05
9.25007e-05
9.36549e-05
1.75252e-05
2.20292e-05
0.000116405
0.000122927
8.94116e-05
6.46961e-05
1.25805e-05
1.69021e-05
0.000103126
9.69398e-05
8.45361e-05
0.000108573
1.76349e-05
0.000106021
1.42916e-05
6.24091e-05
1.44756e-05
9.28037e-05
1.45209e-05
9.34565e-05
7.50324e-05
7.16222e-05
0.000103935
1.80157e-05
0.000101777
5.73817e-05
0.000105036
1.60131e-05
7.51586e-05
7.44703e-05
1.5362e-05
9.35939e-05
1.37804e-05
8.23804e-05
8.38915e-05
)
;
    }
    inlet
    {
        type            calculated;
        value           uniform 0.000851986;
    }
    outlet
    {
        type            calculated;
        value           nonuniform 0();
    }
    wallInner
    {
        type            nutkWallFunction;
        Cmu             0.09;
        kappa           0.41;
        E               9.8;
        value           nonuniform List<scalar> 
138
(
4.96969e-05
5.98139e-05
0.000221924
7.26489e-05
7.40352e-05
8.06027e-05
0.000257425
0.00010997
6.82189e-05
6.77768e-05
0.000139025
0.00011981
3.92262e-05
6.1001e-05
2.76285e-05
4.01819e-05
6.87456e-05
5.65601e-05
4.65447e-05
7.95993e-05
0.000235144
0.00012903
4.70146e-05
0.000133015
0.000130098
0.0001277
0.000122028
0.000126486
0.000121677
0.000129859
0.000131008
4.82731e-05
2.51731e-05
3.79603e-05
3.65036e-05
5.47989e-05
4.64457e-05
2.77738e-05
3.73527e-05
5.71601e-05
3.7265e-05
5.00301e-05
3.23825e-05
2.67517e-05
5.81803e-05
3.98311e-05
4.41689e-05
5.45883e-05
5.51483e-05
1.92228e-05
5.16238e-05
3.69823e-05
4.98845e-05
5.4655e-05
6.32691e-05
2.61217e-05
3.76627e-05
5.8899e-05
3.46377e-05
6.51516e-05
5.2624e-05
5.60281e-05
3.08875e-05
5.83874e-05
2.74588e-05
4.00077e-05
3.9995e-05
6.21622e-05
0.000121451
6.45139e-05
0.000139255
4.70243e-05
4.27663e-05
8.5317e-05
0.000125906
5.65781e-05
0.000126778
3.83534e-05
3.74229e-05
7.55865e-05
6.48071e-05
0.000140468
0.00016781
0.000135636
0.000125494
0.000154535
3.06173e-05
4.70014e-05
0.000127376
0.000123031
4.16505e-05
3.74931e-05
4.92309e-05
3.04758e-05
4.78202e-05
1.86271e-05
4.2131e-05
4.12664e-05
5.16785e-05
8.32923e-05
0.000114668
5.93086e-05
8.45776e-05
3.36654e-05
0.000111091
2.50889e-05
4.22333e-05
0.000132594
4.29121e-05
5.66562e-05
7.15495e-05
0.000125533
3.39524e-05
3.78779e-05
5.48763e-05
0.000114108
8.88722e-05
3.24015e-05
0.000101083
0.00011233
4.00881e-05
2.15828e-05
9.33048e-05
3.90116e-05
6.86056e-05
5.15059e-05
9.64944e-05
3.29169e-05
6.19074e-05
4.86315e-05
2.42549e-05
8.06854e-05
0.000135269
8.93888e-05
7.63929e-05
0.000184082
6.85007e-05
0.000122674
)
;
    }
    procBoundary0to1
    {
        type            processor;
        value           nonuniform List<scalar> 
29
(
0.00155807
0.00247728
0.00238374
0.00238374
0.00516916
0.00516916
0.00293762
0.0010233
0.00188762
0.00281641
0.00143658
0.0019677
0.000739956
0.000757556
0.00226505
0.00129528
0.00791236
0.00570788
0.00328534
0.00263855
0.000872335
0.000730439
0.00313096
0.000741801
0.000729258
0.00570788
0.000727196
0.000919658
0.000741801
)
;
    }
    procBoundary0to2
    {
        type            processor;
        value           nonuniform List<scalar> 
42
(
0.00645902
0.00825706
0.000766784
0.000678744
0.00264696
0.00645902
0.000766784
0.000860862
0.0018028
0.00132837
0.00497834
0.0071044
0.00497834
0.00806
0.00891123
0.00441669
0.00891123
0.00141126
0.00139185
0.00205049
0.00205049
0.00141126
0.00135456
0.00136216
0.00136216
0.00127798
0.0014955
0.00104446
0.00260076
0.00909448
0.00909448
0.000903238
0.000885883
0.000992288
0.00119744
0.000766784
0.00920482
0.000194907
0.00260076
0.000860862
0.00103179
0.00121046
)
;
    }
}


// ************************************************************************* //
