/*--------------------------------*- C++ -*----------------------------------*\
| =========                 |                                                 |
| \\      /  F ield         | OpenFOAM: The Open Source CFD Toolbox           |
|  \\    /   O peration     | Version:  v1912                                 |
|   \\  /    A nd           | Website:  www.openfoam.com                      |
|    \\/     M anipulation  |                                                 |
\*---------------------------------------------------------------------------*/
FoamFile
{
    version     2.0;
    format      ascii;
    class       volScalarField;
    location    "0.75";
    object      epsilon;
}
// * * * * * * * * * * * * * * * * * * * * * * * * * * * * * * * * * * * * * //

dimensions      [0 2 -3 0 0 0 0];


internalField   nonuniform List<scalar> 
1431
(
97.0074
26.194
4.80722
1.28787
7.5672
37.0061
1.16644
356.447
49.8389
1.10271
130.317
277.445
58.0913
14.5016
21.875
0.919496
29.3382
13.9972
27.2332
19.0477
274
18.3826
49.5395
315.783
52.1904
37.0197
85.9698
13.0014
65.4665
27.9933
21.2561
35.6169
19.0197
8.35259
45.3581
1.08143
87.597
0.425599
0.381323
27.8869
80.6084
78.7007
50.6802
0.635037
53.0236
9.02398
30.787
71.401
1.22407
0.611462
30.201
0.534062
38.6828
315.626
16.7451
23.3023
8.02086
308.585
48.2271
9.73565
15.805
0.727067
0.977872
0.488411
0.496994
1.26607
4.70868
2.07769
5.51634
25.7296
306.222
11.4168
1.23806
7.35682
18.2895
12.8115
2.45233
0.308857
1.22924
9.18279
35.2761
3.09411
128.454
35.3177
158.162
1.32501
2.28682
21.4414
175.384
187.488
26.6727
8.73662
1.26218
0.718204
16.3759
30.3336
314.245
96.1657
0.664109
13.7274
33.1667
0.653456
34.2974
7.09233
0.341326
32.9251
44.7231
132.064
39.5729
38.4893
7.71358
64.9392
18.3084
82.8499
24.9314
9.38517
15.7048
1.43451
2.1643
0.709977
34.1538
33.0825
364.199
21.8596
245.733
1.00084
1.55062
12.5914
3.04513
3.94387
35.5404
19.5889
3.00656
28.708
30.0503
1.26933
0.318345
0.972914
161.515
1.147
0.357617
16.8778
47.0035
5.45862
54.5827
18.9925
1.82875
36.4856
0.819088
8.83893
1.03094
6.57814
30.5657
2.19451
38.3689
0.717279
151.281
50.4919
166.917
1.8014
172.59
67.4149
0.645293
1.81574
254.79
91.601
88.7013
24.3185
0.543398
63.596
173.211
43.7416
23.0641
166.14
37.2691
149.504
2.62335
41.2827
37.3257
45.6764
1.72688
0.438172
17.9018
501.656
38.651
92.6916
143.939
51.3435
22.2255
177.983
17.2404
24.9649
25.8259
178.093
2.08982
64.4439
93.3672
36.1225
4.23825
50.078
21.2516
0.83368
93.7777
2.88267
58.0103
18.8249
36.4667
4.20205
196.793
25.2106
163.531
0.553627
41.2973
34.3846
177.801
25.463
28.9678
36.655
18.2256
82.3236
39.5778
18.1884
76.2423
1.31114
41.4143
258.757
118.266
78.6628
41.5994
48.6342
314.925
20.2863
30.9773
24.6846
37.044
167.467
37.4016
33.1685
16.7939
12.6611
2.07609
32.1651
221.782
25.555
23.6871
41.7904
29.3967
96.2417
41.5321
0.408654
9.30124
148.271
1.63344
0.462066
17.8749
65.6139
1.4284
315.168
142.044
27.7732
39.6819
159.608
17.2551
2.38559
45.8238
108.922
56.5131
278.512
67.4172
8.82405
42.0182
33.7715
18.264
6.4413
168.269
22.866
161.248
43.4378
46.6043
56.7207
50.2373
82.976
18.8579
21.6113
6.67143
118.339
69.9531
117.532
174.149
27.3816
4.38766
56.2351
78.2002
46.8555
31.3107
44.3682
184.397
107.387
24.3581
53.7393
40.5683
5.65121
12.1801
45.2819
45.9467
1.21171
37.9372
26.8215
78.9084
49.3251
79.2673
0.931312
0.98387
110.794
48.8683
88.1612
37.4325
10.7866
2.33289
832.844
37.1341
76.9808
6.05375
40.5588
37.2017
10.9047
9.61438
56.9947
316.806
0.508439
76.8026
4.87366
55.1593
22.9425
1.97383
46.1367
56.2695
156.226
37.3181
100.745
1.00106
47.8242
72.1779
77.7793
46.9894
22.8656
20.6754
156.674
65.1562
48.3703
40.5503
4.03753
39.5211
43.1601
9.11551
12.1713
178.531
129.665
141.656
74.4471
21.1879
74.9284
63.9972
7.3559
3.586
147.301
54.1524
621.254
45.4582
17.3217
117.751
7.9764
185.368
27.7824
72.187
378.984
46.3451
7.92663
28.9128
466.016
74.1496
36.9827
9.76385
10.9984
827.898
42.3574
40.9707
46.9424
33.7261
29.6634
2.49855
45.1797
46.0995
1.0004
160.184
40.5396
67.1387
68.4277
58.2162
39.3208
49.3067
67.1113
115.187
61.915
10.8445
62.2647
37.8373
7.06703
4.16734
61.2313
56.0663
38.1675
60.1606
58.507
44.7718
4.51986
38.7703
7.05887
37.7219
59.1012
51.7827
61.0402
21.0901
40.6116
58.1582
9.12295
10.3775
38.4505
12.0868
248.52
74.7613
77.4421
81.9578
82.6311
83.7514
80.6917
78.0161
81.9975
79.7145
81.5534
9.47027
156.773
7.54217
3.56152
2.99014
2.0482
2.19617
2.30886
33.5543
18.7382
19.4403
0.955498
1.11098
3.75111
1.15887
1.0653
23.0327
274.745
4.18452
2.76843
20.0194
0.929272
262.151
0.972992
2.8522
1.22432
4.66198
254.318
1.23792
245.32
0.73425
0.640197
6.40702
33.3185
162.324
146.778
1.56242
0.339535
1.92952
0.612976
31.0491
2.78485
167.097
0.610577
5.63669
32.3624
6.3019
3.56313
2.46839
2.26422
183.754
0.532689
4.79637
6.93271
36.8708
6.28514
8.62508
191.483
0.827782
24.6568
52.2226
20.3285
16.4967
83.6672
185.388
151.251
7.61772
2.33171
3.44097
11.6199
10.4853
43.8393
4.14943
7.9532
102.572
0.577993
49.7327
13.3923
47.8111
160.461
46.7906
8.32283
25.1664
0.799598
23.3254
1.13343
179.164
27.4391
10.4483
8.34318
25.9426
24.9775
37.2409
88.8109
76.2015
12.1491
10.8895
169.99
23.6278
14.9236
63.7151
85.0216
85.3571
16.4846
43.8101
13.349
22.6702
152.772
65.7689
77.6477
37.7544
77.8879
63.1319
53.1789
0.917154
76.6778
1.31271
52.146
153.566
371.824
80.0022
163.312
95.735
42.8943
619.507
43.6053
11.8692
1.56178
53.8618
57.8403
56.9663
93.1153
78.6086
8.05424
67.9935
34.2053
0.778523
148.722
69.3925
71.8497
58.3568
69.4699
51.9459
40.3598
43.9929
33.1769
22.7413
21.2632
100.24
17.0173
59.9093
210.874
30.5379
26.8039
45.0958
72.0282
30.6336
40.4559
66.1212
179.024
179.24
35.0871
55.5451
22.5123
44.0982
36.5907
114.451
53.7751
1.85641
3.56043
0.947424
39.4719
46.7924
69.8428
61.9484
57.5654
208.912
1.90803
37.7395
44.4883
35.9494
30.5486
52.3779
49.5368
42.554
43.6176
72.3921
8.35319
56.8141
14.0178
46.5511
32.4181
0.707223
77.3456
55.9371
39.3944
316.756
3.99573
63.5493
19.4375
61.0614
108.696
1.77156
55.0189
158.742
39.6021
37.2514
35.1945
238.909
36.8255
51.0639
74.9548
124.521
44.8924
6.9789
35.117
49.3658
50.1618
20.0765
170.444
170.05
68.513
44.7528
47.6554
53.4478
55.1064
20.1905
18.0257
35.9401
4.47419
56.9286
35.07
273.271
80.6283
45.7583
29.7909
281.679
24.6121
44.1734
9.73905
15.4933
12.2121
36.18
277.76
0.829608
3.25798
61.8762
52.1357
9.2125
47.9798
103.877
43.6427
81.6083
31.6351
13.8102
84.6395
226.993
46.929
10.1453
97.3346
137.428
38.424
59.921
20.9027
124.52
296.324
105.78
180.162
26.8588
44.5852
56.6526
10.0198
31.9876
44.1257
22.1721
88.8444
56.0421
56.5767
2.68444
66.2022
88.4231
19.9144
145.703
55.0692
13.1804
36.9581
67.9047
55.3445
125.525
186.306
0.40407
79.1117
37.1926
2.37971
138.292
40.6596
77.5765
278.062
286.654
1.4696
33.091
50.0036
4.69519
49.0822
65.7781
36.7091
33.1691
6.02736
58.5951
0.889306
25.3686
15.9927
10.7388
0.810538
400.072
54.5088
57.222
6.79969
40.0262
10.1446
394.288
142.872
41.6443
1.1412
2.39851
47.2878
0.796935
1.00479
56.1291
9.62681
52.8103
32.0297
51.803
70.6046
62.0256
29.4037
6.11533
37.0049
59.403
20.0663
37.8279
0.460414
53.8511
1.28446
70.5527
159.646
37.5123
36.6715
24.0772
32.7456
81.1324
13.6111
35.6635
64.5701
30.771
7.89988
1.36802
30.2446
1.14172
55.7568
28.8498
25.9661
6.58856
66.795
68.5501
784.278
29.7118
40.5504
40.4393
39.0416
563.686
3.30359
21.2882
163.541
68.0049
294.391
57.0641
8.73057
87.1312
59.0116
3.52795
94.9031
48.2674
75.3922
99.962
34.3548
59.2192
16.4632
8.54358
0.546458
82.0171
321.527
310.943
25.6234
31.5449
300.138
49.6841
88.6726
61.7595
14.8696
56.2222
3.72979
0.540658
36.1386
50.8661
173.087
1.61335
349.493
33.7542
144.997
45.9703
16.7365
34.9066
15.1574
3.85302
1.35657
4.95028
54.8021
2.60298
0.32051
12.7164
35.7996
50.4154
23.9624
68.8255
51.3687
67.5203
0.660985
152.821
50.034
78.2622
646.416
61.2276
100.441
36.4995
7.50164
1.39805
97.4577
45.9658
75.4476
248.371
1.3571
72.2051
177.611
553.698
311.021
391.504
68.6683
49.5963
54.6168
62.3607
58.6195
78.1573
46.5931
37.0187
33.9751
35.9642
36.2351
53.7544
87.1421
33.0291
37.4255
42.4498
30.6488
45.8087
45.0847
29.65
44.2176
43.0937
29.5754
41.0542
63.8934
130.633
0.738354
26.3782
36.4317
17.1612
16.116
231.085
46.1117
17.8147
15.1903
20.4827
4.61186
332.841
32.8036
3.03626
142.71
47.5848
70.2976
24.9201
2.58768
326.122
7.42243
38.5717
42.4006
33.4192
3.15378
8.84622
139.97
33.1038
31.1258
62.5561
59.9199
41.8935
48.2584
160.573
1.61048
0.537622
9.52727
0.997491
52.6859
64.8344
27.5377
37.315
36.9339
13.2973
28.4775
6.04815
17.238
45.082
155.071
67.2959
42.1146
68.5304
7.08783
34.2584
1.69186
38.089
8.49244
3.37518
42.5285
26.8535
353.124
3.15178
31.1054
10.1112
52.1866
1.05484
902.212
56.92
31.6714
0.784716
329.639
58.885
139.26
0.892801
0.597082
1.58631
6.61886
11.7719
54.5198
29.6534
425.62
204.891
37.9888
57.8446
0.880328
36.9094
23.9545
47.3481
26.6258
17.0915
48.3974
64.7954
59.3047
101.005
79.1484
1.43872
1.05876
25.9228
53.2556
52.6367
5.57896
47.3213
31.2521
36.9325
15.4537
43.1256
35.3235
170.61
469.285
1.34495
66.1433
29.5116
2.0467
62.0277
338.611
27.4868
42.4373
19.4531
164.391
147.045
1.62006
16.4399
38.9868
42.9407
361.411
164.399
71.395
36.6551
2.82915
132.298
1.73705
58.9779
22.2766
377.877
87.2989
304.409
165.048
57.9218
29.5778
50.2728
2.23541
5.62716
1.32954
1.65493
1.07049
45.8784
83.2231
39.3741
46.1049
75.6966
168.849
0.482218
2.9176
74.2422
382.827
50.5761
365.479
90.906
71.6241
407.622
37.3093
413.554
416.906
435.517
338.575
344.339
324.126
439.617
293.207
0.630948
0.950522
0.967285
0.613612
0.703878
0.80822
56.3016
41.2547
81.4647
44.1435
59.0597
28.2512
0.62682
52.4896
0.811139
1.24361
46.1768
0.530001
29.6498
17.6243
3.97264
11.4507
6.39393
67.4142
66.5884
41.9302
44.9778
41.6471
3.78676
35.9661
721.996
31.2364
9.50488
24.0108
48.0973
2.43447
19.975
159.806
0.759157
53.7603
0.468838
9.7856
1.26933
30.8148
28.3144
5.36866
0.442506
32.4977
8.29278
6.07781
62.7604
79.4922
4.329
20.439
29.6186
195.033
0.720567
164.138
241.849
7.08233
182.95
35.6586
9.37073
45.2657
164.28
1.65179
48.9899
55.4747
117.155
71.9293
30.1184
38.0965
6.76535
0.606423
65.7401
29.6639
53.0863
151.227
195.882
199.326
97.7724
21.333
25.2368
52.3571
1.84439
6.14596
2.34169
31.1208
8.72663
231.461
62.3677
1.8462
157.667
42.7369
15.5791
72.4964
5.27941
47.6356
175.095
61.5028
47.1427
0.460927
53.4152
54.528
188.239
79.3693
354.069
0.585103
8.90312
33.2434
296.965
149.363
94.2563
64.7349
52.3766
0.518265
337.401
7.05306
41.0963
30.7517
29.3034
11.3569
65.8695
0.710384
45.3984
37.2692
179.481
10.6192
69.8236
45.7818
22.5581
0.648253
6.17121
4.86289
106.696
27.8563
69.8462
148.911
52.2893
61.2517
41.5883
23.4349
0.776183
29.4092
15.4956
44.1351
388.289
39.7313
705.287
36.6731
8.30568
37.6871
166.269
37.8435
1.07906
10.4763
46.939
89.8611
36.2417
71.2943
107.669
59.6245
14.5683
26.1448
12.2525
0.992976
41.2458
223.154
60.3404
260.301
44.4864
31.5913
40.2919
46.8503
29.5913
6.54338
50.701
13.2521
0.836527
37.7739
425.32
40.3947
41.9722
1.19715
3.09537
22.6182
38.3903
24.0381
402.57
63.0416
85.4403
139.929
8.98867
44.3536
49.919
52.1069
161.743
49.008
65.3605
32.5179
49.2101
15.4108
65.5691
21.1715
35.6124
337.39
46.8822
8.02896
33.9895
62.5602
98.3416
21.3375
45.0818
11.7508
298.393
31.6523
2.60561
0.509643
593.448
38.6533
66.8981
1.53326
2.9044
245.594
11.9475
289.519
1.72048
1.38278
5.02291
442.019
1.2246
390.234
179.757
5.92883
50.4882
188.89
293.68
86.3024
329.933
6.18848
8.68877
25.8083
46.9847
6.61168
164.893
1.97547
51.0913
451.778
392.338
33.8804
35.4045
2.28187
171.027
1.53109
39.8404
13.0828
294.631
1.38051
4.05447
16.5813
86.0407
62.637
36.2684
6.28012
0.584687
1.46891
196.405
377.077
1.40839
40.7164
7.12687
1.81871
27.6854
32.3241
13.0188
47.9772
0.641573
23.8126
22.3244
34.5356
191.308
33.6636
0.804896
45.0069
28.4414
0.563829
1.48211
50.8
17.808
1.25391
17.6401
20.7645
29.9735
1.0421
0.698316
193.123
174.473
67.0564
20.7079
1.13773
2.45989
0.374786
40.933
1.6951
2.17991
3.11554
3.56382
8.37994
0.711625
171.082
47.4017
18.7419
64.6863
62.4446
159.157
41.1422
0.62682
9.4419
101.779
37.1364
175.09
11.9763
23.4219
50.3248
35.8842
2.79712
23.1089
1.53028
3.76049
3.06824
168.912
249.571
63.6813
107.743
11.1257
81.3446
31.9564
47.6432
97.1359
11.7525
16.2198
45.8268
106.428
3.99946
0.746787
68.1567
50.6853
19.0911
10.9356
)
;

boundaryField
{
    frontAndBack
    {
        type            empty;
    }
    wallOuter
    {
        lowReCorrection 0;
        type            epsilonWallFunction;
        value           nonuniform List<scalar> 
96
(
65.4665
27.9933
30.3336
273.271
281.679
277.76
47.9798
31.6351
13.8102
226.993
10.1453
137.428
20.9027
296.324
180.162
278.062
286.654
33.091
6.11533
70.5527
7.89988
99.962
34.3548
321.527
310.943
68.6683
49.5963
54.6168
62.3607
58.6195
78.1573
46.5931
37.0187
33.9751
35.9642
36.2351
53.7544
87.1421
33.0291
37.4255
42.4498
30.6488
45.8087
45.0847
29.65
44.2176
43.0937
29.5754
41.0542
38.5717
64.8344
27.5377
38.089
3.37518
353.124
37.9888
101.005
66.1433
29.5116
27.4868
361.411
2.82915
1.73705
377.877
382.827
365.479
407.622
37.3093
413.554
416.906
435.517
338.575
344.339
324.126
439.617
293.207
0.630948
0.950522
0.967285
0.613612
0.703878
0.80822
28.2512
3.97264
30.8148
30.1184
354.069
4.86289
388.289
402.57
65.3605
32.5179
1.2246
329.933
451.778
2.28187
)
;
    }
    inlet
    {
        type            fixedValue;
        value           nonuniform 0();
    }
    outlet
    {
        type            zeroGradient;
    }
    wallInner
    {
        lowReCorrection 0;
        type            epsilonWallFunction;
        value           nonuniform List<scalar> 
126
(
48.2271
9.73565
15.805
0.727067
0.977872
0.488411
0.496994
1.26607
4.70868
2.07769
5.51634
25.7296
306.222
11.4168
1.23806
7.35682
18.2895
12.8115
2.45233
0.308857
1.22924
9.18279
35.2761
3.09411
13.7274
9.38517
15.7048
1.43451
2.1643
0.709977
34.1538
33.0825
364.199
21.8596
245.733
1.00084
1.55062
35.5404
19.5889
1.147
0.357617
47.0035
5.45862
1.82875
8.83893
6.57814
2.19451
254.79
1.72688
92.6916
143.939
2.08982
163.531
8.82405
46.6043
56.7207
4.38766
184.397
107.387
53.7393
5.65121
0.931312
0.98387
110.794
10.9047
9.61438
76.8026
100.745
1.00106
129.665
74.9284
63.9972
7.06703
7.05887
83.6672
102.572
8.34318
169.99
85.0216
152.772
77.8879
153.566
67.9935
148.722
100.24
210.874
179.24
52.3779
0.707223
158.742
124.521
124.52
105.78
10.1446
100.441
97.4577
45.082
195.882
33.8804
35.4045
101.779
37.1364
11.9763
50.3248
35.8842
2.79712
1.53028
3.06824
168.912
249.571
63.6813
107.743
11.1257
31.9564
47.6432
97.1359
11.7525
16.2198
45.8268
106.428
3.99946
0.746787
68.1567
50.6853
19.0911
10.9356
)
;
    }
    procBoundary3to1
    {
        type            processor;
        value           nonuniform List<scalar> 
48
(
88.3171
90.7949
80.6486
84.4572
54.9647
92.2855
90.7949
20.6884
77.7142
2.75185
2.75185
3.63018
3.63018
2.66777
2.72027
4.03124
5.5592
5.42327
5.5592
4.54675
2.20288
4.51296
4.54675
38.5036
2.51169
3.1437
6.87877
4.51296
8.86638
15.5866
15.5866
14.5809
14.5809
77.7142
2.78387
54.9995
31.8888
2.51169
91.0182
47.3828
2.66777
47.8767
62.4284
4.54675
2.81669
65.6771
51.6151
2.22603
)
;
    }
    procBoundary3to2
    {
        type            processor;
        value           nonuniform List<scalar> 
29
(
1.51437
1.51437
1.66307
1.9971
6.88195
3.89676
1.16603
1.99067
1.4954
1.6243
2.8039
4.46237
1.58052
0.580259
0.454341
0.682189
1.22274
1.25813
1.60152
0.537049
0.502097
1.22274
0.683868
1.25813
0.440788
1.28247
1.25813
3.12083
3.12083
)
;
    }
}


// ************************************************************************* //
