/*--------------------------------*- C++ -*----------------------------------*\
| =========                 |                                                 |
| \\      /  F ield         | OpenFOAM: The Open Source CFD Toolbox           |
|  \\    /   O peration     | Version:  v1912                                 |
|   \\  /    A nd           | Website:  www.openfoam.com                      |
|    \\/     M anipulation  |                                                 |
\*---------------------------------------------------------------------------*/
FoamFile
{
    version     2.0;
    format      ascii;
    class       surfaceScalarField;
    location    "0.75";
    object      phi;
}
// * * * * * * * * * * * * * * * * * * * * * * * * * * * * * * * * * * * * * //

dimensions      [0 3 -1 0 0 0 0];
oriented        oriented;


internalField   nonuniform List<scalar> 
2708
(
-0.000435792
-1.19856e-05
0.000205053
0.000242724
0.000166645
0.000248906
-0.000196541
-0.00021901
-4.25669e-06
2.868e-05
-4.75597e-05
2.31363e-05
-0.000104722
0.000137958
-4.79337e-05
1.46975e-05
-0.000438008
-0.000209061
0.000329015
0.000318054
0.000758249
-0.000925285
0.000433691
-0.000266655
6.54078e-05
-6.9023e-05
3.21336e-05
-2.85184e-05
-0.000121897
0.000201164
-2.18771e-05
-5.73901e-05
-0.000605105
0.000654322
0.000649536
-0.000698752
2.07118e-05
7.56564e-05
-3.09604e-05
0.000929048
-0.000962306
0.000289961
-0.000256703
0.000271379
-0.000346551
0.000752873
-0.000677701
-0.000173012
0.000231305
-0.000277932
0.000219639
-0.000107225
-0.000372352
0.000344139
0.000135437
0.000332328
-0.00048318
-0.000116565
0.000267416
9.37743e-05
2.09781e-05
-9.40407e-05
-0.000769157
0.000608139
-0.000184194
0.000345213
0.0002519
-0.000365237
0.000220491
-0.000107154
0.000346682
0.000132809
-0.000445997
-3.34933e-05
-0.000183941
-8.1047e-05
0.000249265
1.57231e-05
-0.000396353
0.000780325
0.000545076
6.57928e-05
-3.5893e-05
-0.000137125
-0.000615235
-0.000333475
0.000484783
0.000463928
-0.000269325
-0.00126266
0.00130123
0.000230752
-0.000693714
-0.000526627
-0.000115248
4.98231e-05
0.00016073
-9.5305e-05
-0.000934977
-0.000164116
0.000136787
-0.000231808
8.30364e-05
0.000271781
-0.000123009
5.98539e-05
-0.000468634
0.00040878
-2.08159e-05
-0.000515632
0.000536448
0.000616085
4.88793e-05
-5.13049e-05
-0.000613659
-0.000583036
5.08955e-05
-2.21491e-05
0.00055429
0.00058884
4.4125e-05
-2.38318e-05
-0.000609133
-0.000233917
0.000170703
6.97254e-05
-6.51061e-06
0.000701571
0.000309286
-0.00073742
-0.000273437
-5.41733e-05
9.84171e-05
-6.60392e-05
2.17953e-05
0.000221911
0.000828926
-0.000133123
-5.53805e-06
7.86254e-06
2.73092e-05
-2.96337e-05
-1.94286e-05
3.43262e-05
1.91848e-05
-3.40823e-05
9.15822e-05
0.000502978
-0.000575918
-1.86418e-05
-0.000517746
0.00045824
0.000922525
0.00104522
-0.000168232
-0.000120028
-5.04849e-05
-2.22945e-05
3.49878e-05
3.77916e-05
-0.000453978
0.000634388
-0.000494329
0.000313919
0.000161885
-1.23438e-05
-0.000172505
2.29633e-05
0.000167649
-0.000119029
-7.26112e-05
2.3991e-05
-0.000883502
0.000108839
-0.000160314
3.21913e-05
-3.38193e-05
-6.7395e-05
3.04469e-05
-1.54854e-05
-3.58321e-05
2.08706e-05
2.542e-05
-0.000332818
0.000373887
-6.64892e-05
5.15226e-05
-5.25956e-05
-3.90348e-05
4.01078e-05
0.000422268
-0.000226771
-0.000209934
1.44362e-05
2.52278e-06
0.000299222
-0.000151943
-0.000149803
9.58029e-05
0.00018833
-0.000131829
-0.000152304
-0.000100609
0.000207233
1.12629e-05
-0.000117886
0.000128926
-0.000197275
-7.05101e-05
0.000138859
-0.000426063
-0.000380885
0.000495477
0.000311471
0.000790158
-0.000184702
-0.000605456
0.000135367
5.74915e-05
-0.000192859
0.00010052
4.33376e-05
-1.10938e-05
-3.22439e-05
-3.64946e-05
6.82678e-05
-3.17733e-05
1.53797e-05
-2.09178e-05
-8.9435e-06
-1.04851e-05
6.37999e-06
-9.28499e-07
0.000306467
-4.15786e-05
5.64869e-05
2.51022e-05
-7.17018e-05
0.000131318
-5.96157e-05
-0.00015025
0.000221634
-7.13835e-05
-0.000154163
0.00014793
6.23269e-06
-0.00024861
1.46925e-05
6.59566e-05
-2.07659e-05
4.17303e-05
0.000128972
-0.000285601
-8.67503e-05
0.000260774
-9.88887e-05
5.29835e-05
7.0043e-05
-0.000123026
-3.03273e-05
2.19638e-05
8.36347e-06
6.82745e-05
7.3819e-06
7.7979e-05
0.000173921
-0.000652543
-0.000116615
1.69599e-05
-7.69647e-05
6.00048e-05
-0.000162178
8.20252e-05
0.000509753
-0.0004296
-0.000223744
0.00019901
0.000192383
-7.75874e-05
5.36934e-05
0.00122511
-0.00120121
2.43404e-05
0.000150316
-3.47135e-05
-0.000139943
-4.61174e-06
1.1939e-05
-9.64058e-06
2.31331e-06
0.000171884
-0.000191519
1.60153e-05
3.61978e-06
2.4762e-05
2.65982e-05
-0.00101257
0.000961209
-0.000118779
4.58274e-05
-0.000751501
0.000824452
-2.77414e-06
0.000205659
-7.3959e-05
0.000238138
-0.000248452
7.54013e-06
1.39462e-05
-2.86131e-05
2.25294e-05
-7.84356e-06
4.2635e-05
-0.000101875
6.70831e-05
0.000151736
-0.000114343
5.84095e-05
3.28639e-05
-0.000443046
0.000410182
-0.000308846
-0.000283508
-0.000407308
0.000474199
0.000216617
-4.48019e-05
-3.46174e-05
2.89344e-05
-0.000193516
0.000178764
1.47517e-05
0.000291415
-0.000203569
-0.000188455
2.58197e-05
-2.7284e-05
-0.000493568
2.51312e-05
-4.62074e-05
0.000514644
-5.34881e-05
-7.2235e-05
0.000161353
-3.56303e-05
-4.47535e-05
-1.3978e-05
2.84042e-05
-0.000588289
-1.77378e-06
0.000598431
-8.36769e-06
8.53128e-06
0.000613874
-0.000596005
-2.63999e-05
-0.000123318
0.000669947
-0.00072312
0.000176492
0.000432596
-0.000287829
-0.000478242
0.000627411
-0.000330821
-5.74397e-06
8.76233e-05
-0.000396232
0.000171862
0.000455674
5.71861e-05
-2.33498e-05
2.81524e-05
-6.19886e-05
-0.000664513
0.000602325
0.000520428
0.000115247
0.000239729
-0.000177234
9.55292e-05
-3.87651e-05
0.000178001
-0.00015366
-2.11148e-05
-5.25154e-05
-9.77346e-05
-7.97078e-05
-0.000403472
0.000113402
-0.000110879
-6.39676e-05
-5.509e-05
0.00020302
7.12485e-05
-2.97404e-06
4.87268e-05
-9.06414e-05
-0.000189999
0.000164075
8.3713e-05
-6.08594e-05
5.82646e-06
-4.56528e-05
3.39839e-05
1.32606e-05
-1.59178e-06
0.000221227
0.000386912
-6.10218e-05
-0.000304215
-5.496e-05
-5.57634e-05
6.50706e-05
7.0014e-05
-0.000353419
0.000630087
-0.000171059
0.000288492
-0.000301375
4.50861e-05
-2.86976e-05
-6.52878e-05
2.37603e-05
-2.22572e-05
1.51126e-06
-3.01428e-06
8.2894e-05
-1.78923e-05
-7.60955e-05
0.00119274
0.000118938
-0.00115378
-0.000157892
4.12554e-05
2.35422e-06
3.1972e-05
0.00058544
2.94358e-05
6.88518e-05
-0.000683728
-0.000149205
0.000320703
0.000313285
0.000101911
0.000519793
-9.23915e-05
-0.00024314
0.00026072
0.000273834
9.33126e-05
0.00011748
-5.28213e-05
-8.40456e-05
-7.55523e-05
0.000569514
1.95524e-05
-0.000513514
-3.46752e-05
0.000212676
-0.000532231
-3.82816e-06
-7.09777e-05
0.000607037
-9.03633e-06
1.4515e-05
-3.40917e-05
-0.00119613
-0.00012434
0.00115653
0.000163945
0.000466773
0.000365831
-0.000319977
-0.000512627
-0.000155461
8.24961e-05
-0.000607299
0.000680265
-5.13759e-05
5.21871e-05
1.1099e-05
-1.19102e-05
0.00104481
-0.000908044
0.000207299
-0.000344063
-0.000327531
-0.000199024
0.000248623
7.84124e-05
-8.76213e-05
-1.30695e-05
2.22784e-05
2.41618e-05
-2.64201e-05
2.33845e-05
-2.11261e-05
-5.99396e-05
0.000173342
-0.000719451
0.000353515
-6.9855e-05
0.000194238
7.27449e-05
-3.08714e-06
1.26162e-05
0.000399839
-0.000379174
-0.000167849
0.000147183
-0.000131272
-0.000929631
5.79626e-05
0.00100294
-0.000266303
-0.000309283
0.000332446
3.5629e-05
0.000591074
-2.31462e-05
-0.000603557
0.000264103
-0.00149466
3.33585e-05
0.0011972
0.000357253
-0.000315735
0.000207388
0.000312247
-0.00124428
-3.23784e-05
-3.67657e-05
1.41842e-05
0.000890829
-0.000586558
6.46291e-05
0.000388588
-3.09487e-05
0.000548434
-9.73317e-05
-0.000415172
-3.59296e-05
-2.45804e-05
2.53429e-05
4.53644e-05
0.000215938
-0.000248063
0.000122272
-9.01477e-05
0.00115254
-0.00113174
-0.000290123
0.000497127
-9.60781e-05
0.00048978
-0.000465569
0.000474101
-0.000319841
0.000196523
0.000219521
0.000604505
-0.000766424
0.000345568
-0.000100704
0.000521561
-2.64177e-05
-5.44247e-05
-0.00108582
0.00116667
0.000599625
-0.000653855
0.000156142
0.000642502
-0.000548227
-1.6557e-05
-7.77182e-05
0.000550297
-0.000785323
0.000326608
0.000592552
-6.71893e-05
0.000144583
-1.57023e-05
0.000196524
0.000820082
-0.000650775
-0.000309525
-0.000355417
0.000381433
0.000650617
-0.000616112
-0.000131766
9.72607e-05
0.000105277
-2.43102e-05
5.03505e-05
-0.000143906
0.000111763
0.000214661
-0.000182519
0.000220892
-0.000219152
0.000102301
-0.000104041
1.6357e-05
6.213e-05
-7.45974e-08
-0.00062641
-0.000401028
0.000770893
0.000256545
-5.48327e-06
2.90595e-06
2.73207e-06
-1.54754e-07
1.2822e-05
0.000286251
-0.000339061
3.99877e-05
9.4346e-06
0.000648605
-0.000647156
-1.08831e-05
0.00015862
-0.000631667
0.000639454
-0.000166407
-0.000120474
-6.04379e-06
9.48539e-05
3.16634e-05
0.00108526
-0.00110983
-5.90851e-05
8.36521e-05
-0.000154932
-9.59545e-07
0.000121715
9.48728e-06
-0.000131202
-1.80492e-05
2.25366e-05
-9.21087e-05
0.000632413
4.97576e-05
-6.82969e-05
-0.000519947
-4.05688e-05
-2.77733e-05
-9.54263e-05
-0.00116152
0.00117936
-9.37043e-05
-5.11968e-06
-9.46919e-05
0.000637764
-0.000184951
-0.000528366
1.68927e-05
0.000654376
-2.06516e-05
0.000275577
-7.07899e-05
8.55752e-05
-0.000290363
0.000226111
-0.000585491
-0.00026703
0.00045628
0.000308352
-0.000617375
-0.000147257
-9.61122e-05
0.000189068
0.000122983
0.000280569
-0.000273353
0.000450218
-0.000457434
4.0992e-05
3.46789e-05
-2.88952e-05
-4.67757e-05
-0.000621364
0.000545413
-0.00107052
0.00109517
-0.000120071
-0.000594812
0.000721864
-0.000528079
-0.000175688
0.00016822
-0.000414306
3.3615e-05
0.000689043
-0.000483664
6.17736e-05
0.000648001
-3.36488e-05
-0.00018633
0.000301801
-8.18217e-05
-1.44266e-05
1.33543e-05
0.000617157
4.4105e-07
-0.000595963
0.000604956
0.000371035
-0.000123582
0.000302844
-1.29766e-05
-0.00060642
3.63602e-05
-0.00076328
-0.000221466
0.000841111
0.000143635
0.00063158
0.000139484
-0.000138652
-1.45715e-05
-0.000367793
-0.000137583
-0.000120007
0.000396693
0.000322938
-0.000129508
0.000102768
0.000209529
-0.000182789
-6.45355e-05
7.8659e-05
-4.6502e-05
-0.000171771
0.000344554
0.000179032
-0.000351815
0.000101206
-8.64698e-05
-0.000340945
0.000507827
-0.000181453
-8.82934e-05
-0.000117483
-9.68546e-05
8.34434e-05
0.000130894
-0.000363171
0.000207311
-0.00027991
0.000843492
0.000321408
-0.000537084
-0.000401699
-4.17571e-05
-8.45935e-05
3.85856e-05
-4.46335e-05
-0.000363551
0.00121446
-0.000826145
-5.36005e-05
2.63864e-05
9.96552e-05
-1.67845e-05
1.17566e-05
3.88745e-05
-0.00118954
4.6175e-06
0.000936584
0.000248341
-5.75686e-05
3.97686e-05
-3.58005e-05
-0.000182266
0.00111951
0.000157926
-0.000616624
0.000775434
-0.000442142
0.000283333
1.10604e-05
0.000291804
0.000153816
-8.43241e-05
-0.000361296
8.97206e-05
-0.00039164
-9.16138e-05
0.000119128
-1.46468e-05
-2.76022e-05
5.78667e-05
-0.000357823
-0.000606445
-0.000573859
0.000448196
-0.000492243
-0.000605222
0.000649269
-4.99399e-05
0.000167431
0.000475061
0.000112195
-0.000788386
-6.16633e-05
-0.000135611
0.000192365
9.10249e-05
0.00061141
0.000183898
-0.000163727
-0.000177274
-0.000151096
-0.000127158
0.000128718
-0.000131068
0.00122214
-0.000308602
-4.10767e-05
0.000531447
0.00149173
-0.000186915
-8.26768e-05
-0.000674091
-0.000106158
-2.31891e-06
0.000782569
-0.000416739
0.00041718
-0.000523858
0.000663343
-0.000318686
0.000376454
-0.000324071
-0.000267651
0.000331263
-0.000589494
0.000525882
-8.28548e-08
0.000399869
0.000293124
-0.000162356
-5.31516e-05
-7.76165e-05
0.000120307
-9.20428e-05
-9.04716e-05
6.22077e-05
-0.000265308
0.000568768
-0.000465638
-0.00100606
0.000108187
-0.000291674
-0.000407733
6.77059e-05
-8.69605e-05
0.00117633
-0.00115707
0.000207321
-0.000140222
-0.000286109
-1.51964e-05
-0.000624555
0.000579601
-0.000651448
0.000696402
-2.76222e-06
-0.000482451
3.29024e-05
-0.00026932
-4.21133e-05
0.000278531
2.42566e-05
-0.00077495
3.01889e-05
-0.000591752
0.000281167
-0.000601008
5.44203e-05
-0.00051999
2.70731e-05
-0.000160562
3.97848e-05
-0.000412289
-4.44987e-06
0.000254468
0.00027485
-0.000268598
6.28267e-05
-5.8684e-05
-4.14268e-06
0.000109639
-0.000158763
-0.00012815
-0.000225955
0.000258057
-4.96483e-05
1.75464e-05
-0.000249307
-0.00052536
0.000133917
0.00064075
-6.42249e-05
4.76483e-05
-0.000428391
-0.000630011
0.000452819
0.000354403
0.000912728
-0.000311876
0.000152224
-0.000720684
0.000792491
0.000124717
-1.94115e-05
9.066e-05
6.08437e-06
-0.000129334
7.93942e-05
0.000672694
-0.000667486
0.000649114
-0.000595358
0.000237179
-0.000350677
-0.000499216
0.00023378
7.76415e-05
3.08391e-05
-8.1576e-05
9.66692e-05
-4.59324e-05
-0.000621977
0.000582527
0.000748946
-0.000709496
0.00028899
-0.000337995
-0.000379386
0.000178929
4.57946e-05
-9.56354e-05
4.38832e-05
-2.52125e-05
0.000247617
5.92684e-06
-0.000220641
-0.000547352
0.000282272
0.000442396
-0.000177317
-6.4246e-05
1.66863e-05
8.31286e-05
0.000710962
-0.00066624
-0.000685369
0.000640647
0.000335566
-0.000351671
8.04352e-05
-6.43305e-05
0.000118923
-3.07903e-05
1.15226e-05
0.000414062
-0.000454631
8.2987e-05
-7.37478e-05
-6.88549e-05
0.000710829
-0.000650528
-0.000684857
-2.51567e-05
1.87471e-05
5.238e-05
-4.59704e-05
-5.59239e-05
-2.32584e-05
-0.000233255
2.01211e-05
-0.00072176
0.000504103
0.000647391
-0.000429734
-0.000243713
-0.000675028
-0.000662013
0.00040964
-0.000294979
1.80732e-05
6.99284e-06
-0.000207303
-3.29441e-05
-0.000193566
0.000314088
-0.000725696
0.000605174
-0.000270874
0.00103856
-0.000165359
-0.000563819
0.000420853
0.000815659
-0.000787195
0.000513739
0.00067015
-8.8778e-05
-0.000202539
0.000758114
-0.000525892
0.00125951
-0.00022678
-0.000687471
3.62771e-05
0.000259169
-5.34463e-05
-0.000242
7.56606e-05
-4.67446e-05
0.000750359
-0.000779275
1.91886e-05
0.000154106
-5.50868e-05
-0.000118208
0.000335517
-7.02349e-06
-8.0877e-05
0.000496065
0.000246686
-0.000488137
-0.000254614
-0.00021054
0.000238293
-8.56404e-06
0.000209598
-0.000164821
-6.24737e-05
1.7696e-05
0.000349627
-2.36683e-05
0.000987064
-0.00131302
3.45438e-05
-6.81926e-05
0.000107655
-0.00133177
0.00119769
-2.82002e-06
4.24502e-06
6.43678e-05
-0.000126467
-0.000124339
8.95159e-05
-0.000747053
0.00113565
0.000119135
-0.000507731
-0.000628412
0.000645528
-0.000558272
0.000432236
0.000127457
-0.000645177
0.000577574
-4.68915e-05
-0.000626159
0.000652235
0.000840137
-0.00085967
-0.000136761
-0.000106899
3.45983e-05
-0.000580043
9.64848e-05
0.00111325
-0.000629687
-0.000324088
-0.000149692
0.000302009
0.000920651
0.000226093
0.00090452
-0.000892799
-0.000131793
0.000272429
-4.3215e-05
8.28021e-05
-9.64924e-05
5.69053e-05
7.45879e-05
-4.84655e-05
-8.02022e-05
5.40799e-05
-0.000214887
0.00093714
0.000298026
-0.000214785
-0.000410772
-0.000642926
0.00047804
-4.33154e-05
0.000127415
6.87932e-05
-0.000152893
-1.00239e-05
-0.000936776
-0.000727881
6.99736e-05
0.000681592
-7.27791e-05
-0.000678787
0.000434947
0.000164648
-0.000169939
-0.000429656
0.000594778
-1.93229e-06
-0.000400848
-0.000191998
0.000771713
-0.000894613
-8.86598e-06
-0.000352767
-0.000160487
0.000189166
9.79496e-05
-7.50539e-05
-0.000389862
6.25526e-05
2.89724e-05
0.000298337
-0.000515628
8.09228e-05
4.48429e-05
-7.45938e-05
4.48625e-05
-3.44936e-05
0.000857372
-0.000325651
-0.000177335
-0.00068665
0.000500012
-0.000131868
0.000318506
-0.000407085
-0.000112625
-0.00016694
-0.000628859
0.000689293
0.000227096
-0.000721118
-0.000238428
0.00073245
0.000605126
-0.000597536
0.000239096
3.76802e-05
0.000887588
-0.000599275
0.000572975
-3.10216e-05
0.000832571
0.000135034
-9.97099e-06
6.58152e-05
1.44351e-05
-7.02794e-05
0.000495901
-6.77984e-05
-5.98122e-05
-0.00036829
-0.000757469
5.92802e-05
-1.41841e-05
-5.41474e-06
1.95989e-05
-7.56305e-05
5.02295e-05
0.000512504
6.38541e-06
-2.29883e-05
0.000673816
-0.000415965
2.44216e-05
0.000484285
2.21139e-05
6.10506e-06
-0.000129865
7.66317e-05
-8.27628e-05
0.000135996
1.03767e-05
0.000654375
5.95935e-05
6.82266e-05
-8.39368e-05
0.000487191
0.00014975
-0.000468774
-0.000168167
-5.74996e-05
0.000223698
-0.000962702
0.000461078
6.27829e-06
1.69284e-05
-0.000126566
0.000606474
0.000232491
-0.000149458
-0.000217798
3.72647e-05
0.00028128
0.000211232
-0.000212178
-2.00152e-05
3.50006e-05
0.000446093
8.92934e-05
-7.85131e-05
-0.000147541
-0.000119264
-0.000121616
0.000159834
0.000173945
0.000288081
-0.000329217
8.97662e-06
3.70722e-05
1.11373e-05
-0.000215104
-0.00120189
0.000154331
-0.000189877
0.000316523
6.3353e-05
-0.000189998
0.000325961
-0.000291308
0.00020031
-0.000234964
0.00045273
-0.000316647
0.000180421
-7.7506e-05
0.000270668
0.000208192
0.000267281
-2.27427e-05
-0.0003593
0.000436202
-0.000309252
0.00023235
0.000165415
-9.76961e-05
0.000424064
-0.000295403
-3.09651e-05
0.000378697
-4.01905e-05
-4.39279e-05
-3.27484e-05
0.00050074
9.19276e-06
-0.000304291
0.000171279
0.000123819
0.00106276
0.00052718
-0.000303448
-0.00128649
-1.03344e-05
0.00025782
-1.91607e-05
0.000162932
7.8255e-05
-7.37483e-05
-2.24817e-05
-4.57653e-05
-3.2451e-06
2.05417e-05
2.84687e-05
6.89502e-05
-1.80462e-05
0.000215506
-0.000206094
-0.000263999
0.000254587
-7.20587e-05
5.87031e-05
6.77132e-05
-5.43576e-05
-9.92788e-05
-8.2312e-05
0.000109532
-3.55697e-05
-3.77073e-05
4.96273e-05
2.36497e-05
-8.52737e-05
8.67683e-05
2.40888e-05
-2.55834e-05
-5.31729e-05
-0.000122642
1.64167e-05
2.96526e-05
8.9307e-05
-6.00153e-05
5.46928e-05
2.50253e-06
-0.000982855
3.69699e-05
0.000918023
2.78618e-05
2.65154e-05
-3.2343e-05
-4.73453e-05
-4.14744e-05
-0.000131904
3.34948e-05
3.09296e-05
-3.22418e-05
-7.11377e-06
5.72893e-05
-4.3871e-05
-6.30448e-06
-0.00105708
0.00010758
2.79345e-05
-9.40268e-05
9.5745e-05
-4.32145e-05
-7.88032e-05
6.60699e-05
-3.19806e-05
-4.12031e-05
-0.000293458
-0.00013488
-0.00117056
0.000203204
6.3064e-05
-3.25638e-05
-0.000329932
-0.000721689
6.88811e-05
-7.71479e-05
-1.40277e-05
5.12733e-05
-0.000222122
-0.000154203
5.76475e-05
-2.53768e-05
-7.66195e-05
4.43488e-05
-0.00131937
0.000273244
0.000828688
-0.000647147
0.000881216
1.16934e-06
-8.66758e-05
2.69378e-05
1.21104e-05
-1.52879e-05
-1.06026e-05
-1.51242e-05
6.11543e-05
3.2754e-05
1.0813e-05
2.16778e-05
1.92418e-05
-9.3026e-06
-0.000930857
0.000440173
-7.91097e-05
4.66629e-05
-2.17265e-05
0.000114893
-8.08998e-05
4.38256e-05
0.000110856
-0.000143868
-0.000151836
-3.42159e-05
2.60207e-05
8.13463e-06
-0.000101479
-6.14547e-06
1.24099e-05
7.33517e-06
-1.35996e-05
-0.000750227
5.01587e-05
-4.62698e-05
-8.29986e-05
-2.42306e-05
-6.61339e-05
-9.30276e-06
5.04426e-07
3.53951e-07
8.44439e-06
0.000126287
-0.000198998
6.54653e-05
7.24577e-06
-1.71537e-05
4.67349e-05
-7.19647e-05
4.06501e-05
-5.59041e-05
-0.00122025
0.000166578
6.31139e-05
2.63931e-05
-3.93484e-05
0.000113513
0.000287499
-0.000162874
2.66588e-05
-3.04894e-05
4.99166e-05
-4.6086e-05
1.74966e-05
9.80813e-05
-6.57548e-05
0.000300017
6.68573e-05
2.96586e-05
-2.99989e-06
-0.000332658
-0.000875651
-1.19439e-05
-0.00118245
-0.000467589
0.000109649
-2.43333e-05
-5.91981e-06
0.000115697
5.20714e-05
-3.56493e-05
0.000204692
8.92467e-05
-0.000180426
2.50228e-05
-1.68289e-05
0.000156219
5.60955e-05
-3.83693e-05
-1.73246e-05
-5.86619e-06
-3.82389e-05
6.78976e-05
4.75597e-05
7.59298e-05
-5.73558e-05
-1.13726e-05
-1.43224e-05
3.98496e-05
-0.000109488
0.000148224
-0.000756996
-0.000253691
0.000344018
-0.000209356
0.000111967
-0.000270391
0.000187254
3.20147e-05
-9.02514e-05
-1.58501e-05
9.96091e-05
8.40816e-05
-8.20795e-05
4.56462e-05
-0.00142249
-0.000210155
0.000377317
2.07897e-06
-4.10741e-05
5.61812e-06
-1.10329e-05
-0.000153995
0.000102296
-0.000163548
-0.000123268
0.00018452
0.000164209
-0.000173066
-4.72369e-05
1.21867e-05
-7.44381e-05
0.000509899
-0.000410048
-0.00062099
0.000521139
-6.02998e-06
8.67015e-05
6.03123e-05
0.00067042
-0.000594759
-2.46314e-05
0.000105675
1.8565e-05
-6.31141e-05
0.000207522
-0.00043314
0.000513203
-0.000147862
-2.16945e-05
-3.23908e-05
5.40854e-05
2.77866e-07
0.000720517
-0.000683115
6.41757e-05
0.000150088
-0.000390503
0.000407611
4.91046e-05
-0.000295273
0.000267853
-0.000741324
0.000869832
-0.000128508
0.000182802
-0.00011593
-0.000596672
5.64884e-05
-0.000263008
0.000803192
-0.000352171
0.000303515
-0.000264197
0.000312852
-2.46944e-05
2.97345e-05
0.000826832
0.000401245
-0.000428725
0.000487101
-0.000459621
4.24853e-06
-2.62971e-05
-9.72465e-06
9.51244e-05
-0.000239216
8.41726e-05
3.96776e-05
-4.45046e-05
6.97268e-05
-7.09043e-05
-0.000750865
0.000595363
-0.000240851
-0.000166497
-0.000474103
-0.00130654
-0.000302866
0.000764141
0.00020728
1.04687e-05
-0.000178961
0.00020477
-0.000523172
0.00068152
-2.04983e-06
-0.000147605
0.000160123
0.000207602
-2.75417e-05
-5.33161e-05
-0.000114516
0.000123327
0.000191391
-0.000688896
3.92337e-05
0.000458271
-0.000387587
0.000352587
1.49842e-05
-0.000835582
0.000368757
0.000780914
-1.46545e-05
0.000360603
0.000117795
6.20774e-05
-0.000110851
0.000111401
-5.49892e-07
0.000741861
8.36751e-05
-8.76606e-05
3.60002e-05
4.43153e-05
0.000445666
-0.000489982
4.56652e-05
0.000290532
-0.000376388
0.000164695
-0.000275581
-0.0004089
2.7592e-05
0.000264448
-0.000271528
-0.000828503
-0.000483484
0.000665743
-0.000435949
0.000587878
0.000125344
-0.000563471
0.000201573
0.000599596
-0.000616997
0.000723237
-0.000243184
8.72936e-05
-9.95622e-05
-0.000112901
-7.71382e-05
0.000137952
0.00012644
0.000200173
-0.000207823
0.000517099
-0.000516821
-0.00032134
-0.000466005
0.000214949
0.000336632
-0.000573481
-0.00024117
0.000277567
-0.000485758
0.000288092
-0.000276988
0.000474654
-0.000122842
8.87889e-05
0.000182277
0.000246277
0.000402986
-0.000214315
0.00113428
0.000159698
0.00049492
-0.000528409
6.84888e-05
5.81195e-05
0.000755794
-0.000743873
-0.000183629
0.000171709
0.000629081
0.000210625
-0.000430066
-0.00114755
0.00106362
0.000241429
-0.000689804
-1.88904e-05
0.000170345
-0.000143439
-8.01609e-06
4.32519e-05
4.64581e-05
-8.05814e-06
-0.000113316
-2.62302e-05
-0.000339676
0.00020301
-0.000378962
3.28495e-05
0.000243028
-0.000541694
0.000596386
0.000705562
-0.000709731
0.000654095
-0.000649926
0.000144612
0.00110559
-0.000937959
7.80909e-07
-4.51772e-06
9.16875e-05
6.78015e-05
-8.49011e-05
0.000649706
-0.000145263
4.39913e-05
0.00013524
-0.000273658
-0.000218332
6.01121e-06
0.00010539
-0.000462585
0.000538162
-0.000415252
-0.000114777
-7.22422e-05
-0.000105847
0.000785302
-0.000383328
-0.000547584
0.000445154
-7.2485e-05
0.000121947
-0.000135257
0.000136923
0.000220601
-9.94666e-05
0.000208686
1.68762e-05
8.39348e-05
-5.55127e-05
0.00033218
0.000105477
0.000240654
6.45576e-06
0.000107859
0.00067186
0.000673895
-0.000807735
-0.000104148
-0.000363028
-0.000563851
0.000536377
-0.00021311
9.67256e-05
0.000682945
-0.000643623
0.000402046
9.81705e-05
-8.22713e-05
-6.24012e-05
-4.19304e-05
4.97657e-05
0.000487085
-1.80387e-05
0.000535138
-9.11709e-05
-0.000571474
5.00061e-05
-0.000201793
-0.000392397
-0.000241604
-0.000103678
-5.69236e-05
0.00091182
-7.25315e-05
-0.000590947
0.000451625
-5.95867e-06
0.000500003
0.000549645
2.54446e-05
-0.000138028
-0.000967907
-0.000272138
0.000352223
-0.000471216
-3.64747e-05
2.63236e-05
-5.3903e-05
9.1239e-05
0.000267392
9.0703e-05
-0.000113963
-0.000178711
-3.93527e-06
0.000236383
0.00050964
8.13176e-05
0.00024816
0.000990482
-0.000936788
0.000641164
-6.93465e-05
-3.74861e-06
1.2524e-05
7.4668e-05
0.00107724
-8.67572e-05
-4.25228e-05
0.000640684
0.000228388
-0.000143198
0.000118036
-0.000245592
-0.000200735
-0.000403839
-0.00086877
-6.80187e-05
-2.63181e-05
1.6268e-05
2.66901e-05
-1.66399e-05
-0.000163477
0.000198827
1.30436e-05
-4.83936e-05
6.04403e-05
0.000172582
-0.000597258
-3.76286e-05
0.000184575
-5.33731e-05
8.66099e-05
-3.32368e-05
-0.000263625
7.02142e-05
0.000205597
0.000238629
0.000275917
0.000732213
-2.74482e-05
-2.59249e-05
7.29677e-06
7.1538e-06
-1.44506e-05
-0.000309622
-0.00028585
0.000354813
-6.89624e-05
-0.000136799
0.000257073
1.67711e-05
-9.47434e-06
0.00109865
0.000224035
-0.000170821
-5.32142e-05
-6.71165e-05
-0.000517006
4.9111e-05
-0.000435898
-2.02944e-05
-4.42969e-05
0.000579435
-9.82372e-05
0.00117548
-6.17073e-06
0.000457796
-6.18153e-05
0.000178034
-0.000149903
0.000273879
8.76036e-05
-7.40509e-05
-0.000666738
0.000653185
-0.00038397
-0.000159657
-9.73299e-05
-0.000643687
-7.72958e-05
-0.000664135
0.000187851
0.00060374
7.63889e-05
-0.000112483
0.000708584
-0.000320243
9.55115e-05
-0.000115617
-0.000107052
-0.000509765
-0.000474772
1.7751e-05
1.98195e-06
-0.000663565
-2.35832e-05
0.000590893
0.000330425
-0.00033476
-5.22111e-05
3.95917e-05
-4.60647e-05
4.01563e-05
-0.00014972
0.000190881
-0.000417807
-0.000113885
-0.000133272
9.76992e-05
-3.03047e-05
-0.000345298
0.000390478
0.00012304
0.000160487
-7.85421e-05
0.000118628
8.29293e-05
-7.23604e-05
5.96454e-05
0.000288399
1.01642e-05
-5.9934e-05
0.00078062
-9.27044e-05
0.000436838
-0.000801064
2.76367e-05
8.29223e-05
-0.000457015
0.000433868
-0.000363965
-8.98588e-06
0.000537929
-0.000256875
0.000276415
4.38132e-05
-0.000966972
0.000178831
-1.6415e-05
-0.000290578
0.000260786
-0.000120007
-1.20975e-05
0.000625868
-3.54403e-05
8.35445e-05
-2.96063e-05
4.43875e-05
9.08942e-05
-0.000111077
0.000117356
-8.425e-05
4.7549e-05
-2.82207e-05
0.000312128
-5.545e-05
0.000675147
0.000254304
-0.000784673
5.81755e-05
8.39797e-05
-7.3205e-05
-0.000695488
-0.000117431
-0.00015483
-0.000227334
0.000220979
0.000129342
-0.000134573
0.000309009
8.78303e-05
-3.78483e-07
3.74096e-05
-9.49242e-05
2.73999e-05
4.14457e-05
-0.000552926
-0.000120198
5.39859e-05
-5.98102e-05
0.000794238
0.000949344
8.55797e-05
0.000743717
-8.3505e-05
-8.61309e-06
-2.35158e-05
2.85556e-05
-5.03978e-06
-0.000170026
0.000181964
-0.0007071
0.00065717
0.00062953
7.52296e-05
-0.000131149
-0.000404741
-1.8162e-05
0.000321542
-1.05447e-06
0.000126766
-0.00126551
-0.000688658
0.000890298
-0.000419022
0.000500165
1.99752e-05
-0.000640089
-0.000394271
0.000256453
-0.000205208
-0.000467502
-0.000399125
9.57218e-05
-6.7447e-06
3.04608e-05
0.000113137
-0.000115961
-0.000373865
0.000147962
-0.000299458
0.000110997
-9.94304e-05
3.40798e-05
0.000208316
2.82869e-05
4.65617e-06
4.32211e-05
6.10457e-05
-0.000246563
6.54409e-05
0.000101128
-0.000670045
-0.000225027
0.000600128
7.65526e-05
0.000692643
-1.04521e-05
-0.000257026
0.000644923
-0.000602783
4.74853e-06
1.23416e-05
-0.000240932
0.000145178
-0.00115322
9.29033e-05
-9.31292e-05
-0.000747459
0.000203292
0.000637296
-3.80263e-05
0.000896965
-0.000199306
0.000175483
0.000230654
-0.000563019
0.00012467
-0.000536668
0.000482835
-5.23251e-05
-0.000204704
-0.000291317
0.000424597
-4.40548e-05
-0.000437039
5.05458e-05
0.00058983
1.41633e-05
-1.85528e-05
-0.000108649
-5.49923e-05
4.09869e-05
0.00026821
0.000516364
-7.95257e-05
-0.000688599
-0.000112465
4.00715e-05
0.000321853
-0.00010664
0.000345923
0.000454301
4.1774e-05
-0.00017662
-0.000452004
0.000311978
8.3691e-05
0.000127472
9.3641e-05
-0.00034471
1.15329e-05
-1.38469e-05
1.08306e-06
-2.30644e-05
0.000436639
-0.000582877
-7.87885e-05
0.000315114
1.87435e-05
-4.3051e-05
-0.00061623
-3.05915e-05
0.000608795
-2.60829e-05
0.000201023
-0.000909879
0.00104071
-6.37621e-05
0.000122333
2.28538e-05
-5.91833e-05
0.000147638
-0.0001763
-2.84303e-05
0.00017142
2.18923e-05
8.27643e-06
5.78672e-05
2.63462e-05
-0.000282438
0.000187531
-0.000170565
0.000265472
-0.000119756
0.000107623
6.13656e-07
2.93018e-05
-0.000392974
-0.000423329
-0.000466999
0.00060789
-0.000160764
-0.000271819
-8.05923e-05
0.000643653
4.26765e-05
-0.000605737
-0.000116085
-0.00016125
0.00015804
0.000119294
0.000107177
-1.68385e-05
-3.42254e-05
-0.00062026
0.000587655
-0.000179656
-0.000387281
0.000459473
-0.000585368
-0.000533581
0.000397986
0.000141345
-7.67125e-05
-0.000395454
0.000137307
-0.000169691
5.40273e-05
-4.7035e-05
0.000665015
-5.93195e-05
-0.000680197
-0.000548658
-0.000281351
0.00081216
0.000146102
-0.000448564
-2.72784e-05
8.08007e-05
-0.00033756
-0.000306747
0.00052926
-0.000363715
0.000250854
0.000789727
-0.000673568
-0.00011616
-0.000419277
0.000430922
-1.16451e-05
-0.000385662
0.000355473
-0.000339231
-1.62418e-05
0.000901922
0.000417946
-0.000350144
0.000354093
-3.94871e-06
0.000392792
4.26476e-05
0.000407504
-5.3411e-05
-0.000611794
0.00101076
0.000456383
0.000587537
-0.00055595
-3.15873e-05
0.000469737
0.000395797
0.000378738
1.70589e-05
0.000466878
2.85953e-06
0.000372573
6.16476e-06
0.000389322
-1.67492e-05
0.000408874
-2.62657e-05
0.000917142
0.000388785
-1.62502e-05
2.00892e-06
4.81357e-05
-0.000171495
4.48932e-05
-2.4859e-05
-9.26454e-05
0.000819482
-0.000135284
-5.46957e-05
0.000148804
0.000483465
6.25014e-06
0.000643666
8.35866e-05
0.000116218
-0.000117491
0.000220652
8.60213e-06
9.10065e-05
6.9488e-05
0.000638483
-0.000637543
-3.49242e-05
0.000409308
0.000328003
-0.000106363
-5.28761e-06
3.40795e-06
-8.23036e-05
-5.79721e-05
-0.00026099
0.000413531
0.000827937
-0.000340519
0.00017787
-0.000126416
-1.98955e-05
-3.9121e-05
-0.000122274
0.0008819
-0.00115127
9.30097e-05
0.00025697
-0.00014673
0.000887013
1.73646e-05
0.000247785
-0.00115216
-3.90999e-05
-8.01397e-05
-3.53255e-05
-7.68936e-05
-4.33031e-05
7.2263e-05
0.000294413
-0.000492778
5.84378e-05
-9.69227e-05
4.56574e-05
1.27572e-05
0.000192513
0.000107853
-0.000232653
0.000120215
-8.49995e-05
-6.75585e-05
3.78339e-05
7.93068e-05
-0.000479577
-8.36689e-05
0.000431378
-0.000363286
0.00039489
-0.000263864
-9.14454e-05
-0.000223225
-1.09943e-05
2.83002e-05
0.000155866
-7.92421e-05
-2.62875e-05
-0.000394889
0.000396968
6.53207e-05
-0.000124927
-1.89065e-05
2.78618e-05
-3.31494e-05
0.000267927
-0.000633838
2.78418e-06
-0.000543986
0.00010058
0.000298481
-0.00042633
-5.63462e-05
-6.3857e-05
8.49346e-05
0.000199414
-0.00022484
-8.67017e-05
-0.000582748
3.59268e-05
-0.000153961
0.000665796
1.45579e-05
3.31607e-05
-0.000162772
0.000686328
-0.000297945
0.000177072
1.37401e-05
8.02812e-05
-2.38012e-05
0.00012372
3.71712e-05
-0.000243156
9.99295e-06
-0.00010335
0.000135398
-5.94041e-05
-5.62547e-05
-0.000277933
8.73347e-05
-8.31774e-05
8.46316e-05
-0.000568953
-9.78222e-05
0.000220844
2.67859e-05
0.000149253
-0.000231121
-0.000188218
0.000809271
2.13328e-05
0.000105544
0.000159172
-2.94107e-05
-3.74573e-05
-0.00017003
0.000399852
-0.00038266
-0.000134489
0.000432275
-0.00019341
5.69491e-05
0.000124671
-8.6766e-05
-0.000134083
0.000455689
-0.000491545