/*--------------------------------*- C++ -*----------------------------------*\
| =========                 |                                                 |
| \\      /  F ield         | OpenFOAM: The Open Source CFD Toolbox           |
|  \\    /   O peration     | Version:  v1912                                 |
|   \\  /    A nd           | Website:  www.openfoam.com                      |
|    \\/     M anipulation  |                                                 |
\*---------------------------------------------------------------------------*/
FoamFile
{
    version     2.0;
    format      ascii;
    class       volScalarField;
    location    "0.11";
    object      epsilon;
}
// * * * * * * * * * * * * * * * * * * * * * * * * * * * * * * * * * * * * * //

dimensions      [0 2 -3 0 0 0 0];


internalField   nonuniform List<scalar> 
1466
(
2.95032
4.89237
1.28222
1.87084
3.27046
3.3528
9.03772
1.93994
0.932812
3.18495
0.993427
2.66236
0.4036
0.81973
0.615446
0.881359
0.955103
2.23914
3.92343
1.11483
0.57166
3.11468
2.51696
5.33601
0.842943
0.638039
0.991615
1.27286
2.86616
2.42599
1.79098
2.06067
2.57972
1.46846
2.28352
0.659497
0.72474
0.548865
2.50815
2.78072
2.64799
1.21206
1.45792
1.72692
1.54689
2.60294
0.562068
3.45537
1.22358
0.568706
0.835601
2.60756
3.7596
3.32103
3.49147
0.822377
0.524039
3.00962
0.888353
0.814092
1.03452
1.90703
2.87644
2.87324
3.65982
1.39341
0.901059
0.578497
2.19962
3.15356
0.580239
1.78776
0.545297
1.49307
0.756227
3.01005
1.61622
1.9524
3.01734
0.777267
0.612152
1.55762
0.577778
1.2151
0.551631
0.5679
0.551949
3.28104
1.28949
2.54534
1.59927
0.753623
0.826436
2.07121
0.801073
0.565879
3.22529
1.03761
3.20879
1.66221
2.93419
1.40328
1.85496
4.47957
0.559495
1.74433
0.592075
0.568546
2.49637
0.879134
0.742439
0.580611
0.815918
0.553361
0.484836
1.11075
1.12645
0.898244
2.79733
1.68362
0.576084
1.91493
0.812924
3.20382
1.47809
1.40965
0.701972
4.39205
0.934503
0.763939
1.24288
1.78958
2.7254
1.17732
0.610431
0.760955
1.22521
0.567685
1.36022
2.85451
2.74492
0.760142
1.15243
0.780145
1.42985
2.82127
4.76049
3.77944
1.10139
0.548707
1.08532
0.752834
2.30308
3.03814
1.42763
0.713026
1.88946
3.157
1.35326
3.4472
1.41004
1.62741
4.33828
0.568839
1.34919
0.757524
0.737075
5.06389
1.06696
1.65812
0.566509
0.568495
0.756819
0.936817
0.789971
3.18483
1.28492
0.824245
0.654162
0.820718
1.66432
0.569547
1.35124
1.32528
3.24187
0.830806
0.583374
1.32546
0.623493
4.67503
6.84632
3.10285
1.49848
3.83336
0.565478
1.80911
1.29358
0.784018
0.835775
0.858967
1.41623
0.650263
0.562988
1.1617
0.813923
1.18175
0.574589
3.63272
0.710799
0.673192
0.708033
2.67329
0.761495
0.568204
3.03803
0.598774
1.08645
0.809848
0.938554
1.54719
3.63634
1.90201
0.935139
0.56404
0.812081
0.568024
0.789173
0.780801
0.654694
0.794288
0.577219
3.45024
1.31332
0.86155
0.592382
0.843585
0.907145
1.96057
1.08182
0.887023
0.857118
1.29108
0.745951
1.24673
1.23478
0.854452
0.704134
0.773892
0.870614
0.82315
1.41999
0.748125
1.19893
2.94276
1.47192
0.777601
0.81939
0.724995
1.46329
3.47385
0.572838
0.562683
1.0566
3.08996
4.1376
0.567923
1.01652
0.99809
0.59869
1.63814
1.4208
1.68291
0.589365
0.740577
0.557643
0.960247
3.1175
2.12188
4.09666
1.19692
0.829963
0.877729
0.792285
0.645085
0.576722
0.598067
1.65188
0.721612
2.79694
2.36637
0.570413
1.06072
2.50986
3.64292
1.19855
0.771316
1.65697
1.4624
1.00152
0.788008
1.39649
2.98451
0.776938
2.26167
0.620963
1.26765
1.89626
1.10297
0.752662
2.71781
0.706975
0.776661
0.639721
2.1349
1.23282
0.603261
1.23865
0.629828
1.68769
0.689296
0.569943
0.733376
1.38768
1.57912
3.38865
0.865264
0.683876
0.782093
0.738151
0.787185
0.780953
0.833092
0.683121
1.58843
2.46183
1.25739
0.99355
0.731231
1.6494
0.730952
0.65015
0.704454
1.13275
0.743126
0.775332
0.689518
0.722165
0.799374
1.7683
2.43895
1.08854
0.582026
1.0381
0.988091
1.00327
0.655848
1.77577
5.15484
2.42586
1.1213
2.58175
0.768665
0.720338
2.12185
2.72457
0.716601
0.695106
0.693768
0.687479
0.636887
0.698485
0.802747
0.855826
1.0066
1.33649
1.33492
1.00477
2.27309
0.563096
0.967317
0.581686
1.65155
1.60434
0.655914
1.14296
2.00552
0.643931
0.590842
0.85864
1.21396
1.52482
0.709387
0.777753
0.979662
0.842885
0.775915
0.720839
0.588158
0.556833
0.926724
2.61888
0.579015
0.773926
0.599595
2.21531
0.583206
0.824041
1.78332
0.658311
0.725471
0.577674
1.03288
1.08435
3.1216
0.79322
1.43439
0.82464
0.870223
1.62918
1.74666
0.931276
1.16658
2.80925
2.90664
2.32432
2.25917
2.72016
2.68364
4.13763
5.70207
0.740361
0.581334
0.96738
2.74082
3.76792
1.84116
0.969481
1.61111
2.37933
1.61253
6.12278
1.27443
3.3501
2.41542
1.63495
1.043
1.09987
0.913727
1.5532
1.04386
1.80924
0.854719
2.67481
0.876234
1.25426
2.65834
0.94568
1.01236
3.17969
1.34275
1.37295
1.00561
0.964701
1.1196
3.67237
2.41998
1.75331
0.577953
0.626369
1.37075
2.54087
2.39129
1.40813
2.69027
1.58136
1.76953
1.87529
1.18941
2.02616
1.96856
0.590783
0.582163
1.55981
0.597721
1.75619
0.612871
0.620566
0.716683
1.46434
1.65936
2.06596
0.685187
0.671341
0.625065
2.64639
2.17244
2.08704
1.72741
3.2758
4.41464
1.01772
0.748352
2.68108
1.03434
0.590378
0.781776
1.83085
1.74757
0.848223
1.6859
0.988682
2.67142
1.2062
1.84288
2.95718
1.26053
0.914675
0.755846
1.03087
1.29645
1.21978
0.82816
3.55541
3.67651
4.2703
1.36672
3.64136
3.54166
0.890775
0.589902
0.591838
0.72711
1.29834
1.029
2.56279
2.59092
1.53613
2.56521
0.567797
2.28421
2.59724
1.21262
1.18682
1.66637
1.27614
3.66124
0.866269
0.838551
0.969759
1.46008
0.865963
0.542634
1.58347
0.946892
0.762989
1.07682
0.859236
0.582598
0.829027
1.53873
0.573659
2.25375
0.831035
0.832397
1.99238
0.856063
0.570021
0.854951
1.05326
0.922208
0.557308
2.26645
0.908319
1.59696
1.78499
0.774073
2.6942
0.579571
1.0719
0.797217
1.75504
0.623957
0.773293
0.73942
0.558104
2.77971
2.36304
0.846887
1.09822
0.882234
4.05878
2.35417
1.81143
1.60162
1.28467
0.86008
0.826786
1.0477
0.887335
0.74542
1.38467
1.79901
0.983546
1.1195
0.591875
1.70328
0.771028
0.578681
0.753502
1.03404
0.912583
2.03531
0.940236
1.50579
0.718413
0.579967
0.777056
0.856021
3.10947
1.51645
1.11688
0.570441
4.10237
1.06737
0.900601
0.787816
0.821431
0.744125
0.573874
1.25453
0.897091
0.914173
1.44538
4.22394
0.75595
0.911942
0.720595
1.20221
1.55167
0.940977
0.579912
2.61974
0.527394
2.14225
0.609197
1.3951
1.18217
2.17547
0.931513
0.59148
0.68432
1.19474
0.954817
1.27972
1.59893
1.25212
1.20919
0.964177
0.611943
1.22627
0.839518
1.01299
1.59999
2.69001
1.04308
1.43212
0.701085
0.914777
1.08579
1.24385
0.643161
1.17921
0.635813
1.03651
3.8491
1.94121
1.26137
1.12501
0.890404
1.75652
1.30801
0.983512
0.7431
1.28914
1.09759
0.574162
3.19664
0.600542
1.25583
4.29271
1.38136
0.683875
2.24473
1.55276
2.95764
0.779
1.0432
0.631668
1.44847
1.13411
1.02535
1.28433
0.94748
1.80049
1.39877
1.96717
0.947065
1.36268
0.951743
1.51744
0.968464
1.11255
1.2214
1.80437
1.06604
2.1327
0.896225
1.0349
0.730958
1.20481
0.795727
0.847627
0.758043
0.953833
0.748076
0.572732
0.776154
0.892763
3.21444
1.27754
0.713383
2.13109
1.44155
1.07879
0.956579
0.718413
1.19793
0.815807
0.935455
2.16261
3.32095
1.32812
0.878013
1.54883
5.66859
0.831618
0.935691
1.64832
2.8221
1.22002
0.954214
2.14262
0.719463
1.26482
0.828961
3.25276
1.91888
0.751768
1.71805
0.698738
1.86737
2.71541
1.4371
2.25541
2.00563
0.99934
6.18765
2.01187
0.994814
1.05648
1.32522
3.7748
4.71524
0.702519
1.13611
1.18231
0.799278
1.09896
0.697837
2.14811
2.2757
2.22739
0.601284
0.884283
1.06618
1.18556
0.841384
0.565415
1.94943
2.04191
1.73554
1.41651
1.5958
1.85362
3.68335
1.37144
1.84143
0.577503
2.97315
1.3532
4.69179
0.768408
0.755905
0.950989
1.64608
1.19311
1.50442
0.541281
0.88949
1.37526
2.15895
1.00263
0.590575
1.86257
0.9743
2.1005
2.41428
1.24648
3.70585
1.3403
2.69226
0.896418
0.732877
1.12014
0.754634
0.766989
4.23483
0.578479
0.608732
0.868687
0.713766
1.61067
0.762827
0.767614
0.674163
1.16121
1.9828
1.34782
0.759723
4.1153
1.05907
0.67938
1.99451
0.731893
0.613919
1.16645
0.906048
0.981187
0.705494
1.13241
1.71112
1.83129
0.77257
1.76247
0.729481
0.618989
2.1096
0.78236
1.84973
1.7215
1.47035
0.614022
2.85525
3.0847
1.12802
2.0376
2.62731
0.616762
0.807013
0.760613
0.631957
0.958625
2.32644
1.50478
0.997229
0.571086
1.3691
3.7513
2.04794
0.788777
1.47829
0.983348
0.859542
0.578226
2.84726
0.984937
3.23365
1.5743
0.727842
2.37018
1.52378
0.570734
0.790995
0.738508
0.682063
1.4543
0.59794
0.656957
1.97897
1.25307
2.06877
0.619979
2.10202
3.00256
0.826287
0.810596
0.570924
0.550866
1.17935
1.5625
0.859563
0.58049
0.848837
0.895021
1.58697
0.889157
2.64667
1.28877
3.74178
0.769709
2.55224
1.41549
0.863041
3.11986
1.32319
1.06185
0.594444
1.17964
1.44993
1.1998
1.32205
2.84863
1.12958
0.722116
0.712517
0.852863
0.571916
0.782751
0.644876
1.15541
1.18153
1.30411
1.20731
4.3014
5.41439
3.67387
3.46402
1.13467
3.41732
3.76047
1.10453
1.07078
1.05187
2.19958
1.03339
0.978424
2.47267
0.921892
2.28379
0.726866
3.98231
2.01216
2.02328
0.790301
2.76519
1.17825
1.33901
2.13185
0.902096
0.646779
3.50194
0.781473
1.61729
0.621763
1.80063
3.33399
0.980871
1.92779
3.97683
0.820832
1.65546
1.38156
1.76317
0.706598
0.581338
1.04263
3.48961
0.626625
0.596835
2.32853
3.0781
2.7655
3.62319
3.92037
1.97657
0.589032
2.07324
1.65885
0.834624
1.14088
3.7451
3.79824
2.44066
0.616595
1.64101
0.831715
0.858923
2.30415
0.836613
3.32506
0.614957
2.77081
1.84026
1.29401
0.676232
1.21618
0.836246
1.54491
0.784523
1.11646
0.541101
2.03309
4.79511
3.78349
2.22036
1.37505
6.71954
1.10322
4.06572
2.62596
0.574784
1.28718
0.758748
2.22162
1.69677
0.968404
1.92905
0.966383
1.0577
3.47031
2.83939
0.927775
0.576898
0.666006
1.05566
0.893274
3.22661
0.526874
0.863
0.73641
1.0876
0.679393
0.577007
0.812374
1.58578
1.90903
1.98235
0.585762
1.05452
3.9682
1.25912
1.83211
0.833529
0.785693
0.589702
0.592193
0.536601
1.12937
1.26506
2.0089
0.702354
2.42372
0.633858
0.711765
1.30022
0.955045
1.32487
1.60174
1.50687
2.3219
3.80988
0.786016
2.29086
2.35153
1.9174
2.01758
1.1665
2.15189
0.99198
0.698589
1.93368
1.7566
0.603113
0.871912
5.23579
1.75591
2.55187
0.797423
2.93224
0.579353
1.64804
2.48314
0.566531
0.82824
0.644225
0.614299
0.697036
2.27408
1.25881
3.10422
0.823118
0.882678
0.596544
1.92893
2.33768
2.00782
1.72536
5.31167
0.696334
1.25967
0.719167
1.07204
0.763227
0.841564
0.730434
0.670694
1.03363
0.580021
2.59543
2.29001
0.629142
1.85212
0.609344
0.72092
0.618449
1.34816
1.50041
1.87237
1.81358
0.58238
2.93276
0.971769
1.45726
0.651623
0.67721
1.80661
0.63061
4.97385
0.752254
0.770727
3.10647
1.88926
0.526184
0.830443
0.972218
1.69107
1.18479
0.744275
2.53091
0.751163
1.10617
0.707154
0.768823
2.47104
0.776313
2.78077
3.31095
0.951721
0.91562
0.586519
2.00959
0.602086
0.796016
0.859289
2.53307
1.89648
2.16603
2.66306
1.13317
1.98978
0.768483
1.25611
1.78602
1.28332
1.04053
0.661363
2.65567
5.57107
0.714267
3.62855
0.668907
0.622901
0.819813
1.85401
0.673295
1.53511
0.725841
0.697575
0.610222
2.76533
0.651631
0.647172
2.68194
0.576865
1.39094
2.14558
0.537052
1.16797
0.594983
1.03315
0.920553
0.57363
0.57582
3.92809
0.963947
0.545852
1.01305
0.72806
1.33328
5.12034
6.45526
3.73661
3.3289
0.684556
0.587638
1.95843
1.94325
1.98172
0.7627
1.97581
0.577215
0.675434
0.5592
3.33613
1.15396
1.06603
0.70474
2.25607
1.87564
0.944763
3.91845
1.43298
0.780683
1.25627
0.688659
1.30554
1.12064
1.30846
1.17153
0.757142
1.77272
2.19345
1.73731
2.84077
0.82466
0.80996
0.887229
2.81538
0.790183
0.653697
3.44411
0.684574
0.588828
1.21304
1.69263
0.818047
0.670773
2.83327
7.25338
1.71786
0.79373
0.698752
3.9178
0.655285
2.41215
0.747696
0.721233
0.820827
0.548292
0.661925
0.691821
2.27405
4.20319
2.73098
1.35611
2.36992
1.67008
1.17918
3.47029
1.21094
1.2539
2.11987
0.712314
1.21048
0.721251
0.851897
1.06024
0.55548
0.830575
3.03635
0.721597
2.84282
0.971833
2.18485
0.623859
2.10816
1.9719
3.40604
1.15338
1.6661
1.91457
5.03882
2.00687
2.24259
0.627208
0.737055
1.96415
2.16821
0.694647
0.732959
0.607788
1.53327
2.02789
0.558003
2.75047
1.33647
1.61947
5.91534
1.28509
3.14366
1.94469
0.769465
0.592495
0.699709
2.54715
1.45374
1.44296
0.916049
1.96242
1.59395
2.8539
1.33711
2.0945
0.662355
0.869078
0.734805
0.749383
0.600864
1.11525
2.34204
0.751687
1.46197
0.767882
0.770465
1.38042
2.46223
1.79536
2.58047
0.578845
1.10646
0.598649
0.645301
1.42033
1.42658
0.571863
4.57783
0.671343
1.45925
1.55246
0.584766
0.582721
1.06109
0.57988
0.600578
0.7267
0.915023
0.872227
0.742108
1.66263
2.29053
0.531885
0.723168
1.1655
0.568059
5.16105
0.822119
1.28738
1.27677
0.686191
1.21759
0.595678
3.40077
2.2856
2.25009
0.572446
0.629309
1.54732
2.05381
2.15588
0.605455
2.47441
1.23475
0.819389
0.581598
0.614171
2.4341
0.654993
4.2763
1.71832
1.0931
0.822664
1.25038
2.34211
0.570752
5.09476
0.802886
0.596371
1.75846
1.72992
0.723888
2.18836
1.38249
1.81805
1.3307
0.670002
1.95366
2.36623
0.82737
1.19954
1.32389
5.50837
3.27473
0.678038
1.61054
5.1676
3.6705
3.42461
2.17002
2.48232
3.61881
4.04016
1.2443
0.815285
2.33902
1.96079
1.0591
0.595208
1.28277
0.584825
1.00922
3.08484
0.732558
1.40007
0.71827
0.745228
1.53463
1.13261
0.739742
0.830556
4.23372
1.54772
4.11045
4.86402
6.18856
3.02698
2.77051
)
;

boundaryField
{
    frontAndBack
    {
        type            empty;
    }
    wallOuter
    {
        lowReCorrection 0;
        type            epsilonWallFunction;
        value           nonuniform List<scalar> 
102
(
0.4036
0.4036
2.51696
0.756227
0.484836
0.752662
0.842885
0.7431
1.07879
0.956579
1.19793
0.815807
1.32812
0.878013
1.54883
5.66859
0.935691
2.14262
1.86737
2.01187
0.702519
0.601284
0.884283
1.3532
4.69179
0.754634
0.766989
0.729481
1.7215
0.895021
0.889157
1.15541
1.18153
1.30411
1.20731
4.3014
5.41439
3.67387
3.46402
1.13467
3.41732
3.76047
1.10453
1.07078
1.05187
1.03339
0.978424
0.726866
3.98231
3.50194
1.61729
3.33399
3.97683
3.62319
3.92037
2.07324
3.7451
3.79824
2.77081
1.84026
2.22162
0.966383
0.927775
0.526874
1.58578
0.785693
2.42372
0.786016
2.29086
1.75591
1.64804
2.48314
0.697036
2.27408
3.10422
2.00782
0.719167
0.730434
2.59543
1.87237
2.93276
0.63061
0.972218
1.18479
2.47104
2.00959
2.53307
1.04053
1.85401
1.94325
7.25338
1.71786
0.55548
0.971833
1.15338
2.24259
1.45374
2.0945
0.734805
0.584766
0.7267
0.872227
)
;
    }
    inlet
    {
        type            fixedValue;
        value           nonuniform 0();
    }
    outlet
    {
        type            zeroGradient;
    }
    wallInner
    {
        lowReCorrection 0;
        type            epsilonWallFunction;
        value           nonuniform List<scalar> 
138
(
0.993427
0.955103
2.86616
2.42599
2.60756
3.7596
3.32103
3.49147
1.90703
0.753623
2.93419
4.47957
0.812924
2.74492
0.760142
2.82127
4.76049
5.06389
4.67503
6.84632
3.10285
0.809848
0.745951
0.854452
0.704134
0.773892
0.870614
0.82315
4.1376
0.877729
0.792285
0.721612
1.57912
3.38865
0.865264
0.683876
0.782093
0.738151
0.787185
0.780953
0.833092
0.683121
1.58843
2.46183
1.25739
0.99355
0.731231
1.6494
0.730952
0.65015
0.704454
1.13275
0.743126
0.775332
0.689518
0.722165
0.799374
5.15484
2.12185
2.72457
0.716601
0.695106
0.693768
0.687479
0.636887
0.698485
0.802747
0.855826
1.0066
1.33649
1.33492
1.00477
0.967317
0.926724
2.61888
1.08435
3.1216
1.16658
3.76792
6.12278
3.17969
2.41998
1.37075
1.87529
1.18941
2.64639
3.2758
4.41464
2.68108
3.67651
4.2703
0.890775
0.866269
2.6942
4.05878
2.35417
4.10237
4.22394
2.69001
3.8491
1.94121
1.25583
1.11255
0.935455
3.32095
4.71524
2.04191
1.19311
1.00263
1.24648
0.767614
4.1153
1.05907
0.78236
0.958625
0.810596
0.712517
0.921892
1.17825
3.32506
4.79511
3.78349
1.69677
2.3219
5.23579
1.07204
0.770727
1.88926
3.31095
0.768483
5.12034
4.2763
4.23372
1.54772
4.86402
6.18856
3.02698
2.77051
)
;
    }
    procBoundary2to0
    {
        type            processor;
        value           nonuniform List<scalar> 
42
(
3.20101
3.20101
4.46767
4.70691
1.27994
3.48437
4.56472
4.56472
0.832664
0.605653
3.68053
3.68053
2.65662
3.16573
2.78809
3.07742
2.58256
0.588149
0.669969
1.61465
1.32282
0.589989
0.589989
1.91253
1.32282
0.675457
2.73754
0.848058
2.73754
3.7597
3.34033
1.11668
1.31418
1.29901
1.22773
4.70691
2.58256
5.21825
3.28335
3.16733
3.16733
1.33309
)
;
    }
    procBoundary2to1
    {
        type            processor;
        value           uniform 2.14035;
    }
    procBoundary2to3
    {
        type            processor;
        value           nonuniform List<scalar> 
29
(
1.83177
1.8123
3.06518
3.49217
1.9566
2.52584
1.91283
1.84784
2.39639
2.39281
2.53531
2.47153
2.23869
2.27772
1.1994
3.69686
3.22661
3.22661
1.8123
2.27772
1.57852
3.79213
2.71026
2.37337
1.31375
4.71097
2.39639
2.04432
2.47153
)
;
    }
}


// ************************************************************************* //
