/*--------------------------------*- C++ -*----------------------------------*\
| =========                 |                                                 |
| \\      /  F ield         | OpenFOAM: The Open Source CFD Toolbox           |
|  \\    /   O peration     | Version:  v1912                                 |
|   \\  /    A nd           | Website:  www.openfoam.com                      |
|    \\/     M anipulation  |                                                 |
\*---------------------------------------------------------------------------*/
FoamFile
{
    version     2.0;
    format      ascii;
    class       volScalarField;
    location    "0.55";
    object      k;
}
// * * * * * * * * * * * * * * * * * * * * * * * * * * * * * * * * * * * * * //

dimensions      [0 2 -2 0 0 0 0];


internalField   nonuniform List<scalar> 
5794
(
0.0722648
0.0598669
0.273446
2.39985
2.29907
0.107705
0.40049
0.264237
1.48779
0.310275
0.896831
0.369345
0.470655
1.82558
0.0762647
0.0434736
6.21439
2.06648
0.0657485
0.0601577
1.01171
0.0821582
0.524127
0.0879559
0.825163
2.38159
6.83065
1.54945
1.93153
0.161687
0.352297
0.286798
0.712491
0.117633
0.807438
0.753121
0.196855
0.937215
0.846638
1.81259
1.3463
0.231687
0.279664
0.246456
0.0732614
1.03003
0.792527
0.320318
0.281439
0.227794
0.027565
1.36184
0.15215
0.230005
0.0183974
0.966906
0.686571
0.413555
0.225101
3.85835
0.96296
0.0591138
0.447327
0.510093
1.20009
0.0715653
1.32496
0.431198
1.93116
0.0694957
2.28101
1.5066
8.70819
0.154278
1.97713
0.54841
0.203293
1.87605
0.213157
0.0386267
0.0981647
0.0806851
1.50867
0.668314
0.710727
0.740136
0.607811
1.02927
0.108583
0.651451
2.39749
0.773156
1.40562
2.3866
0.92488
2.35199
1.83893
1.22871
0.716124
1.05841
0.913736
0.173699
0.254604
1.9587
0.161426
3.87545
0.0543838
0.646383
1.53917
0.172889
0.122977
0.1075
0.92989
0.109909
0.800149
1.79342
0.112514
2.42537
0.877915
0.498068
2.96341
0.059963
0.310991
1.21151
0.0864151
1.46103
1.56663
0.0965219
1.55484
0.670948
0.468046
0.552904
0.946828
1.69373
3.60735
0.0796799
2.06928
0.0586028
0.0649638
0.120919
0.201287
1.11698
0.0986636
1.28144
0.0874739
7.35102
1.12483
1.00345
2.33069
0.596601
0.31307
0.17745
3.84107
0.299018
7.7564
0.998063
0.697953
0.718879
1.34182
0.783146
0.0507135
0.377365
0.0954766
0.508719
1.10692
1.18551
0.517058
0.238662
0.109754
0.0701774
0.066783
0.798687
0.415728
0.436248
0.10554
0.451435
0.0541685
0.604117
0.0718694
1.26069
0.18583
0.361741
0.174664
0.835773
0.25497
4.20868
0.191657
0.426899
0.220773
0.140229
0.915826
0.271521
0.679694
0.2868
0.484775
0.392806
0.355556
0.0821073
0.0659649
0.278359
0.406847
1.19129
0.394813
0.20109
0.833144
1.05365
0.246328
1.09935
5.10004
0.954612
0.0766324
0.312677
0.842324
0.740059
0.112539
0.731911
0.743351
1.23074
1.0499
2.10385
0.306014
0.805375
3.60837
1.3779
2.08246
3.55402
0.116778
0.502823
0.967855
0.094808
0.395008
0.44337
0.169778
1.12518
1.17861
4.84067
5.92015
0.957093
0.424802
0.123359
0.0920277
2.139
0.946472
1.04535
0.434319
0.142187
0.075557
2.49444
1.32034
0.823181
0.601046
0.0800181
7.135
0.0582535
0.212803
5.06735
0.271059
0.463067
0.793205
0.0824351
1.62646
0.786948
0.630018
0.0633664
0.597324
0.315342
0.903696
1.71654
0.0723479
1.29428
1.0022
0.592615
1.28843
1.96659
0.398638
0.0777896
0.232145
0.176429
0.246386
0.470902
0.0978938
1.65776
1.06985
0.222515
1.3406
2.17774
1.14284
1.22375
2.7413
2.9069
0.57822
0.607129
0.136155
0.257759
0.203564
2.21175
0.74171
0.28559
1.18602
0.063829
0.069522
0.782997
0.0858426
1.22237
0.161586
1.60885
0.269161
1.6775
1.28988
0.997493
0.656406
1.12004
1.04224
0.097471
0.292449
0.597781
0.827146
1.87281
1.49598
2.22398
0.227643
0.38592
2.16323
2.65629
0.0408406
0.609862
0.158196
0.380007
0.481019
0.82679
1.16842
0.28215
0.319771
0.575719
0.238377
0.240723
0.229169
0.0953877
0.186286
0.319444
0.0733149
0.703459
1.37488
0.461222
0.0614485
0.144195
1.09785
0.496548
1.35588
1.13362
1.00708
2.74392
0.715383
0.295209
0.241735
3.07371
0.072176
1.23877
0.386664
0.28352
0.976061
0.869865
1.86903
0.666266
0.376885
1.57938
1.08177
0.914969
0.703923
0.209373
0.305482
0.0550146
1.44952
0.110533
1.2248
1.2568
0.806021
0.594689
0.605361
0.121693
0.517434
0.352448
0.323141
0.684227
0.715528
0.112053
2.37509
0.707785
0.49679
0.561269
0.199489
1.01689
0.0642925
0.136529
0.315266
0.348358
0.128143
0.285302
0.0618595
0.593765
0.0965864
0.724054
5.25731
0.124827
0.0976843
1.20165
0.21887
0.115795
0.072964
1.83861
1.22374
0.738226
1.21774
0.595136
1.14626
0.903783
0.532473
2.16052
1.05645
1.71442
0.698245
1.16306
0.907341
0.27115
0.514997
0.481842
0.106054
0.120098
0.0539144
0.104626
1.37381
0.224228
1.06437
1.40153
0.0734506
0.108756
0.541348
0.460114
0.561343
0.511795
0.102538
0.269593
0.324564
0.237708
0.206311
2.01347
0.854324
0.0402798
0.304139
1.35226
0.21062
0.0565793
1.43333
0.0911931
1.73859
0.0625106
1.8817
2.35351
1.20066
3.36987
0.0879329
0.0587233
0.276048
0.150414
1.16794
0.671786
4.34851
2.62759
0.978669
0.184729
0.0206575
5.75221
1.53632
0.951814
0.407437
1.76276
5.79702
1.87717
0.117529
0.0591549
0.406481
0.0911422
0.543538
0.975989
0.915473
1.09977
0.311252
0.201332
3.14647
0.0988109
0.0720287
2.14033
2.00421
2.85004
0.204458
0.121122
0.0976201
0.273883
0.0385967
1.0916
4.09954
6.26943
0.267552
0.491957
1.18546
0.0586554
0.0928992
0.683304
1.41144
0.0793446
2.32372
0.284363
0.638526
0.0569812
0.0736785
0.767566
1.59172
0.0390246
0.222636
5.48757
0.162033
0.0669232
2.63848
2.35669
0.731131
0.102256
0.104429
1.02545
0.0643008
0.0728945
0.405417
0.0757125
4.14398
0.247601
1.32719
0.224331
0.2403
2.41406
0.647793
1.35925
0.0953704
1.6338
0.052354
1.66035
0.149744
0.0423158
0.21436
1.28787
0.111605
0.120779
1.87023
0.125025
0.057653
0.158176
0.120302
0.120178
0.361268
0.0677244
0.0710294
0.929135
12.3459
0.112725
1.52119
0.214442
1.65495
0.160029
0.045763
0.531536
0.0579871
0.0684066
1.29733
0.887658
1.37118
1.06952
1.56758
0.290815
3.09248
1.29022
0.288093
0.928024
1.86078
0.944811
2.9225
3.96919
1.62527
1.00093
0.121415
1.53658
0.884292
2.12959
0.0775853
0.0990964
0.0546018
2.09809
0.974324
1.16929
0.109793
0.293632
0.0634296
0.314487
0.0887985
1.45516
0.957649
2.29297
0.0693601
0.487203
2.65265
0.256168
0.0214924
0.988611
2.92942
4.60633
1.71612
0.176797
0.169081
0.234309
1.00306
0.573129
0.273741
1.31938
0.043184
1.28865
1.67842
0.892996
0.052314
0.109731
0.11923
1.42581
2.1909
0.114681
0.10843
0.0784553
0.0340117
0.1899
0.0665631
0.667434
2.13171
0.487491
1.1661
1.44684
0.126115
0.30439
1.08374
0.932437
2.06101
2.51493
1.07957
0.743296
0.40727
0.0544843
0.0518277
0.117155
0.34807
0.17675
0.146263
1.62935
6.42569
1.14653
2.10115
0.123869
0.284437
0.457567
0.0938238
0.616975
0.0624499
1.20067
2.81023
2.26852
1.14629
1.17882
0.979431
0.25911
5.43542
0.85985
0.494281
1.01106
2.50666
0.195176
1.74243
0.121759
0.0594768
1.16796
0.247347
0.0460336
0.858496
2.13398
1.93413
0.22727
0.229742
0.0384895
1.18294
3.67392
2.00394
1.14191
0.315911
0.934943
1.10024
0.0603613
0.0482365
0.290048
0.200408
0.36131
0.0752763
0.487569
0.982442
2.3817
1.47303
0.838312
0.416504
2.85967
0.564353
3.72301
1.26825
1.30285
1.37547
0.373885
0.267947
8.0731
1.31765
1.40629
1.86801
2.42957
2.43758
0.204722
4.62039
0.224088
0.394701
0.507266
2.81272
0.645456
1.0393
1.39555
2.8086
0.878836
0.288328
0.485755
5.04865
0.721846
0.7566
1.3487
2.14849
0.0587001
0.0616804
0.26586
0.128422
1.94121
1.21068
2.47472
0.155349
0.283248
0.0617028
0.127912
0.204938
0.0636058
0.903245
2.10664
0.206585
2.55149
0.96465
0.273146
0.169391
6.52549
1.84501
1.17329
2.84815
2.32909
1.18043
1.40355
0.210601
1.41311
0.843434
2.02149
1.10897
0.450162
1.12211
0.0706733
0.0955351
0.0995546
1.46783
0.130151
1.25453
7.12988
0.215885
0.0837766
0.0648082
1.91569
1.05539
1.25233
1.99993
0.982822
0.0560605
2.21124
1.94541
1.13343
0.179586
1.13136
0.0601322
2.09596
0.0962622
2.08144
0.302873
0.90019
0.320654
0.156025
0.0627785
0.202494
1.22338
1.60015
1.71251
3.96951
1.20978
0.181674
0.121035
0.684037
3.63851
0.136776
0.672977
0.661554
2.47611
0.0777256
0.0783198
0.315569
0.953676
4.78526
0.114083
0.386309
0.230095
0.916259
0.451597
0.912905
1.6589
2.02779
0.282922
0.202464
2.78663
0.882318
0.130734
9.28028
0.0900953
0.0483068
0.135998
0.0650222
0.986429
0.0924792
0.500213
0.0924413
0.22961
0.22484
0.316555
5.88044
0.997641
2.43486
0.720276
1.14337
1.68328
1.17568
5.21487
1.0578
0.0677931
0.0595155
0.205851
0.883045
0.177821
1.21107
3.83287
1.38907
2.48738
0.82171
0.212581
2.31602
0.0784349
0.348596
1.41363
0.150283
3.60672
0.256749
0.346201
1.65013
0.418987
0.230056
0.237336
1.86918
0.659068
0.270651
0.0622897
0.285777
0.781866
1.74519
0.131613
0.299378
1.05869
0.505801
1.11633
2.7325
1.74435
2.2654
2.03691
0.102255
0.0738816
0.924661
0.0755355
0.356075
0.0663314
0.177222
0.804392
0.0518634
0.254343
0.0876452
2.09216
1.17842
1.20284
0.27437
0.495332
0.956768
5.39608
0.743003
1.47709
0.234448
0.0861518
5.12055
0.38522
1.57062
0.259609
1.18728
0.786074
0.926546
0.0469638
1.51993
1.07514
0.172138
0.183209
0.212712
0.101657
0.056171
0.737623
1.4263
3.55785
1.63206
0.696895
1.13313
0.775597
0.34604
0.0766382
0.107042
1.77165
0.0669746
5.67509
1.19773
2.13512
0.246484
2.80065
1.12743
0.0615667
0.0961086
5.50138
3.46342
0.305135
0.235409
0.47589
1.53162
0.359756
1.96565
0.0561128
0.185765
0.136717
0.051964
0.051495
0.144565
0.0629301
0.0736623
0.0655629
0.0732248
0.264409
2.45715
0.215982
0.327612
0.0831522
1.28836
0.299687
0.522639
0.247917
0.645823
0.0689044
0.624189
0.200059
0.394135
0.0779756
0.373799
1.47742
0.0697729
0.304325
0.182387
0.0620134
0.29184
1.26305
0.431202
4.27393
1.78996
0.0668395
0.318553
0.534019
0.946106
0.589531
1.12123
0.997751
2.28445
0.1157
0.149252
0.0885571
0.0370661
0.431726
0.418079
1.89734
1.61231
1.22309
0.0201839
0.499908
1.34324
0.852991
0.793714
1.05882
0.0557654
0.0874836
0.0549356
0.566475
0.302783
1.24771
0.200901
0.0825145
0.196881
0.20499
0.288136
0.114888
0.0833789
0.0905911
1.7659
0.798732
0.723415
0.0638778
0.274546
1.63173
0.0689857
0.839942
0.181116
0.502794
0.86306
0.071938
1.39272
0.0501439
0.311467
1.07553
0.0847016
2.2406
0.305457
0.0797246
0.153943
1.97335
0.051871
1.49585
0.147152
0.147841
0.0625547
0.155227
0.156442
0.0776457
0.309298
0.0703719
0.175074
0.122018
0.537473
0.513681
1.59582
0.580929
0.277337
2.22212
0.98301
0.220971
0.0620025
1.90812
0.18605
1.47473
3.2559
0.274432
0.466499
0.0744173
3.53481
0.217188
1.60274
0.281754
3.10001
1.07082
0.0566851
0.666356
0.118781
0.0201496
0.523359
0.0874986
0.622483
0.646903
0.072956
0.680234
0.0302717
0.0640397
0.172563
0.0612489
0.101193
1.21715
0.255012
1.10368
0.0494762
1.35558
0.339539
0.173863
0.0661015
0.19883
2.15541
0.415423
0.263032
0.573825
0.247272
0.394239
4.08486
1.73291
0.0532941
0.136336
1.64433
1.36426
2.02688
0.236861
1.63559
1.99111
1.54675
0.538197
2.21051
0.272332
0.26913
0.369289
0.160976
0.245945
0.0671966
12.345
0.697147
0.074911
0.303474
1.6741
1.62939
0.270004
0.0615126
0.109521
0.95404
0.299023
0.0727457
1.91892
0.216324
1.19499
0.310393
1.70438
0.112879
0.0650548
0.453798
0.154064
0.108468
0.602397
0.0548957
0.777548
0.0896256
3.52785
0.280852
0.212942
0.191886
0.510073
0.292558
0.39182
0.333677
0.195466
0.226545
0.333381
0.658462
0.305019
0.212885
0.0754733
0.109872
0.652012
1.81544
0.720743
0.209858
0.344609
0.248125
0.526685
0.268395
0.248673
0.227605
0.366505
0.322873
0.613005
0.053597
2.41994
0.0547456
8.34185
0.0727809
0.15471
0.218967
0.143059
0.0756191
1.26196
0.520239
0.24002
0.0580376
0.130131
0.642299
1.83906
1.06443
0.30592
0.0616876
0.281166
0.353105
1.65723
1.10458
0.421923
0.281682
0.0457055
2.34816
0.397969
0.708447
1.46695
0.185094
0.296078
0.655308
1.05551
0.0690179
0.865231
2.4476
0.63326
0.566366
0.970421
0.427144
0.050093
2.54568
6.38527
1.81141
1.26392
0.113553
0.0771982
1.11417
0.304628
0.101114
0.054851
0.337564
1.1376
0.116017
0.071258
0.137864
0.0656186
0.060462
0.180768
0.362534
0.946863
0.0704367
0.395603
1.10714
3.21153
2.54811
0.315394
0.939194
0.197863
2.26944
0.130777
2.02224
2.51049
1.0927
1.44073
0.340111
1.78968
1.30733
5.13706
0.435126
0.34529
0.404444
2.59988
0.0655532
0.231336
1.09305
1.13209
0.402183
1.83086
1.1203
0.423513
0.903876
0.0750766
0.0391129
0.257489
0.531831
0.100768
0.25264
1.37273
0.293964
1.54719
1.33696
1.54242
0.0494016
3.11911
0.151525
1.0458
0.39974
0.286562
0.389863
0.0666423
0.776421
0.0589985
0.159998
0.0535952
1.96168
0.23169
0.587583
0.608869
3.43331
0.438138
1.73168
4.46384
0.459196
0.278021
0.0339743
1.51483
0.164836
2.10196
2.63822
0.16404
0.0454343
0.641445
1.27686
0.602448
1.54302
0.966728
1.31459
0.945991
1.50495
0.0657175
0.163926
1.01386
0.200458
2.32406
0.32816
0.0611689
0.0974186
0.557165
0.0583879
0.154587
0.154103
0.20854
0.291488
0.197181
0.380913
0.0654667
0.263661
0.544767
1.05847
0.896496
0.0664993
2.08688
1.32125
2.13334
0.43724
0.211452
0.890985
0.413328
0.0473631
0.0439438
0.181819
13.3591
0.32329
1.03012
0.78342
1.73184
2.27882
0.598509
0.151212
0.0303357
0.0367566
0.0887654
0.0280379
0.158329
0.137653
0.04666
0.171149
0.0151319
0.0358998
0.148452
0.0604423
0.0549292
0.049959
0.0211374
0.147907
0.148608
0.0386458
0.129497
0.143228
0.0466846
0.0474038
0.0318619
0.0336516
0.151206
0.101932
0.0561343
0.0294324
0.0642013
0.0979502
0.145173
0.0532078
0.0207071
0.021533
0.0564995
0.0343889
0.144485
0.0423337
0.0142006
0.0666988
0.0482973
0.130467
0.153379
0.516774
0.552385
5.37926
0.105771
0.139312
1.06454
2.26057
1.31234
0.397828
0.0656244
0.38895
0.373024
0.528557
2.29011
10.6107
2.20721
2.41285
0.827307
0.177541
0.194558
0.0605891
0.118865
0.0745724
1.41363
0.0744172
0.329977
0.482003
0.127482
0.970687
0.617671
0.314061
0.511736
1.11589
11.9273
0.232584
0.621116
0.323065
0.355914
2.19026
0.301715
1.00114
1.77476
0.951696
0.502545
0.290836
0.624146
0.65278
0.327956
0.36215
14.4901
0.196574
0.14196
0.0396499
1.97672
1.56635
0.0811504
1.71202
1.98481
0.0457733
0.0327198
0.134734
0.148045
0.074722
0.160743
0.0156114
0.0515903
0.0700635
0.0179592
0.127857
0.138669
0.0431089
0.186033
0.0650892
0.0646742
0.147861
0.0484544
0.0364062
0.0502418
0.0187017
0.159184
0.0298278
1.23129
1.37302
0.188979
0.500805
0.55398
0.362255
1.6707
0.0543718
1.49061
1.32119
1.20455
1.18696
1.61196
0.40206
0.0515536
1.59527
1.04789
0.784101
6.12254
2.1694
0.957441
0.0405418
2.2603
0.762226
0.188609
2.39299
0.366814
1.46019
0.2076
0.134519
0.0488818
2.17546
0.151216
1.96887
2.14155
0.0993581
2.92471
0.0805213
2.75012
0.13252
0.0704936
0.163188
2.2758
0.180361
0.261353
0.182194
0.150315
2.81954
0.315592
1.69038
0.368304
0.405934
1.42385
4.97159
0.0417556
0.279832
0.316553
2.75327
1.1692
0.14059
0.0564454
0.329643
0.237783
2.09164
0.307998
0.161205
0.0377215
0.161003
0.277262
0.0639804
1.80384
0.24634
0.0212882
0.0488451
2.82427
2.51479
0.322099
1.58681
1.89746
0.0265072
2.0172
2.4502
1.82868
1.95517
1.04198
0.159031
2.07997
0.0679022
0.286233
0.30946
1.92466
0.254757
0.236169
0.316786
1.71905
0.256198
0.110407
0.0856845
0.239563
0.512321
1.91659
1.89841
4.16323
1.37566
0.618487
1.5193
0.23649
0.851583
0.82463
0.861473
0.818887
1.81261
1.16976
1.84895
1.05841
2.9794
1.32895
0.228256
1.19423
0.973197
0.521471
0.545198
0.621151
4.11474
0.672406
0.349335
1.3664
0.903444
1.34384
0.314312
0.432178
7.29395
0.208257
1.52645
1.42532
0.0836085
0.0882524
0.198379
1.46453
0.119522
0.0728518
0.357826
3.15291
3.55405
2.92232
2.84688
3.6286
3.18098
3.8776
0.157609
3.60058
3.24583
3.40597
3.23058
3.15363
3.06128
3.14116
2.8676
2.98354
0.590106
0.569127
0.618926
4.87397
0.428078
0.51093
0.305155
0.275279
0.061501
0.10389
1.0098
2.37398
0.15489
0.345692
0.247495
2.09859
2.43117
1.70004
0.984161
0.187792
0.254767
0.154765
0.471431
1.26714
0.438797
1.34805
0.358536
0.242975
0.138855
0.447303
0.234543
1.43932
0.285943
0.672694
0.143253
0.0570477
0.843982
0.256669
0.127632
0.230251
0.142066
0.142555
1.45557
0.153604
1.18888
0.691592
0.382392
1.22259
3.44903
0.167286
1.59137
0.963618
0.691125
3.42748
0.111916
0.076229
3.34784
1.10707
1.80835
0.196129
0.4421
2.04904
3.49633
1.61779
0.0833598
0.107979
0.0743707
0.856197
0.452425
8.138
0.13034
0.454514
0.654329
0.178797
0.73921
0.115076
0.384085
1.2715
1.35696
1.05411
7.69278
2.86898
0.0684643
3.01324
0.203883
0.734273
1.09772
0.112789
2.02368
0.513628
7.38237
1.12189
0.821677
0.112504
2.16759
7.02837
0.0761263
1.30916
1.66393
0.334522
0.988946
0.854747
0.0839495
0.488696
1.85415
1.19485
1.74339
5.21198
4.7289
0.347018
1.14816
0.0999567
1.17939
0.796167
0.117972
0.143387
2.03856
0.105537
0.396728
0.0673234
1.28389
0.506615
0.273891
0.644392
0.344013
0.714781
0.275441
0.298139
0.992304
0.451863
0.137433
0.335811
0.126886
0.123657
0.757909
0.701643
0.084079
0.965033
0.684822
0.620437
0.123145
0.121184
0.210039
0.394303
0.117757
1.09037
0.186675
0.391088
1.04832
1.7907
0.25878
0.424356
0.124562
1.382
0.130377
0.13073
0.330261
0.128473
0.12664
0.132364
0.284499
0.970313
0.73222
5.21815
0.117724
0.985772
0.158889
0.113773
0.912563
1.04333
0.321181
0.188727
0.108831
0.0830046
0.151575
0.173583
1.21939
1.22604
0.0457484
0.513054
0.114865
0.104523
0.250989
0.20591
1.12349
0.901017
0.865352
0.133552
0.123472
0.212875
0.0590013
1.0467
0.147936
0.262885
0.0723619
0.342658
0.103821
0.0533397
1.12217
0.367851
1.81658
0.49131
0.137126
0.239719
0.149991
0.116743
1.28153
1.24823
0.866478
0.480749
0.116433
0.294215
0.69654
0.118235
0.73621
0.0433877
0.153654
0.043835
5.36756
0.677429
0.115616
0.85425
0.505602
0.105548
0.293832
0.103052
0.0812111
1.36276
0.659343
0.40874
0.666777
0.168515
0.241717
0.102292
0.087807
1.7309
1.10628
0.284913
1.40325
1.59019
0.492614
0.335311
0.449796
5.2288
0.353066
0.122227
0.505276
1.73895
0.412208
0.140441
1.13759
0.247054
0.488971
0.677781
0.21811
0.236308
0.0948586
0.0859469
0.684833
0.440672
0.101204
1.36133
1.49803
0.0402713
4.8987
4.70422
0.189441
0.233643
0.479589
0.482738
1.09222
0.54904
0.194683
0.200207
0.67641
0.502007
0.175914
1.04862
0.976502
1.59531
0.211277
0.714915
0.497139
0.35566
0.131032
0.466036
0.430469
2.76496
1.0957
1.06816
2.61
0.13489
0.427868
1.07182
0.223852
0.623753
0.186008
0.206652
0.0898063
0.0933971
1.14819
1.75601
0.190603
1.39467
1.31303
1.21179
1.72756
0.516204
0.341054
0.215626
0.375957
0.0416451
4.72679
0.216139
0.738326
2.11608
0.206947
0.335071
3.48181
0.140781
0.124985
0.565086
0.676782
0.466806
1.33927
1.50317
1.6603
0.30239
1.27956
1.10758
0.710982
0.101674
0.699363
0.248038
0.221862
0.257029
0.0751685
0.0937424
0.251458
0.188219
0.0689348
0.0794126
1.93248
2.16551
0.777422
0.104877
3.29533
2.56502
0.748145
0.1367
1.38926
0.480508
0.305464
0.23328
0.0442912
4.37841
0.230886
0.178517
0.408375
3.2942
2.03062
1.11317
0.514575
2.82226
1.72471
0.787196
0.639322
0.594455
0.250691
0.325239
0.124392
0.125731
0.135382
0.11774
2.89157
1.24876
0.502896
0.150748
0.548386
3.11119
1.68023
4.03495
3.35924
0.803823
0.115607
1.35712
0.118025
0.097404
1.40044
2.55014
3.59965
3.78309
0.967094
0.540866
0.757871
0.365368
0.389387
0.328352
0.11863
0.184364
0.0692261
0.0794747
0.150988
0.130865
0.161311
1.97613
2.45777
0.436084
2.82091
0.203819
1.30799
0.126548
0.404488
0.837995
0.717897
0.739382
0.48678
0.320221
0.225543
2.70761
0.446147
0.315725
0.181141
1.60339
0.163516
0.0973844
0.4108
1.51066
1.5076
0.447598
0.296576
0.567508
1.2644
0.393433
0.247255
0.057204
0.0448468
0.346858
0.42476
3.67596
0.414578
0.113157
0.0823081
1.26115
0.225988
0.680627
2.31691
0.172995
1.75239
0.115489
0.114641
0.14338
1.69799
1.74939
0.257703
0.115947
0.102534
4.04252
2.33297
0.233689
0.533407
0.418708
0.176861
1.68601
0.591856
0.0836357
0.336916
0.246833
0.12377
0.480577
0.134486
0.414192
0.330916
0.146338
0.880258
0.142902
0.529341
0.591591
0.786787
0.136299
0.736438
0.787334
0.56515
1.01348
1.90371
0.118773
3.75017
0.296904
1.21151
0.981678
0.417082
3.70795
0.870277
1.41587
0.0910529
2.28773
0.196505
0.650264
0.114256
0.0340432
2.15101
0.339169
1.55745
0.666274
2.11429
1.50527
0.217447
1.71032
0.540095
1.67487
0.626183
0.169015
1.08468
0.196148
0.053362
0.0770742
1.12262
1.54629
2.24722
0.491359
0.0663457
3.16092
0.435358
1.93736
3.217
2.08964
3.18947
1.56214
0.0555531
0.615773
0.693787
0.185674
3.07638
3.57436
0.316397
1.60441
0.952796
0.151193
1.75315
0.381096
1.74582
2.25221
1.84069
0.228099
0.104658
0.909837
2.05582
0.296576
0.698037
1.82838
2.66867
0.562878
0.185695
0.169567
1.77298
2.35267
0.790348
0.918779
2.42792
0.611931
0.193554
0.695819
0.339942
3.22063
0.99116
0.465811
0.0955982
0.0622255
1.49498
1.62054
1.42373
2.46782
1.5998
4.98298
0.239406
0.628739
0.324808
3.47625
0.12262
1.83773
1.01341
0.159477
0.0797233
0.834967
0.243587
0.229555
3.78259
3.28467
3.68615
2.37225
4.08752
1.08159
0.415313
0.557235
3.11434
3.72588
0.571166
7.84736
0.204529
0.361536
0.40085
3.11069
0.64236
1.21292
1.16919
0.435722
0.412994
1.13764
0.908957
0.148055
0.685751
0.0652116
1.64808
0.0774443
2.73346
0.113948
1.16457
0.502862
1.59956
0.486077
1.75325
2.99864
1.31135
0.0628858
3.71098
0.114457
0.119508
0.235993
0.0415292
0.105791
1.82295
1.61
3.97307
0.633828
2.40176
3.72279
0.262852
1.11442
0.135049
0.443919
0.148621
0.0430852
2.45688
1.55201
0.114071
0.12738
2.60949
0.349713
0.417766
0.239277
0.222193
0.69251
0.223448
2.54506
0.196455
1.66527
0.403993
0.698089
0.368366
4.08209
0.305104
3.64358
1.65625
0.186739
0.533602
1.38662
0.164489
0.0756778
3.94073
0.23666
0.170754
1.88232
0.309268
4.00276
0.18849
2.21814
2.41993
0.0613346
1.20653
0.407624
3.42725
2.79317
0.203226
0.687977
1.12701
1.65452
0.35964
0.289164
0.269729
0.496708
0.0487735
0.0635322
1.96383
1.23626
0.641011
0.160606
2.41738
0.335637
3.13673
2.03541
0.53674
0.207441
1.67478
2.87622
0.241652
0.0441342
0.0538638
1.81263
0.791276
1.93933
0.186171
0.148091
2.10918
3.93299
0.337887
1.10046
2.89799
1.82532
0.974289
1.8729
0.0419584
0.718543
0.27683
0.184673
0.049925
0.0720271
1.00186
0.213336
0.614661
1.34306
0.485774
1.35893
0.672355
0.277431
1.37104
2.19495
0.226051
0.810403
0.16949
1.07542
1.90727
1.13795
0.770381
0.184618
0.0464566
0.0743198
1.31674
0.467889
1.75371
1.30233
0.450479
0.928489
4.34873
1.3055
2.42608
0.037234
2.36083
0.0491073
0.258931
0.918607
1.31537
1.15578
0.234661
0.206499
0.819792
1.48489
0.0761675
0.151714
1.61694
3.58898
0.161807
0.980399
0.855562
3.76034
5.89405
1.58993
0.388848
0.765417
1.12316
2.0423
0.481159
2.02288
0.207342
0.637098
0.705324
1.27135
0.501587
0.955928
0.133192
1.35231
0.0422572
0.903948
1.10354
0.177069
0.952695
0.0432044
0.247267
2.01328
1.01628
0.0673082
0.266749
1.88557
1.67059
1.54106
0.853382
0.100602
0.138262
0.0538684
0.0612288
0.142691
0.413374
1.50935
0.0707873
0.771365
2.23818
0.101143
0.462447
0.366102
0.305601
2.46371
0.160901
0.0455741
0.0602147
0.144246
0.894577
0.258772
0.290768
0.137176
0.746768
0.0743946
0.0847022
0.307235
0.890938
0.229994
1.21464
0.56761
0.278742
0.423137
0.610665
1.80797
0.148523
0.04279
0.0379997
0.0920428
0.213908
1.56167
0.439284
2.04221
1.94608
0.989579
2.47417
0.195435
0.23847
0.452643
3.51094
0.885092
0.197361
0.180558
0.0439032
0.0686522
0.201405
0.0955089
3.84518
1.92464
0.997481
0.0878575
0.0566029
0.103417
0.0290663
0.512549
0.252529
2.33409
0.610723
1.84725
2.67798
0.0373083
0.148
0.556424
4.11048
0.154225
2.01323
0.529583
1.51054
0.100172
0.247232
0.0791281
0.533411
1.25887
0.732089
0.797585
0.369261
0.476958
0.151764
0.121846
0.281459
0.664658
3.05231
1.66217
0.21075
1.77677
0.482524
0.56508
0.491826
1.4103
0.182364
1.28781
0.188316
1.54675
2.65748
4.01898
0.431095
0.0979817
0.155474
0.0405613
0.0725438
0.239607
0.545586
0.331179
0.229247
2.34059
0.227411
0.128356
2.18134
0.256433
0.599736
0.821684
0.851669
1.43839
0.145521
0.237473
0.884602
0.256841
0.332173
0.204407
0.581466
1.01545
0.163211
0.342294
1.1571
0.482822
0.368724
0.0918987
0.0788578
0.0758513
0.0859155
0.058183
0.0362481
0.113319
0.111655
0.282764
0.216363
0.0422953
0.0494415
2.38618
1.5812
0.35909
1.51625
0.154234
1.11802
0.251532
2.12393
1.57846
1.82421
6.20895
1.32477
1.95609
1.90947
3.36695
0.943019
0.054055
0.0616452
0.241004
0.0638171
0.0633723
0.26435
1.26454
1.73437
0.0178531
0.0380905
0.124182
0.51843
0.343395
2.18028
0.213401
0.0348008
1.36383
0.337453
0.578225
0.537823
0.193874
0.133532
1.30401
0.461964
3.70655
0.0717888
0.464339
4.37255
0.882136
1.11396
1.98321
0.0267309
0.0505662
0.195838
0.0923163
0.0690727
0.215993
0.0844549
0.344974
0.439959
0.395881
0.0929358
0.201799
0.314782
1.96216
2.27784
0.061731
0.343194
0.0888957
0.551451
0.535199
0.180821
0.526654
1.72775
0.453402
1.30047
0.460274
1.72397
3.35634
3.58578
1.36418
0.87132
0.380222
0.49498
1.75855
0.637385
0.115533
0.038544
3.9473
0.429912
3.38229
0.0910208
0.392412
0.373959
1.67995
1.97907
0.0861076
0.0839383
1.22425
0.389823
0.456477
0.30152
0.413847
0.867341
3.54296
0.117342
1.6882
0.156557
0.047532
0.0667982
0.0270649
0.156068
0.0207184
1.98228
0.304789
1.63461
3.62768
0.760874
0.343158
5.76942
0.272576
0.207817
1.60266
0.582445
0.911917
6.1693
0.255155
3.74117
0.16084
0.0462107
0.0686319
2.53329
0.1894
0.142101
0.0936964
0.0701528
0.386705
0.90325
1.86377
0.632173
0.533178
0.484224
2.9568
1.10186
0.562263
1.5392
0.738138
0.362763
1.65944
0.911077
2.24231
0.536964
0.0751497
0.0946052
0.195755
1.36782
0.215653
1.43192
1.06767
0.592173
0.25165
0.47602
1.16919
0.222915
0.0710178
0.17583
0.0739837
0.325908
1.49288
0.193951
1.00719
0.439505
0.428216
1.78968
3.25711
0.421405
2.3693
0.941236
0.0693645
0.205469
0.0660372
2.80524
0.0981276
0.630757
0.192353
0.217454
0.157476
2.16863
1.6354
0.215857
0.246663
0.839156
1.7115
0.106956
0.0906602
0.306902
0.413622
2.42976
0.473671
0.798525
1.53691
1.56195
1.26334
0.299508
0.218123
1.53126
1.56051
0.576942
0.154322
0.416014
0.0496481
1.65952
0.0411121
0.427531
2.38729
1.54974
0.193006
1.70459
0.0992889
0.500691
0.647467
0.0560859
0.482317
0.0838893
0.0333392
0.041488
0.626922
1.88108
1.36818
0.898542
0.307325
0.0388042
0.108851
0.0613466
0.020782
0.0252945
0.047797
0.468776
1.87653
0.469528
0.586998
0.5972
1.38476
1.53219
0.578601
0.0751096
0.0483102
0.191044
3.68658
2.6148
1.07975
0.0992505
0.0408207
2.19705
0.319061
0.34667
1.44247
1.24452
0.0524266
3.04687
0.998146
0.444926
0.195278
3.59356
2.49895
0.280813
1.0873
0.0376016
0.104544
1.59986
0.894529
0.0560307
0.0495644
0.505964
0.22818
0.12396
2.96954
0.465506
0.239809
1.9924
1.4585
0.139933
2.01935
1.74228
0.314677
3.44968
0.0411893
0.613933
0.0527247
0.543559
1.3192
0.0609155
0.374968
1.71968
0.189909
1.11635
0.0475825
0.118013
0.59139
1.80766
1.2397
2.31149
0.404722
2.55789
0.512078
0.46322
2.21617
0.209572
3.46809
0.462686
1.51758
0.418045
0.212018
2.24002
0.816317
1.33335
0.198949
0.0781658
0.0715862
1.27099
0.125348
0.191242
0.225227
0.479545
0.51025
0.0586587
0.0378478
0.111376
0.90617
3.37016
0.125037
0.0368924
0.350119
2.09201
0.523012
0.42252
0.204153
1.64822
1.20193
0.0643976
0.497232
2.81636
0.0159253
0.802177
1.19121
2.04055
0.76919
0.826734
0.819835
0.520365
0.21412
0.0669678
0.311778
0.0772546
0.194533
0.306339
3.09479
0.482563
1.01784
3.09465
1.35227
1.20111
0.206304
0.390068
0.817879
0.12265
1.09101
0.127972
1.48405
3.4251
2.20327
0.810279
1.78314
0.0964954
0.882772
0.614364
0.721972
0.0268818
0.0480136
2.04861
0.49375
0.318477
2.024
2.37254
0.515514
0.978858
0.942781
2.8925
4.68728
2.59227
0.272047
1.45478
0.0444202
0.189308
0.0538586
1.57408
1.34097
1.4527
0.105706
0.0518018
2.8724
0.0879995
0.0469849
0.176375
2.99466
0.569106
2.0025
3.74864
1.26128
0.0944725
0.0754763
1.11318
1.17006
1.73666
2.20762
2.97684
0.690291
0.134558
3.64525
1.8837
0.0605206
0.0633484
0.153183
0.0629821
0.122818
0.220884
4.71173
1.91267
0.0904251
1.78103
1.32734
0.203769
2.10614
1.7365
2.34482
0.406142
0.528542
0.130187
1.13888
1.33682
0.94105
3.1934
2.82291
1.07589
2.13727
2.77611
2.41768
0.191363
0.0742797
2.37255
2.47721
0.153256
0.790589
0.0304122
0.0499853
0.613026
1.08176
2.04389
1.07559
0.186802
2.29592
0.0640295
0.185959
0.060204
0.129617
0.0411599
1.67322
1.88569
2.49838
0.352099
3.05062
0.0393696
0.113975
3.96784
1.57531
1.67903
1.2424
0.572735
3.81911
1.85756
0.0670395
0.300989
0.783248
0.963569
0.192876
0.294192
0.895139
0.522661
0.579673
1.03391
2.18159
0.342518
1.38481
0.0213212
0.0718568
1.30939
0.13578
0.362675
10.0812
0.30966
1.87571
1.77628
0.0597385
0.0463381
0.0516247
0.181209
2.34708
1.57782
1.67337
0.290985
1.32477
0.229445
0.822015
0.642447
0.677999
0.227724
0.343868
0.199541
0.155383
0.0322523
0.0264152
0.109645
1.8869
1.82301
0.282146
0.269594
10.6514
2.6077
2.43428
1.22887
0.0786843
0.922469
0.380332
0.137777
1.25215
2.93604
0.0730546
0.0751541
0.0633918
2.06705
0.852489
1.94124
0.182704
0.151562
1.01414
0.487728
0.0553741
0.106699
0.030291
0.120096
0.280737
2.08689
0.838579
0.234275
2.0615
1.17778
1.65324
2.11526
0.549285
2.21032
0.147043
0.985393
1.16455
1.15957
1.47632
0.068482
0.0643148
1.48208
0.232124
0.806255
0.329906
1.27457
0.537716
0.527217
0.0503587
0.518108
0.0515117
0.528333
0.503214
0.508875
0.509296
0.492144
2.46295
0.81556
0.0818621
1.66748
0.54817
0.0682292
0.126588
0.0696171
0.134843
0.144253
0.385126
1.30485
0.1127
0.237455
1.57168
0.0411018
0.771465
0.0650022
0.339404
3.77166
3.99251
0.155925
0.0659251
0.0611926
0.183237
0.0193157
0.0680953
0.216724
0.0524619
0.0620303
0.177052
0.0619228
1.31662
0.372859
0.526387
0.573443
1.58629
0.605177
0.619356
0.1827
0.644865
1.3939
1.71729
0.794771
0.0477942
1.36846
2.21888
2.00292
1.59107
0.431494
0.0556405
0.0206166
0.0855479
1.08108
2.63191
1.23653
0.194744
0.836311
0.275577
0.295227
0.55297
0.8716
2.54037
0.128395
2.30365
0.0699042
0.264928
2.39443
1.0503
0.832882
0.505941
0.646967
1.51758
1.33986
1.23821
0.677917
0.249333
0.346698
0.310272
0.245724
0.313035
0.193347
1.33433
2.39624
1.80434
1.60318
1.32989
0.275213
0.124248
0.181528
1.90918
0.829127
0.680715
0.404647
3.02895
0.450172
0.947503
1.55722
0.430853
0.184638
0.524293
4.10432
2.95494
1.16071
2.93692
2.57858
2.39859
0.22225
0.161375
0.0264446
0.237269
0.161334
10.3488
2.97761
0.389935
2.28214
1.04071
0.520609
0.0431546
0.778435
0.174944
0.102138
0.0471095
1.9596
0.427412
0.855466
1.60937
1.22142
0.0373241
0.0973975
0.0626836
0.192113
0.971546
1.24291
12.2681
0.544271
0.320646
0.0580693
0.441148
2.92727
1.43261
0.510358
1.28367
0.138081
0.345121
0.22521
0.107962
1.20158
4.93749
0.0666747
0.172392
0.052863
0.518485