/*--------------------------------*- C++ -*----------------------------------*\
| =========                 |                                                 |
| \\      /  F ield         | OpenFOAM: The Open Source CFD Toolbox           |
|  \\    /   O peration     | Version:  v1912                                 |
|   \\  /    A nd           | Website:  www.openfoam.com                      |
|    \\/     M anipulation  |                                                 |
\*---------------------------------------------------------------------------*/
FoamFile
{
    version     2.0;
    format      ascii;
    class       volScalarField;
    location    "0.55";
    object      p;
}
// * * * * * * * * * * * * * * * * * * * * * * * * * * * * * * * * * * * * * //

dimensions      [0 2 -2 0 0 0 0];


internalField   nonuniform List<scalar> 
5794
(
98.8002
98.753
96.3798
103.357
96.7652
99.0922
95.2131
99.9332
95.1552
95.9505
130.119
93.2535
94.2021
93.9882
97.0271
98.6628
36.2217
98.854
96.9392
98.6067
97.3138
99.0817
93.8386
99.5348
96.9323
45.7435
41.8398
100.356
98.6829
96.8334
98.2603
87.0412
111.282
99.3945
95.0067
93.2204
103.375
94.3998
94.7305
96.4384
98.9452
100.449
121.951
98.4305
96.8571
112.578
88.6028
101.681
97.3836
97.7284
99.4707
90.2172
93.9695
97.5443
98.6079
114.598
91.0473
100.754
122.131
41.3491
109.506
98.4942
98.4006
86.6814
110.902
98.1909
96.3884
96.3848
100.119
98.6869
89.2517
96.6709
22.1625
98.3834
98.9297
100.509
100.116
51.4686
98.3828
98.7201
98.7841
98.504
99.5497
96.0566
95.5587
101.12
88.3861
116.077
99.5272
95.2076
119.381
90.6533
100.281
99.934
99.2072
88.9918
115.299
101.079
91.0555
110.433
85.8065
88.0079
122.083
95.6131
96.3035
100.758
98.6439
131.166
88.4783
98.3794
99.7603
96.8861
79.0208
97.682
98.152
98.9208
97.2346
100.442
108.621
96.9957
100.62
97.2987
98.6666
100.664
96.7663
128.375
90.7207
98.8057
92.1614
129.937
98.338
98.8687
88.6841
55.568
100.746
97.0593
121.935
98.5097
99.4588
99.5235
97.5625
95.5407
96.7808
96.2687
99.4692
50.7795
99.5878
119.846
97.3524
97.3589
126.684
97.5985
101.033
95.3835
45.6825
87.1262
97.0899
96.5147
112.082
96.5094
97.0511
97.9378
99.547
93.2116
88.4541
90.2073
94.6691
99.8559
99.6222
96.8796
97.1052
89.8012
94.4519
95.3353
99.4687
93.3962
97.1347
96.9052
99.4156
92.0261
98.9331
89.2473
101.116
113.098
98.4164
44.4005
87.6406
112.036
96.8618
88.1852
129.872
87.1607
111.335
100.144
99.2878
98.0917
98.921
99.321
96.9099
120.395
93.6308
89.3271
101.262
98.7805
87.9286
112.203
98.2131
131.405
93.5258
94.9113
98.5327
102.369
93.0293
98.211
99.4976
95.027
93.408
89.2101
130.464
103.681
102.501
92.9775
117.718
100.697
116.846
41.9895
95.6653
95.2593
95.4698
97.1733
95.0187
95.0961
99.3422
89.1623
94.6956
51.8304
74.8549
124.623
96.5018
98.8329
98.7373
131.537
97.9911
96.4483
95.122
99.8438
96.7393
97.9765
116.245
101.387
91.2256
98.1403
42.0761
98.2344
125.393
92.8399
121.099
120.819
131.464
96.8429
122.335
93.361
99.0535
98.1514
97.936
97.6095
97.2901
127.887
97.0047
111.66
87.0527
98.6589
99.9534
88.6449
103.935
97.1779
97.5356
97.0928
97.5517
94.7012
99.2831
111.005
98.7223
100.273
96.1918
101.023
89.4085
98.8798
96.2145
100.428
93.6821
93.8537
99.4482
97.5376
118.363
54.6909
97.023
99.9155
96.3904
98.0793
98.4295
85.8383
98.812
96.56
98.187
126.408
97.5896
97.3533
111.025
86.3341
97.9123
111.435
97.7241
97.8477
103.354
105.565
131.133
99.9192
88.3636
99.4659
100.527
96.9217
99.9379
97.5288
98.7047
91.5927
97.5138
95.0972
96.6011
130.344
90.1294
123.211
97.6274
111.632
87.293
96.3649
95.4617
99.5497
97.3914
112.266
99.5454
97.0397
93.9678
93.6318
97.24
100.779
115.006
91.4076
90.9994
94.508
94.1171
52.1049
111.812
87.7584
101.217
41.2136
96.7021
91.4008
94.3902
99.5257
131.316
92.14
123.004
93.9718
99.8157
96.4586
89.2817
113.292
89.5271
101.348
97.4772
98.0231
96.0854
98.7134
131.09
88.4167
114.821
90.9015
101.119
97.6654
98.6889
97.5906
103.775
93.185
96.0958
99.4677
98.6065
94.1329
100.011
95.9043
100.313
97.9111
98.7258
99.3063
95.0236
95.6441
99.2504
98.9365
97.08
93.7981
99.4617
96.1216
48.55
100.085
97.0387
125.887
95.6604
99.2822
98.7149
115.721
100.475
90.3923
129.402
89.9924
111.887
87.4005
100.087
103.742
88.6944
115.471
91.0838
101.088
130.786
97.411
93.5261
95.9509
99.4942
97.5825
98.5453
98.9143
89.6923
103.746
97.1341
80.2178
96.7852
97.2063
97.8196
98.4621
93.2331
96.8458
99.5221
103.376
99.3002
99.4997
96.4897
98.504
98.4168
99.3727
96.9498
96.5071
95.19
98.51
87.4062
99.0085
101.05
98.2185
113.902
92.5003
98.6634
100.332
99.1596
98.4615
94.9446
99.6067
111.374
129.812
49.4244
94.9377
129.655
98.3962
98.1868
85.5093
129.382
95.2568
97.0728
113.125
66.3984
100.394
98.7456
98.3889
95.7046
99.112
96.0939
95.3724
131.107
129.655
102.046
96.9567
53.0294
98.8488
98.4375
100.74
99.1359
98.2703
94.8937
99.5797
97.1071
97.4337
99.2184
125.313
96.2526
65.42
105.702
90.6867
97.1101
98.4932
99.2585
119.8
129.41
97.863
88.224
97.6476
98.6729
98.2068
98.19
95.5693
99.3372
98.1633
102.199
50.4415
99.375
98.7551
96.5434
100.367
129.591
98.8126
98.807
102.845
98.6154
99.1717
96.1877
98.2603
48.1479
96.9874
95.784
95.668
103.468
119.997
129.654
121.812
98.9779
81.8137
98.5447
92.4758
97.7276
98.779
103.928
96.1478
98.013
98.7028
95.4858
97.5771
97.0276
98.362
98.8815
96.8986
95.6623
99.2394
98.6319
94.9652
25.9471
97.3093
127.145
97.5805
93.5421
98.5768
98.6948
96.3699
98.6284
97.791
112.26
90.2408
91.3909
97.7371
49.0383
100.509
95.7777
95.4968
100.274
97.8538
100.282
94.7173
129.077
50.119
91.7362
115.091
97.5635
101.077
90.9855
114.888
97.7692
98.8488
98.4953
98.5227
96.2789
107.195
97.7941
103.092
98.4782
95.4339
99.2468
113.066
98.1808
98.7464
98.1936
129.354
57.6406
95.7413
98.5944
100.872
92.2461
91.1833
93.765
95.4246
98.6706
98.0786
124.924
130.011
119.372
100.024
98.3725
129.382
128.734
131.257
98.4887
98.8363
98.6849
95.8658
132.264
97.6551
98.849
98.6825
98.0866
99.3257
98.8273
95.9292
67.7314
103.223
95.7498
99.1993
98.1465
122.537
130.649
90.7026
121.147
98.5029
99.0454
110.374
98.2221
98.5229
98.8568
98.7528
97.5706
98.1627
99.0787
125.616
51.5193
99.4604
35.77
99.6813
97.8405
96.2565
99.0752
97.1745
98.3681
99.1331
98.1418
101.125
89.6217
111.132
124.707
99.1023
44.388
98.3012
97.6412
98.5088
98.2252
96.8023
92.8254
98.8605
98.8474
131.663
97.3896
99.1707
94.7441
120.678
100.877
97.0227
97.5221
98.0831
97.6308
106.596
72.5085
99.403
97.2761
101.878
131.233
98.2092
99.1117
102.49
97.7221
95.2627
98.034
120.981
95.1574
122.921
95.5251
95.5275
97.905
130.778
122.241
101.171
98.6732
95.5501
129.348
101.369
105.09
48.1855
127.679
96.8979
131.355
68.8455
120.506
96.1587
94.9347
98.839
119.527
104.063
130.726
106.702
99.1173
70.1793
104.703
126.119
97.4539
96.2873
34.2939
129.448
90.7461
100.692
116.799
99.3484
99.2702
93.5196
97.2273
101.19
90.667
113.11
94.4637
103.387
98.8928
98.5915
97.2076
98.2221
97.7895
98.8886
104.76
101.058
99.2003
114.427
98.1072
77.1575
101.075
99.2956
98.8118
100.968
91.9004
117.71
98.5072
101.089
91.621
115.742
95.5653
98.0189
95.5337
98.5376
98.7998
98.8259
94.6014
98.8282
131.142
50.505
95.0538
99.2759
98.6056
100.827
92.5321
131.274
99.2396
95.6532
99.5352
125.518
114.498
90.4407
100.386
93.591
98.487
78.3446
98.9215
61.312
101.37
131.203
99.8697
98.6362
98.8567
97.6012
130.752
131.953
124.623
110.876
100.079
97.4224
98.662
112.99
102.411
99.5809
92.0788
112.283
130.914
98.6649
99.3083
95.0831
118.708
49.9684
97.8042
104.274
97.5358
95.2775
96.6885
90.8355
101.115
114.307
103
96.5236
100.903
95.3469
99.7039
43.7381
98.9234
99.013
95.1856
98.7359
129.408
99.4196
105.008
98.3466
97.548
110.959
103.414
85.0455
98.2428
98.2033
98.8702
97.929
127.592
127.962
50.6683
96.5514
98.2228
98.5259
111.345
94.7932
98.4084
95.5757
108.423
99.3861
77.2589
129.366
96.9834
98.3131
99.4619
102.782
126.979
99.0838
59.2016
97.5173
97.6856
60.7537
114.061
102.354
94.603
98.8204
130.21
120.696
98.3366
97.3934
92.752
128.341
98.4031
103.361
127.896
96.4217
99.1278
98.722
96.6218
103.816
96.7565
98.8653
98.5198
95.4287
97.6991
97.9389
98.7358
99.2625
125.521
98.4093
103.166
97.6668
96.1123
97.2917
101.004
100.057
129.43
129.612
59.0954
94.8586
100.001
103.475
97.9401
53.7053
110.876
87.5084
124
101.44
90.5363
99.4201
98.7139
98.3682
111.943
98.7851
99.298
99.4719
97.9342
98.7437
123.159
96.9604
100.865
116.049
91.2135
101.112
95.7919
117.996
98.7106
99.2824
96.6934
97.8326
91.5192
130.824
115.593
103.393
100.853
82.0252
98.4885
98.9531
89.5578
47.7981
103.833
97.6028
107.462
101.818
97.1104
96.0554
98.5012
98.1286
98.8354
98.4343
98.4546
99.3811
98.5914
97.7462
98.7609
98.5313
103.166
98.9255
104.031
97.573
97.6458
115.749
103.737
96.619
99.5555
96.0469
98.2921
130.209
105.798
96.4035
98.6484
95.2776
129.311
98.5893
103.433
99.5344
98.6298
103.433
75.8326
102.671
93.38
107.679
98.1234
104.107
98.1792
97.0853
116.834
74.1162
99.3087
107.853
98.8658
98.5937
97.7666
98.8096
108.671
112.94
48.0303
88.9275
98.0014
98.2044
97.5282
101.304
89.5454
110.564
120.14
98.5733
99.112
98.5459
96.6354
103.651
96.6883
101.607
99.9117
102.998
103.722
104.844
98.8182
98.7526
98.8062
96.5268
98.5062
129.43
98.6812
103.339
93.2299
98.1427
95.4581
96.7224
96.024
131.058
98.1746
131.343
98.4185
105.278
131.153
98.5993
95.8861
116.302
97.8929
100.074
96.5743
98.0563
96.4325
94.1068
99.3533
98.7295
94.2339
97.8536
98.0166
102.686
98.5522
97.8707
99.4512
94.9953
93.8495
103.865
111.882
109.668
98.5244
97.3518
97.9204
98.5289
96.5497
100.271
99.4787
100.985
98.003
124.586
98.4491
97.1097
97.5234
129.204
97.4984
88.573
97.5899
97.951
104.278
97.3358
99.4265
96.1383
96.3749
103.022
103.596
97.8559
104.125
98.1998
97.8168
94.6879
98.6035
99.3069
97.0858
98.6105
130.31
97.0923
57.0807
97.6503
99.4086
98.8683
103.266
98.2569
107.733
98.3432
98.0258
102.186
110.372
91.6527
94.3679
98.3956
99.5321
96.757
100.772
97.0458
103.436
100.968
101.707
126.179
119.831
99.8673
108.591
107.546
97.0715
97.6436
97.4994
98.096
34.1997
103.773
98.1998
98.405
129.368
129.608
100.163
98.8292
98.8367
99.0219
97.4896
98.206
95.0866
96.6777
98.3971
100.62
96.2097
99.2257
98.4843
95.6919
95.4996
98.753
100.158
98.5142
94.6273
99.0737
92.7671
98.6637
98.1299
109.603
110.692
104.573
101.276
103.272
109.437
97.4357
97.0355
97.075
111.203
106.224
98.5836
98.8691
122.222
95.232
124.251
100.18
96.2966
109.37
96.3184
122.637
112.615
97.8493
98.3961
103.563
118.473
98.0265
98.6896
98.372
56.8974
98.204
97.6431
94.543
99.4106
99.0689
105.644
96.3586
122.876
98.9064
98.0798
107.868
101.699
86.8453
97.5219
98.5471
98.6126
98.1328
129.178
130.495
96.3314
103.507
98.1028
98.7697
99.7262
86.8316
111.117
131.741
121.795
103.974
95.3884
97.7768
99.2003
100.45
103.28
101.26
96.9307
98.2036
98.5313
99.4634
82.7302
94.8401
54.9056
99.0646
98.0425
120.845
104.357
99.1867
98.0124
102.842
96.1867
98.6096
98.5406
99.7887
99.1242
98.232
94.8699
96.3436
99.7233
98.1428
100.892
98.2599
97.3294
82.484
95.2707
125.238
102.558
100.292
98.5741
97.744
115.79
92.2872
100.992
99.4884
96.3324
130.738
51.9678
96.3434
97.3616
97.822
88.3245
98.6309
99.411
97.3398
101.162
95.7351
96.7118
100.222
99.3678
97.2071
98.6351
98.2585
103.266
99.0394
98.2766
99.5285
117.267
104.056
130.533
130.023
93.5981
98.5795
99.8427
98.5454
131.295
96.4174
97.9367
98.0158
98.4305
97.1697
98.578
93.9765
99.3424
93.48
97.7884
97.5342
94.6789
39.2112
95.5815
35.8731
48.9611
96.6458
103.105
98.5749
99.8157
100.206
96.4165
100.722
97.6532
98.8798
86.5343
110.803
110.032
101.41
98.6228
96.1719
87.3102
96.2494
98.6053
99.3437
130.514
97.1883
99.4485
97.7434
98.5189
99.3074
119.614
99.4775
97.4106
93.8774
98.2659
97.7838
99.3804
97.0326
98.5558
103.374
99.257
136.034
130.146
98.0819
41.8805
130.744
98.6275
95.6871
96.8482
109.403
98.0241
98.6119
99.4466
95.5974
12.7349
104.06
100.744
88.9797
116.344
56.6123
120.944
96.508
99.5188
98.2164
99.4082
99.3543
95.855
96.9978
98.1184
97.4775
99.4845
99.1397
97.7503
95.979
99.6965
98.254
99.3982
95.6485
97.0188
98.8383
95.9124
98.6018
99.5341
98.4942
98.5261
99.4844
95.3348
97.5056
99.4952
99.2239
99.6426
95.9193
97.3363
98.1733
99.3946
98.3196
99.5389
99.1202
96.3912
98.1092
99.3593
99.4113
98.3369
97.1599
95.7217
92.4756
93.3942
57.0367
98.2753
99.9372
108.855
100.321
94.8501
97.6872
98.0608
101.924
97.5821
95.9501
101.034
52.6256
94.0273
98.5463
96.4779
97.724
97.7591
98.598
99.4731
98.5814
100.208
98.633
96.3758
95.8198
99.6484
129.525
95.1851
99.3735
101.328
97.073
49.3632
97.2836
95.9188
100.479
112.635
100.404
96.9528
94.9883
94.0664
125.85
94.3466
96.4004
98.4741
97.9932
102.776
101.999
13.6549
96.3719
98.7864
98.8463
97.5309
95.2825
96.8514
145.124
97.5483
98.0642
99.2677
97.3619
96.1824
99.5039
97.2124
99.4364
98.2103
99.5163
99.2958
95.8043
97.1354
98.4328
95.6717
99.3614
95.9586
98.2259
98.3739
98.9186
99.636
99.4641
96.4271
98.2931
106.59
95.9253
131.586
115.537
99.4592
102.76
94.3099
98.1347
125.746
94.8176
95.7388
135.217
95.7309
99.2072
98.1682
95.9454
124.16
95.6062
79.6749
99.8124
97.3729
98.0432
99.0316
105.556
96.9825
99.5909
105.302
101.258
98.3657
97.5327
99.0593
98.3308
96.8798
95.4685
91.5858
98.6071
99.3553
98.4491
99.4315
99.2088
98.4642
97.9832
100.934
98.4632
98.4402
99.2519
96.3336
100.315
103.762
99.2931
94.6344
100.441
97.247
87.4362
98.6004
103.441
113.774
100.601
128.319
95.0594
98.3721
97.1864
96.3417
98.2883
103.691
96.0978
99.4232
97.0695
96.2202
97.8832
94.7648
94.5224
98.5325
99.6566
98.8687
101.486
99.9057
96.352
103.233
99.4299
97.8495
91.8774
95.1421
97.4951
100.62
96.1344
96.8015
98.0391
95.2724
97.3686
97.3877
122.647
98.0481
98.4824
93.4569
94.0166
99.1064
97.9179
96.7156
96.4095
94.1801
97.2442
118.846
101.106
100.606
100.637
95.3414
125.127
124.551
99.0202
95.3685
93.2991
106.472
97.054
114.307
101.783
147.584
96.9233
93.9095
111.25
121.638
93.5406
92.4952
100.329
137.492
100.303
115.003
91.8636
137.92
100.569
96.1052
32.4941
96.363
96.5699
100.697
97.9465
99.4222
95.7984
102.942
99.0994
98.2529
95.4462
101.075
101.201
97.4143
97.8254
101.129
97.7035
100.945
96.3387
100.771
100.807
98.072
98.6399
100.876
98.1857
100.9
100.958
100.69
97.5585
97.085
95.4167
45.8131
97.9325
97.4886
97.7549
97.6793
97.8982
96.7509
99.9228
100.718
100.446
98.1153
97.1627
96.5795
100.322
96.3579
96.2789
97.603
97.3532
97.3302
97.4107
98.306
96.1029
126.967
97.5762
96.3806
98.8097
96.2418
98.5484
96.2307
98.3628
96.5042
98.6534
98.4432
95.9618
97.1288
97.189
97.3482
97.5719
97.2223
114.174
97.1974
88.7005
87.0539
94.4381
111.693
88.5977
97.2168
113.997
112.413
87.5489
89.6094
99.4791
97.0697
88.2491
110.887
116.46
97.2198
93.771
114.237
88.2684
113.243
97.0842
97.1512
97.0222
86.6317
94.4901
53.0398
97.2066
94.1788
98.1444
97.2172
86.5894
99.4358
94.9973
112.215
111.004
92.9122
52.3719
87.8482
96.9979
88.02
97.2065
97.0989
92.725
99.4542
113.916
94.9393
51.4625
92.8461
96.8251
99.4664
88.0164
47.71
96.7847
151.708
88.7002
96.2851
92.9607
95.5018
96.7454
98.5068
111.018
86.6104
88.9597
47.2548
47.0326
95.8565
96.2378
95.3595
98.5663
96.1106
99.4404
99.4095
91.5013
99.0952
95.4155
98.2922
130.052
96.4742
96.3303
97.2546
97.4695
96.1216
97.61
100.04
101.465
96.1404
97.0825
100.024
100.332
99.4576
93.2349
94.1191
96.732
97.1896
96.1242
96.1011
99.2308
99.3822
95.475
96.6847
100.073
96.6595
98.5963
99.9563
86.8964
111.186
100.041
97.1496
97.0252
96.462
98.9929
99.2371
95.8407
100.25
99.7101
99.8747
94.8594
96.1607
99.8706
46.3262
98.8669
99.7021
100.333
99.0006
96.1667
98.2421
99.3522
98.3681
100.21
99.1753
100.01
100.188
96.4198
98.596
98.8162
97.5909
98.8783
100.146
97.898
98.2187
98.7965
98.4599
98.1778
96.5894
98.7232
100.062
99.9211
98.5934
97.1249
100.115
98.0851
95.2613
99.047
98.815
87.0412
100.223
111.276
97.6637
97.2353
100.077
99.1138
98.761
130.287
91.5666
93.5239
99.7196
99.0999
98.6964
94.1472
99.4822
93.5146
98.9439
99.1305
98.92
44.4524
122.622
99.5236
97.2309
94.7419
96.7253
95.2653
99.0836
97.9278
130.5
94.1751
100.076
94.9967
99.2899
95.3649
99.1844
97.8459
112.197
88.3586
100.405
130.695
92.6417
95.2202
100.308
98.3892
42.1949
122.507
99.4758
94.2086
99.9086
99.1472
96.8518
95.4873
100.073
91.3647
94.7568
100.096
95.5418
99.2649
97.8531
97.0935
98.8568
100.008
130.548
93.3268
98.9245
42.485
48.0562
96.9355
122.563
98.3409
97.9493
99.3544
94.5456
96.6543
97.0183
93.6272
92.2881
99.6948
98.738
91.2588
114.243
99.9509
121.293
95.2024
100.388
99.7275
96.6822
96.8249
98.7287
98.8988
98.0936
98.295
99.5084
94.7477
98.4816
100.334
92.8253
99.302
95.6991
99.376
97.8611
90.8456
114.095
100.042
130.712
95.8936
95.4054
96.5339
95.5159
100.536
97.8153
97.7147
99.1465
45.5385
96.5588
107.439
97.8506
101.409
122.494
101.238
96.4683
99.587
94.9046
96.7711
94.9141
97.678
89.1315
100.436
96.8679
94.6821
106.807
95.805
100.115
97.9755
95.0009
95.4281
98.3147
100.021
100.071
99.6704
95.9614
99.4665
98.0339
98.2378
100.211
95.4207
96.5769
100.393
100.849
125.369
96.5347
100.135
96.0725
100.72
98.0344
99.2937
41.0681
96.349
95.9901
96.8822
102.293
103.561
95.3932
96.0925
101.596
99.1505
97.7381
94.966
94.7211
94.8212
103.828
98.9954
99.0411
99.1144
99.6282
99.1986
97.223
95.9992
99.6849
95.0693
100.586
96.1493
100.958
99.0405
96.9294
99.443
131.536
98.8852
98.905
90.7842
96.5235
98.635
98.2773
94.4298
100.008
95.98
96.205
96.2324
95.7321
99.2823
95.8251
99.4466
97.9905
98.5221
98.6266
98.4239
93.3215
115.941
100.182
100.235
100.498
97.9671
100.025
98.2117
97.407
101.107
97.9466
100.753
95.8064
104.607
96.943
95.5836
103.441
98.4014
124.634
100.059
99.9774
98.6014
130.826
97.517
96.4495
100.837
94.5999
91.4499
97.9231
95.3736
98.3369
99.2844
95.8157
95.9825
100.83
96.1135
99.2112
97.9099
129.782
96.3981
97.4598
99.7913
95.9715
94.854
99.0087
99.0224
95.8354
96.7377
101.028
98.8991
98.8898
100.037
100.985
96.7305
97.5604
98.0916
95.9114
100.084
98.8788
96.051
98.0491
122.491
123.392
98.3369
96.0229
100.063
95.9413
122.842
100.245
97.9121
99.8425
97.8151
123.785
95.9597
100.142
93.2727
92.7759
96.0151
96.5334
98.2385
99.1401
98.9094
100.158
97.8111
102.46
96.1113
100.162
130.658
96.1885
98.8127
100.364
96.3499
96.6543
97.6398
98.9573
98.6929
100.655
97.7456
96.0266
98.3919
98.081
103.229
98.3336
96.7733
95.8543
94.8715
100.362
97.9227
95.9631
99.4464
98.2139
94.9599
83.1712
98.8251
95.9929
97.8459
99.3918
96.7572
89.0501
100.761
98.6811
100.158
94.7231
97.8902
102.485
97.7075
100.166
100.194
100.092
97.2552
98.4606
108.92
100.033
133.702
95.4106
99.3542
100.347
96.5179
96.0485
99.5043
96.0043
99.2612
96.3894
125.459
92.0987
115.385
100.701
96.1246
100.059
96.4783
99.2986
95.2849
112.59
99.8179
101.425
107.315
113.362
100.038
99.9099
96.327
96.2104
99.1553
98.3715
130.921
88.8641
96.0387
94.0682
97.7672
55.0845
97.7043
96.6925
101.063
99.5821
99.558
96.7723
89.2617
99.3016
98.4621
96.7794
98.4554
96.6599
101.091
100.433
100.831
96.87
44.8294
98.6079
100.783
117.396
98.4708
88.1728
96.9612
39.9362
108.73
97.1441
96.4351
100.568
94.5815
130.423
96.7189
96.137
97.7714
138.084
95.4248
95.4367
100.381
97.937
97.1784
98.5364
100.234
99.1684
98.0066
100.606
97.4616
123.863
96.3396
99.7085
95.6774
98.0095
99.0938
99.535
99.1978
97.5779
98.9206
98.4622
142.114
97.1358
99.849
97.0647
98.6878
98.197
97.0735
129.422
99.1136
96.2037
99.1787
99.3631
74.2938
129.964
99.2934
99.2539
100.782
96.368
105.84
96.2071
96.3238
97.3365
103.302
96.8298
95.7555
92.7113
98.402
95.7653
107.397
99.9155
96.3135
100.503
93.6658
95.5508
96.0288
99.1418
96.1131
98.5849
100.2
96.8952
95.9022
95.5054
101.503
100.431
96.7164
100.709
97.0922
98.0489
99.4307
106.823
101.176
97.0255
99.9112
96.6716
95.9697
97.2408
100.982
102.213
103.458
96.077
99.4425
98.1966
79.8642
97.9783
100.363
99.4454
97.5552
119.187
100.878
96.497
96.1952
107.617
90.3155
99.8382
93.5108
99.3487
99.0887
92.4707
117.55
91.8031
96.2509
96.1287
97.4825
99.9908
97.221
99.194
99.2829
100.679
91.4964
116.16
98.618
96.3787
95.6583
95.809
99.4252
98.1869
93.8292
97.2259
95.9992
100.825
98.1571
100.609
95.9719
100.503
97.4215
98.7012
98.6263
98.4706
95.7754
95.9699
101.182
94.8206
100.059
95.6607
99.3825
98.3963
138.079
114.48
97.5659
96.7118
107.612
115.141
114.521
100.65
99.8119
98.717
98.5031
99.4317
97.5233
101.507
130.141
96.7403
97.483
100.196
89.1186
112.815
98.4587
99.2401
95.0082
97.9493
100.456
96.0192
100.62
94.5872
51.2537
73.4527
97.8244
96.6709
98.9226
96.5748
99.1469
96.8757
106.575
97.0635
122.239
96.8659
100.861
97.834
99.5436
100.94
98.5542
95.9691
97.6362
95.6095
105.871
99.407
100.653
99.2069
129.482
98.5771
95.5161
87.3178
94.4138
129.576
130.505
99.7511
98.4134
99.3151
98.5331
93.2399
96.2992
21.0625
97.7677
125.301
88.6826
99.6801
97.9235
95.1738
129.499
96.0108
94.9805
99.374
98.3768
98.9344
120.972
98.0547
97.8492
97.7655
95.5774
98.6065
97.6282
100.179
97.1118
103.177
129.782
110.073
98.7228
96.9419
100.733
97.3712
98.2461
98.5633
98.9681
98.8678
96.8754
96.4126
97.9741
100.683
96.41
123.707
98.3878
96.4959
103.177
96.0306
45.2294
97.6413
100.261
95.5089
99.362
98.3842
111.124
97.5682
99.5025
97.1134
95.2921
100.009
97.957
99.3134
99.4824
99.9299
97.5215
98.6912
101.222
95.2465
100.006
98.5892
98.3619
96.0206
100.579
99.8159
101.282
100.987
98.0028
97.5808
103.229
98.6697
100.203
96.9292
123.624
125.398
96.2863
97.9827
100.121
98.6157
98.9315
95.9814
97.4697
95.4591
96.7536
96.2407
107.735
97.2599
96.0902
96.4557
100.133
99.6366
96.2601
89.0118
99.8606
99.5742
117.149
97.6787
98.249
98.5652
98.662
97.1656
92.5373
96.1404
100.356
97.849
97.5819
99.4329
84.892
106.044
100.014
95.1617
97.9686
96.616
99.9425
100.155
97.3813
103.521
103.187
99.0613
96.2641
97.2638
98.1173
100.301
97.1535
98.0978
96.2278
97.8666
99.2412
98.2598
97.9124
96.9318
98.6803
98.5245
98.6394
103.82
94.7349
99.3929
98.7989
100.661
97.124
99.5189
98.0226
99.519
97.3782
100.265
98.7938
129.955
91.3352
37.7533
95.9664
96.8354
98.7276
98.4703
96.3734
99.3228
98.4454
98.3886
99.3022
98.4821
103.434
95.4053
120.871
98.1704
98.641
98.4732
96.2861
122.334
98.0353
97.6429
99.3873
100.277
121.664
95.4468
95.7836
99.7243
92.8555
131.202
102.571
98.234
98.6007
113.047
87.2099
95.3153
96.2762
96.4132
98.9114
98.1592
94.7885
99.3067
98.6623
96.756
98.098
96.7171
96.2829
97.338
99.238
98.5898
99.9151
98.5503
99.0239
98.3512
97.513
98.0745
96.0312
96.4025
99.3544
97.5399
90.0627
98.2077
120.574
96.1679
94.9173
97.2879
36.1159
98.4269
126.976
97.7764
96.0466
94.5307
100.531
99.4207
98.7393
99.388
97.7486
100.228
100.078
98.1444
123.233
94.8065
89.8003
98.782
98.7797
131.736
98.6092
98.383
97.3388
100.079
96.9572
102.156
99.3242
95.3481
94.6182
99.3144
98.4823
99.3518
96.0015
98.2861
99.2382
97.1294
84.5202
97.8775
96.8767
101.159
57.617
103.548
112.748
99.0667
95.9926
129.917
73.2354
117.028
101.105
94.6811
99.3284
98.5058
99.4574
107.735
93.3406
98.8889
98.4214
97.6034
100.186
124.283
135.639
96.5078
116.694
102.014
129.287
99.3656
97.0364
100.538
97.744
96.8124
97.0694
115.487
100.249
98.2726
99.4996
96.1478
129.824
97.3205
117.088
94.1896
100.587
100.891
96.8801
96.7309
98.0304
99.4732
95.8146
97.9973
97.3504
98.2339
100.578
96.0139
98.4171
98.7654
96.9817
98.3583
104.146
41.2202
129.433
98.1201
96.3828
98.5376
100.658
99.904
100.878
96.3288
97.4294
99.3831
96.2471
99.046
114.908
100.798
89.824
114.215
98.8351
98.7923
98.3597
103.975
36.0757
97.8137
86.5459
110.897
91.9324
95.8478
105.034
103.026
96.0787
95.954
94.9131
93.6612
131.445
97.8809
94.2246
97.9297
104.579
44.8669
99.0516
100.415
96.1505
99.4135
98.1535
93.0657
97.82
113.809
97.6159
97.9713
99.4925
121.985
100.721
100.579
99.5801
99.3944
98.9255
98.8505
97.7513
97.9994
98.6568
99.2607
113.242
97.4385
112.627
97.6906
96.2025
99.9519
96.8286
131.059
98.6578
98.7115
106.675
117.411
95.0961
100.52
98.4373
98.8293
100.031
96.4699
128.767
96.8427
99.4027
99.7632
98.9784
98.1367
128.145
129.261
100.884
97.9725
97.4938
100.021
98.8769
98.505
89.8026
97.5369
97.5782
98.2563
98.3351
96.5608
98.854
82.7638
96.1154
129.113
100.235
100.369
99.9409
96.5381
93.2569
123.936
101.339
98.8788
122.264
98.3431
119.167
112.861
97.5732
128.618
97.4861
129.312
98.7744
98.9162
98.8281
106.114
99.5515
110.25
95.9092
104.632
29.1322
98.3132
127.822
97.3537
108.611
98.2986
109.632
94.9331
128.42
129.197
99.4475
114.037
94.9954
93.8087
99.3715
98.9853
96.1452
99.7209
110.228
97.0265
111.968
110.415
97.5736
98.8275
98.6686
130.35
97.5878
98.2229
98.7609
103.248
96.9352
103.611
103.975
97.0297
113.808
100.324
99.472
95.2771
97.0259
98.1523
111.855
129.599
96.9155
118.194
109.645
96.2862
98.1751
98.2665
98.5435
97.4831
98.6099
129.353
102.943
97.3271
94.2679
96.5056
117.121
90.8757
100.929
100.388
97.1577
95.6348
99.6446
99.5021
95.6407
102.742
97.9818
101.433
100.437
96.5534
100.012
116.769
105.635
95.2279
98.5816
98.6513
99.6737
111.225
96.9147
97.5916
100.602
98.2119
99.3046
90.3662
97.3692
48.7811
100.66
97.7129
104.781
99.4742
95.9056
98.2421
129.09
97.3711
122.238
98.2253
99.6904
89.115
95.0647
98.6817
98.4871
99.3672
107.56
94.199
116.882
100.819
99.2413
98.3291
96.3172
100.778
98.4331
56.584
55.884
96.2636
99.4924
99.3065
99.5099
98.6728
99.3609
93.1109
98.8765
98.9049
95.6915
96.2814
98.0387
97.9338
97.0203
101.407
131.413
98.3077
99.1974
95.2066
96.0452
109.585
99.5046
96.6251
101.093
95.4274
118.353
95.7589
100.888
100.005
95.6714
46.3834
99.4223
98.6059
112.286
129.899
97.2278
95.1871
98.6518
99.29
95.9208
100.213
97.3406
95.624
95.9033
98.3018
99.5238
95.997
98.0731
97.9328
98.7616
91.9575
114.521
101.325
96.0052
101.444
98.8464
98.8117
101.051
96.5714
110.85
86.3476
96.3835
98.795
95.8987
97.0051
96.9663
94.9318
93.0275
105.654
98.1716
116.888
126.681
146.834
95.3396
97.5804
131.635
96.4233
98.9259
96.8767
126.575
99.7274
102.584
11.2058
103.652
100.114
94.9611
97.9782
99.3954
98.3638
95.4879
99.9474
99.1532
94.2684
97.9499
100.31
102.628
96.6417
131.132
96.1228
117.172
97.3899
97.8114
94.0947
99.2782
98.2592
97.6035
95.6661
95.4361
95.7228
93.5039
36.8701
118.731
95.0165
101.888
97.0841
100.801
94.7763
99.6706
98.7511
95.4111
96.7998
96.9553
98.6882
97.1818
95.3051
98.2752
97.6128
99.793
95.6403
123.366
98.6017
98.9073
98.8698
98.7511
104.085
111.721
100.651
102.78
101.087
90.2371
93.8852
99.7876
96.4221
98.436
99.8678
99.1859
96.1088
95.1929
131.235
99.298
98.425
130.877
98.3172
96.4365
97.811
85.3582
104.837
104.624
98.0388
102.091
98.0616
102.118
102.239
105.487
103.637
97.0115
98.836
98.0557
98.8324
93.7611
108.72
98.0957
99.1579
98.2691
95.8401
95.647
104.252
97.1795
99.4796
97.3025
100.338
98.8293
96.0497
98.3435
98.3457
102.16
48.6988
93.6954
99.2916
98.3564
97.6212
99.5254
99.5277
96.0891
98.0194
99.2017
94.5358
98.1938
128.098
97.9107
98.3606
96.9743
93.4509
96.4312
102.886
94.3991
96.6791
95.1729
98.7369
96.064
98.3837
94.9171
119.467
116.697
94.3568
100.145
99.8669
98.5726
98.2222
99.1022
98.3374
129.96
104.765
96.2602
120.983
97.4073
99.6669
93.5424
98.9967
99.6149
87.8258
97.9632
105.302
97.9057
97.4961
96.9694
101.973
95.1209
93.0307
133.378
92.0768
95.4353
98.1183
97.5116
97.4659
119.26
128.895
98.9452
98.5826
97.9515
114.589
100.454
96.3101
97.9711
100.057
95.7984
98.5387
98.2585
97.0333
96.4387
101.426
96.3982
86.459
110.855
98.4425
95.9758
95.6741
101.201
97.0672
106.689
101.107
97.5219
101.049
96.1508
99.9778
98.2024
103.256
96.2949
18.9639
102.215
96.3827
98.8508
97.3802
96.3682
99.1362
96.2384
98.5226
99.3528
98.2651
96.7218
96.6622
128.802
93.1793
129.758
98.9408
97.9899
97.5886
99.9927
98.3415
95.9686
55.7216
122.635
103.44
97.9893
99.5103
97.8255
89.8876
91.2916
96.0159
98.914
103.516
103.142
98.7046
95.3011
47.3358
98.5199
95.2279
99.3706
101.009
96.7165
96.6004
100.358
95.3375
53.775
100.841
98.2097
100.122
98.6543
98.8934
93.9348
95.7182
97.6887
101.695
114.661
101.422
101.21
97.8091
98.3283
97.767
91.3269
96.7189
131.628
123.151
97.192
87.8666
99.1164
99.2823
94.5304
98.2977
100.18
122.148
100.476
105.837
98.7316
96.0274
99.1708
100.303
104.028
96.3682
116.754
100.593
90.3094
99.4768
97.9183
131.255
98.4892
94.3708
96.0122
96.9094
100.768
92.4648
44.9581
113.439
98.0983
99.6513
94.4297
94.3495
99.3994
98.7596
96.8968
98.8564
98.1512
98.6474
99.3494
130.832
100.866
99.1978
94.7353
98.7041
52.4762
97.2169
89.5589
114.937
100.898
97.9178
96.1202
103.442
97.1624
98.4806
99.3085
93.1802
98.6576
98.1063
97.6688
129.081
99.6311
97.7415
98.0421
99.1498
98.1148
92.8298
99.6863
99.3915
98.0925
97.6686
96.6483
103.769
98.8342
98.7343
121.321
71.3351
99.0541
55.2045
98.9305
98.0423
91.2165
89.77
98.7614
97.2983
81.4026
98.5328
123.312
100.837
90.0472
116.996
128.223
121.315
98.4883
98.7171
94.9268
98.8867
96.2064
88.8093
93.1518
97.6911
99.409
112.001
111.615
105.312
94.2686
99.5059
94.2904
103.692
98.2479
98.1044
96.7628
98.3027
98.5409
129.01
96.1967
96.1482
96.2373
100.023
97.1036
97.8116
94.2371
98.6719
99.5122
95.9236
97.9582
99.4422
93.5266
99.3615
97.246
100.968
93.397
93.8867
97.1172
96.8266
94.7071
112.714
99.4509
98.3855
98.4184
99.48
117.936
126.265
99.4527
97.6031
120.14
100.362
105.451
98.7999
98.7363
99.3087
97.8321
99.6572
98.4014
98.7881
94.1606
97.0406
98.6758
130.428
97.701
97.9453
94.8375
97.9407
98.3633
97.4678
92.8416
98.598
98.7516
103.046
125.296
96.5142
97.1251
101.216
96.7008
100.599
96.7758
98.0386
100.671
96.6843
98.549
98.7109
99.3572
51.8094
96.4634
129.511
99.3322
97.1015
100.337
127.734
96.2987
54.339
103.828
98.3118
98.4018
98.6131
97.5517
98.6966
99.3469
94.6445
98.5773
93.4218
99.4133
98.7823
96.7886
99.5461
103.882
130.025
99.1366
94.4048
99.7025
100.027
98.741
98.2876
111.368
86.7252
95.1441
103.238
98.9576
102.451
100.492
103.233
122.803
97.5416
97.1008
98.646
97.3481
131.317
96.2705
98.3582
95.5787
96.6991
100.217
99.4451
97.3901
130.036
105.288
98.6923
99.3842
93.4527
103.708
97.6803
101.074
96.6128
99.0246
98.2879
96.7536
45.0979
100.911
98.3336
114.616
131.16
98.2332
95.063
97.7616
129.518
97.7187
101.84
95.9961
36.1986
59.6245
98.9183
47.876
97.8363
35.2628
97.7197
115.032
98.5767
97.4515
98.7276
98.7258
98.6963
98.7139
99.1849
99.1962
99.1422
99.0653
98.7199
98.9695
63.207
99.2241
99.066
99.3281
99.1341
56.7106
99.5033
100.719
92.3975
95.4676
94.0288
91.1892
68.9383
49.4256
90.6462
78.5819
73.8005
91.0076
99.5259
98.3604
98.3832
98.427
98.0377
99.9375
98.8794
98.3568
101.432
98.704
100.017
99.5753
100.578
99.5637
98.375
101.703
116.732
117.955
99.177
103.053
100.832
91.6285
99.9777