/*--------------------------------*- C++ -*----------------------------------*\
| =========                 |                                                 |
| \\      /  F ield         | OpenFOAM: The Open Source CFD Toolbox           |
|  \\    /   O peration     | Version:  v1912                                 |
|   \\  /    A nd           | Website:  www.openfoam.com                      |
|    \\/     M anipulation  |                                                 |
\*---------------------------------------------------------------------------*/
FoamFile
{
    version     2.0;
    format      ascii;
    class       volScalarField;
    location    "0.8";
    object      nut;
}
// * * * * * * * * * * * * * * * * * * * * * * * * * * * * * * * * * * * * * //

dimensions      [0 2 -1 0 0 0 0];


internalField   nonuniform List<scalar> 
1431
(
0.00477037
0.0135343
0.000755193
0.000766002
0.00138388
0.00786416
0.00196987
0.00971658
0.00682668
0.00131567
0.00384441
0.0130428
0.0142859
0.0022227
0.00158032
0.00181419
0.00192115
0.00113133
0.00193561
0.00155217
0.00511821
0.00525663
0.00546615
0.0151646
0.00574997
0.0107799
0.00340969
0.0015202
0.000905651
0.000715779
0.00207845
0.00260828
0.00197419
0.00124031
0.0121498
0.00283382
0.0122494
0.00108725
0.000701613
0.00235123
0.00601498
0.00830455
0.0125706
0.00128256
0.00372946
0.00173113
0.0033797
0.00322049
0.00218829
0.00117187
0.013924
0.00127924
0.0145212
0.0124651
0.0102124
0.00816007
0.000848521
0.0136611
0.00169648
0.00103733
0.00139091
0.000426357
0.000423363
0.000422031
0.000237002
0.00032013
0.000818218
0.000519806
0.00070723
0.00120783
0.00366914
0.00115395
0.000375181
0.000846805
0.00145788
0.000847085
0.000568635
0.000426347
0.000543984
0.00104378
0.00164047
0.000700503
0.0128007
0.00394079
0.00666298
0.00156119
0.000843797
0.00284422
0.0104964
0.0132243
0.00145337
0.0013666
0.00257564
0.00170471
0.00883498
0.000677352
0.012109
0.021157
0.00116153
0.00130168
0.0112079
0.000849234
0.00256786
0.00112407
0.000658142
0.0024378
0.00305687
0.0030765
0.00418534
0.00217773
0.00107259
0.0150155
0.00523338
0.00497084
0.0125351
0.00111924
0.00136256
0.000456702
0.000452064
0.000347651
0.00125676
0.00155995
0.00249168
0.00122083
0.00254203
0.000394818
0.000553432
0.002432
0.00090799
0.00309207
0.00126343
0.00106907
0.00329896
0.0014992
0.00173564
0.00135946
0.00150145
0.00127007
0.0139497
0.000482892
0.000398996
0.00198195
0.00142747
0.000662127
0.0053588
0.00186977
0.000491967
0.0131988
0.00154422
0.000873531
0.000922293
0.000899673
0.00249082
0.000502484
0.0034199
0.00295518
0.0102815
0.018606
0.013619
0.0015954
0.0195364
0.0150968
0.000663979
0.00102025
0.00274383
0.0045196
0.00419993
0.0107799
0.00123382
0.0186416
0.0184533
0.0147412
0.00224406
0.0138883
0.0160444
0.00966439
0.00266828
0.00574847
0.014665
0.0133234
0.00036974
0.00125966
0.0110716
0.0178626
0.00617011
0.00134117
0.00149473
0.0184169
0.00245664
0.00753981
0.00228722
0.00251035
0.00264488
0.00340821
0.00043568
0.0197698
0.0218234
0.0122354
0.000760637
0.00170628
0.0121721
0.000707931
0.00380626
0.0014533
0.0151047
0.00240967
0.00241965
0.000633142
0.0149623
0.00256735
0.0020494
0.000532868
0.00303888
0.00245788
0.0123407
0.00148046
0.00282981
0.0125901
0.0119447
0.00364265
0.00323722
0.0104618
0.00245879
0.000772615
0.00355701
0.0164245
0.00407529
0.0199582
0.00284972
0.00281327
0.00624182
0.00207657
0.00243076
0.00256352
0.00273527
0.0199621
0.00302657
0.00270356
0.00220198
0.0085734
0.00274727
0.0154443
0.0156632
0.00257656
0.00251557
0.00391055
0.00271381
0.0035915
0.00341838
0.00157154
0.00234827
0.0146577
0.00130716
0.00145293
0.00236771
0.00792493
0.00113502
0.0170798
0.0219601
0.00270394
0.0017064
0.013603
0.0115161
0.00213294
0.00378837
0.0042541
0.0108004
0.0041537
0.00316816
0.000591825
0.00439997
0.00299741
0.0111465
0.00536967
0.0181836
0.00207497
0.017116
0.00290154
0.00103108
0.00153994
0.0153956
0.0129716
0.00186414
0.0118105
0.00598919
0.0195983
0.00776612
0.0219751
0.00581162
0.0141375
0.000503736
0.00915535
0.0209598
0.0150999
0.00248206
0.00261649
0.00179553
0.0015041
0.00216707
0.00107559
0.0143617
0.0010079
0.00887649
0.0144962
0.00274451
0.00107833
0.0165584
0.0025217
0.00937684
0.0170145
0.0191817
0.000357918
0.000353336
0.00128911
0.00808565
0.021603
0.012457
0.00801227
0.00124858
0.0131112
0.0166793
0.0208768
0.000884456
0.0130306
0.00995058
0.000794352
0.000909242
0.00731585
0.0122737
0.00124562
0.00118783
0.00142677
0.00749376
0.00591371
0.00237647
0.0142535
0.00762283
0.0202263
0.00916925
0.00128611
0.000757938
0.0139416
0.0154536
0.00553635
0.00726192
0.0023371
0.0120203
0.0164286
0.0178111
0.0151014
0.00684709
0.000998528
0.0131477
0.0173251
0.00129203
0.00931421
0.0083885
0.00184294
0.0125325
0.00695829
0.00550915
0.00134103
0.00112067
0.00655092
0.0013656
0.00547769
0.00638941
0.0173305
0.00266675
0.00201233
0.00364439
0.00187628
0.0118261
0.0146043
0.00582881
0.0181806
0.0180276
0.00402884
0.0112901
0.0182719
0.0153863
0.00791401
0.00495118
0.00127943
0.0163641
0.0077695
0.0150617
0.00690064
0.0101167
0.0147799
0.0032088
0.0149667
0.0149389
0.00111284
0.02152
0.0139572
0.0139969
0.0136501
0.00599181
0.00904777
0.0173244
0.00595565
0.0221488
0.00797423
0.00698674
0.0134725
0.0073275
0.000729796
0.00435225
0.0137483
0.0185566
0.0113275
0.0140505
0.0136952
0.00687255
0.000901363
0.0158061
0.000801093
0.00941232
0.0143384
0.00377945
0.0142998
0.0120731
0.0165454
0.0146288
0.00174073
0.00162649
0.00347924
0.00485295
0.0142542
0.0147152
0.0145001
0.0144338
0.014396
0.0144974
0.0146351
0.0148682
0.0143675
0.0150217
0.0146324
0.00154596
0.0143982
0.00132851
0.0010748
0.00104767
0.0010632
0.00132517
0.00127437
0.00428065
0.0046519
0.00416255
0.00127166
0.00212594
0.00109623
0.00209204
0.00211455
0.00558724
0.0163719
0.00109402
0.00133382
0.00512511
0.000874905
0.0157692
0.00189015
0.00164239
0.00102075
0.00117076
0.0151951
0.00123307
0.0145403
0.00155452
0.00144366
0.00118443
0.00606592
0.0140948
0.0141841
0.00143092
0.00137868
0.00125534
0.00155577
0.00617215
0.00133139
0.0142034
0.00237086
0.00136025
0.00578216
0.00137249
0.00125453
0.00103372
0.00464034
0.0139733
0.00179811
0.00151726
0.00690293
0.00459666
0.00155461
0.0024019
0.0134277
0.00295365
0.00206168
0.00844199
0.00857934
0.00156923
0.00110709
0.0131649
0.0146432
0.00154433
0.00487556
0.00480605
0.00174782
0.00726499
0.00478726
0.00128855
0.00349092
0.00099816
0.00180961
0.00875813
0.00862105
0.00491468
0.0143372
0.00384716
0.00687228
0.00281062
0.00117909
0.0104065
0.0013508
0.0124691
0.00232145
0.00152791
0.000684606
0.0137266
0.0109146
0.0124615
0.00552926
0.0139261
0.00678361
0.00490196
0.00169953
0.0110735
0.00159429
0.0148022
0.00149119
0.00528595
0.00941386
0.00349294
0.00490711
0.0132103
0.00155529
0.0144005
0.0131732
0.0149928
0.00121076
0.00604789
0.0143369
0.00129251
0.00338261
0.00140593
0.0085889
0.00159862
0.00591539
0.0133427
0.0130175
0.0204434
0.0133664
0.00860407
0.00902774
0.00884773
0.00086014
0.012834
0.00820249
0.0154879
0.0116073
0.0153048
0.00744662
0.00125075
0.0102444
0.00149442
0.00166007
0.0152613
0.0144989
0.0153378
0.00923499
0.00420007
0.0150554
0.0161081
0.00323565
0.00246101
0.0110963
0.00144816
0.00256976
0.0146877
0.00170913
0.0135196
0.0140625
0.00366832
0.0143743
0.00485415
0.0149194
0.0200008
0.0143708
0.00167812
0.0128865
0.0132036
0.00933079
0.0121166
0.00747759
0.00175194
0.0162659
0.00126976
0.00121917
0.00139612
0.0112644
0.014874
0.0154402
0.00490184
0.00743206
0.004951
0.00196982
0.0122369
0.0135711
0.0148901
0.0151087
0.00115609
0.0143312
0.0137549
0.0069085
0.0136521
0.00203348
0.0138265
0.007485
0.0147321
0.0124653
0.000267061
0.0155384
0.0155747
0.0134285
0.0108483
0.00443394
0.00426364
0.0114566
0.00565057
0.0214597
0.00257433
0.0135644
0.00173007
0.0133843
0.010896
0.0102109
0.00418641
0.0166027
0.0127177
0.0105396
0.00148828
0.0147021
0.00159774
0.0085619
0.00636904
0.00757836
0.00980752
0.0155851
0.0209674
0.0132123
0.0128955
0.0151024
0.00900952
0.00422638
0.0021681
0.00821493
0.0137709
0.000905402
0.0149355
0.0127231
0.00170742
0.01489
0.0126026
0.0031905
0.0017313
0.00622083
0.00472439
0.00761145
0.0101653
0.00936952
0.0162707
0.0017021
0.000562375
0.000784432
0.0148441
0.00470819
0.00168264
0.000897769
0.00473218
0.00278852
0.00514173
0.000771598
0.000514518
0.0139805
0.00146386
0.00422635
0.00040236
0.0157832
0.0012229
0.0142921
0.0151649
0.000643472
0.00179255
0.00179277
0.00137852
0.00134045
0.0143825
0.00966085
0.00584755
0.00553305
0.00256684
0.00343546
0.00147367
0.00500889
0.0130907
0.00304394
0.00283593
0.00475186
0.00551963
0.00242912
0.0140985
0.0155566
0.00266317
0.00827688
0.00320647
0.0127373
0.00320846
0.00419328
0.00115542
0.0172691
0.0126063
0.00299282
0.00625652
0.00299711
0.00517339
0.00160167
0.00168275
0.00157409
0.000785542
0.00671048
0.00474757
0.00451968
0.0146434
0.0074014
0.00514074
0.00121773
0.00484944
0.00142952
0.0110452
0.00955145
0.00698172
0.00152719
0.0156261
0.00485462
0.0066806
0.00115841
0.00702422
0.000934164
0.0174488
0.00606101
0.00337039
0.00185626
0.00102098
0.0030824
0.00179569
0.00202959
0.0128353
0.00631112
0.0107198
0.00243544
0.00442145
0.00542628
0.00605557
0.0142039
0.000325294
0.00830773
0.010874
0.00214263
0.0152156
0.00146249
0.0156562
0.00146194
0.00102147
0.0140954
0.006301
0.0150505
0.00236961
0.0149696
0.00579134
0.00146168
0.00256019
0.0120512
0.0025128
0.000337796
0.00178388
0.00227032
0.0015655
0.0151538
0.00245835
0.00601735
0.00125916
0.0145374
0.0149547
0.011109
0.00258412
0.00803957
0.00854001
0.00596208
0.0161545
0.00189875
0.0121346
0.0115558
0.0102414
0.016995
0.014453
0.00170786
0.0133922
0.0052612
0.00111911
0.00420212
0.0153853
0.0147191
0.00112428
0.00079868
0.00806854
0.00197226
0.00186911
0.00191676
0.0138551
0.00172093
0.00161271
0.00240136
0.0155273
0.0130599
0.0028241
0.0139071
0.0150142
0.00979574
0.0154358
0.00522127
0.00289054
0.00249728
0.0150052
0.0193178
0.00265258
0.0167783
0.00798715
0.0209686
0.00294026
0.00198592
0.0131045
0.0082237
0.000821534
0.000569926
0.00403864
0.00536052
0.000800521
0.0006551
0.0085213
0.0158586
0.00621719
0.013621
0.0152915
0.010242
0.0153288
0.00140792
0.0155683
0.0110666
0.0152014
0.00998243
0.0107011
0.0011757
0.003837
0.00120102
0.00206639
0.00203188
0.009445
0.00361414
0.0138011
0.00165396
0.00417887
0.00452233
0.0111626
0.0147121
0.00741264
0.000794728
0.000889515
0.000854063
0.000742103
0.000788961
0.000918061
0.000876989
0.000599354
0.00072327
0.00064377
0.000649855
0.000678363
0.00100771
0.000731087
0.00063437
0.000634146
0.00076516
0.000826529
0.000779667
0.000756825
0.000742501
0.000747602
0.000726649
0.000771805
0.0149803
0.0173513
0.000996098
0.00929353
0.00722205
0.0048015
0.00264456
0.00901503
0.00243245
0.00204176
0.00371028
0.00144807
0.00591486
0.016021
0.00507506
0.00147498
0.0190682
0.00463424
0.015515
0.00382631
0.00109792
0.0176364
0.00118342
0.000779556
0.0116053
0.0153212
0.00107746
0.00556607
0.011213
0.0017396
0.00465366
0.0145768
0.0062482
0.0131172
0.0150114
0.0127525
0.00120038
0.00103948
0.00185114
0.0014497
0.0157103
0.00100402
0.000720209
0.00985111
0.0148831
0.00857512
0.00461319
0.00114677
0.00716853
0.000983812
0.0108504
0.0149916
0.0150699
0.0020158
0.00119844
0.00536338
0.00239474
0.000711533
0.00207538
0.0002802
0.0147442
0.00239596
0.00143253
0.00114654
0.00343423
0.00117724
0.01414
0.00187058
0.0145671
0.0125029
0.0027253
0.00175601
0.0109794
0.0120114
0.0201634
0.00187558
0.00153909
0.00183125
0.00215291
0.00143501
0.0152564
0.00243321
0.00623341
0.013298
0.000746188
0.0121998
0.00139941
0.00222094
0.00529051
0.00359326
0.0023693
0.00261124
0.0037763
0.00341353
0.0142431
0.00110453
0.0102182
0.00196179
0.00143107
0.00451621
0.00251701
0.00192709
0.0009102
0.0136405
0.0154804
0.0151327
0.0010135
0.0145894
0.0151921
0.00831808
0.00655059
0.0017106
0.000807771
0.000683425
0.00128343
0.0122003
0.0145197
0.00071988
0.00689499
0.00205658
0.0194894
0.0127479
0.00227075
0.00337539
0.00282627
0.0135908
0.00181087
0.00695142
0.0104127
0.0151397
0.000243686
0.00422291
0.000194086
0.00917269
0.0127453
0.00210683
0.0124812
0.0119863
0.0158824
0.00907482
0.00548972
0.0119773
0.00165662
0.00416294
0.000460744
0.00212658
0.000736483
0.0143545
0.0122056
0.00843426
0.0135251
0.011972
0.0190896
0.000542277
0.00077141
0.0155975
0.00197736
0.0106501
0.00223632
0.0136129
0.015059
0.00193685
0.000751375
0.00180321
0.00169493
0.00165432
0.00222209
0.00196672
0.00187531
0.00179521
0.00189387
0.000231012
0.000172697
0.000164893
0.000201524
0.000145392
0.000172605
0.0152581
0.00299335
0.0134152
0.00264513
0.00913676
0.000710643
0.0012153
0.0137705
0.001306
0.00228436
0.0150022
0.00152377
0.00299046
0.00595068
0.000313552
0.00185189
0.00181626
0.0102361
0.014315
0.00321755
0.0106999
0.00287521
0.00292676
0.0154721
0.0148497
0.00312784
0.00155462
0.00320193
0.0144961
0.00516107
0.0122221
0.00741295
0.0028627
0.00934443
0.000665942
0.00230765
0.0016429
0.000640666
0.00483092
0.00115772
0.000823827
0.00406799
0.00145196
0.00113997
0.0159612
0.0110688
0.00297602
0.00445599
0.0127072
0.00330693
0.0012094
0.00622276
0.0106498
0.00534503
0.00815243
0.00338067
0.00120887
0.00469916
0.00769132
0.000553979
0.0130549
0.00374714
0.00361344
0.0115626
0.000667598
0.00268333
0.00236971
0.00162009
0.0101059
0.00749698
0.015638
0.00784296
0.00188469
0.00951366
0.0185449
0.00232978
0.0135602
0.00164844
0.000699333
0.00139414
0.00101986
0.00287465
0.00117858
0.014162
0.0152591
0.0033612
0.00604454
0.0149541
0.00418772
0.0124428
0.00325018
0.00385584
0.00569627
0.00308396
0.0117638
0.000820646
0.00402875
0.00614876
0.00547019
0.0123199
0.00140277
0.00080159
0.00162549
0.00324597
0.00974199
0.0134221
0.00518161
0.0109257
0.00778142
0.00179097
0.016488
0.00145662
0.00448803
0.00564655
0.00260477
0.00148866
0.0106388
0.00167502
0.00120182
0.0029291
0.0112396
0.00264914
0.0147597
0.00982921
0.00564706
0.00159519
0.0012592
0.000330996
0.011999
0.00347562
0.01251
0.00862699
0.0130612
0.0150488
0.0150939
0.00190883
0.00128655
0.00196152
0.00150732
0.0100515
0.00187171
0.0145062
0.0181744
0.0023432
0.00370996
0.0148031
0.0123158
0.0138482
0.00109907
0.00848592
0.00557357
0.00214002
0.00785988
0.00449316
0.0046944
0.00617703
0.00197734
0.0140321
0.00373382
0.00155965
0.0116866
0.00664463
0.00914591
0.00530459
0.0075154
0.0117743
0.011809
0.0141334
0.00435457
0.00116905
0.00423864
0.00401056
0.00160973
0.0147225
0.00860202
0.0137015
0.014399
0.000791687
0.00117355
0.00226839
0.0139124
0.00194659
0.00186323
0.0108665
0.0140595
0.0118313
0.00225351
0.0147488
0.011531
0.0157154
0.00581371
0.00348251
0.000739328
0.000641913
0.0014856
0.00262861
0.00224641
0.00244258
0.00333587
0.0154803
0.0151959
0.00116594
0.00552479
0.0130208
0.00350367
0.00229348
0.00291873
0.00159276
0.0136371
0.00828122
0.00096169
0.000692884
0.0177403
0.00945071
0.0122614
0.00101498
0.00171321
0.00400917
0.00478315
0.010325
0.000888934
0.00175281
0.00214213
0.0169797
0.000179826
0.00795552
0.0135518
0.00628033
0.00382984
0.00649528
0.0111996
0.0130639
0.0019181
0.00282588
0.0010613
0.00714518
0.00169574
0.00172272
0.011632
0.000671085
0.00936363
0.00109106
0.0123208
0.000944556
0.000915019
0.000215998
0.00720731
0.0022735
0.00304676
0.00127682
0.013
0.00230751
0.00204916
0.006253
0.0111146
0.00240475
0.00240764
0.00225598
0.0017783
0.00191933
0.0106564
0.0169431
0.00183719
0.00992193
0.00219745
0.0010988
0.00180534
0.00247838
0.00266644
0.00934711
0.00171485
0.00190995
0.00205663
0.00250738
0.0125672
0.00246077
0.000357562
0.00261119
0.00239263
0.00168631
0.0021388
0.00947758
0.00453324
0.00147139
0.00199127
0.00224287
0.003051
0.000393971
0.000281977
0.0116265
0.00981037
0.00235575
0.00469346
0.0014235
0.000922472
0.000700912
0.00300751
0.000847215
0.000840282
0.00109374
0.00105682
0.00100621
0.00166614
0.017264
0.00237448
0.00206887
0.0151426
0.00345061
0.0113101
0.0133054
0.00173669
0.00275475
0.00125277
0.00108848
0.00488075
0.000989339
0.00466548
0.00107147
0.00122437
0.000583999
0.00180842
0.000656865
0.00429951
0.000326367
0.00242925
0.00282274
0.00179333
0.00186243
0.000722208
0.00124694
0.000933031
0.00117041
0.00152202
0.000654865
0.000819228
0.00168326
0.00171471
0.000569096
0.000267638
0.00139024
0.00161321
0.00106281
0.0007183
)
;

boundaryField
{
    frontAndBack
    {
        type            empty;
    }
    wallOuter
    {
        type            nutkWallFunction;
        Cmu             0.09;
        kappa           0.41;
        E               9.8;
        value           nonuniform List<scalar> 
96
(
0.00010777
8.59256e-05
8.143e-05
0.000195268
0.000197788
0.000194706
0.000106377
9.20938e-05
6.24221e-05
0.000168774
4.90375e-05
0.000142573
7.74293e-05
0.000204265
0.000155418
0.000183549
0.000192657
9.39169e-05
4.00505e-05
0.000120249
4.13181e-05
0.000131688
9.54293e-05
0.000196238
0.000185219
9.54792e-05
0.000105814
0.000101817
8.90083e-05
9.43922e-05
0.000109642
0.000104373
7.22447e-05
8.67363e-05
7.74699e-05
7.81991e-05
8.18468e-05
0.000119796
8.76624e-05
7.65162e-05
7.65441e-05
9.1598e-05
9.86153e-05
9.32375e-05
9.06401e-05
8.89493e-05
8.95472e-05
8.71573e-05
9.2341e-05
9.32285e-05
0.000118854
8.64234e-05
8.53715e-05
3.46393e-05
0.00016593
8.938e-05
0.00013064
9.66085e-05
8.2182e-05
8.63774e-05
0.000205762
2.98063e-05
2.25683e-05
0.000237056
0.000223454
0.000250262
0.000219209
8.99908e-05
0.0002051
0.000193716
0.000189449
0.000248819
0.000222405
0.000212878
0.00020435
0.000214838
2.65344e-05
1.89523e-05
1.77139e-05
2.25439e-05
1.478e-05
1.86623e-05
8.5302e-05
3.88632e-05
7.71368e-05
8.0289e-05
0.000162708
4.10848e-05
0.000212191
0.000211351
8.87102e-05
7.73451e-05
2.0233e-05
0.000217412
0.00012863
2.58819e-05
)
;
    }
    inlet
    {
        type            calculated;
        value           nonuniform 0();
    }
    outlet
    {
        type            calculated;
        value           nonuniform List<scalar> 9(0.0173305 0.0163641 0.00175194 0.0156261 0.011109 0.00655059 0.00210683 0.00330693 0.0106498);
    }
    wallInner
    {
        type            nutkWallFunction;
        Cmu             0.09;
        kappa           0.41;
        E               9.8;
        value           nonuniform List<scalar> 
126
(
0.000194778
0.00012178
0.000161845
5.22778e-05
5.16921e-05
5.0943e-05
2.78021e-05
3.86773e-05
9.68705e-05
6.3938e-05
8.60757e-05
0.000142029
0.000394089
0.000135897
4.64069e-05
0.000101384
0.000169221
0.000102709
6.8447e-05
4.87678e-05
6.69066e-05
0.000123932
0.000188977
8.35896e-05
0.000151385
0.000133265
0.000158819
5.67165e-05
5.61388e-05
4.20178e-05
0.00014748
0.00017949
0.000276487
0.000143433
0.000281734
4.85579e-05
6.70927e-05
0.000148365
0.000126686
5.81748e-05
4.70638e-05
0.000166038
8.01352e-05
6.03737e-05
0.00010492
0.000108306
6.22802e-05
0.000302307
4.53276e-05
0.000155989
0.000172869
5.41809e-05
0.000230673
7.21388e-05
0.000121639
0.000177272
6.17565e-05
0.000204969
0.000173562
0.000126597
0.000117943
4.32273e-05
4.33421e-05
0.000150899
9.82041e-05
0.000107726
0.000138997
0.000150192
8.84659e-05
0.00020959
0.000155944
0.000131599
8.54283e-05
9.30644e-05
0.000132136
0.000120096
8.11202e-05
0.000194748
0.000173958
0.000179463
0.000143456
0.00018405
0.000146442
0.000190027
0.000168009
0.000194851
0.00019258
0.00013592
3.19324e-05
0.000196982
0.000171718
0.000203508
0.000159944
0.000107576
0.000137894
0.000228466
0.000116659
0.000213891
0.000112628
0.000109578
0.000146864
0.000127103
0.000119073
0.000128866
0.000143289
6.99469e-05
7.50354e-05
3.97191e-05
0.00027053
0.000310673
0.000204614
0.000211969
8.70351e-05
0.000111056
0.00013721
0.000175148
7.91151e-05
9.79765e-05
0.000192797
0.000195052
6.83843e-05
3.16631e-05
0.000161884
0.000184955
0.000124281
8.71974e-05
)
;
    }
    procBoundary3to1
    {
        type            processor;
        value           nonuniform List<scalar> 
48
(
0.0117944
0.00481205
0.00626485
0.0101161
0.00371133
0.00364455
0.00481205
0.00990869
0.0142466
0.00106044
0.00106044
0.00114
0.00114
0.00142608
0.00188017
0.00117658
0.00131114
0.00118998
0.00131114
0.00144494
0.0012113
0.00210535
0.00144494
0.00219054
0.00104735
0.00120978
0.00401053
0.00210535
0.00565778
0.00120643
0.00120643
0.00827589
0.00827589
0.0142466
0.0013694
0.00306346
0.0117293
0.00104735
0.0132904
0.00325239
0.00142608
0.0132944
0.0141148
0.00144494
0.00203428
0.00107522
0.00371407
0.00113511
)
;
    }
    procBoundary3to2
    {
        type            processor;
        value           nonuniform List<scalar> 
29
(
0.00148979
0.00148979
0.000372807
0.000411871
0.000725633
0.000511395
0.000321264
0.00121337
0.00231163
0.0018039
0.000859027
0.00101427
0.000895428
0.00168434
0.00161241
0.00117551
0.00194774
0.0023284
0.00163641
0.00194256
0.00187769
0.00194774
0.00024727
0.0023284
0.000979307
0.00103857
0.0023284
0.00166651
0.00166651
)
;
    }
}


// ************************************************************************* //
