/*--------------------------------*- C++ -*----------------------------------*\
| =========                 |                                                 |
| \\      /  F ield         | OpenFOAM: The Open Source CFD Toolbox           |
|  \\    /   O peration     | Version:  v1912                                 |
|   \\  /    A nd           | Website:  www.openfoam.com                      |
|    \\/     M anipulation  |                                                 |
\*---------------------------------------------------------------------------*/
FoamFile
{
    version     2.0;
    format      ascii;
    class       volScalarField;
    location    "0.8";
    object      p;
}
// * * * * * * * * * * * * * * * * * * * * * * * * * * * * * * * * * * * * * //

dimensions      [0 2 -2 0 0 0 0];


internalField   nonuniform List<scalar> 
1431
(
91.4945
92.2757
89.6208
93.2314
87.6472
89.6791
93.2964
38.7038
90.5687
93.3534
44.7752
44.4778
91.3029
84.7401
88.3155
93.3737
86.2935
88.753
88.0819
87.8395
39.8392
84.5869
90.5263
19.562
90.208
91.2943
50.8405
89.432
90.2569
84.3745
87.3017
90.2115
87.5339
85.3901
91.5448
93.7309
89.1688
91.4885
93.343
89.7959
89.5101
89.4016
91.2621
93.3512
87.2986
90.2255
85.9077
55.0245
93.252
91.6209
93.2422
93.4068
93.2556
52.0205
92.866
93.6218
88.7374
47.4963
85.1233
90.0647
89.5372
93.2508
91.7244
91.581
93.3396
93.239
88.6195
91.6486
89.7815
86.704
46.3095
85.127
93.0955
85.5004
85.0557
90.5596
89.5162
91.7001
93.4379
89.7812
85.7957
90.1571
85.3387
86.4152
39.2611
93.3471
93.2205
87.409
51.8279
69.0357
89.4086
88.1183
91.4221
93.4401
92.9926
87.4803
44.1189
85.4298
93.3211
89.0389
93.5709
93.2957
85.1997
90.1756
91.6749
87.2373
90.5273
54.7962
88.8942
84.6584
90.3839
91.2581
89.1366
89.1753
92.5236
89.0656
84.8702
93.1719
93.3772
91.6689
87.8651
87.8013
53.9142
85.714
42.9471
93.5092
89.6559
86.5075
89.6793
93.1178
86.9028
88.3779
93.1198
87.7298
89.1027
91.6418
91.5618
93.2469
49.0335
91.4361
93.3677
86.4441
85.375
90.2021
92.0881
87.4293
91.6797
93.5496
93.4474
90.1117
91.6784
90.4702
89.6983
93.4376
89.7299
91.4353
47.7679
90.0201
77.8884
93.2219
62.4342
91.1012
93.1718
93.2607
53.2953
90.0814
88.8545
92.7569
91.6001
89.5601
61.765
93.3441
89.0106
49.5394
91.5512
47.3286
93.1065
88.4806
93.3819
91.9808
93.3207
93.4049
93.3922
22.8375
89.2488
90.088
50.1309
90.1293
89.0092
50.3584
87.4423
89.0825
89.7316
57.0863
93.3088
86.885
84.183
90.67
89.5841
89.2926
93.0717
93.2188
66.1606
93.1225
91.5215
87.4722
90.0439
89.884
49.0095
88.6504
37.6636
93.152
90.2799
87.4501
41.1171
89.8767
89.6361
89.7846
93.1578
70.4011
89.9239
93.4716
90.8711
93.2773
89.7981
44.4997
67.0484
87.7896
89.7649
68.479
36.0477
87.4212
87.4906
89.743
90.1401
70.7317
90.157
88.1353
87.7066
93.3915
93.153
92.2623
47.3568
88.2611
89.1558
87.0079
88.4003
60.5147
90.2258
91.5189
86.1366
50.4491
93.256
93.0931
87.4674
89.995
93.268
39.7611
77.7776
89.5993
89.84
50.2131
93.282
93.1271
89.9259
74.4359
91.255
58.0631
59.9445
88.2278
89.3399
89.9369
92.788
93.4994
57.651
88.9552
53.5887
83.505
87.5101
90.1742
93.037
89.9831
87.3023
93.3256
93.1178
83.6293
89.7386
82.1081
45.7245
92.0112
89.6533
90.8687
86.5476
92.8258
71.8594
89.5538
49.1655
90.6931
89.548
87.0282
93.3246
91.5573
93.0555
91.579
88.7689
93.254
91.5611
89.3963
89.6305
90.979
83.2848
93.6166
93.1861
56.4972
90.6931
85.0269
91.2518
93.0442
88.9907
31.3527
91.3022
86.6611
89.9985
93.0075
91.6388
89.4688
89.4868
90.1158
55.889
93.1254
86.4139
89.5585
90.4783
84.9496
93.1598
91.4327
90.6682
75.423
91.035
54.9134
91.5977
91.2266
78.1285
89.1155
90.1658
88.0994
92.8013
51.6885
83.7727
92.3303
90.2053
89.4865
93.1726
89.8688
89.7637
93.1564
41.6099
36.663
49.5421
89.551
84.428
89.9633
86.2282
93.1665
89.3133
40.3392
90.2951
10.8036
89.8277
84.7961
55.9018
87.3855
55.577
92.7885
89.9835
48.9576
89.821
93.8187
89.094
45.0882
90.8463
90.2953
93.2121
90.2134
11.5248
90.995
92.6535
90.0797
90.8763
92.8107
93.1707
92.6022
92.6011
93.2229
72.6188
93.4097
91.3863
91.6674
90.0539
90.6361
87.7511
90.0695
80.6338
90.1258
93.6317
91.8838
89.6981
93.2663
93.1287
91.9195
87.3679
91.8787
92.074
90.5941
90.4974
89.7079
90.5974
92.9726
90.3385
92.2687
89.5447
91.0824
93.3217
90.1484
92.4319
87.5309
87.3132
88.7636
89.1916
29.2263
89.4612
89.3659
89.5121
89.078
89.342
89.8275
89.5329
90.3364
90.2221
90.3848
89.1219
47.4363
89.4658
89.1641
89.1336
88.8265
88.7453
88.9288
86.1712
84.7894
85.1479
91.6516
93.2359
88.03
93.1948
93.2736
84.6154
51.7008
87.3878
88.5173
84.4972
91.6751
51.8148
93.2851
88.0767
91.6443
89.2248
51.5465
91.6307
48.7162
93.365
93.3991
88.4251
84.8431
48.404
48.315
91.4588
91.5506
88.6088
93.4448
85.0954
88.6875
47.8214
93.6348
88.8443
85.303
87.166
88.8419
89.5249
91.4027
46.5546
93.556
89.4713
91.3608
86.2879
86.8052
89.3468
44.98
93.5539
88.3488
90.0069
91.3438
87.5887
90.3369
45.2545
49.2292
89.7688
93.6204
93.5378
86.854
91.3387
88.2475
87.1419
89.266
90.1451
93.0627
89.663
91.3314
87.6681
47.6857
86.2543
93.5754
87.4757
93.1837
91.3218
93.2475
44.2693
89.6401
89.1638
93.3436
92.7264
93.6691
91.5765
89.3968
90.7315
89.1137
93.3882
91.7214
91.3857
87.6752
91.6856
90.8331
89.3362
93.6779
88.5183
93.5351
93.148
81.2412
91.5333
90.2119
92.2436
90.5963
89.9067
92.4514
91.6832
88.3254
93.2714
90.2975
86.9722
53.2724
90.185
47.3954
82.169
92.4777
37.5443
92.6645
93.2632
93.2822
90.0604
90.7106
92.6026
69.9343
90.3613
93.6722
93.095
89.5486
93.1698
89.1457
89.884
89.1812
92.3841
76.83
87.1438
89.4411
88.4718
90.2838
88.0637
93.6039
92.9293
86.9477
89.9249
87.2583
93.3016
92.9344
90.1761
91.1623
86.6939
92.4133
88.2697
49.5413
71.1474
91.4917
92.1258
93.4395
84.2364
90.533
20.6827
84.8219
93.5938
89.307
93.2104
92.3
93.0336
90.2198
89.6952
89.7622
44.6647
93.1842
89.2284
92.0095
91.9215
92.2681
93.1935
92.5467
92.1293
86.3684
90.9316
86.2088
81.2507
93.7143
92.0106
93.7154
93.3164
90.4834
92.8309
88.2626
41.252
93.1867
89.2508
92.9788
89.7599
80.7718
93.2405
91.8975
88.1663
91.9858
87.1265
91.4813
35.4082
91.2821
89.7505
89.2229
89.0475
86.465
89.7382
91.5716
90.4762
81.9026
89.0472
55.963
67.2992
91.065
91.3011
92.6317
90.5819
90.2493
88.2576
89.0618
93.5249
90.0357
92.686
92.3066
38.8807
90.7008
89.4218
86.4843
33.7041
84.6716
88.1931
93.2465
93.1531
93.2092
91.3617
42.7034
91.7065
88.9425
90.2007
89.2598
89.4921
93.5221
90.6506
88.4192
89.6192
93.4911
93.311
89.7439
89.5625
86.8222
93.2286
77.8765
92.4368
90.3516
92.1923
93.4069
90.1762
26.9328
89.1882
91.2877
92.7782
91.4297
89.6442
93.0845
86.3916
89.9445
89.4214
90.4864
90.346
89.347
93.4665
89.6898
89.3378
87.3838
49.4379
92.2324
91.6676
92.8279
89.8987
91.0441
56.438
54.7199
91.5737
88.7778
89.1411
93.2714
91.1428
88.8967
90.3914
87.1663
44.5854
93.272
89.3771
89.6951
93.301
88.3822
89.6693
92.2049
84.5694
89.8735
89.6984
93.2906
91.5215
93.4672
93.1002
93.3257
9.61579
89.3406
90.7108
89.0291
89.9487
92.6431
32.941
90.5291
90.5559
93.213
86.9737
90.6801
93.38
93.3177
92.0812
93.6767
90.8815
87.3817
88.9625
90.8472
90.3527
93.1993
93.1327
93.1407
91.1045
87.9574
91.0309
91.5422
92.4963
91.6264
93.4214
50.5658
89.7614
92.8283
88.9459
92.8508
90.2318
87.7197
89.9011
90.8583
89.1194
93.1665
93.3121
87.7758
93.2639
91.5292
89.7108
84.559
87.0216
89.3358
89.8639
17.0766
89.5527
90.9129
92.9362
89.3983
51.7143
93.104
93.1479
44.4516
90.2668
51.6191
89.7062
88.4746
89.8901
89.6666
89.34
86.8799
93.1313
90.9265
93.1003
89.1337
90.3491
86.2211
88.7284
93.4853
90.0005
84.0726
43.766
89.4462
92.2029
52.7997
86.8723
89.2722
92.1034
93.6761
91.9853
91.3258
91.4585
89.4342
92.8588
66.1612
91.4876
53.7636
93.4542
74.9412
89.6779
85.8297
91.7062
93.5476
88.8422
91.729
93.1264
93.9037
89.6632
91.6307
93.4161
91.5432
92.5147
93.0656
90.8047
91.6639
90.5296
93.5274
51.6276
91.833
90.5125
51.3825
90.8149
89.0246
84.7987
89.7728
93.2188
91.7887
91.3391
89.5154
47.0929
93.3678
90.0232
37.298
56.8346
49.3568
36.5692
62.1959
89.9866
89.6157
89.1386
89.3193
56.1511
90.3744
87.8406
89.34
88.6181
87.4075
67.3603
49.0749
87.2454
75.8912
71.6765
87.5384
90.424
90.1161
87.9078
89.7735
89.6208
87.895
89.62
90.3654
75.0201
91.6382
89.112
91.991
84.9566
85.6211
40.2468
89.7712
82.8057
84.408
87.614
93.6847
52.5262
86.7747
86.8044
75.0077
89.5544
90.4921
85.5763
93.1652
50.9087
87.7847
89.7623
91.4801
92.3563
93.6851
93.4905
48.8466
89.3925
84.8318
90.7852
90.2112
92.7914
92.096
57.2009
91.5172
93.3562
89.8201
93.1828
92.6767
90.4025
85.4883
89.2802
93.1392
91.4038
85.0199
88.1667
91.7445
93.3915
46.7593
91.5121
92.9776
89.2558
89.1289
84.9433
93.2273
89.5657
86.7155
93.1777
93.1725
87.2181
41.7424
89.2355
85.4502
88.1586
89.3631
93.2467
27.4888
91.895
89.9179
93.3905
40.9061
91.6334
79.908
93.3263
93.6065
93.2538
86.3585
89.4763
92.6254
87.4392
58.161
36.0448
89.7978
91.5305
93.138
88.3012
85.8347
89.5444
86.8773
86.8562
89.864
89.3368
89.2098
39.2309
89.9798
93.3082
91.6645
86.772
90.0218
87.1117
89.3381
92.2616
92.1962
92.664
89.5757
92.3529
92.3765
27.158
18.8673
93.2559
89.6045
82.5994
93.2155
91.4614
50.3425
85.9769
90.339
87.5932
68.524
48.8608
93.3701
85.4552
89.7665
92.298
80.3647
49.6892
90.0091
91.9527
93.2221
49.9352
93.2709
90.0395
93.1687
7.88555
89.8313
42.1768
57.4223
90.5251
89.2159
91.9747
93.1636
91.3412
93.2775
93.2345
93.2552
92.7237
90.0517
90.6853
89.2671
90.1284
62.7284
91.6818
89.3938
90.5037
53.4806
91.7831
52.654
89.6601
91.1348
54.2929
89.2506
67.8493
64.1172
60.4538
51.2009
51.2187
50.4454
56.8592
51.3061
93.1416
93.2463
93.2339
93.1545
93.1366
93.1423
91.9834
85.9792
89.9611
88.7926
90.3372
86.1727
93.1456
89.1895
91.6577
93.2212
93.1778
93.4763
89.7751
93.2099
93.143
87.4828
86.5323
91.3768
89.2159
90.0819
91.4364
78.6543
93.6909
91.7618
45.6869
90.1573
89.0249
87.7553
91.5757
91.3705
93.2162
34.0186
91.48
90.9601
93.1406
86.4186
93.2999
86.9813
84.5962
88.7966
93.1086
85.6
87.1921
89.5874
90.3907
89.7032
91.4984
86.2263
93.5545
17.4471
91.655
43.1533
8.21682
93.1286
48.5568
85.3249
89.2169
89.3964
43.7985
93.283
92.0957
91.459
72.9898
90.3658
86.5515
89.8791
86.0208
93.5092
90.3762
93.5416
92.802
59.2867
40.2841
17.6682
86.585
88.6022
92.8196
90.2397
93.4731
88.7841
89.0017
85.4674
89.4991
48.9492
91.7906
93.4688
42.0985
92.8394
84.61
90.6522
93.3331
90.3916
81.4098
64.8748
91.665
91.6116
88.0436
90.559
46.4145
89.8919
47.3035
93.3324
87.1285
86.8446
38.882
81.925
90.2179
90.3981
90.7362
93.0838
53.3569
86.8649
89.1563
85.7976
85.7896
87.539
90.6093
93.1239
87.2293
89.4388
53.1898
85.0492
91.4023
91.2315
85.432
93.1316
88.8092
93.1291
88.0046
87.0182
90.69
46.1922
92.204
91.6065
92.957
88.5848
93.0833
86.3539
87.7548
91.3759
76.1808
92.0687
28.8351
89.4923
93.1993
91.2979
62.0692
91.0034
93.1998
93.5425
91.1337
90.8922
92.2486
90.1393
90.5504
95.2081
85.883
92.7813
85.203
93.2172
91.4743
54.7332
90.726
56.9943
90.5551
91.8069
91.8373
92.8513
85.4144
87.3642
89.4736
84.842
93.1703
91.8134
38.3204
91.8068
92.1483
91.6835
88.4121
86.7496
91.5585
89.1019
71.9314
90.5422
89.3261
49.6013
85.6207
92.7465
91.8441
92.7114
89.794
88.7984
89.1673
79.7517
87.5131
86.6978
85.5193
87.4535
90.246
51.2373
92.9693
87.9706
85.0175
91.566
56.9575
87.1404
90.9368
87.6343
54.2125
91.3308
88.9756
91.6507
37.9953
90.9741
90.8741
91.5962
87.914
42.6911
93.2272
52.4701
93.508
93.3742
93.1383
53.7682
93.2623
36.9954
73.4886
91.3915
89.6697
87.461
48.7596
89.3825
17.0856
93.1636
89.3953
93.1058
90.1729
86.6307
64.8206
93.264
92.2912
43.4602
56.8174
88.8445
87.2678
93.2571
50.5896
93.3218
85.89
88.1767
54.7141
93.1962
93.0998
91.3296
89.9867
85.6524
89.6988
86.0012
93.0857
93.4201
58.3305
54.1393
93.3937
90.5654
86.269
91.4798
89.0532
89.7791
84.6234
90.8773
93.0873
88.1942
87.8905
90.0925
64.7915
89.9248
93.222
89.8015
75.4637
93.1058
93.3089
91.0628
85.5391
93.2955
87.0043
88.3837
90.043
93.257
93.1865
61.0701
50.7509
87.0326
93.5391
93.2314
89.3468
91.6073
90.2123
91.6839
91.6075
88.2384
88.297
87.5323
93.1194
58.0659
89.7085
79.7446
91.5589
86.2118
48.0567
92.3025
93.1068
85.3384
89.2328
88.2104
38.7133
91.2728
91.3458
89.3258
92.2866
93.2529
93.3979
93.8691
93.5435
93.5875
21.167
55.9785
85.5963
101.268
85.4786
86.7588
86.6322
92.9188
95.2513
88.8016
89.0743
93.4916
95.431
89.2257
91.7033
86.5472
88.3912
89.0531
87.9024
)
;

boundaryField
{
    frontAndBack
    {
        type            empty;
    }
    wallOuter
    {
        type            zeroGradient;
    }
    inlet
    {
        type            zeroGradient;
    }
    outlet
    {
        type            fixedValue;
        value           uniform 0;
    }
    wallInner
    {
        type            zeroGradient;
    }
    procBoundary3to1
    {
        type            processor;
        value           nonuniform List<scalar> 
48
(
89.5559
89.6912
89.6553
89.283
88.9164
87.8327
89.6912
89.1589
89.1816
87.6893
87.6893
88.8256
88.8256
88.5652
88.0074
89.2347
87.7358
88.8817
87.7358
86.799
89.4521
89.3661
86.799
88.5699
87.3242
87.4308
89.254
89.3661
89.1719
87.8674
87.8674
89.1151
89.1151
89.1816
87.1011
88.8516
89.1236
87.3242
89.5522
89.1854
88.5652
89.1735
89.1708
86.799
87.8167
89.7279
88.6907
89.1893
)
;
    }
    procBoundary3to2
    {
        type            processor;
        value           nonuniform List<scalar> 
29
(
91.5253
91.5253
93.1271
93.2
88.7739
91.5651
93.0465
91.2952
93.1735
93.1899
91.4509
88.4775
91.5205
93.0341
93.069
93.05
93.1671
93.186
91.3541
93.049
93.0558
93.1671
93.1226
93.186
93.0834
93.1423
93.186
87.9708
87.9708
)
;
    }
}


// ************************************************************************* //
