/*--------------------------------*- C++ -*----------------------------------*\
| =========                 |                                                 |
| \\      /  F ield         | OpenFOAM: The Open Source CFD Toolbox           |
|  \\    /   O peration     | Version:  v1912                                 |
|   \\  /    A nd           | Website:  www.openfoam.com                      |
|    \\/     M anipulation  |                                                 |
\*---------------------------------------------------------------------------*/
FoamFile
{
    version     2.0;
    format      ascii;
    class       volScalarField;
    location    "0.35";
    object      k;
}
// * * * * * * * * * * * * * * * * * * * * * * * * * * * * * * * * * * * * * //

dimensions      [0 2 -2 0 0 0 0];


internalField   nonuniform List<scalar> 
1431
(
2.69103
1.73369
0.645762
0.487862
0.143995
0.269277
0.314223
1.6568
1.33956
0.224007
1.57832
1.55362
1.62779
0.27348
0.0983098
0.266571
0.212905
0.410452
0.244013
0.595824
2.60605
0.433436
0.672344
2.32024
1.17806
1.4652
1.21609
0.311113
0.8824
0.526685
0.869666
1.1217
0.852369
0.14567
0.671065
1.14793
2.38641
0.107675
0.754804
0.965159
2.28488
2.50862
1.55053
0.403611
0.189516
0.222213
0.199681
1.07592
0.348561
0.388497
0.983751
0.470596
1.03045
2.44348
1.31309
1.38178
0.0865545
2.06613
0.244597
0.17421
0.155919
0.327753
0.251333
0.128531
0.544496
0.169168
0.481237
0.673753
0.165793
0.333027
1.13195
0.168373
0.337147
0.104188
0.270857
0.141821
0.540364
0.931784
0.201396
0.344392
0.214423
0.381714
1.04119
0.216095
1.04379
0.883881
0.264485
0.106641
1.03416
1.11176
0.274679
0.109516
0.146168
0.254626
0.871195
0.515143
2.08837
1.60269
0.449831
0.547694
1.36809
0.390574
0.257177
0.361737
1.02744
1.02892
1.47812
1.49164
0.421813
0.254755
0.274221
1.63106
0.785065
2.2856
1.43705
0.128089
0.220842
0.41059
0.460116
0.180762
0.392534
0.081673
1.4179
0.292683
0.702076
0.185547
0.593307
0.103725
0.774999
0.442328
0.193235
0.47554
0.644501
0.34407
0.795684
0.553117
1.11909
0.323517
1.11205
0.0880982
0.580432
0.823294
0.230729
0.250073
0.376712
0.844894
0.300107
1.23229
0.231454
0.301026
0.328978
0.190846
1.03408
0.51912
1.42721
0.327158
1.05635
1.309
1.1143
0.615012
1.3792
1.64897
0.347342
0.371535
1.26287
2.57551
2.3273
0.988079
0.221558
1.58702
1.34176
1.20598
0.892844
1.14661
1.68663
1.02215
0.509728
0.212304
0.969207
0.730179
0.196927
0.741662
1.45852
3.73186
0.225888
1.31399
1.30033
1.58262
0.910971
0.98387
0.768508
0.993598
1.05193
1.746
0.430457
1.06579
1.52276
0.48986
0.158782
1.24283
1.61742
0.36163
1.20726
0.263348
1.59115
0.803561
1.20252
0.143267
1.41594
1.20891
0.676398
0.325508
1.43058
1.0623
1.31321
0.684547
1.15193
0.48455
1.29145
1.10056
1.36419
1.52177
0.26959
0.367925
1.50921
1.96797
1.46224
1.61441
1.25899
0.918827
0.926531
0.867181
0.964947
0.999802
1.16928
1.40719
1.3716
1.09664
0.771906
1.69523
0.873232
0.812102
1.64277
0.961988
0.954384
0.932873
1.04717
1.23126
1.44507
0.216193
0.0957095
1.16069
0.581843
0.388824
0.781839
2.06054
0.553929
2.43806
1.47591
1.10902
0.878561
1.10388
1.38104
0.433235
1.64964
1.25987
1.68806
2.3343
1.04088
0.0767174
0.269769
1.2944
1.69036
1.61518
1.32643
0.860126
1.28175
0.812688
0.841444
1.11817
1.16993
2.00056
0.85585
1.33584
1.00892
1.42112
2.15001
1.54197
1.01076
1.7276
0.127145
1.87841
1.65755
1.41967
0.825642
1.2111
1.54772
1.51284
0.689669
0.911699
1.11672
1.2192
1.56323
1.62325
1.02429
0.525905
1.52067
1.04042
2.4266
1.55371
0.842757
0.421157
0.2232
0.934781
1.42787
1.31015
0.526503
1.16558
0.207578
6.38949
1.18928
1.19928
0.431161
1.62061
0.375975
0.671351
0.486902
2.01532
3.06825
0.393649
1.11888
0.239818
1.9256
0.476453
0.74342
1.60397
2.0537
1.4233
0.344656
1.05255
1.08657
1.60112
0.65219
2.25315
0.967677
0.822383
1.82498
1.24242
0.691957
1.54927
0.371891
0.314451
1.47404
0.781392
0.32352
1.6864
0.907022
0.614264
1.05736
2.2318
0.439461
1.18108
1.00228
1.39904
0.212629
0.781416
1.67947
4.6628
1.21475
0.792482
1.41651
0.173342
1.09097
0.950058
2.19551
3.30475
0.98976
1.25652
0.809585
4.02847
1.66451
0.273647
1.77143
0.344161
6.36659
0.668579
0.811836
0.513653
0.358652
0.856003
1.04097
0.91543
0.94729
0.496291
1.45783
1.33545
1.61309
1.66224
1.91688
0.437473
0.670219
2.15025
1.36731
2.00067
1.83002
1.60558
0.244065
0.609986
0.836857
1.53906
0.811088
0.442672
1.46252
1.55318
0.390903
0.355705
0.64731
0.865512
0.330336
1.37849
1.65592
1.61028
1.2727
0.68334
1.29874
0.228188
0.496129
0.518527
0.67284
1.86297
1.40635
1.42028
1.62848
1.50166
1.68448
1.66342
1.5156
1.79032
1.6381
1.77195
0.29961
1.1273
0.301471
0.283237
0.300302
0.215268
0.195818
0.189771
0.313102
0.355016
0.316552
0.518422
0.317456
0.202476
0.272879
0.35145
0.414081
2.06781
0.232856
1.31726
0.38704
0.792482
1.88046
0.360403
1.30486
0.765052
0.304849
1.75854
0.688296
1.64934
0.345096
0.342043
0.296198
0.474679
1.11618
1.11197
0.614032
0.808573
0.209495
0.294686
0.497957
0.243725
1.13335
0.710086
0.347164
0.444347
0.304381
0.313082
1.11615
1.13568
1.15664
0.510744
0.94201
1.16768
0.395718
0.344634
0.806244
1.14889
1.06319
0.301541
1.48631
1.28275
0.809324
0.890085
1.12704
1.14302
0.298379
1.75149
1.88014
0.134281
1.17345
0.814336
0.356504
0.798972
0.927411
0.59405
1.44092
1.28573
0.97021
1.14024
0.185691
1.92429
0.244077
0.461287
1.39546
0.765556
1.08563
0.956253
0.312877
0.462771
1.6032
1.3168
1.52818
1.75896
1.71713
0.554075
1.61292
0.301144
1.45328
0.233771
1.52518
0.960477
2.50373
1.70323
0.615901
1.39719
1.16159
0.375216
1.57003
1.82118
0.720109
0.890585
2.14039
1.05022
0.31868
1.56544
0.805037
1.51189
0.321048
3.20575
1.86404
1.06607
0.979917
1.76446
4.89425
2.04583
1.70558
0.368732
1.46107
1.94629
1.30445
0.772644
1.62711
1.896
1.48668
0.388143
0.629771
0.215617
1.4056
1.18608
1.36516
0.690593
0.207582
0.578186
0.605246
1.29902
0.898588
1.43129
1.67082
0.132988
1.36405
2.30404
1.06329
0.928609
1.56445
1.64132
0.640399
0.756541
1.64151
1.25675
0.490562
1.54829
1.22661
1.41028
0.501874
0.285132
1.12167
0.597493
1.06264
0.249068
0.701997
1.95767
0.986999
1.44933
0.287385
2.11392
1.01085
0.666462
0.982887
0.693063
1.51672
1.3372
1.34934
0.933998
1.75698
0.432363
1.67991
0.104398
0.582421
1.57234
1.61582
1.22373
0.435018
1.61677
1.26215
0.50338
1.4349
1.22662
1.26078
1.5644
2.04815
1.13496
1.18348
1.15897
1.95073
1.76802
0.436793
0.371804
0.737872
0.922719
1.35461
2.1115
0.154292
0.540355
0.267742
0.314208
0.856428
0.515022
0.643206
1.22021
1.43847
1.686
1.54548
1.49258
1.53094
1.30087
0.756962
0.643164
1.10804
0.348051
1.22092
1.09494
0.871674
1.7415
1.18669
0.791234
0.898187
0.466561
0.215415
1.65977
1.8055
1.73758
0.781877
0.857823
0.873927
0.67395
1.43636
0.926117
0.283345
0.278154
1.63395
1.28056
2.46329
0.249321
0.203047
1.85793
0.471277
0.1946
0.181876
0.768804
0.379368
0.573012
1.42859
0.226273
1.65922
0.93738
0.119496
0.424523
1.08177
0.911632
0.400721
1.85365
0.806207
1.43261
0.752507
2.48367
1.52001
0.825996
1.38155
1.80669
2.55578
0.830366
1.14182
1.44419
1.42622
0.655692
1.32019
1.57796
1.44913
1.92294
0.531764
1.31863
0.896066
1.32726
2.30423
1.27445
2.44903
0.523909
0.845398
0.835002
0.612615
0.607429
1.50027
0.209852
1.25829
0.307009
0.407489
0.341522
0.218389
0.371283
1.57666
1.60813
0.753968
0.401129
2.95918
0.18024
2.13171
0.245883
0.254172
1.24552
3.03189
2.8459
1.38798
0.280457
0.19666
1.51335
0.311013
0.335027
1.3245
1.59817
1.55252
0.999451
0.163116
2.38608
2.27095
0.907181
0.167306
1.83626
1.79105
1.05498
0.642402
1.16764
1.3848
0.623778
0.309466
1.0987
0.242863
0.834571
0.933934
0.801876
1.72448
0.53637
1.22855
1.75093
1.11686
0.166156
0.974116
0.885919
0.976863
1.5806
1.0007
0.448058
0.362789
1.19578
1.36172
6.05788
1.07343
0.53724
1.97235
0.237809
5.09661
0.265664
1.43789
1.18879
1.9461
2.36329
1.2622
0.259193
2.05353
1.52977
0.18274
1.19628
1.25178
1.67751
0.339719
0.632266
1.96254
0.820077
0.223729
0.829565
1.84355
0.564212
0.835688
0.964705
0.912064
2.67465
0.28491
1.92389
1.48342
1.75665
1.49626
0.69328
0.715142
1.09775
1.06805
1.37851
1.24098
3.39587
1.62209
1.23152
1.27956
0.808232
1.61011
1.63164
0.533291
0.801619
0.540869
0.262959
0.736972
1.03858
1.69563
0.71856
0.257226
1.03243
1.60525
1.36254
1.51529
0.276573
1.20701
1.10914
1.69644
5.14958
1.83596
0.102103
0.346963
0.276179
0.339526
1.43125
1.07861
1.51219
1.4908
0.890757
1.95058
0.83621
4.67818
2.0549
1.11065
0.656707
0.801851
0.815956
0.799996
0.805343
0.715128
0.778333
0.54808
0.591109
0.567866
0.566667
0.589116
0.770144
0.574096
0.534916
0.547849
0.560339
0.754788
0.73159
0.543967
0.709933
0.701412
0.529009
0.69385
1.49202
0.888051
0.629242
0.835143
0.268443
0.431179
0.183118
1.0168
1.16985
0.783403
0.32506
0.76949
1.92251
2.81895
0.518857
0.306719
1.02132
0.210392
1.48778
0.270294
0.26059
2.76474
0.0933199
0.674553
0.541547
0.759923
0.72717
1.64912
1.02321
0.749522
0.381446
1.56368
2.14301
1.71572
1.58628
0.997136
0.670865
0.538112
0.267941
0.794248
1.32715
0.917603
0.528557
1.16457
0.904024
1.35713
0.380767
0.241378
1.57715
1.22303
1.10472
1.57173
0.931643
0.825515
0.304561
0.418566
1.04624
0.63872
0.194337
0.183521
1.03166
0.884305
0.816238
0.181261
0.281429
0.353498
1.11901
0.316812
6.81549
1.43951
1.10684
0.987572
1.94891
1.639
1.42922
0.371587
0.469449
0.875001
0.140756
0.744141
1.17925
0.936139
3.42705
1.53312
0.655399
1.55497
0.695523
0.98628
0.499415
1.50501
0.811082
0.0958452
1.62785
1.09298
1.02842
0.852178
2.33618
1.00109
0.434327
0.671955
0.168746
1.18117
0.366209
0.810467
1.08055
0.777637
0.39029
0.762195
0.736741
1.21656
3.88651
0.287125
0.844588
0.521653
0.379759
1.71381
2.29544
0.527715
0.302266
0.863394
1.25693
1.08014
1.27879
0.239772
1.2167
0.644102
0.600194
0.963897
2.01778
0.693447
0.190451
0.652617
0.207903
1.96362
1.29539
1.11768
2.30953
1.54637
1.13868
1.93051
0.908976
0.938411
0.394882
0.483996
0.283863
0.943037
0.368227
0.792677
2.1278
0.457845
0.985267
1.91744
1.26515
0.934222
0.716894
1.60253
0.721702
1.23509
0.76501
2.07886
1.65449
0.714293
0.645242
0.633687
0.634732
0.64967
0.760476
0.753979
0.747042
0.693516
0.746696
0.223581
0.230884
0.246772
0.214921
0.203955
0.237866
1.53891
0.169201
1.8887
1.25502
1.93751
0.530558
0.419915
0.893089
0.354369
0.324946
1.09621
0.454746
1.18865
0.508275
0.178425
0.70697
0.0987277
0.813024
1.01467
1.35558
0.720506
0.810637
1.29403
0.696904
5.92457
1.23891
0.375896
0.131288
1.18593
0.923763
1.24179
1.10767
1.09917
1.73242
0.343016
0.157964
0.975996
0.506849
0.398218
0.239187
0.370736
0.320066
0.366609
0.775454
1.25227
2.22929
1.28224
0.528809
1.16007
1.90149
0.252474
1.0222
1.73731
0.643867
1.00656
0.314079
0.288243
0.278366
0.880846
0.277208
0.835118
1.74338
1.74707
1.86572
0.524137
1.12624
0.114811
0.284821
1.90611
1.54723
1.23995
0.829545
0.783009
1.43099
1.38388
0.87114
1.42667
1.11291
0.649945
0.256053
1.37899
0.256065
0.335279
1.448
1.52527
1.36446
0.81292
0.978912
0.333643
1.7796
1.38394
1.66604
1.81827
1.00068
0.7547
0.71885
0.162845
0.504403
1.00973
1.97405
0.738077
0.525499
0.456225
0.308219
1.23758
1.09252
2.62677
1.82546
1.7409
0.407868
3.10791
0.114528
0.240154
0.462936
0.241803
0.448122
1.84598
0.771399
0.867792
1.20038
1.06085
0.226392
1.60815
1.4291
0.484009
0.554014
0.237745
0.173035
0.971435
0.698694
1.7381
0.988135
1.00828
1.61539
0.873083
0.844988
0.577478
0.216584
0.514542
0.781057
0.624525
0.687338
5.47042
1.15102
0.390634
0.653391
0.976369
0.586165
0.278641
1.97527
1.20091
1.28592
1.98588
0.306823
2.73307
0.309978
0.140302
1.24931
0.263771
0.942658
0.507133
1.78224
1.90961
2.16956
0.830787
1.70071
0.492172
0.805519
0.350737
0.35121
1.09703
0.299176
0.881793
0.674228
1.51523
0.626031
0.723472
0.827652
1.0116
0.799276
0.619309
0.641198
0.632147
1.83876
1.78728
1.03572
0.169968
0.825838
1.00288
1.28429
1.92305
1.55516
0.809853
0.521934
1.01592
0.102227
1.42678
0.86169
1.3636
2.57196
1.33576
0.311945
0.426701
1.65943
1.26113
0.800026
1.22437
0.263058
2.87308
1.34169
1.26088
0.861949
4.8858
0.369206
1.74477
0.714048
1.15154
1.00037
0.446331
1.99857
0.917217
0.944899
0.300336
4.33369
0.218422
1.22569
1.12078
1.28144
1.68795
2.38206
1.81914
2.11021
1.00843
0.345078
0.277832
0.582637
1.02955
0.104569
0.963068
0.269509
0.741748
0.780278
3.72968
0.594051
0.174042
0.198376
0.974923
1.16467
0.299532
0.50937
2.86877
0.331235
0.264218
1.13683
0.892659
0.171903
1.1169
0.1029
0.617238
1.15995
1.0263
3.75596
1.04609
0.476848
0.11748
0.641489
0.667568
1.04975
0.258205
1.26287
0.748352
0.867946
0.874527
1.08371
1.08666
1.06052
0.291505
1.21793
0.799976
0.483344
1.07163
1.45786
0.458863
0.884553
0.823522
0.853405
1.19602
0.290839
0.26867
1.04952
1.01813
0.14434
1.35137
0.871745
1.16967
0.867079
1.286
0.76002
0.693591
0.804554
0.673098
0.0993727
0.845062
1.28549
1.17165
0.786786
1.54317
0.197706
1.0667
0.60092
0.724574
0.207261
0.251324
0.782673
1.14052
0.253659
1.01594
0.842155
1.39505
0.478188
1.14448
0.950178
1.81726
0.48375
0.623815
1.38269
1.22881
0.271633
0.0746851
0.101397
0.513531
0.845404
0.165197
0.120509
0.416402
0.988878
1.71651
0.486932
0.814961
0.245016
0.109984
0.404464
0.100653
)
;

boundaryField
{
    frontAndBack
    {
        type            empty;
    }
    wallOuter
    {
        type            kqRWallFunction;
        value           nonuniform List<scalar> 
96
(
0.8824
0.526685
0.515143
0.871674
0.898187
0.857823
0.278154
0.249321
0.203047
0.471277
0.181876
0.379368
0.226273
0.93738
0.424523
0.523909
0.845398
0.612615
0.167306
0.309466
0.166156
0.339719
0.632266
0.564212
0.835688
0.656707
0.801851
0.815956
0.799996
0.805343
0.715128
0.778333
0.54808
0.591109
0.567866
0.566667
0.589116
0.770144
0.574096
0.534916
0.547849
0.560339
0.754788
0.73159
0.543967
0.709933
0.701412
0.529009
0.69385
0.674553
0.917603
0.528557
0.63872
0.183521
0.816238
0.655399
0.852178
0.844588
0.521653
0.527715
0.600194
0.190451
0.207903
1.11768
0.721702
0.76501
0.714293
0.645242
0.633687
0.634732
0.64967
0.760476
0.753979
0.747042
0.693516
0.746696
0.223581
0.230884
0.246772
0.214921
0.203955
0.237866
0.530558
0.178425
0.506849
0.524137
0.738077
0.173035
0.624525
0.632147
0.809853
0.521934
0.218422
1.00843
0.780278
0.198376
)
;
    }
    inlet
    {
        type            fixedValue;
        value           nonuniform 0();
    }
    outlet
    {
        type            zeroGradient;
    }
    wallInner
    {
        type            kqRWallFunction;
        value           nonuniform List<scalar> 
126
(
0.244597
0.17421
0.155919
0.327753
0.251333
0.128531
0.544496
0.169168
0.481237
0.673753
0.165793
0.333027
1.13195
0.168373
0.337147
0.104188
0.270857
0.141821
0.540364
0.931784
0.201396
0.344392
0.214423
0.381714
0.547694
0.128089
0.220842
0.41059
0.460116
0.180762
0.392534
0.081673
1.4179
0.292683
0.702076
0.185547
0.593307
0.193235
0.47554
0.0880982
0.580432
0.230729
0.250073
0.300107
0.301026
0.190846
0.51912
1.26287
0.196927
1.31399
1.30033
0.430457
0.676398
0.0767174
0.841444
1.11817
0.127145
1.54772
1.51284
0.911699
1.2192
0.421157
0.2232
0.934781
0.671351
0.486902
1.11888
1.05255
1.08657
0.614264
1.18108
1.00228
0.609986
0.865512
0.890085
0.927411
0.462771
0.301144
0.960477
0.375216
0.890585
0.321048
1.48668
0.215617
1.67082
2.30404
0.490562
1.34934
0.435018
1.95073
0.154292
1.65922
0.119496
1.24552
0.102103
1.43125
1.22303
0.783009
0.594051
0.174042
0.251324
0.782673
0.253659
0.842155
1.39505
0.478188
0.950178
0.48375
0.623815
1.38269
1.22881
0.271633
0.0746851
0.513531
0.845404
0.165197
0.120509
0.416402
0.988878
1.71651
0.486932
0.814961
0.245016
0.109984
0.404464
0.100653
)
;
    }
    procBoundary3to1
    {
        type            processor;
        value           nonuniform List<scalar> 
48
(
2.53018
2.28217
2.38993
2.74459
1.65732
2.3412
2.28217
0.713202
1.40126
0.177695
0.177695
0.255173
0.255173
1.40321
1.44004
0.293545
0.312692
0.27885
0.312692
0.287389
1.02942
0.890454
0.287389
1.58152
0.177224
0.336387
0.639741
0.890454
0.535851
0.536933
0.536933
0.529258
0.529258
1.40126
0.304273
1.50379
0.901463
0.177224
2.16443
1.36108
1.40321
0.806552
0.845336
0.287389
1.34678
0.949135
1.58022
1.14212
)
;
    }
    procBoundary3to2
    {
        type            processor;
        value           nonuniform List<scalar> 
29
(
0.565356
0.565356
0.112158
0.192063
0.414033
0.493945
0.27134
0.614737
0.313713
0.280782
0.68597
0.639824
0.411348
0.603967
0.396447
0.495198
0.250229
0.289896
0.522888
0.465197
0.394111
0.250229
0.231158
0.289896
0.387166
0.249765
0.289896
1.01257
1.01257
)
;
    }
}


// ************************************************************************* //
