/*--------------------------------*- C++ -*----------------------------------*\
| =========                 |                                                 |
| \\      /  F ield         | OpenFOAM: The Open Source CFD Toolbox           |
|  \\    /   O peration     | Version:  v1912                                 |
|   \\  /    A nd           | Website:  www.openfoam.com                      |
|    \\/     M anipulation  |                                                 |
\*---------------------------------------------------------------------------*/
FoamFile
{
    version     2.0;
    format      ascii;
    class       volScalarField;
    location    "0.16";
    object      k;
}
// * * * * * * * * * * * * * * * * * * * * * * * * * * * * * * * * * * * * * //

dimensions      [0 2 -2 0 0 0 0];


internalField   nonuniform List<scalar> 
1466
(
0.156488
0.130153
0.0909682
0.143912
0.126099
0.113263
0.311683
0.140834
0.152066
0.260433
0.0521175
0.204744
0.0154745
0.0667449
0.0639294
0.104945
0.0270333
0.137641
0.154763
0.0887825
0.0550801
0.188959
0.123159
0.139908
0.0659879
0.0589639
0.0887805
0.189076
0.171049
0.106039
0.123481
0.109774
0.187836
0.102447
0.147067
0.0642473
0.0628089
0.0454598
0.203846
0.178325
0.212731
0.14918
0.138846
0.116357
0.208716
0.155134
0.050169
0.130374
0.141121
0.0535161
0.0868844
0.109919
0.120544
0.0888224
0.178736
0.1211
0.0373391
0.195021
0.0748937
0.129175
0.114025
0.0941555
0.119127
0.102907
0.140781
0.12868
0.118992
0.0573652
0.146441
0.195323
0.0516763
0.124796
0.0408587
0.109128
0.0279118
0.283146
0.109412
0.119281
0.210621
0.118029
0.0453113
0.107146
0.0574597
0.130866
0.0442477
0.0521584
0.044346
0.138462
0.10083
0.155992
0.129333
0.0357792
0.119384
0.140443
0.0813583
0.0489613
0.149328
0.108497
0.16215
0.134302
0.171915
0.192286
0.0993741
0.118181
0.0506364
0.155392
0.0601469
0.0545775
0.134871
0.0702882
0.0531474
0.047463
0.170537
0.0471358
0.0194726
0.443937
0.0712111
0.0699381
0.161484
0.200182
0.0534313
0.127776
0.0457837
0.135384
0.103464
0.129652
0.0636118
0.114194
0.139363
0.0996458
0.101572
0.112308
0.12666
0.133842
0.0591155
0.107893
0.158806
0.0473885
0.193574
0.1125
0.1399
0.0362641
0.154502
0.0958697
0.201267
0.103192
0.104749
0.134256
0.117381
0.0424455
0.150684
0.0726203
0.149277
0.145891
0.114097
0.0682098
0.126635
0.796871
0.074043
0.137817
0.199305
0.136541
0.14273
0.0506775
0.180975
0.101604
0.0887545
0.114361
0.107435
0.135362
0.0481591
0.0519293
0.0669358
0.0988716
0.0715732
0.13857
0.170506
0.132488
0.0679325
0.125059
0.121363
0.0538803
0.115645
0.110029
0.1383
0.0657289
0.0583064
0.406627
0.0628332
0.112348
0.124327
0.107692
0.132451
0.141963
0.0519513
0.119267
0.184935
0.0752986
0.0675318
0.0619738
0.446529
0.0553409
0.0523186
0.112252
0.0734425
0.14787
0.0559326
0.141051
0.065377
0.0592237
0.0754845
0.818901
0.0575775
0.0510441
0.16368
0.0607646
0.0847319
0.0372404
0.0787279
0.117358
0.269172
0.125948
0.0929641
0.0505789
0.0880344
0.0518395
0.0564016
0.0843857
0.0648374
0.110124
0.0507293
0.136022
0.0983715
0.0688733
0.0607451
0.0772305
0.0695321
0.116417
0.0762965
0.0690221
0.129111
0.0856127
0.0361045
0.168919
0.159566
0.0417581
0.0332127
0.0373119
0.041128
0.0403156
0.105566
0.0743181
0.14128
0.120653
0.0967775
0.0763179
0.0575385
0.0811137
0.432313
0.313882
0.0516752
0.0498017
0.0846464
0.135243
0.124713
0.0530408
0.180902
0.243144
0.0541826
0.119448
0.0991182
0.123197
0.0513335
0.0513495
0.0484094
0.0932605
0.121815
0.116399
0.125163
0.153076
0.0772365
0.0424774
0.0387269
0.0555129
0.057582
0.0488471
0.0966133
0.0378452
0.211085
0.11571
0.0522814
0.224709
0.17247
0.315753
0.140222
0.0587698
0.376006
0.477597
0.0659963
0.0567136
0.060436
0.750398
0.0606996
0.153036
0.065346
0.0807968
0.0822992
0.0901011
0.0316765
0.467372
0.124525
0.0710762
0.0553058
0.166937
0.127134
0.052805
0.358152
0.0501804
0.195841
0.0650444
0.052864
0.0952852
0.118605
0.0913226
0.0764457
0.0495597
0.0312306
0.0354429
0.0337176
0.0434844
0.0327976
0.0567297
0.0313554
0.0898445
0.0597357
0.0835431
0.0314995
0.0397882
0.205945
0.0322039
0.0383785
0.0470246
0.0527865
0.0358082
0.0464046
0.0312811
0.0797543
0.0355238
0.0769753
0.234459
0.145218
0.0522833
0.144412
0.0884306
0.0850118
0.054207
0.607319
0.122907
0.432822
0.0700173
0.201538
0.106595
0.0895682
0.0967787
0.121549
0.0400018
0.0324489
0.0316925
0.0404576
0.0497481
0.0306078
0.0339356
0.131027
0.0714366
0.0709501
0.0354839
0.0527628
0.515995
0.0488398
0.040581
0.0479163
0.133944
0.173092
0.0603006
0.106346
0.108053
0.0392717
0.0542903
0.062479
0.0601568
0.0922869
0.0740957
0.085371
0.518395
0.0369061
0.0663096
0.0835642
0.0475135
0.0494208
0.0313873
0.286121
0.0500134
0.0852385
0.0529635
0.186802
0.0630822
0.112184
0.399384
0.0844917
0.0570203
0.0550039
0.0998579
0.0375179
0.124619
0.323529
0.157491
0.112397
0.107381
0.0925926
0.129951
0.122918
0.0414094
0.159072
0.210666
0.134752
0.148962
0.220256
0.176357
0.271104
0.258699
0.136714
0.0542946
0.143045
0.768986
0.225434
0.66462
0.333311
0.132753
0.210222
0.162262
0.572921
0.0595574
0.755556
0.218829
0.171653
0.273731
0.129548
0.12587
0.517893
0.132638
0.454895
0.228769
0.171558
0.118632
0.360781
0.206278
0.138255
0.200703
0.103349
0.168865
0.305701
0.146742
0.135723
0.149925
0.640166
0.191926
0.657713
0.0559136
0.0920151
0.0502323
0.687768
0.219928
0.181441
0.194001
0.115659
0.148416
0.0667212
0.050557
0.117608
0.161856
0.0750506
0.0603029
0.12356
0.0709511
0.113121
0.0622221
0.0771974
0.0726972
0.12531
0.18568
0.117354
0.0578879
0.0850807
0.0602573
0.13553
0.118269
0.177494
0.383621
0.277314
0.403888
0.0599454
0.0900578
0.126634
0.100289
0.0551161
0.0856435
0.182712
0.197439
0.0989062
0.185137
0.117249
0.131418
0.132995
0.206563
0.160297
0.14154
0.0623231
0.0901746
0.143479
0.173546
0.163934
0.392912
0.40534
0.17628
0.148672
0.0829508
0.513497
0.326187
0.0447465
0.0560076
0.0649493
0.087976
0.158151
0.125984
0.214498
0.379167
0.190082
0.579448
0.0526145
0.0924019
0.46661
0.434645
0.14258
0.46025
0.148985
0.161574
0.0417854
0.432181
0.419862
0.0695542
0.0877697
0.045887
0.547227
0.137734
0.0986714
0.160162
0.193108
0.0523033
0.11312
0.1569
0.0481716
0.102925
0.115958
0.405878
0.184766
0.13942
0.0531813
0.072189
0.124335
0.489189
0.0390802
0.191317
0.104983
0.207908
0.109406
0.0877221
0.102511
0.0536934
0.123102
0.0910789
0.109302
0.0563932
0.0934959
0.0848177
0.0492883
0.434232
0.146052
0.0885284
0.531475
0.0786776
0.0913438
0.0995243
0.202394
0.0965848
0.0734921
0.0882886
0.102589
0.148114
0.462989
0.0880662
0.513177
0.0785969
0.0827945
0.0830895
0.053128
0.101522
0.094598
0.0529181
0.27586
0.500263
0.141624
0.260631
0.0834337
0.382257
0.0569769
0.0539792
0.359868
0.0816171
0.205899
0.0827417
0.0710277
0.0537015
0.110976
0.149318
0.080772
0.0906085
0.0685455
0.0780958
0.0554762
0.605666
0.0777654
0.463096
0.101254
0.105068
0.0898248
0.1449
0.0842295
0.510996
0.0825464
0.0814233
0.0574495
0.330587
0.0375263
0.190469
0.051401
0.173403
0.0932416
0.197359
0.327818
0.0594712
0.0693745
0.556468
0.148378
0.235199
0.091512
0.0843802
0.120773
0.0962823
0.0609517
0.094799
0.0995583
0.502867
0.20182
0.101587
0.103166
0.619682
0.0726066
0.0591372
0.557891
0.148312
0.0611249
0.0954119
0.0426879
0.0866836
0.0845399
0.0959287
0.0897771
0.56251
0.0705025
0.10489
0.0905771
0.0646159
0.0299524
0.0866974
0.110705
0.0497801
0.138248
0.0526008
0.049256
0.160428
0.112218
0.0597606
0.19199
0.0843078
0.790596
0.0563435
0.14383
0.0533157
0.124791
0.156392
0.116416
0.0825595
0.144615
0.33454
0.155076
0.128238
0.139428
0.59864
0.108882
0.0861445
0.0716898
0.049891
0.166006
0.0815679
0.0762296
0.118288
0.138112
0.517602
0.0576331
0.122617
0.0870348
0.114646
0.0902651
0.138326
0.305969
0.0524076
0.0889036
0.0733393
0.251708
0.190613
0.0764482
0.143202
0.100199
0.0340093
0.0323549
0.163393
0.0367732
0.0316029
0.054247
0.439598
0.100534
0.0410783
0.0311403
0.0619638
0.107502
0.0582178
0.0388392
0.0876873
0.168411
0.15683
0.085107
0.0902683
0.0563136
0.139255
0.113893
0.158203
0.448259
0.101273
0.110704
0.0524485
0.0712689
0.113129
0.141833
0.102682
0.1104
0.0904421
0.254675
0.0815361
0.0873463
0.0806745
0.101047
0.158388
0.121235
0.0324372
0.151772
0.0663644
0.0682684
0.146743
0.0697377
0.125596
0.243634
0.299147
0.0237482
0.0392339
0.150457
0.112876
0.0888802
0.0481545
0.129023
0.0922867
0.11703
0.0835454
0.0901112
0.116694
0.133188
0.0967187
0.356043
0.0468564
0.178783
0.0694535
0.109914
0.088863
0.0895828
0.0797569
0.105901
0.0477293
0.15832
0.0450064
0.0818689
0.0945761
0.352594
0.0470018
0.0571462
0.176245
0.0980864
0.134955
0.152332
0.0501162
0.146139
0.114804
0.31237
0.0651887
0.0815644
0.15893
0.0298666
0.0321582
0.145066
0.0523651
0.0451777
0.0804694
0.0498094
0.1254
0.0687329
0.0370534
0.0742873
0.0993055
0.0953822
0.14874
0.0569358
0.43415
0.0353581
0.0495785
0.210768
0.0903804
0.0406738
0.166268
0.133793
0.134371
0.0755837
0.163295
0.267108
0.139871
0.0975232
0.21104
0.0270362
0.060918
0.141761
0.0330672
0.0981566
0.062313
0.127614
0.0397028
0.636502
0.141756
0.0827573
0.0823877
0.155948
0.0614016
0.0858867
0.0682847
0.0714304
0.0380049
0.194177
0.103696
0.077424
0.052986
0.103195
0.143219
0.288099
0.0936181
0.109023
0.0894177
0.106508
0.0582047
0.15709
0.0748882
0.147261
0.0883499
0.0792101
0.131401
0.0910045
0.0532166
0.0568621
0.0523013
0.0812861
0.3654
0.0554095
0.0606158
0.170604
0.169694
0.130535
0.0738724
0.124414
0.214042
0.0823671
0.0288033
0.0536982
0.048725
0.146419
0.0871532
0.0717811
0.046421
0.0763581
0.0363544
0.13084
0.035298
0.177039
0.106252
0.150008
0.0777973
0.111098
0.0968647
0.102993
0.770557
0.184748
0.101207
0.0598448
0.0709106
0.111597
0.0922525
0.098474
0.121626
0.107122
0.0799161
0.0349933
0.273864
0.0545062
0.0740918
0.0633707
0.0461964
0.0422386
0.041826
0.0390297
0.10659
0.10686
0.103755
0.100604
0.0492018
0.0972576
0.0960062
0.0495173
0.0479233
0.0445747
0.132188
0.0410427
0.0381939
0.211077
0.0456728
0.188018
0.0269382
0.0952741
0.567504
0.138825
0.0791077
0.157756
0.0487147
0.15903
0.143257
0.0872662
0.0602341
0.0930548
0.0859819
0.0750548
0.0559501
0.19392
0.0953316
0.0844612
0.0752151
0.0939306
0.0925831
0.177221
0.106163
0.336399
0.140373
0.0578599
0.0940075
0.248486
0.0647794
0.0622317
0.216276
0.13609
0.129882
0.0919471
0.0927503
0.180548
0.0520553
0.0786943
0.46536
0.113362
0.287863
0.0916057
0.0914294
0.124107
0.0610037
0.178075
0.0729011
0.0924594
0.197018
0.0727923
0.114921
0.06261
0.0942971
0.0938074
0.134046
0.0533707
0.174443
0.0855435
0.0623028
0.0630697
0.0830435
0.0451404
0.141885
0.125004
0.104643
0.12137
0.199939
0.275603
0.135534
0.131292
0.132858
0.055938
0.0824215
0.190901
0.114244
0.0772598
0.0791559
0.316425
0.0327185
0.0671874
0.146039
0.244092
0.0311086
0.0530808
0.114939
0.114076
0.0887106
0.152743
0.0210461
0.0820097
0.0876135
0.0553237
0.0527481
0.0538581
0.143759
0.0542706
0.136548
0.644096
0.0549385
0.0415487
0.774964
0.341485
0.146754
0.0725492
0.0320862
0.0615701
0.0720817
0.0381519
0.479349
0.185743
0.212581
0.0561102
0.125004
0.0793343
0.0580147
0.446092
0.0490019
0.196411
0.106891
0.0904348
0.092683
0.296787
0.0389549
0.112675
0.195402
0.0992259
0.217783
0.404846
0.216249
0.0864347
0.0527019
0.175243
0.140412
0.0421882
0.369718
0.132256
0.0812868
0.182599
0.0778101
0.174438
0.0504252
0.0878793
0.116998
0.0488038
0.0962327
0.0530836
0.0397901
0.0284945
0.0997101
0.183047
0.0963224
0.0770484
0.0875993
0.0518599
0.126719
0.192051
0.0872589
0.111917
0.13098
0.0656006
0.179936
0.0269993
0.0478522
0.0913589
0.0732766
0.0273518
0.036063
0.193529
0.0502307
0.123111
0.175704
0.0426034
0.456741
0.0523892
0.0740969
0.0398226
0.314017
0.168433
0.0791089
0.516488
0.0533222
0.095585
0.0912832
0.0692778
0.0448071
0.0570681
0.116243
0.0252376
0.141485
0.0801333
0.03023
0.156522
0.0855562
0.0376992
0.0704934
0.0424852
0.194162
0.0464238
0.0483097
0.706372
0.0843347
0.0901652
0.0796293
0.209469
0.123997
0.0965951
0.128832
0.122884
0.109801
0.0802762
0.044802
0.0704696
0.0614214
0.253148
0.0858966
0.0925501
0.111117
0.118177
0.135659
0.117177
0.212352
0.0315829
0.180811
0.125864
0.121619
0.0350195
0.0530323
0.181286
0.137995
0.0826501
0.134342
0.083363
0.0539129
0.0740396
0.0833544
0.0511599
0.464541
0.0936639
0.0767784
0.0477828
0.144227
0.0545468
0.0601985
0.171398
0.0501207
0.0998629
0.111981
0.0393807
0.509275
0.0554703
0.378132
0.0818791
0.0545117
0.0533014
0.147499
0.422251
0.0470944
0.091211
0.079343
0.109743
0.14562
0.291431
0.138607
0.135491
0.0552459
0.0541596
0.143149
0.0745878
0.465423
0.115903
0.116861
0.0506802
0.124553
0.0404576
0.133143
0.0821414
0.150344
0.0664799
0.127697
0.111626
0.0671482
0.298064
0.110667
0.346145
0.509623
0.0744084
0.482243
0.0790969
0.0982187
0.0949777
0.0536594
0.112233
0.294558
0.102468
0.732567
0.104275
0.0741589
0.0590644
0.823631
0.100086
0.057269
0.18271
0.046734
0.0544362
0.166884
0.107612
0.0703278
0.0611595
0.180793
0.106066
0.0487056
0.0389313
0.0778095
0.320863
0.0378717
0.44439
0.12838
0.144299
0.0628604
0.0466669
0.0711552
0.0722404
0.121223
0.13441
0.275013
0.0951003
0.0842657
0.116391
0.107462
0.152905
0.0850469
0.181248
0.458413
0.112596
0.0910698
0.229113
0.168925
0.089719
0.0219717
0.0802445
0.16117
0.0842734
0.687917
0.0322906
0.136665
0.0572993
0.113604
0.10335
0.736124
0.028757
0.0960324
0.201004
0.131623
0.136496
0.090176
0.0503795
0.0804506
0.0981891
0.683883
0.05268
0.259967
0.049292
0.434646
0.115604
0.0506586
0.160258
0.176043
0.0991926
0.220318
0.0623982
0.809343
0.133331
0.299774
0.0477199
0.117165
0.160518
0.0468965
0.0916241
0.0848942
0.0671677
0.128236
0.136051
0.145762
0.0710686
0.0777559
0.0463862
0.0283259
0.0595638
0.053277
0.0889604
0.0816779
0.0860815
0.121772
0.0740271
0.0810655
0.0500064
0.18825
0.182469
0.231715
0.0541672
0.120065
0.0517396
0.0856435
0.0931206
0.0912341
0.0405838
0.143017
0.0682175
0.162869
0.574212
0.0231607
0.047711
0.256725
0.0571548
0.0850142
0.026851
0.0476872
0.0398474
0.0829944
0.102696
0.0936798
0.0395085
0.072716
0.144191
0.0486983
0.185486
0.0848586
0.122146
0.192988
0.0562422
0.159773
0.0407408
0.138588
0.103008
0.148292
0.0517875
0.0337608
0.0947972
0.0987849
0.140601
0.041078
0.189911
0.176016
0.32188
0.053883
0.0938071
0.181398
0.0362943
0.18586
0.141081
0.124962
0.0923512
0.0981874
0.133682
0.0523975
0.130629
0.0880075
0.0454716
0.152081
0.470345
0.103887
0.112167
0.0937148
0.100382
0.104494
0.0434037
0.11091
0.112074
0.0775674
0.0769094
0.0895479
0.134664
0.154721
0.0563724
0.117692
0.131805
0.150123
0.14162
0.100543
0.1173
0.134421
0.133757
0.158202
0.0645502
0.125361
0.116066
0.0878894
0.0531751
0.175987
0.0557861
0.0586749
0.838784
0.0354723
0.183047
0.194349
0.226197
0.102527
0.148255
0.172457
0.0691455
0.193235
0.0812477
0.121585
0.119434
0.194173
0.154663
0.126438
)
;

boundaryField
{
    frontAndBack
    {
        type            empty;
    }
    wallOuter
    {
        type            kqRWallFunction;
        value           nonuniform List<scalar> 
102
(
0.0154745
0.0154745
0.123159
0.0279118
0.0194726
0.0316765
0.0369061
0.0299524
0.0340093
0.0323549
0.0367732
0.0316029
0.0410783
0.0311403
0.0619638
0.107502
0.0388392
0.0902683
0.0712689
0.0815361
0.0324372
0.0237482
0.0392339
0.0694535
0.109914
0.0298666
0.0321582
0.0270362
0.062313
0.0363544
0.035298
0.0461964
0.0422386
0.041826
0.0390297
0.10659
0.10686
0.103755
0.100604
0.0492018
0.0972576
0.0960062
0.0495173
0.0479233
0.0445747
0.0410427
0.0381939
0.0269382
0.0952741
0.0930548
0.0750548
0.0953316
0.0939306
0.0919471
0.0927503
0.0786943
0.0916057
0.0914294
0.0942971
0.0938074
0.114244
0.0327185
0.0311086
0.0210461
0.0542706
0.0320862
0.125004
0.0389549
0.112675
0.0812868
0.0878793
0.116998
0.0284945
0.0997101
0.0963224
0.0872589
0.0269993
0.0273518
0.123111
0.0791089
0.095585
0.0252376
0.0424852
0.0464238
0.123997
0.0704696
0.0925501
0.0350195
0.0833544
0.0745878
0.106066
0.0487056
0.0219717
0.0322906
0.028757
0.090176
0.0468965
0.0710686
0.0283259
0.0231607
0.026851
0.0398474
)
;
    }
    inlet
    {
        type            fixedValue;
        value           nonuniform 0();
    }
    outlet
    {
        type            zeroGradient;
    }
    wallInner
    {
        type            kqRWallFunction;
        value           nonuniform List<scalar> 
138
(
0.0521175
0.0270333
0.171049
0.106039
0.109919
0.120544
0.0888224
0.178736
0.0941555
0.0357792
0.171915
0.118181
0.0457837
0.1399
0.0362641
0.103192
0.104749
0.114361
0.112348
0.124327
0.107692
0.0372404
0.0361045
0.0417581
0.0332127
0.0373119
0.041128
0.0403156
0.124713
0.0424774
0.0387269
0.0378452
0.0913226
0.0764457
0.0495597
0.0312306
0.0354429
0.0337176
0.0434844
0.0327976
0.0567297
0.0313554
0.0898445
0.0597357
0.0835431
0.0314995
0.0397882
0.205945
0.0322039
0.0383785
0.0470246
0.0527865
0.0358082
0.0464046
0.0312811
0.0797543
0.0355238
0.122907
0.0967787
0.121549
0.0400018
0.0324489
0.0316925
0.0404576
0.0497481
0.0306078
0.0339356
0.131027
0.0714366
0.0709501
0.0354839
0.0527628
0.040581
0.0313873
0.286121
0.0375179
0.124619
0.0414094
0.225434
0.572921
0.103349
0.191926
0.0502323
0.0667212
0.050557
0.13553
0.277314
0.403888
0.126634
0.17628
0.148672
0.0447465
0.0417854
0.102511
0.0913438
0.0995243
0.110976
0.105068
0.101587
0.0845399
0.0959287
0.049256
0.049891
0.054247
0.100534
0.121235
0.0922867
0.0477293
0.0470018
0.0501162
0.0370534
0.43415
0.0353581
0.0330672
0.0380049
0.0288033
0.0349933
0.0456728
0.0487147
0.114921
0.125004
0.104643
0.0772598
0.092683
0.132256
0.0478522
0.03023
0.0855562
0.122884
0.0315829
0.14562
0.18586
0.193235
0.0812477
0.119434
0.194173
0.154663
0.126438
)
;
    }
    procBoundary2to0
    {
        type            processor;
        value           nonuniform List<scalar> 
42
(
0.461666
0.461666
0.164406
0.14166
0.456667
0.483926
0.159955
0.159955
0.189375
0.0783896
0.74827
0.74827
0.724161
0.630018
0.517769
0.446247
0.433636
0.0681164
0.10411
0.133839
0.126237
0.0632108
0.0632108
0.161363
0.126237
0.0589419
0.215016
0.0643765
0.215016
0.446902
0.416641
0.0751967
0.085138
0.0908593
0.0970845
0.14166
0.433636
0.106386
0.32244
0.132059
0.132059
0.102833
)
;
    }
    procBoundary2to1
    {
        type            processor;
        value           uniform 0.124578;
    }
    procBoundary2to3
    {
        type            processor;
        value           nonuniform List<scalar> 
29
(
0.136354
0.157818
0.195624
0.173235
0.0716015
0.113807
0.105438
0.117269
0.193459
0.17673
0.113435
0.102573
0.113317
0.226091
0.16805
0.373234
0.348787
0.348787
0.157818
0.226091
0.179815
0.338924
0.122132
0.210933
0.150817
0.302512
0.193459
0.108917
0.102573
)
;
    }
}


// ************************************************************************* //
