/*--------------------------------*- C++ -*----------------------------------*\
| =========                 |                                                 |
| \\      /  F ield         | OpenFOAM: The Open Source CFD Toolbox           |
|  \\    /   O peration     | Version:  v1912                                 |
|   \\  /    A nd           | Website:  www.openfoam.com                      |
|    \\/     M anipulation  |                                                 |
\*---------------------------------------------------------------------------*/
FoamFile
{
    version     2.0;
    format      ascii;
    class       volVectorField;
    location    "0.16";
    object      U;
}
// * * * * * * * * * * * * * * * * * * * * * * * * * * * * * * * * * * * * * //

dimensions      [0 1 -1 0 0 0 0];


internalField   nonuniform List<vector> 
1466
(
(0.0393324 2.33883 0)
(-0.0300036 2.27108 -1.07764e-16)
(0.385763 -0.754287 -1.62316e-16)
(0.0274651 1.94588 1.32655e-16)
(2.05926 0.00223513 -5.15007e-16)
(0.575321 -0.360333 -5.24965e-16)
(-0.504874 0.096064 2.80463e-16)
(-1.18183 -0.143553 4.15147e-16)
(0.460394 2.51946 1.34769e-16)
(0.327109 0.239056 7.85302e-16)
(-0.0294614 -0.0786528 -1.87716e-16)
(3.07863 2.24229 1.07872e-16)
(-0.0276773 -0.0107653 1.11889e-17)
(0.628827 1.49652 -1.16525e-16)
(1.04034 -0.0646211 -2.71297e-18)
(-0.0790817 1.01745 -1.16853e-20)
(0.219934 -0.00532012 7.72138e-17)
(0.0861805 2.18972 -1.26808e-16)
(1.23292 0.824978 -1.62533e-16)
(-0.0636279 1.80027 0)
(0.607204 -0.107727 1.56788e-16)
(3.32636 0.709501 -2.39397e-16)
(3.22709 0.00878851 0)
(0.042613 2.26796 6.58525e-17)
(0.788054 1.31217 -1.73367e-16)
(-0.103004 -0.134113 2.10603e-16)
(-0.0718043 -0.0302833 2.39774e-16)
(2.36229 0.642043 2.46074e-16)
(-1.66849 0.0371735 0)
(-1.36644 0.0846 4.2237e-16)
(0.750612 -0.184311 0)
(-0.126617 -1.03997 8.49794e-16)
(3.59255 0.346245 -2.1123e-16)
(-1.44416 0.50126 -1.01749e-16)
(0.121246 1.88895 0)
(1.05771 -0.138824 2.77551e-17)
(-0.0673411 -0.176397 2.32011e-19)
(0.699624 -0.0302968 0)
(0.764654 -0.187344 -5.81137e-16)
(3.87767 -0.0474044 2.19104e-16)
(3.51308 1.78383 -1.25728e-16)
(1.13834 0.70021 -1.77616e-16)
(0.261349 2.58698 -3.53287e-16)
(-1.03044 0.22944 2.39777e-18)
(3.38615 0.776013 0)
(0.00429336 1.93292 -1.5381e-19)
(0.685292 -0.0466303 -1.84186e-16)
(0.0711032 1.87419 9.06002e-17)
(0.958237 0.664118 -2.51402e-16)
(0.626513 -0.0690095 -8.85068e-17)
(-0.262857 -0.460381 0)
(-0.0797511 0.245729 -3.27979e-16)
(1.88691 -0.256669 3.9744e-16)
(0.0957649 -0.501822 5.02061e-16)
(3.44804 0.0347316 3.27842e-16)
(1.21359 1.94683 -1.11058e-16)
(0.791919 -0.0215522 0)
(0.21912 0.597627 3.1761e-16)
(1.0117 0.184905 1.37275e-17)
(0.989965 1.70349 0)
(-0.0751436 1.01586 -2.41547e-18)
(-1.05961 0.226853 1.09499e-16)
(1.99576 -0.218894 1.27801e-16)
(0.343484 -0.71059 -4.92225e-16)
(-0.146286 2.0877 1.75317e-16)
(0.241742 1.73709 -3.20046e-17)
(1.48059 2.16561 -3.21818e-17)
(0.582261 -0.16212 -2.04034e-16)
(0.0804518 2.19589 -1.17829e-17)
(2.51793 0.752908 0)
(-0.0428895 -0.0791695 0)
(0.0505933 2.29559 -5.29982e-17)
(0.682163 -0.0178625 -5.65352e-16)
(0.071467 2.53179 -1.73838e-16)
(0.614078 -0.00988308 4.02208e-17)
(3.00247 0.0517746 -1.52578e-16)
(0.0282316 2.48368 4.32887e-17)
(0.0739915 2.35088 1.57384e-16)
(-1.23642 0.246459 0)
(0.890971 1.90238 0)
(0.0132012 -0.0816463 -3.95241e-17)
(0.210847 2.37715 1.71936e-16)
(0.897852 -0.122022 0)
(0.818596 0.567499 1.54257e-18)
(0.670407 -0.021993 2.02833e-16)
(0.652743 -0.0353306 -9.99087e-17)
(0.671407 -0.0260739 -2.69143e-16)
(-0.234847 1.7453 1.34301e-16)
(0.456272 2.17272 -3.42017e-17)
(-0.0825805 2.10716 5.78303e-18)
(0.0834201 2.13472 9.46041e-17)
(0.593927 0.00099686 0)
(0.681658 1.8909 -5.82272e-17)
(0.0890031 2.02534 1.76861e-16)
(-0.377048 -0.306151 0)
(0.609814 -0.0466084 -2.14721e-16)
(-0.00372611 1.8051 6.00873e-16)
(1.33455 0.284664 0)
(-0.103811 1.89085 1.43818e-16)
(0.133662 1.96864 -1.50854e-16)
(-0.779953 0.163507 0)
(2.47762 0.984263 -7.68885e-17)
(0.650255 -0.368341 4.1308e-16)
(-0.0910991 1.17968 -1.5861e-16)
(0.758544 -0.0839987 0)
(0.190694 2.33892 -2.49547e-16)
(0.550924 -0.227116 1.84497e-16)
(0.836708 -0.118464 -7.70112e-18)
(-0.0381258 2.34428 4.7601e-17)
(1.01651 0.642617 6.46505e-18)
(0.822174 0.109439 1.93813e-17)
(0.400834 -0.0346635 5.2264e-16)
(-1.1434 -0.460283 -3.126e-16)
(0.686527 -0.0329925 -2.88765e-21)
(-0.00826775 -0.0150688 -2.27267e-17)
(1.57451 1.26901 0)
(0.189087 1.59473 -7.8351e-17)
(0.304622 1.71233 5.40796e-16)
(-0.116916 2.05504 2.99005e-17)
(0.346215 1.4456 -4.02484e-16)
(0.524739 -0.112246 2.01741e-16)
(0.127274 2.44426 0)
(0.0306679 0.521635 -7.89399e-17)
(-0.191971 1.59023 -6.98019e-17)
(0.489788 1.95653 2.74082e-16)
(0.355372 0.541313 -1.25206e-16)
(0.185007 0.298908 2.9153e-17)
(-0.085296 0.97607 0)
(0.570831 1.52668 5.85318e-17)
(0.405865 2.75759 -2.5768e-16)
(0.593095 0.287121 1.20541e-16)
(-0.00923141 2.42189 4.05278e-21)
(0.0841399 1.33212 2.15784e-17)
(1.7978 2.37083 -4.89701e-17)
(-0.17003 -0.152802 -1.15626e-17)
(0.809973 2.04656 1.37442e-16)
(1.35963 0.74918 0)
(0.66502 -0.0145187 0)
(3.69158 0.372038 2.67704e-17)
(-0.00245542 1.57058 8.50407e-17)
(-0.357206 0.238623 -1.0699e-16)
(0.563629 -0.0114478 -1.72756e-16)
(0.50013 1.18846 6.99211e-17)
(0.848722 2.34876 -3.82627e-16)
(3.56006 0.533694 1.0424e-16)
(0.761071 0.846107 0)
(0.164093 0.633607 0)
(-0.158413 1.12128 0)
(1.5516 2.65429 5.59067e-17)
(0.675311 -0.020753 2.66945e-16)
(0.447665 1.05318 -1.44463e-16)
(0.364608 0.370871 4.48788e-18)
(-0.0236552 2.10727 1.07666e-16)
(-0.00344526 2.05071 -1.98997e-17)
(0.171583 2.42539 -1.41895e-16)
(-0.0429188 -0.0505553 -9.72596e-17)
(0.0829532 2.31671 -3.06782e-16)
(0.33716 4.82641 1.20003e-16)
(0.338617 0.0754397 -8.11038e-17)
(-0.163318 1.28937 0)
(2.75932 0.862655 8.93503e-17)
(0.215743 1.82052 -2.22992e-17)
(-0.0698924 1.95182 2.51238e-16)
(0.576263 -0.0722816 1.96487e-16)
(2.1456 1.04766 -4.09955e-18)
(0.764306 2.14169 8.49443e-20)
(0.398786 2.74798 0)
(0.531894 0.6989 9.49807e-17)
(0.0670922 1.50348 4.42429e-18)
(-0.0832565 0.184916 3.93252e-16)
(0.651082 -0.0307927 2.6905e-16)
(0.657118 -0.0352538 2.59616e-16)
(0.244274 0.455753 0)
(1.01856 2.71953 6.99165e-17)
(-0.140707 -0.113392 -8.85748e-16)
(-0.0706176 2.07583 1.61852e-16)
(1.82695 1.05042 1.41294e-16)
(0.732751 1.59682 -2.10096e-17)
(1.09017 0.0061428 -1.36191e-16)
(0.690057 1.75675 2.03805e-17)
(0.0983624 2.40319 -1.68737e-16)
(0.728046 -0.104336 2.22112e-16)
(0.571621 0.348675 -3.02955e-16)
(0.31772 1.91621 -4.6676e-16)
(-0.157354 1.90744 -3.33272e-16)
(0.603782 1.50488 5.41783e-16)
(0.807275 -0.164432 0)
(1.29674 0.57915 0)
(0.963228 -0.180692 -5.19137e-17)
(-0.0943916 1.09194 0)
(-0.119338 1.22331 0)
(0.134324 1.38002 1.17221e-16)
(0.269755 1.87232 1.95421e-17)
(-0.140092 2.0117 -6.94624e-17)
(0.70758 -0.0742766 -4.01178e-21)
(0.051238 2.43488 0)
(3.78859 0.2372 -3.4145e-17)
(1.04085 0.318123 -1.37083e-17)
(1.15464 0.391464 -1.29761e-17)
(1.06173 0.80964 -5.91795e-18)
(-0.343519 0.500455 -9.59353e-17)
(0.337315 -0.0271696 3.43186e-16)
(0.790834 -0.10333 -6.39871e-17)
(0.149208 1.62927 2.33514e-16)
(0.442769 0.549115 0)
(1.06457 0.941641 3.174e-16)
(0.759013 -0.135673 1.67884e-16)
(-0.315693 0.900079 1.34992e-16)
(1.14221 -0.0365029 4.98906e-17)
(0.839139 0.111064 1.10574e-17)
(0.904852 0.231259 5.47127e-17)
(-0.399913 2.68111 1.0065e-18)
(0.329951 -0.00645616 -1.16164e-16)
(0.664753 -0.0288532 -1.40543e-21)
(-0.123364 1.96949 -7.07998e-17)
(0.876189 -0.183138 2.70015e-17)
(-0.388369 0.635578 -7.98425e-17)
(-0.436249 -0.0586513 0)
(0.0649928 1.89505 0)
(0.043435 2.44144 -2.1462e-20)
(0.263228 1.81576 1.48534e-16)
(0.0627531 2.4902 0)
(-0.0359091 1.53212 5.57576e-17)
(0.673715 -0.0420506 4.01021e-17)
(0.788174 2.5832 -3.84983e-17)
(0.667844 -0.0373368 0)
(0.935241 0.933354 7.80881e-17)
(0.213667 1.23021 1.19383e-16)
(0.216868 -0.255131 2.93654e-18)
(0.406548 2.71298 -3.38242e-16)
(0.654074 -0.015406 2.84862e-16)
(-0.300245 1.46003 0)
(0.472432 2.26211 -1.02553e-16)
(0.672298 0.149397 -2.28662e-20)
(0.97029 -0.106448 0)
(0.672819 0.57121 0)
(0.611364 0.132629 0)
(-1.52425 -0.0858698 -5.37336e-16)
(0.562593 0.130231 -1.17082e-16)
(0.831776 1.03485 0)
(0.425779 2.64476 1.36011e-16)
(0.527773 0.137374 3.28826e-16)
(0.619076 0.0120342 -4.03517e-17)
(1.62442 0.782032 -6.91446e-16)
(1.53026 1.09955 0)
(0.062713 -0.143147 -1.90204e-16)
(-0.139382 -0.0455575 -5.93824e-19)
(0.503668 -0.0343371 3.5537e-16)
(-0.363774 -0.133675 0)
(0.253773 -0.106368 -5.95022e-18)
(0.297776 2.50473 -5.65771e-16)
(0.727946 2.86667 -8.06823e-17)
(0.873772 0.769153 -1.21454e-16)
(-0.273569 1.3174 4.33546e-16)
(0.683116 1.918 0)
(0.839003 2.86264 1.36069e-16)
(1.15472 0.451898 -1.22624e-17)
(0.383244 2.75656 -5.84789e-17)
(1.28247 0.521887 1.27019e-16)
(1.46841 0.0626131 -1.06054e-16)
(0.657775 -0.0274867 1.62223e-21)
(0.671627 -0.0317275 2.82413e-16)
(0.831475 3.12236 -7.94836e-19)
(-0.132002 1.40603 -2.29427e-17)
(0.799999 -0.113024 -2.23647e-16)
(1.00267 -0.0563471 -2.7065e-16)
(0.509824 2.26914 9.65804e-17)
(-0.194012 -0.431502 1.74827e-19)
(0.337975 -0.047639 -7.32045e-17)
(0.0373354 2.38893 -4.78448e-17)
(1.36557 2.90742 -7.19926e-17)
(0.129592 2.37972 5.15765e-17)
(0.6444 0.000362948 3.1783e-17)
(0.938563 0.466334 3.02635e-18)
(0.67569 -0.0333943 -4.22428e-16)
(0.968584 0.290875 5.9279e-17)
(-0.0812141 1.01113 1.37223e-16)
(0.80216 1.42346 0)
(-0.122091 0.986583 -5.84922e-18)
(1.27859 1.04843 1.84699e-16)
(0.891474 0.482747 2.7619e-17)
(-0.144788 -0.161967 0)
(0.403958 -0.0671309 -2.45125e-20)
(0.149905 0.170352 5.0922e-18)
(0.296214 -0.134047 -1.0048e-16)
(0.6545 0.0240962 -1.00235e-16)
(0.355992 0.225934 0)
(0.607436 0.00723013 0)
(0.204582 1.72657 2.72891e-16)
(0.0335458 1.5913 1.16712e-16)
(0.663069 -0.0358799 -2.2149e-16)
(0.614542 1.94436 -4.77483e-17)
(0.331063 0.64764 -4.36795e-17)
(2.31425 0.109121 0)
(0.715918 0.684602 -1.73542e-16)
(0.315258 0.00496423 0)
(0.925142 0.255537 8.531e-17)
(1.76796 2.06397 3.73402e-18)
(0.328889 0.020315 0)
(0.259081 0.46272 -2.21431e-16)
(0.202535 -0.375706 -6.52764e-17)
(-0.000991519 4.25896 2.49173e-16)
(0.177743 0.530144 -4.03991e-17)
(0.390216 0.595314 8.06658e-17)
(1.02333 0.0358974 2.52722e-16)
(1.26419 0.0863433 -3.81493e-16)
(0.128875 -0.255446 -1.74097e-16)
(0.628505 0.248647 -1.31264e-16)
(0.114138 0.0707041 5.43854e-18)
(-0.0578427 0.123676 2.99286e-16)
(0.453532 2.73171 2.74724e-16)
(-0.410339 -0.170494 4.12973e-17)
(0.319422 -0.0250268 -1.44656e-16)
(1.69973 3.08303 -1.54655e-16)
(0.705476 0.530863 6.23383e-17)
(0.35749 -0.0353003 -2.6174e-17)
(-0.647395 -0.103836 -5.7757e-19)
(-0.123277 -0.0814863 2.04098e-16)
(3.97095 0.319818 0)
(0.308841 0.216318 -3.91309e-17)
(0.665438 -0.0443076 -3.2439e-17)
(0.913017 2.26985 -1.41778e-16)
(0.525269 0.345065 5.76503e-16)
(1.87714 -0.19302 -1.51359e-16)
(0.720073 -0.171391 1.69302e-16)
(-0.39761 -0.0881175 -1.29093e-16)
(-0.1498 -0.0217157 2.19347e-17)
(0.0878457 -0.0173978 0)
(-0.0345211 -0.0528277 0)
(0.0844774 -0.0885847 -1.62711e-16)
(-0.188078 -0.046686 0)
(0.58639 -0.102667 3.67892e-16)
(-0.100463 -0.0199243 2.08696e-17)
(0.940378 -0.236306 0)
(0.156698 -0.153912 -1.21339e-17)
(1.45406 -0.248781 0)
(0.273704 -0.0165509 -4.94566e-17)
(-0.180234 -0.0973124 -1.30734e-16)
(-1.79606 -0.0177676 -1.25907e-17)
(-0.0419636 -0.0486685 1.68194e-16)
(-0.31199 -0.0370328 0)
(0.49957 -0.0490634 -2.87035e-16)
(-0.763604 -0.0461598 0)
(-0.290978 -0.0362788 0)
(-0.176707 -0.0707279 -1.42097e-16)
(-0.105901 -0.0205767 0)
(-0.728097 -0.187324 -8.11387e-17)
(0.305494 0.00687971 8.97001e-17)
(-0.0348082 -0.360228 1.10147e-16)
(0.382975 2.17323 -2.8108e-16)
(0.905378 0.993747 4.74094e-17)
(0.644443 -0.0272677 5.38991e-16)
(1.10975 1.21534 -4.57292e-17)
(0.773479 0.269625 -4.04299e-16)
(0.685037 0.240515 2.34942e-16)
(0.346777 -0.014119 -4.78305e-18)
(-0.644534 0.909504 -3.33166e-16)
(-0.101659 1.21156 3.4701e-16)
(0.00839206 -0.323186 6.65287e-18)
(0.312871 0.0612032 -2.12653e-16)
(0.100859 1.21089 0)
(1.06302 2.15753 1.47242e-16)
(0.819345 2.30996 1.55413e-16)
(1.38144 -0.187342 -2.49691e-16)
(0.369496 2.89847 2.61636e-17)
(-0.013036 -0.0625428 0)
(-0.209228 -0.0271176 -2.24846e-17)
(-0.0340275 -0.0222847 -1.53011e-17)
(0.399573 0.00370918 1.35043e-16)
(-0.458262 -0.0974791 0)
(-0.0765348 -0.0242156 2.03036e-17)
(0.278789 0.0221991 -9.27556e-17)
(-1.20012 -0.261688 -2.31e-16)
(0.944222 -0.207982 0)
(0.288558 -0.124501 -4.29813e-16)
(-0.10431 -0.0687519 0)
(-0.604325 -0.0827401 8.6756e-17)
(0.903814 4.93548 -5.55296e-18)
(0.670061 -0.0260587 3.72973e-16)
(-0.0208746 -0.155166 -2.21461e-16)
(0.659776 0.00737279 2.68999e-17)
(0.907334 3.08333 -1.81897e-17)
(0.506957 1.05913 -7.09553e-18)
(-0.284596 -0.128111 -8.69086e-17)
(0.570446 2.74386 -1.64217e-17)
(0.304912 0.258502 4.28004e-16)
(0.675909 -0.0173651 9.88314e-17)
(0.314823 -0.0535874 0)
(0.574573 0.0595012 0)
(0.297609 0.0453742 0)
(0.339579 0.234487 3.5551e-16)
(0.391211 2.82856 0)
(0.666831 2.43593 9.5752e-18)
(2.04584 3.11543 5.02956e-17)
(0.264514 0.0872371 -4.26951e-17)
(1.18667 0.144145 -7.80602e-17)
(0.758707 2.39314 1.3492e-18)
(-0.100915 -0.0507633 -1.42665e-16)
(0.736562 -0.066256 -9.59833e-17)
(0.280864 -0.00902507 5.26709e-17)
(-1.62033 0.281588 3.13962e-17)
(-0.0442957 -0.0752365 -4.27656e-18)
(0.674874 2.3204 -1.34953e-16)
(0.629076 -0.0129674 -2.65267e-17)
(3.92194 0.975179 0)
(0.2888 -0.199912 2.98907e-16)
(0.796351 2.22643 -1.08157e-16)
(0.805783 0.00303181 -2.81082e-16)
(0.591219 -0.49257 -9.34273e-17)
(-0.242921 -0.339276 -1.08504e-16)
(0.306742 -0.0867421 2.3143e-17)
(0.575788 2.2018 -2.92449e-16)
(0.300025 -0.254829 5.67807e-17)
(0.346906 3.57628 2.60558e-17)
(1.13817 2.89408 -3.61073e-17)
(0.479625 0.914048 1.39862e-16)
(0.822845 2.32089 -2.74382e-17)
(0.582163 2.58338 -2.59701e-19)
(0.356211 0.202025 0)
(0.392626 0.489085 0)
(0.601465 2.42046 5.59116e-16)
(0.125735 -0.127844 9.05008e-17)
(3.16953 1.38559 -1.03195e-16)
(1.97886 0.909444 4.47027e-16)
(2.59898 1.68253 -2.34647e-16)
(1.89958 1.8617 5.74647e-16)
(2.5232 0.56401 -1.16944e-16)
(3.09044 0.927707 -2.93418e-16)
(0.865531 0.765423 -2.6824e-16)
(0.408438 0.690432 -2.91513e-16)
(-0.0784666 -0.667573 -2.09429e-17)
(0.341054 -0.0794961 -4.60819e-17)
(0.743185 2.02301 3.27687e-17)
(1.02813 4.41799 -1.23749e-18)
(0.441614 -0.437267 -1.25176e-16)
(1.63244 4.63957 -1.13874e-16)
(1.08238 2.98126 2.29411e-16)
(-0.793325 -0.136938 2.37584e-16)
(0.134016 1.12561 4.47493e-16)
(0.286546 2.04267 -1.65543e-16)
(0.280305 2.37828 -4.13421e-17)
(0.363645 0.0889442 0)
(0.508921 3.50421 2.76825e-16)
(0.180668 0.950336 4.33227e-17)
(0.285939 1.83122 -2.24628e-16)
(0.841261 2.86578 -2.11333e-16)
(0.354884 2.57694 0)
(0.392719 2.73396 2.71816e-16)
(1.70978 3.68855 0)
(0.503757 2.34841 5.81845e-17)
(1.37174 3.08458 1.61082e-16)
(0.772963 2.85582 0)
(0.116285 0.437064 -5.20539e-17)
(0.694867 2.45493 -2.87593e-16)
(1.01589 2.95834 -7.00345e-17)
(0.0169156 0.591449 -3.35977e-16)
(0.423541 2.73787 -1.88591e-20)
(0.60729 2.78625 0)
(0.0479272 0.0712231 0)
(0.404118 1.93424 -1.01958e-16)
(0.785594 2.76956 1.49907e-16)
(0.729228 2.08997 2.60544e-18)
(0.698768 2.24592 2.66389e-16)
(0.502542 2.13667 3.09899e-16)
(0.597164 3.19397 -5.29592e-17)
(0.0972429 1.21586 0)
(1.54313 4.14892 1.3059e-16)
(0.348089 -0.128076 -1.22905e-17)
(-0.0417394 -0.688344 0)
(0.0366171 -0.140106 1.22104e-16)
(1.09811 3.8763 2.68983e-17)
(0.164284 1.05099 -3.3334e-17)
(0.396841 1.7695 -2.32283e-16)
(0.0933143 0.508046 6.94674e-17)
(-0.674885 -1.03418 -1.04373e-15)
(0.11797 0.13138 -7.70512e-16)
(0.0807903 0.0314533 0)
(0.0059923 -0.0588285 -5.12089e-17)
(0.690516 0.865611 -1.1756e-16)
(0.318666 -0.206767 3.03438e-16)
(-0.110299 -0.604941 -5.19896e-17)
(0.363382 -0.198946 -5.64614e-17)
(-0.230271 -0.543465 5.59097e-16)
(0.320733 -0.303348 -1.71967e-16)
(0.0729247 0.733928 0)
(-0.203979 -0.435278 1.3576e-16)
(0.419168 -0.384158 -5.51453e-16)
(-0.00865156 -0.332972 6.83564e-17)
(-0.950525 -0.40998 -2.46314e-16)
(4.0387 0.205298 -3.39206e-17)
(-0.271242 1.19437 -1.66574e-16)
(-0.196754 -0.311293 -9.50803e-17)
(0.312189 -0.551884 9.3748e-17)
(-0.0199878 -0.19884 -4.74093e-17)
(0.503991 2.00748 0)
(0.318351 1.3264 1.54808e-16)
(-0.277837 -0.162848 1.14358e-18)
(0.857869 2.83864 1.20955e-16)
(0.166938 1.54167 -1.22611e-17)
(0.247602 1.94958 1.04774e-17)
(-0.193165 -0.28004 2.02115e-16)
(0.639182 -0.637203 1.15702e-17)
(0.338002 2.41395 4.13662e-17)
(0.466714 2.46242 -4.23511e-17)
(-0.0427838 -0.135243 4.95307e-17)
(0.779812 2.28793 -1.05057e-16)
(4.15823 0.290023 2.2645e-16)
(0.290136 1.54587 -1.82045e-17)
(0.497966 2.64452 -3.40642e-16)
(0.287933 1.67816 -9.46934e-18)
(0.364497 2.63553 -3.42864e-16)
(0.0388349 1.37364 0)
(0.346607 2.42657 2.29195e-16)
(0.289357 1.42561 6.84774e-17)
(0.114544 0.365211 -6.50241e-18)
(0.364797 2.26313 -7.23412e-17)
(-0.189131 -0.289717 2.908e-18)
(0.279884 -0.650172 -9.02961e-17)
(0.593634 2.1953 -4.37133e-16)
(0.469737 1.83539 -1.6181e-16)
(0.573389 1.91447 7.51217e-16)
(1.43882 2.94482 4.0382e-17)
(0.454726 2.42301 1.15182e-18)
(0.357448 0.316141 3.22826e-16)
(0.186158 0.842994 0)
(0.238635 0.0364267 2.87504e-16)
(0.550435 2.80235 0)
(0.352805 2.10387 8.00205e-17)
(-0.0163671 -0.303505 9.05333e-17)
(-0.0897283 -0.138068 -5.30026e-17)
(0.174611 -0.210827 3.66152e-16)
(0.789998 2.31852 -3.97855e-17)
(0.397464 2.06274 -5.63648e-17)
(0.481519 2.44897 1.16039e-16)
(0.186882 0.848226 0)
(0.626001 2.57586 0)
(2.62822 1.34383 1.43051e-16)
(0.96142 3.35324 -2.59747e-17)
(0.64141 -0.0456277 -4.48787e-17)
(-0.00257223 -0.227498 -4.62194e-16)
(0.783037 2.89599 3.41801e-17)
(1.26759 3.17862 3.51007e-17)
(0.373745 2.59999 2.21092e-16)
(1.0724 3.12661 -1.03251e-16)
(0.386182 2.15617 9.47066e-17)
(0.0683513 0.264807 -5.28299e-17)
(-0.400936 -0.049407 0)
(1.73924 2.72358 0)
(1.37385 3.13434 0)
(-0.171642 -0.349222 1.04585e-16)
(0.699579 -0.658994 2.54544e-16)
(0.820344 -0.0763075 -9.01815e-18)
(1.3298 3.49721 5.80628e-17)
(0.67833 1.81644 7.09672e-17)
(0.761754 2.21131 -1.14182e-16)
(0.456224 2.70484 0)
(-0.551922 -0.522763 -1.40942e-16)
(0.377292 -0.0639742 -6.06503e-17)
(0.815559 2.39312 -1.18447e-16)
(0.317873 2.30934 -5.99253e-17)
(0.256425 -0.0444337 5.44377e-16)
(0.152537 -0.287253 1.33585e-17)
(0.705458 2.00802 7.54251e-17)
(1.61279 2.37207 0)
(4.07171 0.571044 -3.58997e-16)
(0.807125 1.41824 -8.43925e-17)
(0.672541 -0.0591803 0)
(0.517837 0.741013 4.62715e-17)
(0.435201 2.46211 -1.04501e-17)
(1.99172 2.66466 1.56383e-17)
(0.974899 -0.0411 0)
(0.0378362 0.790485 0)
(0.443102 2.63916 9.10155e-17)
(3.18724 0.962304 1.58373e-16)
(-0.469154 0.578707 -7.13823e-17)
(0.482364 2.73857 1.11795e-16)
(0.218571 3.11141 1.03097e-16)
(-0.0579241 -0.110862 0)
(0.404131 2.50735 -1.16408e-16)
(0.441269 2.72737 9.32257e-17)
(0.357897 -0.00439947 -1.09392e-16)
(0.924774 0.0643055 9.13946e-17)
(0.906485 2.46118 0)
(0.754555 2.34546 2.10681e-16)
(0.705202 -0.0493815 0)
(0.549382 2.50585 1.41106e-18)
(0.0304786 2.04516 -1.77469e-16)
(-0.169127 -0.551917 8.90468e-17)
(2.147 2.98366 0)
(0.353292 2.8019 9.50027e-17)
(0.702099 0.275977 -2.08417e-17)
(1.50463 0.300618 1.53871e-16)
(3.95863 0.488838 3.18314e-16)
(0.0819676 -0.399237 0)
(-0.217698 -0.339669 0)
(0.230103 -0.640177 -8.09903e-17)
(1.23512 2.40645 -6.5913e-17)
(0.439054 0.963288 -1.1068e-17)
(1.76992 3.04002 0)
(0.814869 2.33106 -1.40613e-16)
(1.90146 3.18609 1.02664e-16)
(-0.220217 -0.504804 -1.85625e-16)
(0.727451 -0.520815 -3.3405e-16)
(-0.389034 0.317376 3.8842e-16)
(-0.078977 -0.103199 2.3373e-16)
(1.38884 3.33715 1.94587e-16)
(0.930264 2.54457 0)
(0.289227 -0.0511475 -1.76174e-16)
(0.956263 2.82205 -2.08558e-19)
(1.93132 2.02621 3.26006e-16)
(0.558772 1.38503 -1.05929e-17)
(0.481332 1.23793 7.50649e-17)
(0.3991 2.77865 2.31372e-16)
(1.16357 0.197569 -3.60155e-16)
(0.129873 0.38671 0)
(-0.0732367 -0.109405 -2.19208e-16)
(1.40598 2.7346 -7.65762e-18)
(0.172239 1.6895 -4.82848e-16)
(0.0695192 1.23167 -2.30711e-19)
(-0.354015 -0.0964166 -1.9122e-16)
(0.672153 0.222139 -1.87892e-16)
(0.681471 -0.0830236 -1.50121e-16)
(0.11273 2.47429 -3.00428e-19)
(0.706881 0.88158 0)
(-0.270118 -0.378025 0)
(0.547652 2.70206 -1.17948e-16)
(0.786394 0.171555 -1.03743e-16)
(0.758198 0.310913 -5.57704e-17)
(0.691892 -0.119831 -9.53466e-17)
(1.90493 3.91145 -7.53894e-17)
(0.66771 3.02699 0)
(1.82179 2.17157 -1.37008e-17)
(-0.233105 -0.452055 -2.22171e-17)
(1.13595 0.251949 2.11547e-17)
(0.989029 2.48022 6.21928e-17)
(0.591335 1.24299 2.24329e-17)
(0.830791 2.45117 0)
(1.51787 3.40537 5.53016e-18)
(-0.321284 -0.428706 -8.54647e-17)
(0.185943 -0.464642 8.29488e-17)
(0.715166 -0.163727 0)
(0.498374 2.34861 -5.72568e-20)
(0.843104 -0.0293978 -6.84751e-17)
(0.173075 1.47508 -2.15635e-16)
(-0.0180781 -0.117079 4.14037e-17)
(2.25993 1.44576 0)
(-0.555508 -0.176287 -3.66311e-16)
(0.309905 2.10041 -2.8708e-16)
(1.14998 1.79274 1.51099e-16)
(0.754893 -0.209246 0)
(0.646608 0.220881 -4.50913e-17)
(2.11562 3.54483 0)
(0.659929 1.09731 0)
(0.624918 2.69727 0)
(0.355196 0.187753 -8.06376e-17)
(0.452734 3.33133 2.01807e-16)
(0.319669 2.70335 8.88924e-17)
(0.815131 2.1246 8.21258e-16)
(0.815324 -0.247188 -5.07523e-17)
(-0.595667 -0.264684 -2.83657e-18)
(-0.0515373 0.992363 4.12126e-21)
(1.64572 3.3084 -4.55914e-18)
(2.94588 1.16884 -1.54935e-16)
(0.179723 2.76981 1.06218e-16)
(0.365622 2.759 1.02412e-16)
(1.61874 3.78794 -6.42031e-17)
(0.509068 2.86603 1.30335e-16)
(0.539239 -0.0194501 -4.29573e-16)
(2.03472 3.53513 0)
(0.575847 0.570171 -8.17497e-18)
(0.896641 -0.262092 3.75268e-17)
(-0.430625 0.575357 9.13518e-17)
(0.731325 0.0690751 1.00742e-16)
(-0.628747 0.143365 1.56145e-16)
(0.986446 -0.0245715 -1.96244e-16)
(1.93655 -0.0244719 -8.81995e-19)
(0.246725 2.8285 9.70691e-20)
(1.79936 3.50068 0)
(-0.3042 -0.0608444 0)
(0.161755 0.0162014 4.72001e-17)
(-0.591274 0.0651623 9.81387e-21)
(0.114813 0.316093 1.95153e-16)
(0.609266 -0.0156293 0)
(-0.237436 0.0022227 1.44195e-16)
(0.839348 0.414093 0)
(-0.0864513 -0.0626021 0)
(-0.251763 1.18025 7.16425e-17)
(0.300407 -0.0321383 -1.70972e-16)
(-0.679773 0.0312255 -4.59609e-17)
(-0.13596 1.77821 -3.58272e-17)
(0.260693 2.35019 6.97869e-17)
(0.992449 -0.227381 -1.23785e-17)
(0.086555 0.995127 2.84052e-16)
(0.340794 0.14958 1.31279e-16)
(0.779873 4.6799 -1.11623e-16)
(1.14951 0.121359 3.84487e-17)
(1.34039 1.35953 8.42191e-17)
(0.604612 -0.029944 -1.87591e-16)
(0.469118 0.277762 9.33729e-17)
(0.580893 1.39016 -1.98758e-16)
(0.379909 2.59977 2.02578e-16)
(-0.112948 0.342081 -1.75031e-16)
(0.876115 1.21289 8.66671e-17)
(0.686919 2.62086 1.33111e-19)
(0.42159 0.780112 1.27046e-16)
(-0.00112816 2.49819 -2.34381e-17)
(0.724732 1.92967 0)
(1.95526 4.14003 0)
(0.409362 2.63934 -2.44292e-16)
(-0.45265 -0.342639 8.73045e-17)
(0.15172 -0.124097 -1.88917e-16)
(-0.824702 0.0242906 1.05514e-17)
(3.68888 0.150649 1.77553e-17)
(-0.241819 -0.500884 0)
(0.714989 -0.200526 1.79839e-16)
(0.0216552 2.35757 0)
(1.07461 1.46942 0)
(2.09281 2.53551 -9.16654e-17)
(1.08618 -0.108206 0)
(-0.0644893 0.145209 -4.76264e-16)
(0.92897 2.33326 4.0678e-16)
(0.796386 2.46606 7.72286e-17)
(-0.0412426 -0.573557 -8.60799e-17)
(0.613029 1.67054 -7.44215e-17)
(1.14577 2.75537 -1.54847e-16)
(0.657113 -0.0349717 -2.53256e-16)
(0.91263 2.40025 1.49926e-16)
(0.776262 0.785897 -1.37315e-17)
(0.283186 1.89739 -2.64722e-16)
(3.32455 0.417489 -8.31829e-17)
(0.368397 2.78241 6.14639e-17)
(0.0495772 2.10392 0)
(0.32491 0.277772 -2.53099e-16)
(0.687468 0.0505473 9.529e-18)
(0.630698 0.0506496 -3.6077e-17)
(0.574608 2.74088 2.07789e-20)
(0.769603 0.0548068 -9.6888e-18)
(0.594467 0.0462061 0)
(-0.331498 -0.100195 -2.79329e-16)
(1.0156 3.41961 0)
(1.43597 0.0546775 3.48036e-16)
(0.872876 0.0601963 -7.67995e-17)
(0.514797 0.024271 0)
(0.0961873 0.602148 7.50414e-16)
(-0.0567653 1.42603 1.51558e-16)
(0.289845 0.0194455 -3.32897e-16)
(0.592099 0.0388824 -4.08309e-16)
(0.299369 0.533597 2.62022e-17)
(0.0471324 1.1619 0)
(1.91372 1.46578 2.0927e-16)
(-0.681823 0.356602 7.85193e-17)
(2.08241 0.0607146 1.2163e-16)
(-0.136851 -0.02861 1.52192e-16)
(0.3592 0.577394 4.87806e-17)
(0.752157 2.11484 3.44823e-17)
(-0.0687425 1.84425 -7.77433e-21)
(0.767325 0.3167 -1.75953e-18)
(0.404628 2.73728 0)
(-0.428069 0.793696 4.4372e-17)
(0.472809 0.379473 0)
(1.57651 0.0805105 -5.35189e-19)
(0.607522 0.573112 -4.87086e-20)
(0.433418 0.366008 5.13027e-17)
(0.154827 0.605918 -1.30943e-16)
(1.27126 0.792768 0)
(0.411477 2.78422 -6.27753e-17)
(0.583939 1.05973 -3.06019e-16)
(1.8187 0.0723727 -2.52956e-16)
(-0.577099 0.495062 0)
(-0.70608 -0.102635 -3.29748e-20)
(1.40475 2.51799 -1.39394e-16)
(1.08339 -0.0660333 5.05529e-16)
(1.72856 -0.084061 4.81926e-16)
(0.581475 -0.00603531 -4.4797e-16)
(0.543818 0.746477 -1.99919e-17)
(0.505868 -0.0605295 1.95732e-16)
(0.308236 0.628556 -3.10763e-17)
(1.60882 1.43741 -1.52896e-16)
(0.484413 0.223528 -2.11953e-20)
(0.415904 1.7394 1.06745e-16)
(0.265407 -0.246594 8.79514e-16)
(0.504762 2.3483 1.10282e-20)
(0.00197312 0.0363347 0)
(0.442343 0.0874721 8.66604e-17)
(0.481753 0.866378 1.39827e-20)
(0.698641 0.418077 -9.91085e-17)
(-0.43904 -0.414003 -8.66335e-17)
(0.633116 -0.0324395 4.29817e-17)
(-0.0378794 0.580573 -3.11342e-16)
(-0.000821897 1.54844 1.06453e-16)
(0.0148973 1.23089 -7.72439e-17)
(1.15423 0.543429 1.41157e-16)
(-0.0580396 0.31768 2.11937e-16)
(0.301117 1.70092 2.6938e-16)
(-0.144773 1.25872 -2.02059e-16)
(0.315637 2.70013 -3.79987e-16)
(1.11937 -0.0639729 -1.25476e-18)
(0.28006 -0.0339859 8.57121e-20)
(2.69147 1.5461 2.09845e-16)
(0.12493 0.944638 -2.49261e-16)
(-0.0489188 1.64172 0)
(0.849325 2.35293 2.3836e-16)
(-0.26646 -0.437011 -9.55666e-17)
(-0.575264 -0.185024 3.85039e-17)
(-0.320055 0.951553 2.38336e-17)
(-0.564871 0.105589 4.18433e-17)
(0.341263 2.39771 1.18666e-16)
(0.755306 -0.0496574 -1.19614e-16)
(-0.577407 -0.270387 8.79062e-17)
(1.07662 3.21943 2.04411e-16)
(0.16457 -0.359558 -4.726e-16)
(-0.714399 0.12356 -2.06045e-17)
(0.448059 -0.163137 -3.60787e-16)
(0.288001 2.11408 0)
(-0.0412656 1.55084 -6.37381e-17)
(0.169232 2.04775 2.79873e-20)
(0.0887839 2.16847 -5.60362e-17)
(-0.646183 -0.0269886 -4.07994e-17)
(-0.0193332 1.569 -2.46423e-16)
(0.301558 2.68525 5.84669e-17)
(-0.26268 -0.335748 -2.30942e-16)
(-0.306201 0.35387 -2.85447e-18)
(0.803709 2.7716 -6.43616e-17)
(0.631643 1.50813 7.61751e-17)
(0.694966 -0.00625441 0)
(0.740802 -0.0351265 0)
(0.0141961 2.28928 -3.53671e-18)
(0.646431 -0.0398008 -4.1761e-16)
(0.669961 -0.0999811 2.34638e-16)
(0.221768 -0.541726 0)
(0.895572 0.0790087 0)
(0.356394 0.453837 -1.87113e-17)
(-0.613293 0.338827 -8.53712e-17)
(0.229179 -0.0415439 1.44288e-16)
(-0.149685 -0.265459 1.56629e-16)
(-0.358988 0.528789 9.73417e-17)
(0.866408 3.84868 -6.05577e-16)
(0.389432 0.48342 0)
(0.61901 0.901173 -1.00221e-16)
(-0.639919 1.15918 -6.3117e-17)
(0.284123 -0.00285672 0)
(0.609579 -0.104196 -1.70589e-16)
(3.85971 0.771711 -1.73039e-16)
(0.408222 2.76146 5.73351e-16)
(0.716371 0.0525988 -1.11798e-16)
(0.656269 1.73005 -1.91694e-16)
(1.31111 1.66341 0)
(1.5975 1.80407 0)
(0.565037 2.8106 1.3092e-16)
(0.657604 1.60747 -6.75255e-17)
(0.578072 2.52298 1.51378e-16)
(0.253293 0.0664499 0)
(0.79527 2.27608 7.24494e-17)
(0.453246 2.43447 1.49742e-19)
(0.632013 -0.00627435 0)
(-0.108304 -0.196529 0)
(0.416668 0.571548 5.07964e-17)
(0.150646 0.000503476 0)
(-0.436895 0.333212 2.78109e-17)
(1.35517 0.0821398 1.38452e-16)
(0.214721 2.6356 1.52711e-16)
(0.709049 0.0356179 3.5993e-16)
(0.912493 5.9912 -6.12874e-17)
(-0.0451185 2.04146 -1.72734e-16)
(1.30827 -0.297524 1.67846e-16)
(0.0405716 -0.525082 0)
(0.0877904 2.20462 -6.21198e-17)
(0.343838 -0.21658 1.92775e-16)
(0.989704 2.42686 0)
(-0.765973 0.268349 -1.41781e-16)
(-0.0302765 -0.275447 0)
(0.634725 -0.00871913 -2.4381e-16)
(0.208496 1.72192 0)
(-0.85687 0.713066 -1.95933e-16)
(-0.744048 0.0559338 4.63542e-18)
(0.661183 -0.0398743 1.33105e-16)
(0.339963 2.29659 5.47927e-16)
(-0.284295 1.37279 0)
(0.584539 -0.323375 8.81612e-19)
(0.644429 2.69732 1.53346e-16)
(0.223805 1.8276 -1.43056e-16)
(-0.555607 -0.343069 3.78937e-17)
(-0.0419288 0.101385 -1.56833e-16)
(0.226537 -0.129126 1.84499e-16)
(0.0617741 2.29479 3.39157e-17)
(-0.703737 0.233342 4.97059e-18)
(0.0167913 1.87407 -4.81209e-16)
(0.573709 3.65104 -1.19787e-16)
(0.655147 2.7876 2.23221e-16)
(1.26559 0.401971 2.98195e-16)
(0.451469 0.0368289 -1.01813e-16)
(0.659274 -0.0448956 -9.09804e-17)
(-0.166855 0.151044 -7.65813e-17)
(0.734417 0.114937 3.66955e-16)
(-0.0909021 -0.378203 1.90796e-16)
(0.969267 0.702867 1.02681e-16)
(-0.0685177 -0.100544 0)
(-0.0688153 -0.114111 0)
(-0.0207291 0.470981 -1.83983e-16)
(2.32709 0.394926 2.14758e-16)
(-0.0383227 2.48072 -2.46026e-17)
(0.131055 -0.34558 -3.02792e-16)
(0.0814416 -0.153163 7.98412e-18)
(0.214895 0.795321 -8.5234e-17)
(1.08664 2.48746 4.47193e-16)
(0.236031 0.00969081 1.11699e-16)
(0.654878 -0.0588441 4.52326e-17)
(0.907828 -0.0888942 0)
(1.91161 1.89149 1.22351e-16)
(0.308482 0.193631 0)
(0.558124 0.935427 0)
(-0.0650025 -0.0543436 -4.18033e-18)
(0.350277 2.85727 0)
(0.808695 -0.0150389 0)
(0.267235 0.223439 0)
(0.0669252 0.469712 0)
(3.26039 2.1555 -4.16586e-16)
(0.36382 2.30678 -1.73164e-16)
(-0.189624 1.7519 -1.29065e-16)
(0.566521 0.385068 -4.14387e-18)
(-0.278722 1.06973 -4.46124e-16)
(0.732847 1.6907 -3.23933e-16)
(0.391499 2.70528 2.52153e-16)
(0.214368 4.995 -3.45841e-16)
(0.4748 2.61578 2.77499e-16)
(-0.0289027 1.58466 6.21066e-17)
(0.667046 -0.237707 0)
(0.340336 0.0543039 0)
(0.300178 0.298426 2.45238e-16)
(-0.187642 -0.0359297 9.32442e-16)
(0.472858 1.99059 2.52594e-16)
(-0.35924 1.23511 0)
(0.743496 0.399989 0)
(0.514608 2.76907 1.58483e-16)
(-0.588663 0.00165123 2.28048e-17)
(0.945763 2.13026 -1.31741e-16)
(0.651811 -0.0852545 -1.32091e-16)
(0.563554 2.93137 -2.67268e-16)
(0.474547 -0.336865 -2.92928e-18)
(-0.059401 0.251145 3.57622e-17)
(-0.0293375 0.220877 -1.24935e-17)
(0.0938931 0.317143 0)
(0.0316757 0.231696 -5.24514e-17)
(-0.0363905 1.60431 0)
(-0.028592 1.49557 0)
(-0.0196351 1.65763 0)
(0.0139026 1.60632 0)
(-0.0770014 0.313015 0)
(0.0303508 1.54857 0)
(0.0298337 1.5408 0)
(-0.0709255 0.389275 -2.3062e-17)
(-0.0603307 0.46183 -2.22662e-17)
(-0.0369931 0.521381 2.24836e-17)