/*--------------------------------*- C++ -*----------------------------------*\
| =========                 |                                                 |
| \\      /  F ield         | OpenFOAM: The Open Source CFD Toolbox           |
|  \\    /   O peration     | Version:  v1912                                 |
|   \\  /    A nd           | Website:  www.openfoam.com                      |
|    \\/     M anipulation  |                                                 |
\*---------------------------------------------------------------------------*/
FoamFile
{
    version     2.0;
    format      ascii;
    class       volScalarField;
    location    "0.85";
    object      epsilon;
}
// * * * * * * * * * * * * * * * * * * * * * * * * * * * * * * * * * * * * * //

dimensions      [0 2 -3 0 0 0 0];


internalField   nonuniform List<scalar> 
1431
(
115.555
38.2037
1.30552
0.360238
5.06332
38.2865
0.573649
357.736
52.7699
0.533638
109.78
266.797
44.3222
12.6159
22.6556
0.496359
24.0657
11.4402
21.2327
16.5445
232.66
15.3963
55.9358
303.989
56.8834
27.4402
71.7636
11.6896
70.3534
31.3661
24.582
37.0626
22.2224
7.77366
45.0729
6.36534
87.9688
0.573194
0.272605
29.9258
81.7519
84.008
37.7343
0.355392
58.6048
4.8295
26.0065
59.0525
0.583631
0.415199
34.9817
0.356532
40.5474
300.277
25.04
26.3854
5.96116
294.485
41.7172
13.6286
14.2854
0.379273
0.610212
0.49113
0.282084
0.655183
7.10604
1.0231
3.06542
21.8889
305.926
10.4778
0.339477
6.85606
15.8734
6.90438
3.08913
1.42176
0.584991
7.68074
29.2516
4.45891
146.652
32.3768
159.518
0.405505
0.411199
24.1346
184.542
203.688
34.4065
6.54886
1.47719
0.429369
22.1601
34.506
306.152
114.859
0.365203
16.2802
34.8373
0.349371
29.3127
6.6062
3.99005
37.2032
49.8041
116.816
47.9039
33.3093
8.40684
51.426
6.49746
83.8279
35.187
5.67064
14.0249
0.411254
0.648133
0.534271
28.3474
34.6161
381.424
18.8145
246.714
0.439584
1.58366
13.2121
2.2677
2.19853
28.2458
16.7554
1.98303
22.3769
28.1711
0.676493
3.34732
0.474938
161.279
1.52304
0.728118
19.9057
39.7362
4.79675
63.8663
22.2491
0.960057
37.6767
0.467694
6.42495
0.600262
3.78248
32.463
0.724276
42.1586
1.73317
153.568
66.4073
185.209
0.354811
184.459
51.8432
0.35175
0.333472
250.417
100.356
91.2948
32.2035
0.413241
79.5775
184.559
43.5627
25.7188
165.111
51.2026
152.639
0.882985
45.2441
39.8642
45.718
0.764848
0.611056
28.657
465.113
41.846
97.8106
136.853
67.54
25.8116
184.916
19.9589
29.0292
29.546
152.587
0.571091
80.4332
113.099
37.5111
2.45948
74.2802
32.0541
0.319443
76.9419
0.643982
46.3333
21.7819
42.0797
2.82411
192.365
38.6707
186.864
0.418956
46.5442
38.7802
177.343
27.8937
32.778
37.9396
29.3927
66.7461
42.3056
27.5687
70.3776
0.291398
45.4142
248.175
100.794
96.1282
42.8445
40.9812
302.222
23.5349
34.942
27.9378
38.3304
182.458
42.6939
37.5658
19.4799
22.0656
0.951254
41.9572
214.849
29.3633
27.5646
38.4225
33.6118
80.435
44.8051
0.678719
8.91991
154.271
0.30836
0.294106
20.6875
70.1535
0.280491
298.718
159.97
31.7942
42.8403
159.578
29.0888
0.574533
50.6166
88.3275
55.5092
233.768
55.4848
6.12933
51.45
38.5162
28.6101
13.8209
177.764
25.7289
168.95
37.5406
54.0684
61.5802
48.5387
78.4307
22.2175
28.3356
10.3354
135.919
74.0824
136.606
175.771
40.0213
2.42252
57.3402
97.255
43.6366
28.2656
44.8289
170.594
112.831
24.3618
61.9241
41.5368
17.7262
20.8245
36.0232
46.9103
0.271028
52.135
31.1077
84.2995
63.5829
91.6228
1.03009
0.380816
96.0682
50.7138
107.396
39.0126
16.9523
1.58924
734.805
50.7184
95.017
9.20946
39.4192
37.9572
2.15977
12.9733
59.6756
290.5
0.297417
87.3812
2.40673
57.7385
18.5441
0.529571
35.6608
58.6405
172.657
38.1771
98.7469
8.11485
36.2877
75.225
78.2444
49.5508
25.9287
32.0622
164.049
73.8719
42.4863
40.6647
3.4964
39.4093
54.7149
4.93094
25.6926
174.746
132.742
146.031
77.4328
17.8037
79.7776
73.1802
13.6498
1.92672
144.611
57.5005
569.877
46.1622
19.3273
100.195
6.25935
196.909
38.2675
72.5948
350.429
60.3553
15.4875
17.1809
426.348
58.4223
38.4862
25.9727
6.78405
744.243
44.2085
43.7069
50.3923
34.3685
38.7294
2.7134
46.4428
46.8704
0.274011
176.396
40.5191
58.693
60.5964
61.8946
40.0991
58.5686
67.5065
134.438
66.5381
16.1814
56.2061
39.6039
25.303
5.18271
55.4524
68.6542
38.9305
54.8322
39.4657
47.8207
6.72443
45.7979
35.272
38.2055
54.3785
54.9549
44.9477
28.7202
49.7052
54.1032
8.55527
7.99586
28.8938
4.0696
242.335
61.655
66.3568
71.7119
72.3553
73.2283
68.8331
64.6504
70.9546
65.1445
69.4919
7.14711
159.182
3.65485
2.4262
3.96704
2.14041
1.46941
1.44259
30.7305
15.8446
16.2474
0.497634
0.546485
7.4282
0.562374
0.53271
19.466
258.191
9.83522
2.90699
17.0633
0.478845
247.561
0.491934
2.79423
0.635618
6.15719
241.134
0.634293
233.898
0.402657
0.369381
5.08267
26.9656
162.311
150.282
0.806813
1.82507
1.69951
0.399377
24.4565
2.22041
167.225
3.17095
5.98885
25.1867
4.49763
4.33572
1.86609
5.7665
182.495
1.12582
1.66316
7.12754
27.91
4.08933
2.49556
189.616
3.92571
31.5675
28.4214
14.4504
24.0287
44.7702
184.686
155.479
3.76517
9.10663
8.77026
12.4029
7.84197
33.9545
2.65381
2.48975
51.6685
0.290396
24.584
10.6723
41.522
163.887
45.3916
14.3028
32.3453
0.282559
17.2172
0.279808
179.625
29.5701
8.63159
20.1145
37.8931
28.3635
28.2594
85.3859
67.6922
5.30094
23.7725
160.445
18.6926
15.395
54.5217
52.9447
87.8911
22.2983
54.2337
21.738
33.5421
141.937
56.7004
72.5367
42.0559
45.4439
63.4374
51.6455
0.534513
82.5359
0.287972
30.7829
143.987
317.483
74.023
166.375
111.356
38.9704
537.253
41.3265
25.6608
0.300809
33.2347
62.3762
51.8587
90.46
62.7008
16.3806
69.7056
34.1636
0.286119
159.507
52.639
59.9027
52.2096
65.2119
55.9403
44.8929
50.4757
36.6904
26.2258
26.7475
96.9265
19.3615
40.5037
252.72
34.2988
35.0752
48.8547
61.6491
25.1876
43.4359
84.1564
176.479
166.107
27.1594
53.3915
26.0675
43.5638
38.4401
97.6601
59.137
2.43404
2.05386
0.281184
35.8042
47.0362
52.2172
68.7487
59.3558
211.958
0.417736
22.3781
45.0478
48.2102
42.93
56.394
49.0999
37.2752
42.2247
64.5724
7.0985
57.3906
22.2143
38.2632
34.5323
0.342595
60.425
51.7011
41.0779
307.366
7.11943
72.4548
29.8409
64.636
126.57
1.22049
53.1185
193.334
33.7707
36.6814
36.1305
229.388
49.0997
30.3527
78.0693
133.274
47.847
3.24056
36.35
53.363
47.2824
11.3217
180.126
184.45
61.829
33.7287
43.1921
33.7782
47.2241
18.1086
8.38772
37.8102
4.74701
53.5786
44.9852
279.61
67.6968
26.7023
28.5562
288.609
20.0253
49.0967
18.3585
25.8986
23.9476
46.7284
284.026
0.475581
4.10445
42.2824
59.8164
6.41499
61.0763
96.2835
43.8848
83.3004
38.8718
12.5215
76.2851
268.012
47.4116
6.05474
101.703
168.352
41.8057
52.6529
23.1666
152.61
303.915
111.661
216.6
37.9572
45.3861
62.3158
28.0137
31.3337
46.5657
6.33106
90.9467
36.1321
69.7338
5.94008
72.1147
91.2712
23.0339
151.505
47.802
20.4968
45.6855
68.8749
39.2071
110.123
158.122
0.823375
94.441
25.5855
4.06046
130.482
40.6993
77.9883
322.558
293.064
0.310982
38.3992
54.2177
10.1528
53.965
51.0998
38.3478
28.0024
6.88482
65.2209
0.450326
21.5681
25.27
14.3127
0.424304
378.932
61.0532
58.366
5.36415
42.3046
54.6575
369.109
139.139
43.0272
0.547359
5.04516
52.314
0.4433
0.518854
53.8113
17.977
35.6698
36.203
58.4741
70.2622
62.5641
35.6491
1.60121
38.0486
58.0548
28.3606
43.3512
5.17936
47.9479
0.663764
89.6615
165.721
40.8366
40.7363
26.6335
39.7385
72.8611
11.7369
40.7775
60.8978
35.9116
3.01989
0.348801
33.4193
0.306119
44.9989
30.7352
21.5777
10.803
53.7698
52.8101
692.751
34.5583
42.1028
40.0329
42.2582
504.343
0.890505
31.546
164.152
71.6277
275.649
38.5805
6.71428
81.8058
64.2149
1.96675
79.5216
46.2674
63.4616
124.877
39.7507
63.8285
19.3946
6.29424
1.63972
73.517
367.072
318.063
28.265
42.6832
283.759
45.5428
81.6326
53.3595
22.9509
47.5403
3.90676
2.65153
41.049
49.7887
186.212
7.21929
324.188
35.7897
161.113
46.7108
19.3503
27.9901
24.6591
5.46144
0.695753
4.41748
53.2041
2.55907
2.16959
25.2936
44.529
52.9487
34.1882
51.181
51.4771
48.9163
0.450358
159.828
49.7898
63.9791
562.123
60.2219
104.587
32.2947
11.4738
0.633091
118.335
46.8594
87.2317
238.974
0.434569
78.8769
192.444
484.428
292.555
373.609
61.5965
56.359
61.372
69.2315
65.4794
67.8433
53.4708
42.7568
39.4777
41.7726
41.6697
51.4578
74.4674
37.8736
39.481
43.3216
35.0539
53.0288
52.5524
33.8563
51.7856
50.2171
33.7078
47.6756
44.4386
138.526
0.416217
12.8365
38.8137
14.3135
11.9996
223.495
46.7293
19.328
13.2405
34.5447
14.4399
310.859
24.869
1.98667
155.147
50.1267
52.14
21.2067
0.507304
303.838
4.57268
44.8394
42.3204
41.518
5.87665
13.7048
143.949
34.7844
26.7551
44.2644
60.3919
39.4465
41.0092
166.749
0.821658
0.308394
6.78706
0.308707
47.9848
69.0776
31.1291
17.6642
40.1839
12.6109
24.8505
12.1949
18.1616
50.4353
156.584
55.563
44.0641
88.9324
5.79535
28.3463
0.557197
44.413
8.36657
0.475945
43.5836
30.5161
361.394
1.89676
25.399
7.856
35.6599
0.518906
805.005
54.4208
36.6955
2.21276
327.337
55.8397
156.647
0.468291
1.31197
0.350801
5.56717
2.67782
51.7732
33.4862
363.621
202.344
44.338
55.1874
0.30306
41.2464
19.0924
49.7527
28.273
18.4175
52.0924
59.5337
46.3957
85.49
83.6022
0.386302
0.570574
22.5008
60.7
60.4456
7.77303
47.1044
43.2757
41.3445
15.1096
44.9116
41.5435
171.829
406.769
0.644574
71.8146
32.7078
0.388546
58.1335
317.934
31.2088
45.0878
22.665
178.169
151.792
1.51994
12.6157
40.2103
43.9332
406.778
169.508
74.7405
42.2678
0.362533
124.706
0.289805
60.3591
32.7903
385.86
86.6225
293.614
174.124
59.2158
11.408
49.6815
0.463921
3.94525
0.337442
0.412269
0.298888
46.8058
81.7273
40.5818
32.4353
74.8595
181.605
0.802914
3.21268
56.6119
403.579
50.5039
383.909
85.7117
58.039
432.132
43.2453
450.63
451.463
467.813
354.118
358.296
335.615
469.014
302.346
0.653433
0.431864
0.617397
0.641942
0.721654
0.685398
46.4378
36.204
74.9251
49.5528
61.5348
32.1502
0.290959
40.0857
0.456686
0.587954
46.1078
0.549856
33.1944
21.4896
0.657617
20.1801
4.1981
80.6047
54.2714
44.2272
45.1841
35.5107
8.99973
43.0195
639.017
34.5931
9.1695
27.4288
59.9449
4.40347
29.4789
161.179
4.57121
54.5475
0.358055
9.91434
0.322526
35.002
24.396
9.48888
0.347001
25.5585
6.20428
1.81105
76.3921
81.5527
10.6908
17.3478
32.7079
166.642
0.459868
165.478
239.109
8.44429
190.721
32.0607
16.8347
42.7796
162.244
0.328157
48.3252
59.0858
109.588
72.3311
34.2708
42.5882
5.94684
0.479189
69.5095
32.1527
49.7246
149.127
200.768
199.562
114.54
24.6937
36.547
57.285
0.621038
5.07568
2.14104
26.1282
7.08725
222.818
51.5549
5.27249
154.073
44.2587
13.6248
69.6756
8.67957
51.9003
146.13
50.6846
46.8712
0.65166
60.7939
60.872
190.411
77.2337
363.489
0.316528
6.65328
24.8376
288.003
167.94
101.191
64.7365
54.601
0.288293
314.57
4.58647
40.3015
23.5565
23.1858
9.0544
67.8678
0.294122
52.1736
42.2348
189.598
9.57259
58.2605
33.5937
18.0197
0.290132
4.77556
0.957849
123.688
24.9711
65.7392
153.276
51.0799
48.5943
43.9407
26.6214
0.291746
22.9385
13.026
44.6986
431.738
42.6279
637.236
42.0544
7.85165
42.1529
171.971
40.6253
0.495092
21.0907
33.633
111.807
34.2758
80.1764
120.75
60.4483
11.8553
37.4103
10.4121
0.298039
41.3981
212.554
64.412
223.809
46.6688
26.9698
40.7211
47.2324
26.4331
13.9043
18.5365
11.6573
0.295793
41.8429
427.656
42.2023
44.0183
0.62325
3.85975
25.2211
41.1
24.0203
442.901
62.0697
77.6297
144.093
7.82179
45.8216
49.4578
48.3075
142.672
51.5619
71.7276
35.5531
56.9395
16.6051
75.5486
24.4625
39.265
315.438
44.5211
6.09762
27.3897
57.0116
83.429
24.1432
48.5269
11.4997
280.203
22.4503
2.59401
0.555571
536.554
39.1297
62.8284
0.811612
3.02299
250.101
13.4939
281.176
0.747392
0.458391
2.3647
401.982
0.331255
379.951
197.196
8.46544
54.5819
174.134
281.894
82.7477
338.145
4.27358
7.39234
32.126
51.4852
4.31078
169.249
0.35054
62.1298
462.584
351.175
29.9581
27.2269
0.300532
176.937
0.61841
36.2496
23.6307
274.156
0.630491
1.38578
10.6163
101.296
58.9434
41.4554
4.29896
0.297831
0.85081
210.146
347.065
0.524663
41.0216
4.99344
0.926707
28.2401
34.017
11.5952
48.8335
0.29515
27.2339
25.7688
36.0885
206.246
35.2537
0.419279
45.5787
26.3166
0.290363
0.447697
51.3254
14.8906
0.364954
20.7353
23.9842
33.175
0.370876
0.500097
207.458
183.035
72.2722
24.1523
0.327678
2.13142
1.31421
42.7155
0.909196
1.12497
4.48876
5.73049
5.28501
0.300429
181.235
47.6857
19.8751
53.2674
64.2697
166.17
42.4031
0.296471
8.47668
90.2301
60.0773
199.788
6.14676
14.9272
19.0928
45.5723
4.79385
26.6285
14.1838
19.0164
1.43835
163.525
228.118
60.5034
100.749
10.2405
83.8828
31.5031
52.1156
109.373
11.0444
17.1972
46.2123
140.744
5.23031
0.430629
59.7639
55.8711
30.5615
7.23062
)
;

boundaryField
{
    frontAndBack
    {
        type            empty;
    }
    wallOuter
    {
        lowReCorrection 0;
        type            epsilonWallFunction;
        value           nonuniform List<scalar> 
96
(
70.3534
31.3661
34.506
279.61
288.609
284.026
61.0763
38.8718
12.5215
268.012
6.05474
168.352
23.1666
303.915
216.6
322.558
293.064
38.3992
1.60121
89.6615
3.01989
124.877
39.7507
367.072
318.063
61.5965
56.359
61.372
69.2315
65.4794
67.8433
53.4708
42.7568
39.4777
41.7726
41.6697
51.4578
74.4674
37.8736
39.481
43.3216
35.0539
53.0288
52.5524
33.8563
51.7856
50.2171
33.7078
47.6756
44.8394
69.0776
31.1291
44.413
0.475945
361.394
44.338
85.49
71.8146
32.7078
31.2088
406.778
0.362533
0.289805
385.86
403.579
383.909
432.132
43.2453
450.63
451.463
467.813
354.118
358.296
335.615
469.014
302.346
0.653433
0.431864
0.617397
0.641942
0.721654
0.685398
32.1502
0.657617
35.002
34.2708
363.489
0.957849
431.738
442.901
71.7276
35.5531
0.331255
338.145
462.584
0.300532
)
;
    }
    inlet
    {
        type            fixedValue;
        value           nonuniform 0();
    }
    outlet
    {
        type            zeroGradient;
    }
    wallInner
    {
        lowReCorrection 0;
        type            epsilonWallFunction;
        value           nonuniform List<scalar> 
126
(
41.7172
13.6286
14.2854
0.379273
0.610212
0.49113
0.282084
0.655183
7.10604
1.0231
3.06542
21.8889
305.926
10.4778
0.339477
6.85606
15.8734
6.90438
3.08913
1.42176
0.584991
7.68074
29.2516
4.45891
16.2802
5.67064
14.0249
0.411254
0.648133
0.534271
28.3474
34.6161
381.424
18.8145
246.714
0.439584
1.58366
28.2458
16.7554
1.52304
0.728118
39.7362
4.79675
0.960057
6.42495
3.78248
0.724276
250.417
0.764848
97.8106
136.853
0.571091
186.864
6.12933
54.0684
61.5802
2.42252
170.594
112.831
61.9241
17.7262
1.03009
0.380816
96.0682
2.15977
12.9733
87.3812
98.7469
8.11485
132.742
79.7776
73.1802
25.303
35.272
44.7702
51.6685
20.1145
160.445
52.9447
141.937
45.4439
143.987
69.7056
159.507
96.9265
252.72
166.107
56.394
0.342595
193.334
133.274
152.61
111.661
54.6575
104.587
118.335
50.4353
200.768
29.9581
27.2269
90.2301
60.0773
6.14676
19.0928
45.5723
4.79385
14.1838
1.43835
163.525
228.118
60.5034
100.749
10.2405
31.5031
52.1156
109.373
11.0444
17.1972
46.2123
140.744
5.23031
0.430629
59.7639
55.8711
30.5615
7.23062
)
;
    }
    procBoundary3to1
    {
        type            processor;
        value           nonuniform List<scalar> 
48
(
90.2276
89.4116
83.5474
90.2005
57.4795
98.7804
89.4116
12.4341
67.4779
5.10892
5.10892
5.37872
5.37872
2.59421
2.15591
4.77156
4.12448
4.31145
4.12448
2.85733
1.56244
1.5805
2.85733
50.2313
3.84302
2.46709
2.55221
1.5805
3.68205
14.256
14.256
7.59426
7.59426
67.4779
2.06656
56.2648
21.1741
3.84302
87.0643
48.1082
2.59421
35.3935
49.2771
2.85733
2.20856
69.4862
53.8897
1.78106
)
;
    }
    procBoundary3to2
    {
        type            processor;
        value           nonuniform List<scalar> 
29
(
0.751156
0.751156
0.635723
0.735807
11.5493
1.9073
0.362074
0.983206
0.666147
0.685518
1.41029
7.93551
0.790367
0.293487
0.29245
0.285968
0.577549
0.593228
0.770312
0.292083
0.287664
0.577549
0.684465
0.593228
0.340843
0.542614
0.593228
3.57628
3.57628
)
;
    }
}


// ************************************************************************* //
