/*--------------------------------*- C++ -*----------------------------------*\
| =========                 |                                                 |
| \\      /  F ield         | OpenFOAM: The Open Source CFD Toolbox           |
|  \\    /   O peration     | Version:  v1912                                 |
|   \\  /    A nd           | Website:  www.openfoam.com                      |
|    \\/     M anipulation  |                                                 |
\*---------------------------------------------------------------------------*/
FoamFile
{
    version     2.0;
    format      ascii;
    class       volVectorField;
    location    "0.34";
    object      U;
}
// * * * * * * * * * * * * * * * * * * * * * * * * * * * * * * * * * * * * * //

dimensions      [0 1 -1 0 0 0 0];


internalField   nonuniform List<vector> 
1431
(
(0.376051 2.77726 8.45477e-17)
(2.34907 1.46969 2.79084e-17)
(-2.8202 0.0644355 0)
(-1.63494 0.0769532 1.6642e-16)
(-0.359366 -0.468931 0)
(0.183702 2.13116 2.58139e-16)
(1.12897 0.180023 3.9002e-16)
(2.85339 0.195065 5.77201e-17)
(-0.552986 2.53527 1.694e-16)
(1.56874 -0.0975517 3.53765e-16)
(3.05363 9.63644 1.99359e-17)
(7.23573 0.207629 0)
(-2.00701 4.99569 -9.71586e-17)
(-1.11648 0.0281354 -4.68307e-16)
(0.307848 -0.199829 0)
(1.10893 -0.32689 -3.41884e-16)
(1.99629 -0.140082 -2.52043e-16)
(-2.52347 -0.239228 0)
(1.92985 -0.29928 -2.05931e-16)
(-1.98395 0.397449 1.09714e-16)
(4.49217 9.07146 -6.57374e-19)
(-0.442593 -0.0437049 1.96793e-16)
(-0.211852 1.52661 -1.97934e-16)
(12.0368 2.07373 -3.43398e-18)
(-0.342663 2.03861 1.7776e-16)
(-1.25249 3.29823 -3.87915e-19)
(1.69599 9.33735 -2.08967e-17)
(-0.737301 -1.09561 -3.03817e-16)
(-0.118782 5.6448 -3.18063e-17)
(0.170127 4.87337 2.80968e-17)
(-0.0527556 6.27661 -7.26017e-17)
(-0.0688268 7.02382 2.53225e-17)
(-0.0257641 6.07658 0)
(-0.707447 0.204057 -3.76854e-16)
(0.494891 3.05076 -2.90846e-16)
(-0.448371 -0.350897 0)
(-0.740423 6.92104 0)
(1.01146 0.260642 -6.43118e-19)
(-0.544314 -0.929217 0)
(-0.116214 6.8044 0)
(-0.808468 9.26447 -7.68841e-19)
(-0.882793 8.7499 7.73158e-17)
(-1.40622 3.88244 -1.27853e-16)
(-0.654422 -0.74141 1.66925e-16)
(0.150446 1.33685 0)
(1.35639 -0.461672 2.45657e-16)
(-0.0481295 0.643299 2.33896e-17)
(1.1434 8.90947 -6.41988e-17)
(0.537116 0.554766 0)
(0.188292 0.369663 0)
(1.50385 6.49429 0)
(-0.386141 -1.47164 0)
(1.04762 6.36831 1.97263e-16)
(2.57166 0.20587 1.76961e-17)
(2.30494 0.782166 -1.87385e-18)
(0.308372 5.48769 2.47803e-16)
(-0.569548 0.132893 1.78533e-16)
(5.35448 -0.011739 0)
(2.49494 -0.0187074 0)
(0.0521024 -0.166031 3.52119e-16)
(0.115345 -0.111323 -1.24002e-16)
(-1.18529 0.324411 3.20796e-16)
(1.84665 -0.0868148 0)
(1.28987 0.157873 0)
(-0.8637 -0.366034 7.65293e-19)
(1.27144 0.135312 -1.9334e-16)
(-2.39285 -0.285813 -1.63489e-16)
(-2.1947 -0.546918 -6.00816e-17)
(1.80308 0.0565027 -4.08386e-18)
(-0.638908 -0.298615 0)
(0.772174 -0.300823 7.5416e-17)
(-0.820129 0.0904171 -1.29524e-16)
(-1.50914 0.156436 1.07792e-16)
(-0.439165 0.206382 3.00347e-16)
(-1.2041 -0.0783137 3.3597e-16)
(0.842691 -0.0820386 -4.37856e-16)
(-2.80444 -0.20944 -1.39529e-17)
(-4.41502 -0.333507 -1.01294e-16)
(1.22976 -0.334612 -2.42562e-16)
(-1.74278 -0.480008 0)
(2.01467 -0.0380485 -5.64848e-17)
(-1.72188 -0.581072 8.10608e-18)
(5.59328 0.583565 -6.12764e-18)
(0.466479 0.677727 9.87011e-17)
(11.4074 0.783016 2.07347e-18)
(-0.782059 -0.214885 -9.70869e-17)
(2.6593 -0.0253306 0)
(0.610373 0.0231858 1.76668e-16)
(8.54039 0.163028 7.21449e-18)
(7.18419 0.453867 2.27765e-18)
(-0.249747 0.510587 -2.47772e-16)
(-0.596284 0.535436 2.51154e-16)
(0.735454 0.322143 2.3042e-16)
(0.80532 -0.919558 -1.16258e-16)
(2.90864 0.582187 8.15891e-18)
(0.0317618 4.15758 0)
(4.12446 -0.00354662 -7.98003e-17)
(5.06748 1.46008 -1.18736e-17)
(-1.21058 -0.227829 0)
(-2.71268 0.144295 -4.24962e-19)
(0.460578 6.9232 8.85229e-17)
(-1.62907 0.146285 -5.25232e-16)
(2.07509 -0.12958 0)
(-1.30915 -1.0492 -2.05661e-16)
(-4.75583 0.0340433 1.67306e-16)
(-0.0915802 6.29967 9.94156e-18)
(0.0042854 6.02251 0)
(1.16691 7.07463 6.92108e-18)
(-0.105999 1.28613 3.32961e-16)
(2.34627 -0.0756852 0)
(-0.144633 -0.479071 -5.34893e-16)
(-2.5218 6.07424 -1.89891e-16)
(-1.64133 0.586086 2.93458e-16)
(-0.640452 7.99628 -5.91326e-17)
(2.61936 0.963903 -8.74658e-19)
(0.0277997 -0.281009 6.34856e-17)
(-1.07819 0.108397 0)
(-1.73481 0.12169 -1.92964e-16)
(-1.66397 -0.127148 0)
(1.60569 0.0954096 0)
(0.239407 -0.17522 -2.12199e-17)
(0.544201 -0.128993 7.28912e-17)
(1.06925 0.119171 2.41745e-16)
(-1.10522 -0.199149 1.34758e-16)
(0.616061 0.263256 0)
(0.428443 -0.378946 1.53244e-16)
(-2.87233 -0.102027 0)
(0.299495 -0.414821 4.90093e-16)
(-2.09668 0.176951 -1.65823e-16)
(2.6949 0.138551 3.4416e-16)
(1.62264 -0.189135 3.26077e-16)
(-2.2586 0.121253 -6.58878e-17)
(2.26094 0.131596 -8.28435e-17)
(1.30402 0.0608284 9.15166e-17)
(-1.7268 0.550342 0)
(0.612148 -1.0255 -2.51584e-16)
(-3.23272 0.408731 8.51072e-17)
(-1.40351 0.65088 0)
(9.48174 0.303091 3.70105e-17)
(0.831946 0.223578 1.52742e-16)
(0.1454 -0.675935 0)
(0.117029 6.05859 0)
(2.25213 -0.114555 7.01047e-17)
(-0.469357 -0.291437 0)
(-0.163553 1.20526 2.18198e-16)
(-0.00106491 6.01029 -5.64155e-17)
(1.29026 -0.198883 -1.55523e-16)
(0.636912 6.94808 -1.82227e-16)
(1.38891 -0.734026 2.45663e-16)
(-0.60205 -0.536621 1.33865e-16)
(1.74125 -0.246131 1.63648e-16)
(1.79214 -0.115961 5.7763e-17)
(-0.0600558 6.86566 4.20246e-20)
(-1.41063 -0.225391 -1.8518e-16)
(-0.050074 6.72434 -2.48908e-17)
(0.166141 0.558051 -3.00212e-16)
(10.1021 0.638265 -2.18633e-18)
(4.12282 3.01898 5.86819e-17)
(6.43495 0.556459 -5.25548e-18)
(2.05599 -0.162421 2.09351e-17)
(7.71113 1.19843 -3.46178e-18)
(-2.03355 5.3943 1.10196e-16)
(3.01331 -0.00129759 -1.16993e-16)
(2.68734 -0.110356 8.68146e-18)
(1.16393 0.0865293 -4.84855e-17)
(-0.155173 4.47006 -1.08271e-16)
(-0.465634 6.41962 3.21387e-16)
(3.12939 0.684979 7.73926e-18)
(1.13974 0.402896 1.79757e-16)
(4.07171 1.36862 2.55756e-17)
(7.67148 0.683663 -7.45518e-18)
(0.364871 6.42247 0)
(-0.200181 6.59835 -2.3848e-17)
(9.63892 0.524802 3.70293e-18)
(2.91835 1.7862 -1.10008e-17)
(10.0271 0.442581 0)
(2.4146 0.0331647 0)
(0.177827 1.82158 -1.4778e-16)
(1.23015 6.30945 -1.97868e-16)
(0.717079 3.55554 -3.21055e-17)
(1.36258 0.09268 -3.5813e-16)
(-0.310959 -1.43528 0)
(1.53092 4.01394 5.88668e-18)
(10.6526 2.68132 -2.37808e-18)
(0.272951 2.02821 1.05543e-16)
(0.0560755 4.18307 0)
(0.750932 3.70918 -9.67758e-18)
(3.7214 2.15183 -4.19256e-18)
(-0.22374 6.77998 3.74592e-17)
(9.44855 -0.00857589 2.42945e-17)
(-0.0468976 6.68015 -4.34141e-17)
(-0.220736 6.76764 -2.3417e-17)
(-0.123982 6.89161 -3.56895e-17)
(1.12412 6.28905 0)
(-1.79362 0.00565745 0)
(4.94281 3.48062 -5.5185e-17)
(5.2591 2.04357 0)
(1.66148 3.39674 -1.8902e-16)
(1.87555 0.316246 2.50117e-16)
(2.22876 -0.0304164 0)
(1.61932 2.33838 -1.10231e-19)
(2.96462 -0.000948815 -6.72348e-17)
(1.15546 8.05989 -3.28917e-17)
(2.60441 0.00546528 7.47204e-17)
(-2.67459 6.19763 -3.30095e-17)
(-0.0928259 6.75903 2.84402e-18)
(-0.0611542 5.929 6.86478e-17)
(1.12601 0.353968 2.20149e-16)
(9.63653 0.903177 -1.1377e-18)
(0.950622 0.735574 -1.34277e-16)
(0.878807 0.0877497 3.528e-16)
(2.85257 -0.0486931 0)
(-0.0453221 6.0774 2.15148e-17)
(-0.0468703 6.21139 2.50315e-17)
(10.758 1.17973 0)
(-1.90126 0.381512 3.81474e-16)
(-0.0694657 6.87933 1.09797e-16)
(1.92093 3.50114 -4.43415e-17)
(1.61494 5.34732 -4.16064e-17)
(0.957641 7.79862 2.20308e-16)
(-0.127487 7.2782 1.72468e-16)
(1.30594 3.25461 0)
(2.32065 0.258667 2.10545e-16)
(2.81829 -0.06985 0)
(-0.0687053 6.38776 -9.80811e-17)
(9.79013 1.47312 1.89118e-18)
(1.65729 7.10169 -2.68419e-17)
(4.55903 1.37602 2.60925e-17)
(-0.0210476 7.11012 1.19205e-16)
(0.637297 7.59158 3.92939e-17)
(4.28493 0.610027 3.22224e-17)
(-0.0337366 6.23165 -3.25806e-21)
(-0.0762419 6.37263 -2.76237e-18)
(-0.179356 6.95632 4.90289e-17)
(-0.0502441 7.05572 -2.44767e-17)
(6.93719 0.882035 8.2496e-18)
(-0.0603871 6.19892 0)
(-0.0144034 6.12068 -3.07857e-17)
(0.0154079 6.52968 0)
(0.720468 1.70451 2.98333e-17)
(1.67838 -0.0176186 6.37262e-17)
(3.04493 5.13908 1.06822e-17)
(9.67539 1.1565 -7.61635e-19)
(-0.182303 6.71538 0)
(-0.19013 6.69832 1.8853e-17)
(-0.0774619 -0.862155 5.09715e-16)
(-0.156058 6.38382 1.8982e-16)
(1.11593 8.30773 0)
(-0.162866 6.8656 -2.189e-16)
(0.519424 0.499396 1.43391e-16)
(0.175357 -0.324936 0)
(8.77192 0.356375 -2.4291e-19)
(2.13147 -0.163879 2.00661e-18)
(2.64201 0.214618 -1.20968e-17)
(-0.0575591 6.71912 3.29974e-17)
(-1.42407 8.59276 -3.37307e-17)
(2.2036 -0.146908 -5.36482e-20)
(9.97443 1.85956 -4.48485e-18)
(6.26353 1.59465 3.15337e-17)
(-0.0532925 6.78159 -3.64041e-17)
(0.0581484 2.80997 9.62259e-17)
(9.55206 0.344375 -2.22392e-17)
(1.64016 4.73746 0)
(2.46841 -0.0477271 6.81567e-17)
(-0.0175573 5.53281 2.18627e-17)
(1.11289 7.28424 -4.96641e-17)
(-1.47189 4.83746 -1.24711e-16)
(1.24418 5.24936 0)
(0.889323 8.49196 6.08886e-17)
(-0.494931 0.0353124 0)
(0.111308 1.04647 -6.02801e-17)
(-0.0710416 6.55528 4.39475e-17)
(1.84595 1.14769 -1.32414e-17)
(0.0548415 0.767032 6.40767e-17)
(8.09754 1.00395 0)
(-0.222092 6.49749 3.65982e-20)
(8.46834 0.792887 -6.96198e-17)
(0.891747 6.83379 1.98318e-17)
(-0.037645 4.96762 8.76909e-21)
(-0.0338904 4.4482 -5.74749e-17)
(0.212155 5.9315 0)
(-1.44286 6.82397 1.21538e-16)
(0.0458793 5.78086 7.36471e-17)
(1.00626 5.90421 1.61527e-16)
(2.01402 0.434383 0)
(5.52002 1.00371 0)
(-1.18303 8.77232 8.83927e-17)
(5.63607 1.55706 -3.82108e-17)
(10.8607 0.570268 0)
(2.40759 2.18495 -2.7707e-17)
(1.11795 0.375621 -1.81376e-16)
(-1.58201 5.00696 1.29893e-16)
(4.77471 1.95001 -3.08879e-17)
(-0.682502 6.53718 -4.01864e-17)
(0.583773 7.26105 -1.25058e-16)
(-0.00431348 7.17935 -2.82059e-17)
(1.43279 4.77244 0)
(0.163301 4.16858 0)
(-0.940923 1.7076 1.49466e-16)
(-0.0249797 4.80137 6.3544e-18)
(0.767437 6.47159 -1.22815e-16)
(-4.03027 0.380089 -1.29487e-16)
(1.45281 0.854837 -3.7457e-18)
(-2.43683 5.48455 4.86378e-17)
(0.190976 6.11706 -3.49588e-17)
(2.27865 -0.11386 -4.61501e-17)
(3.16552 2.66192 1.81961e-17)
(-0.198697 6.66465 -2.03674e-16)
(-0.983565 8.25012 -1.64801e-16)
(3.54289 1.32607 -1.76625e-17)
(5.45581 3.8368 1.91458e-16)
(-0.626045 -0.206075 0)
(-0.403864 0.269249 -8.21236e-17)
(0.302983 1.11548 0)
(-0.698432 3.03142 -2.85057e-16)
(5.28603 2.48564 0)
(1.49363 3.48123 7.02776e-19)
(2.10074 0.608128 1.54777e-17)
(1.08845 0.765145 -1.67523e-17)
(6.46084 4.99598 1.07019e-18)
(3.50469 3.58923 1.66778e-17)
(5.0869 2.91407 0)
(-2.51809 -0.221868 0)
(-0.556103 6.41978 0)
(0.857065 2.85124 3.93276e-16)
(-2.57444 0.0413604 -1.40709e-16)
(-2.58428 0.0978521 0)
(-1.39409 5.17016 2.64638e-16)
(2.80524 0.575477 2.8981e-17)
(2.71166 0.124082 5.83228e-17)
(0.0972429 4.62082 1.56284e-16)
(1.81099 -0.0680865 1.25412e-16)
(-1.20742 4.38328 -2.84704e-16)
(-0.175936 -0.205398 -3.21162e-16)
(1.85171 -0.086484 -1.51637e-17)
(-2.47186 5.24645 -2.03636e-17)
(-1.64716 6.78112 0)
(6.50154 0.965009 5.69841e-18)
(0.634251 2.60548 -1.84418e-16)
(0.470274 2.14965 0)
(-4.56152 0.214275 0)
(-2.26762 4.92287 1.66314e-17)
(4.63439 4.44603 7.72814e-17)
(-0.793248 8.2421 0)
(-0.391255 2.24515 1.93445e-16)
(0.0477996 6.75274 0)
(1.80341 1.7404 1.90232e-17)
(8.56199 0.569034 6.2718e-17)
(4.8709 4.20483 -1.35325e-16)
(-1.52306 6.36622 0)
(1.03174 2.32861 1.79777e-16)
(-1.0712 -1.0516 -2.48383e-16)
(-0.173402 6.65495 1.21821e-16)
(4.09586 4.40858 -5.71583e-19)
(-0.996378 -1.64596 1.87222e-16)
(0.98985 4.54865 -1.2794e-16)
(8.46274 1.85672 2.17863e-18)
(1.26657 0.50999 -7.81165e-17)
(9.24428 0.290951 -1.21849e-19)
(-0.977521 9.09221 -5.33457e-19)
(-0.096366 -0.0312291 -3.91082e-16)
(-0.0172745 4.21121 -2.41468e-17)
(0.0149622 4.73908 -5.01266e-17)
(1.22114 0.564202 3.71363e-18)
(1.64607 0.580868 -2.87033e-17)
(7.35004 3.69048 1.89812e-17)
(-0.658946 3.01604 1.6178e-16)
(11.5163 3.59182 -3.22387e-19)
(-0.22471 7.43131 2.37724e-17)
(0.338148 6.1983 9.45511e-18)
(1.40246 8.35633 -7.93236e-17)
(-0.120939 -0.999322 -1.62115e-16)
(8.20816 0.22146 1.02688e-16)
(2.71547 5.14228 0)
(-0.926768 8.15516 5.28003e-17)
(7.7825 1.4897 -1.0597e-18)
(4.24535 3.89354 -1.70966e-17)
(-0.106097 1.18553 -6.84725e-17)
(-0.850737 1.97883 0)
(7.78329 1.99268 -2.09504e-18)
(-2.11441 5.87284 2.22005e-16)
(0.417826 2.34223 1.0235e-16)
(0.55588 2.79599 0)
(-1.57473 -1.351 1.04259e-16)
(9.8467 4.75429 -1.03204e-17)
(-0.150365 2.23128 5.05833e-17)
(1.47972 4.92781 -4.14682e-16)
(-0.227948 1.94326 3.23368e-18)
(1.29989 2.86405 0)
(2.6049 5.53315 -1.85501e-17)
(1.44044 0.107425 1.26084e-16)
(1.04612 4.86842 -1.30523e-16)
(0.857937 4.93006 1.32092e-16)
(2.37768 -0.0637266 1.49965e-16)
(6.82448 1.48822 -4.25673e-18)
(0.111547 6.69836 -1.87599e-18)
(-2.6923 6.90834 -9.66118e-20)
(-2.74904 6.98532 -6.52258e-17)
(-0.771171 3.67241 -3.05851e-16)
(0.143773 2.25631 -5.18644e-17)
(4.21899 4.35749 -6.8862e-17)
(-1.08149 7.84804 1.60231e-17)
(5.89885 2.21634 1.04941e-16)
(-1.61106 8.25386 -1.47001e-17)
(0.29896 2.89992 -5.78066e-17)
(-1.96164 6.14338 -2.69361e-19)
(0.0912112 1.96357 9.0162e-17)
(0.0602644 0.64331 8.64683e-17)
(2.07055 0.270303 3.22198e-17)
(-1.62394 5.85722 9.51754e-18)
(4.74311 4.09746 0)
(1.06885 3.18159 0)
(-1.20871 5.53642 4.93553e-18)
(-1.06178 3.46452 9.21437e-17)
(-0.136103 1.92009 -1.91355e-17)
(-2.46875 -0.411278 1.25492e-16)
(3.11077 4.53415 -3.39177e-19)
(0.0743948 1.05886 0)
(0.396726 2.47893 -1.77173e-16)
(-0.798667 5.27016 0)
(-0.119445 5.43004 -5.26964e-17)
(-1.53626 4.39339 -2.54514e-16)
(1.21894 5.89124 -6.41219e-17)
(3.66952 4.5911 2.83828e-17)
(-0.440091 5.11348 1.19564e-17)
(-0.185217 -1.39342 3.07316e-16)
(-1.21309 1.1137 3.57199e-19)
(1.05547 -0.471376 9.38338e-17)
(-0.880621 0.618445 -1.8006e-16)
(11.6073 1.78053 2.05743e-18)
(-0.958388 4.91103 8.93975e-17)
(-0.768518 5.17825 1.35334e-16)
(-0.917286 5.5399 2.64916e-19)
(-0.572953 5.36879 0)
(-1.09444 5.76132 -8.06302e-17)
(-1.26953 5.62286 -6.27784e-17)
(-1.08665 5.13679 -6.37492e-17)
(-1.53283 6.10438 -1.22091e-16)
(-1.32332 5.35571 2.10169e-16)
(-1.69942 6.16862 5.05208e-17)
(0.0457179 -1.69176 0)
(9.22592 0.477109 1.0814e-18)
(0.364992 -1.37358 -7.55041e-17)
(0.352101 -0.741572 2.27339e-16)
(-0.941592 -0.126283 -3.06812e-16)
(0.280916 0.475136 -2.09117e-18)
(0.294231 1.406 0)
(0.798666 1.21189 -6.92701e-17)
(1.29082 0.377133 4.34281e-17)
(0.304346 0.160342 5.87097e-17)
(0.355068 0.299114 5.42054e-17)
(-0.187745 -0.254027 -1.96004e-16)
(-0.374985 0.849952 -1.49966e-16)
(-0.123261 -1.22506 0)
(-0.612926 0.952842 -7.94755e-17)
(0.126628 0.520509 2.61485e-16)
(0.360147 -0.0417077 8.25519e-17)
(8.23221 0.622247 -2.30288e-18)
(0.115393 -1.12951 0)
(-1.08448 0.124901 1.7646e-16)
(0.236258 0.0583704 -1.12409e-16)
(-2.51125 -0.341477 1.24378e-16)
(8.29935 0.444433 -3.17867e-17)
(-0.481981 0.450648 -2.37374e-16)
(-1.10493 0.0536828 -1.0824e-16)
(-2.83391 -0.973062 1.33937e-16)
(-0.629081 -1.82909 2.34616e-16)
(8.27965 0.313063 9.13871e-20)
(-1.54651 -1.13229 -1.66025e-16)
(8.35511 0.245774 -2.82832e-17)
(-0.18784 -0.61489 -5.9149e-16)
(-0.170283 -1.18794 0)
(-0.734414 -1.60529 -3.2984e-18)
(0.579686 -0.230657 0)
(9.42736 0.368444 4.17131e-17)
(9.29693 0.394298 1.28617e-16)
(-1.47597 -1.67741 8.66855e-17)
(-1.67594 0.45529 -8.14869e-17)
(-0.39917 1.00999 4.83012e-16)
(0.406625 -1.30219 0)
(0.265848 -0.304756 0)
(-0.37127 1.0711 0)
(9.22789 0.404976 2.95746e-17)
(-0.0326219 -0.922304 1.91824e-16)
(-1.55949 0.592243 1.20687e-17)
(0.640088 -0.390069 2.18396e-16)
(-0.634109 -0.438192 0)
(-1.35365 0.458513 0)
(-0.554047 0.266679 1.56318e-17)
(-2.4532 1.01674 8.87093e-17)
(8.89055 0.463249 -8.34178e-17)
(0.250609 -1.42116 1.73259e-16)
(-0.711683 0.297276 1.1408e-16)
(-1.71985 1.50177 1.78822e-16)
(0.917996 -0.586274 -2.67379e-16)
(-0.84969 0.516464 -1.31217e-16)
(-1.04885 0.41116 9.63799e-17)
(8.73105 0.588819 1.98766e-17)
(-0.00624836 -0.938983 -2.27411e-16)
(-0.349266 0.928674 -4.4765e-16)
(-0.808413 1.48369 1.05792e-16)
(-1.04872 2.35142 -2.44083e-16)
(-0.439904 0.590236 7.26879e-16)
(-0.57289 0.61809 -1.47731e-16)
(8.74958 0.698731 -4.02222e-17)
(9.02966 0.484638 -1.0737e-16)
(1.08802 -1.11473 -2.24421e-16)
(-0.039793 0.13396 1.908e-16)
(-0.00732077 0.419961 1.71558e-16)
(-0.229784 0.650469 0)
(-1.12409 1.68491 1.52851e-16)
(0.302618 -1.0356 2.47146e-16)
(-0.469284 1.32293 0)
(-0.208745 0.502074 0)
(-1.0285 -0.314074 1.52077e-16)
(0.979056 0.297764 -1.72714e-16)
(-1.03377 1.25171 -5.38192e-17)
(-1.78535 2.17005 8.04474e-17)
(-0.131671 -1.30573 1.45009e-16)
(9.07866 0.649475 -3.49863e-17)
(-0.0765254 0.912462 0)
(0.122589 1.98809 -2.68847e-16)
(-0.0982241 1.01421 -1.78396e-16)
(2.51277 -0.00294031 -5.6458e-17)
(-1.71789 3.06003 -6.0344e-17)
(1.43004 -0.15196 -8.821e-17)
(8.8635 0.926219 6.7154e-17)
(-0.109337 6.62493 -2.57042e-19)
(-0.569999 -1.66321 0)
(-0.0911027 0.53925 2.33563e-17)
(2.21199 2.51813 1.2503e-16)
(0.675506 6.09846 -1.32418e-16)
(-1.85401 4.00064 0)
(-0.223997 0.113887 0)
(-2.5741 7.2504 0)
(-0.266545 0.862744 2.6511e-16)
(0.481283 2.25091 2.0328e-18)
(0.83181 0.958886 3.45774e-17)
(-2.15639 3.28676 3.58661e-17)
(-0.276082 -0.783106 1.91834e-16)
(-2.35693 6.7135 1.00256e-16)
(-0.365494 1.5151 -2.1566e-16)
(-0.679763 6.22243 -4.09537e-17)
(0.40476 4.29516 2.78659e-16)
(-0.197492 1.28061 3.96261e-16)
(0.311238 1.74404 4.92244e-17)
(2.18252 4.79523 -5.42975e-18)
(1.08952 3.21219 -5.12223e-17)
(-2.56871 6.8087 0)
(-2.28525 7.29543 0)
(2.02446 4.74741 1.88714e-16)
(-0.402648 1.08554 2.65263e-16)
(-1.20082 7.41857 0)
(0.307086 4.46 -2.59198e-16)
(1.57467 -0.0624125 -2.63359e-16)
(-0.0158588 1.66937 -4.72382e-16)
(1.3432 -0.202567 1.4847e-17)
(-0.671944 1.84379 -1.00814e-16)
(0.736934 1.93484 5.49032e-18)
(2.88694 6.81366 0)
(-1.95401 7.01063 2.12662e-17)
(9.03839 1.14606 -6.12662e-18)
(5.8632 3.36356 5.82675e-17)
(-1.28549 5.92882 0)
(5.45895 7.27507 0)
(-0.941546 5.13921 4.99588e-17)
(1.04332 4.15526 0)
(2.75644 -0.0968535 -8.65737e-18)
(-0.904447 2.67719 -6.64179e-17)
(-1.79514 7.58486 1.02478e-16)
(-0.631985 5.86546 -2.3566e-17)
(5.03119 4.61594 -3.29295e-17)
(-1.45637 5.34636 -3.95094e-17)
(0.0745988 2.16599 -8.13048e-17)
(-0.524582 4.55409 5.50593e-17)
(1.48983 3.02828 4.1722e-17)
(1.79112 -0.0069076 1.09141e-16)
(-0.180923 1.39135 0)
(-1.15352 4.48395 8.40715e-18)
(-0.619743 4.85341 -1.17816e-18)
(-1.03219 6.01629 0)
(2.81415 4.55694 2.09882e-18)
(0.0564285 1.27304 1.9798e-16)
(2.81537 4.12573 -1.03589e-16)
(3.51045 4.32622 1.37901e-16)
(-0.0453328 6.78889 -1.48658e-20)
(-0.18988 6.79004 -8.69234e-17)
(0.782777 5.71831 -3.32327e-16)
(-0.862622 3.79905 0)
(0.0916508 0.504053 1.14041e-16)
(-1.05498 3.58387 -1.97532e-17)
(-0.368979 4.29956 2.6887e-17)
(1.25305 6.7249 -1.37068e-18)
(2.0866 5.93688 -8.79033e-17)
(-0.16488 6.25131 -1.25528e-19)
(-2.82052 7.119 0)
(-0.10497 -1.09537 -1.56712e-16)
(1.63446 4.57935 3.55488e-16)
(4.33841 2.10891 0)
(9.629 0.706682 2.19327e-18)
(1.46727 5.04814 3.17551e-17)
(-2.16718 4.19648 4.27512e-18)
(-0.256906 4.17038 3.98646e-17)
(0.430005 5.55588 0)
(2.53639 3.88789 1.05589e-16)
(0.585579 2.26818 -2.49511e-16)
(2.74948 10.9878 4.75005e-18)
(3.9921 4.28774 5.2074e-17)
(-0.784499 -0.104648 -4.70605e-17)
(1.33768 -0.116348 -1.95353e-16)
(1.57433 -0.0839011 5.73618e-17)
(-1.51194 4.88102 -6.21966e-17)
(0.69386 5.22278 1.95873e-16)
(-1.27132 4.54017 -1.08377e-17)
(-0.157523 1.81549 -7.71913e-17)
(-1.53264 5.94475 1.22155e-16)
(10.618 0.199155 -1.0278e-17)
(1.9694 -0.137345 -3.46787e-17)
(-1.03962 2.23757 -7.65264e-17)
(0.872588 3.62231 -2.2454e-17)
(3.02438 1.14974 -1.26541e-17)
(2.80035 3.28303 -2.25522e-16)
(-0.260951 5.1936 -5.47262e-17)
(0.585556 4.45795 1.253e-16)
(-1.70399 5.70444 5.60517e-17)
(1.20673 2.94519 -7.5585e-17)
(-2.76303 7.29952 -1.07468e-16)
(-0.0225379 0.0608069 0)
(3.53637 4.32699 -5.38994e-17)
(0.564619 2.2271 0)
(-2.2668 5.8471 6.53518e-17)
(0.784656 6.88381 0)
(-1.28329 -0.120423 3.67232e-16)
(-1.61103 5.38361 -1.23269e-16)
(-0.300594 5.75423 3.03486e-17)
(2.37618 3.75559 8.22075e-17)
(6.51925 0.515349 -7.31084e-17)
(1.22231 0.291945 1.23353e-16)
(-0.0971358 1.68048 -1.93754e-16)
(1.45853 2.58842 7.1222e-17)
(-0.910947 4.4877 -1.38193e-16)
(6.02151 2.83081 -1.92471e-16)
(0.800362 -0.0914338 5.60221e-17)
(-0.00282914 4.2115 0)
(-0.336858 3.81959 -2.63051e-17)
(-2.01055 5.13172 4.93389e-17)
(1.85131 3.4023 -2.09365e-17)
(1.1407 2.93993 1.30013e-16)
(3.43694 0.976814 1.43896e-16)
(3.67465 4.35328 1.54733e-17)
(-0.945855 2.4452 8.54355e-17)
(-1.52908 7.93672 -3.56097e-18)
(-0.0589074 1.21268 1.48003e-16)
(3.10112 4.07667 -9.32438e-17)
(1.74149 -0.653016 4.42735e-17)
(0.888644 2.54915 -7.77647e-17)
(-0.322558 1.87251 -2.05431e-16)
(1.76243 3.70871 -5.04267e-17)
(-0.518244 1.54913 0)
(8.1645 0.387607 -1.70521e-16)
(7.28909 1.33035 1.1396e-17)
(-2.76679 7.1279 7.43798e-17)
(-1.75404 4.17999 2.94173e-16)
(-1.07525 6.46082 2.01223e-17)
(-0.679151 2.28385 0)
(0.438994 0.000331646 -1.56386e-16)
(-1.06247 1.1977 4.69505e-17)
(-0.869912 1.04134 -1.87313e-16)
(1.01389 6.90288 -2.94869e-20)
(-2.35501 -1.06905 -9.94547e-18)
(-0.120453 4.96795 4.25851e-17)
(3.42654 0.775832 -7.41451e-18)
(9.30339 0.466814 0)
(-1.99637 6.43287 0)
(-1.01136 2.31211 -4.13975e-17)
(0.686346 -0.47557 1.76666e-16)
(9.92123 0.524099 0)
(0.12005 -0.128979 2.58506e-19)
(0.2172 1.64796 -3.47937e-16)
(0.675584 1.00495 0)
(1.20717 1.46363 0)
(0.744716 4.30554 -8.65613e-17)
(3.53236 4.7631 1.65461e-17)
(8.67655 0.415729 0)
(-4.86761 -0.726859 8.75425e-17)
(-3.13966 -0.123877 -7.48501e-17)
(-1.11521 3.77461 0)
(-0.195078 1.62209 0)
(0.640889 -1.40765 1.31548e-16)
(3.03869 0.200804 -5.36765e-18)
(0.0512906 2.7973 9.51812e-17)
(-0.150971 2.72983 -1.92345e-16)
(-0.731735 5.84735 4.06014e-17)
(2.73016 0.176334 0)
(2.22771 0.0967236 0)
(-1.27351 6.15003 -8.46915e-17)
(4.9975 0.252842 -2.0292e-18)
(0.28707 1.01564 -2.34503e-16)
(2.05141 0.0447902 1.38349e-17)
(5.39113 4.20052 -2.87885e-18)
(4.1568 0.242039 0)
(2.30192 3.9366 0)
(-1.50172 6.24115 -4.44157e-18)
(2.45475 0.142544 0)
(-0.322953 3.27697 0)
(10.7862 0.593121 -1.20468e-18)
(0.0265408 1.10312 -2.96655e-16)
(4.56536 0.247567 0)
(2.67113 4.56016 -2.86415e-18)
(-0.14514 2.73733 2.9741e-17)
(-0.268358 1.80431 1.01487e-16)
(0.609307 3.33763 -1.45452e-16)
(0.447084 6.6587 -2.72379e-18)
(-0.185583 7.0044 2.10465e-17)
(-2.64349 0.142331 -7.79533e-20)
(-0.587211 6.87717 -2.00437e-16)
(-0.932404 3.01801 -3.43528e-19)
(-0.0458335 1.05008 2.24713e-16)
(-0.230023 0.123333 -2.76824e-16)
(-0.337064 2.84435 1.66256e-16)
(-0.60424 6.3776 0)
(-0.122166 6.80657 1.39898e-18)
(8.91897 0.338646 -9.845e-18)
(-1.59602 6.51035 0)
(-3.69869 0.758423 2.87926e-16)
(3.7197 0.496174 1.40879e-17)
(0.092506 4.43182 0)
(-1.14053 3.54943 2.24693e-16)
(1.46361 7.38302 0)
(2.04409 8.00588 2.4977e-17)
(-0.514861 0.469314 0)
(4.61407 0.923106 1.68935e-17)
(-0.656111 2.86797 -1.75501e-16)
(0.528739 0.0804649 -1.022e-16)
(0.193943 1.6192 -1.72784e-17)
(-0.304279 2.28301 1.62071e-16)
(-0.794856 5.45296 -4.04527e-17)
(5.40548 0.259972 7.39288e-18)
(8.18412 0.3615 0)
(1.28517 -0.233255 -1.7129e-17)
(-0.0858898 4.86102 0)
(-0.273673 1.90424 0)
(0.417683 0.402587 -1.26434e-16)
(0.383536 1.47628 0)
(-0.940682 4.29211 0)
(1.08524 2.07336 -3.44914e-17)
(1.07247 -0.183062 0)
(-0.942649 -1.61364 1.25988e-16)
(-0.0634559 1.77568 6.91649e-17)
(-1.1642 0.351575 1.89067e-16)
(-2.22263 3.47128 8.58882e-17)
(0.993593 2.4676 1.47116e-17)
(2.75702 0.474877 -5.05652e-17)
(-0.669355 -0.101626 -3.51202e-16)
(12.9722 2.59161 0)
(0.00106038 1.7344 0)
(-1.41474 6.71479 -1.1958e-16)
(0.367845 1.20393 -1.05441e-18)
(0.0330289 1.95427 1.45229e-17)
(-0.0291557 1.45986 1.89507e-17)
(10.2666 2.31157 3.04131e-18)
(0.673683 1.57395 4.28298e-17)
(-0.335544 2.01236 -5.90542e-17)
(-0.923058 0.882512 3.19983e-16)
(-0.312467 -0.693415 -2.30651e-16)
(0.0392182 6.04975 0)
(0.440277 -0.587787 3.94445e-16)
(0.677225 0.109628 -2.13641e-16)
(-0.538783 4.33526 -2.43961e-17)
(0.195143 1.45383 -1.56277e-17)
(-0.845519 2.83918 -2.56371e-16)
(-0.108127 6.34556 -4.17954e-18)
(0.0838775 1.76072 1.97666e-16)
(-0.850564 5.02587 6.81669e-17)
(-1.0847 5.32437 0)
(1.82394 6.17838 6.05433e-17)
(1.94227 -0.0383983 5.31277e-17)
(-0.216767 5.97076 0)
(-1.98973 5.71312 -1.03791e-16)
(0.145215 1.0965 -4.71483e-16)
(2.59873 4.39017 0)
(-4.37153 0.225683 -8.11335e-17)
(-1.12638 6.41991 0)
(-0.164877 -1.16861 4.01995e-18)
(3.38287 0.221928 -2.47694e-18)
(8.65264 1.48705 2.17667e-18)
(0.518535 1.83823 0)
(1.78072 5.7298 1.22795e-16)
(-0.166427 6.66687 -7.27134e-17)
(2.33049 5.62253 0)
(-0.172679 -0.375613 -1.10905e-16)
(-0.553709 1.48538 -1.02204e-16)
(-0.0527777 6.20458 -7.06892e-17)
(-2.48423 6.61831 6.93976e-17)
(-0.119045 6.12792 1.56307e-16)
(1.95064 -0.00161657 -2.92327e-17)
(0.264076 -0.288557 0)
(0.0737276 6.64659 0)
(0.284063 -0.190639 3.05976e-17)
(-2.60136 6.25606 8.57303e-17)
(-0.0850894 6.82293 -2.51539e-17)
(0.406019 -0.0987568 1.14963e-16)
(-0.0794268 -0.452782 -1.99867e-16)
(-0.855505 4.54805 0)
(-1.03028 4.42299 5.98018e-17)
(9.75437 6.91062 -1.22453e-18)
(-0.187701 6.09632 2.17322e-17)
(-0.0315215 2.19114 -1.6045e-17)
(-0.512027 5.62565 -5.21327e-17)
(0.331495 2.02046 2.1356e-16)
(4.95854 1.99337 2.38664e-18)
(2.6416 0.0399215 -1.17689e-16)
(1.78308 3.33327 0)
(10.464 0.956905 2.3157e-18)
(-1.98361 8.01622 3.32751e-17)
(8.07733 0.831421 1.14549e-18)
(-1.02506 3.4658 -7.35904e-17)
(0.253392 -1.44561 -1.24351e-16)
(-1.18691 6.48041 -1.58052e-16)
(-0.329788 2.34388 1.88548e-19)
(1.54565 0.652558 2.81853e-16)
(0.747167 6.14805 -9.7735e-17)
(-0.0379698 6.38509 -2.0669e-16)
(-2.58351 6.85349 8.24653e-19)
(3.77085 0.235186 9.98034e-18)
(-0.0484143 5.03717 -4.15388e-17)
(-1.73781 7.90977 1.81356e-17)
(0.154586 6.04144 -1.73731e-18)
(0.308392 -0.953579 0)
(-0.102696 -1.40228 0)
(-1.45947 6.28068 -4.44076e-17)
(5.85091 0.263842 1.69192e-18)
(7.7218 0.257032 -1.41998e-17)
(-0.128855 6.60942 1.03107e-16)
(3.17866 4.77013 -2.12412e-17)
(2.96459 0.223789 7.02378e-17)
(2.25478 0.167126 7.48515e-18)
(-0.917894 6.11697 3.16774e-17)
(-1.98447 6.51159 -6.59252e-17)
(0.682191 4.48005 2.81242e-16)
(-2.06373 6.57316 -6.08101e-17)
(-0.572155 0.766023 0)
(-1.15771 0.717968 -8.10126e-17)
(-0.138066 4.44574 -7.44501e-17)
(0.425829 5.24515 0)
(7.32822 0.790591 -9.95146e-18)
(-3.60464 0.460767 4.41379e-17)
(5.58187 0.565987 0)
(0.156605 6.5905 0)
(6.6934 2.34857 -2.64173e-17)
(-0.196442 7.43216 1.08258e-17)
(0.219869 6.09245 -4.88044e-18)
(-2.18812 4.5154 0)
(0.86503 2.92401 5.69313e-17)
(-2.81088 -0.0996761 4.31875e-16)
(-3.53825 -0.54437 -3.17254e-16)
(2.6689 0.241432 -3.77791e-17)
(1.39876 0.619517 6.81297e-17)
(-2.61954 0.086593 1.37038e-16)
(-3.86904 0.0847044 0)
(1.01065 3.57733 -5.23526e-17)
(3.18696 4.9067 -1.36105e-18)
(1.01503 1.24655 8.01874e-17)
(2.20993 5.43772 -1.8813e-17)
(-1.64456 4.88076 0)
(-0.840595 3.79274 7.79782e-17)
(-1.4077 4.50191 5.42843e-17)
(0.839694 -0.930024 0)
(8.57622 0.414168 1.54572e-16)
(-0.324394 3.3914 0)
(-2.12197 6.28489 0)
(3.8577 4.8048 -2.47234e-18)
(-2.18057 6.18977 1.255e-16)
(0.124142 1.16964 1.63759e-16)
(1.69756 -0.12654 -2.0609e-16)
(-0.102148 -0.95408 1.82285e-16)
(0.731517 0.483567 2.20607e-16)
(-0.367478 3.00591 0)
(-0.333732 2.89096 1.01919e-19)
(0.024213 1.88059 -1.98375e-16)
(7.90827 0.198715 -7.31891e-17)
(-0.666259 -0.294067 5.26566e-17)
(-0.438539 3.56025 2.75546e-16)
(2.0161 0.347541 -1.24937e-16)
(2.66981 2.4195 1.33804e-17)
(6.76254 0.118233 4.35667e-17)
(4.98395 0.434297 -7.15297e-17)
(0.134873 7.26521 8.34886e-17)
(0.080381 5.51403 4.11557e-19)
(0.084018 5.42385 6.59102e-17)
(0.0335436 5.20683 6.02925e-19)
(0.0663026 5.31392 0)
(0.147085 7.98499 -7.32988e-17)
(0.0625354 5.50965 -1.26302e-16)
(-0.0457745 4.0644 -7.18641e-19)
(-0.114269 4.5589 -1.82283e-17)
(-0.0972068 4.21177 0)
(0.0221589 4.13203 4.14933e-17)
(0.136188 6.75626 0)
(0.291758 8.77598 0)
(0.0423708 4.27011 -5.51146e-17)
(0.238071 5.8581 -3.89216e-18)
(0.182271 6.32004 -3.69442e-18)
(0.0458216 4.31375 1.76057e-17)
(0.0269703 5.39305 6.61167e-17)
(-0.00369444 5.3004 0)
(0.0348284 4.28813 -2.43396e-17)
(-0.00865225 5.23034 0)
(-0.00131518 5.23758 0)
(0.0226331 4.23858 1.81803e-17)
(0.0056163 5.25788 0)
(-1.22471 4.02763 6.0106e-17)
(6.32447 3.63978 -4.82809e-17)
(-1.17308 0.0443198 1.8445e-16)
(-1.239 1.17322 0)
(0.823117 2.00207 -1.16092e-16)
(-0.677977 -0.137753 9.11839e-17)
(-0.369 0.555896 4.76783e-16)
(8.12588 1.30068 -2.03959e-17)
(-0.20045 7.41508 -1.34253e-17)
(0.494054 6.39098 0)
(-0.564865 0.062686 4.66922e-16)
(1.93491 -0.747323 2.18037e-16)
(-0.248245 1.03177 0)
(5.67087 0.213925 3.36203e-17)
(0.315024 -0.799559 -2.24917e-16)
(-0.1284 1.2049 -1.26183e-16)
(6.82364 2.92854 8.78867e-17)
(0.648609 1.16577 -6.00371e-17)
(-1.38968 4.65174 5.9226e-17)
(0.481988 0.482044 -4.78502e-17)
(2.63035 -0.0128623 -7.72614e-17)
(7.89958 1.10946 -2.85015e-19)
(-0.814466 0.181873 -2.60368e-16)
(-0.00439466 5.27868 0)
(0.578567 2.86451 3.27875e-16)
(2.76032 5.26167 7.26129e-19)
(-0.587911 0.384056 6.05026e-17)
(0.20218 1.91493 0)
(9.69562 0.269258 3.12734e-17)
(-0.0293964 2.47397 -1.03169e-16)
(1.08739 -0.10927 3.6473e-18)
(-1.30367 4.09089 8.16715e-17)
(-1.30379 6.99274 0)
(-0.876617 6.18724 5.34099e-18)
(-1.95191 6.20794 -3.83726e-17)
(8.2459 2.00235 2.49212e-17)
(-2.51937 -1.75523 1.77584e-16)
(-0.839784 -1.00796 -2.26091e-16)
(0.757533 -0.97443 1.55965e-16)
(-0.611339 -0.000961461 -5.99013e-17)
(-0.721118 6.33864 2.28301e-17)
(-0.0841521 5.94056 3.24394e-21)
(0.131767 4.69097 -1.63492e-17)
(-1.40076 1.30075 0)
(1.4572 6.02415 6.44938e-19)
(-2.48794 1.9907 3.4703e-17)
(1.04818 0.0312684 1.08151e-16)
(0.207568 -1.07195 0)
(-2.44421 2.13325 -2.22554e-16)
(-0.0591922 5.48476 0)
(10.2538 0.782616 2.15242e-18)
(-2.82586 6.85309 0)
(1.11263 5.51688 -4.76169e-17)
(0.179422 0.927168 1.4949e-16)
(-1.33868 -1.79749 1.79567e-16)
(1.1082 -0.234117 0)
(1.04208 -0.168328 -2.89866e-17)
(-0.0302404 5.01698 2.89576e-19)
(-0.147797 -1.05911 0)
(2.0422 -0.0576657 0)
(0.830456 5.8879 -1.32185e-16)
(0.0231651 6.45881 -7.85664e-18)
(7.16213 0.0748448 0)
(1.2529 1.00323 -8.706e-17)
(1.6428 -0.309496 -1.98395e-16)
(-1.9946 -0.730255 0)
(-0.974211 3.38091 1.9168e-16)
(-0.917026 0.793068 -1.23976e-16)
(7.93219 4.9239 1.64512e-17)