/*--------------------------------*- C++ -*----------------------------------*\
| =========                 |                                                 |
| \\      /  F ield         | OpenFOAM: The Open Source CFD Toolbox           |
|  \\    /   O peration     | Version:  v1912                                 |
|   \\  /    A nd           | Website:  www.openfoam.com                      |
|    \\/     M anipulation  |                                                 |
\*---------------------------------------------------------------------------*/
FoamFile
{
    version     2.0;
    format      ascii;
    class       volScalarField;
    location    "0.75";
    object      k;
}
// * * * * * * * * * * * * * * * * * * * * * * * * * * * * * * * * * * * * * //

dimensions      [0 2 -2 0 0 0 0];


internalField   nonuniform List<scalar> 
1431
(
0.0334093
0.48684
1.50356
0.946476
0.0375322
0.52433
0.224037
0.196732
2.40497
1.21595
0.304752
0.0756204
0.081977
0.932116
1.43837
0.429344
1.55543
0.163752
0.298672
0.276559
0.0422526
1.2996
0.815049
1.01787
0.88129
0.256954
0.869346
0.854806
0.499657
0.0904187
0.893885
0.314464
0.83146
0.140534
0.149871
0.977935
0.268466
0.313389
0.363932
0.306307
1.95228
0.246155
0.141638
0.15569
1.18648
0.0456004
0.92662
0.211007
0.422838
0.397764
0.0977741
0.936831
1.69839
0.212759
0.183802
0.203451
0.775227
1.13355
0.763457
0.0443056
1.11964
0.210295
1.08335
0.29226
0.593304
0.16255
1.39269
0.431329
0.648232
0.322706
0.112184
0.121104
0.20113
0.449476
0.226323
0.62014
0.0472809
1.38825
0.224004
1.29137
0.269437
0.109091
0.14647
1.17654
1.2691
0.0493755
0.0511583
0.251754
1.11527
0.245747
0.162438
0.485596
0.0587442
0.312524
0.152374
0.0516948
0.203911
0.264951
0.0496905
0.613421
0.77132
0.223012
0.208758
0.0398469
0.430242
0.115059
0.240092
2.29381
1.21845
0.0453565
1.49891
0.17269
0.215193
0.212668
0.400967
0.0388314
0.157277
0.874483
1.22974
0.939096
0.292818
1.45584
0.917025
0.90597
0.293551
0.183465
1.36977
0.104569
0.0466293
0.486943
0.15438
1.99128
0.737566
0.264727
0.0635554
0.719789
0.23262
0.132289
0.0744212
2.06569
1.55464
0.0685237
0.28976
0.442484
0.510011
0.373574
0.26693
2.3297
0.257658
0.360343
0.506403
0.638511
0.2565
0.081217
0.164729
0.0892357
0.283075
0.221587
0.207222
0.257819
0.154355
0.291927
0.0978623
0.217208
0.0435899
1.86284
0.0529825
0.304518
0.0927826
0.272129
0.629778
0.380752
0.855012
0.385682
0.282651
0.0320403
0.0808318
0.498329
0.0954134
0.217824
0.316463
1.10032
0.207178
0.239044
0.348332
0.386111
0.231314
0.763749
0.255944
0.299194
0.178378
1.73624
0.0488174
0.254151
2.58357
0.276649
0.234252
0.261876
0.171412
0.127753
0.0883284
0.728864
0.31922
2.03253
0.246266
1.00848
0.0544204
0.305095
0.27084
0.474132
0.264219
0.215708
1.16875
0.299664
0.43758
0.572404
0.200447
0.103457
0.433298
0.304257
0.291792
1.15979
0.430518
1.80258
0.318485
0.531665
0.531518
0.250636
0.414975
0.938383
0.0464748
0.618044
0.30237
0.20102
0.19676
0.204768
0.287023
0.049993
0.274438
0.197605
0.311146
0.284823
2.4148
1.51081
0.0893242
0.0997217
0.309229
0.17283
0.173816
0.540207
0.266507
2.48683
1.20234
0.498195
1.08947
0.664085
0.0824363
0.197431
0.622036
0.645595
0.677361
0.124858
0.0450313
1.63598
0.198713
0.403331
0.574938
0.250523
0.421885
1.98227
0.239854
0.487757
0.264937
0.26389
0.693561
0.272058
0.228101
0.10971
0.118812
1.22408
2.17544
0.200907
0.321562
0.24998
0.602928
0.754813
0.0491102
0.191105
0.479334
0.29245
0.391517
0.333541
0.193185
0.102795
0.289496
0.214765
0.0469342
0.253259
0.247388
0.237615
0.322624
0.546616
0.0766848
0.228865
0.186288
0.30809
0.281583
0.65355
0.632366
0.094572
0.304521
0.337372
1.00596
0.0748789
0.121462
0.347593
1.26263
0.198693
0.197841
0.662683
0.282748
0.501101
1.32434
0.240078
1.4691
0.765721
0.257351
0.787581
1.23259
0.293921
0.509987
0.0746733
0.171725
0.144726
0.277834
2.27555
0.103188
0.337043
0.111488
0.083475
0.0928862
0.263594
0.878543
0.437879
0.941981
0.0320658
0.323244
0.0518534
0.048326
0.0979833
0.0486211
0.040946
0.058216
0.108027
0.0657319
0.066505
0.0470715
0.0393926
0.106911
0.0979459
0.0726071
0.0840002
0.104053
0.0168024
0.066072
0.0475629
0.090521
0.107661
0.628689
0.729718
0.432387
0.163066
0.5957
0.332671
0.0879463
0.925109
0.507012
0.327887
0.362147
0.103469
0.0378338
0.0447242
0.0801514
0.0520835
0.108499
0.0977078
0.109728
0.0511873
0.109368
0.0296736
0.0553854
1.35562
0.455738
0.362254
0.680701
0.0963733
0.195022
0.315572
1.01164
0.279537
0.0764359
0.463741
0.30796
0.121037
0.479483
0.32778
0.17577
0.25076
0.0853102
0.585385
0.617699
0.236863
0.106113
1.17864
0.472616
0.690964
0.53649
2.03662
0.154473
0.123691
0.223036
0.385775
1.17039
0.248889
0.28662
0.602997
0.35709
1.00767
1.75341
0.734664
1.8038
0.203813
0.20432
0.597591
0.203085
0.719761
0.467083
0.614208
0.224038
0.275075
0.229588
1.15889
0.472782
0.385034
0.0923248
0.688622
0.989283
0.165465
0.0746697
0.938111
0.736388
1.00474
0.916638
1.19208
0.458668
1.16146
0.963261
0.842675
1.0839
0.19393
1.28855
0.35634
0.299182
0.413398
0.177405
0.156243
0.0738609
1.60288
0.247367
0.161319
1.46005
0.133639
0.222982
0.726155
0.261656
0.144796
1.29486
1.24304
1.77709
0.136717
0.36443
0.127551
0.746569
0.2072
0.311757
0.25891
0.486153
1.09297
0.664656
0.0563016
0.0560503
0.247312
0.142
1.42334
0.17382
0.120085
1.05747
0.212941
0.325231
0.21565
0.597788
1.37371
1.03411
0.866123
0.677188
0.0908265
0.135873
1.13623
0.416984
0.994235
0.864652
0.123314
0.228114
0.518578
0.315544
0.478663
1.58826
1.22026
0.383133
0.151894
0.081904
0.163265
0.110166
0.096855
0.142458
0.551994
0.37146
0.539478
0.13281
0.384178
0.313005
0.23531
0.2492
0.11498
0.809348
0.494739
1.47218
0.395445
0.644402
0.964836
0.93001
1.35665
0.488358
0.505176
0.0390737
1.26517
0.646536
0.217289
0.973405
0.128116
0.229812
0.0424928
0.615687
0.611467
0.187182
0.430324
1.79061
0.564631
0.611914
0.193541
0.728214
0.36673
2.17325
1.64346
1.063
0.230294
0.464579
0.201597
1.01643
0.660091
0.0569272
1.21097
1.08881
1.23583
1.36507
0.196898
0.369732
0.0877076
0.482284
0.446903
0.112657
0.223299
0.378945
0.798219
0.17595
0.40652
0.405262
0.315925
0.103032
0.398955
0.692408
1.11269
0.359632
0.295975
0.276146
0.404426
0.0569948
0.226589
0.204488
0.0583832
0.443495
0.410618
0.125516
0.66778
1.04057
1.04451
0.301189
0.112051
1.43293
1.33239
0.976719
0.729194
0.220649
1.15606
1.17257
0.205201
1.27936
1.10812
1.48812
0.920607
0.109568
0.229688
0.162045
0.0772437
0.112802
0.306979
0.0986265
0.0551629
0.617437
0.229882
1.44286
0.149409
0.0451754
0.238347
0.253834
0.755206
0.112426
0.198048
0.541681
0.154362
0.671196
1.5681
0.247102
0.882675
0.0893869
1.39794
0.648815
1.97779
0.934257
0.154882
0.110239
0.30466
0.262277
0.616484
2.04465
0.688231
0.256774
0.332161
0.269512
0.819005
0.93408
0.070112
0.174952
0.200556
0.28272
0.0366321
0.359069
1.28999
0.860856
0.832939
0.0578097
0.264314
0.167427
1.04889
0.3184
0.312433
0.546867
0.36359
0.0761297
0.49248
1.18528
0.0450043
0.199056
0.10047
0.0928899
0.252194
0.248902
1.28884
0.646867
0.356564
1.17336
1.09671
0.976955
0.0625331
0.535562
0.097704
0.0172684
0.0573081
0.272535
0.202553
1.01686
0.0954808
0.188022
0.0817355
0.0556659
0.665123
0.586515
1.09037
0.362716
2.10088
0.0884283
0.0634921
0.118818
1.31991
1.42763
0.421457
0.509943
2.77637
0.208485
0.0626178
0.413648
0.299181
0.218121
1.58088
0.0855402
0.427623
1.36263
2.01119
0.478528
0.0614506
0.562062
0.0584106
0.472212
0.476487
1.56133
0.189909
0.182166
0.0840653
1.00002
0.178231
1.16962
2.23787
0.316557
0.0658132
0.592656
0.404731
0.211226
0.439721
0.744543
0.0642971
1.7335
0.190724
0.48759
0.517169
0.225457
0.171223
0.350117
0.521423
0.421343
1.54291
0.64179
0.793864
0.783377
0.823053
0.306348
1.02178
0.187454
0.881744
0.614286
0.501582
0.0962839
1.51091
0.0543578
0.104161
0.249051
0.571823
0.0641621
1.00287
0.376041
0.0627451
0.117915
0.0437759
0.534171
1.40565
0.34549
2.40871
0.0623735
0.108237
0.116929
1.76012
0.231548
0.192104
0.897539
0.609165
0.362676
0.309646
0.0500634
0.0982533
1.62644
0.229799
0.446217
1.42256
0.217785
0.0886397
0.0278427
0.262908
0.942342
0.144515
1.09421
0.0438593
0.280636
0.234465
1.45886
0.0642545
1.18921
0.537756
0.527573
0.518749
0.528231
0.503218
0.508791
0.509195
0.552362
0.377666
0.201266
0.384865
0.167811
1.59273
0.0854616
0.058209
0.0667209
0.0679851
0.0877879
0.0826008
0.0862836
0.577101
0.241127
0.619122
0.0683974
0.27441
0.19431
0.257895
0.263354
0.505861
1.50623
0.232571
0.12607
0.356963
0.369118
0.23708
0.468958
0.450578
0.251317
0.121682
0.869045
0.168952
0.796166
1.48717
0.320633
0.344817
0.2251
0.239644
0.0901335
0.153063
0.163809
0.0405145
0.215712
0.204145
0.0488296
0.0961905
0.315462
0.886095
0.113591
0.6004
0.0898575
0.248299
0.177424
0.168894
0.0994783
0.248243
0.0530339
0.0715086
0.176283
0.117283
0.293108
0.0353958
0.159923
1.33472
1.36444
0.292579
0.447129
1.51616
0.484253
0.269669
0.277659
1.37815
0.0749912
0.110291
0.090732
0.0683132
0.0938589
0.0991792
0.811738
0.602354
0.802929
0.753719
0.489645
0.157055
0.0814566
0.272198
0.170287
0.223005
2.1034
0.13234
0.894987
0.793376
0.551535
0.356931
0.193213
0.0674549
0.149577
0.219576
0.156795
0.233137
0.211538
0.712572
0.0712101
0.5303
1.50329
0.527543
2.01026
0.190039
0.262687
0.345042
0.304985
0.32548
0.364509
0.281555
0.252659
0.33905
0.0472961
0.0526716
0.250562
0.21428
0.037489
0.093898
1.53804
0.0481653
0.125492
0.0221239
1.42712
0.0240427
0.456887
0.521701
1.9742
0.10618
0.162273
0.137702
0.537749
0.158705
1.34866
1.8238
0.173456
0.116525
0.394867
0.0254855
0.099859
0.746361
0.0213089
0.770689
1.15757
0.899945
0.377461
0.577859
1.38265
1.09823
0.23989
0.039348
0.0522021
0.086864
0.562046
0.403736
0.349378
1.14372
0.942263
0.614176
0.0581921
1.41132
0.0191538
0.5926
0.0219616
0.252562
0.302242
0.490389
0.328068
0.123887
2.37214
0.659873
1.65633
0.0441337
0.744148
0.887811
0.455877
0.212291
0.221449
0.19836
0.62374
1.69695
0.350427
0.210232
1.44215
1.31037
0.228221
0.264005
0.780083
1.40549
0.965122
1.22776
0.161553
1.65065
0.761445
1.04387
0.19131
1.00494
0.725677
0.139507
0.285974
0.119744
0.405895
2.10768
1.31443
1.30631
0.398544
1.52895
0.169707
1.47501
1.27271
0.316444
0.112958
0.123143
0.6361
0.0368956
0.0358125
0.0919381
0.178184
0.179746
1.43274
1.72546
0.189678
1.35947
0.158453
0.461062
1.86026
0.906534
0.157879
0.159906
0.16097
0.39829
0.0539055
0.204047
0.224249
1.81405
0.349467
0.57515
0.212776
0.108383
0.379576
0.309256
0.327414
1.74099
0.15707
0.202148
0.489204
0.860505
0.244079
0.0897665
0.0379533
0.773283
0.353087
0.355093
0.0222231
0.103014
0.0936778
0.168534
0.244531
0.0227628
0.528583
0.799939
0.448471
1.91017
0.490527
0.385007
0.0905646
0.206405
0.507705
0.0182427
0.149657
0.334496
0.0483208
1.18519
1.30721
0.0240768
0.383109
0.840876
0.0511735
0.375197
0.855632
0.0502533
0.0922223
0.63677
0.132311
1.8081
0.130911
0.681591
0.0979768
0.894813
0.592161
0.141849
0.461214
0.249704
0.123828
0.105585
0.366567
0.0274279
0.976653
0.0185586
0.108547
0.559053
0.22056
0.184527
0.355926
0.206887
0.0343297
2.49803
0.147679
0.239339
0.30961
0.566142
0.111956
0.0578917
0.0914764
0.164989
2.83095
1.44725
0.138134
0.207089
0.718428
0.0485643
1.01631
0.259448
1.36665
0.0409054
0.0931343
1.65925
0.124511
0.142867
2.01494
0.785288
0.512061
0.287286
1.2957
0.0243656
0.103554
0.0880846
1.55169
1.02691
0.980717
0.0489707
0.0930623
0.0203504
0.336462
0.321265
2.38779
0.874861
0.602804
0.36632
0.204697
0.155529
0.10222
0.713646
0.858155
1.2827
0.192057
0.046499
0.703221
0.63394
1.54605
1.93993
0.432596
0.0735336
0.135296
1.17385
0.544555
0.0258893
2.03748
2.00396
0.749651
1.01143
0.131387
0.300558
1.32163
0.838425
1.07323
0.101436
2.11847
0.676492
0.345972
0.0627196
1.49248
0.351684
0.359977
0.880882
1.64896
0.266012
0.110112
0.152368
1.6435
0.267964
0.191954
1.08299
0.121144
1.59818
0.431009
0.034607
1.6497
0.196021
0.292106
0.265451
0.41209
0.3441
0.610364
1.34974
0.0393489
0.912472
0.0262841
1.3765
0.782266
0.0608583
0.197127
0.0445534
0.134893
1.47272
0.834111
0.207364
0.244103
1.18231
0.0598136
0.0999493
0.792399
0.269985
0.046027
0.235717
0.201857
0.168794
1.80787
1.26846
1.10693
0.462275
1.72169
0.141651
0.0623425
0.186867
1.49139
1.37421
0.395558
0.340814
0.671072
1.20091
0.124344
2.13268
0.629963
0.111159
0.130168
0.264921
0.332031
0.226125
0.391984
0.258363
0.566489
0.678416
0.38473
0.345249
0.229926
0.391448
0.319639
1.42845
1.58838
2.52425
1.34777
0.160891
1.50373
0.753119
1.38116
0.0645995
0.0498231
0.350866
0.171657
1.56584
0.0718777
0.0671245
2.00548
0.228922
1.35794
1.75028
1.35912
1.05286
1.25148
0.328313
0.311954
1.42031
0.333691
0.4196
0.035104
0.611559
0.412859
0.0404817
0.683277
1.95228
0.108405
0.114846
0.0429569
0.0221121
0.149055
1.41397
0.135377
1.32102
0.77725
0.355795
1.09525
0.169737
0.208256
0.355181
0.0474267
0.184908
0.212919
0.090748
1.17755
0.231432
0.498572
0.0424336
0.239399
0.378475
0.0878085
0.994652
0.0219505
0.130734
0.109885
0.212573
0.0582741
0.0761603
0.109315
0.522184
0.172463
0.440769
0.130606
0.183514
0.16708
0.53597
0.280464
0.53269
0.155526
0.173975
0.243017
0.183498
1.36696
0.468658
0.259802
0.204594
0.0597639
0.394978
0.625548
0.207568
0.251352
0.0974793
0.456351
0.125548
1.01419
0.0605222
0.243416
1.51079
0.353786
0.990122
0.190164
2.20064
0.234771
0.710407
1.2639
0.336532
0.346905
0.0394106
0.384055
0.265436
0.880835
0.469807
1.72627
0.0597157
0.765626
0.0630538
0.0256847
0.369703
0.114585
0.342475
0.275925
0.913551
0.55587
0.911781
0.635252
0.586865
0.648296
0.20633
0.190203
0.99169
2.32036
1.41724
0.312629
0.297497
2.48642
1.46885
2.73146
1.39644
1.00151
0.46045
0.206319
0.754024
0.387687
0.134371
0.65147
1.51322
0.132583
0.553847
0.826555
)
;

boundaryField
{
    frontAndBack
    {
        type            empty;
    }
    wallOuter
    {
        type            kqRWallFunction;
        value           nonuniform List<scalar> 
90
(
0.429344
0.421457
0.413648
0.427623
0.478528
0.472212
0.476487
0.592656
0.404731
0.48759
0.517169
0.614286
0.501582
0.571823
0.534171
0.897539
0.537756
0.527573
0.518749
0.528231
0.503218
0.508791
0.509195
0.552362
0.505861
0.802929
0.753719
0.5303
0.527543
0.345042
0.304985
0.32548
0.364509
0.281555
0.252659
0.21428
0.0221239
0.0240427
0.456887
0.162273
0.0254855
0.099859
0.746361
0.0213089
0.039348
0.0522021
0.0191538
0.5926
0.0219616
0.659873
0.780083
0.405895
0.461062
0.57515
0.489204
0.0222231
0.0227628
0.528583
0.799939
0.385007
0.507705
0.0182427
0.0240768
0.840876
0.63677
0.681591
0.894813
0.0274279
0.976653
0.0185586
0.512061
0.0243656
0.980717
0.0203504
0.874861
0.858155
0.432596
0.544555
0.0258893
0.749651
0.431009
0.912472
0.0262841
0.462275
0.38473
0.0221121
0.994652
0.0219505
0.522184
0.394978
)
;
    }
    inlet
    {
        type            fixedValue;
        value           uniform 0.375;
    }
    outlet
    {
        type            zeroGradient;
    }
    wallInner
    {
        type            kqRWallFunction;
        value           nonuniform List<scalar> 
138
(
0.0756204
0.298672
0.83146
0.140534
0.149871
0.246155
1.39269
0.431329
0.112184
0.121104
0.62014
0.737566
0.081217
0.164729
0.0320403
0.0808318
0.171412
0.127753
0.0883284
0.728864
1.80258
0.664085
0.0824363
0.622036
0.645595
0.677361
0.574938
0.693561
0.602928
0.65355
0.632366
0.0928862
0.0320658
0.0518534
0.048326
0.0979833
0.0486211
0.040946
0.058216
0.108027
0.0657319
0.066505
0.0470715
0.0393926
0.106911
0.0979459
0.0726071
0.0840002
0.104053
0.0168024
0.066072
0.0475629
0.090521
0.107661
0.103469
0.0378338
0.0447242
0.0801514
0.0520835
0.108499
0.0977078
0.109728
0.0511873
0.109368
0.0296736
0.0553854
0.0764359
0.236863
0.690964
0.20432
1.15889
0.0923248
0.0746697
0.35634
0.726155
0.136717
0.746569
0.0563016
0.0560503
0.247312
0.17382
1.05747
1.37371
0.994235
0.864652
1.22026
0.0390737
0.0424928
0.615687
0.611914
0.0569272
0.0583832
0.0451754
0.0366321
0.0450043
0.0172684
0.0573081
0.0614506
0.0584106
0.316557
0.64179
0.187454
0.249051
0.0437759
0.609165
0.0278427
0.0667209
0.619122
0.0683974
0.121682
0.272198
0.712572
0.0472961
0.0526716
0.093898
0.577859
0.614176
0.0581921
0.744148
0.887811
0.0539055
0.0379533
0.773283
0.0511735
0.206887
0.147679
0.718428
0.0485643
0.155529
0.10222
0.034607
0.297497
0.754024
0.387687
0.134371
1.51322
0.132583
0.826555
)
;
    }
    procBoundary0to1
    {
        type            processor;
        value           nonuniform List<scalar> 
29
(
0.204419
0.270394
0.264217
0.264217
1.62178
1.62178
2.01186
0.356092
1.28175
0.394344
0.390248
1.11449
0.168553
0.173202
1.3077
0.610915
2.2945
2.14325
0.363745
0.287105
0.328287
0.223406
1.44617
0.293544
0.292278
2.14325
0.25837
0.824307
0.293544
)
;
    }
    procBoundary0to2
    {
        type            processor;
        value           nonuniform List<scalar> 
42
(
1.18518
1.24896
0.042937
0.0412429
0.315527
1.18518
0.042937
0.0454798
0.163455
0.0771623
0.545088
0.76015
0.545088
0.849838
0.976709
0.938927
0.976709
0.0733945
0.0983313
0.237821
0.237821
0.0733945
0.0644867
0.206606
0.206606
0.0695749
0.349952
0.0618657
0.693522
1.2468
1.2468
0.0575624
0.0570085
0.0598328
0.0638004
0.042937
1.16957
0.0259333
0.693522
0.0454798
0.0540331
0.0609339
)
;
    }
}


// ************************************************************************* //
