/*--------------------------------*- C++ -*----------------------------------*\
| =========                 |                                                 |
| \\      /  F ield         | OpenFOAM: The Open Source CFD Toolbox           |
|  \\    /   O peration     | Version:  v1912                                 |
|   \\  /    A nd           | Website:  www.openfoam.com                      |
|    \\/     M anipulation  |                                                 |
\*---------------------------------------------------------------------------*/
FoamFile
{
    version     2.0;
    format      ascii;
    class       volScalarField;
    location    "0.56";
    object      k;
}
// * * * * * * * * * * * * * * * * * * * * * * * * * * * * * * * * * * * * * //

dimensions      [0 2 -2 0 0 0 0];


internalField   nonuniform List<scalar> 
1466
(
0.0619375
0.106581
0.0418141
0.0579298
0.0893837
0.75463
0.177336
0.119429
0.276424
0.286334
0.032191
0.22426
0.0179016
0.0595003
0.0698211
0.0680815
0.0366933
0.0807475
0.112524
0.054218
0.107694
0.127209
0.0597329
0.0975116
0.0591213
0.065525
0.0870726
0.169727
0.074821
0.106561
0.115014
0.682539
0.105138
0.185571
0.0929269
0.0781665
0.0564236
0.0608074
1.09505
0.0825224
0.231626
0.23625
0.262397
0.144251
0.262194
0.346835
0.0617713
0.0692038
0.257742
0.095309
0.0397687
0.187511
0.0730655
0.660209
0.0626259
0.288575
0.0539522
0.105769
0.117135
0.332714
0.0642287
0.133725
0.0956961
0.670907
0.113438
0.0731503
0.25686
0.117537
0.0546616
0.122718
0.0402641
0.0559984
0.0606154
0.056792
0.0207536
0.411188
0.0578852
0.0716561
0.110303
0.26612
0.0368404
0.0563204
0.0783801
0.272619
0.0577909
0.0722002
0.0423615
0.158252
0.0662087
0.104251
0.0610091
0.0729861
0.238369
0.0524445
0.0415757
0.107594
0.122984
0.119507
0.124523
0.0677614
0.125748
0.205754
0.044175
0.056741
0.0679824
0.351744
0.118098
0.0768461
0.103594
0.0544348
0.107282
0.0636257
0.084831
0.0662146
0.0209308
1.09681
0.0430341
0.0523146
0.112513
0.118545
0.111143
0.0805064
0.0341366
0.186962
0.0668649
0.414041
0.0527296
0.0518898
0.333704
0.123178
0.276428
0.0614624
0.0586326
0.235678
0.0451393
0.221047
0.220248
0.0383846
0.312294
0.0593303
0.194565
0.072712
0.411793
0.19127
0.290361
0.0600045
0.0611591
0.0615075
0.198315
0.0625437
0.439336
0.0684006
0.0967813
0.130195
0.0619304
0.0552225
0.0600556
0.339798
0.158833
0.0619624
0.197682
0.0771913
0.0765519
0.110306
0.218731
0.198235
0.133411
0.04818
0.065306
0.0935436
0.089716
0.0664464
0.0573938
0.201913
0.0797183
0.148726
0.243641
0.333831
0.0604154
0.276448
0.0739973
0.0750351
0.344598
0.0666055
0.174765
0.0515242
0.086441
1.2234
0.0845819
0.0460517
0.10004
0.0569055
0.0770956
0.104489
0.0665679
0.0611228
0.350927
0.055394
0.0512322
0.0513589
0.147083
0.0636437
0.0730895
0.065666
0.0710252
0.311095
0.0822961
0.292633
0.0666897
0.075942
0.0684088
0.191992
0.0623561
0.066218
0.119142
0.0871101
0.0368413
0.0206776
0.0554086
0.0535495
0.0895189
0.0861381
0.0633707
0.0664645
0.183333
0.0693917
0.0498299
0.0829353
0.0773836
0.163619
0.0501939
0.143233
0.0602328
0.156558
0.0763672
0.0692664
0.174186
0.125959
0.217096
0.0622955
0.206978
0.266315
0.0716296
0.207852
0.266843
0.0549947
0.0209401
0.0705725
0.0284228
0.062177
0.0586388
0.262197
0.324876
0.170136
0.0646188
0.27037
0.0523325
0.137018
1.33472
0.36809
0.0658621
0.0729768
0.317169
0.0604197
0.869817
0.0709306
0.382563
0.109897
0.0656406
0.0540136
0.231924
0.0763709
0.052636
0.0537201
0.0705596
0.150324
0.141666
0.0765857
0.0584299
0.28958
0.0610986
0.0440874
0.066939
0.0485352
0.0791486
0.0556797
0.113067
0.0686725
0.132802
0.0589865
0.0684692
0.501436
0.132286
0.351016
0.387043
0.0652319
1.15774
1.21078
0.072431
0.0388793
0.0955533
0.266102
0.0476013
0.157255
0.0647549
0.0584074
0.0523747
0.226097
0.0328827
1.47714
0.173894
0.0448379
0.0670782
0.194712
0.315401
0.061507
0.0931113
0.0598776
0.3746
0.0633206
0.0646765
0.20427
0.400155
0.0476637
0.0430771
0.0355905
0.0269553
0.0462576
0.0150854
0.0340037
0.0535642
0.0489897
0.0201765
0.0367815
0.0457133
0.0469255
0.0329529
0.0344805
0.0520889
0.027017
0.0630049
0.052525
0.0203684
0.0337588
0.0414196
0.014665
0.0629801
0.0480781
0.104636
0.133898
0.376347
0.0632672
0.350262
0.174002
0.19071
0.0611373
0.118857
0.0725523
1.31634
0.0714447
0.1236
0.226573
0.194137
0.0379538
0.0799821
0.0449843
0.0318211
0.015016
0.0511069
0.0666414
0.0168667
0.0432755
0.0611498
0.0475355
0.0344472
0.0491288
0.0284158
0.626995
0.0561575
0.0485129
0.0399867
0.180616
0.22741
0.0480182
0.152226
0.0950766
0.0778161
0.0715276
0.162516
0.190211
0.276543
0.184636
0.150365
0.530911
0.0403756
0.0548589
0.161913
0.0393112
0.0634743
0.0222288
0.0451556
0.0264024
0.155047
0.066049
0.315417
0.0875713
0.228885
1.32418
0.0834839
0.0872527
0.0742811
0.15348
0.0581341
0.105871
0.180092
0.366679
0.244626
0.139066
0.251159
0.308067
0.147229
0.0588013
0.161296
0.173694
0.18804
0.216901
0.122359
0.14801
0.199038
0.223099
0.101904
0.0683074
0.283865
0.320111
1.0171
0.383326
0.142556
0.127485
0.112526
0.117851
0.125567
0.194658
0.271572
0.128112
0.127427
0.130261
0.125671
0.132437
0.84568
0.118714
1.08202
0.159847
0.107269
0.197233
0.121254
0.0795592
0.152112
0.169257
0.045326
0.113991
0.108975
0.264228
0.218878
0.127077
0.227333
0.0644539
0.301798
0.0739001
0.10089
0.0467819
0.261608
0.143837
0.116051
0.104073
0.668729
0.122768
0.0423371
0.0411407
0.122961
0.73556
0.10074
0.0829279
0.607281
0.0886065
0.131535
0.0929498
0.0858932
0.0388364
0.522684
0.42316
0.14887
0.0891948
0.0926642
0.0403804
0.146049
0.135931
0.607876
0.110723
0.0794199
0.0982564
0.0700745
0.0794739
0.106334
0.135176
0.0433154
0.172117
0.406237
0.123247
0.123772
0.135064
0.116892
0.170782
0.115018
0.115167
0.0924179
0.118605
0.0713803
0.0787319
0.158971
0.137284
0.173182
0.248274
0.131944
0.782262
0.570923
0.188758
0.171728
0.103327
0.0567659
0.0441405
0.0838119
0.170586
0.11508
0.114311
0.111281
0.108056
0.22561
0.189879
0.0818599
0.126955
0.141281
0.168537
0.142653
0.150002
0.119144
0.0841715
0.033667
0.450944
0.200034
0.0544355
0.0774343
0.0658421
0.210422
0.304763
0.180016
0.16861
0.0917241
0.0626329
0.245468
0.119898
0.0806587
0.233385
0.217913
0.557366
0.363931
0.390684
0.0641668
0.0755453
0.113499
0.655222
0.0619408
0.112049
0.117758
0.238295
0.0412055
0.132579
0.15744
0.0431865
0.113527
0.12507
0.382232
0.0735205
0.231556
0.166779
0.0600104
1.28917
0.2399
0.0628266
0.781151
0.162353
0.0436438
0.0553168
0.335219
0.0408542
0.0520588
0.0720326
0.207071
0.469919
0.354647
0.163542
0.890261
0.0465348
0.0744611
0.0367765
0.0505496
0.271043
0.235725
0.0773534
0.177636
0.990416
0.374219
0.62393
0.134449
1.30327
0.0407734
0.0447525
0.313385
0.0666919
0.0980997
0.0526142
0.06107
0.0704165
0.10233
0.43978
0.0603582
0.142742
0.134653
0.0729247
0.0841209
0.375623
0.291365
0.775121
0.0421745
0.0365489
0.204228
0.421727
0.19486
0.235292
0.044384
0.069391
0.0943113
0.0938363
0.0558108
0.0995274
0.0299353
0.239828
0.0368647
0.149086
0.68545
0.0982536
0.0769552
0.658703
0.453727
0.146093
0.120808
0.298462
0.205418
0.182862
0.0957093
0.0399512
0.0701846
0.283274
0.224572
0.132478
0.156866
0.277948
0.208802
0.159795
0.438804
0.463646
0.0897734
0.0738378
0.0862768
0.0358257
0.0415675
0.050482
0.15605
0.307744
0.0618535
0.243038
0.061862
0.0633009
0.0176002
0.0374355
0.206339
0.0335805
0.226265
0.0738262
0.0270153
0.0898592
0.066567
0.0826969
0.0903701
0.213886
0.330042
0.0600559
0.321257
0.0843703
0.436992
0.386486
0.114449
0.0379109
0.404007
0.0975481
0.403921
0.0893969
0.300598
0.50503
0.11584
0.0469308
0.0669704
0.0211601
0.298225
0.0454952
0.0679276
0.0694067
0.360669
0.881075
0.0732729
0.0927789
0.184026
0.230192
0.0724648
0.311411
0.233129
0.067425
0.193126
0.0657188
0.0983296
0.223026
0.158365
0.091415
0.316284
0.049265
0.0412839
0.204414
0.0548932
0.0341026
0.0437977
0.995023
0.0372812
0.0593913
0.0203266
0.024593
0.0465366
0.0732158
0.0467561
0.0402251
0.0592973
0.264307
0.0371
0.0532663
0.0477446
0.493869
0.213711
0.128996
1.39973
0.144857
0.0409249
0.0517512
0.0581109
0.0467426
0.493147
0.0776586
0.0732022
0.129388
0.243133
0.0558635
0.0374193
0.0366176
0.206625
1.06829
0.0667991
0.0155725
0.498892
0.206211
0.0645397
0.292111
0.0748972
0.132079
0.919939
0.0984382
0.0260624
0.0464375
0.496241
0.262225
0.0527995
0.101861
0.0534607
0.0471879
0.0728689
0.0610442
0.0622347
0.0635957
0.120555
0.131863
1.29628
0.0773767
0.173041
0.0295509
0.048709
0.175478
0.0588734
0.0408407
0.0391982
0.0218261
0.134033
0.0589458
0.0507385
0.302749
1.18176
0.0265164
0.105985
0.135524
0.0634346
0.171339
0.0563971
0.0303082
0.12063
0.16269
0.863103
0.0637641
0.235637
0.346398
0.0492923
0.0502148
0.0840977
0.0657129
0.0669924
0.0395408
0.0636745
0.356132
0.0596678
0.020456
0.0512027
0.0596321
0.391434
0.509014
0.0473443
0.0685899
0.0213281
0.0799762
0.297349
0.128209
0.072137
0.27087
0.322181
0.288484
0.194971
0.296896
0.121892
0.413197
0.174845
0.154767
0.0268788
0.0422087
0.186052
0.0470939
0.0371332
0.0598776
0.221388
0.0601481
0.491072
0.137324
0.0649923
0.051882
0.0569424
0.0917732
0.217232
0.0479831
0.0677216
0.06688
0.133834
0.168033
0.0346175
0.0646863
0.0592285
0.118332
1.21766
0.178387
0.0622519
0.0394063
0.0574779
0.0776977
0.0592122
0.0345536
0.12012
0.370625
0.216259
0.113004
0.328638
0.0647702
0.0400635
0.069085
0.0676907
1.03011
0.0573752
0.0692298
0.101868
0.118496
0.0926883
0.0882615
0.242877
0.104429
0.219385
0.0369047
0.0692738
0.0727119
0.259912
0.0416579
0.0792874
0.0308895
0.19859
0.0497855
0.410272
0.0240309
0.255158
0.06774
0.118505
0.0740255
0.136112
0.0640379
0.117889
0.31852
0.167831
0.062774
0.111661
0.109094
0.370364
0.0837489
0.0605664
0.143739
0.229222
0.15134
0.0178982
0.48819
0.0797217
0.254797
0.0888458
0.0200807
0.0203932
0.0196053
0.0196618
0.0585935
0.0533237
0.0613929
0.0607646
0.0209378
0.0622421
0.0649992
0.0216468
0.0229167
0.0241763
0.0963313
0.0246609
0.0248676
0.250857
0.0300919
0.225751
0.0391633
0.0663275
0.573386
0.228145
0.0843203
0.0571591
0.0182772
0.153214
0.0527435
0.0397473
0.0917124
0.0583182
0.185399
0.0309499
0.0390163
0.160878
0.0568734
0.0725804
0.0560816
0.0661607
0.0747603
0.155448
0.127469
1.31063
0.177358
0.107989
0.0394565
0.241681
0.0944955
0.0633464
0.119567
0.109043
0.177968
0.0600069
0.065144
0.114679
0.0401903
0.0378424
1.1198
0.12196
0.675932
0.06178
0.0634355
0.188721
0.1042
0.238185
0.0666652
0.0699884
0.503008
0.0800971
0.0588405
0.106198
0.0525801
0.0395814
0.457979
0.102226
0.268029
0.0761645
0.0641571
0.130277
0.206325
0.0614458
0.0521737
0.41899
0.190644
0.18983
0.198323
0.156164
0.168475
0.0831201
0.842648
0.0951434
0.0367287
0.190742
0.0493893
0.0413492
0.257036
0.810115
0.0115674
0.203547
0.117148
1.40525
0.0144236
0.0652268
0.0939072
0.16192
0.200603
0.127992
0.0204413
0.24203
0.0773235
0.0751374
0.0368483
0.0380334
0.168957
0.0618083
0.269911
0.459928
0.0440017
0.0733987
0.200341
0.864869
0.0629453
0.0422094
0.0221619
0.0728009
0.0912214
0.058995
1.15234
0.147877
0.230073
0.111939
0.0745762
0.0720787
0.0920437
1.27248
0.0917628
0.206628
0.16341
0.0402303
0.0439313
0.1088
0.052468
0.0496248
0.115624
0.0396761
0.246228
1.08815
0.270716
0.0358389
0.0743185
0.0965341
0.209698
0.0726405
0.65368
0.0647876
0.0336758
0.0501661
0.0759275
0.221449
0.0764816
0.0370235
0.0517325
0.0751086
0.120372
0.0703853
0.0307469
0.0198588
0.0507733
0.137537
0.0554262
0.0804998
0.198917
0.0694061
0.0818225
0.0997167
0.049429
0.0606813
0.0761517
0.0669626
0.165281
0.0337972
0.0322615
0.211023
0.0534514
0.0457297
0.0440791
0.0607416
0.04311
0.136316
0.0906481
0.0387029
0.0600378
0.0674247
0.235411
0.0417927
0.0589166
0.26983
0.0470601
0.744098
0.0483353
0.0539622
0.119667
0.212172
0.0706491
0.0811457
0.13637
0.0184238
0.093227
0.237085
0.0409944
0.0652725
0.0431148
0.0542623
0.0657379
0.0512044
0.148464
0.0543871
0.0401109
0.0930653
0.0462912
0.0368674
0.137094
0.326644
0.101096
0.231601
0.0578935
0.0635477
0.0659747
0.0408973
0.033752
0.0432088
0.0679076
0.379173
0.0435073
0.0513483
0.118822
0.715971
0.106008
0.0621822
0.113554
0.0462612
0.176457
0.0790716
0.0624863
0.0511588
0.0368581
0.11232
0.101169
0.136129
0.116247
0.089837
0.0811147
0.0771241
0.0483364
0.0615983
1.37487
0.134254
0.149187
0.0351848
0.280964
0.0918837
0.0618716
0.441331
0.0638015
0.0653755
0.122835
0.0566933
1.07035
0.0508467
0.903029
0.147535
0.0771235
0.0382925
0.0798852
0.890804
0.0700751
0.20511
0.233966
0.205225
0.073806
0.0846718
0.117743
0.111847
0.10715
0.0348485
0.0546987
0.0454157
1.29249
0.133854
0.0646216
0.0616986
0.0913056
0.0342164
0.0657514
0.0480146
0.244488
0.0381583
0.223428
0.0567438
0.0377484
0.136276
0.0578824
0.401115
1.00704
0.172859
1.24085
0.0702732
0.0927045
0.0401225
0.118205
0.124613
1.36864
0.207801
0.408491
0.182866
0.0807416
0.0673175
0.215248
0.214946
0.0412525
0.082455
0.0995983
0.070929
0.167585
0.213759
0.0732043
0.0761677
0.11866
0.048619
0.018934
0.0634948
0.15019
0.310709
0.0216873
1.40736
0.151237
0.208006
0.114123
0.0589798
0.0642698
0.0402624
0.11832
0.241197
1.3186
0.0590928
0.0553291
0.200633
0.194309
0.0716269
0.07204
0.216016
1.46015
0.149069
0.039948
0.2075
0.182873
0.220602
0.0190672
0.262735
0.083532
0.128199
0.457939
0.0114355
0.0822137
0.0449367
0.209641
0.0867657
0.407188
0.0125817
0.169755
0.22684
0.0951055
0.0871439
0.0503317
0.0762718
0.241188
0.0450707
0.108622
0.059448
0.265302
0.0592805
0.0814731
0.222268
0.0732547
0.235932
0.191002
0.0377621
0.177178
0.147281
0.264376
0.0886871
0.360333
0.0605372
0.0858494
0.245185
0.0616399
0.31009
0.0665097
0.068401
0.0584263
0.107465
0.0950767
0.0405665
0.0676527
0.0882322
0.0476598
0.130554
0.0481898
0.0621987
0.0602751
0.20847
0.062461
0.218947
0.0668274
0.0779366
0.0844282
0.189697
0.10508
0.0418303
0.193019
0.0584451
0.0908785
0.0515656
0.0409704
0.0257406
0.088772
0.0436694
0.31961
0.609643
0.0183359
0.0623484
0.0844072
0.072025
0.0963125
0.0430176
0.0652181
0.0513192
0.18332
0.0630913
0.0562286
0.0560047
0.0545115
0.117139
0.0683884
0.255357
0.0718284
0.0692445
0.160531
0.107427
0.117599
0.0636664
0.139106
0.0473488
0.0869365
0.0626447
0.0157864
0.0673188
0.0930361
0.203127
0.0458119
0.282392
0.389513
0.484675
0.0642421
0.0924131
0.193641
0.0395269
0.0777281
0.0764324
0.118638
0.0704879
0.0586277
0.100208
0.0639727
0.103925
0.0788433
0.072007
0.191156
1.37098
0.133289
0.704221
0.0667485
0.107356
0.0620325
0.0629754
0.241878
0.332039
0.0710814
0.0643751
0.0748053
0.103166
0.068528
0.0687187
0.0620268
0.0824113
0.0757159
0.168392
0.0525529
0.086733
0.129512
0.118059
0.326068
0.0567566
0.195139
0.203224
0.0400404
0.0711582
0.118279
0.0674995
0.08533
0.239616
0.0269514
0.213323
0.235173
0.287019
0.0572989
0.16544
0.258125
0.0380729
0.97956
0.204152
0.333762
0.0842861
0.179471
0.101337
0.191052
)
;

boundaryField
{
    frontAndBack
    {
        type            empty;
    }
    wallOuter
    {
        type            kqRWallFunction;
        value           nonuniform List<scalar> 
102
(
0.0179016
0.0179016
0.0597329
0.0207536
0.0209308
0.0328827
0.0403756
0.0176002
0.049265
0.0412839
0.0548932
0.0341026
0.0593913
0.0203266
0.024593
0.0465366
0.0467561
0.0532663
0.0581109
0.0558635
0.0155725
0.0260624
0.0464375
0.0295509
0.048709
0.0492923
0.0502148
0.0268788
0.0598776
0.0497855
0.0240309
0.0200807
0.0203932
0.0196053
0.0196618
0.0585935
0.0533237
0.0613929
0.0607646
0.0209378
0.0622421
0.0649992
0.0216468
0.0229167
0.0241763
0.0246609
0.0248676
0.0391633
0.0663275
0.0583182
0.0309499
0.0568734
0.0661607
0.0600069
0.065144
0.0378424
0.06178
0.0634355
0.0525801
0.0395814
0.0493893
0.0115674
0.0144236
0.0204413
0.0618083
0.0221619
0.0745762
0.052468
0.0496248
0.0336758
0.0370235
0.0517325
0.0198588
0.0507733
0.0554262
0.049429
0.0337972
0.0457297
0.136316
0.0470601
0.0539622
0.0184238
0.0512044
0.0543871
0.101096
0.0432088
0.0513483
0.0511588
0.0483364
0.0454157
0.048619
0.018934
0.0190672
0.0114355
0.0125817
0.0503317
0.0616399
0.0405665
0.0476598
0.0183359
0.0430176
0.0513192
)
;
    }
    inlet
    {
        type            fixedValue;
        value           nonuniform 0();
    }
    outlet
    {
        type            zeroGradient;
    }
    wallInner
    {
        type            kqRWallFunction;
        value           nonuniform List<scalar> 
138
(
0.032191
0.0366933
0.074821
0.106561
0.187511
0.0730655
0.660209
0.0626259
0.133725
0.0729861
0.125748
0.056741
0.0341366
0.194565
0.072712
0.0600045
0.0611591
0.04818
0.0460517
0.10004
0.0569055
0.0206776
0.0716296
0.0549947
0.0209401
0.0705725
0.0284228
0.062177
0.869817
0.0440874
0.066939
0.0686725
0.0476637
0.0430771
0.0355905
0.0269553
0.0462576
0.0150854
0.0340037
0.0535642
0.0489897
0.0201765
0.0367815
0.0457133
0.0469255
0.0329529
0.0344805
0.0520889
0.027017
0.0630049
0.052525
0.0203684
0.0337588
0.0414196
0.014665
0.0629801
0.0480781
0.0725523
0.0379538
0.0799821
0.0449843
0.0318211
0.015016
0.0511069
0.0666414
0.0168667
0.0432755
0.0611498
0.0475355
0.0344472
0.0491288
0.0284158
0.0485129
0.0222288
0.0451556
0.0581341
0.105871
0.0588013
1.0171
0.125567
0.045326
0.0644539
0.0467819
0.0423371
0.0411407
0.146049
0.0794199
0.0982564
0.106334
0.782262
0.570923
0.0567659
0.033667
0.15744
0.0436438
0.0553168
0.10233
0.0365489
0.132478
0.0415675
0.050482
0.0270153
0.0211601
0.0437977
0.0372812
0.0667991
0.0471879
0.0218261
0.0265164
0.0303082
0.020456
0.0685899
0.0213281
0.0470939
0.06688
0.0369047
0.0178982
0.0300919
0.0182772
0.0588405
0.41899
0.190644
0.0413492
0.0439313
0.0647876
0.0322615
0.0409944
0.0431148
0.0635477
0.0462612
0.073806
0.0777281
0.97956
0.204152
0.0842861
0.179471
0.101337
0.191052
)
;
    }
    procBoundary2to0
    {
        type            processor;
        value           nonuniform List<scalar> 
42
(
1.53313
1.53313
0.0819404
0.0659659
0.165682
1.41114
0.0981289
0.0981289
0.130443
0.110865
0.368944
0.368944
0.242595
0.468336
0.609199
1.18931
0.890429
0.107945
0.116604
0.678699
0.587771
0.100099
0.100099
0.536102
0.587771
0.0951482
0.614879
0.0735704
0.614879
1.4866
1.15315
0.051374
0.0457975
0.0528266
0.066491
0.0659659
0.890429
0.0491979
0.88627
0.109978
0.109978
0.0852178
)
;
    }
    procBoundary2to1
    {
        type            processor;
        value           uniform 0.774772;
    }
    procBoundary2to3
    {
        type            processor;
        value           nonuniform List<scalar> 
29
(
0.112152
0.118823
0.0527536
0.0530937
0.580414
0.0692875
0.218033
0.111163
0.094367
0.0798534
0.0970794
0.620154
0.105893
0.466609
0.439778
0.429215
0.0928307
0.0928307
0.118823
0.466609
0.470403
0.0879234
0.179202
0.090353
0.357422
0.0673146
0.094367
0.711212
0.620154
)
;
    }
}


// ************************************************************************* //
