/*--------------------------------*- C++ -*----------------------------------*\
| =========                 |                                                 |
| \\      /  F ield         | OpenFOAM: The Open Source CFD Toolbox           |
|  \\    /   O peration     | Version:  v1912                                 |
|   \\  /    A nd           | Website:  www.openfoam.com                      |
|    \\/     M anipulation  |                                                 |
\*---------------------------------------------------------------------------*/
FoamFile
{
    version     2.0;
    format      ascii;
    class       volScalarField;
    location    "0.09";
    object      nut;
}
// * * * * * * * * * * * * * * * * * * * * * * * * * * * * * * * * * * * * * //

dimensions      [0 2 -1 0 0 0 0];


internalField   nonuniform List<scalar> 
1466
(
0.0006238
0.000629969
0.000769372
0.000794111
0.000805157
0.000769186
0.00111132
0.000702233
0.000912759
0.000649769
0.000646756
0.0007985
0.000975499
0.000867441
0.000856508
0.000886863
0.000776974
0.000280521
0.000955918
0.000708037
0.000814431
0.00101363
0.000764695
0.000729226
0.000964083
0.000521552
0.00147974
0.000672369
0.000581959
0.000883262
0.000717486
0.000627375
0.000707974
0.000863114
0.00250066
0.000712274
0.000879631
0.000546287
0.000487319
0.000541205
0.0005391
0.000603388
0.000474862
0.000450047
0.000444096
0.000567777
0.000791026
0.000399703
0.00039618
0.000418165
0.000453232
0.000514254
0.000544048
0.000527315
0.000391606
0.00118723
0.000427962
0.000566898
0.000442438
0.000501883
0.000836968
0.000885569
0.000908364
0.000790604
0.001361
0.00105408
0.000842247
0.00103453
0.00101672
0.000570514
0.000895652
0.000313271
0.000313399
0.0010736
0.000743851
0.00244225
0.000851504
0.000860593
0.000412497
0.000768028
0.000717063
0.000815398
0.000905088
0.000743876
0.00100377
0.00084042
0.000816506
0.000977398
0.000626883
0.000898131
0.0006206
0.00134694
0.000983189
0.00124749
0.000982864
0.000531677
0.000579895
0.000533322
0.000971031
0.000474986
0.000525089
0.000435937
0.000388573
0.000378539
0.00053681
0.000605196
0.00042942
0.000421977
0.000462901
0.000509583
0.000795215
0.00198899
0.00081787
0.000484254
0.000409872
0.000814908
0.000961833
0.000710511
0.00098607
0.00104728
0.000808747
0.000888913
0.000872889
0.000468316
0.000456295
0.000730539
0.000872049
0.000662751
0.000780009
0.000839027
0.000410811
0.000803973
0.000672263
0.000686427
0.000716523
0.000562637
0.000565191
0.000463895
0.00076265
0.000932491
0.000504326
0.000761846
0.000915729
0.000889885
0.0012323
0.00106058
0.000642212
0.000884973
0.000781209
0.000988193
0.000691196
0.000794222
0.000913344
0.00104094
0.000952726
0.00114482
0.000660969
0.00077771
0.000736649
0.000829707
0.000657538
0.000764616
0.000452772
0.000820897
0.00114277
0.00102794
0.000898749
0.000803429
0.000859483
0.00115483
0.000868957
0.000732381
0.000617263
0.000960198
0.000362761
0.000976076
0.00104699
0.000800771
0.000726629
0.000725947
0.00100139
0.00081835
0.000969228
0.000628489
0.00110075
0.000893846
0.0010685
0.000761014
0.00109313
0.000913239
0.000916086
0.000801232
0.00124326
0.000945403
0.00080461
0.000770464
0.000366914
0.00135524
0.000887054
0.00109481
0.00101491
0.000798117
0.000789245
0.000994086
0.000955147
0.000946794
0.000809921
0.00101593
0.000785978
0.000726872
0.000910438
0.000970636
0.000818507
0.000810423
0.000848744
0.000891307
0.000942152
0.00119483
0.000908514
0.000858336
0.000749816
0.000820423
0.000895966
0.00083504
0.000856918
0.00114358
0.000842968
0.000899662
0.000675968
0.000820618
0.000713337
0.00127061
0.000937738
0.00129723
0.000936737
0.00104104
0.000917433
0.000856242
0.000901914
0.000907489
0.000851233
0.00079693
0.000998783
0.00113781
0.000802928
0.000794305
0.000616661
0.00104109
0.000738181
0.0011006
0.00093353
0.00127655
0.00111961
0.00150473
0.00066446
0.000834214
0.000618695
0.000892063
0.00045544
0.000542604
0.00035725
0.000619895
0.000666542
0.000830854
0.000926983
0.000324558
0.000311836
0.00086853
0.000678598
0.000947203
0.000508823
0.000497888
0.000352616
0.000797268
0.000672491
0.000883802
0.000756765
0.00142806
0.000887148
0.00075678
0.000826848
0.00120402
0.00117249
0.000931669
0.00118375
0.000884799
0.000879938
0.000966801
0.000574073
0.00102647
0.000863586
0.000511888
0.00100285
0.000278147
0.00139967
0.000429294
0.000575649
0.000787745
0.000810464
0.000821714
0.000867978
0.000858953
0.000234334
0.000957846
0.000748122
0.0014027
0.00131423
0.000859818
0.00139921
0.000836168
0.000798978
0.00076569
0.000887442
0.00125212
0.00113188
0.00113709
0.000891987
0.00128328
0.000866472
0.000887129
0.000378473
0.000539376
0.00044942
0.00081619
0.000785584
0.00122554
0.000824966
0.0013852
0.000782143
0.00085911
0.000581867
0.00112289
0.000901311
0.00148465
0.000925059
0.000764565
0.000918195
0.000927391
0.00125898
0.000924587
0.000825112
0.000934209
0.000783833
0.00150061
0.00112376
0.000210289
0.000989421
0.00144932
0.00119162
0.000861918
0.00095063
0.00078112
0.000839542
0.000908459
0.00114765
0.000925492
0.000772447
0.000527002
0.000896057
0.00143227
0.00120026
0.00121259
0.00144167
0.000942243
0.000806121
0.000884045
0.000872025
0.000819632
0.000499426
0.00147479
0.00136238
0.00127128
0.000675843
0.00142381
0.000894536
0.000898221
0.000929766
0.000639129
0.00112902
0.00115984
0.000953816
0.000981748
0.000940983
0.000931368
0.00096375
0.000969944
0.000859062
0.000866479
0.000865762
0.000872276
0.00106391
0.00111629
0.0009806
0.00113166
0.00110499
0.0010719
0.000899006
0.00063022
0.00114954
0.000392341
0.000970044
0.000922155
0.000930732
0.00103537
0.000950501
0.00101714
0.000904887
0.000943035
0.000922451
0.00117248
0.000934204
0.000979087
0.000918397
0.0011261
0.00116554
0.000969783
0.00100033
0.00101142
0.000899893
0.00089307
0.00136015
0.00125438
0.000943088
0.00088154
0.000983392
0.00100904
0.00150751
0.000743607
0.00106712
0.00107762
0.000869446
0.00121744
0.000641408
0.000677932
0.000834946
0.00044041
0.000894374
0.000663474
0.000868593
0.000869179
0.00100253
0.000355632
0.000872226
0.000822511
0.000842981
0.000878335
0.00160237
0.000840236
0.00091101
0.000877789
0.000849199
0.000984934
0.000540719
0.00108535
0.00115948
0.000363978
0.00102562
0.000875325
0.000430846
0.000848025
0.000847835
0.00101505
0.000951381
0.000893336
0.000928507
0.00101146
0.00106007
0.00103976
0.0014092
0.00106435
0.00118605
0.00100178
0.000914244
0.000951839
0.000846971
0.00102008
0.000931499
0.00101536
0.00118749
0.00118703
0.00142339
0.000835442
0.000751753
0.00112719
0.00118254
0.00124171
0.00115584
0.00102557
0.00132097
0.00142274
0.00121675
0.000649068
0.000865862
0.00106184
0.00103312
0.00103948
0.000914121
0.000963661
0.00123339
0.000932892
0.000921985
0.000906132
0.000897668
0.000875175
0.0010228
0.000929566
0.00134183
0.00085685
0.00125986
0.000961101
0.000894705
0.00112819
0.000964791
0.000539488
0.000915412
0.000934877
0.00127026
0.00105168
0.00112635
0.000810091
0.000919557
0.00140462
0.00106687
0.00137461
0.00106744
0.00121767
0.00137011
0.000808982
0.00121011
0.00106412
0.00153271
0.000642751
0.000950723
0.00105232
0.000967679
0.00133998
0.00137857
0.00140258
0.00119552
0.000765117
0.00134393
0.000710955
0.000938337
0.000992721
0.0011937
0.00148057
0.00115953
0.00135551
0.00100669
0.000851144
0.0013675
0.00135456
0.00128737
0.000966214
0.000593446
0.000935205
0.00095686
0.000975019
0.000933508
0.0013085
0.00101239
0.000888609
0.000840945
0.00143905
0.00104119
0.00106244
0.00106127
0.00101558
0.00146106
0.00089015
0.000801277
0.000979978
0.000884282
0.00105128
0.0011339
0.000789788
0.000780224
0.000900244
0.000965764
0.000958891
0.0011407
0.000887442
0.000917168
0.00094843
0.000951386
0.00108369
0.000795747
0.000850027
0.00102389
0.0010312
0.000821351
0.00146166
0.00145509
0.000919123
0.0010061
0.000904611
0.000976778
0.000886639
0.00118024
0.000956461
0.0014966
0.00107462
0.000939334
0.00144946
0.000948887
0.0015813
0.000878906
0.000900922
0.000858095
0.000913545
0.00109024
0.000860358
0.00141943
0.00116594
0.00077014
0.00120626
0.000961068
0.00143143
0.000841835
0.00078972
0.00146322
0.000860781
0.000857181
0.00117743
0.00148245
0.000919603
0.000543989
0.00141328
0.00106184
0.000894426
0.0012123
0.000948075
0.000819848
0.000989052
0.000901756
0.000897618
0.000839953
0.000906241
0.00105205
0.000746408
0.000965801
0.00128834
0.000825003
0.000824008
0.000893312
0.00115293
0.00125494
0.000933136
0.000825338
0.00145978
0.000902864
0.00100102
0.00149475
0.000819157
0.00114097
0.00089875
0.00134761
0.000493609
0.000778251
0.000928342
0.00112993
0.00149934
0.000899742
0.00100086
0.00121846
0.00079006
0.000798619
0.00103913
0.00102082
0.00136277
0.000796472
0.000912501
0.00136297
0.000760258
0.000711222
0.00087252
0.000872232
0.000500168
0.00066216
0.000889015
0.000782385
0.000858013
0.000435125
0.00097095
0.000360098
0.0011745
0.000418686
0.000285983
0.00121666
0.000285873
0.00103459
0.000832787
0.000957772
0.00090577
0.000396219
0.000288595
0.000922704
0.00135065
0.000427384
0.000976504
0.000876141
0.000416472
0.000280914
0.000794678
0.000921458
0.00092529
0.00100158
0.00107591
0.000285471
0.000932789
0.00105084
0.00075137
0.000833854
0.000872367
0.000939458
0.000711099
0.00089772
0.000916092
0.00103667
0.000748813
0.0025186
0.000903173
0.000899891
0.0011107
0.000510253
0.000877576
0.000738691
0.00122923
0.00109465
0.000215752
0.00126419
0.000710206
0.00135864
0.000911793
0.00109782
0.00115111
0.000318571
0.000884766
0.000998779
0.00106036
0.000886548
0.000861881
0.000900061
0.00083394
0.00106715
0.00106267
0.000484431
0.000201059
0.00101621
0.000831438
0.000763101
0.00127375
0.000486026
0.000955155
0.000815955
0.00125586
0.000867956
0.000782629
0.000905312
0.000794815
0.000976343
0.0014514
0.000871782
0.00117188
0.00125113
0.000857088
0.000699273
0.00131436
0.000979607
0.000931747
0.00094891
0.00126149
0.000875648
0.000877606
0.00149503
0.000952595
0.00132453
0.000327493
0.00107916
0.000858778
0.00117834
0.00121578
0.000728291
0.00158171
0.000931284
0.000890275
0.000879468
0.000899113
0.000915641
0.00132174
0.00100077
0.00118022
0.000983536
0.00136411
0.000874885
0.000845098
0.000894789
0.00120251
0.000972184
0.00127436
0.00129967
0.000843014
0.000868423
0.000874673
0.000815994
0.000771211
0.000174973
0.000988855
0.00131101
0.000843464
0.000327184
0.00103487
0.000641147
0.000762325
0.000917835
0.000847057
0.00103074
0.000709272
0.000648734
0.000884421
0.00113779
0.000919189
0.00117495
0.000746221
0.00090159
0.000899578
0.00113083
0.000854791
0.000882324
0.000604321
0.000749151
0.000966111
0.00115924
0.000969242
0.000619087
0.000981748
0.000941558
0.000302534
0.00128427
0.00120068
0.00110368
0.000881646
0.0009758
0.000790516
0.00132899
0.000701037
0.000506171
0.000855404
0.000872697
0.00071709
0.00125877
0.00105595
0.000767944
0.00106219
0.00103284
0.000962437
0.000843222
0.000697508
0.000855309
0.000785903
0.00132863
0.000880714
0.00100214
0.00117382
0.000642628
0.000637145
0.000769827
0.000571426
0.000963396
0.00100201
0.00101277
0.000391121
0.00145679
0.000763558
0.00123129
0.00127295
0.000950054
0.00033059
0.000308438
0.00033506
0.000258974
0.000270632
0.000290198
0.000246275
0.000319334
0.000347101
0.000346522
0.000313179
0.000310861
0.000302416
0.000289812
0.000337893
0.000335783
0.000241498
0.000260718
0.000313375
0.000282035
0.000315396
0.000263527
0.000296099
0.000302964
0.000316599
0.000331183
0.00178861
0.000967917
0.00024147
0.00130986
0.00124098
0.000910503
0.00140466
0.000837997
0.000806134
0.000843082
0.000569258
0.000881599
0.000890082
0.000460787
0.000841245
0.000885722
0.00134512
0.00157855
0.000858947
0.00078352
0.000820731
0.000977717
0.000954393
0.000904408
0.000324872
0.000834364
0.00081816
0.000920343
0.000258091
0.000933686
0.000966229
0.000884049
0.00147452
0.000830604
0.000935742
0.0010401
0.00102169
0.000799292
0.000802232
0.000500786
0.000849896
0.000940454
0.000983627
0.00110741
0.000309917
0.00131399
0.000831767
0.0010027
0.000976568
0.000726895
0.00136286
0.00126697
0.00105953
0.000651947
0.000861386
0.00115791
0.00164318
0.000935554
0.000594829
0.000301617
0.00052636
0.000985447
0.00080834
0.000853695
0.000826692
0.00111344
0.00141557
0.000985212
0.00117874
0.000915961
0.00107959
0.000837265
0.000606262
0.000855484
0.000769042
0.000995633
0.000684713
0.000847669
0.000968843
0.000814037
0.000892034
0.00119681
0.000314639
0.000881237
0.000799992
0.000823595
0.00102968
0.00046594
0.000872983
0.000853617
0.0012763
0.000748461
0.00093435
0.000740035
0.00151581
0.000726927
0.000900393
0.000973492
0.00125036
0.000968706
0.000946211
0.000322817
0.00100908
0.00103784
0.00083191
0.000768798
0.000944822
0.000786807
0.000576481
0.000748557
0.00019157
0.000726051
0.000614313
0.000991128
0.000834005
0.000942932
0.000857498
0.000253221
0.000579882
0.00109452
0.00103938
0.000824541
0.000332806
0.000377957
0.000850566
0.000737834
0.000887931
0.000883993
0.000840549
0.000867986
0.000768481
0.00126385
0.00149133
0.00110917
0.000735
0.00119603
0.000963731
0.000888542
0.000613096
0.000771846
0.00065367
0.000528256
0.000949947
0.000674999
0.000260022
0.00112344
0.000910945
0.0009391
0.000878813
0.000564157
0.000717472
0.000717969
0.00146302
0.000987097
0.00107282
0.00080083
0.000471268
0.00152019
0.000904328
0.000444759
0.000537583
0.000497697
0.00083777
0.000287931
0.000924734
0.000883323
0.000154841
0.00122831
0.00103544
0.000257459
0.00145245
0.000262482
0.000731374
0.000905687
0.000255075
0.000263455
0.00101832
0.000912061
0.00094608
0.000312605
0.000214157
0.000232359
0.000219545
0.000214705
0.000799938
0.000839015
0.000268362
0.000284942
0.000280304
0.000269903
0.000852403
0.00110021
0.00142732
0.00104253
0.000821204
0.00129707
0.000887007
0.000835295
0.000323425
0.000356083
0.00100261
0.000936896
0.000973839
0.000974214
0.000930462
0.000744242
0.00092659
0.000984506
0.000273703
0.000752587
0.000908481
0.000763516
0.00020983
0.00235347
0.00222949
0.000976147
0.000987172
0.00106101
0.000892111
0.00114213
0.000295941
0.000288041
0.00087939
0.000957254
0.00078214
0.000823025
0.000935817
0.00113596
0.000920872
0.000858467
0.000847619
0.00126527
0.00115311
0.000778373
0.000912996
0.000816278
0.00102107
0.000887303
0.00100946
0.000811129
0.000765085
0.00104599
0.00109951
0.000965252
0.0011178
0.00113788
0.00127866
0.000894571
0.00087996
0.000901777
0.000841822
0.000695886
0.000910282
0.000646447
0.000876523
0.00150484
0.000867405
0.00125169
0.000861702
0.00029312
0.000310651
0.00131168
0.00122191
0.000804134
0.00124188
0.00121919
0.000922124
0.000905887
0.00106454
0.0010961
0.000769082
0.000708006
0.00128411
0.000880692
0.00112405
0.000968344
0.000957773
0.00124709
0.00168524
0.000828992
0.000770906
0.000731133
0.000647211
0.000858086
0.00122537
0.00112089
0.00129989
0.00144137
0.00113501
0.0011826
0.000890354
0.000874672
0.00078176
0.00101237
0.00115567
0.000812798
0.00064166
0.000788733
0.000637391
0.000925868
0.000778266
0.000853456
0.00084015
0.00125198
0.00112984
0.00138686
0.000800373
0.0013153
0.00051182
0.0012713
0.000879604
0.000841519
0.000952467
0.000868221
0.000818077
0.000686508
0.000874223
0.000904154
0.000960237
0.00102869
0.000865717
0.00121271
0.00158554
0.000878607
0.000874159
0.000793078
0.0011136
0.0011882
0.000735776
0.000453252
0.00056569
0.000890674
0.000806437
0.000901499
0.000691185
0.000866196
0.000854958
0.00105102
0.000990739
0.00121726
0.000768152
0.000616432
0.000931675
0.000709596
0.000679982
0.000841309
0.00151954
0.000908837
0.000852977
0.000779714
0.000860933
0.000587972
0.00140662
0.00100589
0.000761475
0.000779495
0.00136799
0.00127343
0.000853276
0.000984855
0.000937511
0.000944555
0.00119412
0.00129895
0.000606098
0.00061177
0.000939186
0.000966491
0.000766032
0.00104904
0.000252847
0.000917565
0.00149242
0.000835009
0.00090229
0.000841262
0.00075328
0.000903746
0.000916082
0.00132192
0.00104032
0.000524845
0.00158461
0.00105588
0.00121478
0.00122657
0.0010725
0.000879253
0.00107258
0.000707308
0.000684925
0.000622018
0.000236285
0.000641175
0.000475236
0.000879064
0.000921811
0.000911142
0.00103371
0.000865554
0.00157164
0.00108721
0.000983976
0.000943153
0.000787374
0.00151047
0.00089956
0.00127267
0.00113251
0.000835262
0.000836422
0.000841485
0.000840221
0.000911813
0.000853551
0.000187207
0.00142744
0.000969135
0.00103431
0.000885473
0.00124936
0.000297356
0.00136871
0.000167319
0.00100597
0.000902125
0.0010223
0.000658727
0.00121173
0.000200463
0.000901033
0.00125473
0.00120136
0.000991862
0.00101232
0.00116912
0.000820551
0.000603159
0.000755812
0.000620497
0.0011278
0.000375114
0.00131733
0.00081791
0.000813714
0.0013805
0.00081724
0.000319059
0.000787362
0.000818278
0.000822713
0.000925501
0.000745292
0.000947006
0.000801042
0.000822969
0.000811066
0.000848474
0.000737337
0.00106605
0.000631391
0.000759361
0.00111462
0.00135813
0.00051348
0.000113886
0.000174855
0.000799149
0.00103379
0.00117948
0.00092841
0.00107026
0.000291739
0.000656792
0.00112881
0.00104919
0.00093857
0.00101099
0.00100663
0.00132302
0.000944753
0.00101455
0.00111544
0.000753926
0.000875606
0.000987467
0.000429777
0.000590043
0.000991222
0.000669447
0.000774245
0.000747321
0.00163981
0.000657314
0.000892765
0.000982123
0.000555848
0.000813934
0.000779307
0.00065883
0.00143075
0.00121105
0.00064565
0.00073019
0.00112801
0.000751305
0.000952276
0.0005569
0.000854036
0.000941756
0.000861233
0.000810872
0.000747702
0.00148729
0.000851409
0.000855071
0.000878087
0.000857674
0.00159482
0.000919827
0.000765945
0.00057258
0.000920329
0.000733399
0.000573861
0.00143375
0.000715617
0.000511216
0.000626569
0.00029643
0.000529668
0.000926027
0.000359768
0.000621209
0.00123513
0.000374775
0.000553625
0.000434653
0.00037038
0.000545749
0.00060834
0.000401033
0.000352698
0.000630704
0.000873791
0.000570674
0.000344546
0.000364978
0.000641486
0.000846853
0.00096371
0.00105282
0.0004692
0.000368318
0.000464813
0.000757765
0.000361284
0.000374099
0.000443241
0.000385833
0.000438868
0.000398468
0.000694092
)
;

boundaryField
{
    frontAndBack
    {
        type            empty;
    }
    wallOuter
    {
        type            nutkWallFunction;
        Cmu             0.09;
        kappa           0.41;
        E               9.8;
        value           nonuniform List<scalar> 
108
(
3.29467e-05
3.64361e-05
3.81536e-05
2.82361e-05
2.47796e-05
4.28437e-05
4.89417e-05
3.37353e-05
3.39764e-05
4.69766e-05
3.39657e-05
4.96169e-05
4.90616e-05
3.33282e-05
3.36662e-05
2.5438e-05
3.79287e-05
5.52454e-05
2.30374e-05
3.90015e-05
1.95551e-05
3.90117e-05
3.60009e-05
5.73556e-05
4.01812e-05
3.71779e-05
4.08627e-05
3.03692e-05
3.20928e-05
3.43463e-05
2.87818e-05
3.88602e-05
4.0666e-05
4.05936e-05
3.8084e-05
3.77131e-05
3.65498e-05
3.4982e-05
3.95212e-05
3.92885e-05
2.83205e-05
3.10315e-05
3.6579e-05
3.27718e-05
3.7454e-05
3.06155e-05
3.56495e-05
3.64515e-05
3.81128e-05
4.04317e-05
2.88475e-05
5.28542e-05
3.90702e-05
3.05126e-05
3.65265e-05
3.58578e-05
5.91888e-05
3.76427e-05
3.86991e-05
2.18358e-05
2.95486e-05
3.9225e-05
4.6241e-05
6.84595e-05
5.91898e-05
3.11903e-05
7.90586e-05
5.13203e-05
6.03944e-05
3.41624e-05
1.70643e-05
1.70643e-05
3.08301e-05
3.15084e-05
3.05176e-05
3.16157e-05
3.71891e-05
2.4902e-05
2.74291e-05
2.56426e-05
2.49924e-05
8.72293e-05
9.12895e-05
3.18962e-05
3.4199e-05
3.3729e-05
3.24315e-05
9.29317e-05
3.78763e-05
4.35347e-05
3.23226e-05
2.39754e-05
3.58672e-05
3.32467e-05
9.578e-05
9.80432e-05
3.39289e-05
3.77636e-05
8.96257e-05
2.98362e-05
2.74572e-05
9.5324e-05
2.12137e-05
1.8265e-05
2.30703e-05
1.08673e-05
1.94214e-05
3.44478e-05
)
;
    }
    inlet
    {
        type            calculated;
        value           nonuniform 0();
    }
    outlet
    {
        type            calculated;
        value           nonuniform 0();
    }
    wallInner
    {
        type            nutkWallFunction;
        Cmu             0.09;
        kappa           0.41;
        E               9.8;
        value           nonuniform List<scalar> 
126
(
6.82798e-05
6.02669e-05
6.74957e-05
6.72383e-05
7.42668e-05
5.90774e-05
5.5978e-05
5.57687e-05
7.11161e-05
0.00010074
5.00236e-05
4.98284e-05
5.24434e-05
5.59097e-05
6.19487e-05
6.83093e-05
6.61255e-05
4.87164e-05
0.000136302
5.32697e-05
7.10724e-05
5.56692e-05
6.30049e-05
5.08531e-05
6.64981e-05
7.15695e-05
6.77748e-05
0.000114406
5.91345e-05
6.52899e-05
5.36996e-05
4.85236e-05
4.73043e-05
6.61733e-05
7.25581e-05
5.40766e-05
5.292e-05
5.71065e-05
6.34243e-05
6.00836e-05
5.13831e-05
5.79164e-05
5.7244e-05
5.14335e-05
9.69752e-05
6.98082e-05
6.89742e-05
5.83684e-05
6.32764e-05
5.40399e-05
4.4603e-05
4.5146e-05
5.36691e-05
6.55017e-05
4.26398e-05
4.01569e-05
3.78782e-05
6.05619e-05
5.86649e-05
4.23934e-05
6.12496e-05
3.42419e-05
5.15068e-05
6.77885e-05
4.53887e-05
6.3638e-05
5.39326e-05
5.94185e-05
5.9249e-05
7.5847e-05
7.19231e-05
7.10794e-05
4.64695e-05
8.31169e-05
7.60335e-05
7.82865e-05
4.95998e-05
7.29904e-05
4.4656e-05
6.36545e-05
4.37396e-05
5.07285e-05
6.34536e-05
7.43759e-05
6.90785e-05
6.65929e-05
5.99772e-05
6.22003e-05
6.95346e-05
7.00898e-05
6.92769e-05
4.33067e-05
3.94188e-05
5.83399e-05
3.59601e-05
5.90129e-05
0.000103114
4.38228e-05
6.67208e-05
4.67775e-05
6.44827e-05
5.35668e-05
4.60611e-05
6.5683e-05
7.52251e-05
4.96827e-05
4.31064e-05
7.53682e-05
0.00010029
6.63247e-05
4.21212e-05
4.45205e-05
7.33097e-05
0.000101911
0.00010959
0.000117178
5.84563e-05
4.61993e-05
5.83534e-05
8.90468e-05
4.45039e-05
4.62168e-05
5.20706e-05
4.74293e-05
5.1305e-05
4.90999e-05
)
;
    }
    procBoundary1to0
    {
        type            processor;
        value           nonuniform List<scalar> 
29
(
0.00108898
0.00108898
0.000867169
0.0011032
0.00144415
0.00110839
0.0027012
0.00056737
0.00128281
0.00097195
0.000839358
0.00110839
0.000867169
0.00088104
0.00263251
0.00165282
0.00144415
0.00131201
0.0011032
0.00102268
0.00114148
0.00097571
0.00131695
0.000839359
0.000839359
0.00131695
0.000938279
0.000810587
0.000938279
)
;
    }
    procBoundary1to2
    {
        type            processor;
        value           uniform 0.0010161;
    }
    procBoundary1to3
    {
        type            processor;
        value           nonuniform List<scalar> 
48
(
0.000883934
0.000759707
0.000800745
0.000800745
0.00104899
0.000807677
0.000807677
0.00137031
0.000930613
0.00101767
0.00103587
0.00101767
0.000912682
0.00088319
0.000962167
0.000912682
0.000865657
0.000865657
0.00086826
0.00086826
0.000868169
0.000870062
0.000886705
0.000917811
0.000917811
0.000989346
0.000919349
0.000919349
0.00113624
0.0011189
0.00112008
0.00113624
0.00137031
0.000976635
0.000911513
0.0011189
0.00120175
0.00103587
0.000898656
0.000705011
0.000879036
0.00102448
0.000976635
0.000911513
0.000982393
0.000361143
0.000876831
0.000879036
)
;
    }
}


// ************************************************************************* //
