/*--------------------------------*- C++ -*----------------------------------*\
| =========                 |                                                 |
| \\      /  F ield         | OpenFOAM: The Open Source CFD Toolbox           |
|  \\    /   O peration     | Version:  v1912                                 |
|   \\  /    A nd           | Website:  www.openfoam.com                      |
|    \\/     M anipulation  |                                                 |
\*---------------------------------------------------------------------------*/
FoamFile
{
    version     2.0;
    format      ascii;
    class       volVectorField;
    location    "0.09";
    object      U;
}
// * * * * * * * * * * * * * * * * * * * * * * * * * * * * * * * * * * * * * //

dimensions      [0 1 -1 0 0 0 0];


internalField   nonuniform List<vector> 
1466
(
(-0.559489 0.00233355 -2.68042e-16)
(1.13946 0.0574966 1.42812e-18)
(-0.373374 -0.155573 7.30978e-16)
(0.223055 2.69174 -7.1434e-17)
(-0.0729783 -0.0811433 -7.47327e-16)
(-0.119372 -0.0954606 -1.17058e-15)
(-0.919628 -0.677737 2.18923e-16)
(0.252205 -0.149653 2.08183e-16)
(6.38811 -0.144304 -7.36106e-19)
(0.221312 0.0273866 2.31204e-16)
(-0.828977 -0.0537697 -3.50399e-16)
(0.390722 0.186538 0)
(8.09556 -0.544227 0)
(0.0240189 -0.130416 -1.99837e-16)
(0.00432138 -0.118737 0)
(-0.550816 -0.055197 2.83167e-16)
(0.0675587 -0.1348 -1.38673e-16)
(0.0542224 1.96566 -3.62164e-17)
(0.197243 2.91331 -1.15972e-16)
(0.114806 3.00952 2.32738e-16)
(0.0506177 3.17289 1.09685e-16)
(-0.485088 -0.267488 8.39884e-18)
(-0.125845 2.98461 -8.02012e-17)
(0.0765938 3.06796 -2.48455e-17)
(7.11033 -0.223157 7.10756e-17)
(0.873276 0.156528 -2.66845e-16)
(-1.51476 -0.867792 -1.41552e-16)
(-0.14358 3.18663 0)
(-0.761196 0.0467082 0)
(3.44668 1.57963 5.74318e-17)
(-0.910965 -0.23668 2.62607e-16)
(1.28222 0.0133093 1.60592e-16)
(-0.122463 -0.0602134 2.67165e-16)
(0.0744678 3.02819 2.4923e-16)
(2.05368 -0.708568 9.65965e-17)
(-0.576124 0.447882 2.84955e-16)
(0.147063 3.02644 0)
(0.102864 -0.0753362 -3.5071e-16)
(0.420177 -0.0393216 -3.93288e-16)
(-0.0755189 0.0127604 -4.48893e-16)
(-0.687152 0.122254 -1.61825e-16)
(-1.01033 -0.0457588 -4.08872e-16)
(-0.401015 -0.165738 2.27048e-16)
(-0.530897 -0.139784 1.48669e-18)
(0.14326 -0.0377439 -4.76254e-18)
(0.0188873 -0.100771 0)
(-0.285654 -0.410897 1.11769e-17)
(0.137041 -0.0235198 0)
(-0.0308327 -0.0114477 1.4707e-16)
(-0.0177536 -0.024932 0)
(-0.491342 -0.094237 -1.06047e-16)
(0.861681 0.0358454 -4.40717e-16)
(-0.0363058 0.0346981 7.31783e-16)
(-0.00185281 -0.00341764 7.03342e-16)
(-0.158787 -0.0543077 -1.2157e-16)
(5.05368 -0.148329 1.19157e-16)
(-0.443805 0.000796289 -2.45229e-17)
(-0.732361 0.177824 0)
(-0.0205024 0.015698 1.28274e-17)
(0.227523 0.018437 0)
(0.461978 0.618873 -2.35048e-21)
(-0.559674 -0.193603 -1.3327e-16)
(0.108423 -0.199874 2.15642e-16)
(1.25691 0.0679429 1.81603e-16)
(-0.116065 4.89175 -2.01231e-16)
(0.621547 -0.147925 2.94647e-16)
(-0.241273 1.92714 0)
(0.0506708 2.36254 4.30136e-17)
(6.30978 -0.107267 2.70926e-17)
(-0.883061 0.0135804 -1.96277e-16)
(0.527131 1.20974 1.27528e-15)
(-0.141957 2.47736 0)
(0.00407863 2.73123 0)
(6.45173 -0.0195982 -1.55197e-16)
(0.300258 0.524918 2.99007e-16)
(3.82454 -0.702763 -1.22377e-16)
(-0.464533 -0.132475 1.14318e-16)
(0.215497 -0.134939 -1.21444e-16)
(0.0705083 -0.0198875 0)
(4.88301 0.557124 0)
(0.274445 -0.0647309 -1.96024e-16)
(-0.704366 -0.124163 -3.90968e-16)
(-0.463618 -0.00204837 -3.35031e-16)
(0.21587 2.72365 3.1128e-16)
(0.0922825 2.699 1.768e-16)
(0.301341 3.01955 6.8978e-17)
(-0.00870951 3.11032 0)
(4.66144 0.0450361 1.40903e-18)
(0.303114 -0.0636695 4.43603e-16)
(-0.190314 0.224821 -3.22511e-16)
(0.956612 0.179688 -9.94052e-17)
(-1.54748 -0.639828 -2.77203e-16)
(0.26262 2.08719 -7.18108e-17)
(-0.72134 0.00278131 -2.32061e-16)
(0.292791 -0.33088 0)
(-0.245739 -0.00268065 -4.4123e-16)
(1.06303 0.0454238 3.70875e-16)
(-0.791096 0.0812913 -1.14922e-17)
(5.40562 -0.276808 2.9312e-16)
(-0.178025 -0.0426109 1.06381e-16)
(-0.208392 -0.12373 5.71516e-16)
(-0.655697 0.0672409 0)
(0.185445 -0.00546181 4.42065e-16)
(-0.0325556 -0.0411923 3.86134e-16)
(-0.0472979 -0.155083 -1.73554e-16)
(0.375515 -0.104001 9.25539e-17)
(-0.0425417 0.0167655 -2.72467e-17)
(0.0589431 -0.0193902 0)
(-0.84195 -0.079876 2.84017e-16)
(-0.381873 0.131584 8.72431e-17)
(0.576057 0.478603 -3.03994e-16)
(3.25997 -0.623789 3.54973e-17)
(-0.533886 -0.126343 -4.74515e-17)
(-0.717505 -0.130994 -5.19868e-17)
(0.272222 0.0113487 0)
(1.05759 0.228644 9.04549e-17)
(-1.31079 -0.322728 1.9592e-16)
(0.485435 0.286821 0)
(-0.875516 -0.366296 1.6787e-16)
(-0.239258 -0.48364 -7.64642e-16)
(0.096352 3.02718 -5.76229e-17)
(-0.413518 -0.13688 3.51927e-16)
(0.297647 -0.076893 -1.2834e-15)
(-0.301479 -0.181637 0)
(0.211114 -0.0605686 -8.86299e-16)
(-0.707818 0.316692 -4.63887e-20)
(5.78111 0.395715 4.72055e-17)
(-0.17296 2.66568 -8.95723e-17)
(0.0212715 3.28894 3.72722e-17)
(2.7605 0.573049 1.52997e-16)
(0.245467 -0.0398614 3.04821e-17)
(-1.5796 -0.250332 0)
(-0.1873 2.96429 5.70086e-17)
(0.0473628 3.15399 5.24379e-17)
(1.15743 0.0817284 -1.50955e-17)
(-1.05675 -0.14377 0)
(-0.557538 -0.189144 0)
(0.0117693 -0.0286338 -1.2169e-17)
(-0.888744 -0.0896837 -1.12024e-16)
(-0.216231 -0.252924 2.60959e-16)
(-0.0622848 0.000783392 0)
(-0.0780604 3.24312 -1.0729e-16)
(0.0997191 2.99163 -4.47486e-17)
(-0.0975121 2.97942 -3.09238e-18)
(0.118205 -1.07397 -3.16089e-16)
(0.416248 3.05947 1.61713e-16)
(1.30662 0.000216746 -2.73153e-16)
(1.54991 0.161975 -4.18072e-16)
(3.32391 0.795514 -6.12991e-17)
(-0.803472 -0.302115 1.14431e-15)
(1.02117 0.159969 1.83959e-16)
(1.22367 0.0881307 4.68845e-19)
(6.00628 0.251955 -1.16029e-19)
(0.238301 -0.509812 0)
(2.48916 0.825477 0)
(-0.691087 -0.45696 3.31605e-16)
(-0.0637835 2.9476 -2.57949e-17)
(-0.0768129 3.1398 -2.51301e-16)
(1.437 -0.000266783 9.87852e-16)
(4.05448 5.06515 6.53992e-17)
(1.34287 -0.0193947 1.16887e-16)
(5.15304 0.786628 0)
(0.278061 1.67015 9.82179e-17)
(0.00724564 2.87552 -1.77078e-19)
(0.885461 1.87171 0)
(0.214079 -0.497293 2.09188e-16)
(0.122808 3.05643 0)
(-0.273855 2.78848 2.48951e-16)
(-0.174588 2.9037 -5.0248e-17)
(0.0769095 4.45027 7.80704e-17)
(-0.18544 3.08688 3.31707e-16)
(1.60376 -0.0441951 -1.04375e-16)
(0.0362851 -0.0663692 6.35307e-17)
(6.20247 0.0808741 -1.50495e-17)
(1.38469 -0.00150045 -2.78459e-16)
(5.77492 0.0390559 -3.04011e-16)
(2.79122 1.96149 2.03395e-16)
(3.70262 1.28265 -7.47361e-17)
(0.664004 0.378097 -4.22721e-16)
(0.338461 1.55971 -2.61335e-16)
(7.80671 -0.584804 3.42344e-16)
(1.27922 0.0798212 -3.46374e-17)
(-0.167737 2.5234 -2.68503e-16)
(0.219261 -0.111067 3.36116e-16)
(4.54441 -0.111615 -3.5137e-17)
(0.117919 2.90445 -5.2756e-18)
(0.165727 2.64646 -1.77642e-16)
(0.686922 2.93496 -1.84376e-16)
(6.24051 -0.319837 6.64674e-17)
(-0.205075 0.0843787 5.08701e-16)
(-0.0913147 3.20681 -2.30848e-16)
(0.361112 0.794282 -5.0375e-19)
(0.414536 1.19157 9.9117e-18)
(0.271874 2.80077 4.21178e-16)
(4.56044 4.46385 -3.9643e-17)
(0.786454 0.395048 0)
(-0.670138 -0.0723756 4.11268e-18)
(0.751457 0.307826 -5.21643e-16)
(0.429503 1.98616 -3.42413e-16)
(0.69607 2.88394 -8.2828e-16)
(0.407742 0.935994 0)
(3.06197 0.653994 0)
(4.26966 1.38799 -2.00477e-19)
(-0.675029 3.07328 0)
(0.715744 0.950645 2.44451e-16)
(0.583887 1.70754 -2.1741e-16)
(0.232647 2.87528 -2.02222e-16)
(3.50759 2.27678 0)
(1.68496 0.0398632 1.2051e-16)
(0.10422 3.03664 -8.03368e-20)
(0.0602885 3.00492 1.11297e-16)
(0.133221 2.61441 -1.62188e-16)
(-0.23985 2.42684 0)
(-0.175068 3.11705 2.68324e-16)
(0.105946 3.07806 -6.71383e-17)
(0.14323 2.88842 3.7164e-19)
(0.0235274 2.89444 4.71895e-18)
(0.230336 2.44337 -1.61292e-16)
(1.30433 2.59625 1.87399e-16)
(0.0829827 3.18861 3.70144e-16)
(-0.261535 2.78898 -2.13102e-16)
(1.11504 0.163707 -1.275e-16)
(0.0943017 2.8202 -4.0118e-16)
(0.716627 0.532368 2.91171e-16)
(-0.0412797 2.82981 1.51971e-16)
(1.16569 2.28207 -2.09132e-16)
(-0.132953 0.00849452 6.91792e-16)
(0.299128 -0.100808 -3.07606e-16)
(0.834105 0.27918 -3.09691e-16)
(1.16566 0.14119 3.2382e-20)
(0.312624 1.06773 -6.4419e-16)
(4.36682 -0.292617 2.04581e-16)
(0.389235 2.509 1.8472e-16)
(-0.604974 4.73288 2.13415e-16)
(-0.184035 -0.396731 6.22313e-17)
(0.847479 1.31242 -8.835e-16)
(0.117544 3.01333 6.55944e-17)
(-0.196499 2.89232 2.34685e-17)
(2.16664 0.408557 2.15308e-16)
(-0.146305 3.07645 4.09132e-17)
(-0.137356 0.96318 0)
(5.0448 0.449197 4.27933e-17)
(3.20049 1.98497 1.11344e-16)
(0.885163 2.4324 3.51389e-16)
(2.27308 0.209011 0)
(5.38283 0.662692 0)
(1.25307 0.0306034 0)
(6.76044 0.0654888 0)
(4.49456 0.689885 -1.11711e-16)
(2.85593 2.29819 -1.08679e-16)
(-0.02304 3.08627 -9.67796e-17)
(-0.228578 4.57594 -3.00918e-16)
(3.11891 2.6604 2.46081e-18)
(-1.95445 0.151992 -1.43696e-16)
(1.43567 -0.0707735 2.78524e-16)
(1.45532 0.119772 -2.50449e-16)
(-0.0210625 2.90533 0)
(5.30345 3.53985 -2.39459e-16)
(0.161642 1.30199 -1.05189e-16)
(-0.0828843 1.4007 1.46337e-16)
(-0.225596 0.914452 0)
(-0.184544 2.8914 -3.93056e-17)
(0.0135826 3.20799 -7.0184e-17)
(1.17374 0.0860011 2.50364e-20)
(3.10055 5.43796 1.07033e-17)
(0.0629904 -0.04282 -3.64405e-16)
(1.12055 0.104231 2.82433e-16)
(2.90558 0.835282 -1.12035e-16)
(0.209189 2.75347 -3.59491e-17)
(5.51207 2.92032 -1.10944e-16)
(0.712279 2.17125 -1.7143e-16)
(0.182857 1.56161 0)
(-0.0495164 0.66921 7.02696e-18)
(1.85195 0.0837104 -1.50938e-16)
(1.10005 0.126856 -3.69553e-16)
(0.624869 0.693013 5.63919e-16)
(0.947318 0.270352 -2.66891e-16)
(0.803776 5.55442 -1.62653e-16)
(-0.235854 2.85589 -2.28046e-16)
(3.64795 0.8363 1.61529e-16)
(1.21738 0.0525639 2.28758e-16)
(-2.09062 2.32839 2.51554e-17)
(1.36826 5.93079 0)
(5.44018 0.0909334 -3.999e-17)
(-1.56431 1.97005 5.12559e-16)
(-0.00561123 -0.14748 -2.08851e-16)
(3.06679 1.16943 0)
(2.56957 1.23873 -3.54528e-16)
(-0.062278 -0.000401649 0)
(3.90701 2.73218 -4.02448e-16)
(6.1374 0.574805 1.6304e-16)
(-0.464775 -0.000838477 -1.48736e-18)
(7.93213 -0.589359 -3.52014e-16)
(-0.130793 0.0267536 0)
(1.31617 5.43299 1.47978e-16)
(0.784307 2.10296 -3.88721e-16)
(0.263786 1.91877 1.84078e-16)
(0.0143441 -0.0622763 5.66735e-17)
(3.44784 1.06689 7.99555e-17)
(1.19983 0.0814029 -2.68937e-16)
(0.0595927 -0.118596 0)
(0.0649498 -0.0524628 2.75554e-16)
(0.163105 0.0596449 0)
(7.29406 -0.105529 -2.28029e-16)
(0.112939 3.21832 0)
(0.142214 0.990637 1.38804e-16)
(-0.560876 1.56328 1.59777e-16)
(-0.0485587 -0.0776631 -3.21758e-17)
(0.511727 4.38933 -4.10924e-17)
(-0.0913243 3.25969 1.25376e-16)
(5.37132 1.14526 1.78481e-16)
(-0.322845 2.54768 0)
(0.0555088 3.12477 -2.23754e-19)
(1.1842 0.831565 -1.96109e-16)
(2.03601 1.6451 -2.41637e-16)
(2.37574 2.01613 -3.5124e-16)
(0.909232 4.75902 0)
(1.88751 2.56912 2.54805e-16)
(-0.0634725 -0.0543785 0)
(0.0591087 -0.227358 4.06675e-16)
(0.208002 1.06413 0)
(0.182252 1.88723 -1.94698e-16)
(0.0389668 1.15694 -9.38975e-17)
(1.21149 0.0285816 3.29241e-16)
(-0.0919152 2.96157 -4.00437e-17)
(3.12002 3.58912 -1.31903e-16)
(0.04948 -0.119027 -1.10865e-16)
(1.36566 2.79687 -3.16901e-16)
(1.26605 0.0334401 -2.78236e-16)
(1.28559 0.264185 2.25364e-16)
(0.0378691 2.4243 1.55218e-16)
(3.53636 3.16827 7.92824e-16)
(-0.203557 -0.233437 -5.41765e-16)
(0.804123 5.02975 3.60452e-17)
(2.22022 5.73076 -1.51939e-16)
(5.53699 1.88348 7.29001e-17)
(3.06594 3.47784 -3.93825e-16)
(1.87981 0.32797 3.99286e-16)
(-0.729174 1.88632 -2.3439e-16)
(-0.267538 -0.257154 -2.60622e-16)
(0.321733 -0.0696486 2.29853e-19)
(3.86071 1.98926 9.29885e-17)
(0.017568 -0.0775034 5.90616e-17)
(0.685626 3.12478 -3.71612e-17)
(-0.0307697 4.16828 -9.1114e-17)
(0.273568 0.0642174 -9.45066e-17)
(5.52215 -0.0386382 -1.85381e-17)
(0.86857 3.78087 -1.08125e-16)
(5.99491 -0.475846 2.48812e-17)
(3.10236 4.76356 1.49071e-16)
(3.79023 5.07305 -2.25844e-18)
(6.12905 2.71655 -5.57855e-17)
(-0.248587 3.3915 -1.22149e-16)
(2.01124 4.6648 1.0416e-17)
(0.440019 2.53315 0)
(1.25419 5.86398 1.99951e-16)
(-0.320206 1.22157 -3.62217e-16)
(3.01985 0.674422 5.14586e-18)
(6.3367 2.19067 0)
(0.682549 4.14391 3.54941e-17)
(1.37039 2.17324 0)
(0.648152 5.97383 1.10436e-16)
(0.362286 5.46694 1.23761e-16)
(-0.419992 3.11475 0)
(-0.0410694 -0.0741975 -3.82817e-16)
(-0.0930444 1.90793 3.46916e-19)
(4.40781 1.88038 7.22723e-17)
(4.91896 1.57025 5.87701e-17)
(-0.603836 -1.46829 1.72104e-16)
(0.509125 5.06289 5.6275e-18)
(0.376818 4.5253 0)
(0.0664398 5.82095 1.02021e-16)
(0.061174 3.475 -2.98264e-17)
(0.418609 4.75114 -5.16229e-18)
(-0.068554 -0.208778 8.13794e-16)
(0.066518 2.90864 7.03467e-17)
(0.200533 0.240571 -4.09146e-17)
(0.103889 3.83513 7.70623e-17)
(-0.685076 -0.223022 7.10492e-16)
(2.11727 5.67775 -1.05889e-16)
(-0.316724 2.95526 1.26853e-16)
(-0.300713 2.81053 -4.16309e-16)
(-0.252206 2.89304 -2.65722e-16)
(-0.185265 2.83821 3.9414e-16)
(-0.112127 2.74237 0)
(-0.205666 2.77058 2.12829e-16)
(-0.0182206 -0.10198 -2.89656e-17)
(-0.043202 -0.133149 -3.15047e-16)
(-0.0562707 -0.102963 2.23504e-16)
(-0.0530642 -0.0886934 -5.59294e-17)
(0.244261 1.25123 2.38886e-17)
(0.36238 2.70779 6.34814e-17)
(-0.353083 3.05084 -7.75826e-17)
(0.332274 2.617 -7.39763e-17)
(-0.175734 2.86323 -2.11373e-19)
(0.000487201 1.51508 1.63077e-16)
(-0.0754127 -0.129882 -6.93973e-17)
(0.124564 4.0122 -3.59778e-17)
(-0.159514 2.69791 8.20411e-17)
(-0.00916835 0.778594 0)
(-0.135515 -0.156728 -2.34882e-16)
(0.00518525 -0.190995 2.75501e-16)
(0.398878 3.29065 0)
(-0.118237 -0.556968 3.12965e-16)
(0.00335443 3.71162 -3.36473e-17)
(-0.391885 -0.322624 1.24706e-19)
(0.411924 2.99511 -5.48876e-16)
(0.0475072 -0.068655 -1.36838e-16)
(-0.527316 -0.240481 0)
(-0.05884 -0.736431 1.74038e-16)
(0.12282 -0.405528 -1.63175e-16)
(0.519154 2.49217 -2.35848e-16)
(0.577503 1.34798 3.42946e-16)
(-0.239759 -0.451332 9.60491e-16)
(0.938218 0.0436433 -1.59908e-16)
(-0.0542267 -0.363909 0)
(-0.229983 -0.397831 0)
(0.650108 0.0498363 1.55327e-16)
(0.137892 -0.241548 0)
(-0.43381 -0.193849 0)
(-0.211142 -1.05841 -2.39141e-16)
(-0.372742 -0.650393 5.80137e-16)
(-0.389619 -0.432908 0)
(0.294809 1.77902 1.45156e-16)
(-0.529074 -0.406621 1.61049e-16)
(0.216614 -0.53114 -2.10272e-19)
(-0.64373 -1.58508 5.10656e-16)
(-0.00444152 2.96178 2.08403e-17)
(-0.670154 -0.630147 -8.47766e-16)
(0.0458635 -0.757809 4.32424e-16)
(0.14456 -0.0767407 0)
(-0.0795474 2.24703 5.05728e-19)
(0.613337 -1.26296 5.56442e-16)
(-1.04663 2.91525 3.85984e-17)
(1.20665 0.0870097 -5.83568e-16)
(-0.0406137 0.711992 -4.78743e-16)
(-0.0959111 -0.0958252 9.38085e-17)
(-0.0821949 0.42243 -8.59846e-17)
(0.0834058 -0.134325 4.51915e-16)
(0.125956 -0.03317 -5.04879e-16)
(-0.182389 -0.0784724 5.45985e-17)
(0.0348849 0.125364 -1.18608e-16)
(0.124036 0.0070149 3.76858e-16)
(-0.0900556 -0.0437918 0)
(1.20333 0.0677231 -3.28161e-16)
(-0.4521 -0.145408 2.02141e-16)
(7.01183 -0.93346 7.84976e-17)
(1.20501 0.0538278 0)
(-0.498765 -0.0959131 -1.31396e-16)
(0.161795 0.110075 2.40615e-16)
(1.2229 0.0811246 -5.26773e-19)
(-0.539237 -0.111923 -1.78574e-16)
(0.14539 0.711424 -5.25906e-17)
(8.21433 -0.833931 3.27056e-17)
(0.362392 2.14971 -2.52088e-18)
(-0.0628906 0.281595 6.99946e-18)
(0.178781 -0.259436 0)
(-0.216301 0.399454 0)
(0.140982 0.55119 0)
(1.20132 0.0717019 2.89121e-16)
(-0.0454655 -0.0848274 -6.21761e-16)
(0.303877 1.47118 -2.8807e-17)
(-0.00439166 -0.106852 -3.10371e-16)
(-0.133797 0.985264 7.59956e-16)
(0.0641665 0.186953 2.8206e-16)
(-0.473268 -0.316172 -1.97156e-16)
(-0.0892249 2.5898 -1.56924e-16)
(0.239028 1.51414 -4.24739e-17)
(-0.244991 1.30138 -8.08893e-17)
(-0.216317 2.58819 7.95554e-17)
(0.0369436 1.39793 1.73002e-16)
(0.328902 0.146638 1.4954e-19)
(-0.0415669 0.0706357 -8.06535e-16)
(0.227907 -0.21701 -2.34018e-19)
(1.1653 0.107502 1.66753e-16)
(-0.396374 -0.25603 4.89836e-19)
(0.311032 -0.10281 -3.0228e-16)
(-0.828858 3.32424 0)
(-0.994572 4.04318 0)
(-1.46671 3.57293 -9.36516e-18)
(0.297827 4.92585 -1.24645e-16)
(0.0015325 1.75911 3.14394e-16)
(0.202592 3.06468 -2.38497e-16)
(-0.947846 3.78778 1.02516e-16)
(-1.24668 3.87392 -3.53861e-17)
(2.62656 3.01053 -2.50894e-16)
(-0.462205 -0.21842 -2.11865e-16)
(0.279936 -0.118766 2.91429e-16)
(-0.299352 5.5077 -9.47412e-17)
(0.0712048 5.21875 1.13754e-16)
(-1.34794 4.16063 1.39329e-16)
(-0.131936 3.10911 7.16689e-17)
(-0.0064521 -0.177974 -2.7637e-16)
(0.0260642 2.61192 1.57725e-16)
(-0.864266 3.10136 0)
(0.237375 2.84838 3.71521e-17)
(0.137891 2.94547 0)
(-0.0201441 2.73912 9.09916e-18)
(1.76254 2.10204 0)
(-0.338123 3.0613 9.18969e-17)
(-0.116691 2.80336 0)
(-0.119273 2.8352 0)
(0.0940498 0.821212 2.1344e-19)
(-0.219935 0.40944 3.46463e-16)
(0.115197 0.0825205 -3.35546e-16)
(-0.432149 3.20912 0)
(0.397204 4.27174 0)
(1.18959 0.130248 2.46253e-16)
(-0.623821 0.0108413 1.49907e-16)
(0.185064 2.93922 0)
(1.26091 0.156532 3.25246e-16)
(-1.12445 3.62772 -1.75429e-17)
(-0.524991 3.0879 6.27023e-17)
(-0.159074 1.61028 -1.37984e-16)
(0.151386 2.98287 -1.40346e-16)
(-0.359096 3.10367 -1.27739e-16)
(0.0805655 1.95945 -2.94889e-17)
(8.13683 -0.81675 -3.00654e-16)
(6.91287 -0.59213 8.27342e-18)
(0.132485 -0.223658 9.68851e-16)
(-0.0455128 2.79323 -7.80831e-18)
(-0.43588 1.53453 2.90328e-16)
(-0.765945 3.67922 8.65129e-18)
(1.66201 3.12117 0)
(-0.983058 3.44334 0)
(-0.196089 2.26132 4.67551e-17)
(-0.283687 1.76455 0)
(0.751993 -1.07914 -4.73479e-16)
(-0.042787 2.31065 -6.52499e-17)
(-0.876799 3.60338 -1.38236e-16)
(-0.795289 0.944526 1.95388e-16)
(-0.650093 2.51372 -4.65137e-17)
(0.349562 5.87927 -2.07127e-16)
(0.197098 2.74971 0)
(0.124927 2.81128 0)
(-0.110209 1.83679 -5.65409e-17)
(1.84023 5.09845 0)
(0.488273 4.00305 0)
(0.253573 2.09444 0)
(0.0956213 2.7009 -2.51419e-16)
(2.244 3.40454 1.08058e-16)
(-0.345697 0.51189 -3.27783e-16)
(0.215188 0.251238 -3.15154e-16)
(-0.392701 3.01504 2.03841e-16)
(0.0996523 2.39097 8.2328e-17)
(1.16949 4.83585 -4.8624e-17)
(0.234236 2.50604 2.39782e-18)
(2.30747 4.59385 -5.71165e-17)
(-0.666394 3.64299 -6.99507e-17)
(1.15808 0.184293 1.34171e-16)
(-1.28435 -0.949657 2.60871e-16)
(-0.664369 0.625258 1.12719e-16)
(0.182772 0.282973 -6.29046e-17)
(0.0613267 2.76265 -1.40134e-17)
(-0.332268 1.86664 5.48181e-17)
(0.168339 3.00645 2.38753e-16)
(0.188973 2.98394 -2.34706e-20)
(-0.344277 3.04991 3.66582e-17)
(1.89364 0.383291 1.30609e-16)
(2.71191 4.05144 -2.4262e-16)
(-0.775279 3.48294 1.76348e-17)
(-0.0605665 4.83716 1.62093e-16)
(1.18048 0.0754952 2.90975e-16)
(1.07706 3.29466 3.53537e-17)
(6.98116 -0.407788 -2.83934e-16)
(-0.326884 2.97668 7.30743e-17)
(0.122474 2.66479 9.50742e-18)
(-0.719572 3.5869 -1.74884e-17)
(0.600282 3.63137 6.6182e-17)
(-0.00136478 2.88285 1.5701e-16)
(-0.0787176 2.92129 3.55626e-17)
(-0.623676 3.52471 0)
(2.43916 0.539946 0)
(2.50713 1.61407 5.46613e-16)
(-1.16049 2.90951 -6.48326e-18)
(-0.175773 3.42753 8.99072e-17)
(5.82494 3.60023 -4.63548e-17)
(0.0312448 2.86557 3.8675e-17)
(0.166651 2.87637 -1.85074e-17)
(-1.19101 -0.290423 4.91286e-16)
(-1.27551 3.35571 -5.89622e-17)
(0.0275993 2.92338 -7.24732e-17)
(0.116833 2.8928 1.44677e-16)
(-0.54014 3.22976 -1.95457e-16)
(-0.323189 3.00938 2.41238e-16)
(-1.0686 3.19616 6.81647e-17)
(0.0722436 3.17199 3.06578e-20)
(6.29736 1.38893 1.23558e-17)
(0.23649 2.93807 -2.30619e-16)
(-0.325452 3.06162 -1.18943e-16)
(0.0541657 3.17181 -1.45634e-16)
(1.54087 4.46647 0)
(0.259571 -1.00974 0)
(0.0765298 2.84308 -1.51734e-16)
(0.113107 3.15566 1.23702e-19)
(0.13442 2.97718 5.07342e-17)
(0.335314 2.99315 1.03443e-16)
(-0.742274 3.7579 8.55793e-18)
(-1.41732 3.04784 2.26179e-18)
(-0.634413 3.70493 2.58725e-17)
(0.874981 2.51749 0)
(4.16775 3.7109 -4.92309e-18)
(4.87952 4.21193 -9.91167e-17)
(0.688768 4.64015 4.69746e-18)
(0.320175 2.21177 -1.02266e-16)
(0.687075 0.131882 -2.43584e-16)
(1.22816 0.0906782 -2.36144e-16)
(0.185556 -0.143734 -1.5017e-16)
(0.025536 0.0649615 -1.32124e-16)
(-0.170689 2.86775 0)
(-0.851721 2.82281 7.41171e-18)
(0.251086 1.94682 0)
(1.89009 3.95811 0)
(2.78669 5.2259 5.38602e-17)
(-0.0332106 2.05716 0)
(2.34226 2.51712 1.39819e-16)
(2.98654 1.57155 -1.4478e-16)
(1.41055 3.59104 6.83917e-17)
(5.90732 0.730837 0)
(-0.037036 3.31829 -1.20318e-17)
(0.93022 4.40168 1.7228e-17)
(-0.010243 -0.108062 4.41657e-16)
(1.31174 0.127081 -1.54129e-16)
(3.29539 4.68747 3.13732e-16)
(5.79461 -0.750301 -5.20478e-18)
(0.0222508 2.80692 1.56108e-16)
(-0.440512 2.04664 1.70241e-16)
(0.140092 0.563866 1.51232e-16)
(-0.415381 2.9812 -1.81696e-16)
(0.100242 2.95458 0)
(-1.62088 3.80216 -4.90144e-17)
(4.20005 2.3071 1.40052e-16)
(5.68039 1.00893 -1.17074e-16)
(4.31884 4.65022 7.85634e-17)
(-0.0106151 2.83442 -8.36675e-17)
(5.69167 2.24404 7.13334e-17)
(-0.29698 3.5703 8.56433e-20)
(-0.52105 3.76617 -3.61424e-17)
(2.10783 1.28244 4.43019e-16)
(-0.00417554 2.80909 6.7375e-17)
(-0.585182 3.6344 7.41763e-17)
(-0.0784213 2.85328 4.48915e-17)
(-0.322319 3.54791 9.43473e-18)
(0.916027 0.383529 2.36616e-16)
(-0.116763 2.89111 -1.43374e-16)
(3.7044 4.1984 -1.35884e-16)
(-0.655801 1.11638 1.28576e-16)
(-0.439556 3.32585 0)
(-0.497779 3.76403 4.42368e-18)
(1.1753 4.04495 -3.48146e-17)
(-0.0541803 2.82063 -8.17324e-17)
(7.36087 -0.334525 4.08177e-16)
(0.653628 0.841535 -2.82797e-20)
(-0.0455141 -0.0693256 3.20999e-16)
(-0.855743 5.43283 1.57359e-16)
(-0.145069 2.92481 2.61806e-16)
(-0.721381 1.0886 1.74886e-16)
(-0.210052 1.65067 2.06441e-16)
(1.31685 0.0338029 3.46193e-16)
(6.86197 1.04629 7.26742e-17)
(-0.758568 3.84079 -1.00937e-16)
(4.2108 -0.493568 4.47887e-18)
(-0.063955 0.896348 4.71722e-16)
(4.53683 3.15971 0)
(-1.44159 4.45075 0)
(2.78189 0.358018 1.31634e-16)
(-0.355984 1.05471 4.5198e-19)
(2.00074 0.916914 0)
(0.19779 0.499529 0)
(-0.782362 0.430476 0)
(-0.0181391 -0.0715574 -5.79343e-17)
(1.71589 0.25365 5.15423e-17)
(-2.15339 0.879177 0)
(0.272005 0.0287121 1.00369e-15)
(-0.00494875 -0.176858 -1.12127e-15)
(0.049006 -0.145316 1.80307e-16)
(0.0772291 -0.0988305 -3.46776e-16)
(0.431079 0.164793 2.61129e-17)
(-0.246329 -0.109089 1.59153e-16)
(4.92868 2.08854 3.32342e-16)
(-0.0456611 2.89297 7.89522e-18)
(-0.0546239 -0.0953138 -2.7597e-17)
(1.05843 0.0785473 8.32973e-16)
(-0.204962 1.03659 0)
(1.30653 0.168998 -2.92359e-16)
(2.12225 1.87033 2.352e-16)
(2.29165 0.226623 0)
(0.683359 0.00277569 1.95286e-16)
(-1.64934 3.27486 9.39465e-18)
(0.713208 0.0568458 0)
(-0.506131 5.63813 8.74795e-17)
(5.43277 1.62539 -4.42225e-17)
(4.76644 2.62811 -2.33043e-16)
(0.310634 3.8594 -1.80698e-16)
(1.66325 0.204588 2.64323e-16)
(0.732146 -0.015501 -6.74234e-16)
(0.215324 3.97005 -1.06572e-16)
(-1.38828 -0.593058 -1.12022e-16)
(2.5772 0.208461 -3.89587e-18)
(-0.675655 3.25863 1.0302e-16)
(-0.0819782 2.94592 2.37337e-16)
(2.01284 0.219708 0)
(0.672049 0.0251528 1.79573e-16)
(1.23976 0.0403495 0)
(-0.220602 2.91341 0)
(-0.304215 3.04111 1.52349e-16)
(1.885 0.525985 -1.72683e-16)
(-0.0538768 1.43821 1.03369e-16)
(0.798733 -0.0305641 3.2603e-16)
(-0.273639 2.96214 -1.27461e-16)
(-0.644025 2.86094 0)
(0.0873179 2.30416 4.35783e-19)
(-0.784812 -0.127723 4.05734e-16)
(-0.16553 3.20232 4.04821e-17)
(-0.502324 3.59548 8.11314e-17)
(-0.00955457 2.93369 2.23253e-16)
(3.80415 2.09612 -4.77819e-17)
(-0.321268 3.15657 -1.77186e-19)
(-1.19922 3.42604 -1.49296e-16)
(3.80508 0.69391 -9.30055e-17)
(4.14554 -0.817681 6.42073e-17)
(-0.546913 -0.135961 -3.35104e-16)
(-0.320306 1.34356 0)
(0.0933317 1.30642 0)
(-0.329977 1.8465 0)
(-0.0614992 2.88632 4.52354e-16)
(-0.031209 2.84853 -4.01574e-17)
(-0.352285 2.1968 0)
(-0.544942 2.65606 0)
(0.387034 0.0668172 5.59287e-17)
(-1.4876 0.438753 9.592e-17)
(-0.143786 1.14472 2.80916e-16)
(-0.515256 -1.14694 4.22131e-16)
(-0.0701224 -0.210138 0)
(0.0237306 0.841654 -6.18418e-17)
(1.16946 1.4788 8.35934e-16)
(-0.020934 2.24313 2.90365e-21)
(-0.436521 3.7202 0)
(-0.161657 -0.239317 -2.95905e-16)
(-0.671488 3.67386 6.10497e-17)
(0.113287 2.99405 1.3e-16)
(0.203905 -0.140514 1.48106e-16)
(-0.0932546 2.83483 0)
(-0.623588 -0.197744 1.84127e-16)
(0.351117 -0.897783 6.64998e-16)
(-0.480066 -0.823114 3.3352e-16)
(3.2674 0.0980624 0)
(0.0695258 0.4529 2.72153e-17)
(-0.484365 2.94558 -1.29081e-16)
(5.57934 0.524038 -1.00639e-17)
(-0.040021 2.85223 -2.34748e-17)
(-1.32503 -0.523707 -5.0345e-16)
(1.01733 0.112557 -4.59963e-20)
(-0.113884 0.0688094 1.77471e-16)
(-0.0150155 1.68357 3.95365e-16)
(0.374234 0.895775 -1.37229e-16)
(0.571793 3.1089 2.0043e-16)
(0.029709 2.70933 0)
(6.66596 0.347384 -1.23921e-16)
(-0.0546777 2.51205 -9.85342e-17)
(0.102577 2.65288 8.68973e-17)
(-0.527016 1.4287 1.83984e-16)
(0.872114 0.531589 4.58008e-19)
(1.71899 1.47161 -4.98361e-17)
(-0.668439 4.38421 -5.89682e-17)
(3.75636 1.69385 0)
(-0.105673 3.01411 -3.40845e-17)
(0.924701 0.805431 0)
(-0.0266353 0.425533 0)
(-0.102113 2.77935 2.81848e-16)
(1.32083 0.2121 -8.86045e-17)
(-0.663467 2.40425 -3.21221e-19)
(0.292545 -0.109872 2.95505e-16)
(-0.413499 -0.136666 2.11772e-16)
(-0.873406 -0.988285 2.03488e-18)
(-0.246236 2.58985 -4.7584e-16)
(1.33735 1.93774 3.4689e-17)
(1.02398 0.125616 3.23229e-16)
(-0.348312 2.57922 -1.87812e-19)
(0.162711 2.59294 2.25e-16)
(0.402493 2.08788 0)
(-0.0356369 2.3107 4.20282e-17)
(-0.119331 3.20834 4.39478e-17)
(-1.20245 0.541792 -2.45938e-17)
(-0.785943 5.01481 -5.77835e-17)
(0.037981 -0.179733 -2.86393e-16)
(0.122034 -0.161588 4.23041e-16)
(0.142634 2.99694 0)
(-0.300354 3.1056 8.3115e-17)
(0.138065 4.67344 -1.83205e-16)
(-0.397951 2.8328 1.30747e-16)
(-1.52393 4.70654 -3.3962e-16)
(-0.206729 2.55952 0)
(-0.326959 1.84613 -4.66142e-16)
(1.22675 0.129044 -1.32214e-17)
(6.18529 0.898562 -6.71078e-17)
(-0.390259 3.55092 1.54567e-16)
(0.168751 -1.10587 1.40615e-17)
(-0.211176 -0.379984 -3.07765e-16)
(0.244214 0.731742 -6.66812e-17)
(-0.362119 1.18953 -3.08765e-16)
(1.00697 -0.847993 -1.9003e-16)
(-0.0173849 2.94359 1.52561e-16)
(-0.0954332 -0.134127 -3.71289e-16)
(4.75986 3.5349 1.89427e-16)
(0.0979155 -0.0732199 -4.63978e-16)
(0.0519147 0.28047 1.79964e-16)
(7.01964 -0.158295 7.77184e-17)
(-0.799342 -0.731379 -1.10205e-19)
(0.110168 2.61288 1.47468e-16)
(-0.0430467 2.32017 7.98045e-17)
(-0.648764 3.61954 -8.62763e-17)
(-0.128318 2.56084 5.38178e-18)
(-0.0313285 3.34293 1.45555e-16)
(0.806744 0.722257 8.4151e-20)
(-0.152279 -0.128193 2.85693e-16)
(1.67535 0.218458 -7.40878e-17)
(-0.124484 3.03528 0)
(1.1433 0.124448 -1.7287e-16)
(-0.40963 3.62975 -9.30418e-17)
(0.882688 -0.09544 -1.04665e-16)
(-0.349578 3.22354 -3.69941e-20)
(-0.37033 0.20607 -3.46335e-16)
(3.91845 0.97685 -8.88983e-17)
(0.319774 -0.289608 2.2517e-16)
(-0.393821 -0.29734 2.15682e-16)
(-0.269242 1.77423 0)
(6.43616 0.906961 0)
(6.42664 0.487567 4.70685e-17)
(-0.0473004 2.45835 0)
(4.69522 0.649377 0)
(2.84283 1.91712 -1.71427e-16)
(-0.517358 2.6519 0)
(-0.433395 -0.210411 1.6611e-16)
(-0.212717 -0.127906 2.6047e-16)
(0.387785 -0.451712 6.43467e-20)
(-0.161068 -0.500891 -1.20051e-16)
(0.824933 0.0900411 -3.4417e-16)
(-0.291012 2.25186 5.31707e-19)
(-0.222744 2.50684 0)
(-0.385185 2.83809 -7.21577e-17)
(-0.165091 3.13455 1.44643e-16)
(-0.652591 3.40478 3.57745e-17)
(-0.433639 -0.142211 -3.32543e-19)
(-0.699692 -1.2705 0)
(0.388046 3.8924 1.69484e-18)
(3.36986 0.0370092 -1.11746e-16)
(-0.00369274 2.99499 2.75436e-16)
(1.13108 0.171344 0)
(0.901096 -1.88513 -5.7585e-16)
(-1.11467 -0.86493 2.45798e-16)
(5.50963 -0.167477 3.63374e-17)
(0.211022 2.7691 -9.27995e-17)
(0.224425 2.889 0)
(-0.367292 3.0298 1.40437e-16)
(1.5102 0.293261 6.43655e-16)
(4.46718 0.320582 -7.41288e-19)
(1.38908 0.183488 6.33951e-16)
(0.376388 -0.186207 9.29536e-17)
(-0.123184 3.14803 -1.93519e-16)
(-0.500505 5.1203 -2.99819e-16)
(0.051765 2.96834 -5.22432e-16)
(7.57945 -0.498956 7.37132e-19)
(-0.630887 2.31667 -5.44063e-16)
(0.588513 0.277382 -1.42341e-17)
(-0.521154 -0.0171618 2.1395e-16)
(0.056743 2.67824 9.67816e-17)
(-0.476291 2.08694 -3.16255e-16)
(1.23224 0.231615 2.99809e-16)
(0.2074 3.00235 7.60235e-17)
(-0.346894 3.08892 -9.13064e-17)
(0.874894 0.0817705 5.06334e-16)
(0.837782 -1.86562 -1.0471e-16)
(1.55343 0.0211007 -5.91011e-17)
(-1.02342 4.3575 -1.25112e-16)
(-0.501882 2.00614 -4.74428e-19)
(-0.534485 3.35168 0)
(0.0726594 2.61353 0)
(0.0764999 2.4879 0)
(0.0602316 2.67786 -5.82994e-17)
(0.0307876 2.13093 3.99327e-17)
(0.0734916 2.32371 0)
(0.00431151 2.16351 0)
(0.0558316 2.19324 0)
(0.0282386 2.92982 -1.3275e-16)
(-0.0741495 2.80187 0)
(-0.0285928 2.83151 0)
(0.050431 2.80253 1.33911e-16)
(-0.00754929 2.94774 0)
(-0.0421387 2.9193 -6.30541e-17)
(0.0670391 2.65715 3.21559e-17)
(-0.117902 2.6793 0)
(0.0182838 2.74068 -1.323e-16)
(0.10791 2.31011 -5.92538e-17)
(0.087643 2.49112 3.60885e-17)
(0.0598856 2.54601 1.42741e-16)
(0.0914169 2.26595 4.03447e-17)
(0.16236 1.8155 1.81892e-17)
(0.120547 2.02115 -2.19642e-17)
(-0.0609216 2.86962 6.58683e-17)
(-0.0659192 2.8357 0)
(-0.0707241 2.79937 0)
(0.0350298 2.73323 5.8179e-17)
(3.67822 -0.619458 4.0649e-17)
(8.30699 -0.616694 -2.01536e-18)
(0.524791 0.06875 -2.87393e-16)
(-0.567395 -0.58223 -1.02029e-16)
(-1.20218 2.43507 -1.71401e-16)
(-0.503489 -0.503226 -2.16975e-16)
(-0.774914 1.00953 3.04147e-16)
(0.0575325 -0.0975162 3.04931e-16)
(0.0356666 -0.0520388 0)
(-0.175593 3.31661 -2.54962e-16)
(0.115009 2.45521 -1.08668e-16)
(-0.0812536 2.87676 -8.3762e-17)
(-0.101561 -0.234967 -5.66057e-16)
(3.09198 0.150379 0)
(5.96109 1.56881 -1.20636e-17)
(0.0697622 0.133057 -2.00836e-16)
(-0.656008 1.61335 1.6184e-16)
(0.746177 -1.27244 1.11738e-16)
(1.23163 0.0855213 9.33168e-16)
(-0.136986 2.19764 1.8965e-16)
(1.20495 0.0470595 0)
(0.2528 4.41099 4.3611e-16)
(-0.522568 3.46898 0)
(-0.209076 -0.298334 0)
(-0.0865532 2.72428 0)
(-0.410231 -0.0831048 1.01131e-16)
(0.291617 -0.0620561 2.12424e-16)
(6.75218 0.89821 -2.77797e-16)
(0.922237 -0.0426855 -1.90428e-16)
(7.14331 0.0951234 -7.84087e-17)
(-0.245947 0.846084 0)
(0.258268 -0.193552 0)
(0.82413 -1.88657 -1.33736e-16)
(-0.0617577 2.97434 3.31528e-16)
(-0.361245 0.217812 0)
(0.285789 -0.753337 -3.55587e-16)
(-0.522675 -0.633377 0)
(-0.0813314 -0.0752759 0)
(2.05189 0.133344 3.10538e-17)
(1.62543 0.280993 6.84397e-19)
(-0.0819715 2.91944 -7.54033e-17)
(-0.661361 -0.292768 -4.4818e-16)
(0.014042 -0.363118 3.26226e-16)
(1.27988 0.523213 -1.82811e-16)
(0.0140009 1.98479 0)
(5.90031 -0.587706 3.01214e-17)
(6.01169 1.24204 0)
(0.967898 0.978783 -4.41517e-16)
(0.476207 -0.40292 -3.40266e-16)
(4.42684 0.843858 -2.75616e-16)