/*--------------------------------*- C++ -*----------------------------------*\
| =========                 |                                                 |
| \\      /  F ield         | OpenFOAM: The Open Source CFD Toolbox           |
|  \\    /   O peration     | Version:  v1912                                 |
|   \\  /    A nd           | Website:  www.openfoam.com                      |
|    \\/     M anipulation  |                                                 |
\*---------------------------------------------------------------------------*/
FoamFile
{
    version     2.0;
    format      ascii;
    class       volVectorField;
    location    "0.23";
    object      U;
}
// * * * * * * * * * * * * * * * * * * * * * * * * * * * * * * * * * * * * * //

dimensions      [0 1 -1 0 0 0 0];


internalField   nonuniform List<vector> 
1466
(
(-4.05154 -0.19866 -1.22929e-16)
(5.05699 -0.0425116 5.56855e-19)
(0.319033 -0.652484 6.19549e-16)
(-0.930781 7.58618 -4.3158e-17)
(0.00586182 -0.486545 -6.75137e-16)
(-3.15227 0.307578 -7.68149e-16)
(0.707641 -1.27102 1.81538e-16)
(0.681166 -0.100538 1.7802e-16)
(7.57912 0.117732 -9.05889e-19)
(5.07301 -0.826925 1.3267e-16)
(8.21785 -0.0593221 -1.34044e-16)
(4.28048 -0.730737 0)
(8.54829 0.0677772 0)
(-0.0585034 -1.00291 -1.58463e-16)
(-2.19857 -0.250007 0)
(7.68476 -0.117499 9.70469e-17)
(-0.829688 -1.27494 -9.57684e-17)
(0.100074 5.91384 -2.35498e-17)
(0.691273 5.44477 -8.80636e-17)
(-0.568923 7.90475 1.33744e-16)
(0.110341 8.49983 5.70571e-17)
(-2.3413 0.263091 4.69627e-18)
(0.0425919 5.98472 -6.09531e-17)
(-0.421942 6.89849 -1.45454e-17)
(8.47103 0.149594 7.01042e-17)
(-0.720722 -0.200923 -2.96021e-16)
(-0.710568 0.842777 -1.19219e-16)
(-0.175859 8.94257 0)
(-0.818166 0.0998053 0)
(4.80781 2.40722 4.94074e-17)
(9.07217 -0.535419 8.41805e-17)
(-1.2249 -0.0105085 1.4855e-16)
(2.60274 -0.266837 1.59794e-16)
(-1.51959 3.13596 2.2384e-16)
(4.73742 -0.183117 8.72284e-17)
(-1.12874 0.370711 2.58912e-16)
(-2.03968 2.8398 0)
(0.530148 0.0204148 -3.02141e-16)
(6.54614 0.246744 -2.22887e-16)
(2.94219 0.00641923 -2.85138e-16)
(4.03799 -0.215812 -1.01925e-16)
(-3.50579 0.0104463 -2.55868e-16)
(-3.9799 -0.120385 1.32865e-16)
(4.05444 0.0586221 8.6527e-19)
(1.03196 0.383557 -3.5773e-18)
(-0.470965 -0.411102 0)
(6.68433 0.327133 6.12055e-18)
(1.65872 -0.144906 0)
(-1.69225 -0.400969 1.26962e-16)
(2.30905 0.218901 0)
(-1.51689 0.462755 -9.14841e-17)
(4.80809 -0.0232659 -3.2603e-16)
(-2.88326 -0.0138554 5.29476e-16)
(0.429683 -0.329264 6.29842e-16)
(1.99882 -0.108288 -8.50715e-17)
(6.58995 -0.0449824 1.16646e-16)
(-2.93072 -0.703969 -1.5974e-17)
(7.36886 0.164768 0)
(-2.02478 -0.767539 8.86905e-18)
(5.27454 -0.376714 0)
(0.515977 -0.233078 2.60101e-19)
(2.97804 -0.434785 -7.72753e-17)
(1.65464 0.409556 1.41648e-16)
(4.61891 -0.16717 1.20836e-16)
(1.67731 5.48791 -1.84982e-16)
(0.80011 -0.409799 2.702e-16)
(0.23958 2.27469 0)
(-1.29222 7.49181 2.33162e-17)
(7.59588 0.55682 2.73812e-17)
(-1.36139 -0.798887 -1.66723e-16)
(1.38442 0.896206 1.37014e-15)
(-0.106833 5.77009 0)
(0.00904649 3.21469 0)
(8.39264 0.224539 -1.4349e-16)
(0.232229 -0.392738 3.46696e-16)
(6.40915 -0.0293064 -1.05817e-16)
(3.20173 -0.0364676 6.75776e-17)
(1.60288 1.05135 -7.73623e-17)
(-3.11714 0.247379 0)
(4.01145 0.826629 0)
(6.06383 -0.307457 -1.0253e-16)
(7.76423 -0.157071 -1.13363e-16)
(-0.322334 -1.03118 -2.81875e-16)
(0.858937 3.32765 2.77741e-16)
(-0.560372 7.04452 9.72077e-17)
(0.746343 6.43304 4.16242e-17)
(-0.933076 2.66148 0)
(3.83761 0.291537 1.55886e-18)
(6.52181 0.121854 1.9947e-16)
(-0.0873648 0.797535 -2.96652e-16)
(-0.563541 -0.289745 -1.09293e-16)
(-1.83709 0.548013 -2.12321e-16)
(-0.00189573 4.0937 -5.50605e-17)
(-2.75042 0.914205 -1.37332e-16)
(0.166384 -0.323838 0)
(1.17686 -0.478232 -3.5392e-16)
(4.8323 -0.104782 2.82843e-16)
(7.44925 0.11654 -6.03811e-18)
(6.7567 -0.122412 2.92608e-16)
(-0.208374 -0.149553 1.00571e-16)
(-2.56314 0.516161 4.33866e-16)
(-0.725684 -0.070274 0)
(1.72529 0.200639 3.30213e-16)
(-0.754894 -0.461237 3.61637e-16)
(-3.8816 -0.222096 -9.998e-17)
(0.862002 -0.119558 8.10644e-17)
(-2.57336 -0.21129 -2.16494e-17)
(1.09121 -0.280096 0)
(7.06864 -0.420915 1.33005e-16)
(-3.73332 -0.55313 5.11339e-17)
(0.275161 -0.320704 -3.33248e-16)
(5.13168 -0.0659152 3.45406e-17)
(-3.53271 0.0357563 -2.20769e-17)
(-3.95554 0.00561056 -3.08434e-17)
(3.52322 -0.651657 0)
(0.346635 -0.301366 1.01444e-16)
(-2.99326 0.216501 1.22153e-16)
(2.83595 0.179872 0)
(2.11338 -1.05199 1.18386e-16)
(0.823939 -1.34293 -5.05348e-16)
(-1.79982 9.26628 -2.78325e-17)
(1.43252 0.631172 1.98485e-16)
(-0.834263 1.70839 -9.15155e-16)
(3.65514 0.0451687 0)
(0.226397 0.0855099 -7.71472e-16)
(-0.737767 -0.0775452 1.55096e-18)
(6.72525 1.02057 4.40529e-17)
(0.036375 5.97361 -6.21943e-17)
(-0.512014 5.90145 2.62562e-17)
(0.94024 0.560231 1.67258e-16)
(6.168 -0.273296 1.76177e-17)
(-2.5793 0.221421 0)
(-0.056959 6.15225 4.17553e-17)
(-0.338137 6.42614 3.16966e-17)
(-0.670167 -0.0901264 -1.56229e-17)
(3.34482 0.0144417 0)
(2.5965 -0.300178 0)
(-0.464518 -0.654734 -9.51939e-18)
(3.49586 -0.361808 -6.68888e-17)
(2.78891 -0.248995 1.52944e-16)
(2.81475 0.142294 0)
(-0.0388779 8.83436 -5.38614e-17)
(-0.70596 8.38164 -2.33835e-17)
(0.320506 5.18553 -2.44269e-18)
(-1.85481 -0.36469 -2.02543e-16)
(0.98933 7.04568 9.31992e-17)
(-1.1824 0.0289552 -2.55119e-16)
(0.693843 0.412357 -4.30717e-16)
(1.64922 0.693867 -6.65939e-17)
(-1.01805 -1.28787 1.12742e-15)
(-0.518033 -0.214007 1.98504e-16)
(3.82762 0.00397619 1.48475e-19)
(7.17672 0.879806 -1.49428e-19)
(-0.0271803 -0.544359 0)
(1.64637 0.842953 0)
(-2.05088 0.455693 1.94429e-16)
(-0.597192 8.89048 -1.25828e-17)
(-0.437143 2.20177 -2.76405e-16)
(-0.639188 0.230288 9.92285e-16)
(5.68465 4.1826 6.19962e-17)
(-1.10148 0.132 1.12123e-16)
(5.59872 1.3618 0)
(0.657634 3.25614 7.03255e-17)
(-0.681888 8.32113 7.12139e-19)
(2.44867 2.71648 0)
(-3.36243 -0.250592 1.12999e-16)
(-0.720289 8.06845 0)
(-0.0487535 4.98094 2.03601e-16)
(-0.333379 7.76152 -2.60608e-17)
(2.46591 8.86583 5.61355e-17)
(-0.0895672 7.74256 1.79096e-16)
(-0.474836 0.255173 -1.17652e-16)
(2.14329 0.396991 3.51884e-17)
(7.49632 0.717854 -1.42711e-17)
(3.5341 -0.0595252 -2.33317e-16)
(7.90322 0.149232 -2.75868e-16)
(5.07472 2.99954 1.58527e-16)
(3.71909 1.67511 -7.17899e-17)
(0.0312309 -0.346732 -4.66678e-16)
(0.958555 1.47842 -2.7508e-16)
(8.79974 0.181362 3.42613e-16)
(4.54436 -0.211177 -2.214e-17)
(-0.0206738 5.18612 -1.7396e-16)
(1.16864 0.585763 2.52155e-16)
(4.13553 0.209462 -3.94095e-17)
(0.340398 6.20202 -2.77187e-18)
(-0.544645 6.6997 -9.76042e-17)
(1.69752 4.31574 -1.56988e-16)
(7.45723 0.382174 6.74799e-17)
(-2.13305 0.648005 3.10072e-16)
(0.0220904 7.78266 -1.23838e-16)
(0.565969 -0.0581928 6.50835e-19)
(0.93238 1.55363 8.66152e-18)
(0.674895 6.83512 2.4093e-16)
(6.1115 3.68266 -3.5194e-17)
(0.301497 -0.340501 0)
(-0.728029 0.0284507 3.7498e-18)
(3.9824 1.5473 -3.27037e-16)
(1.23977 2.66524 -2.97179e-16)
(1.67191 6.33088 -4.79963e-16)
(0.768659 0.997106 0)
(1.26076 0.563545 0)
(5.49894 2.22597 -7.22466e-20)
(0.463839 4.88412 0)
(1.7125 0.445872 2.3463e-16)
(1.6759 2.07752 -2.09809e-16)
(0.552463 7.76513 -1.01817e-16)
(6.74757 3.70542 0)
(-0.21389 0.426681 1.27399e-16)
(-0.522964 7.64053 3.18727e-19)
(0.410599 5.77166 8.25654e-17)
(-0.62084 7.6335 -8.65952e-17)
(-0.0400378 2.53235 0)
(-0.267729 8.45966 1.29778e-16)
(0.246819 8.2265 -3.57719e-17)
(-0.7895 8.32086 4.96105e-20)
(0.136487 6.17997 2.89488e-18)
(-0.50013 6.29704 -8.72545e-17)
(2.95528 3.90365 1.59255e-16)
(-0.59472 7.32853 1.99832e-16)
(-0.0589991 5.50578 -1.52735e-16)
(0.397684 -0.184164 -1.31964e-16)
(-0.69512 8.09468 -1.89829e-16)
(0.75576 -0.282373 2.93533e-16)
(-0.501949 7.87799 8.28264e-17)
(3.1189 3.49862 -1.70399e-16)
(0.152392 -0.961459 6.44919e-16)
(0.89891 0.837631 -2.41098e-16)
(-0.258675 -0.343005 -3.56723e-16)
(0.285343 -0.224638 -1.14285e-19)
(0.805651 0.504576 -7.44146e-16)
(4.4534 0.113744 2.10347e-16)
(0.98418 5.62283 1.20628e-16)
(0.735611 2.66726 2.44129e-16)
(-1.10548 1.40252 4.9954e-17)
(2.2736 1.38215 -8.58709e-16)
(-0.694731 8.24221 3.46376e-17)
(0.0731557 5.08362 1.9488e-17)
(0.71466 0.604633 2.31463e-16)
(0.0237652 7.39392 2.32833e-17)
(0.342451 1.71517 0)
(4.42733 0.772409 4.4931e-17)
(5.69188 3.16606 8.41924e-17)
(2.26724 4.85346 2.24386e-16)
(0.183629 0.365854 0)
(6.03628 1.25685 0)
(-1.24729 -0.0347913 0)
(8.78989 0.349991 0)
(3.09557 0.828752 -1.19074e-16)
(5.90689 3.64604 -7.67208e-17)
(0.0725974 6.90846 -5.23809e-17)
(1.57252 5.89187 -2.63429e-16)
(6.88249 4.31815 3.55284e-18)
(6.86083 -0.0524533 -6.60563e-17)
(-0.862857 0.294687 2.83312e-16)
(0.421005 0.321069 -2.62861e-16)
(-0.745502 8.76641 0)
(9.0562 4.2287 -1.74275e-16)
(-0.379941 5.57164 -5.78492e-17)
(-0.0486017 2.52656 1.10868e-16)
(-0.141374 -0.542737 0)
(-0.0672586 6.29192 -2.66759e-17)
(-0.248149 5.69473 -4.24494e-17)
(0.369919 -0.133871 4.90113e-22)
(4.38671 4.24714 1.01404e-17)
(1.38565 0.347469 -2.72977e-16)
(4.2757 -0.145596 2.29123e-16)
(1.6294 0.820685 -1.17621e-16)
(0.506195 7.71545 -1.85167e-17)
(9.39639 3.79701 -8.44113e-17)
(1.77714 4.34267 -1.18378e-16)
(-0.328282 5.1441 0)
(-0.360726 -0.614539 7.61498e-18)
(-0.0812617 0.450258 -1.65656e-16)
(-0.78863 -0.152338 -3.95818e-16)
(1.00847 -0.106694 5.62299e-16)
(0.00501287 -0.350192 -3.0004e-16)
(2.8048 5.44492 -1.28449e-16)
(-0.220326 7.16973 -1.1752e-16)
(2.1258 0.823345 1.81229e-16)
(0.201971 0.00916538 2.23688e-16)
(4.16138 -0.419928 2.01863e-17)
(2.42274 3.93538 0)
(5.53779 0.558856 -4.0029e-17)
(0.64687 -1.28545 5.03253e-16)
(1.98791 1.17064 -1.28495e-16)
(2.66446 1.27997 0)
(2.69889 1.30273 -3.33167e-16)
(-3.02916 -0.349084 0)
(7.84899 4.20621 -2.84417e-16)
(7.88882 1.23922 1.42223e-16)
(-3.59391 -0.244297 6.34105e-19)
(8.71971 0.136018 -3.59411e-16)
(-3.0162 0.0552947 0)
(3.9693 6.06678 1.09272e-16)
(0.996533 2.27859 -4.09672e-16)
(-0.220572 4.12144 1.20689e-16)
(2.76902 0.387036 3.33842e-17)
(2.6257 1.21649 8.13876e-17)
(0.085244 -0.0461235 -2.96696e-16)
(0.33679 -1.23006 0)
(-1.14322 -1.02054 1.90742e-16)
(-0.522239 -0.269895 0)
(8.94284 0.414645 -2.15605e-16)
(-1.67491 1.98505 0)
(-4.31459 5.36005 5.69322e-17)
(0.166371 1.78877 1.24076e-16)
(-1.4538 -1.52349 -1.97662e-17)
(3.34444 8.48506 -2.71958e-17)
(-1.41352 8.51593 6.11701e-17)
(7.23198 1.9692 1.56022e-16)
(-0.0576718 4.56436 0)
(-0.820765 7.71285 -1.49329e-18)
(3.10958 0.548309 -1.42952e-16)
(3.75813 1.92163 -1.9525e-16)
(4.77228 2.9287 -2.93353e-16)
(-1.08089 -0.269175 0)
(5.18434 3.61462 2.20131e-16)
(-0.851716 -0.108102 0)
(-1.13597 0.31841 3.05097e-16)
(0.0610145 -1.00598 0)
(-0.276475 4.60931 -1.21401e-16)
(0.1217 1.98362 -6.88835e-17)
(-0.0945804 0.0283102 3.5936e-16)
(-1.41521 4.4514 -2.95228e-17)
(7.75718 5.4216 -8.94051e-17)
(2.40365 0.919695 -6.56737e-17)
(4.72357 3.80526 -2.22912e-16)
(-0.515505 -0.00365127 -2.73534e-16)
(3.788 -0.215018 1.67926e-16)
(0.253877 6.438 9.98537e-17)
(7.8505 4.81358 5.40851e-16)
(0.029006 -1.43618 -3.97932e-16)
(3.72181 7.37167 2.34548e-17)
(2.24333 3.04226 -1.71503e-16)
(7.46927 1.84731 6.2013e-17)
(2.37965 1.79453 -4.44319e-16)
(0.813518 0.529137 4.16939e-16)
(-0.939449 1.83913 -1.77529e-16)
(2.37914 0.802579 -1.30581e-16)
(-0.980276 0.606788 2.03823e-18)
(6.55863 3.24517 7.08524e-17)
(-1.8146 -1.69931 3.63757e-17)
(3.12841 3.34707 -3.46901e-17)
(2.1119 8.76984 -5.81787e-17)
(-0.728904 -0.183336 -9.8529e-17)
(5.80583 0.457027 -1.87857e-17)
(3.84986 6.1457 -8.13396e-17)
(7.17362 0.257051 2.51149e-17)
(2.77871 2.67278 1.76528e-16)
(6.44275 4.9614 -2.28002e-18)
(8.90072 2.93383 -4.71741e-17)
(-0.288867 11.0516 -5.8442e-17)
(0.355996 1.12215 1.43382e-17)
(-1.8375 -1.16756 0)
(0.517993 1.60901 2.6762e-16)
(-1.29493 0.734676 -3.63648e-16)
(3.61131 0.438408 7.09036e-18)
(9.76411 2.66769 0)
(3.55511 7.45309 2.44238e-17)
(-1.3796 -0.438332 0)
(1.16742 2.83142 1.22669e-16)
(2.04675 4.93777 1.17388e-16)
(-0.428204 4.75876 0)
(-2.79848 -0.559153 -2.21183e-16)
(0.479949 2.48123 1.34683e-18)
(7.18463 3.04859 5.61527e-17)
(7.42514 2.60782 4.85534e-17)
(-1.40947 -2.03347 1.60531e-16)
(3.01821 7.01619 4.03452e-18)
(3.26958 9.01902 0)
(0.509228 2.01901 1.37443e-16)
(1.38575 3.02552 -3.35486e-17)
(3.26918 8.536 -3.2355e-18)
(-0.60356 -1.96819 5.58139e-16)
(-3.5047 5.5642 4.29658e-17)
(3.36865 -0.974865 -2.66733e-17)
(1.24909 5.42326 7.44158e-17)
(-1.68501 1.00953 4.47284e-16)
(4.11677 4.98415 -8.82942e-17)
(-1.22633 4.11007 8.72475e-17)
(-1.47152 3.83157 -2.86628e-16)
(-1.37757 4.23321 -1.77737e-16)
(-1.77342 4.58766 2.46304e-16)
(-2.42078 4.61402 0)
(-1.76222 4.06207 1.37061e-16)
(-1.37003 -2.24465 -1.89084e-17)
(-0.299898 -1.9858 -2.02317e-16)
(0.578352 -1.09473 1.58622e-16)
(0.645452 0.0827098 -4.22429e-17)
(-2.30005 3.30044 1.27986e-17)
(-4.75986 5.6781 3.35587e-17)
(-0.711345 4.26674 -5.22155e-17)
(-4.45647 5.39137 -3.98892e-17)
(-0.47844 1.27419 1.06437e-18)
(-0.405337 -1.51268 1.16773e-16)
(0.714666 1.16622 -4.73929e-17)
(1.2671 7.17558 -2.98792e-17)
(-0.536958 0.966242 7.17099e-17)
(0.351672 -1.38029 0)
(0.55725 1.79032 -1.56111e-16)
(1.40289 1.63785 1.76445e-16)
(2.14546 9.2856 0)
(-1.00394 -0.32371 2.87324e-16)
(1.70194 9.82673 -1.95938e-17)
(1.51956 0.146 -4.02794e-19)
(2.08836 8.13946 -3.05111e-16)
(-0.00352303 0.932516 -1.17547e-16)
(5.11688 -0.192096 0)
(4.34133 0.21151 7.86683e-17)
(0.260073 1.03596 -1.35015e-16)
(1.88865 7.37748 -1.35453e-16)
(1.50493 4.14807 2.4525e-16)
(2.95005 0.175809 4.44519e-16)
(3.70247 2.02796 -1.01731e-16)
(-0.954322 -0.705634 0)
(-0.822063 -0.433045 0)
(1.56217 1.45759 1.21033e-16)
(0.555026 0.483673 0)
(-2.43605 -1.14665 0)
(2.25869 0.454091 -1.34292e-16)
(0.75451 0.432023 3.6221e-16)
(-2.5931 -1.46683 0)
(1.3434 5.03355 1.0021e-16)
(-0.970418 -1.49393 1.07142e-16)
(-2.90422 -1.20759 1.26649e-18)
(1.24006 0.68369 3.61435e-16)
(2.08097 0.607508 2.66777e-17)
(-0.468565 -1.53123 -6.05045e-16)
(-2.56314 -2.34544 2.50506e-16)
(1.58811 -1.09089 0)
(-0.243789 -0.663238 -2.06129e-18)
(-0.632536 -0.578819 5.77818e-16)
(-1.6251 10.8652 1.7456e-17)
(2.56212 0.0724343 -4.65049e-16)
(-0.0326178 -1.57166 -3.14626e-16)
(-0.886946 1.03197 6.4941e-17)
(-0.17955 -1.57233 -5.83843e-17)
(-0.472342 -1.47866 3.04621e-16)
(0.623712 -1.35621 -3.32178e-16)
(-0.395164 1.68559 3.64888e-17)
(-1.27097 2.27284 -6.728e-17)
(1.626 -1.74381 2.55867e-16)
(-2.17684 0.631159 0)
(1.57722 0.053698 -2.86636e-16)
(-1.44833 0.0720253 1.26163e-16)
(8.84227 0.121907 7.61823e-17)
(2.61815 -0.0456623 0)
(-1.59473 0.441516 -7.4247e-17)
(3.0147 -1.65468 1.49238e-16)
(3.11878 -0.191385 7.09706e-20)
(-2.04413 0.725514 -9.10777e-17)
(-0.200414 -1.54741 -4.127e-17)
(8.88563 0.153226 3.49972e-17)
(-3.15188 4.08422 -1.40652e-18)
(-0.878704 0.856038 5.11541e-18)
(0.23959 -0.763434 0)
(-0.128944 -0.28872 0)
(-0.668449 -0.199314 0)
(1.73795 -0.0383186 2.55547e-16)
(1.81938 -0.772512 -3.92615e-16)
(-1.61523 2.27152 -1.82159e-17)
(0.197925 -1.00788 -2.35032e-16)
(-1.21723 0.23017 6.83787e-16)
(1.881 -1.2826 2.20961e-16)
(-0.442062 0.887326 -1.23155e-16)
(-2.27212 3.97706 -9.63682e-17)
(-1.28106 1.46296 -2.95169e-17)
(-1.483 0.951076 -5.29253e-17)
(-1.75122 3.54783 5.19864e-17)
(-1.24638 0.945067 1.23945e-16)
(0.595064 -0.683172 3.39085e-19)
(0.518447 -1.18656 -7.36529e-16)
(0.220731 0.635188 1.76307e-18)
(1.21781 -0.124819 1.54874e-16)
(0.720595 1.06803 9.0588e-19)
(-3.22396 3.41677 -1.36101e-16)
(1.11472 4.62664 0)
(1.42389 2.34556 0)
(3.16527 2.52235 -7.48357e-18)
(2.78501 7.60374 -9.05526e-17)
(-1.43201 0.720704 3.04112e-16)
(-1.73105 1.51286 -2.68702e-16)
(1.41758 3.0946 8.26971e-17)
(2.28037 2.36625 -2.99703e-17)
(6.75143 4.86801 -1.77597e-16)
(0.526466 1.19823 -1.31475e-16)
(-4.10808 4.59712 1.24238e-16)
(0.393714 1.86757 -1.33449e-16)
(1.73766 5.05324 1.11861e-16)
(2.13979 1.484 1.38758e-16)
(-0.226524 9.0458 3.2929e-17)
(-0.940722 -1.96173 -1.81671e-16)
(-3.13782 4.64293 8.64699e-17)
(1.27167 4.69161 0)
(-4.69745 5.76304 2.0028e-17)
(-3.28165 4.79147 0)
(-3.39643 5.31968 4.92077e-18)
(4.44349 2.81374 0)
(-0.789635 4.54047 6.08943e-17)
(-2.58379 5.41027 0)
(-2.73092 6.3238 0)
(0.1709 0.859897 1.02122e-18)
(0.948496 -0.559336 3.29325e-16)
(-1.05816 2.9062 -1.92788e-16)
(-0.248692 4.86052 0)
(2.37785 8.111 0)
(2.53162 -0.186574 2.14393e-16)
(-0.425004 1.30884 9.31709e-17)
(-3.9065 5.15197 0)
(2.13414 0.179204 2.51374e-16)
(2.1423 3.27473 -1.32289e-17)
(-0.102704 4.88421 4.31153e-17)
(-0.90675 9.65541 -6.17725e-17)
(-2.7441 4.02747 -1.05299e-16)
(-0.64009 4.64467 -8.67715e-17)
(-1.68628 2.52009 -1.8821e-17)
(8.936 0.162873 -3.24885e-16)
(8.44911 0.292945 8.0765e-18)
(-0.399296 -0.864976 6.97857e-16)
(-3.61847 6.10583 -4.4418e-18)
(-1.56367 1.46332 2.06084e-16)
(0.68182 4.33196 6.60229e-18)
(5.64117 4.91711 0)
(1.71545 4.0758 0)
(-1.67611 2.92289 3.10844e-17)
(-1.54534 1.93588 0)
(-0.303944 -0.985346 -4.45103e-16)
(-2.05101 3.31967 -4.04367e-17)
(1.21003 3.81697 -1.0679e-16)
(1.41293 -0.514221 1.36802e-16)
(-1.24367 10.9666 -2.00738e-17)
(-0.47794 0.336867 -3.1347e-16)
(-4.63626 5.75827 0)
(-4.64276 6.07239 0)
(-1.47975 2.10763 -3.70054e-17)
(5.33661 6.48019 0)
(2.32828 6.68324 0)
(-2.2862 3.21133 0)
(-1.57289 1.32412 -2.76909e-16)
(6.66773 5.6052 7.11698e-17)
(0.418659 -0.516756 -3.49386e-16)
(-0.46079 3.33038 -1.77757e-16)
(-0.545658 4.30255 1.37935e-16)
(-2.78903 3.96275 4.68852e-17)
(4.59268 7.38037 -3.1931e-17)
(-3.70929 4.7449 1.32144e-18)
(6.59863 6.46873 -3.69624e-17)
(0.130576 6.57975 -4.59531e-17)
(1.69414 -0.224319 1.23602e-16)
(4.63109 -0.703221 1.43433e-16)
(0.0723415 1.58715 7.3026e-17)
(-4.42282 5.44538 -2.43118e-17)
(-4.26261 5.90781 -7.22039e-18)
(-0.954749 10.3692 2.46408e-17)
(-2.78858 3.9118 1.82375e-16)
(-3.32065 4.46549 2.67819e-19)
(-0.816643 4.35758 2.39453e-17)
(2.1224 -0.184154 1.21653e-16)
(7.42091 6.03597 -1.58408e-16)
(0.870439 4.40516 1.29455e-17)
(-1.24869 -0.967411 2.16464e-16)
(0.765332 0.032071 2.84116e-16)
(4.26622 4.81199 2.67317e-17)
(8.49555 0.371788 -2.79291e-16)
(-0.640589 3.00119 5.37014e-17)
(-4.05209 5.3328 5.03367e-18)
(0.483383 4.90941 -1.25362e-17)
(2.5354 4.98161 5.80106e-17)
(-3.55727 6.35568 8.93861e-17)
(-1.78286 5.63226 2.34207e-17)
(0.281851 5.39881 0)
(0.902406 0.603321 0)
(3.84394 2.0446 4.7135e-16)
(2.59969 3.92032 -3.90776e-18)
(-1.35826 9.986 4.22634e-17)
(8.97764 3.86053 -3.7386e-17)
(-4.06586 6.41796 2.07732e-17)
(-4.46515 5.78297 -9.99239e-18)
(8.17473 -0.369583 1.68684e-16)
(2.87262 3.4856 -4.00306e-17)
(-2.91463 5.32054 -4.63465e-17)
(-4.04884 5.71763 8.08495e-17)
(0.102557 4.94095 -1.34769e-16)
(-0.989148 4.33452 1.63771e-16)
(2.17869 4.25255 4.62112e-17)
(-1.65533 9.80563 -1.65516e-19)
(9.18947 1.92796 1.04031e-17)
(-4.30388 5.37272 -1.30207e-16)
(-0.718867 3.26168 -8.7739e-17)
(-1.25693 2.21208 -1.50725e-16)
(5.52641 7.12341 0)
(-1.72323 -0.91211 0)
(-4.45255 6.31065 -7.89276e-17)
(0.27578 7.41304 3.00573e-19)
(-0.784706 8.47915 2.70448e-17)
(1.22656 5.22088 8.21455e-17)
(-0.349593 10.83 4.75597e-18)
(3.5803 3.34154 1.59716e-18)
(-0.0848038 8.82802 1.52686e-17)
(4.14355 2.43397 0)
(8.55587 4.94085 -5.87025e-18)
(8.44982 4.67753 -7.35711e-17)
(3.84173 8.28498 3.03062e-18)
(1.01938 4.27759 -7.82988e-17)
(-2.00898 -1.04157 -1.88398e-16)
(2.1693 0.13597 -1.87904e-16)
(1.19284 0.0101716 -1.19048e-16)
(0.0378382 -1.54145 -1.16925e-16)
(-1.83116 5.31041 0)
(1.39078 4.1111 4.68365e-18)
(-0.263781 4.43086 0)
(6.28495 6.48533 0)
(5.92225 5.63918 3.95798e-17)
(-1.30146 1.08759 0)
(5.68465 4.02451 1.0547e-16)
(4.14495 2.15847 -1.2768e-16)
(5.44035 5.93316 4.75044e-17)
(7.59691 1.41925 0)
(-1.53191 10.2053 -6.16522e-18)
(4.37978 7.80379 1.1043e-17)
(2.28775 0.454681 2.8287e-16)
(1.3075 0.198458 -1.37468e-16)
(7.3767 5.73818 2.15512e-16)
(7.5701 0.144604 -5.30073e-18)
(-4.31645 6.46182 7.74885e-17)
(-0.277129 1.28628 1.76815e-16)
(-1.93892 -1.28183 1.11057e-16)
(-1.4123 -1.40775 -1.97072e-16)
(-2.65841 4.41155 0)
(3.08541 1.594 -4.20493e-17)
(7.65609 3.62344 1.02644e-16)
(7.60633 1.7661 -1.04574e-16)
(7.77664 5.0822 6.01638e-17)
(-4.16077 6.88638 -4.05981e-17)
(9.19894 3.03216 5.34596e-17)
(-1.09057 10.2059 -2.46374e-18)
(-0.159984 9.23642 -2.06597e-17)
(2.82467 1.2247 3.77328e-16)
(-0.873013 3.82001 5.33644e-17)
(-0.00360322 7.03627 4.61777e-17)
(0.976674 9.16353 2.7722e-17)
(0.0378024 11.2379 4.83441e-18)
(0.777381 -0.309151 2.37373e-16)
(-2.6856 7.32227 -7.33983e-17)
(8.20912 5.44995 -9.2058e-17)
(-1.01432 -1.37639 1.1285e-16)
(-0.131424 5.30499 0)
(-0.0174755 11.2184 2.18377e-18)
(4.95653 6.96361 -2.34402e-17)
(-3.80336 6.96156 -3.66709e-17)
(8.82998 0.410134 3.92025e-16)
(3.95407 0.441167 3.9622e-19)
(2.76663 -0.192975 1.75728e-16)
(0.0052357 -0.309368 2.65283e-16)
(-1.96065 6.38582 1.41746e-16)
(-0.47866 1.71516 1.19681e-16)
(0.257812 0.684205 2.39065e-16)
(-0.429652 0.0167657 3.3916e-16)
(9.67647 1.21704 6.37863e-17)
(0.827116 3.79068 -8.31385e-17)
(4.95077 0.0391253 4.65996e-18)
(0.14394 -1.49128 3.07396e-16)
(8.68923 4.36038 0)
(1.83538 0.674249 0)
(0.589155 0.251058 1.56999e-16)
(-0.512627 2.71932 -1.26797e-18)
(2.0241 0.89055 0)
(2.87407 -0.0530526 0)
(-1.29872 1.26256 0)
(-2.79259 -1.45752 -3.25883e-17)
(0.706237 0.547145 5.20079e-17)
(4.82627 -0.647152 0)
(1.34648 0.259774 7.43762e-16)
(-0.279127 -0.367492 -1.13275e-15)
(-0.482865 -1.28964 1.32386e-16)
(-0.305839 -0.580507 -2.70979e-16)
(-0.452546 -0.203158 2.91872e-17)
(-3.91516 -1.05124 7.65922e-17)
(8.18154 3.16905 2.53168e-16)
(-0.0872785 1.81078 8.90969e-18)
(1.04787 -1.57017 -1.63973e-17)
(-1.15914 -0.104292 8.69371e-16)
(0.830809 0.204776 0)
(-0.160537 0.10889 -3.82539e-16)
(-0.227482 -0.0479138 2.87237e-16)
(0.597563 0.211499 0)
(-0.409264 0.0224386 2.18995e-16)
(4.00214 2.40915 7.06676e-18)
(-0.377525 -0.00658642 0)
(-0.595058 -0.467567 1.38655e-16)
(8.31138 2.5639 -3.70013e-17)
(8.6495 3.80802 -1.70655e-16)
(2.46487 9.57645 -1.09383e-16)
(0.0527931 0.145319 3.62586e-16)
(-0.515452 0.0512086 -7.45868e-16)
(2.29768 10.0353 -6.36323e-17)
(3.24633 -0.837729 -8.02263e-17)
(0.856655 0.210857 -5.37092e-18)
(0.544302 4.89683 7.3384e-17)
(-2.66957 8.32053 1.11849e-16)
(0.339476 0.174304 0)
(-0.375308 -0.00298546 2.02916e-16)
(-0.522311 0.00479537 0)
(-1.30893 4.64311 0)
(-0.858715 4.54583 9.85767e-17)
(1.34999 0.650256 -1.67414e-16)
(-0.272475 -1.65696 7.24832e-17)
(-0.693774 0.0727483 3.50517e-16)
(-1.08355 4.42657 -8.46638e-17)
(0.449627 4.29929 0)
(0.529844 5.01786 1.47386e-18)
(-3.76044 -0.225205 1.97384e-16)
(-0.616375 11.1479 1.76884e-17)
(-0.149493 7.38921 4.56609e-17)
(-0.574059 1.5537 2.71319e-16)
(4.59566 1.55062 -4.50438e-17)
(-0.604751 4.85029 -6.46089e-19)
(-0.474963 -1.40596 -1.8272e-16)
(1.83026 0.593825 -1.12266e-16)
(7.09192 -0.0301708 5.70367e-17)
(6.58894 -0.13755 -1.12387e-16)
(0.203043 0.334695 0)
(-1.18162 6.61143 0)
(-0.0295477 0.761392 0)
(-3.36624 7.08141 2.43251e-16)
(-0.669524 2.86364 -3.6038e-17)
(-1.56275 2.66491 0)
(-0.72717 2.38172 0)
(-0.930739 -0.140137 5.81437e-17)
(2.11075 -0.985932 7.58295e-17)
(-0.88962 0.683829 2.88621e-16)
(0.360827 -0.81337 3.43263e-16)
(-0.3806 -0.676953 0)
(1.67017 0.298664 -5.75366e-17)
(3.12676 1.91399 7.71867e-16)
(-0.370468 6.7707 -3.22972e-20)
(-0.313753 9.33606 0)
(-1.08153 -0.186454 -2.51471e-16)
(0.358651 6.11724 4.30352e-17)
(-2.01227 3.5267 1.11938e-16)
(3.0374 -0.305815 9.73842e-17)
(-3.36604 7.08287 0)
(-0.968049 -0.0714636 1.71563e-16)
(-4.5211 -2.92037 3.41642e-16)
(-1.77009 -1.64279 2.37818e-16)
(1.65987 0.183485 0)
(0.207071 -0.509713 3.08168e-17)
(-0.213728 4.32984 -8.85972e-17)
(6.33787 1.13377 -9.44026e-18)
(-0.404813 2.265 -2.37459e-17)
(8.09074 -0.401633 -2.03327e-16)
(-0.943845 -0.113442 1.17727e-18)
(0.877484 1.74983 1.13739e-16)
(-0.460154 4.24861 2.63864e-16)
(2.44993 1.14917 -1.17506e-16)
(1.3776 6.62022 1.1649e-16)
(-0.976841 5.2574 0)
(8.68016 0.961418 -1.15023e-16)
(0.298663 2.83949 -9.38389e-17)
(-0.581596 7.36532 4.67678e-17)
(0.664532 -0.627082 1.53907e-16)
(1.40329 -0.196514 -1.16429e-18)
(3.34358 1.41962 -4.07953e-17)
(0.84299 3.01721 -5.76554e-17)
(5.6306 2.74126 0)
(-0.403571 8.88124 -1.69608e-17)
(3.38972 3.67418 0)
(1.90611 -0.469573 0)
(0.00925819 5.89707 1.74266e-16)
(2.26172 0.259335 -7.08726e-17)
(0.679596 1.97208 1.03488e-18)
(-0.919598 1.75486 2.07901e-16)
(0.793178 0.270622 1.42298e-16)
(-0.0559015 0.718539 6.24078e-19)
(-0.0267638 5.70741 -2.84032e-16)
(3.97836 1.98 2.83426e-17)
(-0.303635 0.0612687 3.95492e-16)
(-1.53733 3.307 -9.82894e-19)
(1.62868 6.76227 1.52847e-16)
(-4.03356 4.90432 0)
(-0.280626 -0.595587 3.90848e-17)
(-0.0970634 8.79392 2.29667e-17)
(4.09151 0.649789 -1.20003e-17)
(-0.623499 -1.12921 -8.42669e-17)
(-0.463685 -1.12107 -2.44003e-16)
(0.773998 0.0053837 3.41576e-16)
(-2.2557 3.39995 0)
(-0.750552 4.69666 5.36619e-17)
(2.63472 8.20573 -1.38349e-16)
(-1.32279 3.60432 9.31639e-17)
(1.51758 -0.0826635 -4.58154e-16)
(-0.163678 6.22179 0)
(0.104135 -0.453793 -4.33542e-16)
(3.24998 0.0717289 -9.19524e-18)
(8.50267 1.54925 -5.76855e-17)
(-0.718226 8.64293 7.24404e-17)
(8.07047 0.598063 6.60926e-18)
(-0.218897 -1.16304 -2.40747e-16)
(-4.52511 5.32616 -2.95466e-17)
(0.954585 1.29578 -2.39682e-16)
(-1.17975 -0.952008 -1.72396e-16)
(-2.28425 4.9578 1.0577e-16)
(0.352556 -1.86827 -2.5085e-16)
(6.18107 2.97226 1.78665e-16)
(1.97385 0.789266 -2.60619e-16)
(0.0696221 -0.571915 1.95616e-16)
(8.66451 0.546655 7.73133e-17)
(-1.14225 0.576895 1.10668e-18)
(-1.03373 6.59942 9.22316e-17)
(-0.260082 7.31129 4.20326e-17)
(0.180816 8.37891 -5.58838e-17)
(0.108202 5.99454 3.91526e-18)
(-0.539953 5.46201 1.00888e-16)
(1.69953 0.0672936 -9.50461e-19)
(0.887105 -1.24208 2.01809e-16)
(0.814695 -0.173052 -8.6263e-17)
(-0.267109 8.81727 0)
(-0.822028 -0.170252 -1.81638e-16)
(-0.687194 9.54137 -4.40606e-17)
(5.51778 0.950741 -6.12225e-17)
(-0.4092 5.03786 -2.38092e-19)
(-0.916229 1.35216 -2.24105e-16)
(2.82296 1.0983 -9.52286e-17)
(-2.75494 0.29315 1.1533e-16)
(-0.968699 -0.748649 1.29475e-16)
(0.0163227 3.74514 0)
(8.93664 1.49547 0)
(8.4124 1.11512 4.21657e-17)
(0.175371 6.1554 0)
(3.58325 0.864892 0)
(1.98992 0.982781 -2.14059e-16)
(0.0054889 2.56547 0)
(4.12888 -0.0572743 6.80603e-17)
(-1.81772 -0.421675 1.62768e-16)
(0.419984 1.33467 1.71236e-18)
(-1.30145 1.23644 -9.20688e-17)
(-0.369773 0.0191878 -4.03142e-16)
(-0.114486 0.0542083 -4.60867e-18)
(-0.402817 0.818801 0)
(-0.464114 2.82742 -5.41929e-17)
(-1.08068 6.39681 8.05664e-17)
(0.512488 4.79356 2.56908e-17)
(-4.22574 -0.427136 -1.15436e-18)
(1.95629 -0.668281 0)
(2.33416 8.8767 2.06082e-18)
(1.88974 0.148196 -1.45495e-16)
(-1.50674 3.79279 2.30381e-16)
(4.60634 0.0657579 0)
(-1.22613 -0.7161 -6.42943e-16)
(5.80115 -0.568613 1.16502e-16)
(5.90405 0.346449 3.86059e-17)
(-0.847107 8.40129 -5.17669e-17)
(-3.96835 5.05542 0)
(-0.680609 2.5361 1.12844e-16)
(1.4302 0.477492 5.87026e-16)
(2.90101 0.402142 -8.82539e-19)
(4.47735 -0.149677 4.1534e-16)
(4.71566 0.184896 4.72685e-17)
(-1.16367 11.001 -9.05498e-17)
(0.562892 2.2126 -3.83014e-16)
(-2.09142 4.17838 -4.06448e-16)
(8.82982 0.264668 6.78241e-19)
(-1.20023 2.3862 -4.15545e-16)
(-0.223859 -0.221879 -1.62642e-17)
(2.2163 0.0898939 1.24928e-16)
(-0.729423 8.88657 5.3935e-17)
(-0.088233 1.89798 -3.06388e-16)
(3.32854 0.159953 2.1473e-16)
(-3.67075 4.73585 4.80132e-17)
(-0.848532 3.54051 -6.49182e-17)
(-1.11946 -0.0275354 5.3424e-16)
(-1.75505 -0.725732 -1.01977e-16)
(-0.359092 0.334518 -6.11889e-17)
(1.24092 1.64872 -1.35713e-16)
(-1.50302 2.24879 -1.62384e-18)
(0.176392 5.04549 0)
(-0.037405 4.06535 0)
(-0.0616452 4.33024 0)
(-0.0164833 3.76369 -4.60019e-17)
(-0.350794 5.09734 2.38233e-17)
(-0.092117 4.40528 0)
(-0.421117 5.96104 0)
(-0.221957 4.52181 0)
(0.101403 8.24421 -7.17203e-17)
(0.00387157 5.88213 0)
(0.06828 5.71008 0)
(0.147317 7.92688 7.22676e-17)
(0.0223086 8.28647 0)
(-0.0473771 8.2308 -3.27626e-17)
(0.171619 7.5742 1.76536e-17)
(-0.0588642 5.91308 0)
(0.159225 5.33801 -1.04046e-16)
(0.208521 6.75163 -3.40247e-17)
(0.205266 7.19018 2.07951e-17)
(0.268125 4.74679 1.14816e-16)
(0.363431 3.96026 3.43862e-17)
(0.527911 2.46013 1.82672e-17)
(0.44032 3.20663 -2.00332e-17)
(-0.0738176 8.16366 3.41773e-17)
(-0.0764639 8.14985 0)
(-0.0724692 8.14616 0)
(-0.00519429 3.50903 4.70364e-17)
(5.10345 -0.0418254 4.0779e-17)
(8.50157 0.0314753 -2.29972e-18)
(-1.01181 -0.202238 -2.99634e-16)
(-0.529042 -0.982657 -9.2528e-17)
(2.99696 2.95934 -1.01213e-16)
(-1.78666 0.910521 -1.84381e-16)
(-1.6913 1.1628 2.19973e-16)
(0.607142 -0.814236 2.46314e-16)
(-2.57769 -0.683245 0)
(-1.05809 7.67549 -1.30753e-16)
(0.33193 6.81751 -6.64202e-17)
(-3.48153 7.73678 -4.31348e-17)
(-2.13644 0.562118 -3.58632e-16)
(1.40957 0.204881 0)
(8.95823 2.29831 -9.77996e-18)
(1.48646 -1.613 -1.36127e-16)
(-1.51816 1.53315 1.24782e-16)
(-1.94864 -0.827246 9.08808e-17)
(1.76054 0.0566712 7.62251e-16)
(-0.512189 8.11784 9.72106e-17)
(3.62887 -0.0321292 0)
(2.724 9.84079 3.00247e-16)
(0.0526572 5.82827 0)
(-1.89022 -0.333258 0)
(-0.0955657 8.13409 0)
(3.25734 0.477702 4.87924e-17)
(0.597246 0.99271 1.51281e-16)
(9.25258 0.949858 -2.42797e-16)
(-1.11406 0.112248 -1.91383e-16)
(8.97193 0.602951 -7.63748e-17)
(0.316705 1.92212 0)
(3.04765 0.277305 0)
(-2.40059 -0.258257 -1.06957e-16)
(-1.62436 4.37069 2.48873e-16)
(-1.19275 0.0917847 0)
(-4.30435 -2.24127 -1.4572e-16)
(-1.70799 -1.67412 0)
(1.65445 -1.02448 0)
(0.0163117 0.442265 3.5551e-17)
(4.19702 0.124915 -1.3924e-19)
(-2.69312 6.70555 -4.50779e-17)
(2.07407 -0.814026 -2.83865e-16)
(0.954558 -0.287043 2.27298e-16)
(2.89404 0.419021 -1.40767e-16)
(0.0713777 5.83856 0)
(7.29667 0.208338 3.10001e-17)
(8.62953 1.99885 0)
(2.52779 0.747595 -3.88945e-16)
(2.54428 0.923307 -2.28843e-16)
(3.4303 1.064 -3.03988e-16)
(3.84461 0.532571 -1.32913e-16)
(1.50326 -0.206822 -2.12061e-16)
(2.22948 -1.07729 -5.35336e-16)
(-0.181111 -0.316868 -1.81612e-17)
(3.20723 -0.831681 4.58437e-17)
(6.52114 0.341275 -8.73408e-18)
(4.1914 0.430344 1.53477e-17)
(-0.234705 6.32012 8.81608e-17)
(3.93448 2.2821 3.00044e-16)
(-0.153165 7.61603 1.74899e-17)
(2.06241 0.105175 6.69084e-19)
(-0.813245 7.81753 -1.2186e-18)
(-0.201379 1.87654 -1.12331e-18)
(1.62063 1.14489 2.07777e-16)
(4.83477 -1.32207 2.00783e-16)
(-1.39708 2.96309 1.07342e-16)
(-1.48485 -0.383685 -3.86884e-16)
(-0.807509 -0.226922 2.84505e-16)
(-0.37604 6.03778 2.93113e-16)