/*--------------------------------*- C++ -*----------------------------------*\
| =========                 |                                                 |
| \\      /  F ield         | OpenFOAM: The Open Source CFD Toolbox           |
|  \\    /   O peration     | Version:  v1912                                 |
|   \\  /    A nd           | Website:  www.openfoam.com                      |
|    \\/     M anipulation  |                                                 |
\*---------------------------------------------------------------------------*/
FoamFile
{
    version     2.0;
    format      ascii;
    class       volScalarField;
    location    "0.31";
    object      epsilon;
}
// * * * * * * * * * * * * * * * * * * * * * * * * * * * * * * * * * * * * * //

dimensions      [0 2 -3 0 0 0 0];


internalField   nonuniform List<scalar> 
5794
(
6.7503
2.55411
4.55849
54.1977
19.5104
6.20956
6.23961
46.1384
122.038
12.589
37.7867
1.47371
6.15184
4.99165
7.11728
0.478368
154.712
3.94736
5.95274
0.945543
74.4785
7.42622
18.2987
2.25739
26.9558
118.19
116.341
37.7113
95.3022
1.74209
13.1626
4.80103
28.5463
1.61382
34.6853
16.105
4.41781
1.29811
56.0697
12.8782
37.9005
4.69218
9.2733
6.62332
7.03889
49.7494
5.20031
12.8996
6.56662
16.2485
0.458232
72.885
13.4215
6.05156
0.148636
49.793
7.31228
15.9344
5.4762
253.018
56.7805
1.43008
9.03647
6.14391
33.5444
0.978437
35.9075
14.2973
1.58836
2.14871
89.8612
55.4618
107.043
2.42066
2.72797
50.1926
38.178
76.7664
6.47652
0.339708
3.23011
1.81379
25.9216
26.6892
7.02525
68.2749
35.16
90.5541
5.59194
20.2715
125.826
42.2498
74.9336
119.334
42.5669
86.0747
92.1569
60.4209
40.6313
62.4894
52.8478
2.16122
7.05437
4.23011
12.5275
47.5595
0.940195
10.6379
55.359
6.72315
1.16102
23.6313
60.7232
0.661722
44.1324
92.7665
3.91194
99.7553
51.6496
21.8779
68.4775
8.62336
2.9017
44.2275
12.9064
50.2703
4.05423
5.0013
84.2074
14.6409
2.88305
7.80184
4.18999
63.8987
59.5997
7.79352
118.917
1.45733
0.199324
4.8709
7.31319
23.5236
17.9549
14.3673
0.640939
170.957
43.0873
42.0313
11.5067
39.219
12.4409
3.61978
51.49
1.69344
151.485
6.5219
32.1937
4.19813
78.2478
1.79743
10.1526
12.1788
1.29909
9.9921
75.8521
101.114
11.0889
6.30436
1.05715
32.414
2.62404
36.9255
11.7029
35.8917
2.13277
15.0898
5.66048
28.7896
4.69288
107.027
1.89763
11.8588
12.4103
74.4787
7.1987
104.332
2.89069
15.8353
9.43293
2.07524
47.7618
6.46039
37.2963
14.1519
6.85421
2.27732
40.3423
30.265
6.23528
6.69089
9.66454
81.1486
11.3566
6.43311
5.72654
58.1549
20.0076
25.8501
10.1544
59.0756
7.56448
10.2833
9.62897
16.4252
2.49129
31.6912
16.2665
3.9338
30.8428
88.6736
9.8274
50.1356
166.889
67.6606
134.081
39.1783
2.89126
19.881
6.28417
5.43695
29.1479
45.5391
1.87398
43.3177
1.1318
22.6363
17.1609
28.583
7.11562
2.30286
2.33643
68.6001
46.9563
1.6962
1.21183
2.15715
8.54316
6.64251
163.988
86.9911
35.0402
0.782168
161.276
0.42985
4.90334
21.4141
6.59742
15.8515
23.6608
12.7322
68.9246
7.88092
12.8489
0.754148
22.7808
35.6138
28.3807
73.0992
13.5619
56.9348
5.17566
11.6573
28.5749
89.8223
16.3136
5.04455
5.75585
4.46818
0.611754
8.21433
42.6132
90.5036
39.4268
5.01826
17.4984
117.891
31.2414
52.5223
141.836
67.5058
19.8272
45.1021
1.518
7.80102
4.81624
104.415
71.8327
5.39052
34.2774
0.629362
2.44586
55.5173
2.69246
57.0505
4.63292
76.4675
0.411621
1.2187
63.2886
5.45835
11.2669
44.0998
66.6966
0.566335
9.84066
34.8014
14.7507
37.0562
57.3333
135.306
37.0875
5.78739
102.826
12.8795
0.33019
31.5995
3.28167
1.70578
5.47137
35.4361
95.5373
8.53064
10.5904
25.2492
4.42732
11.807
15.6783
1.25507
7.44321
7.89593
2.62668
30.256
105.665
22.946
5.82747
9.6958
113.379
17.7798
120.205
1.34464
76.819
138.777
53.5889
8.9064
14.3614
66.3198
6.26985
95.0611
7.32353
40.6469
19.68
0.997792
91.8564
5.57971
36.3289
5.61128
85.9254
62.268
7.32771
18.3529
3.96034
1.47538
6.60016
0.297383
27.211
62.0464
48.8539
10.2757
25.4524
0.110688
21.6317
3.24553
12.5163
15.4016
24
2.07202
102.046
6.08961
15.0294
12.3572
5.16169
68.4795
1.91442
23.641
7.76022
49.309
2.1865
4.90919
8.03554
15.0211
2.92622
26.4073
40.7786
1.32545
23.151
38.9505
12.2282
7.43909
0.903325
82.8684
58.0819
32.7009
34.8774
34.8113
74.7374
6.83536
10.8855
1.79907
65.5367
90.5848
39.6944
58.3225
19.8427
4.69342
9.82438
23.8106
1.7085
0.698908
1.2376
4.54235
71.754
5.76818
20.9159
90.0218
6.24548
6.60155
7.99073
11.0077
11.5028
17.2396
2.0088
8.12721
7.46696
2.18875
3.88274
100.938
43.0872
0.204003
6.28957
70.8133
17.0998
0.976054
112.21
7.9782
86.2711
0.857038
84.0011
104.625
45.875
176.957
5.88249
0.879567
22.0942
3.02158
69.1267
13.9077
31.6209
24.6436
17.6175
6.03536
0.346101
14.0285
53.6754
7.94446
14.5054
90.5096
36.657
38.4119
2.19366
0.988412
31.9834
5.14289
7.00609
5.54476
18.0471
34.1673
10.2018
5.66181
98.7381
4.49141
1.37593
88.0306
101.505
7.20387
20.0856
2.40084
2.61581
3.31936
0.454698
33.7119
16.999
27.9322
8.56507
21.6738
14.1655
1.02508
2.42141
26.4123
41.9647
0.819967
81.4604
0.282729
20.192
0.450316
0.349635
43.5236
84.4028
0.354728
5.55499
38.9047
4.25918
0.717706
21.4298
74.7777
12.7089
3.18883
3.34322
49.364
0.81755
9.64425
25.2865
0.444562
30.4598
2.46804
5.60405
13.2769
6.61721
146.906
12.4548
54.8634
5.04428
110.423
1.07256
5.09065
3.71424
0.332945
5.52161
13.0332
0.467079
5.20213
4.78427
0.231215
7.14335
4.19728
4.74885
27.3721
21.8532
9.43293
0.874536
25.9764
230.907
1.70286
54.9966
5.45477
5.10006
2.79122
0.632246
13.7906
4.09359
0.822012
77.257
35.1072
85.8715
99.4235
106.564
8.99919
23.0298
25.9626
4.78369
80.8314
97.308
31.4656
117.468
30.3164
120.035
47.4796
0.673248
73.6881
28.6557
98.8863
0.806942
3.82478
1.53116
111.266
32.0385
41.1664
0.0976973
9.34127
0.367959
14.0573
2.26112
87.6594
32.1754
123.02
0.595279
8.33688
156.251
14.1516
0.195312
3.27137
22.27
26.5252
5.18778
10.0996
1.65131
6.22317
29.9157
34.478
7.24481
8.14293
1.29737
41.5287
62.2443
16.9686
1.24231
3.70544
0.807653
23.7339
92.0593
0.617527
4.1942
1.74172
0.807288
3.30236
0.778682
6.66765
72.9817
26.4721
5.51887
30.9216
3.33928
7.84911
29.9876
28.5707
120.368
157.779
41.1086
48.4679
0.822594
0.954317
3.19694
3.23206
1.93094
6.23012
3.11703
76.6584
52.3434
16.676
54.4713
4.80771
0.150818
7.95881
6.51667
48.403
1.10143
48.4828
159.633
119.68
33.4644
52.212
30.2529
5.00802
41.6342
33.6716
45.6975
34.2203
131.064
4.81082
6.66625
2.24967
2.27197
35.4701
5.73464
0.346703
36.45
131.785
148.597
3.18189
0.998762
0.218353
7.42878
195.743
65.3851
46.7885
7.24071
45.5695
22.3336
1.78043
0.989307
9.83942
6.28646
6.74586
0.557553
16.1071
24.2773
157.517
9.68124
6.12078
1.25631
137.194
18.0433
203.224
50.0195
100.035
43.7918
16.2491
8.71233
82.6309
45.3761
55.2804
49.7496
87.0629
147.167
3.16759
18.542
5.26268
12.75
28.3024
111.229
37.9984
47.85
47.9758
138.966
26.0055
7.54256
6.3283
80.6578
11.5741
41.9445
69.0532
108.989
1.55249
1.61656
9.3344
5.0572
106.809
27.0914
138.95
15.0109
9.00184
3.04972
3.03888
5.23558
0.631049
34.6564
111.421
5.11039
126.575
43.5199
7.71508
2.49453
24.8292
95.2688
43.9256
162.784
116.316
33.6151
58.7072
5.33931
66.5347
29.8555
93.0798
21.1703
1.42853
10.1699
1.77523
2.7431
3.19554
19.0642
5.77429
28.8578
64.1557
17.9294
8.12223
0.779603
99.4624
31.3229
26.8697
104.916
30.8388
0.409821
88.6331
84.3859
34.0974
9.69425
32.178
1.11735
164.156
5.69746
75.3336
9.67613
16.3877
6.82615
0.245074
2.9499
6.22957
28.4137
57.219
79.4359
212.032
50.1041
5.29343
4.78902
30.1304
183.933
2.83758
0.836255
12.8182
81.6803
0.940907
7.83143
20.2733
41.8716
33.8206
0.568721
17.4535
4.38391
7.82293
6.08763
28.3356
80.9138
92.7249
9.33998
3.05038
96.8425
7.72002
5.01434
114.273
3.58484
3.25125
9.13113
0.875373
21.9403
1.9632
25.3839
0.284625
8.20645
5.69556
10.7495
28.1973
32.5398
132.484
49.2739
34.0207
70.4587
37.7538
38.1164
40.7082
0.277955
1.39709
5.15587
30.2018
5.55864
5.21512
210.92
56.3806
78.8076
17.8609
4.41741
11.9385
0.361894
14.1633
49.2366
5.72798
261.152
3.37482
2.73421
61.0568
14.8167
6.4053
1.85154
1.57988
14.9227
6.51525
1.11193
2.63305
51.3208
75.156
7.17266
10.1035
32.6558
7.05936
39.6261
148.585
102.536
96.6241
17.7833
3.45335
1.26066
19.329
0.730673
0.196856
0.786558
4.90215
23.3017
1.2869
7.37189
0.70963
16.9733
81.8592
6.25736
8.16701
7.94288
16.3323
38.3845
44.1052
83.6056
6.30456
0.744161
38.3158
11.5738
33.046
7.5417
109.72
59.5848
62.8738
3.98868
104.856
95.457
7.55619
6.4686
7.58192
6.60538
1.94117
73.6041
11.2921
49.2637
88.7191
38.8397
57.7192
47.6386
10.801
0.905394
7.38886
9.31787
0.730128
16.8401
27.7131
151.474
6.95848
93.0328
78.1278
1.08219
7.81381
24.7357
41.3957
10.0471
6.11356
22.9424
70.7484
6.89948
24.139
1.60167
7.00283
1.68899
1.21085
1.28809
5.46612
0.227879
0.812695
0.858585
2.17858
7.97591
17.4585
5.35794
1.10024
0.716274
66.2158
9.72067
81.711
4.41073
45.5427
0.854533
42.0903
4.7695
6.75031
2.8478
15.9668
46.9629
2.2792
10.0029
7.70716
0.201963
9.23466
74.0451
21.5446
25.3324
195.376
0.30504
11.0707
28.8903
17.4209
22.8157
36.002
49.6722
99.6116
4.24899
4.36006
0.718607
0.647512
17.8712
10.7591
138.568
116.043
114.547
0.399127
33.6004
129.203
65.5243
59.4641
41.9645
1.09541
9.50695
0.806679
36.9213
11.0328
15.4586
4.55685
2.93423
4.40296
4.81891
10.034
91.7868
2.07408
4.26243
16.5621
29.01
12.2484
1.08239
8.20979
39.8748
0.556468
7.64567
4.15447
7.11565
17.2395
0.462078
32.0427
1.24443
10.3835
21.6937
2.18296
24.8279
9.06078
0.484757
4.61576
12.9123
0.190579
94.2957
20.0739
2.08629
0.869805
17.0387
0.102443
0.881297
10.3761
2.30002
0.10791
1.62699
27.3225
10.4998
66.1955
24.7201
8.367
119.766
32.8697
0.118526
1.72051
11.4784
4.31431
26.9653
62.4052
0.131684
23.0136
0.36196
16.0607
1.40928
58.7385
2.48013
18.7808
60.704
0.616169
36.1433
3.56598
0.143358
6.67769
5.67308
30.6846
33.8441
0.648708
38.0385
0.491775
0.670593
17.4004
0.88613
4.45059
9.55738
4.78286
22.9824
6.28741
88.4478
0.591097
1.34815
0.856915
4.49846
5.27664
17.5114
4.61343
28.7182
7.70827
18.6381
26.1799
4.50304
1.10902
5.34168
12.6676
15.2416
10.4116
7.07281
116.222
89.9824
61.0056
19.8083
106.787
8.3807
8.40567
11.2894
3.64184
2.44901
0.247414
666.584
40.3163
0.393963
5.85536
58.042
54.2251
8.72317
2.70506
2.59413
30.7024
12.0915
1.62129
23.5768
7.10854
66.988
4.53226
19.3462
3.32352
0.297081
7.65381
5.32235
2.56994
31.6597
0.873036
49.3171
9.20678
24.5735
12.4887
30.3619
4.315
21.199
9.25654
17.8202
11.4744
4.40841
5.47829
7.35467
21.354
9.59243
5.6308
1.36127
3.07456
18.3281
3.6759
20.1283
58.5072
6.88537
7.81175
6.46102
6.68892
6.70908
36.3024
18.6937
11.1293
22.8482
0.1545
21.9247
1.10239
188.263
0.470147
0.12435
7.05071
1.12901
1.00021
50.9085
6.01951
5.88475
3.01119
2.95325
39.018
203.812
83.3633
1.73274
1.96891
2.97418
3.51319
59.4048
24.6479
6.2615
8.62431
0.558818
14.1203
6.603
7.35106
44.5915
8.38187
7.45179
34.7574
8.84066
0.686715
32.1424
85.1872
32.2312
13.7026
9.30918
4.93787
0.66093
58.0611
22.5791
3.83812
72.0526
0.884887
0.576123
38.3909
9.99372
65.5971
0.136065
13.1029
55.2297
0.197901
0.301332
2.57951
0.80907
1.54145
8.66242
5.85155
35.3691
0.36016
3.37794
34.5878
129.23
13.8095
10.625
28.2422
4.4234
103.633
0.273195
2.7988
112.571
24.6648
70.9524
11.6754
22.4887
36.3496
34.6371
6.91543
12.2477
0.463689
14.4839
0.18091
10.3712
7.82515
5.26807
8.88358
12.7652
4.87315
12.8439
20.6701
0.187452
1.22997
7.40117
15.9798
0.171273
9.42242
67.6405
9.36163
50.6432
42.3967
9.94916
1.40888
140.855
0.277489
31.0146
13.4999
4.35426
13.6914
1.9018
19.8525
0.609521
13.3527
0.466163
16.8556
0.125954
10.494
41.1095
39.9499
7.74215
44.0789
31.017
7.22798
8.8569
0.741708
27.9101
5.00675
12.0656
93.1479
5.74465
0.329435
6.49321
35.5447
38.8726
156.473
81.4412
66.8143
73.7802
15.4389
0.229359
6.92505
21.6105
4.6721
82.1834
0.273875
0.24976
3.34716
15.782
0.234914
5.71638
15.1466
2.29463
3.24913
6.67444
5.44366
1.33838
7.60781
13.0732
32.0839
18.1225
0.512376
31.7579
36.1691
6.34511
18.2661
3.62119
58.2651
0.20553
1.34656
0.352497
7.102
346.806
11.3911
49.831
27.6879
71.0943
99.2246
16.8034
19.9543
0.581875
0.759983
0.274434
0.196617
12.3013
7.15496
0.791603
11.8724
0.178174
0.616446
3.61363
14.3055
2.12053
1.2214
0.168102
9.2388
7.79119
0.934675
9.46008
3.27608
0.52569
1.34804
0.11436
0.307046
22.2191
2.93229
5.65781
0.444445
2.37537
13.9484
3.8795
0.900597
0.448168
0.554691
0.512296
0.348182
17.8237
0.735053
0.131636
3.58163
0.623574
4.03258
18.6938
1.49084
9.40367
22.2963
0.150345
2.55339
38.8803
107.592
21.9149
1.11548
0.187222
16.7858
1.95784
24.2724
109.921
187.935
20.8394
117.609
31.6265
0.116377
0.115598
0.207554
5.52216
5.02002
28.6865
0.173753
4.92534
7.11634
2.92544
19.8267
10.0989
13.8434
18.5422
9.78108
250.79
3.8547
7.50982
8.14207
11.9397
41.053
6.9702
72.3388
4.19779
29.0338
26.9158
9.25347
12.6499
12.328
11.5007
13.9061
583.202
3.43794
3.43271
1.08568
2.41169
7.85678
11.4947
67.5972
2.18587
0.835046
0.268202
8.64462
15.0654
0.353199
9.49139
0.159771
0.747973
2.57683
0.234651
16.175
4.10934
0.269104
20.1991
4.32313
11.9212
3.38031
1.32045
1.00081
1.12907
0.534132
20.7581
0.671918
42.7743
68.854
9.177
18.6011
10.1527
13.9164
4.32988
0.292985
58.2927
21.4656
11.9621
40.8035
7.16495
15.567
0.153293
7.70894
33.6791
7.48979
31.3083
104.685
17.2342
0.167524
28.7891
32.367
4.60188
32.5271
13.1894
63.3404
0.491382
4.13228
0.351521
10.1964
5.11492
3.56996
13.8847
0.18994
142.326
0.237701
112.201
3.7147
0.333601
0.114391
106.206
0.258674
0.444945
5.625
4.26593
135.368
10.7417
87.6221
22.2343
6.98704
16.6794
28.1891
1.42934
9.12654
7.46266
97.8128
40.7501
17.2397
0.990087
57.3592
6.69529
16.3412
10.2566
3.58556
0.146536
6.26471
10.0681
0.826545
4.73618
4.10147
0.110045
6.3369
117.259
116.588
12.7101
8.05265
79.9873
0.122568
13.4252
17.4064
3.73408
11.2302
45.8538
4.29267
62.1152
0.151849
11.3536
7.09299
2.47454
7.69075
21.8202
8.49198
13.7574
10.8738
0.627868
0.601831
2.33509
19.92
4.01452
9.61371
211.388
64.4687
41.3808
39.6478
16.0293
25.5064
24.2991
91.5197
46.7405
14.8599
42.6281
8.67086
35.6772
142.004
103.09
8.57624
66.4332
32.6253
17.0144
13.4697
2.23023
45.008
50.1291
10.35
65.3849
18.4716
106.375
21.1395
5.38207
73.4405
4.67438
13.6553
39.3477
0.516962
0.904419
15.3042
64.102
1.74924
0.466307
9.79682
32.5485
30.9294
39.2434
20.9403
34.9925
40.4911
31.1257
6.14398
36.0091
35.6607
39.8351
19.5473
34.2251
20.6728
46.5407
36.0727
48.2419
9.00973
6.74076
4.67471
41.3206
3.71369
6.58546
8.58882
2.924
0.241828
10.1719
13.6538
15.5747
8.93112
0.809462
2.3846
66.2175
14.5475
46.885
26.3335
14.7212
2.18729
7.3164
11.2394
24.7393
6.75254
105.06
13.3085
5.29298
6.019
5.7238
0.351263
56.2127
0.532026
15.9737
3.40373
0.292015
4.50004
2.56961
3.44702
2.74472
3.04437
3.22676
74.958
3.47883
4.96575
6.10954
4.46288
49.6546
127.809
3.6315
90.9086
25.1137
5.50333
150.138
5.24594
6.71824
128.871
23.772
108.446
4.93356
6.09685
129.078
131.722
72.4387
5.38649
4.98828
7.76058
6.46982
8.16979
115.894
4.07118
3.09588
36.7421
2.73231
6.07585
12.0005
6.95344
47.5623
34.2893
9.1195
108.795
100.066
8.23153
104.992
3.75564
40.842
10.6287
10.0731
139.719
9.42916
104.117
11.61
45.313
5.93167
72.7939
100.744
10.982
97.2803
56.635
5.36316
13.1535
50.773
13.0479
7.30738
59.4329
8.71788
63.4274
42.3551
36.754
8.91992
37.5093
6.68726
132.341
6.34112
2.41659
12.4318
228.476
1.8241
8.09253
0.410183
33.1323
21.2919
5.27682
11.2747
4.13971
4.94805
1.54018
5.38394
6.34653
7.10877
6.21004
5.06614
8.54281
1.53277
15.3833
47.3634
13.207
23.135
5.47921
4.61012
5.37196
4.01327
5.26877
23.9704
9.98497
10.8442
0.245845
7.95493
9.36943
61.4051
5.80044
4.25948
7.46195
13.4166
3.02119
5.84971
7.60985
6.68734
3.5016
4.78563
22.8243
7.26568
3.9129
44.6763
5.68165
6.66845
7.7354
1.44128
8.68294
22.7788
13.3228
2.71777
5.23121
3.98154
5.15678
6.20056
13.595
20.3963
2.01131
14.4305
4.28449
4.04394
1.54951
1.82515
20.8363
19.6871
22.46
21.0817
2.64338
5.70664
5.14867
19.9062
15.6822
4.96215
0.537512
8.30538
1.07624
0.416735
9.27574
5.96351
61.9981
10.3782
14.4117
4.80432
5.03451
1.8606
29.827
63.2384
6.11178
25.6375
2.84358
40.7303
40.1259
1.96742
16.9621
0.801983
28.3124
0.475942
52.0298
22.0543
4.66934
27.6109
22.9829
20.6653
8.20449
0.788092
0.606488
35.6798
5.50004
22.2418
31.1805
44.6637
8.36843
0.637503
0.504346
72.5829
11.4895
7.33335
37.4223
81.7315
5.30114
22.3958
11.8172
56.7174
9.72371
3.3816
22.1958
12.8823
10.6099
47.6703
1.19839
72.7099
12.518
43.65
57.866
11.1328
0.785772
0.488931
5.917
10.2272
129.661
33.4904
75.7882
0.40844
55.265
38.7039
2.9832
5.56641
4.4101
4.01463
12.384
36.7325
60.4181
60.9685
1.02621
12.189
52.2741
39.6644
27.469
71.0906
7.59347
53.8412
5.55706
17.9369
161.784
11.2636
5.77208
13.1864
10.7061
8.70638
13.1577
4.85668
25.8695
9.29086
76.7367
28.906
46.449
9.79117
0.790848
0.497857
37.7544
75.3155
8.27907
34.4598
71.0874
77.3867
112.408
5.91758
11.5034
21.9408
15.7525
0.402028
42.1776
3.28251
57.1712
94.4572
4.82229
9.27943
185.326
14.4064
6.10086
45.009
28.651
25.2219
23.1324
3.75959
122.628
65.4914
1.07082
38.5647
7.05259
3.18873
21.3412
13.357
6.93725
31.8217
6.15408
7.66176
47.2622
15.117
1.00247
0.47855
100.514
115.244
12.8343
13.4217
171.257
153.468
21.4476
5.93643
86.7095
6.54518
10.7736
25.8918
0.312011
52.2839
3.5891
3.50787
6.85213
159.749
86.0315
106.13
5.18695
165.094
89.9901
46.0341
6.47547
18.9548
6.27569
11.3727
5.25542
6.4335
6.66008
3.53492
13.6208
60.9003
5.87693
6.08162
29.0265
16.7155
24.7252
33.1823
18.691
33.7746
3.96391
42.1239
2.59755
0.657884
152.536
68.7116
38.9268
62.5664
75.6839
37.6182
4.26468
5.41846
4.97731
8.62422
5.63226
10.1739
0.873222
0.4403
1.8512
1.24399
1.12611
86.1743
118.373
14.5689
55.0587
9.62253
26.0689
3.73395
25.6208
14.6503
2.99588
11.2798
2.34416
7.89726
6.39028
82.7258
18.9398
11.3356
0.261539
65.7655
4.64527
3.18853
29.3229
39.6501
103.501
6.09194
13.4495
20.373
125.79
20.1084
12.2081
0.253718
0.278822
9.1441
8.06672
22.2995
6.3394
0.478143
0.731358
26.6415
4.56748
14.5308
134.126
3.31554
19.3776
6.86161
7.41644
3.70489
55.8241
178.025
43.461
1.33951
2.79173
31.9535
66.8308
7.10544
22.8365
7.50103
4.12738
9.7384
4.68552
0.44963
9.57326
6.23706
0.189589
7.28751
3.37385
6.79872
8.74748
5.45726
21.4232
3.83756
18.6208
16.9081
4.29139
3.67006
43.1346
3.38979
5.36527
11.5658
22.7771
7.14621
34.8999
112.887
9.36811
52.4691
4.95904
187.676
26.1024
74.9884
0.334891
70.6561
4.68713
33.7084
5.90749
0.366435
112.083
7.62551
25.881
4.47924
10.2711
9.22444
5.34068
86.7538
60.9144
1.36335
11.8786
8.46912
22.8585
15.1951
1.07261
0.501814
24.9767
26.7632
10.6724
7.00882
1.0776
154.007
45.5744
207.52
152.726
25.6365
62.9407
9.92318
2.96274
31.4584
18.1509
4.28539
15.5007
19.0922
1.63464
9.03066
36.6792
120.762
73.6773
8.60925
11.2591
91.9238
6.59631
7.53446
2.38263
5.83733
126.529
9.05493
20.3697
84.5634
122.538
24.6457
2.9942
5.06112
62.827
11.7829
13.4221
32.7874
13.2262
32.2231
4.42897
24.3507
72.1118
155.731
12.0538
5.88337
1.96407
0.371175
38.0447
22.3142
10.1156
134.138
86.2984
345.228
2.45451
7.35173
12.0668
18.313
3.17396
189.328
46.7974
2.04994
0.405367
9.81574
0.187196
2.34659
27.2536
58.9315
23.2484
66.674
43.1892
68.5989
5.28126
16.9329
137.692
22.7722
24.6686
551.283
4.83666
7.20551
42.9752
134.092
32.1311
27.2146
53.8823
4.75633
2.50023
37.1362
5.81765
16.0438
48.2748
0.596817
15.6582
2.45258
87.9243
6.69938
60.3487
6.45189
20.1035
13.0814
64.4623
14.4234
89.7848
1.69393
179.41
3.41753
5.5259
7.90665
1.07829
2.5167
76.5143
12.6637
61.0984
9.34559
87.4016
171.33
7.04008
28.4096
5.11338
5.19845
14.3322
0.204413
21.5948
51.6898
5.34616
4.48764
37.9052
76.4589
20.4986
91.3187
3.89425
50.0631
5.62761
119.842
6.19848
6.08707
0.21505
10.7513
12.8829
45.2954
6.31359
20.6055
92.6754
10.8292
6.05811
97.4697
3.77199
2.71243
59.7666
3.32789
3.5158
3.90608
11.8463
31.0881
4.08305
33.945
79.2639
0.72767
22.1046
17.5962
26.2379
62.6204
5.79924
48.8501
27.8948
14.2701
13.7253
10.5436
9.29921
5.90574
0.845739
0.465437
18.7307
74.7261
5.44301
7.64425
107.611
7.78757
18.1272
60.9861
5.26515
4.98426
3.8659
66.4317
4.71381
0.62776
1.34647
10.6433
26.9447
11.9973
4.27948
2.98235
82.6219
30.4791
5.59087
39.3635
139.653
93.0303
31.4473
79.4575
0.448762
46.5609
105.877
10.5871
0.926042
0.480329
1.05297
4.39864
4.87837
57.6838
1.56177
36.293
4.43927
8.86731
19.207
49.7834
5.18887
67.5663
3.24765
23.5024
74.6526
26.8641
3.89717
14.3293
0.963728
0.525742
41.5968
13.472
18.709
96.9436
15.0925
31.2579
236.799
55.9715
42.4061
0.437034
91.4976
0.138805
6.65944
64.0907
28.2402
10.1761
3.3362
7.99878
18.3118
56.446
0.381267
3.20673
7.18751
63.2916
8.01435
4.70621
4.22016
24.5099
44.3771
33.9173
2.12454
42.8246
81.4557
129.823
34.5691
6.01028
5.0155
39.7643
22.1896
62.6423
4.13187
7.18413
6.1148
19.3916
0.920753
4.13066
20.5435
9.89875
39.0945
0.143963
8.15797
127.553
30.554
1.3838
10.4846
9.53075
3.84203
52.5529
26.6635
2.87141
2.25633
0.437926
0.551949
10.8794
6.1127
112.959
0.683463
21.9277
11.4693
20.8286
0.942543
14.4521
9.27196
112.822
10.5529
0.716144
0.469944
6.21974
29.8853
5.22314
2.75341
0.0979955
12.0247
2.45086
0.711865
4.51015
12.3804
5.91561
23.9021
19.9026
5.69511
38.7063
4.42719
13.4335
2.4035
0.338532
2.27165
3.17338
3.97734
8.49667
2.12932
35.3428
2.78823
32.9341
32.5462
3.72543
6.35484
7.89937
46.3497
18.8189
5.4848
10.485
0.812828
0.493584
4.6762
0.702296
31.6389
241.195
8.18195
2.4801
1.52882
4.28589
0.134351
27.163
6.13025
91.6377
26.2067
4.59565
110.16
0.300406
2.54301
5.12319
46.4397
2.75164
142.204
2.95155
17.6414
0.694261
6.8225
2.47894
4.32772
12.1795
20.9781
22.7283
7.16252
1.69322
4.69412
0.199533
9.3983
4.55869
14.5395
25.2084
76.2442
6.33406
16.2594
26.608
4.89371
13.9884
4.55516
29.2703
4.01788
12.6139
47.5633
47.3341
10.8853
0.690184
2.85474
0.297908
2.2581
10.0047
0.914253
6.78652
7.56337
104.654
7.6668
18.1615
11.3193
8.42092
32.902
18.436
26.1081
14.0721
4.56728
4.30417
15.6173
7.23701
11.8077
4.87512
6.52656
23.1704
0.120358
5.03567
14.3495
0.457312
6.48936
0.684907
0.296089
0.863821
0.107636
22.7324
0.320312
2.42787
2.25848
8.69665
4.84437
0.387723
1.32927
37.9743
11.8746
13.6862
31.6081
11.4458
17.3439
5.40828
85.4559
50.9344
8.26944
127.057
13.8792
2.57212
92.1752
161.932
37.7664
0.527618
0.476168
0.276172
0.410839
0.513976
7.65058
24.0498
88.8591
0.326554
0.431222
2.29149
10.0504
10.0497
15.2625
0.168085
0.142747
58.6618
10.2332
34.505
55.9526
5.32068
11.3959
28.7512
23.6793
85.0877
0.252945
13.807
26.3216
16.8311
42.0423
5.61506
0.247268
3.46717
18.2863
7.13857
0.772845
7.17844
0.688202
6.80178
6.40907
10.1258
4.58674
0.288585
6.11873
14.7821
95.4
0.886946
2.8384
0.1357
5.05825
21.0524
6.61484
30.4975
7.98861
0.234691
55.7403
7.89939
3.65966
121.892
59.3918
59.0709
28.4491
1.15725
4.57219
19.6895
44.573
3.979
0.555494
51.5905
1.85695
73.1939
2.87324
0.930117
9.7583
3.25399
9.66745
2.36654
4.81603
34.4358
3.12644
4.13802
1.57011
3.94361
10.4699
165.182
4.5003
3.70399
10.1357
0.58796
0.498715
0.376145
19.826
0.42446
2.12617
6.34729
14.6451
84.3331
8.01923
13.866
26.139
8.11047
4.89412
185.615
4.52741
17.401
33.9966
5.82535
194.836
12.6672
0.678167
0.542092
37.9469
4.11904
10.099
5.57593
1.43411
2.77532
40.1831
87.8514
33.2883
17.2754
13.3222
164.565
31.9007
30.4411
13.7572
5.55193
13.9346
118.686
18.9054
150.487
69.4494
0.740393
1.87618
3.41573
38.9673
7.01114
67.7182
43.7528
17.088
19.0781
6.63443
17.7089
2.59391
0.830536
9.35785
0.462237
1.75094
32.3928
7.91317
4.4029
18.0388
6.88778
8.44304
8.01494
25.1407
67.5101
17.5526
0.271009
3.32569
2.05606
49.7208
2.52892
36.8975
3.76796
6.78364
5.56215
12.189
109.033
5.15941
12.5912
23.9459
77.9939
2.79955
2.37716
0.50668
23.8872
70.0881
6.69742
7.19513
43.618
4.52158
20.0216
9.63385
5.32717
21.2557
84.507
52.0468
17.0918
9.28545
0.157261
17.4453
0.150801
26.251
66.729
23.057
5.36497
7.78245
17.9942
27.4323
9.04696
0.166141
29.596
3.11807
0.141561
0.688315
17.3472
93.1281
38.1479
8.36106
14.8572
1.64378
3.84518
0.180982
0.17136
1.01457
12.082
28.6008
1.85026
28.6487
6.07202
3.03445
7.88129
65.4165
11.1796
0.1767
3.22238
4.19538
196.399
83.9974
45.9199
2.44883
0.865286
46.7926
11.2796
18.9082
11.2827
7.54776
4.22894
146.787
7.5337
26.0926
8.32038
38.0964
13.0077
4.88015
93.6861
0.343218
2.48908
3.61173
7.73949
1.59343
0.404083
0.953287
2.29367
5.10218
19.1048
5.96072
12.4733
10.0448
35.8051
5.25212
14.3912
9.13049
13.1588
157.671
1.39696
16.542
0.969822
14.5925
64.4974
0.506089
19.9558
16.4186
7.29183
7.47081
1.55864
2.25898
40.1477
3.50069
53.8195
126.595
22.2164
73.4516
0.410083
27.8679
83.3132
5.40747
104.965
19.0631
3.29695
23.183
10.1578
11.3569
37.1756
22.4678
8.70434
0.383049
0.830095
12.2833
4.97106
4.31196
6.2822
29.2229
31.8219
0.885287
0.464197
2.32
18.7847
64.2805
3.07073
0.250865
13.0555
3.25844
29.0861
18.2431
4.93492
101.251
29.81
4.94664
25.5389
71.2499
0.269723
47.5749
29.5264
2.29095
41.2554
41.7748
21.4147
0.898836
0.127645
1.91951
3.77145
2.15645
7.14526
9.8616
64.0872
35.9714
45.9131
136.629
27.8767
52.8382
64.2688
5.66948
21.0528
6.9558
26.7447
6.44324
67.934
161.784
103.354
48.5875
1.84559
2.46917
44.715
42.6271
20.0014
0.374286
2.42027
109.868
30.2906
8.83685
6.05263
87.7673
1.38729
54.9746
29.2384
82.3972
32.9908
115
0.180931
92.8855
0.785944
14.3142
0.472947
61.8785
19.2564
58.1784
0.358347
3.08478
117.408
3.15421
1.56765
87.2955
5.48922
37.8437
59.7755
179.878
63.1053
0.371812
1.28732
50.9219
48.3417
214.646
94.7109
169.823
8.06089
7.33284
80.3449
93.2531
0.625798
0.326969
10.6498
1.01396
2.82178
6.88619
11.4377
10.5071
4.64558
13.2558
17.7996
9.42204
113.944
118.228
102.742
10.4041
33.5114
10.3974
9.45692
19.5118
18.1924
173.134
119.366
39.4908
27.604
15.2795
66.6065
5.34501
0.276289
182.712
88.6936
4.71706
13.766
0.850628
9.82793
34.9781
128.374
2.13871
19.2441
3.29186
92.8797
0.825814
13.6812
0.499955
3.66433
0.284783
3.62105
119.191
29.5317
1.59076
146.059
1.51335
2.33453
49.0234
5.25012
51.8685
6.71146
9.76395
64.4136
3.40777
9.74881
4.73374
51.4175
13.3396
4.27435
44.1389
79.3107
31.8246
41.8912
22.9846
6.25607
29.9947
54.6528
0.227483
10.3502
44.2097
3.25456
13.9622
167.764
10.3426
91.8671
4.18561
1.02441
0.633354
0.463378
14.9701
59.879
79.8658
94.6305
6.06026
29.4357
5.88512
10.2086
11.6876
8.02217
5.57096
4.67474
9.25602
11.5454
0.330697
0.317187
0.602495
127.846
3.88401
9.38023
31.8458
163.421
120.685
131.125
40.9649
5.79868
49.5487
2.25287
2.92562
55.7888
154.809
9.37385
7.99717
0.954763
6.73191
16.7018
90.4155
2.77381
6.50919
23.2865
12.0553
1.48798
4.96713
0.288603
4.18981
8.56088
117.344
60.0489
6.11087
113.1
29.0983
5.1155
17.978
26.7758
22.0766
6.15716
26.5273
15.5246
25.309
34.1157
0.387792
0.510167
46.4103
4.82762
7.82018
1.05902
87.3437
31.16
37.1046
2.12688
40.4615
2.50079
46.5786
35.0772
27.8063
31.8589
39.1915
20.254
17.3389
3.89627
12.5696
35.5227
0.198676
33.8222
0.167752
2.8014
6.76243
17.215
17.2786
3.22002
5.37471
8.34105
0.456513
6.95489
0.713995
0.689553
195.67
40.6364
13.6156
0.34447
0.509416
14.1235
0.236849
0.666296
19.0043
0.639189
0.268803
12.829
0.963088
44.5291
9.3385
0.702235
28.4035
3.76708
8.36702
30.4924
14.2883
8.97341
11.6986
87.6018
43.3341
1.26551
18.9398
122.078
94.1706
72.949
11.8717
8.91729
0.195769
0.144295
40.6046
167.93
27.4117
4.34543
36.8998
7.41796
5.84323
18.9359
6.54992
29.8324
4.94907
75.6983
0.118669
8.47366
135.394
35.0447
7.89471
34.6847
20.4797
92.3386
40.4771
31.2462
21.5678
1.00032
3.65442
4.54482
6.24629
17.1206
4.80249
28.708
13.272
119.553
14.1069
37.7114
0.966867
3.05759
8.82196
95.7592
43.2724
70.6505
5.57721
133.841
9.08624
7.07341
42.504
0.319593
3.03264
1.92767
42.5727
80.0637
40.002
27.4285
19.5696
32.255
4.65781
3.34886
0.339482
6.17924
3.31181
656.143
155.333
5.13272
117.517
32.8357
6.1067
0.370634
27.8761
0.29878
0.273289
0.586365
2.71109
40.8612
45.675
4.09461
33.4725
0.797608
2.50977
0.334472
5.3844
32.8397
16.6349
381.535
14.0575
11.0468
0.134329
11.0445
127.373
68.4223
12.2154
5.28278
5.68927
12.2945
5.66158
2.36701
25.0931
36.4669
0.605828
16.3372
0.783174
12.8523
9.42964
4.08065
83.4378
12.3263
130.076
33.0701
87.6353
72.354
1.78676
5.87113
2.60313
7.90002
0.54543
5.21158
4.93832
42.4829
40.6078
4.1721
1.95396
4.23698
62.3503
3.726
18.01
11.8637
14.1475
79.5486
90.6831
0.278144
18.3909
0.484188
47.5607
10.1347
8.97817
44.5065
2.26426
36.077
132.301
93.1049
63.2652
5.0475
78.3037
53.5415
31.0127
0.588068
0.672293
39.4819
0.351031
2.03662
7.41302
35.9665
45.2257
17.6582
69.1096
7.3942
103.93
2.79484
24.4954
45.2298
2.21675
93.8221
42.7171
0.230831
0.34055
0.928788
2.00992
18.6726
31.2531
100.97
19.9348
5.89988
170.153
7.97569
7.49672
98.5655
39.2278
19.3124
71.0289
6.78316
90.602
1.10822
0.693374
13.2282
0.282666
3.35838
15.5415
64.4166
1.88527
21.9911
0.702244
0.597487
37.9814
9.29591
18.4885
10.6015
88.9518
39.7814
8.46453
10.367
6.95671
2.32958
11.0952
26.8561
36.1807
213.488
0.263998
2.60239
73.1545
56.9485
5.00529
38.9017
31.1856
9.59916
15.3299
51.0834
29.0272
74.1852
74.9512
10.8359
32.5273
5.54858
21.6347
102.736
49.3924
146.187
11.807
29.9754
13.7056
21.7575
15.083
20.465
90.7618
3.10868
20.3461
7.93705
0.14928
0.42972
5.78248
0.617476
5.81665
14.8444
35.9116
48.2543
59.4362
4.19595
106.264
125.687
75.4201
2.62101
0.807267
13.2743
0.562259
32.986
6.20794
25.8848
7.41956
2.82831
128.635
11.2241
5.71072
4.81808
26.0888
81.3519
0.133064
20.5551
24.9122
0.1796
59.4578
32.9713
3.30079
2.33512
49.9573
69.0711
25.4579
2.68182
5.1097
0.538503
0.564346
12.1374
0.227384
0.543264
16.5176
3.90314
0.286475
38.0222
3.95815
0.536156
26.4923
1.19266
90.9724
5.69418
133.876
2.22573
0.645977
5.55706
56.6339
40.2061
102.923
17.6678
28.0958
36.8943
6.49319
5.59509
36.7647
5.99718
2.47675
18.4551
0.18121
33.3704
12.4166
25.6004
7.96284
4.03532
45.5232
72.8601
16.1897
555.977
13.2173
3.39783
0.477677
0.914587
7.04108
0.737674
5.55407
22.2514
2.32807
15.7533
0.570489
0.919426
7.72783
3.68055
5.54755
25.7285
28.6933
4.03041
8.41319
4.47877
0.895131
2.77583
61.0044
5.77407
10.2539
6.01065
105.175
171.761
59.5078
5.07278
8.98703
0.682452
6.92903
0.215841
11.2805
11.8963
76.1964
0.542465
112.677
274.569
1.47588
0.817963
3.67464
32.5088
42.9506
0.925782
0.8216
15.228
34.6179
0.158356
19.7363
56.4458
4.98195
0.33835
3.00092
97.2734
3.4587
39.1283
34.3821
9.20034
80.4377
19.4862
0.640686
12.0208
8.63904
192.131
4.45181
73.1769
430.642
5.27369
147.528
0.5467
117.758
10.7138
4.24074
5.56987
120.818
0.635165