/*--------------------------------*- C++ -*----------------------------------*\
| =========                 |                                                 |
| \\      /  F ield         | OpenFOAM: The Open Source CFD Toolbox           |
|  \\    /   O peration     | Version:  v1912                                 |
|   \\  /    A nd           | Website:  www.openfoam.com                      |
|    \\/     M anipulation  |                                                 |
\*---------------------------------------------------------------------------*/
FoamFile
{
    version     2.0;
    format      ascii;
    class       volScalarField;
    location    "0.31";
    object      k;
}
// * * * * * * * * * * * * * * * * * * * * * * * * * * * * * * * * * * * * * //

dimensions      [0 2 -2 0 0 0 0];


internalField   nonuniform List<scalar> 
5794
(
0.417872
0.151774
0.384303
1.28993
1.07605
0.270428
0.275229
0.963058
1.89248
0.485819
0.92852
0.119347
0.296522
0.351521
0.422433
0.0653814
2.79662
0.213798
0.289653
0.0781922
1.1769
0.36275
0.653183
0.1395
0.710452
2.27465
2.49532
1.38993
2.02447
0.126223
0.509547
0.274397
0.860607
0.120055
1.21614
0.612416
0.196524
0.10003
1.16921
0.631976
1.39052
0.382825
0.275602
0.341964
0.420659
1.14622
0.262157
0.412755
0.301455
0.426393
0.0361669
1.57785
0.449463
0.351969
0.0142235
1.16901
0.359809
0.543072
0.209021
3.78109
0.907908
0.101173
0.417205
0.480998
1.37239
0.093923
1.28812
0.299182
0.128617
0.135755
2.44947
1.68135
2.61622
0.232486
0.161896
1.54255
0.55344
1.74053
0.368292
0.022467
0.171046
0.128807
0.916655
0.746044
0.275015
0.835393
0.547243
1.00848
0.297314
0.897936
2.66449
1.11548
1.66253
2.59303
1.11637
2.82315
2.01165
1.43328
1.11112
0.98533
0.92827
0.14521
0.240661
0.317349
0.589715
1.71856
0.0759648
0.669194
1.80223
0.391962
0.0894982
0.975592
1.00682
0.0838008
1.1215
2.0245
0.265796
2.1033
0.837076
0.494395
1.87123
0.226147
0.140092
1.52478
0.728484
1.36631
0.294212
0.236192
1.85099
0.825863
0.183336
0.35905
0.318098
1.55467
2.03364
0.46438
1.89197
0.107109
0.034654
0.234289
0.36303
0.789225
0.904487
0.559397
0.073568
3.6031
0.837286
0.786007
0.720665
0.885955
0.316227
0.324486
1.82206
0.0995264
3.13661
0.256075
0.82085
0.179111
1.34964
0.123042
0.366788
0.421293
0.0865737
0.354905
1.32678
1.52423
0.337911
0.246421
0.0819091
0.638455
0.123389
0.917902
0.347704
0.715058
0.108821
0.465011
0.193484
0.671241
0.230881
1.57119
0.111756
0.355916
0.366224
1.21367
0.258842
1.71892
0.155135
0.447914
0.318344
0.114298
0.938382
0.275197
0.892054
0.454609
0.241525
0.11706
0.806489
0.738352
0.268588
0.272965
0.322574
1.42373
0.375171
0.247015
0.242458
1.13818
0.519254
1.27433
0.588556
1.27336
0.455856
0.313454
0.53739
0.787936
0.15301
1.11863
0.609569
0.312691
1.12637
2.34571
0.306235
1.1786
3.7276
1.69902
1.80342
1.11719
0.125101
0.98677
0.303058
0.364208
0.721977
1.57966
0.161029
1.3628
0.118104
1.01164
0.858429
0.747216
0.261989
0.208121
0.170189
2.46203
1.24551
0.1091
0.1042
0.131229
0.522866
0.448992
1.47467
0.971924
0.522029
0.0803543
3.19098
0.0545172
0.209275
1.11527
0.255084
0.384628
0.914563
0.650766
1.29521
0.484079
0.695696
0.0669469
0.535142
0.80065
0.802705
1.67059
0.477357
1.36257
0.283006
0.408342
0.881068
2.27459
0.397304
0.305702
0.33713
0.282394
0.0957372
0.33035
0.920062
1.80845
1.41498
0.388527
0.735066
2.61675
0.920167
1.3376
2.66417
2.06473
0.603585
1.66328
0.138368
0.530268
0.202669
1.84228
2.17391
0.385276
1.02517
0.066067
0.118021
0.790761
0.136693
1.63929
0.253819
1.57167
0.0731196
0.114283
1.31338
0.260659
0.388087
1.1429
1.47601
0.0758178
0.292635
0.590391
0.896802
1.3444
1.73448
2.44599
1.21921
0.308116
2.08938
0.787108
0.049899
0.90781
0.326233
0.115353
0.247256
0.861705
1.44118
0.278398
0.348665
0.670977
0.212071
0.396975
0.437691
0.0803777
0.251063
0.272913
0.134263
0.601141
1.73159
0.546354
0.21522
0.306538
1.56916
0.453301
1.80649
0.089192
1.38059
1.66701
1.00706
0.3032
0.4122
1.08193
0.238917
1.44933
0.291572
0.886161
1.10563
0.108133
1.64663
0.306975
0.962454
0.344209
1.34397
1.04721
0.250043
0.463955
0.372712
0.0889203
0.453979
0.0541577
1.46357
1.47327
0.976329
0.383464
0.69249
0.0236371
0.896389
0.330205
0.323073
0.639981
0.875845
0.132362
2.65822
0.423242
0.816451
0.36639
0.216471
1.11648
0.11929
0.781668
0.273896
0.892116
0.114937
0.308116
0.378921
0.579065
0.157491
0.826568
1.41791
0.0816291
0.607911
0.987839
0.442626
0.367455
0.0767438
1.86874
1.46365
0.987111
1.31485
0.695053
1.19683
0.243013
0.311487
0.15601
1.22276
1.86159
1.08461
1.35276
1.13809
0.405491
0.346008
0.610428
0.103304
0.0868601
0.0973288
0.25945
1.62774
0.224319
0.698067
1.46657
0.363996
0.351999
0.300642
0.383179
0.534655
0.585105
0.133553
0.269746
0.292057
0.134632
0.293877
2.21966
1.11955
0.0326603
0.260132
1.64264
0.482921
0.080486
1.68997
0.400658
2.14927
0.0676829
2.05596
3.30601
1.31443
3.48552
0.32406
0.0756161
0.48486
0.183872
1.07199
0.796572
1.17313
1.16061
1.01425
0.417239
0.0247382
0.746603
1.61746
0.531351
0.647586
1.74168
1.50879
1.4142
0.231748
0.0802146
0.56895
0.289376
0.395348
0.371786
1.03875
1.15493
0.312851
0.345843
1.48711
0.261001
0.101305
1.84143
1.97682
0.485522
0.594902
0.148352
0.171322
0.332457
0.0463291
0.874079
0.958849
1.27727
0.263603
0.714663
0.644257
0.0780086
0.17564
0.547695
1.50543
0.0844384
2.72873
0.0566548
0.839583
0.0485998
0.0563863
1.12939
1.85798
0.0425616
0.223086
1.39617
0.253206
0.0695324
1.1309
2.03165
0.777459
0.206003
0.336084
1.0747
0.0697287
0.431727
0.583467
0.036486
1.13595
0.269026
0.39651
0.618271
0.240396
2.11452
0.726766
1.05269
0.274582
1.76027
0.0851426
0.345385
0.340983
0.0517056
0.21524
0.526946
0.068659
0.282253
0.332286
0.0429847
0.233776
0.362406
0.269251
1.12391
0.517236
0.418791
0.0708433
0.963984
4.55678
0.0999438
1.34802
0.436681
0.360753
0.232706
0.0763168
0.760441
0.159984
0.0780134
1.17275
1.09397
1.13559
1.22762
1.2811
0.293568
1.16946
0.907753
0.338402
2.30414
2.25556
0.954763
3.27592
1.06462
2.22679
0.824982
0.084902
1.88996
0.948032
2.29488
0.0822721
0.227918
0.119141
2.51658
0.957963
1.18224
0.0190044
0.293732
0.043607
0.685881
0.19292
1.29549
0.975189
2.6854
0.0597254
0.511774
2.4162
0.409173
0.0179565
0.251399
1.04756
1.27446
0.334038
0.417299
0.105264
0.242392
0.787695
0.645531
0.261749
0.264082
0.0715906
1.18451
1.63305
1.004
0.0834279
0.228144
0.109677
1.1383
2.54793
0.0813537
0.311605
0.13114
0.0544557
0.211334
0.0757052
0.39978
1.7587
0.488136
0.287654
1.19564
0.275856
0.263281
1.19948
0.942118
1.86232
3.0076
1.04588
0.737521
0.125728
0.0980925
0.137396
0.332808
0.233373
0.217115
0.14044
1.54337
1.69177
0.492104
0.914881
0.438066
0.0376319
0.385378
0.335074
0.705006
0.0843483
1.27776
2.9524
2.66646
0.961461
1.26814
0.766365
0.311532
1.4271
0.701115
0.916647
1.03108
2.79432
0.404086
0.38791
0.232686
0.153069
1.38366
0.430853
0.0532239
1.19947
1.9408
2.59707
0.316624
0.134545
0.034327
0.499988
3.9974
1.64442
1.29867
0.516439
0.980756
1.26413
0.0884425
0.0731553
0.290136
0.232958
0.217714
0.0417126
0.397337
0.964112
2.37647
0.32801
0.390893
0.174254
3.32959
0.448004
3.87704
1.4034
1.92307
1.46312
0.374203
0.266646
2.31257
1.18839
1.98602
2.10492
1.93315
2.15411
0.296083
1.01843
0.314152
0.331412
0.507633
3.24739
0.633785
1.23901
1.29135
2.99395
0.760449
0.527403
0.420433
1.55454
0.740959
1.1245
1.58838
2.36953
0.077656
0.0788983
0.224318
0.166697
2.42412
0.842181
2.67102
0.521716
0.283437
0.161516
0.313221
0.385556
0.0576668
1.01164
2.47557
0.207177
2.76162
1.15568
0.246591
0.238444
1.19245
2.24488
1.20872
3.07052
2.68921
0.996139
1.48632
0.366806
1.71487
0.967763
2.14385
1.07806
0.189904
0.648742
0.1493
0.186203
0.317721
0.793324
0.313986
1.52015
1.94263
0.471258
0.407839
0.0698058
2.32917
0.960206
1.43762
2.42778
0.943365
0.0485749
2.42326
2.51498
1.11771
0.389181
0.976524
0.0893346
2.39395
0.311587
1.72512
0.305042
0.998961
0.39074
0.0465909
0.16769
0.475602
1.52023
1.93451
1.57486
4.2971
1.38318
0.294295
0.419619
0.586689
4.58054
0.168004
0.107997
0.565817
2.78036
0.0754364
0.376151
0.491562
0.764551
1.3527
0.0775697
0.3862
0.380589
0.521009
0.451876
0.943076
2.05136
2.21797
0.28301
0.300464
2.20933
0.511233
0.471604
2.87472
0.137599
0.123118
0.246212
0.0793489
1.05866
0.153648
0.497085
0.0504532
0.373433
0.213263
0.316683
1.30922
0.986481
2.82205
0.982741
0.871363
1.60115
1.06504
1.368
1.47981
0.0493524
0.124715
0.207364
1.05514
0.437797
0.370453
3.85613
1.54149
1.88598
0.891901
0.327553
0.522667
0.051812
0.348852
1.21898
0.309208
3.49872
0.322639
0.296029
1.51729
0.360517
0.231517
0.0877949
0.147199
0.841461
0.251046
0.101443
0.286451
0.832146
1.76443
0.415701
0.299594
0.944458
0.544051
1.13853
2.96153
2.42499
2.54255
1.01418
0.212586
0.105872
1.0682
0.076481
0.0444957
0.0741461
0.278699
0.696974
0.0879309
0.254477
0.0775363
0.793448
2.05558
0.360636
0.277542
0.490852
1.00741
1.52506
1.11549
1.72529
0.234572
0.0790086
1.50215
0.355216
1.00561
0.265148
1.27642
0.846103
1.04834
0.144511
1.46906
1.16702
0.230074
0.196511
0.221212
0.178132
0.0804243
0.736117
0.574148
1.57701
1.75881
1.06691
1.31966
1.33181
0.297471
0.0758011
0.364379
0.602763
0.0745918
0.921656
1.49066
1.9105
0.246552
2.11511
1.30199
0.0857928
0.397365
1.21637
1.10199
0.305203
0.327945
0.473723
1.66617
0.500118
1.21934
0.128256
0.221009
0.0893659
0.101026
0.100143
0.335416
0.0410692
0.0801713
0.0777817
0.168472
0.264556
0.661923
0.215998
0.14703
0.0771357
1.05903
0.29972
2.25403
0.324766
0.85245
0.0831486
0.670113
0.200267
0.535354
0.182968
0.582353
1.56886
0.170159
0.304414
0.428682
0.0403302
0.2919
1.37587
0.431389
1.25555
2.24509
0.0444166
0.318638
0.529946
0.794303
0.48234
1.06487
1.21179
2.3003
0.250342
0.395881
0.0780318
0.0730368
0.403315
0.365549
1.60598
1.43219
1.39676
0.0317645
0.903326
1.42182
0.900059
0.858077
0.814164
0.0824618
0.456607
0.0722828
0.691765
0.302666
0.600268
0.20086
0.181214
0.196663
0.204905
0.286683
1.35399
0.148144
0.357418
0.959407
1.13813
0.75185
0.0903858
0.274668
1.03065
0.0623319
0.502436
0.303719
0.456414
0.994638
0.0581498
1.59459
0.0925271
0.311842
1.23844
0.151198
1.19834
0.268921
0.0678843
0.433741
0.759462
0.0344459
2.18204
0.589956
0.155225
0.0760422
0.493789
0.026609
0.0883025
0.309377
0.170304
0.0290757
0.116482
0.809035
0.450415
1.75663
0.508912
0.259401
2.63047
0.963825
0.0318363
0.126831
0.644403
0.391866
1.0424
1.76928
0.0338297
0.569679
0.032682
0.918991
0.17245
1.64965
0.26288
0.893017
1.49329
0.042791
0.66194
0.1508
0.018346
0.442902
0.206778
0.61988
0.64334
0.0453737
0.67538
0.0366384
0.045436
0.480493
0.0733524
0.26628
0.628708
0.384201
1.31363
0.236422
1.09447
0.0943039
0.11548
0.0786028
0.198752
0.273411
0.395146
0.37811
0.572877
0.252749
0.469146
1.23075
0.310142
0.0918116
0.47805
0.777423
0.620088
0.662389
0.241757
3.48759
2.2589
1.37575
0.442259
3.71711
0.260303
0.260751
0.556239
0.205271
0.195544
0.040591
8.64118
0.691855
0.0495866
0.455055
1.71649
1.68159
0.272499
0.163668
0.282393
0.630037
0.72369
0.128785
1.06491
0.538314
2.05182
0.331694
0.793387
0.235603
0.0455168
0.470196
0.34402
0.282808
0.600506
0.0754283
0.850683
0.447459
1.15655
0.340716
0.671255
0.190449
0.456495
0.292687
0.392146
0.333196
0.191969
0.411133
0.482648
0.868328
0.278613
0.21559
0.112684
0.199072
0.561539
0.296959
0.578623
1.05441
0.258292
0.258824
0.439788
0.236921
0.229918
0.711453
0.395481
0.323203
0.490045
0.0312916
0.740842
0.0894614
4.09267
0.0533198
0.0307651
0.288892
0.102365
0.0900473
1.35834
0.436969
0.218608
0.145835
0.275152
0.67667
1.87141
1.05091
0.203954
0.149349
0.18127
0.22998
1.67885
1.38696
0.433626
0.281804
0.0400346
0.540721
0.356337
0.572842
1.7694
0.228021
0.25909
0.651324
0.583248
0.0466307
1.21509
1.96165
0.630176
0.841565
0.531332
0.24319
0.0725686
1.53149
1.11998
0.308893
0.97027
0.0922883
0.0679219
1.07244
0.304769
1.10768
0.0272236
0.337783
1.44088
0.0454524
0.0312566
0.181815
0.0804305
0.0895102
0.335678
0.42044
1.29084
0.0512883
0.205451
1.26892
3.46605
0.680569
0.55618
0.780973
0.197723
2.17339
0.05701
0.186056
2.56011
0.825928
1.78336
0.568868
1.19027
1.3455
1.41412
0.454759
0.530145
0.080145
0.712692
0.0393463
0.52944
0.490437
0.297504
0.514362
0.730704
0.357206
0.596527
0.897599
0.0410256
0.0799668
0.257597
0.693067
0.0234332
0.494068
1.10272
0.294028
1.50868
1.23646
0.518773
0.114546
4.0344
0.0580071
0.936687
0.708183
0.233071
0.487337
0.149789
0.801343
0.0782722
0.502898
0.0500066
0.780363
0.0330107
0.393754
1.28321
1.18381
0.478793
0.791993
1.22913
0.52364
0.278185
0.0410204
0.957125
0.465032
0.751949
2.07046
0.268561
0.0521224
0.475667
1.42196
0.653474
1.60124
1.1115
0.99113
0.967727
0.903628
0.0419308
0.390062
1.26784
0.285823
2.30265
0.0556186
0.0403648
0.243342
0.49434
0.0333152
0.298588
0.562861
0.157013
0.220522
0.19872
0.395458
0.119608
0.263717
0.59076
0.951653
1.10899
0.0640867
0.918841
1.56635
0.290167
0.43528
0.335233
1.1863
0.0453028
0.06898
0.0283844
0.205062
5.83372
0.32334
1.21513
0.878153
1.63081
1.99244
0.522334
0.439833
0.0427078
0.0511011
0.026506
0.0210384
0.375765
0.200844
0.0550133
0.320213
0.0203828
0.0488186
0.149025
0.332266
0.0947496
0.0649694
0.0195013
0.311943
0.229708
0.0642151
0.246834
0.135892
0.0375
0.0681511
0.0118492
0.0327086
0.3987
0.13158
0.160781
0.0380348
0.118371
0.381794
0.157558
0.0622627
0.035304
0.0402148
0.0439341
0.0299274
0.41014
0.0566049
0.0173141
0.142362
0.0451001
0.163176
0.42663
0.125434
0.402069
1.01853
0.0236418
0.207
1.11143
2.5866
0.870972
0.150201
0.0360189
0.391902
0.226367
0.848007
2.32594
4.16591
0.960218
2.75088
1.10165
0.0301151
0.0302805
0.0384791
0.340302
0.174328
0.967889
0.0401418
0.386912
0.45824
0.190095
1.0236
0.57056
0.650369
1.03976
0.565322
5.06378
0.358673
0.422986
0.454062
0.315371
1.44221
0.485802
1.20347
0.32878
0.82652
0.825257
0.605941
0.451214
0.409529
0.328066
0.362158
8.27908
0.317186
0.146644
0.0725668
0.197944
0.40035
0.293399
1.59452
0.18035
0.0632056
0.0254343
0.226624
0.379671
0.0351053
0.270202
0.0190865
0.0572582
0.129461
0.0251254
0.43421
0.164551
0.0259179
0.456304
0.161316
0.287247
0.141232
0.0668757
0.0560352
0.0620251
0.0397512
0.457425
0.0459078
1.25153
1.58847
0.225038
0.419158
0.492987
0.362257
0.315506
0.0412237
1.30635
0.835164
0.73512
1.0973
0.406251
0.695587
0.0164628
0.427862
0.820815
0.490962
1.39476
2.43966
0.732765
0.0300666
1.0588
0.771043
0.266924
1.14488
0.355026
1.55921
0.0867735
0.288922
0.0546363
0.403423
0.276161
0.287049
0.673212
0.0441729
3.52573
0.0329214
3.78169
0.243861
0.0504947
0.0304744
2.30445
0.0477006
0.0782209
0.463148
0.303137
3.3983
0.315621
1.57404
0.402292
0.487423
0.808097
1.30197
0.062771
0.279871
0.283377
2.24616
1.10362
0.37212
0.0894349
1.40213
0.483759
0.695837
0.308053
0.310681
0.0253579
0.341859
0.550645
0.0763489
0.321123
0.152591
0.0127392
0.191905
3.69563
2.95886
0.334733
0.533928
2.10935
0.0308255
0.608256
0.827662
0.291334
0.540993
1.74157
0.30928
2.31756
0.0328912
0.572852
0.369558
0.197952
0.246962
0.584943
0.312776
0.631399
0.305432
0.076397
0.0703629
0.246553
0.911217
0.322117
0.490871
4.46263
1.66868
0.618198
1.5107
0.32946
0.729823
0.694931
1.15319
1.37356
0.686361
1.22057
0.463249
1.03515
3.62032
1.2653
0.550956
1.35938
0.979039
0.420156
0.49203
0.137343
1.80995
0.778943
0.463011
1.7455
0.837415
1.28495
0.949986
0.343053
2.05377
0.42169
0.80877
1.08044
0.0713211
0.100124
0.680282
1.59788
0.142586
0.0606768
0.53668
1.39975
1.37352
1.47408
0.950754
1.45184
1.55286
1.38754
0.324951
1.45963
1.4311
1.56872
0.945996
1.42695
0.96217
1.53453
1.42677
1.5542
0.369159
0.31016
0.220141
1.43101
0.212374
0.285431
0.357434
0.198526
0.0216619
0.263341
0.681308
0.913285
0.624907
0.127173
0.24751
2.26925
0.862916
1.38041
0.930229
0.543554
0.188169
0.345693
0.588065
1.03393
0.356214
1.29576
0.615531
0.453401
0.42833
0.338588
0.0660782
1.74446
0.09298
0.350553
0.295355
0.0284852
0.371642
0.198192
0.209127
0.199039
0.184911
0.257903
1.50563
0.263484
0.345898
0.407455
0.245749
1.24298
4.01649
0.272111
1.64688
0.83384
0.38081
4.00102
0.235339
0.389645
3.60939
0.98915
1.91039
0.317879
0.292671
2.11688
3.9014
1.59755
0.322755
0.339829
0.46258
0.450335
0.370179
2.82301
0.304762
0.182874
1.41925
0.219852
0.414543
0.430702
0.344718
1.21164
1.37464
0.452928
2.64745
3.19418
0.463911
3.47476
0.2303
1.49018
0.49294
0.369268
2.13488
0.394597
2.51405
0.532444
1.67381
0.247588
2.49972
2.40073
0.665344
1.24409
1.95707
0.418452
0.541706
1.7473
0.739543
0.350571
2.08059
0.595175
1.85025
1.4437
1.36221
0.363709
1.27529
0.196518
1.65052
0.524533
0.139926
0.493575
2.09502
0.156754
0.477875
0.0532814
1.37681
0.416239
0.442843
0.601041
0.246572
0.416144
0.190118
0.326013
0.22629
0.3675
0.325729
0.309143
0.596598
0.124568
0.54201
1.70125
0.721921
0.455026
0.476271
0.417299
0.353049
0.294217
0.176457
0.534037
0.258914
0.646093
0.0462198
0.410748
0.652394
2.16627
0.321525
0.265445
0.352027
0.79105
0.247819
0.383422
0.329771
0.509208
0.310272
0.430247
0.468477
0.542073
0.290362
1.48441
0.404327
0.388665
0.589878
0.140968
0.635973
0.980425
0.300062
0.260104
0.38566
0.278683
0.45239
0.49829
0.826548
0.875068
0.087963
0.708791
0.326985
0.321968
0.187585
0.202429
0.815566
0.837101
0.972465
0.889443
0.243531
0.284912
0.169917
0.829303
0.565345
0.301555
0.0612779
0.475404
0.112025
0.0303399
0.627096
0.345852
2.13319
0.386466
0.548449
0.293088
0.34234
0.187396
1.43229
1.5869
0.38597
1.1227
0.215372
0.683124
1.42293
0.152529
0.591261
0.048585
0.947655
0.0338024
1.59042
0.530372
0.302461
0.95907
0.858473
0.943208
0.459935
0.0933328
0.0658823
1.51294
0.35271
1.00718
1.12678
1.30279
0.453575
0.080385
0.0665814
2.15029
0.672549
0.391197
1.61068
1.71324
0.325212
0.981124
0.28578
1.63566
0.297762
0.258347
0.720875
0.75038
0.262168
1.59574
0.102809
2.15065
0.495854
0.92124
1.55814
0.546828
0.0942272
0.0658321
0.204445
0.255319
1.41831
1.58265
1.54539
0.0528614
1.59439
1.40535
0.291544
0.212452
0.252313
0.206518
0.595208
1.34371
1.83024
1.67977
0.112417
0.433927
1.42981
0.884758
1.18823
2.10604
0.384038
0.824513
0.367832
0.889188
1.52918
0.56788
0.397928
0.756215
0.481604
0.362943
0.742386
0.348017
0.759956
0.381887
2.21179
0.777067
1.37918
0.484007
0.0920378
0.070441
1.31568
2.30495
0.391355
1.67545
1.60425
1.71831
2.51808
0.396519
0.686313
0.465226
0.704305
0.0506519
1.44177
0.307502
0.85444
3.0123
0.207114
0.285616
5.06752
0.38852
0.387895
1.58531
1.06412
0.885869
1.01883
0.298058
3.45849
1.71696
0.110809
1.14062
0.470419
0.242066
0.945248
0.323618
0.209584
0.600205
0.190225
0.220474
1.42751
0.654355
0.100034
0.0730902
1.84452
2.1876
0.711627
0.337529
4.76155
4.37232
0.652713
0.300519
2.01483
0.426096
0.680337
0.525219
0.043591
1.52531
0.32088
0.305921
0.412969
4.05622
2.26505
1.25084
0.409078
4.72988
1.95639
1.143
0.273663
0.606123
0.194455
0.325252
0.367593
0.437519
0.425828
0.316857
0.787242
2.04407
0.377616
0.413364
0.856456
0.939881
1.19285
1.45871
0.937104
0.889726
0.303785
1.27197
0.229633
0.0798513
1.64751
2.46784
1.57229
2.28739
1.48147
1.33622
0.327669
0.408447
0.368475
0.377488
0.381517
0.483627
0.0928326
0.0687062
0.199898
0.150326
0.146566
2.0364
3.08181
0.489685
1.66207
0.63621
1.09469
0.216221
1.00728
0.347836
0.139051
0.288528
0.104597
0.347115
0.229565
2.86473
0.699341
0.315941
0.0468451
1.52815
0.2463
0.195654
1.10386
1.78421
2.32078
0.390949
0.808033
0.686564
1.42479
0.845681
0.593942
0.0255451
0.0441977
0.453439
0.370802
1.12103
0.43662
0.0626722
0.0845558
1.31345
0.40057
0.726697
3.87991
0.305774
0.41984
0.448606
0.478882
0.323464
2.08491
1.81923
1.387
0.142416
0.206261
1.42627
2.45423
0.505395
0.978604
0.380284
0.262972
0.548766
0.377112
0.0658107
0.287955
0.225397
0.0323783
0.367635
0.230654
0.388237
0.28062
0.38089
0.956773
0.340706
0.852008
0.466115
0.30916
0.257754
1.00827
0.169603
0.355973
0.70436
0.917403
0.45425
1.46856
1.48145
0.460082
1.25745
0.352474
4.87409
0.77734
1.97534
0.0463047
1.65464
0.419029
1.25549
0.1893
0.0310486
3.38036
0.515522
1.10086
0.351757
0.613488
0.463676
0.217397
2.18103
1.51338
0.108028
0.505116
0.570417
1.00085
0.62842
0.0978729
0.0772641
0.94892
0.513823
0.650575
0.378424
0.0881179
4.396
1.11681
1.99685
4.07888
0.984822
1.79696
0.470671
0.155638
0.613318
0.851664
0.278522
0.885317
0.988896
0.203378
0.47992
0.988376
1.41782
1.65366
0.505966
0.651032
2.08031
0.397292
0.462374
0.152099
0.398239
2.19898
0.604053
0.62085
1.5925
3.22456
0.636394
0.29087
0.434689
2.21313
0.717721
0.748788
0.939285
0.795458
0.609359
0.193179
0.68179
2.1533
3.97923
0.772567
0.335642
0.173263
0.0485797
1.80266
0.457882
0.591862
3.82499
2.19218
4.71232
0.249188
0.455767
0.76515
0.944099
0.261343
1.89802
1.17026
0.130028
0.0618429
0.575192
0.0298031
0.254746
1.28645
1.72195
1.16012
2.24656
1.42301
1.23408
0.359814
0.511129
4.06144
1.05717
0.983909
6.86299
0.200087
0.40346
1.17357
4.16926
1.05859
1.43701
1.42876
0.317291
0.276377
1.03278
0.380934
0.394342
1.82335
0.070027
0.7727
0.177969
2.10356
0.439018
1.46239
0.461276
0.923885
0.388631
2.02323
0.832254
1.97738
0.100789
4.73448
0.214777
0.389025
0.537478
0.0911347
0.270417
1.70618
0.613971
2.23319
0.527152
2.45737
4.58294
0.459748
1.20719
0.382962
0.323771
0.411868
0.0353064
0.878721
1.49513
0.372762
0.353957
1.43584
2.00143
0.493923
1.18681
0.32932
1.55755
0.223433
2.87042
0.404939
0.382256
0.0379604
0.602129
0.355078
1.8211
0.488333
1.05518
2.12238
0.5084
0.349445
2.81818
0.342275
0.178751
2.17843
0.304999
0.307413
0.144045
0.323416
1.39449
0.286604
1.42456
2.75908
0.0707278
0.787576
0.393247
1.25417
2.15242
0.414326
1.6817
0.92972
0.66492
0.35966
0.303295
0.282935
0.333161
0.0855421
0.0697089
0.785125
2.3117
0.404708
0.567399
2.72757
0.285852
0.996389
1.88383
0.463643
0.20294
0.304003
1.97571
0.15381
0.042715
0.0723749
0.527112
0.777508
0.587603
0.376077
0.295253
3.19991
1.36425
0.396224
1.17644
2.97367
2.2337
0.964256
2.00887
0.0672354
1.2497
1.33189
0.480673
0.0908049
0.0739162
0.122994
0.376326
0.331201
1.36576
0.199086
1.52197
0.310527
0.587791
0.897181
0.859353
0.348794
1.92371
0.299656
0.75599
2.10729
0.949095
0.301455
0.575541
0.0865327
0.0795452
1.23129
0.421267
0.874999
1.59765
0.425607
0.926611
4.73694
1.52043
1.4116
0.0632635
3.32292
0.0272408
0.461686
1.19422
1.38087
0.584118
0.304723
0.386984
0.895311
1.95058
0.0577558
0.206776
0.38221
2.29897
0.593479
0.387467
0.330771
1.22821
1.51742
0.609523
0.250208
1.4717
1.42363
2.28962
1.26571
0.358551
0.204148
0.932115
0.656924
1.49077
0.202296
0.416995
0.505422
0.677786
0.0880631
0.314953
0.938536
0.450209
0.988674
0.0309254
0.543059
2.09907
0.905656
0.102337
0.542604
0.511577
0.310985
1.46589
0.779012
0.165997
0.237617
0.0500791
0.0764902
0.437231
0.499545
1.50656
0.0754532
0.624419
0.585036
0.431017
0.134103
0.85268
0.309534
2.78458
0.457334
0.0738732
0.0695798
0.434922
0.872302
0.253403
0.201475
0.0245007
0.664779
0.18088
0.0788603
0.28918
0.650017
0.230011
1.2623
0.545399
0.448285
1.23357
0.329012
0.693131
0.259451
0.0588751
0.100454
0.148037
0.341632
0.457831
0.248071
1.44059
0.185554
0.762044
0.979644
0.321076
0.238516
0.487596
1.10386
0.881445
0.358474
0.460525
0.0792198
0.0751029
0.195814
0.0791327
1.38453
2.24863
0.54779
0.194587
0.0915027
0.289736
0.0312672
0.587976
0.468546
3.42177
1.28104
0.321696
3.8374
0.0545203
0.274438
0.318418
1.82741
0.222719
4.06442
0.188146
0.831
0.0790318
0.247305
0.176398
0.316314
0.647624
0.625795
0.650344
0.531882
0.207267
0.384405
0.0448638
0.602941
0.319127
0.858622
1.11696
1.05217
0.390097
0.454401
1.04663
0.306123
0.701038
0.386711
1.1049
0.326297
0.60113
1.50146
1.8724
0.371609
0.0788482
0.298846
0.0523857
0.142346
0.619093
0.116462
0.439063
0.500893
2.65349
0.527541
0.476835
0.582322
0.2685
0.652318
0.807255
1.05818
0.772617
0.402645
0.277409
0.772718
0.256884
0.332199
0.404547
0.533703
0.727732
0.0308117
0.348419
0.725354
0.0788243
0.486242
0.0782759
0.0477099
0.0889098
0.0185651
0.507002
0.0555736
0.264572
0.247092
0.282818
0.158417
0.0302909
0.0699091
1.42384
0.589715
0.359137
1.25461
0.646179
0.835026
0.361812
2.35785
1.63033
0.449168
2.47349
0.827849
0.148728
1.94946
4.10909
1.25725
0.0595413
0.0688525
0.0475473
0.049679
0.0732807
0.264369
1.09898
1.79105
0.0261543
0.0651658
0.250214
0.647196
0.293635
0.53135
0.0398105
0.0335478
1.41908
0.290399
0.835319
1.87891
0.387385
0.442772
1.51737
0.540616
2.84876
0.0457049
0.42464
1.20325
0.939525
1.48031
0.350805
0.0241897
0.172866
0.484001
0.371295
0.0693938
0.476285
0.0772267
0.521021
0.391752
0.529366
0.30647
0.0546322
0.359291
0.424696
3.5318
0.0822935
0.29529
0.0324247
0.351739
0.97216
0.362593
1.1468
0.452815
0.0479705
1.02784
0.552919
0.288957
3.70267
1.15697
1.39155
0.822399
0.163479
0.309789
0.876878
1.74415
0.309901
0.0703974
1.98012
0.220428
1.90444
0.230167
0.139829
0.311511
0.124906
0.507291
0.16267
0.401587
1.21593
0.18547
0.250826
0.195718
0.270392
0.578436
4.76157
0.337547
0.300762
0.434558
0.0619534
0.0743544
0.0314674
0.453279
0.0337687
0.152838
0.44984
0.663942
2.85382
0.482493
0.856456
1.19912
0.272612
0.199017
1.87653
0.302634
1.07534
1.4671
0.240054
4.9726
0.504653
0.0660319
0.0794361
1.27033
0.187233
0.420476
0.31239
0.097333
0.294458
1.39654
1.68612
0.740993
0.614833
0.425762
4.81303
1.18388
0.627817
0.705104
0.41603
0.36287
1.9256
0.842685
1.94926
2.11871
0.0774383
0.13756
0.307504
1.44647
0.427015
1.74843
1.47406
0.618063
0.999084
0.388586
0.628479
0.255329
0.0882264
0.446316
0.068532
0.215564
1.26138
0.552528
0.347438
0.522369
0.284916
0.46094
0.531929
0.421306
0.899746
0.982304
0.0446884
0.304696
0.1509
1.5747
0.179354
1.56114
0.361022
0.50104
0.473471
0.629839
3.23222
0.203392
0.454175
0.847467
2.2671
0.275247
0.169786
0.0844765
0.413571
0.924067
0.342101
0.545083
1.75764
0.335937
1.09841
0.299829
0.218155
1.14917
1.9221
1.54419
0.625525
0.453353
0.0145596
0.770645
0.0147058
0.427365
0.889069
0.941118
0.473924
0.555893
0.543836
0.811417
0.387234
0.0148284
0.474115
0.134828
0.0152383
0.0536422
0.532119
1.92507
1.55474
0.435824
0.691916
0.084568
0.161268
0.0155911
0.0159499
0.0471259
0.244446
0.473202
0.126322
0.479758
0.301069
0.169891
0.207804
1.86991
0.589647
0.0402401
0.097691
0.189228
4.34898
1.89348
1.20307
0.260006
0.086725
1.19096
0.644583
0.364249
0.636657
0.201963
0.160756
3.76666
0.195071
0.452786
0.207193
1.4799
0.286043
0.417834
2.59222
0.0527717
0.265516
0.296725
0.191781
0.0682457
0.048563
0.134112
0.246946
0.28091
0.862396
0.416752
0.262421
0.238869
1.04222
0.485775
0.856364
0.465533
0.318294
4.51543
0.109243
0.508552
0.0811783
0.466403
1.32214
0.031302
0.388839
0.73141
0.192871
0.198799
0.122559
0.199659
0.591759
0.178269
1.25144
3.83565
0.404701
0.961762
0.0674126
0.465769
2.80395
0.211709
3.1868
0.423225
0.123079
0.430015
0.231804
0.259673
0.685687
0.917282
0.329111
0.0521523
0.0816075
0.759888
0.44851
0.190195
0.271264
0.491353
0.519807
0.045885
0.0625435
0.255397
1.13472
2.30352
0.275827
0.0431009
0.350122
0.242349
0.52143
0.421004
0.379753
1.44741
0.759266
0.168142
0.52164
2.55066
0.0261014
0.79732
1.26715
0.175322
0.960839
1.0315
0.845268
0.127661
0.0310714
0.152021
0.357976
0.1635
0.192697
0.306153
2.25995
1.04146
1.65992
3.06687
0.878263
1.42406
1.19527
0.255561
0.90236
0.386051
0.933623
0.191774
1.56592
4.1195
2.13505
1.81927
0.119825
0.203609
1.0375
0.612764
1.09152
0.0261527
0.0868256
2.03482
0.504983
0.618331
0.262343
1.96929
0.178575
1.0613
0.945664
2.85946
1.32897
3.96298
0.0420677
2.2004
0.0817984
0.601055
0.067342
1.64435
0.846853
1.12796
0.0581959
0.135172
3.20141
0.13388
0.0720155
1.82623
0.344218
0.571706
1.32031
4.13029
1.50818
0.0550721
0.097585
1.43093
1.73551
2.05003
1.77999
2.8136
0.604981
0.333283
2.65741
1.90842
0.072259
0.0442065
0.416005
0.0866345
0.16403
0.318443
0.703268
0.607921
0.169035
0.664074
1.01093
0.229044
3.70501
1.78745
3.60873
0.456368
0.535878
0.600997
0.610847
0.612589
1.00849
3.82225
2.73585
1.12058
0.77843
0.322157
0.878339
0.271485
0.0485492
3.08179
2.7374
0.334682
0.774731
0.0505382
0.255887
0.546217
1.27451
0.171171
1.0647
0.30137
2.54114
0.0867254
0.598344
0.0706443
0.278972
0.0475216
0.298264
1.63924
1.33759
0.121228
3.77341
0.116872
0.258125
1.84464
0.364102
1.6999
0.435401
0.389297
2.33399
0.212572
0.476543
0.266073
1.79041
0.513424
0.191609
1.4202
0.876047
0.509348
0.676342
1.01722
0.419845
0.447326
1.97479
0.0226816
0.605455
1.10425
0.279898
0.36267
3.46062
0.309686
1.89972
0.250542
0.0808419
0.0698667
0.0645374
0.603818
1.52678
2.12834
2.38044
0.457808
0.965752
0.2299
0.623386
0.663683
0.524025
0.21063
0.247608
0.340232
0.474629
0.0292286
0.0282439
0.0795636
2.16785
0.274164
0.519043
0.614719
3.6225
2.75147
2.9612
1.19992
0.316666
1.1814
0.151763
0.23994
1.38712
2.85474
0.579492
0.490453
0.0844268
0.377127
0.89484
2.00221
0.253674
0.418657
0.88928
0.386546
0.108716
0.280351
0.0268689
0.234468
0.280836
2.26643
1.96656
0.234529
2.52988
0.879883
0.289136
0.561136
1.01892
0.68424
0.410483
1.00339
0.777559
0.875541
1.69835
0.0500903
0.0703462
1.4878
0.381902
0.199997
0.152284
1.33023
0.537166
0.526914
0.0786705
0.518129
0.088259
0.527909
0.502841
0.508592
0.509081
1.01453
0.767721
0.513072
0.201948
0.57828
0.553127
0.0388207
0.954902
0.0331259
0.262764
0.324123
0.38545
0.785441
0.163496
0.316817
0.215388
0.0565702
0.459945
0.0730177
0.111182
4.85795
1.43907
0.527824
0.0494761
0.0661737
0.368571
0.026071
0.0746286
0.764431
0.078837
0.0439848
0.545338
0.0897074
1.19451
0.555031
0.102829
0.576883
0.308224
0.597406
0.616883
0.36064
0.57102
0.508337
1.99441
1.14117
0.0875788
0.741296
2.22755
2.5059
2.15105
0.456205
0.265122
0.0206425
0.0318003
1.0725
3.15631
1.2864
0.193972
1.41299
0.243535
0.397472
0.978258
0.437652
1.04244
0.450837
2.66095
0.0191194
0.262698
2.82243
0.98266
0.191645
0.505754
1.03522
1.59043
1.28318
0.869826
1.03385
0.141459
0.35513
0.405522
0.222586
0.33159
0.378509
1.13756
0.736122
1.82462
0.825693
1.08956
0.140718
0.257909
0.44185
2.13766
1.12267
1.29557
0.411892
4.27911
0.401334
0.504343
1.65873
0.0513908
0.289537
0.11514
1.67831
2.80516
1.17975
1.28354
0.89012
1.39371
0.341145
0.284458
0.0239767
0.237299
0.337254
8.08058
4.70683
0.394937
2.62503
0.959088
0.423992
0.0511146
1.13115
0.0609735
0.0268692
0.0431576
0.223873
1.09003
1.00491
0.322972
1.27537
0.0707202
0.239987
0.023705
0.399004
1.2266
0.742371
6.65075
0.439794
0.320671
0.0202131
0.528715
3.34105
1.57606
0.476309
0.275511
0.310581
0.34442
0.2252
0.262069
1.04923