/*--------------------------------*- C++ -*----------------------------------*\
| =========                 |                                                 |
| \\      /  F ield         | OpenFOAM: The Open Source CFD Toolbox           |
|  \\    /   O peration     | Version:  v1912                                 |
|   \\  /    A nd           | Website:  www.openfoam.com                      |
|    \\/     M anipulation  |                                                 |
\*---------------------------------------------------------------------------*/
FoamFile
{
    version     2.0;
    format      ascii;
    class       volScalarField;
    location    "0.26";
    object      epsilon;
}
// * * * * * * * * * * * * * * * * * * * * * * * * * * * * * * * * * * * * * //

dimensions      [0 2 -3 0 0 0 0];


internalField   nonuniform List<scalar> 
1431
(
0.933113
11.5518
49.9913
12.653
1.389
7.26492
7.93789
165.871
3.07694
5.87672
122.947
117.857
12.0924
6.26175
1.53312
8.97764
6.2531
23.6899
9.31041
24.8784
254.312
8.58358
2.82402
105.052
2.4754
23.9674
81.2325
1.21397
36.051
12.3401
18.5085
69.8925
12.7539
2.2402
8.17784
5.46906
74.0716
0.907041
11.8155
49.1195
39.1097
83.8719
17.4698
15.0383
6.52429
1.88612
6.32508
68.0598
9.81396
0.76901
14.1674
18.1691
15.3586
164.386
5.9359
23.7503
1.27631
150.49
5.4257
7.611
1.37355
8.0867
1.35851
0.822086
16.7708
4.93134
42.726
1.53573
1.63149
14.0517
103.329
3.46869
9.85883
2.11268
8.27578
2.47687
51.8124
0.799193
5.5971
20.1541
6.20983
0.953877
6.67261
4.91437
30.6483
20.0537
6.26202
1.67574
16.2474
12.5244
1.04762
1.24984
1.74396
11.8427
3.79519
13.9917
162.094
14.4556
12.2229
9.9144
23.9912
10.4275
5.78383
19.3457
3.69589
25.7652
41.8448
109.177
2.21901
5.09295
16.7964
8.11273
28.7617
9.96097
6.85316
1.71708
5.68458
12.1234
12.9923
1.1401
20.7071
2.04004
113.528
10.9897
73.6109
5.74543
47.9086
1.3181
37.3104
4.18901
9.04461
31.7439
4.05892
10.6043
35.1127
1.25344
4.23117
7.45831
35.8763
1.36535
13.9834
8.78334
6.74582
19.0471
3.30595
11.525
1.80283
21.1164
7.26343
1.07283
1.43988
1.86258
56.6817
13.8665
47.2126
2.77113
25.1926
16.0453
9.89051
5.1327
32.6527
8.66863
7.10923
4.8465
86.0898
1.83032
8.47259
3.99953
0.885353
10.3762
22.7598
21.3615
32.616
33.5735
13.436
23.8726
3.83757
6.90641
13.3272
9.89452
6.04738
17.0674
7.23256
239.24
6.15485
81.6185
95.158
15.0081
24.4539
22.3262
10.8827
31.4334
40.1686
169.73
11.967
14.7091
19.0212
3.75014
1.02332
1.02037
14.7728
6.49309
91.3032
5.30901
7.84402
13.9691
37.8928
3.83207
46.1204
0.75903
55.0738
8.39821
39.1568
28.2329
35.2702
33.7806
44.7317
3.6683
6.30242
84.2117
55.6675
8.6226
7.11398
5.58948
44.7684
76.3227
104.076
11.7535
71.8221
47.1108
103.517
16.2777
21.6611
41.1439
71.5117
19.8171
37.6851
28.3053
9.95481
13.5078
5.56228
5.65286
57.6435
23.1936
27.0592
24.0739
26.8775
88.8676
46.6832
0.912276
1.37237
27.9848
5.31078
6.3657
12.2078
6.42601
5.5006
109.783
22.8076
41.3715
58.2742
32.8796
6.25106
3.93985
41.9678
110.765
4.84719
281.15
65.2647
1.64688
2.50477
39.5179
9.90319
13.7792
34.0011
28.8311
33.2887
43.2387
26.267
55.8901
15.0283
22.2212
10.7274
17.657
4.96154
11.462
12.3796
18.0956
31.9288
15.7278
0.917383
3.24782
17.3521
15.9822
27.7102
80.6058
122.834
85.6955
49.5973
34.254
18.2479
18.331
8.9681
13.1893
36.4517
5.7104
16.0761
34.3752
67.4685
9.48699
13.7376
5.2091
5.93394
89.11
4.1459
18.8611
4.3353
5.38751
1.21174
701.214
14.036
17.1535
2.15559
25.3736
5.38291
61.6586
4.22099
2.26843
183.315
6.01909
59.0922
1.69934
2.44081
10.9884
5.0735
14.1861
3.04691
17.461
5.83422
65.5758
7.74479
15.3766
10.5029
4.71317
4.1621
15.1488
14.1023
29.0035
9.4935
12.177
3.69783
1.55893
25.5862
7.26961
1.33182
4.46503
37.7039
34.6311
25.2449
24.4682
8.31514
71.0499
45.471
8.2712
1.25053
23.8875
2.33883
368.258
57.6374
10.4096
108.792
1.50021
16.4671
6.44952
2.54011
182.455
11.8122
5.01368
28.9975
252.371
7.21794
5.90699
4.72901
1.64862
622.612
6.03064
7.97355
5.63735
3.54095
6.14143
6.37772
11.5784
13.315
5.95855
26.6803
24.4493
4.89535
4.65352
1.82243
7.41074
6.54999
1.61591
21.8462
3.6858
33.7699
5.38354
7.8043
1.8797
4.5223
5.69429
9.85518
5.28983
6.05177
18.095
6.28578
1.68788
4.96058
1.46387
6.6264
6.5551
43.4613
12.7029
11.3429
5.34945
7.27438
1.39417
14.6706
20.2299
22.1344
68.6419
47.5705
51.1979
52.181
49.6462
46.4744
33.7772
40.855
14.9754
25.5527
10.1581
1.3096
36.7657
1.20793
1.25309
2.18798
1.696
5.86844
2.51802
4.33684
5.17895
4.67167
0.936053
9.57396
7.34514
7.44975
11.335
7.43717
108.797
4.12593
41.6791
5.94792
1.04963
102.256
10.9572
43.4192
1.22154
14.532
98.4573
1.11428
96.1459
14.6577
16.7235
17.4221
13.0791
37.742
31.5035
1.27838
2.09354
3.69375
19.6643
14.5382
10.1986
40.3372
9.35142
10.84
14.8067
12.8128
4.95238
29.1152
11.3036
48.735
14.7138
24.7807
22.1217
17.2202
10.2136
22.6444
54.4554
24.136
1.31497
38.6231
31.6714
0.898968
72.2156
52.908
33.8615
1.57538
16.2903
32.1303
1.50958
25.7088
25.6244
6.40172
22.6961
96.7889
10.8159
46.0118
28.1241
26.0546
38.2946
6.03617
33.3028
1.59272
6.03588
32.2745
8.88907
51.2749
45.9718
1.10596
3.50916
16.0074
26.9512
17.0198
51.4439
4.4118
21.2025
2.72446
8.76608
32.5718
1.29538
5.74973
46.0803
1.03804
29.0948
1.59243
3.04022
7.28806
9.26187
5.26711
5.10252
6.5717
58.8626
1.5104
9.43234
1.35311
44.0439
8.8204
31.1592
8.50628
352.102
7.64778
40.9427
17.5429
21.3016
557.482
32.7008
5.03771
5.19239
26.8149
2.81553
8.07542
16.8581
18.3201
14.8005
49.5811
3.33273
8.43363
7.64522
28.5924
43.2983
7.09042
10.2616
5.37106
4.67437
5.17931
47.9726
20.1257
26.1931
59.3543
1.53158
27.2793
1.3095
18.5209
7.78353
41.266
4.77956
16.2853
6.66395
16.3937
38.5707
13.2361
16.8476
6.92796
25.743
4.72022
5.04346
99.6269
6.63991
12.4951
1.34358
8.80457
26.9876
15.2117
22.2349
6.65892
2.96261
35.1883
5.00074
35.1772
8.57678
8.15882
14.6343
37.1167
11.8723
19.4059
4.06959
4.3164
1.40558
7.18213
6.24385
12.0091
21.9904
14.1494
14.1653
8.93998
4.07334
137.921
7.34367
1.37705
12.9404
1.70924
20.7001
9.59684
7.6605
1.27087
20.1508
3.64972
4.16834
70.2665
8.88514
33.1332
14.5451
8.53625
4.96033
2.09913
4.45752
3.31946
5.25077
23.7136
20.4026
29.6809
4.2562
17.31
13.99
25.1165
29.7952
23.3514
23.8274
17.8723
1.62875
8.20906
4.43545
50.6171
6.85028
37.6692
16.8285
52.9871
10.2106
5.4654
12.6427
13.3889
4.4369
5.92008
49.6283
1.17398
31.8833
22.0455
2.03836
1.60408
5.68247
76.5173
42.4347
1.37837
5.55776
5.78008
41.1382
8.47821
4.92435
6.07546
16.9082
6.8291
4.49551
6.36839
5.60446
1.46158
56.0776
9.68886
7.54712
8.4826
6.5152
5.60607
5.0714
27.0693
43.1127
58.5192
2.72793
21.6964
1.07585
14.0712
1.36014
1.11642
15.7402
26.9547
7.62318
30.6252
3.70702
52.7835
16.5493
101.094
178.068
1.05126
6.88475
29.4962
10.5174
85.0086
39.4752
2.01947
9.80658
49.1159
8.66434
21.1413
4.41483
11.4473
4.42838
44.1457
3.6596
8.98655
15.4743
7.53261
9.90173
36.3022
10.306
3.75042
13.4634
172.612
8.30718
2.55977
17.313
7.49526
4.55426
163.843
84.6687
41.0265
6.37011
2.48946
45.3002
13.8508
11.0106
6.34177
10.0364
20.3896
23.4682
8.19977
2.24086
2.58241
10.2555
6.31575
34.8125
3.98236
0.771551
5.12406
6.38286
8.84095
1.15953
5.89355
37.8554
4.45852
9.34307
37.0555
6.88045
45.6138
14.577
39.2764
4.12561
35.2239
6.31051
16.0855
20.8762
18.0141
7.73877
53.1362
9.2727
1.67946
46.4138
37.1146
668.786
31.6627
6.64288
35.2901
5.15494
398.456
4.90952
11.4184
30.0906
4.9663
122.437
33.8367
1.44222
48.3861
1.83131
1.15117
92.4519
16.5406
4.98346
6.23998
24.4077
2.8824
8.42896
1.48009
24.7577
20.7751
11.2967
50.4811
40.7074
7.06781
162.597
5.49004
58.6872
5.98359
13.7805
7.10256
6.41525
4.73681
39.0901
13.4813
21.8708
11.9461
207.099
30.5284
28.1025
49.7151
9.07237
17.628
5.24332
41.4159
1.40413
3.95255
5.81996
35.755
1.91792
5.35477
5.15131
4.40493
6.68223
11.6164
5.78594
16.5333
5.95289
27.4577
6.44983
6.47101
581.415
3.59767
10.7766
5.79005
13.1078
6.69441
1.31554
5.99862
1.05367
95.4711
18.1399
1.33165
86.6256
463.489
144.936
157.357
51.179
41.337
46.5222
44.5523
46.0382
62.2158
37.3312
20.0316
19.795
19.4695
20.3756
34.6783
71.6388
18.2562
19.1041
23.4776
16.2187
35.7626
35.0044
14.9801
35.038
36.6755
14.1644
35.3921
18.7994
26.2121
0.815929
31.1383
3.95187
8.75792
6.24703
67.4468
68.0473
11.7848
5.47102
1.64516
5.46218
182.984
17.7888
5.06276
28.9583
4.30897
18.7422
4.58405
5.79855
144.788
1.33227
31.5472
7.71188
5.64444
5.42646
25.0558
23.1471
60.0609
6.81854
15.2414
2.00026
23.4899
11.3228
39.3899
1.21064
13.2437
1.70729
23.9946
10.2377
35.1375
11.9509
40.8292
11.3905
30.1689
5.30674
5.70767
36.7365
28.4768
26.8495
5.88973
11.927
1.01599
15.2316
10.6317
8.62777
27.3267
1.26499
7.26747
15.9805
18.7473
53.8972
1.86139
8.57802
18.5568
38.1214
8.10454
741.422
5.88763
29.9337
16.6914
171.934
5.14752
14.6787
14.0713
5.38291
8.50908
1.39101
42.1568
9.72916
20.4522
408.26
46.855
28.8324
5.4972
19.9987
25.1784
12.9044
41.5713
19.3667
1.44049
40.8954
59.3654
38.2027
84.9617
45.5858
15.0194
1.19974
13.3051
3.30678
31.3374
2.47275
10.9222
10.754
7.81386
31.8015
7.54945
6.18734
36.3354
409.397
5.52922
38.0408
13.2693
4.50345
4.65876
174.242
11.9148
6.93387
14.3791
33.6206
26.6346
14.3275
5.42111
72.4101
7.08507
13.1754
22.0145
7.98724
5.71666
8.11134
15.1985
10.0113
3.331
9.39848
72.471
65.1801
136.096
38.3511
2.91931
38.5321
7.36917
4.1858
5.70566
7.85877
8.47295
6.0236
9.80881
25.3144
7.11524
35.3083
6.47029
35.8606
0.828618
33.6713
12.2587
26.9656
6.13567
27.8667
62.0834
5.98031
26.3735
27.9729
18.3208
20.2299
22.7967
27.9464
31.1806
32.135
25.7435
31.7512
10.1542
13.2591
16.272
10.8189
13.5601
15.439
7.1305
7.77489
11.9753
39.6343
3.49568
12.3749
5.95287
32.9062
0.912706
9.40856
18.1595
22.8929
47.2579
3.84667
6.5731
1.08993
1.47567
4.11615
36.4555
48.8324
7.32149
41.8161
10.6492
5.3084
570.39
49.422
25.5054
1.94237
5.11458
8.51422
7.84562
32.0501
8.38518
3.92582
6.90706
1.29864
17.2403
13.9666
6.18327
9.90529
6.65805
12.0695
15.683
36.4437
5.81069
35.8073
16.4782
10.7641
21.8484
173.402
1.14302
31.0315
70.9772
3.81287
22.43
4.62425
6.7061
5.06286
32.1975
7.25627
8.64648
48.9163
78.282
4.51258
13.4287
42.3732
1.37888
11.6697
3.90931
27.055
10.5191
26.9697
58.6527
47.9121
8.77525
22.6185
13.681
52.8547
12.3477
22.4919
39.4097
6.42043
16.9645
82.9882
6.45643
25.6034
27.2904
14.0421
5.02943
4.00307
17.7417
42.0894
166.029
60.3776
7.52659
0.720108
8.3584
4.22611
33.1846
10.8063
41.6854
12.2641
16.1595
15.1384
119.846
8.33942
1.36223
3.77701
3.06731
5.19903
193.292
1.39578
4.30303
16.0468
9.10471
18.9412
3.60794
14.1638
25.4676
34.0641
16.2972
3.3851
5.61816
24.3188
11.9322
7.60953
21.2734
6.2011
5.43136
16.0225
4.01093
22.1111
7.63604
7.85837
9.80746
25.9108
16.9335
9.45101
22.1348
6.9284
15.0057
5.64605
450.519
39.3417
4.28502
5.46531
39.5806
4.51688
5.97814
4.80397
34.2093
1.12659
37.5138
5.47631
0.991308
5.55384
6.70227
11.7927
4.41305
17.6032
7.06794
104.517
3.17249
196.062
5.33871
25.9754
6.33655
10.9022
4.37671
2.99349
55.7973
4.04833
16.3648
5.85152
240.574
5.4464
6.45604
1.38412
38.7423
14.8816
4.84603
52.0976
16.6111
3.67901
57.7192
23.9572
3.3689
9.34566
6.85184
10.8036
123.554
45.7164
41.0375
15.0556
30.6571
1.55656
29.8999
17.7097
47.2506
180.111
17.0203
15.1006
12.7058
4.94924
88.7035
13.7873
54.6099
1.34091
168.149
32.8317
36.6448
0.74663
368.083
7.08911
4.04445
1.27977
41.361
38.637
4.0393
139.208
14.7024
17.3995
4.81918
281.478
11.3829
190.736
11.3601
18.718
44.9395
136.295
147.894
56.1904
62.139
4.55377
19.7188
3.73084
56.2463
1.46071
35.5941
6.7542
3.8578
62.8694
263.573
46.4325
10.8547
8.96427
22.2426
14.1287
4.65187
2.88924
166.766
7.63246
4.88194
37.0614
4.616
8.25697
39.6413
1.49931
9.45789
16.155
13.4196
228.875
16.4504
7.31845
1.64698
1.29222
58.4122
61.7302
4.44538
5.34952
16.3555
24.2256
21.0978
68.3187
13.0314
65.8887
9.54669
76.7801
24.8909
6.56066
14.262
4.7435
9.51181
22.1105
9.7067
21.28
50.5312
8.55656
11.6382
13.3032
16.4629
7.84005
21.3872
22.8463
31.3077
1.07641
59.411
1.57648
1.73772
37.2548
35.9628
1.52888
18.9614
21.8675
76.1895
12.5785
6.10632
6.88744
20.9727
5.95365
12.6371
3.07102
9.45659
1.20298
81.7281
3.23888
39.1426
96.3382
35.3089
13.1202
20.1542
4.4162
4.33518
10.3218
20.4386
106.218
29.974
5.97867
2.59576
9.09581
16.7945
51.0585
5.20622
1.13732
18.932
45.0424
0.979309
56.0353
0.672489
7.01351
2.64924
2.55814
1.97258
)
;

boundaryField
{
    frontAndBack
    {
        type            empty;
    }
    wallOuter
    {
        lowReCorrection 0;
        type            epsilonWallFunction;
        value           nonuniform List<scalar> 
96
(
36.051
12.3401
13.9917
50.6171
52.9871
49.6283
5.68247
5.55776
5.78008
8.47821
6.07546
6.8291
5.60446
56.0776
7.54712
9.80658
49.1159
21.1413
6.31575
5.89355
6.31051
6.23998
24.4077
11.2967
50.4811
51.179
41.337
46.5222
44.5523
46.0382
62.2158
37.3312
20.0316
19.795
19.4695
20.3756
34.6783
71.6388
18.2562
19.1041
23.4776
16.2187
35.7626
35.0044
14.9801
35.038
36.6755
14.1644
35.3921
31.5472
35.1375
11.9509
27.3267
7.26747
53.8972
28.8324
84.9617
38.0408
13.2693
11.9148
13.1754
8.11134
10.0113
72.471
26.9656
27.8667
26.3735
27.9729
18.3208
20.2299
22.7967
27.9464
31.1806
32.135
25.7435
31.7512
10.1542
13.2591
16.272
10.8189
13.5601
15.439
12.3749
6.5731
13.9666
13.4287
41.6854
6.2011
15.0057
16.6111
41.0375
15.0556
11.3829
62.139
62.8694
8.96427
)
;
    }
    inlet
    {
        type            fixedValue;
        value           nonuniform 0();
    }
    outlet
    {
        type            zeroGradient;
    }
    wallInner
    {
        lowReCorrection 0;
        type            epsilonWallFunction;
        value           nonuniform List<scalar> 
126
(
5.4257
7.611
1.37355
8.0867
1.35851
0.822086
16.7708
4.93134
42.726
1.53573
1.63149
14.0517
103.329
3.46869
9.85883
2.11268
8.27578
2.47687
51.8124
0.799193
5.5971
20.1541
6.20983
0.953877
9.9144
1.71708
5.68458
12.1234
12.9923
1.1401
20.7071
2.04004
113.528
10.9897
73.6109
5.74543
47.9086
9.04461
31.7439
1.36535
13.9834
6.74582
19.0471
1.80283
1.07283
1.86258
13.8665
86.0898
6.04738
81.6185
95.158
11.967
55.0738
1.64688
26.267
55.8901
0.917383
122.834
85.6955
34.254
18.331
5.2091
5.93394
89.11
61.6586
4.22099
59.0922
65.5758
7.74479
34.6311
71.0499
45.471
1.8797
1.46387
72.2156
96.7889
3.50916
8.76608
46.0803
9.26187
58.8626
8.50628
49.5811
7.64522
59.3543
1.3095
13.2361
37.1167
14.1494
1.27087
8.53625
1.46158
9.68886
4.55426
10.7766
1.31554
28.4768
58.6527
46.4325
10.8547
9.45659
1.20298
3.23888
96.3382
35.3089
13.1202
4.4162
10.3218
20.4386
106.218
29.974
5.97867
2.59576
16.7945
51.0585
5.20622
1.13732
18.932
45.0424
0.979309
56.0353
0.672489
7.01351
2.64924
2.55814
1.97258
)
;
    }
    procBoundary3to1
    {
        type            processor;
        value           nonuniform List<scalar> 
48
(
77.6932
42.1282
92.9167
92.5635
47.0072
8.31608
42.1282
24.1866
40.3622
4.62973
4.62973
12.612
12.612
44.9559
44.0322
13.289
16.578
13.3205
16.578
7.34158
28.7585
26.2819
7.34158
1.54979
1.26618
4.4441
21.7374
26.2819
21.1058
14.1359
14.1359
22.2609
22.2609
40.3622
4.96946
53.0928
27.2024
1.26618
61.4012
44.7365
44.9559
30.5308
34.0589
7.34158
43.4184
35.5271
43.1034
29.367
)
;
    }
    procBoundary3to2
    {
        type            processor;
        value           nonuniform List<scalar> 
29
(
1.29212
1.29212
3.44991
4.70179
48.7337
3.00855
7.77287
1.41027
5.28523
4.39541
2.41743
37.9012
1.50129
15.5912
6.83696
14.905
5.44016
8.47274
1.26158
5.83501
5.32052
5.44016
9.96273
8.47274
6.59144
5.22027
8.47274
39.4452
39.4452
)
;
    }
}


// ************************************************************************* //
