/*--------------------------------*- C++ -*----------------------------------*\
| =========                 |                                                 |
| \\      /  F ield         | OpenFOAM: The Open Source CFD Toolbox           |
|  \\    /   O peration     | Version:  v1912                                 |
|   \\  /    A nd           | Website:  www.openfoam.com                      |
|    \\/     M anipulation  |                                                 |
\*---------------------------------------------------------------------------*/
FoamFile
{
    version     2.0;
    format      ascii;
    class       volScalarField;
    location    "0.28";
    object      nut;
}
// * * * * * * * * * * * * * * * * * * * * * * * * * * * * * * * * * * * * * //

dimensions      [0 2 -1 0 0 0 0];


internalField   nonuniform List<scalar> 
5794
(
0.00270097
0.000640683
0.00275303
0.000585701
0.00435606
0.000881199
0.00129681
0.00182115
0.00292753
0.00172536
0.00207534
0.000845489
0.00133376
0.00221739
0.00216767
0.000769071
0.00469798
0.00147399
0.00126945
0.000575699
0.0016368
0.00168214
0.00159089
0.00117839
0.00172045
0.00415394
0.00479151
0.00291764
0.00328076
0.000851175
0.00161422
0.00139974
0.00192657
0.0010451
0.00309247
0.00293191
0.000786564
0.0006801
0.00174942
0.00260082
0.003142
0.0025717
0.000739375
0.00161915
0.00231796
0.00236181
0.00123789
0.00124475
0.00117489
0.000991371
0.000295263
0.00307741
0.00139815
0.00192519
0.000113343
0.00236947
0.00168143
0.00154061
0.000714462
0.00525593
0.00130081
0.000660112
0.0018356
0.00350176
0.0037648
0.000747218
0.00362517
0.000537204
0.00154104
0.000824959
0.00570242
0.00406094
0.00546989
0.00208813
0.00123702
0.00262027
0.000348671
0.00374398
0.00192624
0.00012571
0.00090452
0.00076407
0.00232602
0.00135145
0.000746191
0.000828009
0.000689894
0.000936924
0.00196168
0.00271304
0.00441623
0.00262345
0.00271033
0.00449243
0.00282567
0.008132
0.00339342
0.00250413
0.00241351
0.00139106
0.00146838
0.00085413
0.000739348
0.00192651
0.0018974
0.0039227
0.000594485
0.00313102
0.00529759
0.00214423
0.000664044
0.00233852
0.00147941
0.000900435
0.00303217
0.00326607
0.00138258
0.00389585
0.00121645
0.0010084
0.0038996
0.000535188
0.000483123
0.00306603
0.00340526
0.00344831
0.00217201
0.000868579
0.00375568
0.00435333
0.00101106
0.00143682
0.00174587
0.00357962
0.0038101
0.00251994
0.00270426
0.000710209
0.000600652
0.000645064
0.00229025
0.00354633
0.00393348
0.00245869
0.000803083
0.00678305
0.000835047
0.0013013
0.00306261
0.00211158
0.000723765
0.00251141
0.00382045
0.000524658
0.00582515
0.000879947
0.00131211
0.000936416
0.00211363
0.000591955
0.00113915
0.00108732
0.00050582
0.0013832
0.00212479
0.00210384
0.00134406
0.00084602
0.000509342
0.000993752
0.000536199
0.00209941
0.000843269
0.00133061
0.00049489
0.00101813
0.000600271
0.00148211
0.000518422
0.00217277
0.000538764
0.000968878
0.000890744
0.00164803
0.000917232
0.00261461
0.000728184
0.000957561
0.00097018
0.000540481
0.00167689
0.00107125
0.00167
0.00132216
0.000796789
0.000572936
0.00151728
0.000973929
0.00109042
0.00100837
0.00083758
0.00231921
0.00124314
0.000891905
0.000950295
0.00206026
0.000951378
0.00469789
0.00257117
0.00276779
0.00257931
0.000860081
0.00345312
0.0026154
0.00111049
0.0035155
0.0024087
0.00165435
0.00391557
0.00391816
0.000858734
0.00221295
0.00672301
0.00321735
0.00215377
0.00268697
0.000442163
0.00407768
0.00121247
0.00197105
0.00157474
0.00451551
0.00102505
0.00394325
0.00117101
0.00368959
0.00342738
0.00179127
0.000718826
0.0018925
0.000991912
0.00694416
0.0032613
0.000609749
0.000819685
0.000768004
0.00312008
0.00206708
0.00113243
0.000885003
0.000656358
0.000647631
0.00571694
0.00064731
0.000798094
0.00448168
0.000892284
0.00083201
0.00263929
0.00252385
0.00218556
0.00364316
0.00268703
0.000491246
0.00111851
0.00179244
0.00170125
0.00348589
0.00135828
0.00283108
0.00138465
0.00138924
0.00236196
0.00509312
0.000870683
0.00143629
0.00187362
0.0017958
0.00127041
0.0009425
0.00112583
0.00276156
0.00322003
0.00241496
0.00255179
0.00460945
0.00223931
0.0026333
0.00366315
0.00360915
0.00230806
0.00445685
0.00136595
0.00330831
0.000764274
0.00312946
0.00438411
0.0017588
0.00198135
0.000588481
0.000485838
0.00101273
0.000689892
0.00457491
0.00148217
0.00294555
0.00112331
0.00135077
0.00244655
0.00108217
0.00128597
0.00257976
0.00329578
0.000867576
0.000783052
0.000900148
0.00404222
0.00249185
0.00472839
0.00386931
0.00361176
0.00401394
0.00278072
0.00331893
0.000657376
0.00188872
0.00305474
0.000727577
0.000963559
0.00189252
0.00204101
0.000822507
0.00102712
0.00136146
0.000916085
0.00120632
0.00108842
0.000428537
0.000764279
0.000722988
0.000559345
0.00115198
0.00268007
0.000908292
0.000713187
0.000747807
0.00182149
0.00106897
0.00249558
0.000582281
0.00198942
0.00172693
0.00153655
0.000939435
0.00103102
0.00174478
0.000869115
0.00203007
0.000975666
0.0018012
0.00461654
0.00115363
0.00266522
0.00185503
0.0022297
0.00155421
0.00191821
0.00163407
0.000817387
0.00114094
0.0027523
0.000413843
0.00223637
0.00118359
0.00635565
0.00318496
0.00170006
0.00122921
0.00163929
0.00049161
0.00205943
0.00264919
0.000750296
0.00290943
0.00210318
0.000940898
0.00487895
0.00399921
0.00362992
0.00142258
0.000831784
0.00173048
0.000712859
0.00129129
0.000808458
0.00150854
0.000515861
0.00190643
0.00150566
0.00173804
0.00091552
0.00236435
0.00416264
0.000436194
0.00133639
0.0023013
0.00149214
0.00149293
0.000638183
0.00323984
0.00278087
0.00204299
0.00452941
0.00127808
0.00176893
0.000781945
0.000924862
0.00159858
0.00209975
0.00294199
0.00228987
0.00232965
0.00535011
0.00275201
0.00108247
0.00133677
0.000547934
0.000920016
0.000609885
0.00148697
0.00356144
0.000784875
0.00180838
0.00212653
0.00201463
0.00142209
0.000647576
0.00082191
0.0019796
0.00166629
0.000804326
0.000805577
0.00110494
0.000658096
0.00167169
0.00371257
0.00304226
0.000520517
0.00099312
0.00365933
0.00120927
0.000591528
0.0022268
0.00196204
0.00393626
0.000419191
0.00379802
0.00907854
0.00284529
0.0049954
0.00194951
0.000635938
0.000977087
0.000922665
0.00148711
0.00422913
0.00360617
0.00444362
0.00535476
0.00275386
0.000148954
0.00310039
0.00445416
0.00268342
0.00237359
0.00287268
0.00522442
0.00315862
0.00259987
0.000637339
0.000908295
0.00179705
0.00196932
0.00201541
0.004521
0.00363888
0.00086377
0.0014762
0.00197825
0.00145639
0.000662485
0.00118687
0.00231314
0.00222415
0.00167257
0.000844452
0.00102496
0.00258567
0.00040925
0.00208196
0.00398645
0.00477177
0.000730221
0.00177693
0.00163291
0.000575685
0.00145884
0.00100815
0.00494948
0.000711593
0.00805888
0.00100445
0.00212917
0.000450855
0.000808664
0.00293933
0.00298617
0.000453315
0.000805687
0.00421195
0.00159111
0.000653291
0.004547
0.00349112
0.00427235
0.000897535
0.00344194
0.00204125
0.000558671
0.00175426
0.00120782
0.000249777
0.00350039
0.00230561
0.00206183
0.00296802
0.000785768
0.0027146
0.0038692
0.00180232
0.00147571
0.00247301
0.000545167
0.00226244
0.00303656
0.000740953
0.000754475
0.00282766
0.000840937
0.0012105
0.00179167
0.000742921
0.000695869
0.00312466
0.00103121
0.00365099
0.00109904
0.00159385
0.000545595
0.00227376
0.00790618
0.000572794
0.00303311
0.00304561
0.00214968
0.00183459
0.00089724
0.00352729
0.000597156
0.000616874
0.00159101
0.00319874
0.00115594
0.00131522
0.00133718
0.000862557
0.00464211
0.00219278
0.00147944
0.00431006
0.00382689
0.00283496
0.00709606
0.00307743
0.00366358
0.00127041
0.000906935
0.00358175
0.00233006
0.00403505
0.00068587
0.000917408
0.000801036
0.00426551
0.00280309
0.00255519
0.000362424
0.000831195
0.000491253
0.00263724
0.00134503
0.00170939
0.00289915
0.00440818
0.000510049
0.00272143
0.00363546
0.00105635
0.000140364
0.00231924
0.00406371
0.00493283
0.00202352
0.00162361
0.000747242
0.000929021
0.00190439
0.00110869
0.000857035
0.000512921
0.000375846
0.00319188
0.00394491
0.00439748
0.000532703
0.000929415
0.00181761
0.00457837
0.00570769
0.000932039
0.00233885
0.000764782
0.000342668
0.0014904
0.00070465
0.00207074
0.00423999
0.000809454
0.00121552
0.00217126
0.00229877
0.000795988
0.00460438
0.00252926
0.00258312
0.00461574
0.00217872
0.00101483
0.0015274
0.000838772
0.00053484
0.00348287
0.00226912
0.000717472
0.000727665
0.00283133
0.00461694
0.00056021
0.00139696
0.00334239
0.0008427
0.00169827
0.00185846
0.000918068
0.000625483
0.00260791
0.00409842
0.00470406
0.00237621
0.00230922
0.00177723
0.00195999
0.00408956
0.00128382
0.00187586
0.00283941
0.00449903
0.0030709
0.00202864
0.00250975
0.000851494
0.00409011
0.00265977
0.000772326
0.00221273
0.00255463
0.00401716
0.00240314
0.00151962
0.000515488
0.00146318
0.0066786
0.00419763
0.0027338
0.00337056
0.00187189
0.0054437
0.000402914
0.000561005
0.000769853
0.000770456
0.00057013
0.000258381
0.000874607
0.00283407
0.00302491
0.00111767
0.00208366
0.00198929
0.00659467
0.000997494
0.005309
0.00289348
0.00334475
0.00447247
0.000775343
0.000734379
0.00552485
0.00287385
0.00527548
0.00690994
0.0042364
0.00281548
0.00196951
0.00419481
0.00194865
0.000769301
0.000818796
0.00756706
0.00094964
0.00268712
0.00315889
0.00540108
0.00208211
0.00337676
0.00220843
0.00292763
0.00416311
0.00256996
0.00267494
0.00401688
0.000357641
0.000434824
0.000516283
0.000538575
0.00435053
0.00199566
0.00401067
0.0017144
0.000803029
0.000657836
0.00327676
0.00227984
0.000428911
0.00301981
0.00409161
0.000755224
0.00486664
0.00280033
0.00070922
0.00202777
0.00461378
0.00386079
0.002616
0.00441519
0.00488085
0.00267104
0.00269176
0.00244258
0.00326689
0.00224906
0.00375086
0.00444642
0.00204142
0.00293308
0.00104156
0.00088889
0.00322159
0.00243
0.00138204
0.0066437
0.00498724
0.00113872
0.00199526
0.00060859
0.00399153
0.00276527
0.00590693
0.00414702
0.00282712
0.000495332
0.00496683
0.00488805
0.00374656
0.00108461
0.00275132
0.000619521
0.00306634
0.00167811
0.0039025
0.000865993
0.00451166
0.00149849
0.000719857
0.000701698
0.00320182
0.00690341
0.00529587
0.00284018
0.00703575
0.002784
0.0019385
0.00363725
0.00101622
0.00764634
0.000728824
0.0013589
0.00202251
0.00737233
0.000590594
0.00153219
0.00114962
0.00123619
0.00447869
0.000893689
0.000768682
0.00282449
0.00267549
0.00304683
0.00243641
0.00383535
0.00401484
0.000771673
0.00221315
0.00291807
0.0026675
0.00384848
0.00622491
0.000556468
0.000387834
0.000567311
0.00069963
0.00460537
0.00103298
0.000877094
0.000761431
0.0022347
0.000720142
0.000839392
0.00496237
0.00280571
0.00456396
0.00191489
0.00203881
0.00332455
0.00281733
0.00412137
0.00468169
0.000792365
0.000946548
0.000748673
0.00207489
0.00330863
0.00199851
0.00467888
0.0030508
0.00488421
0.00401685
0.00187779
0.00178227
0.000741077
0.000773148
0.0027714
0.00142901
0.00455789
0.00256956
0.00252359
0.00355761
0.000783664
0.000752646
0.000387198
0.00145052
0.00431739
0.000875546
0.00077522
0.00244269
0.00118968
0.00377677
0.00225756
0.000799393
0.00258231
0.00351416
0.00268446
0.00447304
0.00533763
0.00413738
0.00409726
0.00125204
0.000769398
0.0044619
0.000669253
0.000876843
0.000675563
0.00153626
0.00196065
0.000565459
0.000790373
0.000678677
0.0025144
0.0053292
0.00192412
0.000849588
0.00256868
0.00574645
0.00511379
0.00278825
0.00261985
0.000785243
0.000649234
0.00495368
0.00100363
0.0031049
0.000839225
0.00129181
0.00107247
0.00152773
0.000489316
0.00179087
0.00125233
0.00070469
0.000605265
0.000636077
0.000494604
0.000307619
0.000664325
0.0016716
0.00410517
0.00267311
0.00219256
0.00225753
0.00430633
0.000733623
0.000620737
0.00152843
0.00266796
0.000643364
0.00384809
0.00693252
0.00214623
0.000786013
0.0036214
0.00190913
0.000615001
0.00199714
0.00476833
0.00247467
0.000834273
0.00165095
0.000880479
0.00329896
0.00332123
0.00486431
0.000868888
0.000677546
0.000413299
0.000718081
0.000684468
0.00165932
0.000706611
0.000651819
0.000685445
0.00110402
0.000789555
0.00139173
0.000783457
0.00160789
0.000681013
0.00150028
0.000831651
0.00504128
0.0014494
0.00110781
0.000655423
0.000967914
0.000756137
0.00375157
0.000954798
0.00208757
0.0048062
0.00105572
0.00083373
0.00177953
0.000734981
0.000830306
0.00228089
0.000776913
0.00490172
0.00241056
0.000617602
0.000825585
0.000876732
0.00166445
0.000905541
0.00266984
0.00253544
0.0046013
0.0009759
0.00354824
0.00066474
0.000775373
0.000815492
0.00113956
0.00162666
0.00135775
0.00145996
0.000230925
0.00272127
0.00136951
0.00111725
0.00105828
0.00140097
0.000601402
0.00220285
0.0006047
0.00115643
0.000747077
0.00185693
0.000796341
0.00143733
0.000790319
0.000783945
0.000737013
0.00134374
0.000765811
0.0030334
0.00387147
0.00207729
0.00405227
0.000736012
0.000826858
0.00273104
0.000599327
0.00265572
0.00164802
0.00251995
0.00434445
0.000647818
0.00608697
0.000616931
0.000842139
0.00541637
0.00100066
0.00466913
0.000716645
0.000842481
0.00381327
0.00377398
0.000616223
0.00497474
0.00172351
0.00133455
0.00064103
0.00141495
0.000665304
0.000728391
0.000830298
0.0010685
0.000736238
0.00075414
0.00199799
0.00189617
0.00339263
0.000933885
0.000723684
0.00440223
0.00269871
0.000776455
0.000824056
0.0031848
0.00325995
0.00275369
0.00412906
0.00076588
0.00134476
0.000251283
0.00382058
0.0017735
0.00422909
0.0022845
0.00364839
0.00367228
0.000268141
0.00109579
0.000524517
0.000232565
0.00245988
0.000731577
0.00113112
0.00110498
0.000270669
0.0010841
0.000246771
0.000275082
0.00124262
0.000592393
0.00172977
0.00255005
0.0025523
0.00694416
0.000781339
0.00127048
0.00126937
0.00118117
0.00068703
0.000790072
0.00173099
0.000799733
0.00250249
0.00103171
0.000745765
0.00110721
0.00475278
0.0020521
0.000647797
0.00361892
0.00360123
0.00171996
0.00285525
0.000743382
0.00991369
0.00432289
0.00283792
0.000878531
0.0108741
0.000727714
0.0007281
0.00245188
0.000833021
0.00151753
0.0006524
0.0100577
0.00107354
0.000568849
0.00291705
0.00467125
0.00482215
0.000766505
0.000733295
0.00319678
0.00126584
0.0037704
0.000836639
0.00395856
0.00336358
0.00394593
0.00163973
0.00230081
0.00142588
0.000675765
0.00252892
0.00215879
0.0032278
0.00102832
0.000598325
0.00129416
0.00215094
0.00448031
0.000826424
0.00115514
0.000756374
0.000877932
0.000832557
0.000776426
0.000870697
0.000753243
0.00233574
0.00308166
0.00164549
0.000727206
0.00074173
0.000781063
0.0012177
0.00159978
0.00194525
0.00152744
0.00174751
0.00100288
0.000774949
0.00251441
0.000754021
0.000710015
0.00129729
0.000756198
0.000844175
0.000931988
0.00062841
0.00118683
0.000620294
0.0079918
0.000533022
0.000725361
0.00105672
0.00112588
0.000760592
0.00281084
0.00282359
0.000725863
0.000596941
0.00262223
0.00097817
0.00152635
0.00120338
0.00195312
0.000961291
0.00111237
0.00150696
0.0043557
0.00676246
0.00251748
0.000828576
0.000258116
0.00117952
0.00178153
0.00423014
0.00499304
0.000510912
0.000815182
0.00110302
0.00278627
0.000277873
0.00224551
0.00370961
0.00111306
0.00418867
0.003806
0.00117143
0.000669074
0.000939462
0.00441864
0.00195331
0.00113485
0.00080203
0.000766286
0.00269077
0.000836155
0.00119846
0.000537088
0.000783624
0.00361108
0.0010019
0.000278561
0.00140148
0.00081515
0.000484955
0.00113702
0.00251596
0.00240913
0.000676194
0.000941533
0.00372626
0.00632789
0.00290465
0.00275894
0.00198876
0.000795096
0.00238259
0.00125121
0.00190429
0.00453998
0.001955
0.00335597
0.00168858
0.00476051
0.00459113
0.00480101
0.00253339
0.00199444
0.00117657
0.00302506
0.000810103
0.00180381
0.0014777
0.00158937
0.00264537
0.0033424
0.00145868
0.00169599
0.00176692
0.000819935
0.000479586
0.000806691
0.00194722
0.000275642
0.00174053
0.00159015
0.000830971
0.00421983
0.00342983
0.00204703
0.000819538
0.00919295
0.0012412
0.00273884
0.00346769
0.00140019
0.000921064
0.000976888
0.00158735
0.000914668
0.00171301
0.000575941
0.00283172
0.000798405
0.000794196
0.00161968
0.00305396
0.00243056
0.00123858
0.00402204
0.00338188
0.000786203
0.000186072
0.00234814
0.0039806
0.00378587
0.00398139
0.00139353
0.000767756
0.0030339
0.00406427
0.000925551
0.00144372
0.00132679
0.00118757
0.00115355
0.00366092
0.000738849
0.00158832
0.00653964
0.00160694
0.00365582
0.000995897
0.000627779
0.00159983
0.00144138
0.000468798
0.00139614
0.00183567
0.00104589
0.00143335
0.000594097
0.00261717
0.000885609
0.000822547
0.00181895
0.00273351
0.00616583
0.000697393
0.0022362
0.0061586
0.0010837
0.000934615
0.00227536
0.00235777
0.000858893
0.00032589
0.000219493
0.000592122
0.00871501
0.000826167
0.00231522
0.00193214
0.00323365
0.00389375
0.00151231
0.000853699
0.000263881
0.000301256
0.000254579
0.000198944
0.00095674
0.000528251
0.000313299
0.000761031
0.000215964
0.000349054
0.000540788
0.000734365
0.000339796
0.000316847
0.000204916
0.000855694
0.000622951
0.00038
0.000643304
0.00052772
0.000203899
0.000317786
0.0001192
0.00034053
0.000653157
0.000594439
0.00042934
0.000285778
0.000538193
0.000969343
0.000538641
0.000387628
0.000228776
0.00026191
0.000343435
0.000227998
0.000813289
0.00038036
0.000207832
0.000539531
0.000267568
0.000509829
0.000870157
0.00121259
0.00136756
0.00378747
0.000384404
0.00178975
0.00245291
0.00500196
0.00246507
0.00163913
0.00068925
0.000839935
0.00209629
0.00289337
0.00183748
0.00805776
0.00358702
0.00559502
0.00370721
0.000739826
0.000746891
0.000667597
0.00174486
0.00059929
0.00238603
0.000879639
0.00252687
0.00242353
0.0014161
0.00476874
0.00282979
0.00187845
0.0043247
0.00407693
0.00897677
0.00254397
0.00326835
0.00234373
0.000746534
0.00304392
0.00334815
0.00192096
0.00204774
0.00219407
0.00103129
0.00360303
0.00117412
0.000790514
0.000842053
0.000848849
0.0104978
0.00205733
0.000590292
0.000406722
0.00212054
0.00255688
0.000616481
0.00360071
0.00186887
0.000418578
0.000205459
0.000572191
0.000802327
0.000344025
0.00069536
0.000209426
0.000385972
0.000617489
0.000232009
0.00107042
0.000528057
0.000197497
0.000888048
0.000567209
0.000678165
0.000536996
0.000312126
0.000276306
0.000238398
0.000239259
0.000896167
0.000277674
0.00265137
0.00361734
0.000452991
0.000841094
0.00171542
0.000848692
0.00195271
0.000546518
0.00267734
0.00245006
0.00314778
0.00278811
0.00199113
0.00187664
0.000164704
0.00182287
0.00182822
0.00264377
0.00513314
0.00482383
0.00160794
0.00052646
0.00173472
0.00160712
0.00131944
0.00170708
0.000879749
0.00308988
0.00156688
0.00202537
0.000780497
0.000984471
0.00119962
0.00222374
0.002677
0.000991047
0.0070993
0.00036515
0.00989049
0.00122669
0.000727404
0.000749342
0.0012418
0.000751608
0.00107355
0.00326712
0.00157111
0.00659978
0.000834641
0.00185681
0.000655633
0.00142296
0.00162613
0.00499125
0.00022991
0.000772316
0.0009809
0.0020977
0.00276043
0.000699435
0.000673363
0.00432457
0.0032046
0.00184908
0.000832686
0.00179481
0.000426348
0.00143106
0.00287158
0.000590752
0.00227919
0.000378575
0.000134541
0.000519797
0.00925973
0.00541878
0.000796977
0.0024673
0.00379915
0.000706074
0.00193444
0.00323606
0.00195608
0.00199476
0.00442746
0.00158245
0.0058109
0.000701494
0.00279339
0.00166438
0.00194436
0.000710058
0.00110832
0.00111262
0.00238619
0.000370126
0.00078172
0.000760023
0.00205271
0.00392178
0.0020362
0.00201385
0.00756494
0.00321452
0.00083062
0.0037405
0.000643963
0.00193315
0.00183371
0.0013101
0.00349516
0.00247589
0.00257763
0.0019855
0.00259211
0.00639435
0.00144498
0.00296543
0.00271022
0.00235667
0.000927643
0.00129001
0.00103787
0.00471501
0.00112106
0.00156707
0.00372501
0.00351001
0.00144347
0.00382987
0.00453874
0.00485663
0.00337726
0.00388064
0.00218534
0.00074112
0.000833952
0.00235946
0.00320011
0.000938043
0.000751329
0.00270021
0.00408294
0.00403821
0.0040379
0.00395585
0.00404491
0.00434275
0.00413329
0.00131489
0.0041717
0.00428545
0.00457699
0.00435339
0.00418834
0.00417131
0.0038689
0.00423793
0.00352931
0.00124212
0.00125379
0.000825174
0.00417901
0.00124701
0.000781627
0.000774546
0.00152194
0.000167729
0.000566815
0.00365617
0.00449727
0.00319434
0.00169144
0.00206592
0.00481502
0.0044667
0.00259403
0.0017288
0.00133097
0.00152593
0.000997415
0.00191774
0.00276801
0.00145014
0.00148515
0.00182064
0.00338389
0.00276749
0.00154419
0.000945237
0.00264288
0.00129191
0.000700139
0.00255407
0.000249363
0.002481
0.00141777
0.00128159
0.00136705
0.00091746
0.00154376
0.00251106
0.00180606
0.00155116
0.00183967
0.00123953
0.00245875
0.0109992
0.00154254
0.00257019
0.00241255
0.00163604
0.00938244
0.000725781
0.0021564
0.00844926
0.00312752
0.00280349
0.00157313
0.00135094
0.00302875
0.00984018
0.00303077
0.00185848
0.00217476
0.00255672
0.00262723
0.00163457
0.00593881
0.00181256
0.00105935
0.00439831
0.00143867
0.00215816
0.000629727
0.00159896
0.00274366
0.0041503
0.00230049
0.00556828
0.00857478
0.00227919
0.00991816
0.00108414
0.00446936
0.00251956
0.00074075
0.00285478
0.0015992
0.00526406
0.00285433
0.00493189
0.00081577
0.00736821
0.00498162
0.00365793
0.00148199
0.00604432
0.0026493
0.00300469
0.0042527
0.00391573
0.00171891
0.00559061
0.00384394
0.00457128
0.00416838
0.00421254
0.00117901
0.00277822
0.00055682
0.00188326
0.00321651
0.000997641
0.000986105
0.00162092
0.00116069
0.00252116
0.000663688
0.00548334
0.000803315
0.00308865
0.00184999
0.00149523
0.00284089
0.00209219
0.00129523
0.000649526
0.00152191
0.0013727
0.00117113
0.00259352
0.0012182
0.00272283
0.00429305
0.00395932
0.000579962
0.00323489
0.00313354
0.00218412
0.00210334
0.000564657
0.00124852
0.0006199
0.00348966
0.000697412
0.00204959
0.00436449
0.00572438
0.00159087
0.00151752
0.00181604
0.00393662
0.0019529
0.00242515
0.00131326
0.00260694
0.00224997
0.00314664
0.000873585
0.00297827
0.00142982
0.00419077
0.00273236
0.00159381
0.00342735
0.00133142
0.00335096
0.00252706
0.000831269
0.00236693
0.00181483
0.00177873
0.00325788
0.00307579
0.00394331
0.00272842
0.000362999
0.00171512
0.0025245
0.0019676
0.00207272
0.00216615
0.00242921
0.00241841
0.00229636
0.00287766
0.00242697
0.00152752
0.000606036
0.0025613
0.0019654
0.00111695
0.000650649
0.0024824
0.00097575
0.000208758
0.0041181
0.00176737
0.00570637
0.00141901
0.00174902
0.00127979
0.00214806
0.0021775
0.00659535
0.00385809
0.00255205
0.00406165
0.00149428
0.000573874
0.00398834
0.00141934
0.00249971
0.000273156
0.0017155
0.000240162
0.00419303
0.00114727
0.00225299
0.00283765
0.00248336
0.0038473
0.00239145
0.000905456
0.000640488
0.00616156
0.00314376
0.00394026
0.00337306
0.0020281
0.00232118
0.000828051
0.000738547
0.00508598
0.00385934
0.00163111
0.00653974
0.00327201
0.00346966
0.0038536
0.000787304
0.0041146
0.000819644
0.00208521
0.0022024
0.00430848
0.000816194
0.00478991
0.000854739
0.00508367
0.00161455
0.00186586
0.00235321
0.00210571
0.000917437
0.000694487
0.000538992
0.000775413
0.00150258
0.00701334
0.00293126
0.000593993
0.00400043
0.00426467
0.00237903
0.000725371
0.00145579
0.00100288
0.00358526
0.00379633
0.00409746
0.00488603
0.00124403
0.00117484
0.0021263
0.00076819
0.0048872
0.00465036
0.00137675
0.00116883
0.00452069
0.00372839
0.00136577
0.00231289
0.00242809
0.00420888
0.00347737
0.00359382
0.0040595
0.00255456
0.00198691
0.00343277
0.00508219
0.00169257
0.00218107
0.00191454
0.000833432
0.000770234
0.00491253
0.00458568
0.00131987
0.00736613
0.00365167
0.00391641
0.00543341
0.00468237
0.00331414
0.000479895
0.00168566
0.00056724
0.00415606
0.00229169
0.00118351
0.00704313
0.00080003
0.000788145
0.010641
0.000849791
0.00296518
0.00406875
0.0031438
0.00250226
0.00209968
0.00184367
0.00852106
0.00517132
0.00124869
0.00250572
0.00264274
0.00157945
0.00189537
0.000741774
0.000635972
0.000525304
0.000606621
0.000616808
0.00227984
0.00228543
0.000747945
0.000860635
0.00205966
0.00363293
0.0029849
0.00069261
0.0101428
0.0101849
0.00187707
0.00120136
0.00482623
0.00457683
0.00366385
0.000484928
0.000567882
0.00385844
0.0022396
0.00176426
0.00212015
0.00695944
0.00387933
0.00122811
0.0029042
0.0111126
0.00312262
0.00296639
0.000766481
0.00133959
0.000453188
0.00083718
0.00241933
0.00265053
0.0025444
0.00230122
0.00434413
0.00526765
0.00228683
0.00285434
0.0020085
0.00457234
0.0047561
0.00451363
0.00447664
0.00352031
0.00218027
0.00366914
0.0021533
0.00113975
0.0015823
0.00547197
0.0047435
0.00527493
0.00269618
0.0024421
0.00218797
0.00241413
0.00212539
0.00152686
0.00245871
0.00185061
0.000721332
0.000833914
0.00224817
0.00205919
0.00200695
0.00553652
0.00518831
0.00114
0.0020843
0.00275131
0.00251175
0.00153815
0.00177222
0.000511504
0.000507444
0.000505944
0.000364146
0.00142064
0.000741532
0.00659698
0.00253499
0.000792422
0.00080491
0.00330299
0.00152551
0.00155133
0.00193325
0.00731822
0.00521209
0.00485636
0.00402792
0.00116265
0.00139268
0.00166337
0.00282334
0.00024874
0.000677396
0.00197333
0.00155939
0.00456744
0.00264523
0.000747993
0.000931327
0.00601077
0.00293075
0.0016226
0.00897665
0.0019233
0.000862536
0.00272132
0.00281843
0.00265609
0.00558739
0.00156813
0.00226501
0.00172572
0.00167822
0.00443821
0.00579184
0.00318937
0.00186474
0.00178843
0.00140143
0.00413423
0.00274672
0.00083568
0.000775223
0.000727576
0.000569516
0.00159594
0.001547
0.00205924
0.000810061
0.00155815
0.00202546
0.0024006
0.00172571
0.00116874
0.00183537
0.00137754
0.00152367
0.000764579
0.00220495
0.0037437
0.0017707
0.00269219
0.00476361
0.00177795
0.00392428
0.00293439
0.00190105
0.00914515
0.00222234
0.00504436
0.000851835
0.000547833
0.00336291
0.00341744
0.000597219
0.000241197
0.0078387
0.00280154
0.00230444
0.0024567
0.00408269
0.00399388
0.000796169
0.00468991
0.00486878
0.000910832
0.0017305
0.00210143
0.00223609
0.00218581
0.000607565
0.000961156
0.00245146
0.000819191
0.00419361
0.00186709
0.00057667
0.00942856
0.0027088
0.00162093
0.00815982
0.00175937
0.00250246
0.00263125
0.000752874
0.00107973
0.0017018
0.00119524
0.00453563
0.0046365
0.00214981
0.00404501
0.00219345
0.00158837
0.00349749
0.00243928
0.00423853
0.000872886
0.00187489
0.00272916
0.000999675
0.00196015
0.00329205
0.00359308
0.00178238
0.00347524
0.0058087
0.00117058
0.00206827
0.00302968
0.00505598
0.00430985
0.0031077
0.00220282
0.0044055
0.00104039
0.000757785
0.00166979
0.00493021
0.00686795
0.00365821
0.00150492
0.00138822
0.000599499
0.00750956
0.000828082
0.00240948
0.0102956
0.00506871
0.00602413
0.00213395
0.00434922
0.0040054
0.00457593
0.00198495
0.00160403
0.00267753
0.000611727
0.000799573
0.00318566
0.000435229
0.00218377
0.00442752
0.00312244
0.00452937
0.00465121
0.00403624
0.00199048
0.00290466
0.00141617
0.0087512
0.00419508
0.00179261
0.00773144
0.000745969
0.00192812
0.00166483
0.00993234
0.00148579
0.00705937
0.00365095
0.00162209
0.00242385
0.00275732
0.00205479
0.000852064
0.00484794
0.000703336
0.00163873
0.00111652
0.00131314
0.00265672
0.00343788
0.00212393
0.00186418
0.00105018
0.00370764
0.0044555
0.00440804
0.000468153
0.00897604
0.00147623
0.00248526
0.00332478
0.000716954
0.00299978
0.00361694
0.00181663
0.00489384
0.00236568
0.00403355
0.00873343
0.00304632
0.00466044
0.00248107
0.0015571
0.00113275
0.000613878
0.00300023
0.00405248
0.00244002
0.00241098
0.00404256
0.00423033
0.00111109
0.00106748
0.00222125
0.00430957
0.000798108
0.00504732
0.0025637
0.00195118
0.000560505
0.00266125
0.000901954
0.00489659
0.00308013
0.00464145
0.00458303
0.00210563
0.0017885
0.00690879
0.0028907
0.000958157
0.0046098
0.00206618
0.00177155
0.000499404
0.000798981
0.00470363
0.00171532
0.00426827
0.00646153
0.000577225
0.00204068
0.000788874
0.00421552
0.00454184
0.00259094
0.00391642
0.0023038
0.0018258
0.000848193
0.000789593
0.000778829
0.00153987
0.000587514
0.000881449
0.00254757
0.00577967
0.0012204
0.00367549
0.00495584
0.000957772
0.00455846
0.00364018
0.00345372
0.000744723
0.0020028
0.00371912
0.00047453
0.000314075
0.000356858
0.00229712
0.00194712
0.00240581
0.00303277
0.00263881
0.00989323
0.00477366
0.00257863
0.00283494
0.0046637
0.00391621
0.00275527
0.00375692
0.000913413
0.00462302
0.00115938
0.00182092
0.000586569
0.000917935
0.00135151
0.00242965
0.00204193
0.00257881
0.00208609
0.00444559
0.00189812
0.00201291
0.00175611
0.000403707
0.00223768
0.0050677
0.00186325
0.00371028
0.00398252
0.00269519
0.00130389
0.00201213
0.000495253
0.00102666
0.00351566
0.00121441
0.00190819
0.00250915
0.00109567
0.0023028
0.00738824
0.00298268
0.00194424
0.000842176
0.00949021
0.000528778
0.00248497
0.00214753
0.0063197
0.00266903
0.00216497
0.00144531
0.00456014
0.00450398
0.000795047
0.000889666
0.00250622
0.0052417
0.0035695
0.0025444
0.00205383
0.00482453
0.00437042
0.000889962
0.00235173
0.00428791
0.00238699
0.00351175
0.0022972
0.00212194
0.000748647
0.00302251
0.00177873
0.00229046
0.000753919
0.00152789
0.00360544
0.0016215
0.000730053
0.00201436
0.00190135
0.00193764
0.00211599
0.000684793
0.00322367
0.00289058
0.00257156
0.000732879
0.00251438
0.0021699
0.00200923
0.00381864
0.00214809
0.0011134
0.00252278
0.000573917
0.000949884
0.00160892
0.00352838
0.00182993
0.000702965
0.00163373
0.00256933
0.000920396
0.00155338
0.00391724
0.000929556
0.00500798
0.00188101
0.000545517
0.000911681
0.00265653
0.00223349
0.000852937
0.00155604
0.00059771
0.00283519
0.00110885
0.000726852
0.0011056
0.00175732
0.000804612
0.00621781
0.00133344
0.00297325
0.00192042
0.00258909
0.00165256
0.00277397
0.00086399
0.000359757
0.000705126
0.00210574
0.00172466
0.00231985
0.00420328
0.00149993
0.00159871
0.00108837
0.00189395
0.000805435
0.00260183
0.00222705
0.00176517
0.00128386
0.00176437
0.000502715
0.000982301
0.000739002
0.000725726
0.0047839
0.00186575
0.00271489
0.00175158
0.00042623
0.0019904
0.000681594
0.00117892
0.00310171
0.00995083
0.00444687
0.00186052
0.0102861
0.000866619
0.00300576
0.00170372
0.00441945
0.00172299
0.010162
0.00167206
0.0025706
0.000708424
0.00080655
0.0010408
0.00116584
0.00198293
0.00173174
0.00171152
0.00333453
0.00204284
0.0024605
0.000953093
0.00342713
0.00174055
0.00359305
0.00410523
0.0010052
0.00176305
0.00115285
0.00188544
0.00153356
0.00314966
0.00303047
0.002857
0.0017817
0.00204844
0.00177547
0.00501647
0.001163
0.000684819
0.00312155
0.000791015
0.000866732
0.00317797
0.00139714
0.00232625
0.00160668
0.00502083
0.00327289
0.00125146
0.00250381
0.000774205
0.00118662
0.00293065
0.00194677
0.00366844
0.00350129
0.00109389
0.00160272
0.000820455
0.000841107
0.00286687
0.00347506
0.00253354
0.000704054
0.00111352
0.00163945
0.00112493
0.0028708
0.000666161
0.000813517
0.000826387
0.000307799
0.000926349
0.000865504
0.00301277
0.00286895
0.000827595
0.000513501