/*--------------------------------*- C++ -*----------------------------------*\
| =========                 |                                                 |
| \\      /  F ield         | OpenFOAM: The Open Source CFD Toolbox           |
|  \\    /   O peration     | Version:  v1912                                 |
|   \\  /    A nd           | Website:  www.openfoam.com                      |
|    \\/     M anipulation  |                                                 |
\*---------------------------------------------------------------------------*/
FoamFile
{
    version     2.0;
    format      ascii;
    class       volScalarField;
    location    "0.28";
    object      p;
}
// * * * * * * * * * * * * * * * * * * * * * * * * * * * * * * * * * * * * * //

dimensions      [0 2 -2 0 0 0 0];


internalField   nonuniform List<scalar> 
5794
(
94.0836
90.8449
89.2092
90.6057
89.0146
90.283
78.6721
77.6489
89.1341
86.1954
121.437
88.9078
84.2642
86.411
92.4891
90.121
41.6106
89.344
92.1318
91.2889
87.7919
91.479
83.2663
91.28
81.2786
43.238
44.5577
93.0185
85.0467
93.5151
86.962
89.7558
100.196
91.677
77.0915
81.3782
94.7081
89.4308
85.3377
87.38
84.3934
87.9869
112.588
90.1748
91.3398
98.8247
90.1807
82.7147
86.0321
89.7997
90.3134
78.435
85.7397
89.1885
92.3384
101.626
91.0814
84.9562
112.767
38.6844
99.9076
91.7397
82.5578
89.6035
98.3401
91.0648
91.1686
92.7141
89.2647
92.0161
77.8524
91.4115
19.2828
90.5756
89.5956
94.1475
92.4151
49.1722
89.7902
91.1202
91.1148
91.2905
85.9704
85.2018
89.9121
89.0828
87.9231
110.035
89.9765
85.1607
108.845
90.632
86.1791
86.1251
89.0437
77.2958
104.466
87.7632
91.0286
100.811
76.6093
89.639
112.859
87.4329
94.936
87.5031
91.8582
120.85
76.3791
89.8208
92.7161
92.4755
69.0154
91.7524
89.244
84.313
94.2195
90.8125
99.0695
87.7332
89.8875
89.7414
89.3289
94.6053
90.9799
120.128
88.2233
90.0793
79.8181
121.087
89.7795
84.0457
90.1768
53.708
83.7373
92.775
112.83
91.84
90.703
92.9857
88.0142
94.1745
91.7525
94.5521
90.7334
50.2698
89.3485
110.719
89.0855
95.5412
117.218
91.6697
85.1619
90.2827
46.5138
90.456
85.6663
88.5508
101.629
89.8728
92.8622
77.4806
93.1756
82.0635
76.4324
77.8458
81.1882
75.606
92.9862
93.0974
93.4131
77.9463
80.6056
76.2481
91.2849
81.7367
93.7231
80.477
92.4799
82.3374
88.9437
90.1846
83.6054
100.188
82.2634
45.4853
89.7959
102.304
85.9062
89.3709
121.464
89.7233
98.8124
85.9038
85.5599
90.0284
78.1252
93.9814
92.3623
111.045
80.8688
77.6139
84.4501
84.4175
90.1862
99.2227
90.1481
121.231
78.6427
86.9592
91.5676
93.7524
81.4505
77.5155
91.3565
78.7437
82.4101
90.9319
121.506
92.9945
93.8088
81.4831
111.47
86.9541
107.398
37.9115
88.3939
87.4118
88.5146
94.0182
79.8623
74.1675
90.0797
76.743
88.8601
52.5675
66.1628
115.598
82.3968
92.3708
91.1078
122.066
90.2555
90.2817
89.4562
92.572
91.4895
88.5904
106.293
88.2985
91.1266
90.6976
43.8017
90.7364
114.991
80.7796
111.776
111.701
121.508
91.3857
113.399
81.1729
76.6134
91.8935
82.851
87.9223
94.1111
119.534
92.1865
99.6957
90.0675
86.014
83.9743
76.5268
95.0262
94.03
88.5654
88.2872
92.3373
82.4009
94.0529
99.9571
82.3111
88.1556
87.1263
87.3563
91.1707
90.3009
78.8921
85.6178
81.5015
74.5348
90.6863
89.8152
108.053
51.4403
79.9767
88.2943
84.1452
91.9592
91.1773
76.052
90.9815
89.6128
88.8034
117.796
92.3623
89.2285
99.3304
89.9094
88.3727
101.706
90.0145
91.8987
94.4483
96.3429
120.83
92.2763
76.3092
87.7469
79.6467
73.9983
90.8551
88.4836
90.2419
83.4323
90.2065
89.3869
85.2932
121.552
78.799
113.943
89.4444
101.704
89.8181
85.8784
87.4633
93.2064
86.0619
102.246
91.6938
79.0232
87.3676
82.96
94.276
85.1514
104.407
90.8668
78.2372
89.1573
84.3284
51.2961
98.1575
89.8155
83.7825
43.5714
92.7615
79.7244
79.7211
78.7797
121.058
88.7449
113.859
79.4075
76.0827
88.9299
77.2068
99.9467
90.4148
84.0069
92.2955
91.6819
89.2915
90.8789
120.861
76.3365
102.5
89.7593
86.9599
92.3088
92.5352
92.3816
94.8583
81.6056
78.0472
92.4149
83.0293
77.9614
74.7763
79.6209
74.9651
83.3275
91.9518
92.6426
79.9589
75.8039
90.2174
89.0485
92.6193
82.4835
91.5658
80.074
48.1066
92.6124
92.7389
117.078
91.9406
90.5267
91.7652
107.97
87.3665
90.1595
121.375
78.3488
99.898
90.3418
86.2742
89.1404
76.6064
105.085
91.0106
87.8691
121.237
92.0521
81.8313
77.9635
92.5302
91.5139
91.1857
91.676
80.1468
94.9054
95.5086
71.0722
91.748
94.6807
90.088
85.2673
81.7613
78.0793
92.7877
94.4771
83.5184
89.7651
88.9177
83.6813
88.9724
90.6744
87.2153
89.1666
88.256
91.2189
76.8515
91.311
87.5127
91.9341
102.367
79.2417
89.0768
87.3107
91.3905
91.2269
85.4352
92.0704
101.758
121.034
46.0546
87.5853
121.396
89.9387
91.9394
72.8318
121.297
88.5744
85.9615
102.894
62.8534
92.9433
91.3507
91.1749
85.7295
91.4886
87.1488
88.2074
120.959
120.909
93.5317
89.4047
50.965
91.0216
91.1175
90.6707
90.5421
88.0134
92.1794
92.9573
93.5264
92.3446
90.6557
116.417
84.7864
61.5911
96.5962
81.8586
92.4139
91.2135
91.279
110.659
121.414
91.0798
76.3542
92.3668
92.3514
92.0405
92.0196
90.124
84.6706
92.0723
93.696
48.0377
90.6764
91.6756
88.2855
87.5806
121.219
90.5383
92.311
90.8966
91.3254
91.0993
88.8687
92.003
45.7397
92.0991
89.1576
87.8583
94.6192
111.097
121.003
112.607
91.3686
71.5707
91.2038
87.2551
90.2332
90.345
95.2599
94.7896
91.9474
90.0891
89.4242
92.2619
92.8333
90.1077
90.21
92.6024
90.0974
91.2008
91.4233
90.8137
23.0908
93.5719
118.641
91.5597
87.8893
90.7405
90.2531
90.2282
89.9435
91.6452
102.687
78.524
74.7071
90.4595
46.8942
92.3093
86.8338
85.4805
88.3351
81.3007
85.8399
90.6188
120.13
50.0459
78.4426
105.61
91.1971
87.6798
91.0809
103.945
91.2649
90.2874
91.8306
83.3267
90.0467
98.0084
92.2998
94.1382
91.292
88.2786
91.5202
103.559
89.0275
84.0589
91.9718
121.34
53.1505
86.7225
92.3173
86.1899
85.0999
80.6032
91.2608
90.2381
88.5181
82.2548
115.942
119.982
109.885
89.875
91.3928
121.164
120.551
120.977
91.6918
90.4018
90.7289
90.8223
123.49
91.6292
93.2982
91.0653
90.9158
90.4048
91.8397
87.3175
66.9675
94.2561
88.8307
91.7744
90.3384
113.378
121.342
90.9869
111.837
84.0268
88.7074
101.413
91.6937
92.2844
90.1347
91.6924
91.9974
83.546
88.2099
116.833
47.4772
90.0516
41.9749
88.7563
92.3249
87.2135
91.5544
87.2534
91.1295
89.4642
81.2627
87.2632
91.4037
99.8426
115.651
88.8915
40.0806
83.5481
90.8639
88.6116
83.3017
90.0166
90.4813
92.1884
90.9244
121.645
91.479
90.5764
91.4534
111.422
89.8455
92.2772
92.2929
92.1013
86.9532
98.0197
72.2499
88.9649
88.7084
90.1651
120.828
90.9942
91.3602
93.5955
85.8775
82.8655
91.9184
111.785
90.8025
115.849
93.0564
87.6935
91.7048
122.435
113.014
88.8221
89.0351
83.2496
121.29
92.4204
96.1012
43.9109
119.217
85.6078
121.373
67.5345
111.483
91.8034
82.8527
88.7065
109.914
95.1362
121.884
97.4351
88.9676
70.0102
94.9702
117.382
89.1891
88.6169
42.1511
121.348
90.7714
86.9159
105.864
92.5364
90.663
84.1812
89.8749
87.7139
91.0282
101.445
90.0783
94.4745
90.1992
90.9642
91.5057
91.9872
89.3306
84.0719
96.0385
88.4907
89.0912
104.806
90.3824
68.5062
87.168
89.0284
82.721
86.7742
91.3568
106.674
89.3068
87.7762
91.2717
105.994
90.722
91.8983
89.4567
92.3241
90.715
92.6744
90.5557
89.9869
121.188
46.2508
88.4019
91.2423
91.3783
86.6908
91.1134
120.893
84.3879
90.6534
90.6236
115.675
102.649
90.5938
86.0523
90.7267
91.144
68.4263
91.2354
59.5
92.9996
120.835
90.7124
91.3436
90.2933
91.1572
120.955
122.273
115.651
104.068
89.1763
87.9618
92.0214
103.435
93.4999
92.5133
88.5767
103.008
121.502
91.5676
90.8985
92.7049
109.482
51.7467
91.8291
95.3518
91.9112
88.1931
87.3841
91.0649
87.6676
102.848
94.107
92.1805
90.9728
87.8178
88.1199
39.7263
91.5216
91.6753
85.6802
91.942
121.414
90.7805
95.9536
92.0306
87.756
101.572
94.3839
74.9945
89.0114
83.3129
88.0278
83.2734
119.172
119.528
48.602
90.1998
92.0368
92.2603
101.66
90.9421
90.3234
88.9696
99.1366
89.2095
76.5729
121.349
91.6744
89.3592
90.7184
93.8435
118.371
90.1118
54.0869
92.128
92.3304
59.5336
104.5
93.7732
89.7861
89.0733
121.208
111.311
91.2797
92.2342
82.3839
120.065
90.1697
94.4355
119.393
86.7929
88.4078
83.9276
90.5634
94.5611
89.6587
91.2095
91.217
90.5137
91.6402
92.3286
91.7918
90.3961
116.642
91.506
94.2982
91.1195
87.8456
83.9234
86.3031
92.1097
121.335
121.182
59.3736
90.3416
85.6199
94.6326
90.6832
55.9091
100.354
86.2137
113.236
87.9469
90.9572
88.671
90.1012
81.6541
100.705
87.4324
87.9742
88.1667
89.3372
92.2402
113.971
89.9556
91.7318
106.468
90.8655
87.9537
95.4229
108.329
91.6785
90.388
89.5992
91.8155
78.5026
121.277
106.056
94.5358
91.0437
71.6475
91.1973
91.1711
78.2875
44.032
94.8296
90.4679
98.4654
89.0151
88.2265
89.38
91.8861
82.8255
88.3268
91.4515
91.5277
91.7159
91.2856
91.47
91.9268
92.275
94.2885
90.4611
95.2032
92.3806
91.4039
106.351
94.75
78.3634
88.8213
81.0346
90.8628
120.938
96.9253
87.0199
92.4202
88.0491
121.276
92.2673
94.4563
91.7078
91.2941
94.4662
66.5392
93.7485
82.6515
100.728
92.0711
95.1291
89.1466
89.7386
107.347
74.0261
88.3337
99.5652
90.2921
91.1268
90.8482
90.3353
99.2181
102.898
44.8777
70.3574
91.6145
90.9488
88.7996
87.6956
90.8523
99.6262
111.122
91.8339
91.4654
91.2849
87.2497
94.7528
94.1648
93.1873
89.8761
94.3784
94.9641
95.8712
94.8982
90.8911
93.4128
90.0714
92.6992
121.401
91.9964
94.4141
92.0613
92.0159
87.4779
91.82
88.4235
121.179
92.0443
121.082
91.3512
96.276
120.78
92.1104
89.1185
106.625
90.7876
87.7534
88.8406
92.1096
90.2481
89.7445
90.8575
91.4343
88.3747
92.2959
90.9981
93.7214
92.2783
92.2858
91.422
76.9526
81.0295
90.7659
102.311
100.267
83.3194
89.0777
92.2859
92.0094
88.2136
87.8698
84.8583
89.3681
92.2856
113.14
92.0393
86.4454
92.218
121.092
92.2747
82.3026
89.8538
90.9879
95.3974
87.8883
90.7073
88.5821
93.3802
94.3145
94.7814
91.7611
95.2228
90.8521
91.2427
86.5552
91.3472
91.1773
87.8282
91.8191
121.295
93.301
52.0184
92.3859
90.7294
91.6079
94.556
88.8889
98.342
91.9257
90.0998
93.6919
100.066
81.9504
91.3388
91.137
89.0476
88.9155
85.5715
89.4604
94.9047
89.1457
87.7549
117.491
110.481
85.9891
99.2708
98.3015
86.0728
87.4718
80.3086
92.0933
31.5122
94.8598
92.0606
92.6939
121.34
121.612
91.9058
90.4367
91.8982
83.1356
89.5468
91.2979
89.3968
89.6613
83.8395
87.9024
86.3409
91.6553
91.2913
88.3785
88.3788
91.4184
91.9011
91.2373
84.6192
91.6004
84.0433
83.5114
89.8331
100.26
101.137
95.5999
92.3171
94.4829
100.141
92.6295
88.2911
90.6833
101.737
97.2095
91.2126
91.6958
112.975
90.942
115.184
77.6527
76.8757
99.6614
88.5831
113.317
103.104
88.5583
82.9727
94.5192
108.986
92.1436
90.9468
91.0411
53.4596
92.0341
92.3231
86.1308
90.6227
91.9523
93.0333
87.0989
113.361
90.1535
90.2611
97.461
87.7472
91.855
92.3459
92.1454
88.724
81.0774
121.093
121.106
88.7497
94.5674
90.8444
90.5604
79.2641
89.6604
97.1273
122.308
112.539
95.1226
89.1982
91.5254
92.7729
89.8901
94.5121
77.605
74.5246
81.9819
92.3106
91.1185
72.1691
89.7998
51.0295
91.2524
91.2967
111.158
95.3559
93.6078
92.1738
93.8915
88.783
91.0916
92.0407
90.1047
91.4374
91.0643
85.0949
88.8212
92.6284
92.0575
87.4451
84.432
82.9472
78.9654
88.0511
116.367
93.9963
90.6573
90.9314
88.439
106.894
91.8552
87.6025
91.5837
90.1083
122.759
53.1507
88.479
85.8458
92.3796
83.2478
91.2008
91.9692
87.0801
86.3128
88.3296
89.906
84.692
91.3503
90.3937
91.2339
91.1666
94.3828
91.791
91.8591
91.6603
107.962
95.0751
122.563
121.915
93.3996
92.2402
86.0275
91.0079
123.068
89.141
80.6434
89.2252
91.7385
91.3189
90.8661
85.0689
90.9402
88.3848
92.3205
89.5575
91.7951
45.8037
88.4981
42.4508
49.2615
87.5914
94.2141
92.3562
85.018
87.8085
88.8982
90.5861
87.2409
90.4032
89.6953
99.1102
99.3755
87.7154
89.258
78.7715
90.9029
90.0874
91.2488
91.8568
121.372
90.2916
83.9173
92.3621
91.3022
91.6817
109.889
90.7108
87.792
85.4421
88.1937
81.0839
88.4526
87.7274
92.3683
94.4637
90.809
127.992
121.159
92.0016
45.5986
120.636
90.0613
86.2237
92.2463
98.771
92.3083
90.9106
91.0956
84.6719
10.4222
95.0689
88.7612
88.0381
110.991
53.2658
111.48
88.2067
91.5637
90.6648
91.4576
90.6081
88.1898
90.0004
91.2502
90.0206
90.5588
90.6412
89.9023
84.4092
91.4188
90.8245
90.6126
88.1389
90.0128
90.4234
84.2512
90.5265
91.2672
90.716
91.3171
90.7282
89.4082
87.4388
91.9722
90.6447
91.4177
85.2107
89.4483
91.151
91.4492
90.732
91.5414
90.5198
88.204
90.8265
90.6861
91.5655
91.351
88.368
87.4437
88.7104
83.9205
55.6145
91.779
89.5512
97.442
86.6321
90.8481
92.4038
92.1135
91.4189
92.395
88.4705
91.0117
48.6625
88.0454
86.1293
89.1937
92.3286
92.3214
91.3074
91.7444
89.705
84.2958
91.1161
89.1174
88.5392
90.5793
121.49
90.2591
92.0798
82.6094
73.2788
45.4415
92.2747
77.1048
74.5502
103.109
92.8291
88.2175
87.9653
88.7121
117.166
90.5993
89.2055
84.9402
90.1223
93.7218
92.9263
11.3169
92.199
90.7188
90.4762
86.9767
92.2403
90.6033
137.222
87.6675
91.0495
90.5809
90.1592
88.1515
91.446
90.0404
90.6007
91.3525
91.4423
90.6625
86.162
88.9113
91.3174
88.3235
91.7178
84.0638
90.2531
90.6762
90.4422
91.3739
91.52
88.0049
90.6306
98.4873
88.7808
121.992
105.985
89.6751
93.7051
92.6428
92.0677
116.984
91.1404
89.7027
126.554
91.8464
92.0492
91.7326
91.2271
115.093
87.1836
70.9766
87.063
92.2319
92.1355
90.8275
93.6785
91.1101
90.9372
94.8831
90.8249
91.0255
90.1473
90.5102
90.6193
91.5435
85.7873
86.7303
91.018
85.937
92.023
86.0383
91.7105
91.2866
92.2462
90.7457
91.5963
91.572
91.087
91.9927
86.1396
94.7568
89.4731
83.4271
86.8575
89.5948
78.0451
92.4206
94.5441
103.929
90.9792
119.154
89.0544
91.1219
96.8696
88.9801
89.5414
94.7011
92.1153
90.7007
88.1099
88.7657
91.7634
86.0728
90.2527
91.3428
92.2557
85.9846
87.3204
91.7414
89.526
90.343
90.6088
89.0248
86.0007
91.3007
88.3791
98.2586
92.134
86.8506
92.144
87.7135
86.6224
87.06
113.104
89.4015
82.1472
89.5298
90.4452
91.0287
91.1682
91.556
89.2271
87.7962
87.8283
114.084
87.6264
91.6699
94.3214
88.2651
116.267
115.562
88.2213
94.0239
88.8619
94.958
87.5452
104.418
88.1795
139.687
89.8575
84.9215
100.744
112.382
83.7444
88.7924
77.7674
125.523
84.1692
101.831
91.7632
128.994
77.3673
74.279
28.8665
89.2258
88.8509
85.5769
90.4193
91.022
84.5556
89.7577
91.5111
91.3134
88.2298
89.7373
86.2277
76.0915
73.3047
88.9363
75.0054
82.6341
92.0167
90.5389
92.7138
74.1528
72.6383
91.9711
72.7798
92.3539
93.4662
92.6098
83.8103
83.0433
89.2024
48.6839
81.1997
89.0873
88.4581
79.7488
91.7001
89.9257
73.3854
74.9984
88.4817
91.4582
91.3459
85.2747
73.9442
83.0509
80.4037
88.4478
80.0954
87.3677
89.2216
90.226
88.6053
117.351
88.7676
89.5092
90.4578
88.6374
91.4497
82.7538
91.4224
80.7874
90.5153
91.5937
85.9521
81.2345
85.4967
81.3788
86.7491
93.9224
105.575
93.8453
91.1811
90.2278
89.2602
104.302
76.8894
93.776
104.514
102.971
90.3548
78.0449
92.8959
92.8264
76.6191
100.409
107.367
93.696
88.7572
104.768
76.621
103.918
93.4492
93.9562
92.1083
89.885
88.3787
50.2361
93.8745
88.9287
77.1732
93.695
89.9784
93.1352
89.5187
102.719
99.8138
80.6215
50.3505
76.0473
91.6797
76.2111
93.6997
78.9694
80.738
92.8219
103.959
86.1183
49.9821
80.9332
78.8022
92.5717
75.9135
47.4461
90.8561
144.486
76.5881
89.9127
81.2747
78.4075
91.0551
79.4626
97.3845
89.7211
77.1852
47.9213
49.0783
88.565
81.2211
88.4098
87.6825
86.2632
91.6493
92.4574
86.9669
91.4872
88.2852
91.2973
121.218
81.1017
89.9656
89.6667
80.8228
85.7862
91.2054
89.4203
86.1871
88.3658
85.9579
88.4501
88.5361
91.1337
81.9157
75.8288
91.6163
88.0014
85.9549
85.8025
90.8506
90.4593
87.9484
80.416
89.3762
89.7269
91.4948
78.6151
89.704
96.6948
90.0306
81.7386
85.0762
89.5344
90.8861
90.7592
88.4114
88.6714
89.2398
88.6344
87.0184
86.4695
86.3177
47.5629
90.5202
85.8559
88.4829
90.9146
87.0439
91.0741
73.6588
90.6517
88.7439
90.8962
88.5857
88.5994
89.0012
90.0118
90.9012
89.9943
90.6317
88.9314
91.0041
90.7558
89.7711
91.4014
91.6409
94.9978
90.5713
89.4683
90.0163
91.0381
86.1002
88.3321
91.28
87.9553
91.2362
90.4648
89.7916
78.6326
96.4054
82.0381
87.0473
88.981
90.91
90.6584
121.311
82.1765
78.9609
75.5707
90.9365
92.5211
76.8343
90.9676
82.3271
90.8854
91.5496
90.7583
47.1218
113.441
90.1805
81.1637
84.52
93.6329
87.3883
90.9856
91.133
121.429
77.0919
75.2485
77.9826
92.47
87.0463
90.8586
90.8879
97.2941
90.3155
80.8403
121.298
82.9706
75.4941
76.228
72.9692
46.5975
113.283
90.3266
83.1149
73.172
73.2159
94.8707
89.4572
105.372
80.4143
82.0733
93.4072
85.8686
90.8121
90.7
89.7215
72.8417
109.94
121.298
83.6459
90.4464
47.1729
50.9063
89.9692
113.154
82.0466
89.3445
72.8659
76.6463
96.4684
95.7267
88.8028
81.2353
92.6429
89.6541
91.438
100.529
84.0418
108.91
75.0836
75.777
108.535
86.0839
87.1637
72.0961
72.5013
72.6037
72.0975
89.847
83.3926
72.4642
101.502
80.9691
93.2565
85.6458
91.0616
90.2823
91.1293
100.769
84.8359
121.268
88.8491
89.0562
90.8683
74.9895
75.1322
89.3192
89.7849
90.6026
50.3486
89.7473
96.0101
89.2433
93.0785
113.143
95.4937
91.2062
89.7334
76.7037
79.86
85.2034
89.6443
89.9354
94.1791
97.2442
88.9807
95.816
86.9379
88.9848
91.5528
87.3376
87.9597
91.7409
89.5535
89.1239
93.0715
84.0683
91.3017
90.127
89.7737
90.5449
87.2445
90.6442
95.0493
95.2
116.396
91.8374
93.1819
74.3458
75.8276
90.6569
90.6448
47.2064
89.5178
92.1781
86.9587
90.04
91.5996
86.1258
86.1953
95.0256
84.5285
89.271
89.4879
84.3606
90.4325
94.8088
90.792
90.358
90.8299
89.3721
72.4402
86.3337
86.731
89.3281
85.1204
75.2041
90.2405
78.2829
72.8665
98.3416
90.0001
123.506
90.7582
90.8573
85.9339
83.5137
73.8557
75.4777
81.8328
93.0348
86.2451
90.0525
89.6976
87.5017
90.4576
85.2038
91.3181
90.0408
90.6065
90.6493
90.7165
92.5878
105.302
85.8935
91.7463
88.1867
89.9041
89.3895
91.7177
86.485
85.7582
85.1697
85.7205
88.1491
95.9167
86.709
88.182
94.5025
91.6873
115.023
89.2413
89.6247
92.3709
121.166
91.4117
73.6337
76.9488
90.4269
85.5559
90.7645
87.6048
91.666
90.6223
87.1133
88.1854
77.1065
86.6212
91.126
91.1151
121.258
89.7318
90.1962
94.1898
92.139
95.9878
90.6414
90.4825
88.5286
86.0786
90.4604
94.731
90.8431
89.2588
79.9787
85.7031
91.3133
91.6593
87.8712
88.887
72.2111
85.9806
91.9797
113.08
113.811
91.7233
87.9642
89.0378
87.1428
113.448
88.4778
91.2564
89.0824
90.8304
114.637
87.2643
88.7605
84.6469
89.2785
86.5616
89.0912
90.2312
90.6379
73.8295
103.345
72.5401
93.158
89.6055
94.3099
122.118
89.6349
90.8115
90.3987
89.0523
79.1794
90.1545
90.4251
91.88
87.5251
88.8124
86.0047
71.9624
72.2269
94.4479
87.176
97.9904
89.5553
90.4524
88.3227
90.7002
83.9266
91.3563
90.1107
90.9325
85.2162
72.0223
87.5169
91.5444
93.5403
79.3028
82.4944
86.676
90.5452
91.9112
91.2099
90.3104
93.9329
90.8343
88.4579
74.0856
74.5046
91.6201
72.1433
97.1856
107.766
124.632
88.4169
72.568
90.6427
87.7226
88.6112
93.0858
88.6805
89.6005
89.3601
116.403
92.1382
105.194
86.7095
92.0583
88.7034
86.3275
72.3907
87.6892
101.718
73.0657
92.989
98.2161
102.55
105.118
93.3367
88.1997
88.3682
91.5117
91.2785
120.956
91.7495
88.9589
80.3192
91.762
51.225
91.0925
73.8467
77.1243
73.5317
90.0625
87.9482
77.1557
91.7637
91.3237
89.4797
91.9935
91.9369
80.2576
91.934
78.4796
83.2575
50.8932
87.7232
87.4438
107.273
91.4079
80.8334
90.9707
37.0485
99.4465
86.8163
90.5427
86.7955
90.9947
121.325
89.3544
89.1175
92.3859
129.796
87.9217
86.8716
101.426
91.9399
89.1732
92.223
91.0188
90.4441
90.1073
86.7532
88.8999
114.586
84.9606
73.1371
89.7221
91.452
92.4862
90.8085
90.2734
90.2965
90.1475
90.8444
133.723
88.2726
77.9016
89.2963
82.2686
90.567
88.3445
121.427
90.4202
88.8608
93.8395
90.6525
72.0893
121.968
90.2925
90.101
93.8815
97.0952
96.3557
89.6358
89.2953
86.0636
94.4984
84.6685
88.4538
91.5971
92.1859
86.6393
96.9099
76.4706
90.211
75.6753
80.3503
88.2088
87.3368
92.3742
88.6591
92.2139
79.3154
91.5015
92.1506
87.775
93.1973
76.5125
88.6026
95.0641
87.0415
91.9095
86.8623
97.509
83.1533
79.9033
88.6076
78.8627
85.6788
88.532
91.8814
93.7671
94.687
87.9922
91.4152
90.1424
79.2253
89.1564
85.9109
90.5768
82.6524
109.657
76.5384
83.8081
86.0308
98.4525
89.5848
87.5436
85.1488
90.807
91.817
89.0329
107.379
87.7727
88.7805
88.6308
83.7806
75.3017
87.8557
89.3754
84.6276
86.7409
91.1592
104.741
90.1398
97.1384
90.1729
85.0711
91.3602
90.0598
88.7713
92.0465
86.6274
95.1189
92.0788
97.9017
86.8906
87.6343
89.5529
89.985
89.5026
89.9146
92.0629
95.4141
94.5064
91.7399
85.5416
84.2523
91.2458
90.2719
130.295
104.259
88.1126
89.1503
96.5508
104.914
109.223
88.7999
91.5693
90.2961
85.8892
90.69
92.9249
92.7231
121.488
89.9016
91.3237
82.6429
90.4086
98.0454
91.2963
91.757
91.7012
76.0206
88.3924
86.3036
85.9645
84.725
47.8869
74.8562
92.1606
83.5505
90.887
84.1439
93.944
86.8406
97.5135
96.9314
112.714
87.2033
85.7912
85.0975
89.2818
86.3278
92.2459
86.561
90.312
86.6065
93.7088
90.6569
88.0914
89.2357
121.06
91.9375
88.2045
85.6897
90.5821
121.512
121.723
90.2746
90.6188
90.9713
90.8367
85.3805
86.4703
20.1173
91.8613
116.295
84.6879
91.8865
92.3755
89.9542
118.81
82.0783
86.5663
91.3357
90.3512
90.635
111.277
88.4247
80.0791
92.3103
86.8939
92.3759
91.6566
87.5316
89.9748
94.3533
121.312
98.8655
92.5573
91.4805
86.6868
88.6908
90.5125
90.0839
91.0304
91.3273
92.0801
91.0602
92.2812
95.7178
87.3767
114.529
91.0805
92.089
94.3313
88.452
43.0895
90.7091
88.1693
85.2689
91.2662
90.2653
101.691
91.3824
74.3723
84.2487
88.9148
89.4474
91.6248
90.7209
90.5804
91.6392
91.7694
85.2554
88.8099
90.4523
86.3996
90.1799
90.5767
87.4233
79.5712
89.7409
94.4306
87.0533
85.8426
91.046
94.3636
92.531
86.2638
90.0518
114.583
116.409
87.3959
92.3549
88.8529
91.152
93.3355
88.2346
87.6375
90.2754
90.5707
89.0348
96.4477
91.219
88.2473
87.8462
87.988
83.1407
92.2815
89.8624
91.5646
75.5944
107.503
90.7252
90.4564
90.1282
92.0456
89.7937
88.5917
88.5322
87.9432
86.7099
90.7927
93.2534
82.3139
96.8262
92.2911
90.544
91.6616
88.3836
87.8926
88.0602
90.2552
94.625
94.1514
91.3465
86.1928
96.8892
92.1983
87.0664
89.9348
92.3382
90.5531
90.5266
91.2688
91.0121
92.2576
92.3409
90.2257
90.765
91.0492
94.8632
84.9082
90.9348
91.2403
93.9147
88.3024
90.3722
88.9381
91.2822
90.0427
87.7518
91.1559
121.956
88.782
43.9404
89.9405
90.1901
84.6475
91.0849
89.2086
91.2554
90.6278
91.7914
91.0747
90.8449
94.5141
90.8718
114.317
91.9951
90.2472
90.7137
90.9377
112.939
90.9393
92.3435
90.616
91.0966
112.154
83.7467
77.136
89.1229
86.0516
120.755
93.7476
77.3375
91.2461
102.467
78.9228
89.6557
90.123
86.889
90.2179
90.3689
90.1018
91.0638
91.4756
89.9034
90.5054
87.782
88.6992
88.8743
90.9331
91.383
90.0958
90.2362
84.9459
90.863
92.3464
92.1363
89.266
89.3884
91.9443
91.9791
89.0227
92.2764
111.443
90.5226
91.8568
87.6598
41.0825
91.0641
117.801
91.5229
88.7002
89.5879
100.137
89.9497
90.366
75.2106
92.4058
91.118
89.1651
91.6112
113.892
87.1927
86.6736
90.738
93.2643
123.935
89.1327
81.3072
91.4149
87.1692
89.7991
90.2764
90.0722
91.938
85.5421
91.1633
90.5534
91.3876
87.539
90.8626
88.9819
88.5871
84.7967
77.8744
73.4297
79.3041
56.2119
94.6112
103.167
87.5685
87.7626
121.106
66.6634
107.506
95.3616
84.7978
91.1071
90.5481
91.232
98.5795
85.7418
91.0891
91.1233
92.3968
92.9101
115.346
124.358
79.8994
106.832
94.0234
121.176
91.3693
89.7775
85.9574
88.4993
82.5268
89.8609
106.172
102.672
90.6367
90.8003
92.004
121.858
88.3032
105.876
92.4463
85.9112
79.6621
73.2414
95.9878
90.8823
91.3973
86.5833
90.1169
91.8123
89.2406
88.3609
86.2815
89.9484
83.4682
87.5658
87.1984
95.1428
37.2762
121.314
92.0734
91.784
92.1494
92.4667
89.8656
95.6026
89.0742
89.9379
90.2063
87.1119
85.8826
105.16
87.4424
89.913
103.174
92.7892
90.942
91.6928
94.9631
32.2148
80.3794
89.6489
97.6585
88.8457
90.4473
96.0709
94.3064
90.6764
90.4341
92.7766
85.9609
121.664
92.2826
89.7722
92.2588
95.5861
41.0309
87.3661
88.0699
87.9686
93.385
79.1043
80.9372
92.2978
104.425
86.3449
92.2213
90.7418
112.788
88.7891
97.8843
86.9783
92.4278
90.6474
91.3111
92.307
92.1872
91.57
90.7213
103.847
89.6572
103.182
83.4187
89.3416
87.6752
91.2082
121.112
91.0885
92.5835
97.6482
109.743
93.4281
86.4442
90.7785
90.5464
90.3746
88.2747
120.564
90.0705
88.1642
90.575
86.7232
88.5841
119.848
121.183
91.8207
81.2197
92.0659
92.7157
90.2388
90.7637
90.7196
88.6308
91.8762
90.9094
92.0248
91.7574
90.1754
78.1028
90.1541
120.964
84.7565
84.8817
87.7823
89.2864
90.1286
114.371
88.0343
90.215
112.954
91.1056
109.659
103.379
92.1751
120.395
89.0383
121.254
88.4569
90.9289
91.4625
96.6027
90.4197
101.815
81.6728
95.6114
25.6147
92.2551
119.471
87.6264
99.2678
79.2267
100.124
86.8081
120.168
121.083
83.1493
104.506
90.7839
85.3847
90.7285
91.6162
88.2554
88.1707
100.783
93.6277
102.467
100.83
92.0546
90.2706
91.1317
121.255
77.0675
90.4153
90.2356
94.2027
86.429
94.6322
95.0511
92.9251
104.364
85.4806
90.4471
84.8701
81.3965
92.0403
102.759
121.597
87.9631
106.146
98.6012
80.3476
92.3109
92.1697
92.2421
92.2461
92.453
121.289
94.198
78.5466
90.7949
84.1835
112.553
89.4247
88.5602
77.5587
75.5531
86.7157
89.3474
82.7648
88.3685
91.334
89.6822
90.7854
100.358
90.2206
89.3949
104.562
96.1924
90.2258
92.3303
92.5146
89.1607
101.671
88.5941
90.6851
90.5617
92.2261
88.237
90.9555
85.393
50.1839
87.3387
92.3464
95.1533
91.474
87.5483
90.3166
120.929
89.7023
113.19
92.0076
90.2932
77.596
88.4122
92.0626
96.6825
86.9541
98.0153
93.143
109.049
87.0116
91.2743
91.1147
89.1354
96.2566
86.2892
53.9634
52.1442
86.6257
92.775
78.5236
86.2963
91.1138
90.8256
85.5294
92.1203
89.986
87.969
82.9041
72.1458
90.2236
74.8456
81.2091
121.584
83.9167
89.0174
80.8717
87.6221
99.9952
89.6227
87.4947
86.5241
90.0109
110.512
93.2861
86.7601
90.4852
78.9597
42.868
91.965
91.2699
101.234
120.304
94.395
88.1709
91.5782
91.1448
90.2208
85.9521
88.2995
90.3087
92.0217
89.7426
91.4871
87.6288
90.3045
90.2429
90.2939
90.8382
105.11
90.8347
89.4978
95.3051
90.3383
91.6035
81.8638
93.9783
98.6692
89.7844
85.611
75.876
86.8565
91.6869
89.8798
77.6957
81.4674
96.749
96.567
107.469
118.124
136.258
90.8107
88.9696
121.878
85.625
90.1984
91.0774
117.86
89.6308
93.5418
9.24453
94.6464
87.7832
86.5569
91.7561
91.3992
90.5014
87.3734
90.8825
92.0524
80.7289
92.7105
84.5728
94.0356
88.9307
120.978
90.4762
107.315
82.4272
86.2807
86.3002
91.3481
90.9499
91.3494
82.382
86.096
88.3452
89.5779
33.2682
110.365
92.2203
88.7488
93.3183
91.2469
89.2637
89.9629
90.6525
78.2419
90.8804
91.6535
91.9377
87.2027
90.5384
83.5438
90.1375
88.9055
86.5345
114.085
91.1597
92.476
90.257
89.7923
95.1359
100.442
99.2908
94.1123
87.5264
91.0188
86.8064
90.7392
79.5701
91.017
88.3897
82.1667
87.5983
92.7935
120.795
91.1972
90.8853
122.908
91.2402
88.8321
91.3328
76.254
95.8064
95.5622
91.5238
92.96
91.4023
93.1704
93.3043
96.5528
94.7005
90.998
90.3509
90.0137
90.2668
90.1931
99.1489
92.0895
92.7991
92.0328
88.5206
88.2721
95.2732
89.1884
92.4333
89.09
86.9528
90.3198
89.7522
90.8094
91.554
94.7872
54.2773
86.1682
91.2818
90.9425
89.8327
90.4758
91.4845
88.0504
90.7012
91.3788
85.5791
91.0346
119.685
93.1398
92.1684
89.3713
91.0605
87.1998
94.2506
88.7152
88.3776
92.579
83.7415
89.8167
91.3255
91.5805
111.223
105.758
92.7364
85.4807
92.605
91.3395
92.0704
88.2149
83.5975
121.594
95.9505
81.8876
111.185
88.0075
75.4236
79.0644
90.9271
88.6499
75.8224
92.2259
96.2757
82.7652
88.4471
88.7002
93.0337
88.0953
81.7665
125.509
91.3077
86.9547
90.9809
92.3253
92.164
109.381
120.705
91.0979
91.6883
72.4049
104.256
73.9171
81.5698
91.1392
89.1487
86.6883
83.7964
89.1461
80.0035
88.9615
88.0886
83.3547
89.7068
98.6028
92.0934
91.9212
89.4201
82.1786
83.5997
96.476
87.363
73.9376
93.8697
88.6309
89.2041
91.8759
94.4411
88.8761
16.8956
92.6004
89.2536
83.8863
89.3473
88.6676
90.5797
80.3858
91.0861
91.5465
91.3427
86.3375
90.5141
116.346
89.5069
121.131
90.1238
90.3351
92.2493
88.2464
80.98
86.9032
51.1402
113.383
94.4177
92.201
90.5797
88.045
78.9924
83.1614
88.9377
89.9557
94.6882
94.3485
91.2352
90.9429
43.1386
90.5911
84.417
91.1195
75.7754
76.2575
89.9015
91.3309
87.9934
50.3053
96.1105
86.7404
81.2769
91.1033
93.3406
89.0088
83.8872
91.0389
93.2809
104.628
90.1268
90.7413
90.1536
87.9418
82.073
89.1122
91.8666
122.018
113.987
90.12
75.9067
84.763
91.3465
86.3225
90.9864
91.9514
112.821
85.9969
95.1061
91.1347
89.9233
84.496
90.9962
97.7847
89.684
110.14
87.7892
89.7979
91.3086
90.7665
120.959
91.9943
89.1582
84.6717
93.5412
92.2263
76.3817
42.211
103.204
86.5981
90.2904
81.2168
74.6446
90.0936
83.7847
89.9482
90.2213
92.0422
91.3318
91.0784
121.062
85.0902
89.7228
90.4171
90.6111
50.8057
89.2552
91.4414
105.961
87.9724
89.6559
96.5681
94.5647
86.2353
91.1475
91.163
85.7541
90.2255
90.3479
83.1702
120.936
90.5449
90.3438
91.2836
91.3142
77.5811
80.6344
91.6873
91.7778
83.0076
88.2831
89.3933
94.8625
94.1188
90.9543
112.019
64.9818
92.2028
52.1287
90.2179
90.4079
79.6544
78.1346
89.9131
91.6635
73.7547
93.3449
114.115
88.5659
89.2287
111.235
119.932
111.709
94.9298
91.092
90.6126
87.1199
82.9198
77.2554
81.3644
79.0216
93.0623
102.892
102.041
96.3668
89.1071
90.6923
83.7932
94.7634
92.2251
92.0179
89.1435
91.1525
91.35
120.834
81.1954
81.9194
84.342
94.2976
81.8036
89.5525
87.5581
92.4921
91.387
87.7001
90.4959
76.5459
80.428
93.4184
88.1684
86.1722
79.7688
87.5763
88.656
88.8334
90.6624
102.497
90.6795
91.9252
92.2697
90.6921
108.796
117.625
90.8198
91.6949
111.179
83.3362
96.406
90.5994
92.8522
91.0299
90.756
92.1243
91.8856
90.8443
90.0868
92.0881
91.2454
122.05
93.7614
91.9572
91.1521
91.2823
87.0142
91.8632
79.7644
90.9311
90.4039
94.2904
116.431
87.5324
83.6903
78.0444
78.8704
94.2098
88.47
88.0388
95.5318
92.7395
92.1819
91.5676
90.6879
52.6874
89.977
121.363
91.4948
86.7182
92.7396
119.365
88.9332
50.1304
94.968
91.5978
91.9649
92.1517
86.4329
91.5301
90.8962
91.698
92.3816
87.8025
90.8142
91.3649
88.0804
89.3943
95.0486
119.928
90.931
86.8711
91.1882
88.9207
91.9839
90.4876
100.826
90.184
88.2147
94.4089
86.787
91.8134
81.247
94.4762
113.555
91.0788
93.4203
91.2939
73.1055
121.185
78.2302
91.8266
81.8479
83.321
90.6677
90.7409
87.1011
121.688
96.3717
91.325
90.9849
87.0584
94.7372
92.3456
78.1744
81.7771
90.7815
91.1527
90.7414
46.2844
87.7355
85.305
105.287
120.97
86.3535
88.1266
91.8651
121.304
90.9455
95.0144
86.9059
42.158
54.7654
92.0009
48.2316
90.6398
41.7556
72.4595
105.137
88.6946
88.3959
91.8915
91.8413
91.6859
91.7714
90.291
90.1415
90.3664
90.238
91.9338
90.0663
62.8444
88.8795
88.6644
88.0722
88.3082
55.8716
88.9956
87.1127
90.4591
90.4153
90.4242
90.6086
68.8845
48.1397
90.6995
78.6176
73.9039
90.8935
88.9296
92.1141
90.9811
91.5759
92.5071
85.8685
90.0099
90.4529
88.2277
91.9717
85.6613
85.2166
86.4544
85.0796
90.2164
89.1355
106.18
107.416
88.771
92.0638
87.197
91.0998
85.8527
95.4133
106.121