# vtk DataFile Version 2.0
track0
ASCII
DATASET POLYDATA
POINTS 218 double
2.01419e-18 0.210526 1e-06
0.00130332 0.211987 1e-06
0.00211349 0.213769 1e-06
0.00292351 0.215551 1e-06
0.00381926 0.217292 1e-06
0.00436702 0.217946 1e-06
0.00529262 0.218899 1e-06
0.00621827 0.219852 1e-06
0.00714391 0.220806 1e-06
0.00808692 0.221742 1e-06
0.00899588 0.222581 1e-06
0.0100165 0.223454 1e-06
0.011044 0.224319 1e-06
0.0120782 0.225176 1e-06
0.0131218 0.226021 1e-06
0.0142877 0.226945 1e-06
0.0150599 0.227545 1e-06
0.0158315 0.228146 1e-06
0.0166026 0.228747 1e-06
0.0173733 0.229348 1e-06
0.0181484 0.229954 1e-06
0.0198147 0.231259 1e-06
0.0215788 0.232427 1e-06
0.0234376 0.233439 1e-06
0.0253785 0.234282 1e-06
0.0273075 0.234955 1e-06
0.0287618 0.235374 1e-06
0.0302326 0.235729 1e-06
0.0317134 0.236041 1e-06
0.0331995 0.236326 1e-06
0.0349835 0.236641 1e-06
0.037032 0.236973 1e-06
0.0390746 0.237339 1e-06
0.0411136 0.237726 1e-06
0.0431573 0.238086 1e-06
0.0453044 0.238437 1e-06
0.0476757 0.238798 1e-06
0.0500534 0.239113 1e-06
0.0524362 0.239387 1e-06
0.054823 0.239624 1e-06
0.0591381 0.239991 1e-06
0.0593106 0.240001 1e-06
0.0594831 0.240012 1e-06
0.0596556 0.240023 1e-06
0.0598281 0.240034 1e-06
0.0600005 0.240044 1e-06
0.0629277 0.240226 1e-06
0.0658526 0.24044 1e-06
0.0687747 0.24069 1e-06
0.0716939 0.240972 1e-06
0.0747899 0.241305 1e-06
0.0777567 0.241658 1e-06
0.0807235 0.24201 1e-06
0.0836888 0.242376 1e-06
0.0866523 0.242755 1e-06
0.0896642 0.243155 1e-06
0.0927008 0.243574 1e-06
0.0957374 0.243993 1e-06
0.098774 0.244412 1e-06
0.101817 0.244781 1e-06
0.104758 0.245065 1e-06
0.107688 0.245275 1e-06
0.110619 0.245485 1e-06
0.113549 0.245694 1e-06
0.116479 0.245904 1e-06
0.119314 0.24593 1e-06
0.122043 0.245777 1e-06
0.124773 0.245623 1e-06
0.127503 0.24547 1e-06
0.130232 0.245299 1e-06
0.132821 0.244916 1e-06
0.135256 0.244327 1e-06
0.137691 0.243738 1e-06
0.140125 0.24315 1e-06
0.14252 0.242415 1e-06
0.144732 0.241551 1e-06
0.147284 0.24032 1e-06
0.149828 0.239074 1e-06
0.152343 0.237768 1e-06
0.154825 0.236402 1e-06
0.157291 0.234965 1e-06
0.157347 0.234931 1e-06
0.157403 0.234896 1e-06
0.157459 0.234862 1e-06
0.157515 0.234828 1e-06
0.157571 0.234793 1e-06
0.160684 0.232893 1e-06
0.163876 0.231129 1e-06
0.167144 0.229508 1e-06
0.170484 0.228044 1e-06
0.174273 0.226869 1e-06
0.174849 0.226776 1e-06
0.175427 0.226692 1e-06
0.176005 0.226619 1e-06
0.176585 0.226557 1e-06
0.177532 0.226473 1e-06
0.179548 0.22636 1e-06
0.181567 0.226366 1e-06
0.183581 0.226505 1e-06
0.185581 0.226786 1e-06
0.187415 0.227188 1e-06
0.188573 0.227535 1e-06
0.189726 0.227897 1e-06
0.190878 0.228264 1e-06
0.19203 0.228631 1e-06
0.192795 0.228875 1e-06
0.193601 0.229132 1e-06
0.194407 0.229388 1e-06
0.195214 0.229642 1e-06
0.196021 0.229894 1e-06
0.196813 0.23014 1e-06
0.199115 0.230849 1e-06
0.201418 0.231552 1e-06
0.203723 0.232249 1e-06
0.206031 0.23294 1e-06
0.20842 0.233648 1e-06
0.20893 0.233798 1e-06
0.209439 0.233951 1e-06
0.209946 0.234108 1e-06
0.210453 0.234269 1e-06
0.210996 0.23445 1e-06
0.21333 0.235269 1e-06
0.215646 0.236135 1e-06
0.217946 0.237045 1e-06
0.220234 0.237985 1e-06
0.222726 0.23903 1e-06
0.223051 0.239169 1e-06
0.223376 0.239307 1e-06
0.223701 0.239445 1e-06
0.224027 0.239583 1e-06
0.224364 0.239724 1e-06
0.226654 0.240679 1e-06
0.229023 0.241418 1e-06
0.231472 0.241812 1e-06
0.233951 0.241706 1e-06
0.235868 0.241539 1e-06
0.238971 0.241267 1e-06
0.241321 0.239225 1e-06
0.241691 0.238292 1e-06
0.242778 0.235794 1e-06
0.242487 0.233086 1e-06
0.24197 0.230411 1e-06
0.241159 0.22781 1e-06
0.240536 0.226282 1e-06
0.239668 0.224323 1e-06
0.238787 0.222369 1e-06
0.237899 0.220419 1e-06
0.237007 0.21847 1e-06
0.23619 0.216488 1e-06
0.235532 0.214737 1e-06
0.234868 0.212988 1e-06
0.234201 0.211241 1e-06
0.233528 0.209496 1e-06
0.232845 0.207734 1e-06
0.232582 0.206933 1e-06
0.232326 0.20613 1e-06
0.232065 0.205328 1e-06
0.231797 0.204529 1e-06
0.231526 0.203742 1e-06
0.231044 0.202382 1e-06
0.230541 0.20103 1e-06
0.230013 0.199687 1e-06
0.229455 0.198357 1e-06
0.228802 0.196925 1e-06
0.227527 0.194414 1e-06
0.225995 0.192051 1e-06
0.224159 0.189916 1e-06
0.222329 0.187776 1e-06
0.219757 0.184177 1e-06
0.219723 0.184113 1e-06
0.219689 0.184048 1e-06
0.219655 0.183983 1e-06
0.219621 0.183918 1e-06
0.219587 0.183851 1e-06
0.218276 0.181299 1e-06
0.217056 0.178703 1e-06
0.215953 0.176054 1e-06
0.215007 0.173346 1e-06
0.214336 0.170831 1e-06
0.213982 0.168812 1e-06
0.213366 0.166858 1e-06
0.212401 0.16505 1e-06
0.211034 0.163523 1e-06
0.207704 0.161123 1e-06
0.207266 0.161091 1e-06
0.206828 0.161084 1e-06
0.206389 0.161099 1e-06
0.205952 0.161132 1e-06
0.205484 0.161183 1e-06
0.204495 0.161313 1e-06
0.203506 0.161444 1e-06
0.202518 0.161576 1e-06
0.20153 0.16171 1e-06
0.201026 0.161778 1e-06
0.199174 0.162032 1e-06
0.197322 0.162284 1e-06
0.19547 0.162535 1e-06
0.193618 0.162784 1e-06
0.191766 0.163032 1e-06
0.190624 0.163203 1e-06
0.189472 0.163284 1e-06
0.189169 0.16328 1e-06
0.186396 0.163181 1e-06
0.183715 0.162464 1e-06
0.181317 0.161068 1e-06
0.179433 0.15903 1e-06
0.177041 0.155989 1e-06
0.176098 0.154791 1e-06
0.175018 0.153715 1e-06
0.173767 0.152844 1e-06
0.17238 0.152212 1e-06
0.167532 0.15 1e-06
4.34675e-19 0.631579 1e-06
3.4774e-19 0.631579 1e-06
2.60805e-19 0.631579 1e-06
1.7387e-19 0.631579 1e-06
8.6935e-20 0.631579 1e-06
0 0.631579 1e-06
LINES 2 220
212 0 1 2 3 4 5 6 7 8 9 10 11 12 13 14 15 16 17 18 19 20 21 22 23 24 25 26 27 28 29 30 31 32 33 34 35 36 37 38 39 40 41 42 43 44 45 46 47 48 49 50 51 52 53 54 55 56 57 58 59 60 61 62 63 64 65 66 67 68 69 70 71 72 73 74 75 76 77 78 79 80 81 82 83 84 85 86 87 88 89 90 91 92 93 94 95 96 97 98 99 100 101 102 103 104 105 106 107 108 109 110 111 112 113 114 115 116 117 118 119 120 121 122 123 124 125 126 127 128 129 130 131 132 133 134 135 136 137 138 139 140 141 142 143 144 145 146 147 148 149 150 151 152 153 154 155 156 157 158 159 160 161 162 163 164 165 166 167 168 169 170 171 172 173 174 175 176 177 178 179 180 181 182 183 184 185 186 187 188 189 190 191 192 193 194 195 196 197 198 199 200 201 202 203 204 205 206 207 208 209 210 211
6 212 213 214 215 216 217
POINT_DATA 218
 FIELD attributes 1
U 3 218 float
2.10433e-11 	2.35854e-11 	3.58072e-34 8315.29 	18291.3 	7.87168e-20 13482 	29663 	1.27583e-19 19611.2 	38110.8 	2.27748e-19 30162.1 	36010 	5.39442e-19 35878.1 	36948.4 	6.90942e-19 43480.6 	44772 	8.38421e-19 51085.4 	52603.8 	9.84877e-19 53065.3 	52670.5 	1.00192e-18 51011.6 	47119.2 	9.25621e-19 49350.8 	42213.2 	8.58335e-19 49113.2 	41334.8 	7.07515e-19 48937.8 	40543.8 	5.57458e-19 51299.5 	41560.2 	4.99387e-19 54719.7 	43373 	4.77827e-19 58599.9 	45510.1 	4.54903e-19 59691.9 	46447.6 	4.33859e-19 60778.3 	47372.6 	4.12793e-19 61858.3 	48290.3 	3.91678e-19 62932.1 	49201.1 	3.70518e-19 64008.9 	50107 	3.49215e-19 63201.5 	41876.3 	2.02211e-19 63583 	34597.1 	5.98089e-20 67968.5 	29537.2 	-3.24284e-20 74571.7 	26019.3 	-1.02646e-19 81856.9 	23539.9 	-1.66072e-19 83503.1 	20187.3 	-2.07189e-18 88388 	18606.2 	-3.184e-18 95734.4 	18359 	-3.68285e-18 103084 	18213.8 	-4.22094e-18 111882 	18139.5 	-4.90482e-18 112928 	20239.3 	-1.07974e-17 114075 	21613.1 	-1.53801e-17 116000 	20427.4 	-1.46597e-17 118006 	19329.2 	-1.39442e-17 120184 	18262.9 	-1.31999e-17 123308 	16342 	-9.58529e-18 126576 	14558 	-5.931e-18 129974 	12898.9 	-2.24769e-18 133490 	11353.2 	1.46088e-18 140025 	8747 	8.20326e-18 139942 	8723.61 	8.45188e-18 139851 	8704.16 	8.68855e-18 139761 	8684.72 	8.92524e-18 139671 	8665.3 	9.16196e-18 139575 	8649.83 	9.38659e-18 142053 	10432.9 	4.9443e-18 144371 	12313.9 	1.95182e-19 146066 	14110.8 	-4.46738e-18 147169 	15827.5 	-9.04687e-18 147716 	17569.3 	-1.38233e-17 141743 	16857.9 	-1.32668e-17 140439 	17305.5 	-1.59726e-17 139415 	17849.6 	-1.90012e-17 138091 	18350.5 	-2.19659e-17 136418 	18814 	-2.49107e-17 128098 	17666.5 	-2.33826e-17 119751 	16515.4 	-2.18584e-17 114869 	13931.9 	-1.66609e-17 112457 	10873 	-1.00741e-17 111812 	8000.04 	-3.68883e-18 107095 	7661.26 	-3.52373e-18 102345 	7321.43 	-3.36704e-18 97595.7 	6981.61 	-3.21035e-18 96187.4 	896.431 	-1.04948e-19 99294.9 	-5576.53 	3.20603e-18 103056 	-5792.7 	3.32322e-18 106799 	-6002.94 	3.44409e-18 109835 	-6870.15 	3.34169e-18 104904 	-15549.7 	6.05856e-19 104382 	-25231.5 	-2.20188e-18 116468 	-28158.2 	-2.4566e-18 128552 	-31079.3 	-2.71152e-18 121743 	-37331 	-3.10451e-18 114783 	-44859.8 	-3.58357e-18 110105 	-53095.4 	-4.1219e-18 121230 	-59384.6 	-3.57405e-18 118799 	-61701.7 	2.01367e-19 116828 	-64300.1 	4.0215e-18 115332 	-67185.2 	7.88525e-18 114313 	-70376.9 	1.18227e-17 114561 	-70539.5 	1.18526e-17 114823 	-70700.7 	1.18796e-17 114896 	-70549 	1.19592e-17 114954 	-70372.7 	1.20427e-17 115026 	-70194.1 	1.21238e-17 116451 	-64384.4 	2.14122e-17 117148 	-58091 	3.02872e-17 117091 	-51307.5 	3.87188e-17 127324 	-39509.1 	4.67445e-17 142464 	-22982.8 	5.4183e-17 143876 	-20785.8 	5.42526e-17 144519 	-18326.1 	5.3166e-17 144067 	-15487.1 	5.03899e-17 143568 	-12645.7 	4.76204e-17 142675 	-8013.37 	4.31253e-17 138517 	445.488 	3.38234e-17 134363 	9216.46 	2.45985e-17 130232 	18300 	1.54878e-17 126145 	27679.9 	6.54581e-18 122409 	36646.9 	-1.54881e-18 119145 	37447.6 	-5.58564e-18 120084 	38204.8 	-1.10523e-17 122230 	38950.3 	-1.69307e-17 124380 	39696.8 	-2.2809e-17 125807 	40186.8 	-2.67118e-17 125890 	39922.8 	-3.01881e-17 125975 	39657.2 	-3.36805e-17 126065 	39397.1 	-3.71797e-17 126159 	39142.4 	-4.06856e-17 126254 	38890.7 	-4.41395e-17 122520 	37386.5 	-5.04142e-17 118782 	35908.9 	-5.66867e-17 115049 	34448.6 	-6.29735e-17 111320 	33006 	-6.9275e-17 107458 	31540.8 	-7.57936e-17 104705 	31543.1 	-7.61614e-17 101922 	31545.9 	-7.65062e-17 99116.1 	31540.8 	-7.68315e-17 100613 	33543.1 	-7.46986e-17 103382 	36255.5 	-7.1677e-17 110333 	41276.2 	-6.4732e-17 117030 	46277.2 	-5.74707e-17 123064 	50567.5 	-4.90257e-17 128279 	53779.9 	-3.90215e-17 133953 	57391.7 	-2.81368e-17 133149 	56749.4 	-2.79828e-17 132323 	56099.4 	-2.78159e-17 131496 	55443.9 	-2.76492e-17 130669 	54782.8 	-2.74828e-17 129789 	54089 	-2.72974e-17 107940 	33685.8 	-2.3558e-17 88726.4 	14297.4 	-2.03849e-17 73929.1 	-3174.03 	-1.81348e-17 72887.6 	-6356.5 	-1.81254e-17 74337.7 	-6501.69 	-1.84932e-17 33206.4 	-28844.7 	-1.48617e-17 18623 	-46958.9 	-1.61695e-17 21833 	-50212.3 	-1.77272e-17 -10243.1 	-95586.2 	-1.20004e-17 -26345.5 	-136082 	-7.30818e-18 -50207 	-161194 	-6.67814e-18 -73115.1 	-179335 	-7.62587e-18 -84169.7 	-189791 	-8.15095e-18 -100096 	-222023 	-4.78156e-18 -115738 	-254155 	-1.4133e-18 -130915 	-286170 	1.81574e-18 -129481 	-314325 	-2.74455e-18 -128965 	-342774 	-7.67997e-18 -130276 	-343428 	-9.91136e-18 -131524 	-344048 	-1.21194e-17 -132717 	-344661 	-1.4307e-17 -133858 	-345268 	-1.64752e-17 -117899 	-357987 	-2.27441e-17 -108195 	-340253 	-6.26641e-18 -108631 	-332906 	-7.16486e-18 -109104 	-325563 	-8.09005e-18 -109617 	-318226 	-9.04333e-18 -110174 	-310967 	-1.00069e-17 -107159 	-288039 	-8.61872e-18 -104130 	-264785 	-7.22041e-18 -101098 	-241154 	-5.81007e-18 -102953 	-225597 	-5.03042e-18 -110472 	-217569 	-4.88661e-18 -120564 	-185990 	-7.81519e-18 -131225 	-152608 	-1.04855e-17 -127603 	-149193 	-1.29722e-17 -116140 	-162519 	-1.55686e-17 -97510.5 	-185208 	-2.00398e-17 -97051.6 	-185171 	-2.00733e-17 -96564.3 	-185136 	-2.0093e-17 -96076.8 	-185101 	-2.01128e-17 -95588.9 	-185066 	-2.01326e-17 -95056.6 	-185033 	-2.01393e-17 -82176.9 	-174870 	-1.82864e-17 -68743.4 	-165192 	-1.66261e-17 -54580.3 	-156191 	-1.52091e-17 -39516 	-148093 	-1.41112e-17 -24897.4 	-141812 	-1.34994e-17 -37822.2 	-120180 	-1.44143e-17 -51883.2 	-97101.6 	-1.48018e-17 -65670.2 	-73392.3 	-1.45898e-17 -73158.1 	-52716.3 	-1.42005e-17 -98987 	-7267.62 	-1.05963e-17 -104845 	-1598.71 	-9.12161e-18 -110544 	3710.06 	-7.74522e-18 -116091 	8689.05 	-6.47078e-18 -121498 	13380.6 	-5.28471e-18 -125271 	16410.3 	-4.52793e-18 -128444 	17022 	-3.97174e-18 -131612 	17623.3 	-3.42452e-18 -134794 	18226.4 	-2.87808e-18 -137991 	18831.2 	-2.33237e-18 -139608 	19128.4 	-2.06229e-18 -144773 	19714.5 	-9.69269e-19 -149920 	20280.3 	1.19011e-19 -155076 	20861.9 	1.20615e-18 -160240 	21456.6 	2.29234e-18 -167816 	25077.4 	3.01055e-18 -165891 	11635.9 	4.76363e-18 -163593 	-2094.33 	6.59156e-18 -162879 	-5770.19 	7.09321e-18 -150060 	-40181.6 	1.12057e-17 -129331 	-75278.3 	1.51146e-17 -100673 	-108926 	1.85213e-17 -78477.1 	-99729.6 	1.64253e-17 -52062.5 	-66132.2 	1.09002e-17 -49951.3 	-49803.2 	1.12983e-17 -49597.1 	-34508.7 	1.2089e-17 -48891.7 	-22295.4 	1.26007e-17 -38018.4 	-17346.6 	9.80775e-18 0 	0 	0
-3.73921e-13 	-2.7133e-12 	0 -2.99137e-13 	-2.17064e-12 	0 -2.24352e-13 	-1.62798e-12 	0 -1.49568e-13 	-1.08532e-12 	0 -7.47841e-14 	-5.42659e-13 	0 0 	0 	0
