/*--------------------------------*- C++ -*----------------------------------*\
| =========                 |                                                 |
| \\      /  F ield         | OpenFOAM: The Open Source CFD Toolbox           |
|  \\    /   O peration     | Version:  v1912                                 |
|   \\  /    A nd           | Website:  www.openfoam.com                      |
|    \\/     M anipulation  |                                                 |
\*---------------------------------------------------------------------------*/
FoamFile
{
    version     2.0;
    format      ascii;
    class       volScalarField;
    location    "0.32";
    object      epsilon;
}
// * * * * * * * * * * * * * * * * * * * * * * * * * * * * * * * * * * * * * //

dimensions      [0 2 -3 0 0 0 0];


internalField   nonuniform List<scalar> 
1431
(
87.5413
23.2794
41.9383
12.5059
1.55465
4.03081
6.35389
136.059
7.36922
5.49802
107.02
101.914
39.5349
4.80804
1.29294
5.99678
4.8614
12.3759
6.62946
16.119
231.876
5.95276
2.26858
102.887
4.78392
49.5928
69.379
8.40993
73.3226
35.6856
39.1728
42.3048
38.9003
2.22584
5.01582
15.9659
50.7719
1.12872
24.3028
38.8869
91.0538
68.7994
45.3825
10.7598
3.36614
3.2845
3.5451
57.5129
6.95732
5.7353
21.2817
14.8696
17.1951
162.942
13.8803
46.6057
1.58591
139.667
6.49821
2.93707
2.27305
10.419
1.56617
1.19186
34.907
5.50779
26.3078
10.9319
2.21759
11.9035
98.9103
3.04835
9.50157
2.11029
6.48697
2.26817
36.6564
41.0752
5.7298
10.5857
5.47219
19.8531
11.2901
3.52966
39.5076
19.0977
5.94017
1.09783
22.4743
17.4873
1.59536
1.13005
2.32032
6.59633
7.87759
35.2923
148.657
23.8639
11.8522
30.6202
32.5013
13.8158
5.06199
10.9038
50.1748
31.2897
55.814
98.6901
1.4273
5.46027
9.61236
38.9751
32.1824
102.672
15.5696
1.6776
4.54444
11.8334
15.8402
1.43712
17.1249
1.25589
141.803
8.94567
54.8461
5.62286
37.1816
1.02089
33.0345
5.82542
6.71879
17.8184
7.31436
10.343
26.1665
4.5553
26.7046
7.99521
38.0953
1.35955
25.0411
32.5605
6.69358
9.6172
1.85267
38.5668
1.98429
24.3592
5.36763
9.76862
2.96687
2.61415
39.566
17.3157
48.3024
3.5785
31.3363
28.1394
14.8463
8.38551
34.4127
39.0242
6.74732
5.50412
98.2205
112.049
109.296
8.70246
2.71771
19.8753
27.0288
16.7143
37.8028
37.3628
25.3201
30.1319
6.00264
4.31581
15.3343
5.86698
6.877
25.8059
34.0464
218.112
4.55168
103.481
109.935
26.6045
28.9906
30.0003
26.4777
30.8459
31.9919
140.533
14.2587
24.486
28.9157
4.72789
1.94548
25.5423
29.8404
6.46504
64.2055
5.22238
34.5056
25.8811
43.6703
2.85704
51.119
30.2356
53.7714
7.61728
51.7348
33.4323
41.4489
40.6209
35.5087
5.76736
40.7339
56.3215
48.8349
31.6258
8.95676
6.00336
52.5952
80.9937
79.6964
21.2786
48.7199
42.9709
61.1799
39.2979
27.1525
32.5107
43.6533
24.8746
47.0159
33.6437
28.1261
27.1868
11.2628
19.5694
62.9086
29.7406
29.0775
32.3441
31.6459
67.7965
52.4265
2.57143
0.810565
31.8223
8.14347
5.86426
25.7927
81.7097
7.93243
111.234
28.8708
33.5985
46.8453
36.1115
37.8639
5.41381
59.1848
67.117
21.0023
232.041
54.6195
1.77086
1.58264
42.1826
21.1077
22.191
35.55
38.6267
35.4104
29.1135
59.1597
65.3121
14.6055
45.5076
38.271
42.4402
10.9557
18.5722
77.1955
26.5401
41.5747
29.0757
1.79457
29.6411
28.3273
20.2899
33.4481
50.3418
140.153
120.202
29.0224
65.3601
18.6548
100.799
19.4054
33.0664
38.4937
7.75786
29.3618
32.686
61.6263
19.0332
19.4904
4.91464
6.3846
82.3238
9.94051
28.3595
4.56443
12.4399
3.39527
618.351
27.5052
26.8319
26.3469
23.1113
3.73001
53.5497
32.06
37.0417
184.015
5.84619
84.9711
3.39617
24.9652
6.94783
9.63025
35.3141
83.9043
23.2051
3.83837
75.5129
76.579
37.7395
13.5335
101.434
4.87185
24.0897
27.2491
32.4578
14.8844
24.661
8.70147
12.3074
21.6069
18.3693
10.8444
53.1002
35.1281
41.8944
29.7272
81.3548
6.42583
84.3667
74.2413
17.8515
2.6441
29.575
11.7814
323.132
51.3103
28.0479
89.5954
1.85053
22.0572
24.0111
107.002
182.762
23.5626
15.1595
16.3637
241.848
39.9382
3.95076
41.2432
12.913
541.375
3.00172
8.89388
2.52765
3.87878
20.9657
13.457
9.24125
9.95249
7.51185
30.9693
19.2784
39.3726
43.1828
18.8749
3.1201
14.3594
110.488
29.5559
89.0802
60.6797
25.4086
3.54828
7.94
9.23606
21.4959
18.8451
3.8335
18.2614
43.9609
2.2612
18.396
12.5555
24.3173
3.74373
15.5344
65.7869
41.1647
41.7665
14.9152
13.6984
3.14949
10.5048
17.2924
18.1291
71.7948
30.2591
29.3118
34.0743
30.1059
35.673
35.4128
32.7733
42.8358
35.4815
44.107
6.04812
37.799
7.58456
8.33337
11.8223
5.64446
3.14265
2.9039
4.81174
5.92848
5.30481
7.78589
6.30598
4.84891
5.12519
7.04603
6.35825
110.409
2.43903
34.9122
6.0526
16.4184
102.822
7.71024
38.1088
16.0921
8.38875
97.6194
11.5974
93.3689
8.69786
9.90407
6.64634
8.05182
39.1301
34.2793
6.09946
14.1486
4.93649
9.3998
8.53295
5.89975
40.8174
17.6932
12.6562
8.19202
5.5424
11.3109
24.5877
29.0979
46.5109
16.5706
20.9921
40.3395
9.8166
6.91399
20.3035
49.8925
42.7462
1.19432
64.9446
52.432
12.7955
113.646
48.4297
35.5695
5.12724
59.1369
63.2207
0.943442
47.1851
28.5533
7.5584
16.2762
145.356
11.0656
69.6417
42.7067
38.1152
38.066
3.04251
64.8122
1.06781
6.99974
44.6634
13.0412
45.3518
40.2206
7.76846
7.95301
30.2564
37.4408
39.2758
88.773
53.8421
11.3232
31.379
17.2692
42.0899
4.5
31.5661
102.174
107.229
59.7907
1.65372
20.7149
29.4717
25.5104
35.5688
55.8486
8.85602
105.571
108.281
9.51428
3.32988
85.8889
13.7479
63.4045
20.364
314.408
51.661
38.1778
23.5903
27.6618
511.85
43.83
45.5954
5.73842
43.4671
93.0025
18.2021
20.025
36.8364
75.6642
107.959
5.12232
10.7592
3.55733
31.7891
24.3882
20.4678
17.9469
3.16435
9.53778
11.5447
41.3499
29.1329
44.4519
125.891
0.986448
33.0591
119.88
23.4711
24.476
58.2092
47.588
18.359
7.76535
27.8087
43.0331
33.3404
36.86
9.67392
46.1273
8.90503
3.6922
104.591
11.4398
14.938
5.22064
12.0985
40.2249
10.9159
33.722
2.3857
53.5362
46.5289
8.76959
23.3561
5.48221
17.4563
30.1526
90.7925
8.51379
30.3175
10.9825
53.3757
0.838362
11.0238
26.801
30.7323
26.6562
23.9245
37.2687
16.9454
7.40906
105.642
15.848
3.98902
30.4538
29.1659
27.284
18.1364
8.74585
52.6979
34.1546
6.94766
3.55114
46.8983
22.3942
39.8236
62.2526
3.03348
9.19734
3.92918
3.58779
3.4716
13.4018
12.1165
25.356
32.7915
48.4561
41.2625
22.2521
61.6453
48.5686
17.823
16.1485
20.7455
16.6118
12.8568
9.75268
69.4403
45.6402
32.962
23.8714
72.0697
6.87563
3.89314
23.2407
25.7094
59.3708
18.5977
68.6022
26.0583
24.9242
35.6908
2.81225
4.19967
8.43449
79.3589
46.6024
88.6601
7.96887
7.72346
38.762
14.3928
3.09919
7.80097
18.1857
11.0592
7.83521
23.3952
7.78064
18.8705
75.4065
2.82797
12.5639
26.2845
4.6414
2.34544
52.9877
26.2986
54.6924
57.9051
113.947
44.773
2.13505
21.1011
11.8654
111.494
26.54
31.244
24.291
85.4071
6.06384
58.0336
47.7109
89.8021
152.872
8.64447
13.4392
15.9635
19.8559
122.976
40.641
65.0601
16.8299
68.4278
14.2114
34.2092
2.87014
21.3562
3.15311
26.7882
4.65793
6.52588
9.12107
2.64219
9.44104
44.0138
30.281
7.22467
9.14578
158.116
3.21463
90.9279
7.63727
2.85793
60.456
156.918
146.368
42.9027
5.6977
2.12608
59.1167
7.50336
6.90153
11.3402
23.1082
55.7273
29.1963
3.94729
45.6593
45.6553
21.0896
7.68047
41.5793
32.8362
22.1103
10.7214
38.0704
21.7482
7.35062
9.03247
36.3435
3.50192
11.5012
37.7574
16.608
77.0118
12.4903
43.2748
43.2404
36.3378
7.82284
20.1406
31.0203
20.9928
32.8018
38.7539
6.86491
3.49322
24.9861
29.7436
614.123
33.4661
2.70997
42.0052
3.75939
363.616
5.02155
31.012
36.3094
74.6855
125.369
29.5323
3.62199
42.2108
7.43924
2.21091
52.9373
17.1838
47.3381
9.80708
35.5493
92.6537
31.3412
2.51246
31.8923
42.0586
19.2565
70.9295
37.8827
22.3511
164.196
7.06115
39.8165
27.2093
69.0135
27.4875
20.077
12.3635
40.6314
11.4526
26.3244
39.1681
207.675
43.1708
30.5209
52.4674
29.5378
35.6313
31.0835
26.937
24.0939
6.24258
3.9271
30.0467
30.3567
38.0312
15.9194
3.6832
28.1472
37.9544
10.1243
36.3765
5.4806
31.4599
6.50007
42.5077
512.557
42.9586
3.19934
5.8134
8.59502
6.45261
5.38506
6.03743
5.8116
86.9435
18.8744
19.4606
60.1674
400.327
136.071
86.6246
71.4432
57.994
63.7976
71.6719
68.0005
77.6925
54.5224
38.4213
35.003
36.9634
41.7412
60.4227
84.2581
40.0155
45.6626
50.5167
37.0934
53.4946
52.3647
35.3008
50.9057
48.2479
34.7455
44.7634
37.3808
23.5378
11.6291
25.5256
3.53829
6.05371
3.30759
51.8763
51.5511
27.8626
4.58432
8.03382
62.564
180.929
13.3246
6.71564
27.9417
3.31437
34.7987
4.37899
5.56243
147.888
1.26038
41.4146
4.31613
16.6163
9.80159
48.2539
28.3631
38.61
6.13587
40.4771
99.8945
25.3066
27.582
34.7824
9.18014
15.1475
3.22568
19.3602
19.863
72.3843
35.467
48.4765
13.3716
42.4294
5.96804
3.20339
63.2576
83.1076
33.0266
39.6504
12.0487
1.53784
7.10316
6.89006
16.4206
40.3688
2.57932
8.28309
15.1193
24.2429
76.6498
2.47354
5.50712
8.66278
24.7132
6.74697
642.878
14.0112
33.3471
27.8816
150.679
21.7642
21.1977
7.87193
7.01164
14.6797
1.42494
41.2732
13.2967
25.4541
346.432
52.3792
40.5171
17.6749
16.308
39.3266
9.7215
58.9729
25.9618
0.969204
62.4855
42.7564
21.0243
95.5023
55.9326
19.8558
5.01587
16.1296
1.84019
65.998
18.7648
6.78131
26.0043
10.1105
18.7023
6.63545
13.1714
44.1595
396.263
5.71307
74.4695
37.1282
5.32319
31.0908
162.283
35.4294
2.36221
39.2994
33.5742
30.8304
20.8453
4.27131
45.7298
4.97005
22.1265
29.9793
67.5755
11.3995
9.00427
26.5523
10.5186
56.7291
29.982
92.4752
48.0976
111.134
35.7965
41.4076
49.4642
5.53244
5.2332
22.2131
7.35692
15.4162
6.25672
6.70719
49.4477
2.78377
19.6499
61.0061
35.2882
27.5051
27.0841
36.9624
42.0771
7.92356
43.4636
41.6991
42.5411
41.2266
39.7876
29.5137
32.3581
36.2821
43.349
48.0158
49.1489
40.4785
48.2764
9.67618
13.2467
16.0006
10.2727
12.8004
14.6274
31.3128
2.73848
48.7681
46.2355
77.4646
36.499
6.28578
17.8937
4.71454
6.31042
13.8208
15.7978
36.7746
5.55178
7.69221
10.2533
0.946809
7.2735
20.904
51.2259
3.95869
30.0801
16.5698
13.5749
500.738
38.8036
14.9757
1.1351
10.9671
24.9075
41.5249
40.5184
25.2524
20.0941
6.38112
2.09489
20.6773
36.4433
6.31155
6.8213
6.14398
6.78652
7.38726
34.3793
11.9805
52.1688
49.0957
9.7763
26.9582
171.963
2.82273
40.2276
73.3239
6.69697
29.8208
5.59001
3.35354
4.13731
32.3099
6.8044
6.22241
65.184
90.8403
68.2481
38.0737
41.4151
1.123
7.44266
80.3564
49.6874
16.9134
29.6904
50.7167
54.2521
15.784
30.6279
31.2267
60.5626
14.2826
8.4239
32.2002
4.89151
8.64462
78.4074
33.5738
41.661
30.2743
13.5354
4.87973
62.8112
37.2627
59.9953
105.17
50.7253
4.60944
14.6593
3.952
2.24854
43.4384
54.729
62.803
17.3104
9.40873
8.82935
86.8316
13.2334
105.774
68.6608
16.2854
5.7255
193.754
1.27624
3.87913
9.25127
5.64412
9.98197
76.9076
15.6822
56.2437
37.7646
22.1787
2.90289
43.1617
55.6111
7.73671
9.12341
7.07768
7.41801
9.56856
18.5908
60.3192
28.8822
6.80139
36.6152
10.3498
40.5269
12.7892
6.0385
12.7915
4.01437
24.7683
6.73622
398.074
43.6652
5.43617
9.17843
34.5603
6.51082
6.32976
70.8287
72.1156
2.76189
60.487
2.29386
102.716
6.16908
2.0614
29.0038
4.83834
19.9139
4.1075
109.543
86.9722
173.104
3.68355
40.4005
4.00552
6.8593
5.42141
1.9142
90.8634
4.68925
18.4735
8.29026
149.83
5.11897
6.16516
21.2557
32.061
25.006
6.1305
27.7479
27.0306
55.3589
35.8265
28.8408
2.38532
7.54041
5.7689
18.7378
104.569
57.8049
74.1026
40.7874
58.846
0.891415
96.9204
27.6821
44.5862
173.865
18.7658
6.70955
7.4339
29.373
71.2939
24.1447
49.0976
4.91757
170.453
60.5487
32.2448
19.8072
334.564
3.71354
52.0995
14.1389
36.751
52.2396
5.47074
137.276
15.5343
19.3477
5.39316
272.84
11.639
108.476
16.3138
38.1533
62.2467
137.106
133.955
43.5632
81.9301
5.44178
9.75778
5.76846
55.5453
1.11655
32.7793
6.35822
6.65044
91.3107
247.194
29.0519
7.80708
9.65184
30.1556
20.6765
6.10666
2.91214
168.618
6.32902
5.14541
62.8179
8.23827
2.23394
42.0239
0.909978
10.7837
20.6642
19.1411
228.285
19.5762
3.47561
1.19179
9.04021
31.9357
40.7644
3.71217
8.48796
15.8941
42.8778
39.3105
41.5513
18.1236
41.3752
8.94439
51.0454
30.3387
7.47256
20.0092
12.3552
7.10947
19.6923
33.3198
33.15
37.223
8.02012
10.8938
18.7429
23.1091
2.80933
60.4488
19.5251
27.4338
19.0496
48.7981
18.2621
11.4226
27.7545
24.5561
1.50584
19.5285
26.4488
52.6433
28.8106
36.5376
2.68383
26.7672
4.68646
13.9858
2.76729
12.0379
6.42843
89.5183
8.40259
67.211
99.5948
100.487
19.167
68.5629
9.63596
49.8804
18.7284
32.7345
113.538
61.4597
11.9251
1.99098
2.60204
28.6501
60.9983
2.57172
1.30397
20.3254
43.3894
59.0747
35.7733
33.7878
8.89138
1.90445
1.67636
2.05869
)
;

boundaryField
{
    frontAndBack
    {
        type            empty;
    }
    wallOuter
    {
        lowReCorrection 0;
        type            epsilonWallFunction;
        value           nonuniform List<scalar> 
96
(
73.3226
35.6856
35.2923
69.4403
72.0697
68.6022
8.43449
7.96887
7.72346
14.3928
7.80097
11.0592
7.78064
75.4065
12.5639
16.8299
68.4278
34.2092
7.68047
9.03247
7.82284
9.80708
35.5493
19.2565
70.9295
71.4432
57.994
63.7976
71.6719
68.0005
77.6925
54.5224
38.4213
35.003
36.9634
41.7412
60.4227
84.2581
40.0155
45.6626
50.5167
37.0934
53.4946
52.3647
35.3008
50.9057
48.2479
34.7455
44.7634
41.4146
72.3843
35.467
40.3688
8.28309
76.6498
40.5171
95.5023
74.4695
37.1282
35.4294
22.1265
9.00427
10.5186
92.4752
42.0771
43.4636
41.2266
39.7876
29.5137
32.3581
36.2821
43.349
48.0158
49.1489
40.4785
48.2764
9.67618
13.2467
16.0006
10.2727
12.8004
14.6274
36.499
7.69221
36.4433
38.0737
62.803
7.41801
24.7683
27.0306
74.1026
40.7874
11.639
81.9301
91.3107
9.65184
)
;
    }
    inlet
    {
        type            fixedValue;
        value           nonuniform 0();
    }
    outlet
    {
        type            zeroGradient;
    }
    wallInner
    {
        lowReCorrection 0;
        type            epsilonWallFunction;
        value           nonuniform List<scalar> 
126
(
6.49821
2.93707
2.27305
10.419
1.56617
1.19186
34.907
5.50779
26.3078
10.9319
2.21759
11.9035
98.9103
3.04835
9.50157
2.11029
6.48697
2.26817
36.6564
41.0752
5.7298
10.5857
5.47219
19.8531
30.6202
1.6776
4.54444
11.8334
15.8402
1.43712
17.1249
1.25589
141.803
8.94567
54.8461
5.62286
37.1816
6.71879
17.8184
1.35955
25.0411
6.69358
9.6172
1.98429
9.76862
2.61415
17.3157
98.2205
6.877
103.481
109.935
14.2587
53.7714
1.77086
59.1597
65.3121
1.79457
140.153
120.202
65.3601
100.799
4.91464
6.3846
82.3238
53.5497
32.06
84.9711
75.5129
76.579
41.8944
84.3667
74.2413
7.94
24.3173
113.646
145.356
7.95301
17.2692
102.174
25.5104
105.571
20.364
107.959
3.55733
125.891
119.88
33.3404
90.7925
23.9245
52.6979
3.03348
18.8705
2.82797
60.456
3.19934
5.38506
83.1076
50.7167
29.0519
7.80708
12.0379
6.42843
8.40259
99.5948
100.487
19.167
9.63596
18.7284
32.7345
113.538
61.4597
11.9251
1.99098
28.6501
60.9983
2.57172
1.30397
20.3254
43.3894
59.0747
35.7733
33.7878
8.89138
1.90445
1.67636
2.05869
)
;
    }
    procBoundary3to1
    {
        type            processor;
        value           nonuniform List<scalar> 
48
(
55.3809
107.656
83.0509
64.2803
68.4623
115.041
107.656
12.3
26.882
3.57728
3.57728
6.91821
6.91821
36.3602
42.3211
7.96692
6.82432
6.01772
6.82432
5.71778
18.5874
16.8315
5.71778
59.6844
1.75505
8.12703
10.3795
16.8315
9.222
15.1206
15.1206
10.4025
10.4025
26.882
7.39465
63.2883
14.4085
1.75505
44.2654
54.6959
36.3602
15.8745
17.886
5.71778
43.7264
73.2056
64.198
22.8573
)
;
    }
    procBoundary3to2
    {
        type            processor;
        value           nonuniform List<scalar> 
29
(
3.37833
3.37833
2.55295
5.72117
27.3776
5.34204
7.52725
5.83712
5.16569
4.86423
6.98351
24.0423
2.27604
13.9549
6.21742
10.6069
4.49634
5.41223
3.08851
6.98488
5.72503
4.49634
9.54243
5.41223
6.15809
5.02838
5.41223
34.3953
34.3953
)
;
    }
}


// ************************************************************************* //
