/*--------------------------------*- C++ -*----------------------------------*\
| =========                 |                                                 |
| \\      /  F ield         | OpenFOAM: The Open Source CFD Toolbox           |
|  \\    /   O peration     | Version:  v1912                                 |
|   \\  /    A nd           | Website:  www.openfoam.com                      |
|    \\/     M anipulation  |                                                 |
\*---------------------------------------------------------------------------*/
FoamFile
{
    version     2.0;
    format      ascii;
    class       volVectorField;
    location    "0.32";
    object      U;
}
// * * * * * * * * * * * * * * * * * * * * * * * * * * * * * * * * * * * * * //

dimensions      [0 1 -1 0 0 0 0];


internalField   nonuniform List<vector> 
1431
(
(0.552881 1.69285 1.06281e-16)
(2.44929 0.99741 2.92516e-17)
(-3.82837 0.0331885 0)
(-1.35806 0.0870986 1.76052e-16)
(-0.682398 -0.453223 0)
(-0.0880056 2.10924 2.7509e-16)
(1.29382 0.276727 3.9659e-16)
(2.23246 0.340747 5.57463e-17)
(-0.147459 1.64379 2.05e-16)
(1.84647 -0.0252666 3.55197e-16)
(2.98098 9.8299 1.98915e-17)
(7.14378 0.132245 0)
(-2.71159 6.20469 -1.01009e-16)
(-1.08438 0.0262208 -5.01526e-16)
(0.250288 -0.24295 0)
(1.22789 -0.136218 -3.48591e-16)
(2.35321 -0.0344902 -2.54728e-16)
(-2.74753 -0.188651 0)
(2.53094 -0.166178 -2.04532e-16)
(-1.9541 0.551501 1.149e-16)
(4.35933 9.18768 -6.67088e-19)
(-0.416855 -0.00968528 2.11049e-16)
(-0.191894 1.32954 -2.1509e-16)
(12.1221 2.02652 -3.44482e-18)
(-0.203446 1.41174 2.07905e-16)
(-1.92984 4.56592 -1.4018e-19)
(1.69491 9.5649 -2.07143e-17)
(-0.826372 -0.973795 -3.2364e-16)
(-0.108301 5.5341 -3.39558e-17)
(0.197159 4.39831 3.12713e-17)
(-0.00762892 5.43663 -8.18846e-17)
(-0.126171 7.00632 2.65173e-17)
(0.0260241 5.2746 0)
(-0.827304 0.100685 -3.87686e-16)
(0.374641 3.23081 -3.01268e-16)
(0.113829 -0.458954 0)
(-1.53542 7.26265 0)
(0.995519 0.200956 -9.78886e-19)
(-0.691749 -1.04892 0)
(-0.229951 6.54457 0)
(-1.42252 8.72509 -1.69328e-18)
(-1.59799 8.89327 8.33831e-17)
(-2.23337 5.0866 -1.27839e-16)
(-0.977744 -0.684893 1.65204e-16)
(-0.329267 1.15217 0)
(1.01695 -0.549187 2.71282e-16)
(0.0368743 0.286396 2.58722e-17)
(1.2092 9.12474 -6.3873e-17)
(0.584987 0.618019 0)
(0.353253 -0.380047 0)
(1.76274 5.94209 0)
(-0.867056 -1.52081 0)
(1.21521 6.04476 2.17349e-16)
(2.18021 0.106024 1.70553e-17)
(2.90036 0.603127 -1.86546e-18)
(0.402545 5.36037 2.60392e-16)
(-0.693352 0.282056 1.81012e-16)
(5.00226 -0.158727 0)
(2.48685 -0.0187999 0)
(0.0747221 -0.247883 3.7765e-16)
(-0.0570924 -0.125777 -1.3079e-16)
(-1.23082 0.338395 3.31776e-16)
(0.610904 -0.193566 0)
(1.10544 0.0551975 0)
(-0.850966 -0.359944 7.87549e-19)
(1.4909 0.13658 -1.97033e-16)
(-3.23969 -0.303458 -1.58374e-16)
(-1.63261 -0.345377 -7.14079e-17)
(1.47522 0.0115902 -4.41802e-18)
(-0.688858 -0.271565 0)
(0.230245 -0.523699 7.32756e-17)
(-0.859983 0.067833 -1.36966e-16)
(-1.29253 0.142716 1.12026e-16)
(-0.700695 0.0782466 3.07864e-16)
(-1.18589 -0.0592977 3.58433e-16)
(0.459749 -0.16764 -4.79479e-16)
(-3.6581 -0.266169 -1.35208e-17)
(-4.03051 -0.482618 -1.15603e-16)
(1.68904 -0.262504 -2.4221e-16)
(-2.01923 -0.503821 0)
(2.26371 0.0399147 -5.85338e-17)
(-1.59962 -0.662668 8.4877e-18)
(5.68548 0.565591 -6.28065e-18)
(0.745809 0.365409 1.0491e-16)
(11.6534 0.74871 2.01714e-18)
(-0.429719 -0.187658 -1.03008e-16)
(3.2606 -0.0274787 0)
(0.586922 -0.0308172 1.83303e-16)
(8.88379 0.208527 6.8731e-18)
(7.2631 0.511799 2.28922e-18)
(-0.625996 0.652238 -2.57856e-16)
(-1.01005 0.600525 2.50692e-16)
(0.779855 0.375449 2.56096e-16)
(0.719633 -0.676005 -1.21528e-16)
(3.53334 0.47867 8.06435e-18)
(0.037749 3.56757 0)
(3.6577 -0.0735376 -7.59705e-17)
(4.91283 1.26877 -1.24545e-17)
(-1.47139 -0.183105 0)
(-3.33788 0.102661 -4.24341e-19)
(0.716909 7.20412 9.34798e-17)
(-1.73194 0.172913 -5.37177e-16)
(2.22234 -0.019926 0)
(-1.67307 -1.15552 -2.08125e-16)
(-4.81825 -0.113762 1.87601e-16)
(-0.0955195 6.476 1.04417e-17)
(-0.031981 6.20785 0)
(1.36828 7.03542 6.73442e-18)
(-0.194265 1.17307 3.53419e-16)
(2.41733 -0.0260353 0)
(-0.314588 -0.550941 -5.56849e-16)
(-2.81161 6.83405 -2.03124e-16)
(-2.8032 0.500444 2.6439e-16)
(-1.00742 6.80852 -7.44254e-17)
(3.07516 0.734753 -8.84992e-19)
(-0.307873 -0.301452 6.58533e-17)
(-1.05754 0.075899 0)
(-1.50031 0.116016 -2.01108e-16)
(-1.46688 -0.110554 0)
(1.02214 -0.0636892 0)
(0.190909 -0.190642 -2.24316e-17)
(0.477922 -0.108215 7.64933e-17)
(0.559865 0.148658 2.40415e-16)
(-1.13397 -0.170302 1.43275e-16)
(-0.196825 0.00931239 0)
(0.99854 -0.360392 1.51837e-16)
(-3.77823 -0.151992 0)
(0.23703 -0.470682 5.06139e-16)
(-3.1828 0.173235 -1.51121e-16)
(3.3725 0.0845555 3.259e-16)
(2.10384 -0.137393 3.31027e-16)
(-2.4013 0.165933 -6.85515e-17)
(3.02024 0.0897746 -7.79868e-17)
(1.98418 0.190309 8.85528e-17)
(-1.64294 0.638217 0)
(-0.305821 -1.00275 -2.98445e-16)
(-3.24502 0.279632 9.51099e-17)
(-1.51565 0.681628 0)
(9.93073 0.207516 3.43643e-17)
(0.838718 0.23311 1.69108e-16)
(0.198478 -0.841613 0)
(0.153421 5.30394 0)
(2.36171 -0.0402083 7.33641e-17)
(-0.625719 -0.293346 0)
(-0.0810701 1.09205 2.32299e-16)
(0.0423474 5.20386 -6.40677e-17)
(-0.188994 -0.261537 -1.84498e-16)
(0.862502 6.93509 -1.93135e-16)
(1.66094 -0.513255 2.47854e-16)
(-0.57339 -0.43174 1.4079e-16)
(0.445877 -0.562007 2.22866e-16)
(1.38024 -0.201595 6.29093e-17)
(-0.160322 6.71906 7.42833e-20)
(-1.28485 -0.163572 -1.91438e-16)
(-0.0783253 6.86203 -2.58867e-17)
(0.371449 0.583078 -3.30938e-16)
(10.4741 0.551991 -2.10263e-18)
(3.50158 2.38808 6.49241e-17)
(6.47805 0.580264 -5.35946e-18)
(2.7629 -0.141291 1.99962e-17)
(7.67892 1.37877 -3.45313e-18)
(-2.92447 6.5594 1.14315e-16)
(3.60401 0.0195698 -1.11115e-16)
(3.35958 -0.0986702 8.27392e-18)
(0.754323 0.03845 -4.82805e-17)
(-0.0393934 3.18498 -1.36006e-16)
(-0.570383 5.21399 3.9743e-16)
(3.68466 0.5696 7.73184e-18)
(1.10621 -0.118092 2.01554e-16)
(4.0801 1.11192 2.67919e-17)
(7.73995 0.793163 -7.39695e-18)
(0.712702 6.02622 0)
(-0.265715 6.03805 -2.62051e-17)
(9.99198 0.395731 3.54533e-18)
(2.79852 1.26775 -1.17894e-17)
(10.4517 0.365915 0)
(3.14485 0.000519124 0)
(-0.185333 1.6168 -1.60376e-16)
(1.46224 5.96747 -2.22848e-16)
(0.734123 3.67388 -3.38583e-17)
(1.59831 0.0843167 -3.62657e-16)
(-0.739777 -1.64861 0)
(1.43289 3.1294 6.65423e-18)
(10.6292 2.60174 -2.44307e-18)
(0.0502404 1.99332 1.107e-16)
(0.058406 4.33693 0)
(0.837522 3.33821 -9.94318e-18)
(3.3846 1.64718 -4.50418e-18)
(-0.348686 6.56579 4.01105e-17)
(9.90794 -0.0269833 2.28257e-17)
(-0.0107181 6.15048 -4.79286e-17)
(-0.415332 6.77033 -2.46876e-17)
(-0.292603 6.96176 -3.69655e-17)
(1.17265 6.0653 0)
(-1.58271 0.0132557 0)
(4.36781 3.04719 -6.02251e-17)
(4.8954 1.79967 0)
(2.19649 3.5361 -1.85498e-16)
(1.61694 0.275363 2.76524e-16)
(1.61508 -0.312366 0)
(1.25749 1.5286 -5.80176e-19)
(3.58307 0.0278485 -6.3425e-17)
(1.44541 7.99769 -3.40264e-17)
(3.21559 -0.0173728 7.1091e-17)
(-2.29554 6.61093 -3.71322e-17)
(-0.0570724 6.35543 3.10849e-18)
(-0.207037 6.25138 7.0462e-17)
(1.09971 0.173293 2.33021e-16)
(9.85083 0.751989 -1.11253e-18)
(0.916362 0.142337 -1.61971e-16)
(0.537409 0.124414 3.56798e-16)
(3.3887 -0.0457547 0)
(-0.0985699 6.27187 2.21154e-17)
(-0.0868068 6.40202 2.62606e-17)
(10.9729 1.09743 0)
(-2.38115 0.491048 3.75663e-16)
(-0.196994 6.97716 1.1487e-16)
(2.54932 3.66718 -4.37452e-17)
(1.6732 4.38277 -4.59319e-17)
(1.22147 7.67963 2.29971e-16)
(-0.143404 7.37277 1.80097e-16)
(1.05981 2.41202 0)
(2.84268 0.0139579 2.09961e-16)
(3.4664 -0.0459728 0)
(-0.0680212 6.5365 -1.01799e-16)
(9.89277 1.32771 1.89833e-18)
(2.16048 6.9252 -2.74798e-17)
(4.49108 1.15474 2.74945e-17)
(-0.0380141 7.11739 1.25436e-16)
(0.825359 7.58177 4.05382e-17)
(3.92719 0.697781 3.22031e-17)
(0.0185415 5.41451 -4.19459e-21)
(-0.0725212 6.51084 -2.90638e-18)
(-0.335254 6.83576 5.17646e-17)
(-0.0974878 7.06027 -2.56036e-17)
(6.88721 0.94076 8.35815e-18)
(-0.133813 6.4218 0)
(-0.121379 6.33249 -3.22551e-17)
(0.0603535 5.86317 0)
(0.472863 0.988549 3.31423e-17)
(2.45389 -0.0233254 6.00183e-17)
(3.08354 4.4302 1.17228e-17)
(9.83064 1.00383 -7.42968e-19)
(-0.270373 6.61969 0)
(-0.371684 6.6769 2.01394e-17)
(-0.410713 -0.888017 5.42146e-16)
(-0.305855 6.50133 2.00129e-16)
(1.3236 8.34931 0)
(-0.160031 6.97843 -2.28694e-16)
(0.650246 0.145003 1.61053e-16)
(0.121122 -0.356015 0)
(9.19478 0.461149 -3.01493e-19)
(2.82257 -0.138606 1.92069e-18)
(3.2066 0.250354 -1.15921e-17)
(-0.0259083 6.27512 3.62102e-17)
(-2.23052 7.81622 -3.72753e-17)
(2.88303 -0.117598 -4.34699e-20)
(10.0262 1.7289 -4.51834e-18)
(5.99312 1.55734 3.29244e-17)
(-0.214174 6.91563 -3.78719e-17)
(-0.0452538 3.10471 9.73151e-17)
(9.9567 0.230527 -2.08558e-17)
(1.63495 3.78911 0)
(3.18469 -0.0623449 6.45246e-17)
(0.0139122 5.66716 2.28166e-17)
(1.43708 7.04678 -5.27178e-17)
(-0.417441 3.22466 -1.62138e-16)
(1.12586 4.96601 0)
(1.02367 8.65446 6.05564e-17)
(-0.663896 0.0577234 0)
(0.100387 0.919632 -6.37301e-17)
(-0.166672 6.7538 4.51927e-17)
(2.15844 0.774601 -1.36035e-17)
(0.18821 0.354886 6.69862e-17)
(8.19752 1.2223 0)
(-0.2376 5.78968 2.19194e-20)
(8.74124 1.02841 -6.70481e-17)
(1.18122 6.39891 2.12909e-17)
(-0.0487801 5.44239 -7.78279e-21)
(-0.0768933 4.66293 -5.82968e-17)
(0.537044 5.26699 0)
(-2.72057 7.56926 1.28509e-16)
(0.0738585 4.98155 8.39101e-17)
(1.01701 5.19476 1.85056e-16)
(2.77002 0.330505 0)
(5.50397 0.930785 0)
(-2.09081 8.38445 1.02516e-16)
(5.39232 1.42224 -4.01406e-17)
(11.1784 0.525297 0)
(2.1267 1.4829 -3.01444e-17)
(0.923052 0.315539 -1.93482e-16)
(-0.616885 3.04546 1.75328e-16)
(4.4398 1.63095 -3.28769e-17)
(0.0501503 6.23846 -4.57809e-17)
(0.772622 7.13106 -1.32836e-16)
(-0.0130143 7.16159 -2.97002e-17)
(1.83027 4.78573 0)
(0.192295 4.31729 0)
(-1.31563 2.03023 1.46624e-16)
(-0.0368229 5.27324 6.46717e-18)
(0.951143 6.13865 -1.35854e-16)
(-3.86972 0.66556 -1.47175e-16)
(1.93996 0.581868 -3.74663e-18)
(-1.8765 6.26124 5.28041e-17)
(0.237774 5.84009 -3.84842e-17)
(2.9479 -0.0793073 -4.37794e-17)
(2.66293 1.93175 1.99196e-17)
(-0.389249 6.81774 -2.10167e-16)
(-1.87302 8.58613 -1.82146e-16)
(3.66265 1.03998 -1.84007e-17)
(5.15043 3.73106 2.06052e-16)
(0.171017 -0.163641 0)
(-0.435914 0.274143 -8.52629e-17)
(0.118822 0.57208 0)
(-0.112572 2.00857 -3.5054e-16)
(4.78603 2.20629 0)
(1.94857 3.64294 1.31907e-18)
(2.79362 0.46904 1.51363e-17)
(1.10246 0.561248 -1.79438e-17)
(6.31829 4.97684 1.10025e-18)
(2.92738 2.77702 1.88621e-17)
(4.50222 2.54397 0)
(-2.71448 -0.378223 0)
(0.0777203 6.63943 0)
(1.12724 3.06794 3.94592e-16)
(-3.43107 -0.00624453 -1.32932e-16)
(-2.93014 0.053498 0)
(-0.705533 2.84623 3.72193e-16)
(2.61751 0.355258 2.85908e-17)
(3.29736 0.155048 5.59203e-17)
(0.0417315 5.03078 1.60635e-16)
(1.61042 -0.0985294 1.34848e-16)
(-0.449843 2.40231 -3.92705e-16)
(-0.182369 -0.117766 -3.43161e-16)
(2.60261 -0.0801829 -1.4293e-17)
(-2.33519 6.18268 -2.21211e-17)
(-1.31507 4.35195 0)
(6.42364 0.986619 5.84229e-18)
(0.76211 2.82245 -1.86028e-16)
(0.374478 1.34905 0)
(-4.58314 0.301199 0)
(-2.51368 6.07344 1.73985e-17)
(4.89293 4.72195 7.92301e-17)
(-1.2519 6.91508 0)
(-0.117045 1.75813 2.18201e-16)
(0.030853 6.44459 0)
(1.70783 1.10268 2.06224e-17)
(8.89973 0.751402 6.10577e-17)
(4.83486 4.19929 -1.43766e-16)
(-0.573038 6.30339 0)
(1.45232 2.06647 1.88514e-16)
(-1.15104 -1.3759 -2.49344e-16)
(0.429205 6.791 1.29328e-16)
(3.81144 3.88172 -6.26867e-19)
(-0.961376 -1.71191 1.95624e-16)
(1.10153 3.67092 -1.46107e-16)
(8.87065 2.52266 1.99668e-18)
(0.700225 0.491596 -7.97071e-17)
(9.74847 0.284623 -1.62875e-19)
(-1.746 8.65553 -9.74154e-19)
(-0.0367116 -0.0131992 -4.17809e-16)
(-0.0316899 4.38496 -2.46748e-17)
(-0.00445403 5.18369 -5.14375e-17)
(1.87162 0.38625 3.60877e-18)
(1.51794 0.462994 -3.12077e-17)
(7.74215 4.48527 1.79425e-17)
(-0.185942 1.62636 2.10962e-16)
(11.5035 3.59444 -3.4904e-19)
(-0.218637 7.42621 2.51266e-17)
(0.464587 5.60334 1.04187e-17)
(1.41402 8.44274 -7.81801e-17)
(-0.231764 -1.00741 -1.70388e-16)
(8.46026 0.288708 9.92369e-17)
(2.63628 4.23655 0)
(-1.38177 6.56374 6.53065e-17)
(7.7439 1.28895 -1.06201e-18)
(3.69642 3.25077 -1.89634e-17)
(-0.362407 0.635713 -7.53558e-17)
(-1.601 2.05512 0)
(7.70913 1.81334 -2.12046e-18)
(-3.10508 6.94489 2.31077e-16)
(0.389249 2.49921 1.03837e-16)
(0.769506 2.28304 0)
(-1.52985 -1.33455 1.09667e-16)
(9.81024 4.81236 -1.07136e-17)
(-0.063304 2.00765 5.53487e-17)
(1.79904 4.74409 -4.57878e-16)
(-0.136889 1.75581 3.51525e-18)
(1.79296 2.86402 0)
(2.77777 4.80679 -2.05556e-17)
(2.23335 0.0779826 1.18607e-16)
(1.17321 4.61115 -1.46175e-16)
(0.961331 4.58497 1.47651e-16)
(3.03591 -0.025348 1.41894e-16)
(6.59832 1.54834 -4.3275e-18)
(0.612301 6.61437 -1.4449e-18)
(-1.67464 5.68849 1.25672e-19)
(-1.87808 5.77829 -8.05361e-17)
(-0.286136 1.76993 -4.26329e-16)
(-0.0942248 2.32862 -5.53898e-17)
(4.21059 4.18136 -7.39295e-17)
(-1.42998 5.91901 1.90856e-17)
(5.46189 2.07314 1.11288e-16)
(-2.16066 6.91791 -1.68261e-17)
(0.0826765 2.52714 -6.26727e-17)
(-0.751659 4.69495 -3.29698e-19)
(-0.204657 1.83637 9.55676e-17)
(-0.120217 0.210037 9.50474e-17)
(2.84856 0.203577 3.05459e-17)
(-0.49501 4.4578 1.26254e-17)
(4.37765 3.74456 0)
(1.38381 3.39558 0)
(-0.238597 4.25114 6.4514e-18)
(-1.91037 4.24177 9.38702e-17)
(-0.124664 1.81058 -2.04926e-17)
(-2.84511 -0.717983 1.23057e-16)
(3.59547 4.48699 -2.43193e-19)
(0.277061 0.741939 0)
(0.293056 2.74931 -1.8097e-16)
(-0.0198887 4.12966 0)
(-0.0717113 5.42888 -5.57888e-17)
(-2.51191 5.55852 -2.58103e-16)
(1.31272 5.05849 -7.51573e-17)
(3.77141 4.28915 3.048e-17)
(0.146175 4.1208 1.41727e-17)
(-0.249343 -1.36334 3.27025e-16)
(-1.15368 1.34447 3.47689e-19)
(1.28155 -0.276173 9.68495e-17)
(-1.87246 0.600685 -1.57797e-16)
(11.7304 1.72273 2.06478e-18)
(-1.77544 5.27713 9.06549e-17)
(-1.49369 5.46311 1.38657e-16)
(-1.77885 5.9634 4.35068e-19)
(-1.23628 5.6269 0)
(-2.0996 6.33005 -8.15126e-17)
(-2.37788 6.3212 -6.56408e-17)
(-2.03935 5.69418 -6.49187e-17)
(-2.83047 6.99838 -1.24163e-16)
(-2.45666 6.1515 2.09179e-16)
(-3.03788 7.15536 4.95537e-17)
(-0.0416251 -1.57976 0)
(9.77531 0.580577 1.39433e-18)
(0.323585 -1.43754 -7.93933e-17)
(0.345404 -1.03554 2.35495e-16)
(-1.11701 -0.496235 -3.14726e-16)
(0.450336 0.224909 -2.97828e-19)
(0.426638 1.30182 0)
(0.953165 1.03757 -7.26483e-17)
(1.6624 0.0529879 4.50682e-17)
(0.457892 -0.0255144 6.22643e-17)
(0.561865 0.012553 5.73426e-17)
(-0.155044 -1.09062 -2.11362e-16)
(-0.42685 0.900478 -1.53993e-16)
(-0.0177811 -1.20297 0)
(-0.683275 0.967041 -8.24602e-17)
(0.0946214 0.622609 2.66974e-16)
(0.490608 -0.034206 8.68807e-17)
(8.29474 0.415172 -2.24345e-18)
(0.163137 -0.802774 0)
(-1.93722 0.129764 1.62314e-16)
(0.359777 -0.0112578 -1.18554e-16)
(-2.27548 -1.33747 1.5288e-16)
(8.38341 0.244017 -3.04112e-17)
(-0.607534 0.549547 -2.39644e-16)
(-1.94986 0.072593 -1.01067e-16)
(-2.34526 -1.62463 1.59581e-16)
(-0.713093 -1.99204 2.42635e-16)
(8.37788 0.125977 1.04888e-19)
(-1.36118 -1.70965 -1.92227e-16)
(8.49493 0.0804894 -2.6454e-17)
(-0.434443 -0.502472 -5.98477e-16)
(-0.501729 -1.08153 0)
(-0.707261 -1.57256 -3.89808e-18)
(0.652942 -0.111116 0)
(9.92257 0.318798 3.83623e-17)
(9.85812 0.445943 1.19506e-16)
(-1.24148 -1.48293 1.04368e-16)
(-1.47077 0.153132 -9.25936e-17)
(-0.272382 0.787091 5.12686e-16)
(0.13079 -1.14789 0)
(0.267225 -0.192616 0)
(-0.354495 1.00093 0)
(9.70886 0.400396 2.67303e-17)
(0.260476 -0.989946 1.97282e-16)
(-1.9705 0.557357 1.20362e-17)
(0.689375 -0.237954 2.26456e-16)
(-0.60845 -0.260423 0)
(-1.56597 0.243944 0)
(-1.49483 0.226842 1.50347e-17)
(-2.52383 1.42517 9.9901e-17)
(9.2863 0.510002 -7.65838e-17)
(0.0463348 -1.44914 1.78992e-16)
(-1.69147 0.258381 1.03944e-16)
(-1.83568 2.21124 1.92689e-16)
(0.970241 -0.403904 -2.7845e-16)
(-0.811899 0.788052 -1.31749e-16)
(-2.07036 0.364919 8.68081e-17)
(9.09931 0.736382 1.80523e-17)
(-0.542577 -1.25746 -2.23723e-16)
(-0.768102 0.950093 -4.67312e-16)
(-1.26003 1.34226 1.15192e-16)
(-1.53757 3.45582 -2.43009e-16)
(-0.0408649 0.114386 8.75795e-16)
(-0.917006 0.315039 -1.55361e-16)
(9.15198 0.93656 -3.75787e-17)
(9.5443 0.643178 -1.00334e-16)
(0.885717 -1.15764 -2.40639e-16)
(-0.419666 -0.30131 2.00407e-16)
(-0.540855 0.0767426 1.79863e-16)
(-0.428117 0.61168 0)
(-1.38263 2.48438 1.56597e-16)
(0.235467 -0.913933 2.64417e-16)
(-0.343508 1.58186 0)
(-1.12689 0.468569 0)
(-1.53141 -1.03504 1.46142e-16)
(1.67707 0.280134 -1.61021e-16)
(-1.60464 0.938553 -5.67722e-17)
(-1.98603 3.21872 8.33237e-17)
(-0.392153 -1.30301 1.52212e-16)
(9.59011 0.882518 -3.28818e-17)
(-0.0536538 0.582108 0)
(-0.341664 1.34575 -3.15667e-16)
(-0.24906 0.934544 -1.87687e-16)
(3.15577 0.0356517 -5.33383e-17)
(-2.06031 4.33479 -6.23669e-17)
(2.09045 -0.109249 -8.44428e-17)
(9.30542 1.28207 6.22179e-17)
(-0.203388 6.22724 -2.76797e-19)
(-0.62432 -1.54133 0)
(-0.220249 0.379582 2.50227e-17)
(1.79052 1.73509 1.43043e-16)
(0.556525 5.7208 -1.46766e-16)
(-2.2711 5.37435 0)
(-0.462948 0.219933 0)
(-3.00912 7.21694 0)
(-1.0679 0.922858 2.57613e-16)
(0.548603 1.70728 2.26751e-18)
(1.01574 0.155729 3.97151e-17)
(-2.18297 4.62284 3.76909e-17)
(-0.339303 -0.766617 2.01824e-16)
(-1.17695 5.67808 1.18314e-16)
(-0.605731 1.89272 -2.26817e-16)
(-0.661355 3.84734 -5.3546e-17)
(0.0840061 3.71988 3.18529e-16)
(-0.522025 1.17462 4.25432e-16)
(0.151767 1.14519 5.60954e-17)
(2.06321 3.83283 -6.0872e-18)
(1.31857 3.28403 -5.39425e-17)
(-1.45054 5.66514 0)
(-3.20024 7.57336 0)
(2.59707 4.74967 2.00189e-16)
(-0.681202 1.12719 2.91573e-16)
(-1.36181 5.14454 0)
(0.423958 3.93712 -2.93952e-16)
(0.851802 -0.452705 -3.40967e-16)
(-0.276616 1.98411 -4.89585e-16)
(2.00187 -0.164512 1.42671e-17)
(-1.12395 1.96085 -1.07244e-16)
(0.91847 1.64766 6.11101e-18)
(2.69843 6.74646 0)
(-3.21241 7.68596 2.18425e-17)
(9.52682 1.56089 -5.80597e-18)
(5.39917 3.23085 6.18651e-17)
(-0.453567 6.45854 0)
(5.31139 7.33081 0)
(-0.174656 6.44475 5.03942e-17)
(1.17846 3.35229 0)
(3.41714 -0.0786242 -8.21927e-18)
(-1.53303 2.95876 -6.95232e-17)
(-1.80908 5.55588 1.29922e-16)
(0.0873333 4.91614 -2.84758e-17)
(5.39679 5.07847 -3.28015e-17)
(-2.66465 6.28526 -3.82106e-17)
(-0.236374 1.50888 -9.50187e-17)
(0.131137 5.56975 5.36547e-17)
(1.98881 3.03404 4.19402e-17)
(2.46556 0.0378855 1.0293e-16)
(-0.132009 1.08135 0)
(-2.09989 5.09653 8.39003e-18)
(-1.26795 5.05394 -2.16933e-18)
(-0.136655 4.98592 0)
(3.27291 5.00519 2.56939e-18)
(-0.0131844 1.03812 2.12103e-16)
(3.49391 4.31237 -1.03335e-16)
(3.90853 4.37062 1.42378e-16)
(-0.107275 6.92629 3.53779e-21)
(-0.21027 6.50053 -9.44278e-17)
(0.636394 5.12179 -3.83899e-16)
(0.0189719 5.33623 0)
(0.0535665 0.38177 1.21127e-16)
(-1.83085 4.03052 -2.01187e-17)
(-0.143378 2.15472 3.62732e-17)
(1.4012 6.25388 -1.83517e-18)
(2.33442 5.20139 -9.52271e-17)
(-0.145407 6.35186 -1.66556e-19)
(-2.59155 6.72542 0)
(-0.306687 -1.08202 -1.63777e-16)
(2.02693 4.51894 3.85706e-16)
(3.95717 1.69463 0)
(9.90847 0.563733 2.12066e-18)
(1.74798 5.47334 3.20014e-17)
(-2.18528 5.50117 4.47079e-18)
(0.158264 3.35739 4.67369e-17)
(0.30757 5.28931 0)
(3.15235 4.18952 1.05264e-16)
(0.822526 2.31619 -2.52703e-16)
(2.69506 11.3352 4.70072e-18)
(4.29975 4.4423 5.35976e-17)
(-0.526558 -0.114145 -4.92312e-17)
(1.21723 -0.285962 -2.0682e-16)
(2.23886 -0.0372663 5.42416e-17)
(-0.5375 6.09544 -6.26937e-17)
(0.804504 4.75297 2.20565e-16)
(-2.31732 5.33004 -1.06085e-17)
(-0.15796 1.5973 -8.37328e-17)
(-0.977185 3.43944 1.71521e-16)
(10.9888 0.154601 -9.73236e-18)
(2.69704 -0.122528 -3.30255e-17)
(-1.75544 2.21283 -7.90869e-17)
(0.977271 3.76894 -2.33641e-17)
(3.31612 0.881672 -1.30034e-17)
(2.27197 2.40591 -2.54539e-16)
(0.288547 5.41475 -5.41697e-17)
(0.619637 4.12411 1.38594e-16)
(-0.793699 6.35127 6.17396e-17)
(1.62978 2.90238 -7.7987e-17)
(-2.54468 6.58121 -1.2568e-16)
(-0.112057 0.00408275 0)
(4.02719 4.68905 -5.47892e-17)
(0.302682 1.505 0)
(-1.45439 6.32435 6.98809e-17)
(0.845554 6.80914 0)
(-1.31194 -0.103461 3.7856e-16)
(-2.81936 6.42179 -1.23833e-16)
(0.270783 4.89335 3.57904e-17)
(3.08141 4.0018 8.10847e-17)
(6.23569 0.632631 -6.87851e-17)
(1.99581 0.212612 1.16964e-16)
(-0.284542 1.03788 -2.31826e-16)
(1.05374 1.72273 8.24392e-17)
(-0.443668 2.12501 -1.99454e-16)
(5.50567 2.69968 -2.06067e-16)
(1.53607 -0.0724177 5.2628e-17)
(0.259724 3.53478 0)
(-0.227955 1.71877 -3.55503e-17)
(-1.19892 6.06537 5.13725e-17)
(2.42933 3.54516 -2.10629e-17)
(1.57344 3.03645 1.36218e-16)
(3.0514 1.01158 1.50114e-16)
(3.26365 3.57694 1.72708e-17)
(-1.54647 2.53283 8.91983e-17)
(-2.7278 8.21646 -3.76449e-18)
(-0.0206742 0.915615 1.62367e-16)
(3.70831 4.34127 -9.38488e-17)
(1.50745 -0.61769 4.89325e-17)
(1.29799 2.6421 -7.93804e-17)
(-0.17436 1.52662 -2.3061e-16)
(2.23234 3.92174 -5.10601e-17)
(-1.26059 1.64499 0)
(8.3841 0.488505 -1.66012e-16)
(7.14482 1.45596 1.15164e-17)
(-2.05117 5.91682 9.15702e-17)
(-2.3944 5.50043 2.92496e-16)
(-0.222418 6.26997 2.29729e-17)
(-1.21579 2.70239 0)
(0.872351 0.223341 -1.59458e-16)
(-0.982629 1.29996 5.0083e-17)
(-1.76248 1.02901 -1.81435e-16)
(1.15867 6.68392 -1.33994e-19)
(-2.41188 -1.31255 -1.01175e-17)
(0.274167 4.13524 4.92807e-17)
(3.88887 0.652261 -7.47601e-18)
(9.34953 0.457468 0)
(-3.21273 7.31492 0)
(-1.64834 2.27445 -4.36962e-17)
(0.667032 -0.598574 1.87924e-16)
(9.95273 0.520503 0)
(0.166812 -0.0439949 2.94393e-19)
(0.035461 1.5111 -3.67149e-16)
(0.88829 0.565837 0)
(1.18956 0.875906 0)
(0.83652 3.44525 -1.01513e-16)
(3.40918 4.12584 1.81793e-17)
(8.74589 0.40124 0)
(-4.12035 -1.1062 1.04722e-16)
(-4.35921 -0.138062 -6.91431e-17)
(-1.99423 4.41565 0)
(-0.317568 1.28399 0)
(0.463516 -1.32707 1.43499e-16)
(3.19281 0.18118 -5.35186e-18)
(-0.054688 2.79331 1.03401e-16)
(-0.0460039 2.6601 -2.05272e-16)
(-0.657912 3.27334 5.38659e-17)
(2.92753 0.157274 0)
(2.50404 0.0815634 0)
(-2.40098 6.81855 -8.82178e-17)
(4.98381 0.248172 -2.06823e-18)
(0.513872 0.703449 -2.48596e-16)
(2.35782 0.0297568 1.34688e-17)
(5.48275 4.46725 -3.08918e-18)
(4.18985 0.228534 0)
(3.02346 4.13275 0)
(-0.43639 5.15538 -5.61475e-18)
(2.69465 0.125228 0)
(-0.215575 1.34698 0)
(10.8096 0.595933 -1.18832e-18)
(0.0682194 0.829635 -3.25891e-16)
(4.57125 0.238401 0)
(2.40127 3.61274 -3.24353e-18)
(-0.00514631 2.3626 3.34041e-17)
(-0.20068 1.59876 1.1133e-16)
(0.787362 2.77508 -1.5803e-16)
(0.645687 6.18883 -2.96324e-18)
(-0.174761 7.0737 2.21281e-17)
(-3.74214 0.0705465 -1.92428e-19)
(-0.695802 5.20067 -2.53945e-16)
(-1.65129 3.53807 -5.71775e-19)
(-0.463824 0.89253 2.50788e-16)
(0.257853 0.0362659 -2.73785e-16)
(-0.174963 1.19208 2.29041e-16)
(-0.599289 4.30156 0)
(-0.0925934 6.42697 1.52266e-18)
(9.37232 0.421455 -9.26586e-18)
(-0.543561 5.88961 0)
(-3.2347 1.21467 3.48459e-16)
(4.08947 0.432131 1.41666e-17)
(-0.00371459 4.43551 0)
(-2.00856 4.54104 2.26846e-16)
(1.83559 7.4039 0)
(1.94249 8.02391 2.47777e-17)
(-0.257358 0.0197624 0)
(4.77347 0.817655 1.74552e-17)
(-1.24107 3.00745 -1.76007e-16)
(1.24006 0.0473277 -9.60627e-17)
(0.203066 1.55227 -1.82738e-17)
(-0.197822 2.2693 1.73359e-16)
(-0.62364 2.81713 -5.50822e-17)
(5.38231 0.260588 7.54336e-18)
(8.27958 0.343201 0)
(1.94676 -0.196609 -1.64452e-17)
(-0.0795589 3.99047 0)
(-0.164604 1.66288 0)
(0.989477 0.232066 -1.22169e-16)
(0.586313 1.23285 0)
(-1.66196 4.5608 0)
(1.66038 1.81116 -3.61644e-17)
(1.27638 -0.0606175 0)
(-1.15804 -1.73489 1.30715e-16)
(-0.109524 1.53368 7.46337e-17)
(-1.32772 0.412297 1.90621e-16)
(-1.61633 4.7414 9.24542e-17)
(0.635948 1.64733 1.69903e-17)
(3.42813 0.38179 -4.94077e-17)
(-0.894864 -0.00488284 -3.46477e-16)
(13.0284 2.57677 0)
(-0.0911774 1.4175 0)
(-1.20284 4.15688 -1.63561e-16)
(0.394997 1.12716 -1.00642e-18)
(-0.148624 1.88088 1.5543e-17)
(0.554229 1.52194 1.90695e-17)
(10.2771 2.20525 3.07066e-18)
(0.993216 1.55617 4.39862e-17)
(-0.213483 1.99385 -6.34827e-17)
(-1.0263 0.900496 3.27356e-16)
(0.0332027 -0.514713 -2.58897e-16)
(0.024279 6.22742 0)
(0.331073 -0.371943 4.12575e-16)
(0.718081 0.265431 -2.19493e-16)
(0.0681792 3.33472 -3.01008e-17)
(-0.0574851 0.782446 -1.73474e-17)
(-1.54604 3.57203 -2.60562e-16)
(-0.102398 6.50722 -4.39958e-18)
(-0.100796 1.32495 2.15997e-16)
(-0.599487 2.44153 9.43755e-17)
(-0.69106 2.7204 0)
(2.17724 5.6136 6.72816e-17)
(2.32618 -0.0572377 5.09053e-17)
(0.236097 6.88891 0)
(-0.889047 3.86809 -1.36613e-16)
(0.474139 0.532309 -5.92434e-16)
(3.2868 4.49642 0)
(-4.4536 0.244841 -9.0416e-17)
(-0.206123 5.73716 0)
(-0.563079 -1.43584 2.56335e-18)
(3.49554 0.202904 -2.48762e-18)
(8.97579 1.92315 2.06461e-18)
(0.774874 1.69695 0)
(2.194 5.42555 1.35945e-16)
(-0.271837 6.22119 -7.89041e-17)
(2.75254 5.20399 0)
(-0.146558 -0.28304 -1.17166e-16)
(-0.435471 1.59304 -1.07681e-16)
(-0.168169 6.46359 -7.27727e-17)
(-1.45151 4.93073 8.91266e-17)
(-0.322381 6.48016 1.59568e-16)
(2.28429 -0.0198338 -2.81266e-17)
(0.785136 -0.250168 0)
(0.0864816 6.30221 0)
(0.810585 -0.156488 2.97149e-17)
(-1.93038 6.51754 9.888e-17)
(-0.197889 6.65052 -2.65557e-17)
(0.510427 -0.039233 1.20264e-16)
(0.295074 -0.348274 -2.20667e-16)
(-1.56011 4.77645 0)
(-1.85998 4.8566 5.97732e-17)
(9.70908 7.0814 -1.2472e-18)
(-0.408012 6.40374 2.25869e-17)
(-0.0834239 2.09435 -1.74045e-17)
(0.0307953 6.74855 -5.27364e-17)
(0.360166 2.00205 2.20655e-16)
(4.80818 1.78156 2.41725e-18)
(3.27336 0.0080771 -1.12212e-16)
(1.39688 2.42506 0)
(10.7278 0.867904 2.26735e-18)
(-2.64371 7.20904 3.75876e-17)
(8.10817 0.621776 1.12773e-18)
(-1.72961 3.74825 -7.46595e-17)
(0.12151 -1.3714 -1.3334e-16)
(-2.27523 7.07829 -1.61897e-16)
(-0.182287 1.25555 -2.02683e-19)
(1.43151 0.514956 3.03696e-16)
(1.05141 5.70858 -1.04433e-16)
(0.451525 5.82687 -2.33383e-16)
(-3.03632 7.20261 2.77567e-19)
(3.84023 0.218109 1.00613e-17)
(-0.0628411 4.21397 -4.78355e-17)
(-1.99825 6.14747 2.17458e-17)
(0.214257 5.32225 -1.95252e-18)
(0.0991895 -0.962373 0)
(-0.681646 -1.67411 0)
(-2.73024 7.09674 -4.65245e-17)
(5.82617 0.271206 1.72565e-18)
(7.85096 0.235602 -1.36419e-17)
(-0.236305 6.20533 1.13358e-16)
(2.94374 3.91364 -2.39646e-17)
(2.66546 0.0712892 6.78018e-17)
(2.61806 -0.0142485 7.35016e-18)
(-1.81771 6.57457 3.29681e-17)
(-0.806704 5.4378 -8.30364e-17)
(0.523313 3.68388 3.26288e-16)
(-0.983956 6.12677 -7.14322e-17)
(-0.530703 0.923143 0)
(-0.951598 0.695728 -9.34471e-17)
(-0.330019 4.90265 -7.53595e-17)
(0.578905 4.63635 0)
(7.3269 0.87778 -1.00063e-17)
(-3.68444 0.721739 4.95054e-17)
(5.47452 0.346353 0)
(0.569588 7.21193 0)
(6.32043 2.37447 -2.75181e-17)
(-0.193619 7.43891 1.14448e-17)
(0.307602 5.42581 -5.45043e-18)
(-1.78045 5.62161 0)
(0.802344 2.21313 6.46576e-17)
(-3.77795 -0.0878749 4.01992e-16)
(-2.54945 -0.607273 -3.98613e-16)
(3.36563 0.176022 -3.61436e-17)
(1.99985 0.386143 6.84711e-17)
(-3.78018 0.0693164 1.26411e-16)
(-3.8708 -0.30939 0)
(1.10732 2.85477 -5.77345e-17)
(3.42015 4.51227 -1.45238e-18)
(1.58821 0.928025 8.32079e-17)
(2.25625 4.52333 -2.09301e-17)
(-2.72542 6.01437 0)
(-0.10149 2.63406 1.01306e-16)
(-2.47493 5.47502 5.62141e-17)
(1.33155 -0.828319 0)
(8.93059 0.544912 1.47507e-16)
(0.0602024 2.69638 0)
(-3.22519 7.24632 0)
(3.6588 4.69327 -2.50624e-18)
(-1.21084 4.22564 1.65652e-16)
(0.028538 0.874798 1.81589e-16)
(1.9004 -0.125096 -2.14363e-16)
(-0.255028 -1.08815 1.92527e-16)
(0.846578 0.485425 2.25771e-16)
(-0.115905 1.07818 0)
(-0.0137203 2.28118 6.83283e-20)
(-0.132634 0.728619 -2.59924e-16)
(7.96824 0.0802212 -6.82221e-17)
(-0.314774 -0.254304 5.59447e-17)
(-0.183715 1.40468 3.88707e-16)
(1.43737 0.439593 -1.27998e-16)
(2.47828 2.18637 1.33959e-17)
(6.61448 -0.0566355 4.13212e-17)
(4.62976 0.459918 -7.10776e-17)
(0.167597 7.47421 8.45157e-17)
(0.0560697 5.37901 3.54305e-19)
(0.0700778 5.3096 7.02288e-17)
(0.0350689 5.10977 6.43176e-19)
(0.0584928 5.21062 0)
(0.166251 8.28817 -7.38988e-17)
(0.027572 5.3313 -1.34719e-16)
(-0.0117519 3.27492 -8.34123e-19)
(-0.0835375 3.68859 -2.1117e-17)
(-0.0553969 3.38461 0)
(0.0504813 3.37525 4.80172e-17)
(0.173046 6.85243 0)
(0.288965 9.13435 0)
(0.0670978 3.52592 -6.33755e-17)
(0.290487 5.70524 -4.1549e-18)
(0.22605 6.29194 -3.88434e-18)
(0.0663004 3.59515 2.01006e-17)
(-0.0146237 5.16355 7.08505e-17)
(-0.0490175 5.01537 0)
(0.0517482 3.61536 -2.7756e-17)
(-0.0556307 4.87601 0)
(-0.046314 4.82562 0)
(0.0364601 3.6074 2.06635e-17)
(-0.0419794 4.78693 0)
(-2.19599 4.85983 6.07225e-17)
(6.27341 3.82048 -5.03782e-17)
(-0.982604 -0.889355 2.04495e-16)
(-2.18671 1.11185 0)
(1.27443 1.8413 -1.18194e-16)
(-0.680949 -0.0926349 9.70383e-17)
(-0.412042 0.176483 5.13489e-16)
(8.36274 1.74557 -1.88905e-17)
(-0.19322 7.39779 -1.41875e-17)
(0.667427 5.89188 0)
(-0.52502 0.0619574 5.06034e-16)
(1.08261 -0.456433 2.65993e-16)
(-0.13616 0.626623 0)
(5.52126 0.00518252 3.21012e-17)
(0.222297 -0.654709 -2.39446e-16)
(0.00123725 1.50583 -1.28861e-16)
(6.54855 3.03003 9.26392e-17)
(1.05444 0.789971 -6.48765e-17)
(-2.48207 5.57621 5.91256e-17)
(0.732613 0.133838 -5.07979e-17)
(3.23848 -0.0240171 -7.33567e-17)
(7.89602 0.901094 -2.83116e-19)
(-1.21003 0.260449 -2.56834e-16)
(-0.0570799 4.71413 0)
(0.519458 3.16 3.34037e-16)
(3.10128 4.82003 6.24642e-19)
(-0.682566 0.211368 6.16578e-17)
(0.127488 1.72529 0)
(10.1551 0.202075 2.92969e-17)
(-0.125922 2.73379 -1.04337e-16)
(1.30531 -0.0693428 3.78974e-18)
(-2.29238 5.08042 8.34519e-17)
(-1.26136 4.50732 0)
(-0.169307 6.5785 5.79669e-18)
(-0.995327 6.34892 -4.28411e-17)
(8.44581 2.42542 2.4875e-17)
(-1.8047 -1.62714 2.22831e-16)
(-1.18851 -1.03006 -2.25207e-16)
(0.484016 -0.921934 1.69793e-16)
(-0.181316 0.0121469 -6.43718e-17)
(0.0436866 5.63439 2.71708e-17)
(-0.076609 5.82307 9.99295e-21)
(0.14469 4.16319 -1.83631e-17)
(-2.27516 1.09813 0)
(1.78039 5.69191 7.50535e-19)
(-2.5188 2.96681 3.72964e-17)
(1.28846 -0.115906 1.12891e-16)
(0.152563 -0.854368 0)
(-1.95661 3.08157 -2.43529e-16)
(0.325223 5.0504 0)
(10.5706 0.693227 2.07707e-18)
(-2.2471 6.56369 0)
(1.3021 5.16231 -5.40844e-17)
(-0.181615 0.497522 1.79145e-16)
(-1.40834 -1.83218 1.86158e-16)
(1.29587 -0.0761079 0)
(1.76417 -0.132716 -2.76786e-17)
(-0.0698684 4.2835 3.27493e-19)
(-0.204822 -1.09922 0)
(2.51812 -0.061381 0)
(0.979922 5.45517 -1.49402e-16)
(-0.0494344 6.47975 -8.41849e-18)
(7.31653 0.0519173 0)
(1.1581 0.907949 -9.39417e-17)
(1.85829 -0.126569 -2.01603e-16)
(-2.13186 -0.633007 0)
(-1.63726 3.5438 1.95711e-16)