/*--------------------------------*- C++ -*----------------------------------*\
| =========                 |                                                 |
| \\      /  F ield         | OpenFOAM: The Open Source CFD Toolbox           |
|  \\    /   O peration     | Version:  v1912                                 |
|   \\  /    A nd           | Website:  www.openfoam.com                      |
|    \\/     M anipulation  |                                                 |
\*---------------------------------------------------------------------------*/
FoamFile
{
    version     2.0;
    format      ascii;
    class       volScalarField;
    location    "0.05";
    object      nut;
}
// * * * * * * * * * * * * * * * * * * * * * * * * * * * * * * * * * * * * * //

dimensions      [0 2 -1 0 0 0 0];


internalField   nonuniform List<scalar> 
5794
(
0.000893934
0.000636776
0.0013281
0.00128523
0.00111672
0.000685323
0.000748261
0.000742272
0.00123924
0.000765825
0.000735509
0.000940049
0.000787298
0.000974595
0.000756736
0.000871299
0.00254321
0.000901981
0.000623496
0.00066128
0.0026214
0.000784787
0.000916861
0.000830213
0.0007361
0.00185377
0.00172226
0.000975543
0.000925212
0.000931193
0.000832916
0.00114649
0.000815845
0.000955113
0.000957747
0.000990929
0.000924485
0.000814373
0.000831728
0.000939637
0.000903057
0.000910677
0.000678768
0.00182753
0.000759376
0.000777264
0.000766187
0.000794677
0.000749193
0.000511881
0.000456281
0.000777881
0.00138213
0.00103927
0.00024845
0.000816491
0.000781385
0.000859755
0.000843811
0.00227427
0.00146687
0.000794308
0.000873594
0.00109388
0.000870383
0.000860177
0.00136
0.000920635
0.00102291
0.00064242
0.000894031
0.00134204
0.0012414
0.000970183
0.000908252
0.00111883
0.000263947
0.0016969
0.00188067
0.000239706
0.000925841
0.000730924
0.00088825
0.000862119
0.000861086
0.000353463
0.000521694
0.000305264
0.00116618
0.00128048
0.000773713
0.000902351
0.00085591
0.000801885
0.00085585
0.000925554
0.000684973
0.000784052
0.000953963
0.00156138
0.00143211
0.000999846
0.000719955
0.000913977
0.000876436
0.000878396
0.000678154
0.000680412
0.00118965
0.0018968
0.000782904
0.00062203
0.00200006
0.000862484
0.000770068
0.000642943
0.000884827
0.00085074
0.00136864
0.000976947
0.000868864
0.000395738
0.000716159
0.00105373
0.000855913
0.00093564
0.000756269
0.00074081
0.000770389
0.000716347
0.000784628
0.000764194
0.000844136
0.00156987
0.000883366
0.000845998
0.000663438
0.000852327
0.000906066
0.000869029
0.00106895
0.00116936
0.000826705
0.00110413
0.00101181
0.00211975
0.000787545
0.000923408
0.000978286
0.00105375
0.00120559
0.00091139
0.000880225
0.000684162
0.00200926
0.000829749
0.000687909
0.000572563
0.000598414
0.00073307
0.000721751
0.000677204
0.000609635
0.000676317
0.0006589
0.000580648
0.000571649
0.000574325
0.000677849
0.000483861
0.00054681
0.00102165
0.000593
0.000560241
0.000558625
0.000642907
0.000489043
0.000603025
0.000627435
0.000798944
0.000577531
0.000577118
0.00051265
0.000521799
0.000542861
0.00176514
0.000836366
0.000550738
0.000641261
0.00076908
0.000567178
0.000818547
0.000698169
0.000676071
0.000497337
0.000520582
0.000549679
0.000601515
0.000722514
0.000771908
0.000552108
0.00071273
0.000616954
0.000578186
0.000730353
0.00064252
0.000562029
0.000863538
0.00111538
0.00117357
0.00159563
0.00120874
0.000878338
0.000868753
0.000951559
0.000962783
0.000993641
0.000953193
0.000862624
0.000890345
0.00119293
0.000999496
0.000874479
0.000886941
0.00135094
0.000862112
0.000877735
0.000835628
0.000606116
0.000905396
0.000943554
0.000930718
0.00087934
0.00117636
0.00116943
0.0011649
0.00122523
0.000833663
0.000749316
0.00109955
0.00105306
0.000832523
0.00146116
0.000802896
0.000905083
0.000836168
0.000839845
0.00091556
0.000300526
0.000362906
0.000422165
0.000871282
0.00229087
0.000785424
0.00124792
0.00131431
0.00076229
0.000908447
0.000803207
0.000842145
0.000712352
0.000871796
0.000867338
0.000814028
0.000511597
0.000659125
0.00131791
0.000770021
0.00080189
0.000831664
0.000836991
0.000819625
0.00117003
0.000840929
0.000977329
0.000746567
0.00103823
0.00089409
0.000912877
0.000868947
0.000687966
0.000713112
0.000864393
0.000913649
0.000864306
0.000841876
0.00104187
0.000857303
0.000781239
0.000884715
0.000935603
0.000907504
0.000889626
0.000941125
0.00106719
0.00149933
0.000761615
0.000858829
0.000762351
0.000864292
0.00054548
0.00105541
0.000722851
0.00137579
0.00129235
0.000651948
0.000912101
0.00102958
0.000767428
0.000863694
0.000747039
0.000843738
0.00126711
0.000863193
0.000794826
0.000960925
0.000762024
0.0009243
0.00114724
0.00113234
0.00102516
0.00100727
0.000882652
0.00103104
0.000878212
0.000901178
0.000948109
0.000731004
0.000675202
0.000706084
0.000659837
0.000655622
0.000584737
0.000656492
0.000883301
0.000717754
0.000627984
0.000543061
0.000574461
0.000525198
0.000551867
0.000506286
0.00117653
0.000576531
0.000568732
0.000492657
0.0004925
0.000545222
0.000643409
0.000704179
0.000648012
0.00121912
0.000562596
0.000629268
0.000544822
0.00114711
0.000614372
0.000592955
0.000648782
0.000646588
0.00086028
0.00101335
0.000657381
0.000872335
0.000868382
0.000753574
0.000564121
0.000521911
0.000574039
0.000509248
0.000908291
0.000683879
0.000852643
0.000885385
0.000861116
0.00103509
0.000670236
0.000666195
0.000827864
0.000781207
0.000960115
0.000900089
0.000770436
0.000957926
0.000926428
0.000935738
0.000892074
0.000883985
0.000882175
0.000584409
0.000584555
0.000769157
0.000658344
0.000866743
0.000613711
0.000564886
0.000579624
0.00188758
0.000916736
0.00088915
0.000834332
0.000793948
0.00128208
0.000536975
0.000632732
0.000830801
0.00146481
0.000775955
0.000761459
0.000718884
0.0007436
0.00104123
0.00085508
0.000685744
0.000523229
0.000647499
0.0004671
0.00125216
0.00079614
0.000639749
0.000930174
0.000710595
0.000813179
0.000926233
0.000628295
0.000609984
0.000600125
0.00086184
0.000749264
0.000794925
0.00122337
0.000842447
0.00118588
0.00253625
0.00077724
0.000774952
0.000606773
0.000601891
0.000880338
0.00084486
0.000812142
0.000818645
0.000649532
0.000673024
0.000870895
0.000681128
0.000842294
0.000871765
0.00177778
0.00112803
0.000669396
0.000694942
0.00367363
0.000789634
0.000949107
0.000720533
0.000820854
0.000861889
0.00103814
0.000967259
0.000778993
0.000751133
0.00121551
0.000884999
0.00164637
0.000729242
0.00107407
0.00122502
0.000864802
0.00187946
0.000274966
0.00119789
0.0008408
0.00085889
0.000904742
0.00076153
0.00152717
0.000904958
0.00106781
0.000731192
0.00125791
0.000784389
0.000626549
0.000748811
0.000807405
0.000847644
0.00122616
0.000787413
0.00129753
0.000822758
0.000723004
0.00101882
0.000859924
0.000959941
0.00137855
0.000854229
0.000890824
0.000889001
0.00081385
0.000833641
0.00121342
0.001413
0.000776951
0.000933578
0.000990719
0.000757429
0.000741455
0.00090111
0.000899384
0.000861781
0.000970704
0.00091004
0.000944242
0.000788814
0.000866011
0.000781516
0.000729694
0.000796815
0.00102003
0.0012182
0.000888784
0.000879211
0.00119978
0.000873929
0.000797983
0.00087143
0.00117346
0.000901698
0.000664029
0.000745317
0.00173633
0.000424097
0.00106832
0.000878058
0.00083033
0.000904223
0.000826263
0.000957175
0.000747136
0.00075635
0.000780537
0.00353211
0.000661591
0.000927541
0.000949168
0.000873851
0.000918784
0.00109981
0.000801603
0.000813737
0.000909117
0.000794136
0.000505803
0.00138557
0.000808016
0.000751937
0.00172586
0.000722564
0.000635008
0.00125354
0.00143479
0.000667047
0.000848498
0.000936305
0.000939226
0.000962382
0.000882417
0.00131401
0.000625406
0.000861941
0.00171698
0.00107961
0.000450627
0.000531433
0.000787299
0.00117925
0.00124599
0.000814857
0.000893133
0.000819129
0.000926172
0.00103584
0.000922043
0.00102534
0.000792349
0.00133078
0.000861289
0.000883739
0.00119451
0.000792988
0.000862896
0.000803346
0.000886191
0.000873246
0.00101338
0.000886029
0.000766938
0.000835038
0.000825773
0.00078974
0.000833295
0.00177044
0.00097515
0.000815064
0.000838629
0.000664325
0.00172141
0.00062422
0.000286419
0.00090124
0.00119448
0.00134277
0.000929123
0.00137902
0.000697147
0.000705846
0.000836866
0.000435458
0.000646998
0.00115647
0.00044381
0.000954374
0.000905914
0.000829364
0.000626032
0.00084039
0.000898641
0.00122989
0.000683258
0.000795303
0.00100846
0.000851469
0.000446266
0.00104503
0.000910073
0.000669935
0.00171905
0.00081978
0.00066443
0.000981891
0.00100815
0.000840376
0.000867099
0.00113467
0.000698692
0.000853818
0.0011177
0.000986956
0.000879993
0.000788101
0.000574819
0.00122484
0.000879699
0.000726972
0.000694374
0.000632077
0.00121423
0.00121334
0.00103736
0.000884706
0.000906775
0.000547396
0.000782683
0.00126698
0.000708214
0.000925088
0.000818814
0.00087856
0.00108136
0.000696062
0.000824404
0.00198137
0.00111633
0.000796482
0.000958795
0.000994782
0.000841893
0.000872569
0.000953037
0.00108369
0.00104976
0.00079715
0.000965662
0.000863385
0.00093754
0.000749332
0.0012456
0.000880502
0.000915375
0.000845592
0.000957406
0.000989686
0.00168991
0.000926348
0.000902868
0.000839105
0.000848543
0.000498612
0.00064114
0.000785947
0.000622324
0.000426433
0.000411877
0.000882031
0.00129906
0.000984184
0.00117584
0.000714842
0.000883964
0.000764658
0.000830476
0.000994151
0.00106114
0.00109201
0.000844245
0.000782383
0.000776663
0.0012791
0.000921323
0.000928081
0.000892823
0.00171551
0.000861103
0.000885261
0.00126007
0.00196103
0.000895786
0.000830324
0.0008282
0.0010271
0.000823985
0.00140704
0.000887243
0.000981705
0.000915701
0.00153902
0.00175858
0.000812908
0.00093158
0.000857065
0.000757641
0.000431334
0.000633396
0.000800539
0.000758503
0.00091363
0.00122009
0.000766956
0.00133941
0.000813679
0.000688327
0.00123474
0.000959825
0.000750227
0.000919657
0.000784103
0.000912337
0.000863548
0.000868447
0.000843081
0.000946585
0.00140929
0.00100458
0.000996133
0.000848578
0.00101542
0.00124811
0.000764173
0.00188938
0.00082914
0.00117226
0.000765977
0.0010773
0.000881318
0.000873434
0.000839087
0.00091324
0.00111234
0.000971503
0.000880979
0.000860473
0.00123466
0.00124592
0.000760563
0.000742588
0.000998151
0.001225
0.000871839
0.000927021
0.00105391
0.000891539
0.000912136
0.000862304
0.000903874
0.000946197
0.00130762
0.000721052
0.00419192
0.000805229
0.00165314
0.00121372
0.000799455
0.00108869
0.000960868
0.000763149
0.000933988
0.000858774
0.000711269
0.000621303
0.000985901
0.000923511
0.000944497
0.00138789
0.00123461
0.000882075
0.000872361
0.00110346
0.000892876
0.00090747
0.000686078
0.000741998
0.00174054
0.00103594
0.00135414
0.000798005
0.000788285
0.00093258
0.000857011
0.000858423
0.0011686
0.000930292
0.000813325
0.000789994
0.000876932
0.000896117
0.000855788
0.000891435
0.00133759
0.000792375
0.000491208
0.000548657
0.000794116
0.000873152
0.00105058
0.000865249
0.000822322
0.00117824
0.000809249
0.000846229
0.00143937
0.00101179
0.000835768
0.00107416
0.000811775
0.0007641
0.000960105
0.00123253
0.00132376
0.000867875
0.000800231
0.000991069
0.00102097
0.00176163
0.000807281
0.000969347
0.00110143
0.00187947
0.000796058
0.000931232
0.000887675
0.00094539
0.000780538
0.00084246
0.000881757
0.00215605
0.00092669
0.00088803
0.00152562
0.000944438
0.000931283
0.00046764
0.00120471
0.000717085
0.000771077
0.000862322
0.00088086
0.001819
0.000798338
0.00185634
0.000807966
0.00096823
0.00102118
0.000995384
0.000847864
0.00133289
0.000885059
0.00103213
0.000905193
0.000798115
0.000954886
0.000869236
0.000911172
0.000856396
0.000954074
0.000989419
0.000698183
0.000818353
0.000869834
0.0010453
0.000995526
0.000957332
0.00112585
0.000663902
0.00085458
0.00153025
0.000753483
0.000725207
0.000831639
0.00087029
0.00150022
0.000938442
0.00172039
0.00127304
0.000426448
0.000498476
0.000627435
0.000522038
0.000561117
0.000381636
0.00109508
0.00100479
0.00102486
0.000505058
0.000361799
0.000655698
0.00093057
0.000886615
0.000618192
0.000930999
0.000668836
0.00113767
0.000881532
0.000742827
0.000769327
0.000904391
0.000867489
0.00129022
0.000863781
0.00159304
0.000821059
0.000882781
0.00309456
0.000714351
0.000791174
0.00137427
0.00084533
0.000837669
0.00166607
0.000898914
0.000966902
0.000886053
0.00123702
0.000875202
0.000410659
0.000451664
0.000882961
0.000884886
0.00101771
0.000911239
0.000863013
0.000794779
0.000857671
0.000811236
0.000883846
0.000852065
0.000915106
0.000869685
0.0013311
0.000833507
0.00056992
0.000579126
0.000648498
0.000873535
0.000361708
0.000905754
0.00114938
0.000596505
0.00138872
0.000883136
0.00083767
0.000835961
0.00108289
0.000936102
0.000833467
0.00280325
0.000789733
0.00132327
0.00128676
0.000870343
0.000825987
0.000844469
0.000966337
0.000982678
0.00130202
0.000725301
0.000810021
0.000819548
0.00139232
0.000869943
0.000973427
0.000974956
0.00101481
0.00089044
0.000495349
0.000595098
0.000386958
0.00128143
0.000447634
0.000538104
0.000384542
0.000855996
0.000667268
0.000779484
0.000727247
0.00170121
0.000771894
0.0010742
0.000966992
0.000946776
0.000911001
0.000871369
0.000774086
0.000517669
0.000816358
0.00113471
0.000978641
0.00113145
0.000813346
0.000750213
0.000834992
0.00163625
0.000867036
0.000854768
0.000904022
0.00140224
0.000792288
0.000870294
0.000882525
0.000854322
0.000866523
0.000838849
0.000758436
0.00125509
0.000864379
0.000790019
0.000900078
0.000924282
0.000873105
0.00132387
0.00131828
0.000821564
0.000884876
0.00130152
0.000890508
0.00086051
0.000831863
0.000876423
0.000895692
0.000907709
0.000902123
0.000914922
0.000935089
0.0011629
0.000824284
0.000849117
0.0010173
0.00090058
0.00087996
0.00093396
0.000905409
0.000897795
0.000873693
0.000904877
0.0013858
0.000449502
0.00116393
0.00091734
0.000844722
0.000923206
0.00121869
0.00144724
0.000390591
0.00104687
0.000447237
0.000516514
0.00142188
0.000556836
0.00110863
0.00106804
0.000402515
0.00103546
0.000389923
0.00039177
0.00126043
0.000789266
0.000754599
0.000961541
0.000889335
0.00086209
0.000596607
0.000735092
0.000911847
0.000958701
0.000936487
0.000892098
0.000897316
0.000930287
0.000899123
0.00100845
0.000934991
0.00117613
0.00130743
0.000916524
0.000885425
0.000889474
0.000907723
0.000914263
0.000938098
0.000936723
0.000963675
0.000969258
0.000739958
0.000909366
0.000993132
0.000804102
0.000790407
0.000850116
0.0008941
0.000883463
0.000873922
0.00241543
0.00102894
0.000864027
0.000919238
0.000905195
0.000914696
0.000949145
0.00084797
0.00104423
0.000647653
0.000890641
0.000773383
0.00118214
0.00086329
0.000911299
0.000917874
0.000943513
0.000934005
0.000889813
0.00126651
0.00112987
0.00104409
0.0010029
0.000710427
0.00206554
0.000782427
0.00126104
0.000685083
0.000653676
0.000880555
0.00109446
0.000845682
0.000782728
0.00116618
0.000835262
0.000967654
0.00113766
0.00100271
0.000854514
0.000943898
0.000832411
0.000930638
0.0010034
0.000914695
0.000863978
0.000589447
0.000596719
0.00105865
0.00146672
0.00084311
0.000823095
0.000498491
0.000373248
0.000859059
0.000967991
0.000875806
0.000886722
0.000870262
0.00188966
0.000853271
0.000886045
0.00144985
0.00119144
0.000946955
0.000959525
0.000835412
0.0009522
0.00062871
0.00113782
0.000438756
0.000501221
0.000655601
0.000919221
0.000878969
0.00086507
0.000830913
0.000890825
0.000860942
0.00150733
0.000835
0.000390882
0.000878627
0.00087851
0.000999342
0.000875021
0.000310906
0.000801125
0.00105857
0.000866499
0.000397109
0.00109226
0.000842284
0.00108439
0.00108185
0.00106455
0.00087234
0.000702728
0.000932193
0.00138484
0.000923476
0.000695781
0.000876413
0.000871193
0.000916827
0.000846007
0.000523379
0.000856422
0.000788847
0.00155469
0.000902186
0.000520558
0.000909912
0.000713369
0.000589532
0.00110709
0.0014822
0.00106641
0.000872209
0.00091981
0.000918067
0.000877473
0.00124077
0.000957587
0.000897065
0.000927382
0.000912275
0.000927835
0.00094341
0.000799267
0.0014766
0.000840224
0.000982913
0.00112123
0.000931151
0.00142828
0.00153904
0.000892613
0.000910789
0.0011367
0.000896227
0.00098179
0.00104176
0.00102394
0.00130426
0.000897656
0.000887807
0.000961138
0.00105411
0.000936632
0.00060205
0.00082544
0.000952546
0.000839736
0.00102774
0.00125686
0.000835617
0.000939183
0.000954597
0.00103771
0.000632884
0.000932731
0.000934544
0.000962432
0.00133448
0.000875342
0.000874669
0.00081843
0.0011534
0.00089857
0.00132754
0.00104331
0.0010144
0.000902822
0.000875584
0.000781963
0.00141366
0.00121583
0.000972623
0.00123957
0.00102747
0.000801328
0.000264444
0.000894237
0.000891305
0.000918992
0.000869081
0.000935624
0.000818338
0.00110107
0.000873694
0.00039829
0.000479364
0.000518554
0.000461324
0.000599818
0.000935803
0.000904761
0.000971605
0.000857226
0.00102687
0.000881783
0.000909276
0.000891131
0.000941562
0.00101775
0.000865898
0.000854197
0.0013749
0.000875843
0.000852359
0.000985305
0.000930788
0.000734703
0.000832476
0.000947155
0.000965828
0.000839641
0.000870732
0.00122223
0.000869113
0.00087581
0.000926037
0.000883605
0.0013001
0.000914585
0.00036283
0.000419146
0.000854914
0.00151039
0.000826331
0.0006617
0.00113445
0.000743768
0.00171702
0.0010142
0.000467957
0.000414194
0.000415507
0.000451766
0.000419465
0.000565431
0.00032157
0.000457593
0.000410422
0.000464605
0.000500069
0.000456559
0.000401489
0.000358638
0.000359097
0.000447461
0.000566671
0.000366644
0.000495067
0.000759411
0.000535911
0.000372802
0.000349058
0.000316868
0.00058866
0.000470821
0.00046447
0.00031567
0.000473651
0.000482036
0.000508123
0.000447902
0.000485374
0.000431063
0.00040319
0.000525234
0.000400221
0.000452293
0.000524218
0.000502508
0.00042595
0.00043016
0.000441748
0.000457484
0.000955431
0.000863102
0.00120861
0.000797624
0.000910201
0.000925868
0.000967995
0.00100775
0.000911051
0.000877511
0.000584894
0.000913933
0.00193585
0.000952298
0.00162542
0.00111394
0.000820464
0.00115909
0.00089689
0.000898789
0.000913101
0.00104568
0.00061119
0.000901345
0.000865863
0.00140496
0.00133435
0.000937327
0.000874666
0.000675587
0.000957361
0.00109674
0.00104318
0.0017081
0.000895318
0.000881401
0.000874365
0.000901181
0.000902546
0.0011684
0.00178998
0.000941022
0.000970382
0.000881213
0.00127463
0.000859435
0.000847849
0.000846195
0.000848907
0.00200916
0.000877722
0.000684189
0.000517266
0.000954689
0.000978348
0.000448501
0.000954376
0.00102575
0.000555984
0.000403005
0.00032918
0.000468689
0.00055371
0.000391538
0.000463048
0.00052776
0.000525918
0.000482505
0.000535164
0.000443345
0.000426894
0.000509311
0.000422476
0.000518585
0.000480306
0.000343547
0.000358987
0.000350636
0.00040788
0.00051389
0.000399299
0.000893595
0.00126202
0.000272457
0.000976281
0.000937149
0.000848705
0.000936492
0.000859182
0.000731174
0.000985146
0.000883494
0.000947806
0.000926453
0.000964317
0.000371586
0.000920481
0.000813193
0.000853288
0.00148298
0.00088826
0.00107561
0.00084954
0.000895523
0.000979169
0.000975362
0.000891231
0.000738025
0.000872358
0.000915424
0.00084622
0.000804795
0.000865027
0.000911311
0.000941189
0.00102394
0.000897095
0.000915176
0.000624225
0.000910609
0.000921532
0.000883985
0.000893835
0.000973245
0.0006972
0.000858086
0.000889178
0.000894623
0.000961767
0.000835214
0.000777046
0.000396097
0.000890121
0.000899559
0.00138986
0.000262921
0.000792295
0.000941798
0.000907056
0.000932103
0.000658029
0.000877771
0.000932809
0.00162388
0.000907459
0.000833892
0.000881151
0.000849634
0.000828511
0.00177697
0.000858387
0.000984455
0.000488039
0.000370587
0.000387955
0.000857734
0.000942961
0.000946709
0.000876756
0.000915235
0.000826899
0.000914084
0.00109154
0.000907317
0.000920277
0.000932991
0.000892132
0.000909961
0.000881245
0.000914034
0.00093938
0.00102991
0.000919956
0.000854535
0.000858068
0.000967473
0.000447164
0.000873217
0.000870186
0.000886115
0.00115609
0.000943848
0.000924684
0.000907534
0.000912897
0.000840799
0.00092484
0.00112354
0.000960919
0.000935926
0.000456466
0.00113587
0.000974972
0.000912383
0.000926164
0.000905405
0.000918799
0.000478273
0.00078299
0.00119172
0.000905999
0.00085348
0.000872534
0.000909784
0.000884584
0.000943998
0.000942219
0.000894942
0.000944646
0.000464106
0.000966804
0.000948808
0.00119211
0.00137473
0.000916024
0.000930323
0.000868879
0.000870596
0.000905597
0.000993004
0.000887604
0.000874256
0.00107781
0.000909338
0.000896757
0.0009053
0.000923749
0.000890573
0.000897015
0.000891609
0.000904371
0.000890263
0.000900136
0.000893803
0.000922491
0.000904864
0.000919516
0.000900931
0.000909362
0.000902818
0.000871933
0.000873328
0.000882363
0.00137622
0.000872691
0.00087776
0.000877912
0.000876055
0.000350885
0.000448661
0.00102619
0.000970931
0.000885539
0.000897378
0.000890884
0.000934091
0.000971651
0.000942861
0.00112592
0.000876849
0.000885564
0.000884171
0.00114889
0.000898416
0.00161584
0.000471335
0.00114135
0.00127772
0.000884923
0.00157708
0.00091167
0.000916068
0.000908398
0.000434899
0.000889432
0.000510545
0.000992404
0.000916983
0.000946691
0.000910354
0.000928971
0.00103013
0.000937348
0.00096223
0.00121662
0.00104283
0.000955759
0.000935048
0.000921602
0.00106714
0.000889553
0.00089458
0.00100499
0.00089875
0.000882367
0.000917688
0.000970522
0.000877009
0.000958158
0.00106649
0.000918045
0.000861526
0.00094922
0.000952901
0.000934403
0.000955019
0.000880416
0.00108182
0.00088758
0.00143562
0.000989365
0.000960488
0.000875904
0.000858784
0.00107904
0.000876906
0.000908852
0.000939538
0.000873755
0.000882991
0.00144313
0.00105541
0.000896969
0.000994477
0.000713212
0.000889137
0.000899209
0.000891592
0.000740241
0.000876078
0.00146325
0.000905709
0.000893134
0.000897961
0.00114416
0.00149474
0.000870461
0.000514125
0.0011669
0.00141212
0.000939096
0.000918459
0.000868531
0.000873493
0.000874032
0.000974447
0.00115482
0.00131958
0.00133292
0.00175277
0.000982127
0.000787678
0.000582103
0.000945277
0.000923629
0.000877914
0.000535934
0.000891727
0.00106591
0.000878248
0.000867222
0.000396459
0.00131795
0.00100378
0.000887662
0.000992575
0.000893432
0.00105789
0.000675963
0.00156956
0.000899534
0.000953254
0.000897797
0.000929997
0.000978053
0.000953394
0.000863551
0.000562469
0.000972283
0.00101781
0.00100059
0.000931382
0.000901331
0.000561491
0.000510651
0.000917351
0.00077737
0.000875987
0.000956154
0.000875348
0.00106416
0.000921243
0.000948361
0.000909573
0.000844179
0.000933503
0.00184332
0.000899685
0.000896229
0.0008908
0.000567915
0.000938308
0.000901696
0.00135551
0.000889552
0.000898911
0.000890894
0.000702789
0.000928932
0.000918359
0.000446248
0.000893205
0.000904872
0.000876147
0.000892948
0.000897062
0.000913924
0.000897834
0.000449536
0.00107099
0.000893425
0.000906904
0.000897511
0.000897012
0.000906139
0.000927022
0.000941016
0.000886853
0.000892819
0.000877114
0.000443136
0.000918515
0.000917873
0.000949063
0.000873942
0.000946788
0.000879182
0.000371025
0.000931533
0.000875703
0.000874952
0.000861695
0.000875518
0.000996043
0.000904037
0.000896118
0.000869481
0.00136694
0.000882137
0.000880433
0.000720716
0.000423266
0.000984258
0.000953733
0.00100894
0.000401971
0.000894813
0.000370573
0.00141699
0.000806789
0.00105308
0.00114113
0.00105845
0.000874707
0.000899002
0.000874199
0.000871892
0.000871293
0.000891099
0.000890232
0.00101702
0.000929943
0.00089121
0.000872587
0.00087071
0.000878004
0.000903093
0.000883584
0.000871392
0.00120042
0.000914456
0.000917541
0.000501057
0.00146259
0.00085352
0.000961427
0.000963014
0.000924978
0.000414724
0.000869716
0.000871105
0.000826189
0.00101643
0.000904439
0.00103116
0.00088092
0.000872445
0.000870275
0.0009723
0.000412621
0.000467603
0.000870594
0.00115425
0.000871996
0.00146813
0.00138501
0.000899134
0.00091151
0.000862365
0.000874883
0.000894989
0.000868218
0.000911241
0.00087105
0.000959596
0.000975461
0.000951941
0.000886293
0.000941942
0.000892983
0.000947203
0.000933037
0.000918786
0.000924577
0.00045967
0.000906437
0.000917576
0.000978205
0.000775224
0.000892197
0.000976265
0.000885126
0.000851295
0.000737691
0.000912408
0.00104288
0.000981526
0.000908887
0.000876065
0.000871246
0.000951518
0.000891669
0.00095463
0.000869214
0.00122543
0.00121092
0.00129394
0.000933672
0.00094388
0.000505873
0.000911458
0.000871266
0.00141506
0.00088237
0.000908322
0.000905243
0.000991557
0.000874096
0.000881642
0.000552343
0.00101483
0.000701211
0.00104276
0.000980479
0.000897805
0.00082079
0.000907971
0.000933633
0.00100976
0.000900957
0.000850133
0.000906623
0.000969663
0.000598839
0.000727679
0.000403292
0.00042141
0.000475715
0.00110072
0.000948763
0.000878461
0.000870746
0.000812246
0.000817401
0.000876677
0.000470612
0.00088683
0.000890938
0.000988786
0.000895098
0.00138092
0.000976263
0.00100558
0.000448415
0.000871664
0.00150244
0.000877247
0.000892323
0.000927039
0.000900761
0.000900226
0.000690132
0.00112741
0.00088738
0.000642798
0.000753524
0.000882705
0.000872873
0.000436209
0.000837373
0.000891486
0.000883279
0.000913753
0.000891359
0.000975425
0.000929121
0.00121502
0.0008579
0.000800288
0.0009536
0.0012714
0.000889125
0.000925671
0.00115755
0.000906693
0.000954083
0.000883279
0.000767069
0.000931049
0.000901563
0.000893297
0.000883865
0.000977895
0.00111513
0.00105342
0.00142224
0.00144531
0.0013848
0.000909974
0.000957394
0.000884872
0.000872495
0.000894701
0.000898075
0.000900314
0.00103146
0.000901669
0.000959937
0.000896529
0.000885844
0.000897062
0.00083778
0.000922557
0.000558884
0.000661067
0.000526471
0.000531485
0.00155156
0.000938943
0.000893138
0.00173904
0.000799016
0.000726114
0.000888357
0.000810543
0.000905532
0.00102819
0.000871463
0.00129129
0.0010193
0.00106771
0.00114268
0.000808896
0.000853932
0.000902603
0.000474304
0.000870807
0.00129623
0.00158525
0.000910512
0.00124429
0.000869192
0.000862405
0.000871962
0.00087642
0.000999326
0.000896592
0.000877458
0.000690323
0.000896345
0.00089018
0.00147294
0.000921014
0.000488171
0.00112161
0.000834522
0.000901449
0.000888191
0.000904434
0.000962631
0.00096376
0.00145164
0.000941365
0.000909829
0.00107207
0.000864217
0.000901666
0.00100927
0.000711552
0.00142927
0.000906631
0.00133963
0.000849149
0.000905721
0.000941751
0.000898064
0.000998071
0.000832115
0.00111106
0.000910586
0.000872909
0.00088771
0.00115892
0.00092431
0.000926223
0.000903742
0.000896224
0.000596639
0.00114567
0.00139647
0.0014025
0.000891157
0.000970799
0.00138834
0.000836821
0.00105319
0.00152919
0.000916437
0.000385907
0.000407921
0.000902248
0.000882567
0.000887886
0.00105607
0.00105318
0.00106862
0.000873879
0.000696418
0.00103035
0.000878697
0.0010279
0.000899491
0.000915216
0.00105048
0.000894661
0.000872838
0.00109415
0.000663075
0.00102032
0.00131977
0.000826502
0.00089221
0.000753864
0.000521661
0.000943956
0.000907368
0.000893935
0.000990934
0.000735462
0.00105799
0.000984748
0.000920435
0.000961999
0.000922202
0.000884032
0.000965836
0.000984911
0.000455514
0.000904034
0.00103663
0.000903566
0.000977785
0.000917186
0.00169021
0.000826878
0.00113582
0.000771227
0.00121578
0.000988247
0.00104667
0.00082538
0.000845609
0.000877522
0.000896458
0.000944693
0.000992791
0.000874798
0.000946183
0.000976899
0.00101851
0.000901061
0.00100451
0.000844199
0.000906769
0.000923401
0.00153983
0.000892886
0.000878215
0.000869211
0.000673804
0.0011102
0.000971108
0.00133372
0.00245679
0.000895091
0.00104599
0.0010861
0.000925822
0.000916129
0.000505788
0.00111549
0.00081455
0.000777351
0.000940721
0.000889624
0.000878812
0.000895585
0.000894796
0.000906291
0.00092426
0.00152224
0.000663602
0.000882595
0.00101495
0.000894925
0.00129101
0.00094153
0.0027198
0.000810119
0.000934763
0.000718452
0.000936404
0.000858314
0.000867973
0.00121138
0.00142255
0.000898165
0.000960153
0.000731362
0.000579729
0.000952836
0.000870359
0.000892133
0.000861017
0.000914929
0.000894576
0.00131826
0.000884774
0.000889824
0.000841968
0.000948975
0.000969519
0.00123537
0.000641561
0.000894844
0.000983016
0.000887509
0.000956022
0.000709362
0.000989752
0.000927924
0.000948009
0.000886323
0.00100208
0.000883005
0.000894731
0.00119697
0.000868981
0.000879197
0.0015091
0.000683629
0.000873246
0.00144456
0.000938528
0.000898397
0.000880921
0.000913677
0.000988652
0.00110532
0.000445894
0.000877234
0.000949548
0.000868267
0.000845751
0.00144053
0.000973552
0.000918471
0.000883908
0.000805768
0.000887131
0.00138071
0.000916177
0.000795238
0.00100803
0.00126264
0.000914756
0.00167898
0.000642222
0.000884912
0.000894467
0.000882601
0.000662666
0.000947851
0.000892635
0.00087814
0.000931815
0.00089917
0.000857479
0.000895259
0.000895387
0.000905876
0.000904548
0.000920111
0.000818562
0.000806212
0.000951481
0.000848381
0.00095903
0.00098188
0.00137096
0.000913761
0.000877156
0.0013283
0.000923172
0.000889588
0.000912408
0.000873827
0.000925548
0.000943291
0.000948645
0.00105245
0.000801019
0.000806548
0.000884652
0.000870048
0.000582461
0.000422611
0.000972434
0.000967603
0.00099134
0.00175795
0.0016985
0.00106582
0.000896111
0.000949121
0.001017
0.0009216
0.000985314
0.0011454
0.000823225
0.000903025
0.0010994
0.000491629
0.00103909
0.000908278
0.000876106
0.00113242
0.000912559
0.00114101
0.000915568
0.000885623
0.000958657
0.00113371
0.000887094
0.000899026
0.000594792
0.00184635
0.000937902
0.00088067
0.00118298
0.000938624
0.00103845
0.000894472
0.0012888
0.000933499
0.000879192
0.000978874
0.0010279
0.000885441
0.000982094
0.00097487
0.000918426
0.000969557
0.000939077
0.000890846
0.000995952
0.000928503
0.000883791
0.000986292
0.00109843
0.000871087
0.000913555
0.000897692
0.000894518
0.000928451
0.000872368
0.00086124
0.000894406
0.000960087
0.000883105
0.000883493
0.000964922
0.000886375
0.00129358
0.00121075
0.000702834
0.00088279
0.000959538
0.00101903
0.000972292
0.00114287
0.000912345
0.000808294
0.00108778
0.000983036
0.000932753
0.000866817
0.000952424
0.000916802
0.000974808
0.000640163
0.00104367
0.000914909
0.00114331
0.00101126
0.000876736
0.000880808
0.000735321
0.00096569
0.000722537
0.00106288
0.00108138
0.000911646
0.000937303
0.000965017
0.000893405
0.00110634
0.00105942
0.000920092
0.00140997
0.00115708
0.00111857
0.0008702
0.000873734
0.0010724
0.00054213
0.000909485
0.000786298
0.00144968
0.000858615
0.00127384
0.000956432
0.000887485
0.000880457
0.000935093
0.000883577
0.000875037
0.000877859
0.000879713
0.00084993
0.000870439
0.000916389
0.000941217
0.00085534
0.000866272
0.0010279