/*--------------------------------*- C++ -*----------------------------------*\
| =========                 |                                                 |
| \\      /  F ield         | OpenFOAM: The Open Source CFD Toolbox           |
|  \\    /   O peration     | Version:  v1912                                 |
|   \\  /    A nd           | Website:  www.openfoam.com                      |
|    \\/     M anipulation  |                                                 |
\*---------------------------------------------------------------------------*/
FoamFile
{
    version     2.0;
    format      ascii;
    class       volVectorField;
    location    "0.1";
    object      U;
}
// * * * * * * * * * * * * * * * * * * * * * * * * * * * * * * * * * * * * * //

dimensions      [0 1 -1 0 0 0 0];


internalField   nonuniform List<vector> 
1431
(
(0.45721 1.24504 1.55214e-16)
(3.24177 0.843917 3.31597e-17)
(0.252783 0.0202145 0)
(1.24157 -0.184418 1.99511e-16)
(-0.706638 -0.321495 0)
(1.33891 4.14748 2.50711e-16)
(2.8846 -0.362245 3.84183e-16)
(0.885272 0.429065 5.62004e-17)
(0.572625 3.52227 1.98215e-16)
(2.30001 -0.183398 3.86144e-16)
(2.65476 10.2221 2.02759e-17)
(6.63069 0.0185487 0)
(0.528146 1.9493 -2.03056e-16)
(-1.87537 -0.0563761 -5.10954e-16)
(1.61239 -0.477247 0)
(2.45759 -0.32311 -3.54932e-16)
(3.74985 -0.470705 -2.54697e-16)
(0.0541178 -0.0244611 0)
(3.87434 0.1477 -2.12201e-16)
(-0.124144 -0.136362 2.13218e-16)
(4.01718 9.64909 -7.19412e-19)
(-0.321575 -0.651071 2.35578e-16)
(0.621238 2.93787 -2.10981e-16)
(12.6225 2.0457 -3.53614e-18)
(0.564717 3.41477 1.95168e-16)
(0.430547 0.462166 -1.15571e-19)
(1.49804 9.98232 -2.08429e-17)
(1.00364 -0.614409 -4.25958e-16)
(-0.0869656 2.60725 -6.17235e-17)
(0.291794 5.14703 3.37805e-17)
(0.0832322 4.52031 -1.103e-16)
(0.0144604 3.29473 5.25792e-17)
(-0.0132086 4.57537 0)
(-1.4185 0.308197 -3.97348e-16)
(1.49592 3.68159 -3.68179e-16)
(2.19956 0.275776 0)
(0.163393 3.0439 0)
(0.377745 -0.0397226 -2.7093e-19)
(0.927404 -0.103695 0)
(0.133967 3.347 0)
(0.198975 3.1885 1.29079e-20)
(0.124537 3.16682 1.97899e-16)
(0.3413 1.34067 -2.78592e-16)
(1.46071 -0.395011 1.98745e-16)
(1.71999 4.68126 0)
(-0.00111828 -0.139364 3.95435e-16)
(1.82573 2.18842 1.94791e-17)
(1.1148 9.55376 -6.47015e-17)
(2.72574 -0.421351 0)
(0.561375 -0.27344 0)
(1.59988 1.37899 0)
(1.52536 -0.240735 0)
(1.29516 1.21101 4.40091e-16)
(1.11701 0.104543 1.78945e-17)
(3.3312 0.532145 -2.1221e-18)
(1.20469 0.372574 5.0434e-16)
(-0.92788 0.161496 2.12357e-16)
(4.03963 -0.177939 0)
(4.89874 0.0542494 0)
(0.3235 -0.0343704 4.76293e-16)
(0.996386 -0.3549 -1.48794e-16)
(-0.31993 -0.443156 4.07562e-16)
(-0.159519 -0.0367 0)
(0.304768 -0.0613166 0)
(0.450279 -0.0734313 9.74307e-19)
(2.1559 -0.0542318 -2.01263e-16)
(0.790657 -0.185635 -2.79967e-16)
(1.31486 -0.160374 -8.77811e-17)
(0.100968 -0.0181392 -6.51005e-18)
(-0.485158 -0.192667 0)
(-1.28959 -0.580966 6.05551e-17)
(-1.75278 0.0452794 -1.40312e-16)
(0.677101 0.0603294 1.30863e-16)
(-1.24458 0.361148 3.37274e-16)
(-1.74371 -0.0528934 3.76444e-16)
(-0.126345 -0.122581 -6.08013e-16)
(0.31794 -0.04955 -2.5868e-17)
(0.768127 -0.0440646 -1.87566e-16)
(1.78799 -0.14787 -2.70301e-16)
(0.0860938 -0.00616548 0)
(3.70802 -0.378844 -5.95616e-17)
(0.390854 0.017688 1.27953e-17)
(5.58974 0.604873 -7.02104e-18)
(2.95543 2.58863 8.54322e-17)
(12.0968 0.699723 1.93063e-18)
(2.11884 -0.20668 -1.01126e-16)
(3.16118 0.0135535 0)
(1.97836 0.232875 1.83082e-16)
(9.481 0.240019 6.48284e-18)
(7.47223 0.615381 2.40696e-18)
(-0.46161 0.65385 -2.96102e-16)
(-0.603074 0.548115 3.12918e-16)
(0.463647 0.0293289 3.29566e-16)
(2.21658 -0.265551 -1.23338e-16)
(3.54606 0.410459 9.20763e-18)
(-0.0148264 3.90598 0)
(2.32455 0.0127355 -7.59505e-17)
(4.98198 1.31864 -1.4672e-17)
(1.06645 -0.456453 0)
(0.624816 0.039142 -6.8534e-19)
(0.798299 0.275756 2.04517e-16)
(0.317774 -0.424925 -7.22738e-16)
(4.98565 -0.516197 0)
(0.181655 -0.0944419 -3.55614e-16)
(0.765977 -0.0167949 3.77256e-16)
(0.105776 3.20064 1.74753e-17)
(0.0109488 2.88717 0)
(1.70713 7.22361 6.45559e-18)
(0.701276 2.24987 3.68567e-16)
(5.16549 -0.141383 0)
(0.241783 -0.0567505 -7.58819e-16)
(0.662196 2.58933 -3.75582e-16)
(0.14957 -0.00924164 5.88866e-16)
(0.23746 2.79803 -1.52799e-16)
(3.46843 0.66594 -1.01299e-18)
(-0.440102 -0.0775083 8.06215e-17)
(-2.14056 0.0844249 0)
(0.817439 -0.146887 -2.31022e-16)
(1.29195 -0.0356998 0)
(0.190909 -0.0346906 0)
(0.0107749 -0.227823 -2.77071e-17)
(1.86231 -0.192282 8.04167e-17)
(-0.953463 0.204466 2.20849e-16)
(-1.11826 -0.220156 1.61511e-16)
(-1.57222 -0.259084 0)
(1.49294 -0.0494414 1.66212e-16)
(0.276649 0.0345944 0)
(1.4203 -0.565206 5.33552e-16)
(0.285566 -0.0781453 -3.55918e-16)
(3.34431 0.117009 3.66809e-16)
(2.91918 -0.214577 3.50349e-16)
(0.00164948 -0.0123942 -1.17933e-16)
(3.24282 0.124267 -8.59819e-17)
(3.27725 0.557211 8.73813e-17)
(-0.293591 -0.185866 0)
(-0.218096 -0.597766 -3.73818e-16)
(0.734528 -0.0470373 1.72542e-16)
(0.640684 -0.64947 0)
(10.9255 0.0500285 3.01487e-17)
(0.320284 0.0542488 2.16709e-16)
(0.78461 0.0564896 0)
(0.260674 4.80864 0)
(4.42269 -0.372125 7.09449e-17)
(0.146702 -0.046405 0)
(0.645466 2.24572 2.4331e-16)
(0.00143865 4.65901 -8.57752e-17)
(-0.779084 -0.284545 -2.01442e-16)
(0.959089 0.610125 -4.67884e-16)
(2.41848 -0.230417 2.68283e-16)
(0.509046 -0.124944 1.82922e-16)
(-0.338849 -0.408186 2.64657e-16)
(0.0494059 -0.0099368 9.00554e-17)
(0.0916298 3.2791 -1.81599e-20)
(1.4432 -0.105916 -2.02075e-16)
(-0.0155235 3.23093 -5.18081e-17)
(0.582365 0.0172786 -4.22184e-16)
(11.2558 0.413385 -1.97235e-18)
(3.20641 1.63145 7.87367e-17)
(6.50687 0.672549 -5.86818e-18)
(3.14537 -0.0708315 2.26399e-17)
(8.24374 1.7484 -3.50277e-18)
(0.562983 2.58956 2.2605e-16)
(3.72481 -0.0999843 -1.27326e-16)
(3.43554 -0.0747739 9.42603e-18)
(-0.809797 -0.221598 -4.59874e-17)
(0.280598 1.76616 -2.11443e-16)
(0.103522 2.24356 7.20121e-16)
(3.67973 0.495385 8.87727e-18)
(0.460376 -0.137851 2.61925e-16)
(4.23449 1.1091 3.14543e-17)
(8.21802 0.977954 -7.57579e-18)
(0.802718 1.26676 0)
(0.240886 3.74074 -4.33366e-17)
(10.8988 0.183565 3.22992e-18)
(3.41667 1.05894 -1.34587e-17)
(11.2709 0.229821 0)
(3.28216 0.0512942 0)
(1.51712 4.40015 -1.33596e-16)
(1.35285 1.2893 -3.74683e-16)
(1.65388 3.47523 -4.04153e-17)
(1.78753 -0.0811901 -3.98357e-16)
(1.3393 -0.116887 0)
(0.256539 0.634574 1.12342e-17)
(11.0553 2.57451 -2.72538e-18)
(1.7239 4.16032 9.81894e-17)
(0.026204 1.90788 0)
(0.89013 2.50555 -1.03651e-17)
(3.62997 1.39114 -5.18414e-18)
(0.39713 3.55658 7.13808e-17)
(10.6665 -0.0953462 2.07304e-17)
(0.0566881 4.13593 -7.20817e-17)
(0.318089 3.248 -4.41401e-17)
(0.16858 3.27262 -7.21118e-17)
(1.25297 6.07042 0)
(1.04605 -0.0320478 0)
(3.61236 2.46431 -7.32043e-17)
(4.88859 1.76947 0)
(1.64898 3.93257 -2.38395e-16)
(0.106255 0.0113884 4.7566e-16)
(1.0689 -0.174797 0)
(2.4621 0.684885 -1.11535e-18)
(3.66809 -0.082618 -7.30584e-17)
(1.66639 7.78656 -3.8915e-17)
(3.15516 0.0391173 7.84547e-17)
(0.674305 2.06397 -7.33342e-17)
(0.0304076 3.98604 4.7493e-18)
(0.0756808 2.58805 1.28512e-16)
(0.142897 -0.00624041 3.38288e-16)
(10.6171 0.529824 -1.08316e-18)
(0.850614 0.543834 -2.04289e-16)
(-0.349538 0.353929 3.29834e-16)
(3.53748 -0.135305 0)
(-0.00602134 2.912 4.17869e-17)
(0.374465 3.19338 4.4363e-17)
(11.5605 1.00788 0)
(0.613916 0.264218 6.04528e-16)
(0.105518 3.26807 2.19777e-16)
(1.6825 4.15106 -5.61402e-17)
(1.54855 1.67751 -6.62145e-17)
(1.33425 7.36563 2.67871e-16)
(-0.0724726 3.49161 3.6697e-16)
(0.779911 0.147936 0)
(3.49729 0.999552 2.23264e-16)
(3.53087 -0.0920918 0)
(-0.022577 3.06262 -2.11129e-16)
(10.5194 1.15023 1.99445e-18)
(3.00758 6.6178 -3.01484e-17)
(4.5938 1.19127 3.29323e-17)
(-0.0139832 3.36101 2.61598e-16)
(0.890234 7.93575 4.47753e-17)
(2.58333 0.0204696 3.18208e-17)
(0.0383482 4.52893 6.50985e-21)
(-0.00453756 3.04911 -4.84491e-18)
(0.211463 3.41822 1.01132e-16)
(-0.00214975 3.32837 -5.02585e-17)
(7.12109 1.14362 8.92607e-18)
(0.0116118 2.94839 0)
(0.695838 2.92702 -5.5858e-17)
(0.153131 4.40229 0)
(2.37543 0.379638 3.26752e-17)
(3.06774 0.0593724 6.49509e-17)
(1.63101 1.9788 1.84479e-17)
(10.5274 0.79374 -7.13708e-19)
(0.460309 3.52167 0)
(0.444602 3.25042 3.3261e-17)
(0.626688 0.0470555 7.00361e-16)
(0.541515 3.06534 3.6645e-16)
(1.46094 8.46456 0)
(-0.0814647 3.27864 -4.60814e-16)
(0.545182 -0.062431 1.98114e-16)
(0.790043 -0.33034 0)
(10.0954 0.530881 -3.97649e-19)
(3.17682 -0.0972043 2.18019e-18)
(3.37673 -0.0192998 -1.37205e-17)
(0.0463136 4.0147 5.49894e-17)
(0.217001 3.09477 -8.19354e-17)
(3.21256 -0.119711 7.18954e-21)
(10.5878 1.60291 -4.79093e-18)
(6.05504 1.77833 3.65219e-17)
(0.157497 3.18631 -6.83775e-17)
(-0.0143309 0.800636 1.75863e-16)
(10.8956 0.0402882 -1.85778e-17)
(0.937208 1.37061 0)
(3.31423 0.00595513 7.17741e-17)
(0.0184386 2.59279 4.3703e-17)
(1.80477 6.29934 -6.31421e-17)
(0.692295 3.40431 -2.04324e-16)
(0.944605 4.99806 0)
(1.0279 9.03959 6.12963e-17)
(-0.813362 -0.0824113 0)
(1.05243 1.79994 -6.67545e-17)
(0.0490251 3.11561 9.42877e-17)
(3.10643 0.655118 -1.54176e-17)
(2.50697 0.200202 6.04797e-17)
(8.95192 1.56342 0)
(0.204579 3.95366 -3.49695e-20)
(9.66873 1.31451 -6.30922e-17)
(1.44806 4.94166 2.57978e-17)
(0.0438565 1.48821 2.52928e-20)
(0.0307144 2.00156 -1.01183e-16)
(1.01096 2.1851 0)
(0.215836 3.01108 2.9721e-16)
(0.0435177 4.70447 1.12409e-16)
(1.80427 1.05911 2.84735e-16)
(3.19693 0.293806 0)
(5.49963 1.02014 0)
(0.232568 3.12403 1.94025e-16)
(5.42874 1.52177 -4.60537e-17)
(11.6927 0.436969 0)
(2.96662 0.958175 -3.39593e-17)
(0.00592235 0.0258913 -2.75263e-16)
(0.552557 3.33637 2.18881e-16)
(4.49116 1.53532 -4.05019e-17)
(0.682244 1.75441 -8.73531e-17)
(0.82281 7.3901 -1.50607e-16)
(-0.0141136 3.37777 -6.18851e-17)
(2.52839 4.91084 0)
(0.0921203 1.86976 0)
(0.497718 0.455289 2.44564e-16)
(0.0493332 1.53023 1.15157e-17)
(1.09801 1.05804 -3.00541e-16)
(0.74647 0.00663168 -2.29384e-16)
(3.01535 0.488657 -4.09358e-18)
(0.639312 1.17674 1.08738e-16)
(0.818824 3.00874 -5.68518e-17)
(3.25309 -0.134922 -4.9961e-17)
(2.97948 1.21352 2.33911e-17)
(0.223359 3.01402 -4.33591e-16)
(0.171251 3.109 -3.74287e-16)
(3.91354 0.98547 -2.13635e-17)
(4.12832 3.56591 2.55118e-16)
(1.56814 0.131411 0)
(-0.935742 -0.345306 -9.2081e-17)
(-0.53674 -0.00232487 0)
(0.613747 3.51401 -3.64998e-16)
(4.58878 2.0955 0)
(1.69442 3.69198 -1.18061e-18)
(3.2415 0.406158 1.70157e-17)
(0.287803 0.0249925 -2.62122e-17)
(5.75842 4.9229 1.3386e-18)
(2.44953 1.33711 2.46712e-17)
(4.09028 2.25299 0)
(0.440784 0.0587732 0)
(0.486819 1.16204 0)
(1.76527 3.76404 4.44958e-16)
(0.233272 0.0104614 -2.81224e-16)
(0.405437 0.0432309 0)
(0.378066 3.36913 4.44331e-16)
(1.69477 -0.118643 3.22827e-17)
(3.43516 -0.0802436 6.39046e-17)
(0.563001 2.15202 2.65444e-16)
(0.207541 -0.0223889 2.13478e-16)
(0.487234 3.42421 -4.35778e-16)
(0.396882 -1.06154 -3.50659e-16)
(3.09422 0.00666311 -1.57164e-17)
(0.599409 1.21853 -4.86547e-17)
(0.228841 3.18569 0)
(6.54287 1.17209 6.44761e-18)
(1.77535 3.8282 -1.99476e-16)
(0.0869035 -0.0615026 0)
(0.698029 -0.0146153 0)
(0.60772 1.28914 3.73697e-17)
(3.72661 5.10054 9.72116e-17)
(0.292173 2.94254 0)
(0.585471 3.58448 2.06251e-16)
(0.218708 3.65065 0)
(2.87477 0.684049 2.35428e-17)
(9.83501 0.93136 5.79535e-17)
(3.56034 3.94553 -1.83704e-16)
(0.659938 1.70278 0)
(0.927435 4.33324 1.98265e-16)
(0.487896 -0.132195 -4.05108e-16)
(0.349868 0.738515 2.76899e-16)
(2.44088 2.45172 -8.63411e-19)
(0.519984 -0.326215 3.14738e-16)
(1.80129 1.46405 -1.87077e-16)
(9.04251 3.24814 1.71754e-18)
(-0.744697 0.660361 -7.99926e-17)
(10.7149 0.235585 -2.30994e-19)
(0.230182 3.18641 -2.03864e-19)
(0.69641 -0.478519 -4.45807e-16)
(-4.96527e-05 1.88957 -4.2536e-17)
(0.182766 1.84335 -8.82568e-17)
(2.98128 0.336959 3.8134e-18)
(0.228558 0.0374506 -4.90253e-17)
(7.58492 6.1177 1.58104e-17)
(0.519006 3.52627 2.02794e-16)
(11.8322 3.60055 -4.14286e-19)
(-0.0906751 3.43609 5.0186e-17)
(0.635452 5.37853 1.25759e-17)
(1.2836 8.8388 -7.71859e-17)
(-0.338383 -0.594224 -2.20141e-16)
(8.96447 0.350555 9.63296e-17)
(1.34582 1.6292 0)
(0.298087 2.98301 1.12105e-16)
(8.01265 1.00449 -1.13885e-18)
(2.75421 2.02699 -2.45879e-17)
(1.50792 0.0802244 -7.77417e-17)
(0.0863914 1.19934 0)
(7.84752 1.54348 -2.39008e-18)
(0.49602 2.83623 4.59223e-16)
(1.75169 3.97671 1.0281e-16)
(0.409416 0.369904 0)
(0.723789 -0.303706 1.66136e-16)
(9.71284 4.81393 -1.26346e-17)
(0.670954 3.70605 5.22677e-17)
(1.49929 2.17113 -7.29674e-16)
(0.53182 3.67564 3.17292e-18)
(1.48855 4.01841 0)
(1.51883 1.88601 -3.38854e-17)
(3.03173 0.12988 1.26049e-16)
(1.47639 2.41875 -2.1076e-16)
(1.428 2.49083 2.11202e-16)
(3.3019 -0.135357 1.62759e-16)
(6.79407 1.86849 -4.57514e-18)
(0.510604 0.784635 3.02224e-20)
(0.724852 3.22741 3.74383e-19)
(0.660091 3.21234 -1.48976e-16)
(0.394917 3.52242 -4.19211e-16)
(1.07496 3.95272 -5.2181e-17)
(2.72447 3.29257 -1.00362e-16)
(0.260331 3.00309 3.31997e-17)
(5.34632 2.18776 1.27479e-16)
(0.204008 3.08471 -3.5725e-17)
(1.46144 0.342985 -8.93702e-17)
(0.785383 3.32497 1.20263e-20)
(1.05972 4.18715 8.76177e-17)
(-0.415263 0.0217982 1.02924e-16)
(3.19857 0.204526 3.36788e-17)
(0.805659 3.33289 1.72222e-17)
(3.16971 2.93155 0)
(1.75421 3.7202 0)
(0.826136 3.32036 8.35858e-18)
(0.225256 2.08657 1.95226e-16)
(0.570334 3.77566 -1.88644e-17)
(0.515219 0.0039903 2.404e-16)
(1.88022 2.88616 1.58106e-20)
(-0.315547 -0.725412 0)
(1.63615 3.9714 -1.87099e-16)
(0.852907 3.27047 0)
(0.0442652 2.4495 -1.04245e-16)
(0.445865 2.16809 -5.24768e-16)
(1.96202 1.37559 -1.12256e-16)
(2.15231 2.75381 4.42384e-17)
(0.895243 3.17252 1.83534e-17)
(0.132129 -0.71359 4.32182e-16)
(-0.0915795 -0.193594 -6.03155e-20)
(3.0116 0.109768 9.98656e-17)
(0.219842 -0.0546607 -3.31748e-16)
(12.2486 1.71072 2.12206e-18)
(0.163514 3.03375 2.00395e-16)
(0.188804 3.04294 2.94991e-16)
(0.184338 3.03264 -2.70529e-21)
(0.188214 3.02126 0)
(0.189973 3.02024 -1.89289e-16)
(0.200747 2.9994 -1.37216e-16)
(0.177764 3.01016 -1.37221e-16)
(0.24598 2.99787 -2.95899e-16)
(0.22648 2.97444 4.1435e-16)
(0.287821 2.99148 1.14914e-16)
(0.285931 -0.470995 0)
(10.7914 0.618098 1.76443e-18)
(0.323407 -0.278178 -1.1668e-16)
(0.34702 -0.115531 3.25301e-16)
(0.467683 -0.0174807 -4.75174e-16)
(0.366336 0.0140397 -3.71207e-20)
(0.328563 0.153024 0)
(0.276474 0.104428 -1.1016e-16)
(3.94909 1.53424 3.94046e-17)
(2.03792 0.650624 5.40038e-17)
(2.35276 1.12554 4.89868e-17)
(0.520252 -0.545016 -2.66969e-16)
(2.39545 -0.625369 -1.40519e-16)
(0.0359728 -0.534953 0)
(2.22028 -0.560015 -7.78517e-17)
(2.4282 -0.572079 2.374e-16)
(1.93171 -0.224001 7.78716e-17)
(8.7598 0.137391 -2.14258e-18)
(0.265405 -0.588167 0)
(0.372978 -0.347504 3.5488e-16)
(1.6814 0.205712 -1.10052e-16)
(0.832593 -0.444304 2.26017e-16)
(8.84055 -0.00987853 -2.7968e-17)
(1.92928 -0.674386 -2.34527e-16)
(0.379789 -0.564433 -2.02746e-16)
(0.902662 -0.676682 2.68688e-16)
(0.0713776 -0.284399 4.12636e-16)
(8.77724 -0.085788 1.37625e-19)
(0.760149 -0.721503 -2.50102e-16)
(8.86516 -0.088194 -2.3495e-17)
(1.82117 -0.437125 -6.12474e-16)
(1.72219 -0.349928 0)
(0.0927349 -0.154145 2.37078e-20)
(2.43476 -1.2127 0)
(10.9289 0.229323 3.30331e-17)
(10.9988 0.440114 1.05598e-16)
(0.367763 -0.911961 1.42935e-16)
(0.667682 -0.101037 -1.33292e-16)
(0.380445 0.0740203 7.30223e-16)
(1.96167 -0.220004 0)
(1.79173 -1.23645 0)
(0.409377 0.165213 0)
(10.6013 0.358999 2.24582e-17)
(2.13638 0.21284 2.15131e-16)
(0.505089 0.129002 1.91867e-17)
(2.32437 -1.24235 2.2703e-16)
(0.0735621 -0.121243 0)
(0.466477 0.051588 0)
(0.253387 -0.104194 2.69719e-17)
(0.68291 0.0893792 1.97072e-16)
(9.85203 0.524073 -6.68925e-17)
(1.98139 -0.0110905 2.01429e-16)
(0.236852 -0.0548637 2.08499e-16)
(0.615215 0.176398 3.80773e-16)
(2.84733 -0.640063 -2.80188e-16)
(0.0473973 -0.153477 -2.23438e-16)
(0.252564 -0.0240357 1.9311e-16)
(9.51032 0.839085 1.5592e-17)
(1.75199 0.103572 -2.63062e-16)
(-0.119212 1.19808 -5.26601e-16)
(0.107828 1.28532 1.80953e-16)
(0.489714 0.267407 -4.81726e-16)
(-0.0343477 0.457988 1.06507e-15)
(0.269187 0.527729 -2.13652e-16)
(9.64308 1.1019 -3.36943e-17)
(10.612 0.740551 -8.99408e-17)
(0.180793 -0.20953 -3.63811e-16)
(1.94301 0.277994 2.10522e-16)
(1.58006 0.179893 1.96084e-16)
(0.0259695 0.728483 0)
(0.557778 0.181734 2.80376e-16)
(2.14129 -0.0783 2.83452e-16)
(0.100119 -0.223988 0)
(0.250631 -0.0582721 0)
(0.36247 0.641966 2.33986e-16)
(3.43925 -0.00488893 -1.47702e-16)
(0.0159641 1.11334 -9.44377e-17)
(0.597879 0.245163 1.66425e-16)
(1.26744 -0.0804817 1.86067e-16)
(10.5803 1.06395 -2.90984e-17)
(2.13548 3.27628 0)
(1.66522 0.379103 -4.07518e-16)
(0.530188 1.47213 -2.08103e-16)
(3.35811 -0.12041 -6.1201e-17)
(0.527007 0.310821 -1.2011e-16)
(3.22323 -0.170622 -8.98461e-17)
(9.89399 1.56549 5.47037e-17)
(0.143623 3.39959 -5.243e-19)
(0.531694 -0.605576 0)
(-0.187059 0.184382 2.75318e-17)
(2.62242 0.959117 1.75921e-16)
(1.46513 0.704718 -3.17697e-16)
(0.526067 0.683439 0)
(1.45281 0.62513 0)
(0.437576 3.06663 0)
(0.228647 -0.0240141 5.04822e-16)
(-0.351911 0.0529009 3.21434e-18)
(0.596106 4.09316 3.01159e-17)
(0.622468 0.415025 7.77733e-17)
(1.02799 -0.799427 2.43072e-16)
(0.800558 3.01797 1.79946e-16)
(-0.0745002 0.319222 -3.70175e-16)
(0.18942 2.71985 -7.84747e-17)
(1.69054 0.581566 4.87959e-16)
(0.284248 2.18411 4.33165e-16)
(-0.222076 -0.183968 7.20396e-17)
(0.87746 1.20526 -1.00395e-17)
(0.933014 6.05628 -4.89097e-17)
(0.784306 3.1791 0)
(0.33133 3.04286 0)
(1.53123 2.39859 3.18211e-16)
(0.10172 0.26374 4.12858e-16)
(0.221777 3.03887 0)
(1.18341 3.14172 -3.98929e-16)
(0.131088 -0.345833 -4.32261e-16)
(0.749376 0.526508 -7.16132e-16)
(3.16866 -0.157405 1.51021e-17)
(0.207355 1.33287 -1.76948e-16)
(0.61003 5.06774 3.5541e-18)
(2.24372 7.14217 0)
(0.273408 3.01763 5.46282e-17)
(10.4374 1.94207 -5.34292e-18)
(4.67611 3.22948 7.2222e-17)
(0.734333 1.46444 0)
(4.90998 7.75599 0)
(0.700286 1.18877 1.04789e-16)
(1.09702 1.2367 0)
(3.48488 -0.0874585 -9.3541e-18)
(0.0810308 1.90662 -1.27897e-16)
(0.213936 3.11617 2.4997e-16)
(0.785197 2.70361 -4.22548e-17)
(4.55849 6.00497 -3.71341e-17)
(0.272783 2.9336 -8.01961e-17)
(1.98719 0.56578 -1.14534e-16)
(-0.0698959 -0.424895 1.12596e-16)
(1.41523 4.37715 4.9211e-17)
(3.3628 -0.144401 1.1053e-16)
(0.119347 3.06066 0)
(0.179683 2.87654 1.5473e-17)
(0.203971 3.03725 1.61324e-19)
(0.75864 2.80029 0)
(2.38221 6.40463 2.69116e-18)
(2.29308 4.22211 1.54122e-16)
(1.94521 3.61739 -1.4414e-16)
(2.28487 3.52772 1.97452e-16)
(0.00819674 3.23638 7.26243e-21)
(0.251555 3.87009 -1.55183e-16)
(1.70174 0.854899 -7.43072e-16)
(0.388299 0.627636 0)
(0.728654 0.748636 1.33167e-16)
(0.118103 2.48995 -3.88388e-17)
(0.0387892 2.17162 4.47594e-17)
(1.51828 1.14771 -3.54377e-19)
(1.61155 1.80479 -1.48804e-16)
(-0.0563155 2.95068 -8.93838e-20)
(0.622459 3.10921 0)
(1.05889 -0.596789 -2.01102e-16)
(1.53439 2.50388 5.84357e-16)
(4.04924 1.51829 0)
(10.7458 0.341962 2.00112e-18)
(1.20388 7.649 3.05108e-17)
(0.569762 0.678958 9.91493e-18)
(0.958362 3.50697 5.35217e-17)
(1.3812 0.471193 0)
(2.13941 5.15035 1.2558e-16)
(1.89835 3.85806 -2.5189e-16)
(2.30715 12.0259 4.36586e-18)
(2.87153 4.28228 6.9146e-17)
(2.16644 -0.00662428 -4.6892e-17)
(0.277356 -0.0604938 -3.16881e-16)
(3.29237 -0.166143 5.77881e-17)
(0.990663 1.0695 -1.37089e-16)
(1.30614 2.35306 3.73225e-16)
(0.223209 2.78706 -2.20625e-17)
(0.370699 3.68732 -7.82398e-17)
(0.281996 3.26521 2.24175e-16)
(11.5095 0.0646305 -8.84069e-18)
(3.11789 -0.0379031 -3.69343e-17)
(0.0275711 1.61718 -1.42575e-16)
(1.72566 3.4288 -2.76953e-17)
(3.66326 0.816008 -1.49435e-17)
(2.25508 0.935817 -3.31567e-16)
(-0.184972 -0.0065254 -1.10386e-16)
(1.40897 3.0188 1.94092e-16)
(0.778637 1.31703 1.38262e-16)
(1.05383 5.05209 -8.32408e-17)
(0.529875 3.12305 -2.37649e-16)
(0.331585 0.178433 0)
(2.88527 5.33271 -6.66529e-17)
(1.1541 0.0511629 0)
(0.629456 1.3477 1.61357e-16)
(1.26285 0.692678 0)
(0.120525 -0.0569945 5.04978e-16)
(0.321296 2.88709 -2.41451e-16)
(0.830808 2.59689 5.70423e-17)
(1.89922 4.33789 1.04041e-16)
(5.13824 0.568986 -6.46273e-17)
(2.99703 0.221361 1.22861e-16)
(0.300634 2.90814 -2.10817e-16)
(2.15387 0.534352 9.65067e-17)
(0.249643 3.45048 -2.09049e-16)
(5.08136 2.81562 -2.39837e-16)
(2.94812 0.0394908 5.3271e-17)
(1.05871 3.41462 0)
(0.00174823 2.39417 -4.05581e-17)
(0.707908 1.11434 1.13577e-16)
(1.6403 4.80258 -2.45613e-17)
(1.70971 3.81523 1.51892e-16)
(0.857113 -0.22134 1.70487e-16)
(2.08799 1.72648 2.44683e-17)
(0.0330636 1.86495 1.61943e-16)
(0.214803 3.03478 -8.39806e-18)
(0.200961 3.35005 1.42862e-16)
(2.31283 4.40908 -1.22388e-16)
(0.192389 -0.0969472 7.45227e-17)
(1.7009 3.77834 -8.61369e-17)
(0.551944 3.40956 -2.17074e-16)
(1.51299 5.71108 -5.48308e-17)
(0.172919 0.635737 0)
(8.95231 0.599071 -1.63329e-16)
(7.52529 1.81019 1.20704e-17)
(0.599995 3.19933 1.65756e-16)
(0.533244 1.084 7.31468e-16)
(0.669171 1.77294 4.32959e-17)
(0.260859 1.39639 0)
(2.95312 0.876312 -1.59248e-16)
(-0.248311 -0.0341464 7.97059e-17)
(0.141949 0.13826 -3.731e-16)
(1.25351 0.883652 8.73508e-19)
(0.572734 -0.0929018 -1.77133e-17)
(0.984335 3.04534 6.71098e-17)
(3.86391 0.58231 -8.61727e-18)
(9.12243 0.429987 0)
(0.349706 2.99593 0)
(0.0197709 1.80255 -7.601e-17)
(0.250178 0.0328573 2.6518e-16)
(9.71063 0.509148 0)
(1.09714 -0.942016 3.03757e-18)
(2.01171 4.41681 -3.04857e-16)
(2.73055 0.384882 0)
(2.75161 0.5358 0)
(2.30279 1.26743 -1.37259e-16)
(1.94021 2.14895 2.69623e-17)
(8.56564 0.359214 0)
(1.05076 -0.218701 1.93123e-16)
(0.507516 -0.139857 -1.62324e-16)
(0.171093 2.4592 0)
(0.509436 3.01968 0)
(0.096867 -0.348386 2.13325e-16)
(3.30976 0.155133 -5.55999e-18)
(1.36668 1.46703 1.47718e-16)
(0.107442 0.852632 -3.76923e-16)
(0.174722 2.83422 7.43293e-17)
(3.08351 0.138941 0)
(2.70021 0.0948183 0)
(0.203005 3.00918 -2.12711e-16)
(4.96542 0.235948 -2.18463e-18)
(2.64838 3.57237 -1.86843e-16)
(2.54478 0.0651729 1.39474e-17)
(4.48214 4.95205 -3.8028e-18)
(4.19357 0.202855 0)
(1.75824 3.59956 0)
(0.763173 2.87982 -8.61548e-18)
(2.87785 0.119732 0)
(0.00194729 2.5008 0)
(10.5646 0.599533 -1.15946e-18)
(0.329677 3.6684 -2.71219e-16)
(4.5544 0.218999 0)
(1.21211 1.03904 -5.20837e-18)
(0.8131 3.68349 3.30767e-17)
(0.356409 3.55407 1.02027e-16)
(1.41728 1.10557 -2.12595e-16)
(0.964169 4.5348 -3.82198e-18)
(-0.0417924 3.28546 4.41356e-17)
(0.185717 -0.00706404 -1.01777e-21)
(0.271145 2.55139 -4.68019e-16)
(0.145281 1.97935 -5.51894e-20)
(0.0204617 1.81152 2.51055e-16)
(2.61128 0.0676003 -2.47164e-16)
(0.290865 3.40237 2.06173e-16)
(0.239267 2.59439 0)
(0.0540263 4.00325 2.33732e-18)
(10.28 0.483549 -8.5658e-18)
(0.662821 2.23976 0)
(0.858433 0.128993 5.58732e-16)
(3.94267 0.37499 1.59111e-17)
(0.823989 1.53191 0)
(0.333633 1.76633 4.59813e-16)
(2.45943 7.65022 0)
(1.64105 8.41834 2.47937e-17)
(0.635204 -0.154867 0)
(4.7272 0.85111 2.03506e-17)
(0.183091 2.22101 -3.13611e-16)
(2.87893 0.11284 -9.35264e-17)
(2.13395 1.34874 -2.03729e-17)
(0.0297779 0.569987 3.02033e-16)
(0.17952 2.94945 -6.87414e-17)
(5.37819 0.25744 7.94473e-18)
(8.15134 0.289543 0)
(3.1243 -0.135416 -1.75585e-17)
(0.0771384 3.52823 0)
(0.489782 3.5622 0)
(2.81153 0.220285 -1.17326e-16)
(2.37446 4.06997 0)
(0.140891 2.97881 0)
(1.2142 3.80321 -3.74885e-17)
(3.59664 -0.719515 0)
(0.15981 -0.189454 2.09882e-16)
(0.450891 3.91239 6.68141e-17)
(1.17929 -0.66482 2.26071e-16)
(0.823532 0.465314 1.73824e-16)
(1.77141 0.289823 1.95828e-17)
(3.45394 0.330289 -5.59891e-17)
(1.59076 -0.588563 -3.72656e-16)
(13.5326 2.59899 0)
(0.600012 4.18366 0)
(0.186402 3.13863 -2.30069e-16)
(0.204398 0.210582 -7.12484e-20)
(0.800246 4.0721 1.38987e-17)
(1.12122 0.45888 2.1553e-17)
(10.7622 2.15401 3.29109e-18)
(2.92165 1.94998 4.52398e-17)
(-0.0180739 0.634628 -1.00682e-16)
(1.35487 -0.553516 3.53871e-16)
(0.0472004 -0.465305 -3.29092e-16)
(0.0320133 2.89679 0)
(2.18096 -0.398929 4.02274e-16)
(2.56408 -0.470436 -2.01206e-16)
(0.8859 3.51823 -3.42844e-17)
(2.03735 0.167978 -1.69978e-17)
(0.282428 1.49922 -5.02819e-16)
(0.00698419 3.10794 -7.3004e-18)
(0.861719 4.44244 1.78085e-16)
(0.133191 3.08181 1.09326e-16)
(0.175084 3.23621 0)
(1.64816 1.65505 9.81015e-17)
(2.4255 0.0146856 5.38475e-17)
(0.0143259 0.261269 0)
(0.620053 3.31616 -1.9084e-16)
(0.387673 0.716364 -7.22919e-16)
(1.72204 2.9461 0)
(0.764835 0.00861266 -1.72371e-16)
(0.665642 2.22289 0)
(0.203847 -0.727577 -6.81663e-19)
(3.56895 0.173085 -2.59698e-18)
(9.82787 2.45255 1.8785e-18)
(2.14225 3.88807 0)
(1.47638 1.69453 2.14176e-16)
(0.227923 3.62354 -1.30736e-16)
(1.53789 1.89841 0)
(2.19852 0.616488 -1.2174e-16)
(-0.0329643 -0.0453778 -1.73496e-16)
(0.0686249 2.88095 -1.34687e-16)
(0.619878 3.25686 1.48231e-16)
(0.212458 2.52172 3.12708e-16)
(2.44384 0.0355561 -2.93159e-17)
(2.90025 -0.199963 0)
(0.495986 3.52445 0)
(2.95427 -0.225541 2.87825e-17)
(0.655569 1.87299 2.06837e-16)
(0.108556 3.30234 -4.80983e-17)
(1.90874 -0.704093 1.14939e-16)
(0.439372 -0.177973 -2.70783e-16)
(0.174757 3.04029 0)
(0.148964 2.94042 1.21504e-16)
(9.77845 7.65658 -1.4287e-18)
(0.333532 2.47189 4.15681e-17)
(0.745599 3.79921 -1.63612e-17)
(0.371305 0.689355 -1.14585e-16)
(1.93733 4.07182 2.02192e-16)
(4.17822 1.23064 2.90186e-18)
(3.21009 0.0715831 -1.22986e-16)
(1.52216 0.468971 0)
(11.3752 0.751873 2.22392e-18)
(0.227486 3.05647 8.94975e-17)
(8.54272 0.334741 1.12736e-18)
(0.0821033 2.54063 -1.43929e-16)
(0.0299436 -0.530889 -1.8632e-16)
(0.196862 3.01641 -4.03184e-16)
(0.446188 3.44691 7.07614e-19)
(0.183832 0.0464002 5.12184e-16)
(1.69446 3.88756 -1.2863e-16)
(0.829154 1.81246 -4.80253e-16)
(0.527218 3.01079 -2.10604e-19)
(3.8768 0.188543 1.05564e-17)
(0.0812912 3.34274 -6.45235e-17)
(0.205401 3.09565 4.40052e-17)
(0.350609 4.92873 -2.46207e-18)
(-0.227246 -0.42987 0)
(1.57421 -0.0340012 0)
(0.221027 3.00163 -1.11558e-16)
(5.85614 0.278756 1.80637e-18)
(7.79838 0.176614 -1.27351e-17)
(0.191435 3.49818 2.00262e-16)
(1.61891 1.5932 -3.7297e-17)
(1.69116 -0.0911289 7.12803e-17)
(4.54659 0.678341 9.29115e-18)
(0.184712 3.02774 7.47027e-17)
(0.783851 2.93578 -1.33501e-16)
(1.93039 0.91088 4.8805e-16)
(0.677786 2.21286 -1.32316e-16)
(0.577355 0.103653 0)
(0.628762 0.00517622 -1.31734e-16)
(0.266062 1.39552 -1.40698e-16)
(1.21132 2.63514 0)
(7.68302 1.07705 -1.05376e-17)
(0.745144 0.0505739 1.02242e-16)
(5.30574 0.0158532 0)
(0.0432676 -0.0903687 0)
(6.25126 2.74331 -2.97474e-17)
(-0.0464814 3.38746 2.27248e-17)
(0.473294 5.09377 -6.68429e-18)
(0.66091 0.756659 0)
(-0.290723 -0.00579964 1.0076e-16)
(0.595721 -0.127025 8.97327e-16)
(1.19189 -0.178719 -6.00747e-16)
(3.36798 0.181098 -4.04824e-17)
(2.64311 2.13912 7.13827e-17)
(0.332955 -0.0851186 2.8147e-16)
(0.799143 -0.0975241 0)
(0.254861 0.766244 -9.12265e-17)
(1.7827 2.35472 -2.23712e-18)
(2.04024 3.23403 8.15185e-17)
(1.35095 1.71182 -3.34738e-17)
(0.422307 2.57874 0)
(0.729631 3.50865 1.08555e-16)
(0.292539 2.5751 1.21542e-16)
(2.30126 -0.0799702 0)
(9.79832 0.66023 1.37763e-16)
(0.862386 3.61869 0)
(0.412473 2.96093 0)
(2.93377 4.76812 -2.96263e-18)
(0.542503 3.25703 2.46993e-16)
(0.495197 4.42405 1.44111e-16)
(4.81996 -0.191559 -1.77517e-16)
(0.319903 -0.24491 2.67268e-16)
(2.91341 -0.321278 2.03013e-16)
(-0.0252023 2.7409 0)
(0.737102 3.6098 6.43175e-20)
(0.199261 2.73031 -2.32824e-16)
(7.93436 -0.052538 -6.12635e-17)
(2.25562 -0.212551 5.26159e-17)
(0.14136 3.29815 3.77217e-16)
(0.161066 0.587993 -1.36325e-16)
(1.49358 1.62007 1.58163e-17)
(6.284 -0.144321 3.88677e-17)
(3.20983 -0.193174 -7.05657e-17)
(0.110427 8.62516 8.05793e-17)
(0.0453481 2.46978 3.53792e-20)
(0.0371339 2.42196 1.28682e-16)
(-0.00110155 2.3315 1.18968e-18)
(0.0207072 2.36978 0)
(0.0715854 9.40007 -7.11422e-17)
(0.0568846 2.4956 -2.41057e-16)
(0.00480938 3.74651 -9.69988e-19)
(0.0478345 3.63685 -2.67719e-17)
(0.0126842 3.6668 0)
(0.0116878 3.84082 5.52973e-17)
(0.140657 8.03641 0)
(0.156406 10.1601 0)
(0.00693473 3.97403 -7.30949e-17)
(0.299662 6.80429 -4.23731e-18)
(0.223476 7.45323 -3.91736e-18)
(-0.00198291 4.04397 2.32647e-17)
(0.0620763 2.49125 1.25613e-16)
(0.0644097 2.51779 0)
(-0.017611 4.02583 -3.20748e-17)
(0.0673354 2.57159 0)
(0.0662297 2.64804 0)
(-0.0286712 3.97628 2.39856e-17)
(0.0661884 2.74157 0)
(0.226837 2.449 1.40328e-16)
(5.61214 4.28254 -5.86022e-17)
(0.688287 -0.402515 2.80243e-16)
(0.0681415 0.448554 0)
(1.76948 3.6417 -1.24627e-16)
(-0.786511 -0.837333 1.13653e-16)
(0.589336 1.23522 4.555e-16)
(8.07661 2.03908 -1.69021e-17)
(-0.101726 3.46017 -2.88653e-17)
(0.811685 5.79193 0)
(-0.721684 -0.259865 5.48289e-16)
(1.15212 -0.321613 3.22524e-16)
(2.25713 0.575282 0)
(5.29022 -0.232518 3.12271e-17)
(2.00377 -0.614636 -2.35803e-16)
(0.113955 -0.164639 -2.10509e-16)
(6.27371 3.45568 1.02738e-16)
(2.57197 3.52019 -5.35229e-17)
(0.266817 2.72334 1.29923e-16)
(2.77697 1.77588 -4.10306e-17)
(3.15454 0.0271859 -8.1253e-17)
(8.26605 0.609668 -2.92742e-19)
(-0.967323 0.10401 -3.16633e-16)
(0.0677117 2.84847 0)
(1.65482 3.75091 3.9985e-16)
(1.58498 2.08733 -7.09219e-20)
(1.61828 0.0942691 6.21036e-17)
(1.38039 0.199557 0)
(11.0245 0.0813096 2.64668e-17)
(0.0795719 0.594257 -1.82593e-16)
(3.75985 -0.24549 3.06991e-18)
(0.319181 2.29841 1.72548e-16)
(0.196175 3.08659 0)
(0.644303 1.41407 1.1439e-17)
(0.65386 1.56656 -9.28354e-17)
(9.10434 3.13854 2.41617e-17)
(1.05816 -0.844647 2.93282e-16)
(1.23383 -0.264686 -2.80244e-16)
(-0.0367696 -0.268983 2.45319e-16)
(2.3498 -0.240847 -5.87604e-17)
(0.705336 2.20698 4.64424e-17)
(-0.0616589 2.74515 1.73726e-20)
(0.231047 4.76521 -2.02016e-17)
(0.0423763 0.808211 0)
(1.41728 1.48445 2.75932e-19)
(0.705903 0.269983 6.82033e-17)
(3.78854 0.582862 9.65157e-17)
(0.416972 -0.520985 0)
(0.852236 0.328097 -4.18302e-16)
(0.0865787 -0.0537957 0)
(11.2827 0.562491 1.96248e-18)
(0.755664 2.92544 0)
(1.40836 1.77967 -8.46734e-17)
(0.0606122 1.43829 1.7432e-16)
(0.12526 -0.138176 3.25444e-16)
(3.50408 -0.948651 0)
(3.00967 -0.010386 -2.89199e-17)
(0.0703225 3.03991 4.83271e-19)
(0.285352 -0.872592 0)
(2.43907 -0.000273392 0)
(1.22852 1.55881 -3.21793e-16)
(0.13193 2.98894 -1.31629e-17)
(7.31931 -0.00184217 0)
(0.186189 0.119291 -1.42858e-16)
(4.03706 -0.877941 -1.93274e-16)
(0.0811922 -0.0950992 0)
(0.0801041 2.57754 3.51269e-16)
(1.66696 -0.693053 -1.31228e-16)
(7.39992 4.94986 2.06791e-17)
(0.82545 3.50412 3.34093e-17)