/*--------------------------------*- C++ -*----------------------------------*\
| =========                 |                                                 |
| \\      /  F ield         | OpenFOAM: The Open Source CFD Toolbox           |
|  \\    /   O peration     | Version:  v1912                                 |
|   \\  /    A nd           | Website:  www.openfoam.com                      |
|    \\/     M anipulation  |                                                 |
\*---------------------------------------------------------------------------*/
FoamFile
{
    version     2.0;
    format      ascii;
    class       volScalarField;
    location    "0.74";
    object      p;
}
// * * * * * * * * * * * * * * * * * * * * * * * * * * * * * * * * * * * * * //

dimensions      [0 2 -2 0 0 0 0];


internalField   nonuniform List<scalar> 
1466
(
89.3818
124.417
87.4888
90.8094
91.7797
104.699
88.2113
87.6736
115.649
106.011
82.7674
108.259
115.818
91.3446
104.262
81.9685
88.8123
110.061
113.223
90.3806
91.7142
81.6833
109
91.223
115.815
125.661
81.1153
90.1243
91.1592
122.43
84.6365
124.227
90.2394
90.8524
115.771
91.7617
90.9533
89.4928
105.552
90.6184
88.5003
81.0909
82.736
89.0837
91.3876
88.3736
85.1056
90.3518
106.599
89.6073
105.543
124.15
104.716
92.3772
90.6734
114.04
88.8486
81.9635
90.4678
105.648
125.933
88.4556
90.4278
124.8
97.3836
85.6679
111.88
90.6396
118.35
87.6678
126.005
110.03
91.6263
114.737
125.978
116.216
88.6641
90.9708
88.922
121.863
105.082
81.0983
86.8062
104.386
90.9966
87.2887
90.9273
120.278
104.369
104.95
125.61
81.0084
91.8459
89.3994
85.137
89.051
124.664
82.9193
116.947
91.8315
105.099
105.792
89.9545
108.709
83.4441
86.9016
105.198
91.3941
83.9366
89.1328
125.841
116.773
89.0811
81.8915
106.796
125.554
81.0557
108.488
88.2693
89.5713
90.4586
88.9893
90.9345
89.4053
91.2143
88.8613
119.682
109.642
90.7615
123.552
105.338
81.3082
109.211
91.2367
125.198
88.3285
89.9503
90.3643
88.3485
89.9973
90.5185
89.8576
91.1204
107.495
84.8777
92.2788
124.084
123.876
123.52
106.682
125.565
123.931
119.075
84.6115
123.573
80.9018
90.006
91.5912
123.817
95.4718
123.907
121.059
81.9316
90.853
123.345
84.0984
91.1273
108.592
89.2648
101.077
89.9508
123.514
89.1126
118.658
124.369
112.901
123.489
122.814
125.776
126.671
116.283
125.011
89.9725
89.5675
119.435
89.4995
91.1491
104.58
118.441
89.3878
89.578
126.182
93.3723
99.5154
94.4513
125.747
87.1719
117.528
125.044
93.1929
87.6158
123.489
121.636
89.8142
125.862
125.072
97.3583
120.005
123.638
90.7946
110.54
91.2292
106.617
89.931
93.0881
91.4142
90.284
91.2893
111.499
91.1695
109.557
125.58
91.3641
125.798
89.866
119.64
108.141
89.6623
125.706
125.17
126.45
118.382
104.337
96.4948
105.825
125.33
91.1852
107.937
123.578
89.4677
89.2957
121.538
121.972
101.535
123.519
120.853
124.539
114.288
122.365
121.915
90.273
97.7944
119.392
89.9274
123.617
123.846
90.5991
103.986
91.4956
89.7218
105.387
109.858
91.2938
125.228
94.3844
89.2757
124.546
123.454
100.926
106.18
79.0234
91.3374
103.924
123.608
125.493
125.872
125.641
96.8116
89.4322
123.324
124.65
94.3217
94.3491
120.021
92.4558
88.0702
123.51
123.781
90.2052
115.899
117.936
89.5104
116.331
89.6391
98.5953
101.136
91.5946
89.1106
123.299
124.882
90.6017
104.462
126.187
115.454
91.2947
90.4344
89.0785
89.6344
114.695
89.3788
119.003
109.647
91.0229
125.024
124.769
124.199
92.2742
125.546
88.8199
104.173
103.365
91.2996
87.2044
124.885
90.8494
113.204
88.5938
130.473
124.477
125.161
110.403
114.576
87.1009
102.142
92.7682
94.7419
90.8578
123.713
89.0784
89.2915
90.8205
119.727
90.3809
139.866
100.613
126.049
119.565
129.558
117.897
92.2024
98.3662
98.2221
93.9543
91.6799
91.8442
92.8157
91.4034
87.0898
107.049
122.413
91.1868
94.2288
96.3347
89.5454
89.7441
113.165
118.926
118.281
91.6525
99.7689
107.999
94.7575
142.378
104.799
87.0949
90.3516
108.706
132.298
89.3166
95.6257
89.0983
89.1453
89.1605
89.2805
89.4486
89.2604
89.5096
88.9698
89.2137
88.4517
90.1167
90.4031
89.0961
90.2797
88.9812
88.7057
87.8136
120.957
88.9826
88.1811
87.817
88.0661
108.115
89.0982
105.858
81.2763
107.747
105.962
82.3001
80.9714
104.285
110.334
107.902
80.9665
106.9
90.0347
89.9122
105.774
104.392
88.3671
80.5422
80.7046
88.1561
107.523
88.2297
89.2836
80.6746
146.711
88.1762
89.0734
104.358
88.9004
91.1641
85.4383
124.357
88.3804
88.0703
88.7035
89.8807
104.525
87.9277
89.624
104.605
88.4879
124.622
88.8393
116.43
124.852
89.0563
105.583
125.075
89.2438
89.4602
116.29
90.0976
89.607
84.8785
86.7356
89.5421
124.919
89.5644
89.7579
85.4545
90.7124
107.844
89.1716
89.4477
89.535
89.3273
89.2693
89.3941
85.5778
107.684
88.9336
125.102
89.1858
90.6343
91.3168
95.8733
95.0701
100.305
90.0427
91.4225
94.9397
95.5669
119.26
89.1841
90.5332
95.6708
96.9661
96.2005
90.2447
87.8486
89.664
90.2358
90.3102
90.6163
89.59
125.81
88.9045
89.5593
89.3941
86.4789
109.788
89.3909
89.7815
118.588
125.227
89.2501
90.3961
124.037
94.3057
89.6088
93.7111
90.5204
89.2813
89.53
116.524
117.508
86.6388
89.578
89.2302
94.4101
124.832
92.6832
89.3139
89.2523
90.8282
89.4952
93.6016
88.7824
82.3998
93.4562
90.1718
90.1206
89.3652
102.015
127.959
89.7672
90.8646
119.381
109.18
90.1691
89.1719
89.724
105.979
90.0045
106.683
93.8299
125.346
86.3875
89.1488
90.4377
89.8626
89.7844
90.4502
90.2523
89.1868
91.2132
110.903
92.232
93.1595
124.78
132.55
117.52
89.0197
89.9262
92.9859
136.698
90.2609
90.1228
91.7333
123.583
124.151
90.3213
89.1918
100.391
90.1471
90.2854
85.9431
93.3896
90.449
90.3012
90.1012
89.064
91.496
89.4354
112.648
90.3586
88.9877
90.4887
111.136
89.8174
90.1015
90.9563
90.7539
109.88
94.9719
92.2738
95.1319
132.645
107.785
100.532
108.76
108.363
90.8607
124.422
88.7551
106.26
89.3097
89.2929
88.6534
116.029
98.7366
91.2679
123.592
123.714
124.66
119.016
87.93
114.777
88.6857
124.03
103.177
117.451
89.8695
89.1976
91.0695
92.5364
90.4304
95.8612
117.359
119.12
100.662
90.0302
110.569
90.2869
92.3196
124.163
90.5504
92.0549
115.473
93.4512
125.703
89.5203
106.291
91.4257
90.2384
92.0958
120.996
90.0461
116.871
126.1
89.4624
95.5609
89.3693
89.09
91.1975
124.208
110.489
95.5472
118.087
88.5539
110.101
96.3231
123.422
87.9425
124.028
111.064
89.2432
90.366
123.627
91.8757
90.6545
107.813
90.7419
104.24
125.929
88.4819
115.631
92.7151
89.3936
125.505
111.5
122.843
91.3017
122.154
123.403
94.4401
123.232
94.3315
115.844
112.69
106.646
122.676
123.466
104.173
88.2226
121.803
90.5257
89.7157
122.456
123.327
124.705
89.1857
89.1834
123.79
88.6755
123.519
89.1501
89.3051
111.273
89.582
95.1809
91.2696
91.2855
91.8655
89.792
93.3927
123.194
116.104
81.7891
110.912
90.4483
90.4746
90.114
91.34
89.2138
88.9966
125.893
90.7175
91.5867
87.4588
90.9209
112.526
124.28
91.0289
91.4913
89.2327
95.6271
90.7988
104.204
89.7001
90.3692
88.9789
88.1602
120.575
126.136
89.2467
120.408
92.0269
86.5388
125.595
88.4194
87.3299
112.952
86.3971
90.1755
116.978
105.14
91.1315
88.6976
125.749
125.154
96.5013
122.087
89.4953
113.681
110.617
89.8102
124.211
88.898
90.9332
88.7962
80.4988
88.9442
127.777
122.988
89.171
108.215
90.44
88.9725
89.8223
89.0148
94.2327
90.8053
104.209
90.86
89.3628
100.347
89.0708
96.1179
89.7478
88.7423
124.034
116.234
90.627
82.6878
85.5345
90.4732
89.0333
90.6233
90.6903
88.4521
94.0206
88.6998
126.106
116.835
80.5404
91.1319
89.9649
98.2424
110.792
91.0262
125.773
88.7962
90.5027
89.6371
125.244
92.1075
108.772
89.8001
88.8038
123.182
89.9873
88.3685
89.0627
114.896
116.945
111.095
122.231
91.2801
88.9507
81.496
88.5186
105.517
105.099
123.116
88.8204
88.8786
89.0251
89.1286
91.2117
88.8971
85.7488
106.296
120.129
90.8774
124.711
90.9202
85.2245
119.085
89.1818
90.4063
88.9303
123.718
121.702
124.402
104.792
91.1106
96.1983
90.6172
116.494
89.0649
125.826
87.8068
87.2971
88.9066
124.297
90.3794
88.9153
125.639
90.6559
123.725
96.3389
89.1542
90.6019
90.884
90.0101
91.7015
90.4939
89.6761
91.307
89.8032
93.7564
110.48
111.731
95.4099
92.6907
91.6918
97.6204
110.186
114.462
103.432
100.573
118.392
122.394
126.424
125.208
90.7244
89.9903
89.7428
91.9428
117.29
116.174
125.774
89.6814
89.4329
105.952
89.2064
91.4181
104.514
89.6857
108.725
89.8916
104.182
121.004
113.455
106.126
89.1721
90.6865
124.295
88.3299
124.73
105.522
91.0107
82.9029
90.1021
89.0741
91.0847
103.091
123.63
115.28
88.8124
104.662
88.9069
91.0278
90.3901
89.0053
88.1574
89.8657
123.537
122.778
90.0947
88.292
89.79
124.14
110.782
117.931
115.297
125.587
105.181
122.803
81.0288
89.644
93.9179
125.874
104.534
81.7545
133.458
90.6057
109.896
90.0436
119.634
90.8652
108.537
88.6434
104.932
89.0922
87.0154
89.9993
90.8193
82.103
90.2898
124.933
124.841
125.621
92.9253
85.2869
124.904
89.347
91.3938
108.301
90.0173
116.828
90.3921
89.6653
125.378
109.397
90.6475
125.269
88.9944
105.254
110.467
111.947
111.792
122.897
90.4976
90.963
105.429
89.0262
95.0003
94.4637
116.821
127.02
88.2162
89.3296
89.3635
106.674
115.267
91.0147
108.287
89.4342
125.727
88.4325
89.4594
83.3688
124.08
124.04
89.4546
108.42
92.3682
81.1177
109.106
89.4834
110.308
91.6018
109.381
91.1672
90.7253
88.5866
95.3279
125.407
123.476
91.1581
86.5825
124.391
125.901
95.5488
115.667
125.393
118.453
89.3264
90.9822
119.138
85.4775
126.227
125.406
86.3015
90.335
89.1658
90.7856
124.787
90.7542
118.346
89.3373
123.808
123.22
123.968
124.504
88.9466
103.792
121.417
118.716
125.832
90.4104
127.126
89.0519
90.8065
126.216
95.8503
89.01
125.336
88.8097
124.49
88.6995
107.738
124.622
124.345
89.2114
90.6467
117.252
89.4998
124.99
124.736
125.111
124.867
118.079
117.761
123.841
123.925
124.042
124.19
115.675
95.4135
90.9745
123.926
124.343
91.6214
89.7847
125.112
109.376
90.7999
88.98
88.2707
89.6701
85.2357
89.8713
121.613
90.8742
88.9626
123.569
108.877
124.526
123.278
126.562
116.016
116.918
90.8061
88.2368
115.278
126.049
114.398
91.0434
109.653
114.824
85.2382
124.485
122.425
104.387
118.496
120.766
104.845
89.2362
90.3848
88.9502
123.363
85.248
91.4128
81.1449
89.7461
84.7625
89.7372
105.711
120.069
100.652
104.876
90.5466
88.9053
105.008
89.7411
117.344
116.978
90.6203
123.559
86.5022
124.293
105.839
128.126
89.7742
116.002
100.607
109.262
90.673
89.5821
96.0798
120.367
84.6129
97.7039
90.2423
88.4278
88.9532
90.4061
89.3737
90.8313
85.3275
120.517
95.1823
83.3293
82.8655
96.3471
115.67
124.962
90.8978
81.4048
89.7997
89.7074
89.0037
90.6006
93.5999
89.6667
88.3521
84.2172
125.655
88.4821
105.279
105.938
117.407
123.357
125.75
122.431
123.685
104.514
120.297
120.724
124.192
107.6
114.71
89.0018
123.48
89.4461
125.743
125.613
89.1319
90.9212
112.147
106.078
116.198
93.158
90.4459
89.2074
85.9956
111.99
113.676
95.9383
90.0173
88.6057
105.094
104.787
83.7607
95.9578
123.09
107.009
91.7241
89.1555
90.6423
82.86
106.101
89.8517
104.953
88.1837
83.3255
88.9687
95.2293
123.758
123.811
107.858
90.1044
89.9077
89.5736
115.232
90.7569
91.991
122.213
90.8215
117.638
82.7887
105.502
91.4377
88.8019
93.4017
124.942
89.2684
125.586
81.8889
96.2222
89.5239
92.5561
94.2729
91.7342
115.855
124.357
105.855
123.729
90.1246
89.3314
121.045
89.4484
88.3581
110.803
90.5124
108.487
89.0163
124.155
126.008
117.017
84.9932
90.5209
88.973
112.573
89.7364
88.4742
109.354
90.421
88.8185
106.208
90.9842
107.654
116.67
107.716
90.8745
91.353
104.381
90.2169
81.0984
112.655
90.5668
110.415
90.4468
86.0056
89.1339
90.5053
88.8953
91.1228
88.4688
124.497
89.2366
112.013
125.604
91.6527
88.1528
119.796
89.7337
81.2106
126.169
118.464
126.33
112.933
90.9068
84.6178
125.93
111.86
125.547
89.5514
90.4569
88.9664
85.3227
89.4131
97.4479
88.9762
124.703
89.7861
124.403
85.207
83.6709
113.035
122.81
123.077
90.2001
123.265
107.237
124.195
123.18
91.1038
90.2239
122.383
106.9
123.561
122.071
122.946
90.3116
124.662
102.814
125.945
121.593
96.8329
92.0442
126.035
126.166
125.218
123.425
89.3966
119.07
124.997
99.9802
127.101
124.884
84.0614
124.947
82.1516
82.6539
88.2031
81.3712
82.004
84.7726
88.586
90.2316
104.644
121.256
126.552
90.9963
117.382
90.7176
91.1974
90.8606
117.742
103.278
90.605
89.1814
124.927
90.6673
105.003
123.878
87.8782
124.359
109.74
91.0957
120.343
91.256
90.7746
125.184
90.085
82.7393
88.5982
86.6175
106.122
90.7136
88.35
88.4884
121.248
124.333
123.959
124.002
124.601
125.036
116.497
122.25
106.646
88.3425
124.997
113.08
85.7076
124.68
86.1293
106.91
89.5352
86.2987
87.2308
90.8208
89.3574
90.085
90.7887
92.9047
99.9093
86.5793
89.5653
107.517
137.965
102.414
108.339
120.083
126.237
116.631
114.49
113.134
88.7628
88.6332
91.2621
86.9408
90.9511
90.8231
108.181
87.348
123.838
124.188
124.764
)
;

boundaryField
{
    frontAndBack
    {
        type            empty;
    }
    wallOuter
    {
        type            zeroGradient;
    }
    inlet
    {
        type            zeroGradient;
    }
    outlet
    {
        type            fixedValue;
        value           nonuniform 0();
    }
    wallInner
    {
        type            zeroGradient;
    }
    procBoundary1to0
    {
        type            processor;
        value           nonuniform List<scalar> 
29
(
89.32
89.32
88.3261
88.1919
81.3416
81.8497
114.919
88.2116
87.5425
88.2659
88.632
81.8497
88.3261
89.9032
115.638
116.055
81.3416
81.5836
88.1919
89.2061
116.248
116.286
82.4665
114.942
114.942
82.4665
116.974
115.031
116.974
)
;
    }
    procBoundary1to2
    {
        type            processor;
        value           uniform 89.14;
    }
    procBoundary1to3
    {
        type            processor;
        value           nonuniform List<scalar> 
48
(
90.6598
91.1307
90.954
90.954
91.3549
90.7676
90.7676
90.417
90.4346
89.2334
88.8067
89.2334
90.5209
89.9166
89.3632
90.5209
90.4298
90.4298
89.1655
89.1655
91.0171
90.9054
88.4325
89.6537
89.6537
88.5699
90.6913
90.6913
90.4877
90.041
89.2612
90.4877
90.417
90.5206
88.3634
90.041
90.5313
88.8067
91.104
91.6108
90.5083
90.5343
90.5206
88.3634
89.1139
92.2923
91.4416
90.5083
)
;
    }
}


// ************************************************************************* //
