/*--------------------------------*- C++ -*----------------------------------*\
| =========                 |                                                 |
| \\      /  F ield         | OpenFOAM: The Open Source CFD Toolbox           |
|  \\    /   O peration     | Version:  v1912                                 |
|   \\  /    A nd           | Website:  www.openfoam.com                      |
|    \\/     M anipulation  |                                                 |
\*---------------------------------------------------------------------------*/
FoamFile
{
    version     2.0;
    format      ascii;
    class       surfaceScalarField;
    location    "0.09";
    object      phi;
}
// * * * * * * * * * * * * * * * * * * * * * * * * * * * * * * * * * * * * * //

dimensions      [0 3 -1 0 0 0 0];
oriented        oriented;


internalField   nonuniform List<scalar> 
2708
(
-2.5392e-05
0.000208498
1.00322e-05
-0.000193138
-0.000140569
0.00021232
1.62721e-06
-7.33787e-05
0.0002771
0.000175472
-0.000328645
-0.000123927
-0.000292358
0.000162007
1.72183e-05
0.000113133
-5.89332e-05
2.89375e-05
0.00021005
-0.000180055
7.7994e-05
0.000137046
-6.88549e-06
-0.000208154
0.000149028
-6.59387e-05
0.000668221
-0.00080476
0.000989732
-0.000853193
1.71495e-05
0.000618382
-0.00066319
2.76589e-05
0.000174205
0.000350424
-0.000358798
-0.000165831
0.000136308
7.10169e-05
-4.57274e-05
-0.000161597
-6.41628e-06
-1.99269e-05
2.63432e-05
0.000126884
-0.000117473
0.000139158
-0.000148569
0.000665872
-0.000720102
0.000108021
-5.37918e-05
0.000357963
-0.00113552
0.000962495
-0.000184935
6.20634e-06
-0.00025241
0.000246204
-0.000947503
0.000484371
0.000821096
-4.20974e-05
-2.8425e-05
0.000154883
-8.43606e-05
-1.34619e-05
1.31141e-05
3.47756e-07
0.000104834
7.20839e-05
-4.06107e-05
0.000186715
7.14701e-05
-4.24943e-07
-0.000257761
-0.000231325
-0.00032612
0.000140665
-2.94828e-05
0.000114402
-0.000225585
0.000592009
0.00012461
-5.07468e-05
0.000360483
4.80687e-05
-0.000385014
-2.35374e-05
7.22934e-05
-2.63879e-05
5.8929e-05
-0.000381877
0.000308404
-0.000147945
0.000221417
9.72796e-05
-4.92803e-05
-0.000768101
-0.00103521
7.74838e-05
0.000950763
6.9626e-06
0.000147196
-7.67962e-05
-7.77959e-05
7.39626e-06
-0.000263588
0.000524527
-0.000276525
1.55863e-05
0.000876212
0.000454778
-0.000605261
-0.000725729
0.000261246
0.000212399
-0.000473644
0.000293505
-0.000247709
-4.57959e-05
0.000177344
-0.000158017
-1.93276e-05
-0.000833906
0.000593222
0.000930436
-0.000689751
-2.59114e-05
2.07386e-05
-7.91006e-05
8.42733e-05
-0.00121064
0.00116647
-4.18827e-05
8.60579e-05
-0.000119773
0.00011538
-1.32971e-05
-0.00142869
-2.7428e-05
0.000245476
-7.13515e-05
-4.67792e-05
-2.13509e-05
0.000139482
-8.24417e-05
-0.000244203
0.000326645
4.29837e-05
-8.61248e-05
-0.000261684
0.000304825
-2.62424e-05
1.91074e-05
-0.000151914
0.000159049
0.000356426
-0.00027043
-0.000164439
7.84435e-05
-0.000315038
-7.94137e-05
0.000232523
0.000161929
0.000129971
0.00106163
-0.000669533
-0.000522067
-1.56673e-05
1.39732e-05
-0.000952911
0.000954605
-0.000502924
0.0010042
-0.000832796
0.000331523
2.89718e-05
-0.00110488
0.00113138
-5.54675e-05
-0.000135217
-3.3224e-05
0.000125393
4.30476e-05
-0.000421987
0.000291077
0.000305115
-0.000398969
0.000291833
0.000124285
-0.000227662
0.000133587
0.000125899
-3.18236e-05
-0.000112698
6.15436e-05
6.12227e-05
-1.00678e-05
-0.000941797
0.000168999
0.00093399
-0.000161192
-2.74083e-05
-0.000111591
0.000349126
-0.000210127
0.000161014
-0.000263667
0.00014861
-4.59569e-05
-0.000538182
0.000516788
9.75455e-05
-0.000172058
0.000261228
0.000910936
-0.000884641
0.000103676
6.28796e-05
-6.00287e-05
1.69221e-05
-1.9773e-05
0.000781131
-0.00095219
-0.000662848
-0.00042784
0.000471581
0.00101851
-0.00106225
0.000815022
-0.000175963
-2.98644e-05
-0.000609195
4.6139e-05
-5.1224e-05
0.000113939
-0.000108854
0.00022587
4.85339e-05
0.000113736
-0.000332639
0.000231405
-1.2502e-05
-0.000629322
0.00103991
-0.00073439
0.000323805
0.000336489
0.000151102
3.24151e-05
5.5535e-05
-3.03992e-05
-5.75508e-05
-0.000146937
4.68057e-05
-3.1943e-05
0.000132074
9.95828e-05
0.000161663
-1.73163e-05
-0.000229832
0.000258129
-1.09804e-05
0.000132895
7.78663e-05
-3.52898e-05
0.000980357
3.75876e-05
-0.00102715
9.20434e-06
0.000143143
-0.000275382
-7.27909e-05
0.000205029
-0.000959774
0.000933545
-0.000401611
2.72793e-05
-0.000117472
-2.17716e-05
0.000111965
0.00024747
-0.000209095
4.55852e-05
-8.39606e-05
0.00033172
-0.00045929
0.000409114
-0.000281544
-0.000238307
-8.60781e-05
0.000204187
0.000120199
-0.000254459
0.000277957
-8.2613e-05
5.91154e-05
-0.000342231
6.13133e-05
0.000345224
-6.43062e-05
-0.000127168
-5.25351e-05
0.000127626
5.20779e-05
0.000505511
0.000135181
-4.86824e-05
-3.54852e-05
5.35823e-05
-0.000127274
0.000109177
-0.000112421
-5.65169e-07
3.67003e-06
0.000109316
-0.000243537
0.000176285
-5.99165e-05
-0.000324697
-8.30931e-06
-9.22497e-06
0.00115671
-4.86743e-06
1.46218e-05
-4.69169e-06
1.44766e-05
9.92966e-05
-0.000109082
0.000171139
-0.000332192
0.000258599
3.46305e-05
-0.000162183
-1.93843e-05
-0.00013375
-0.00101256
0.00104467
0.000101642
0.000270794
0.000120923
-0.000276005
-0.000115712
-0.000596309
-0.000170203
-0.000258444
0.000208697
0.000163483
5.44046e-05
-0.00111092
0.001112
-5.54893e-05
-0.000209676
0.000239224
-8.26499e-05
5.31018e-05
0.000289869
-2.90227e-05
7.50097e-05
-0.000335856
0.000172815
2.42323e-05
2.72175e-07
-0.00019732
3.90117e-05
-5.50412e-05
-1.92171e-05
3.52466e-05
0.00104988
-0.00147654
0.000172195
0.000254468
0.000140995
-1.6581e-05
5.71445e-06
-0.000130129
0.000139335
-6.93935e-05
-0.000561533
-5.27098e-05
-0.000146722
0.000210013
-1.05812e-05
1.48556e-05
0.000180291
-0.000243297
4.81507e-05
3.79049e-05
0.000125923
-0.000117689
0.000848155
-0.000564965
0.000104926
-0.000388116
-1.7318e-06
0.000133823
-6.92115e-05
-1.01102e-05
2.83875e-06
0.000180087
1.57565e-05
-6.82345e-06
0.000280936
7.79803e-05
-8.57014e-05
-3.43763e-05
-0.000158474
-0.000579616
0.000155435
0.000582656
0.000409684
0.00013785
-4.20229e-05
0.00034111
0.000227715
-0.00117024
0.00117897
0.000124193
-0.000132922
2.32109e-05
-0.000261166
-0.000202353
-0.000247043
0.000408755
0.000194842
-0.000505575
-9.8022e-05
-0.000999319
-0.000638222
0.0010594
0.000578136
0.000146623
-0.000207064
-0.000118232
0.000178673
0.000131929
-3.15856e-05
0.000309341
-9.86074e-05
8.52156e-05
6.01975e-05
4.28707e-06
-0.000181168
0.0002351
-5.82194e-05
0.000824983
-0.00104466
0.000358722
-0.000139041
0.00017148
-0.000137115
-7.05482e-05
3.61831e-05
-7.91747e-05
3.36512e-05
-9.40824e-05
-0.000779678
0.00087376
-0.000168106
4.33037e-05
-8.48732e-05
-3.42242e-05
5.85991e-05
-0.000349072
-2.33295e-05
3.43938e-05
-0.000254601
4.65871e-05
5.21453e-05
-6.63173e-05
-2.68722e-05
4.24695e-05
-0.000126226
0.000110628
0.000112794
-0.00011081
-0.000182817
0.000180833
-0.000108597
2.2292e-05
7.13039e-06
-0.000340287
0.000135868
0.000313934
-0.000109515
0.000193796
-6.40559e-05
-0.000163964
0.000904075
-2.08899e-05
-0.000769051
-0.000114134
-1.03359e-05
0.000934465
8.00684e-05
-0.000925075
-6.62821e-05
0.000862823
-0.00103147
-0.000264157
0.000432806
-0.00018445
-0.00100219
0.00120504
-1.83934e-05
1.56373e-05
1.67609e-05
-7.11147e-05
4.30941e-05
7.46076e-05
-0.00083531
0.000741955
-0.000257417
0.000350773
0.00127701
7.5455e-05
-0.000315709
-0.00103676
-6.5248e-05
0.000859097
2.1173e-05
-0.000471216
0.000801484
-9.24444e-05
-0.000237824
-3.26222e-05
0.000280092
4.38537e-05
-0.000103882
-0.00015458
9.06033e-05
-0.00093475
-0.000380441
0.000355417
5.4851e-05
-0.000110377
-0.00011258
0.000910188
0.000204334
-0.000266368
-0.000287226
0.000886897
-0.000886882
0.000287212
-6.82011e-05
0.000108091
-6.83148e-05
-0.000134313
0.000135282
7.20407e-05
0.000266862
-9.96794e-05
-4.52722e-05
0.000121995
-8.68334e-05
9.85595e-05
-0.000304522
-7.54029e-05
1.04973e-05
7.97612e-05
0.000247669
-0.00012924
4.08816e-05
-2.61971e-05
3.81761e-05
-0.000187805
0.000273717
-4.26078e-05
-0.000740372
0.000254825
0.000617475
2.70793e-06
0.000197443
-0.000193945
0.000269548
-0.00036412
-0.000297955
0.000392527
1.87939e-05
0.000233182
-0.000881297
-2.93479e-05
0.000923561
9.86144e-06
0.00010012
-0.000123598
2.34777e-05
3.73921e-05
-6.07216e-05
0.00111105
-0.0012858
-0.00013485
0.000309597
-0.000186422
-3.15608e-06
0.000112782
-0.000784837
-0.00049625
0.000854656
0.000426431
-9.48335e-05
0.00105643
-0.000954753
-6.84785e-06
-0.00031079
0.000871991
8.48901e-05
-0.00064609
0.000231618
-0.000960043
0.000916965
-0.00018854
0.000190438
-0.000133956
-5.82137e-05
-0.000334964
0.000248517
0.00094927
-0.000817777
0.000754056
-0.000223506
0.000668416
-0.00056516
5.3062e-06
0.000512692
-0.000483605
-1.00353e-05
4.68435e-05
-0.00033485
-0.000912705
0.000312804
0.000216512
0.000203883
-0.000404765
-1.56298e-05
-0.00104125
0.000676918
-0.000180606
0.000544943
-0.000278038
0.00102572
-0.000899467
-0.000155596
0.000915519
-0.00039608
0.000399085
-0.000918524
-0.000223739
0.000203686
0.00119902
2.26884e-05
8.0239e-06
0.00101916
0.000148754
0.000837446
-0.00089935
-8.685e-05
5.83201e-05
-4.1398e-05
0.000101414
-0.00015356
-0.000183059
0.000260884
-7.78248e-05
-0.000240041
-0.000876921
0.000281652
-5.02889e-05
-4.14793e-06
-1.69147e-05
-0.000207965
-0.000242858
-0.000113334
0.000106544
3.52024e-05
0.00103137
-8.31423e-05
-0.000983429
4.98758e-05
0.000125829
-0.000127702
-4.80025e-05
-6.45122e-05
0.00108148
-0.000655576
-0.000264781
0.000707719
1.30441e-05
-0.000905213
0.000137415
0.000382105
-0.000110765
0.000983416
0.000146535
-0.000157577
-0.000972374
0.000131571
-0.00011683
-0.000126333
4.45814e-05
-0.000323351
1.51023e-05
0.000313225
0.000887411
-0.000290447
-9.11634e-05
0.000125552
0.000182123
-5.03838e-05
0.000115683
6.79857e-05
-0.000133285
0.000368902
-9.09235e-05
0.000586184
-0.000864162
0.000352999
-8.93791e-05
0.000514641
0.00123395
-0.000190209
-0.000138436
0.000811515
-0.000885347
-1.70922e-05
-0.00100923
-0.000846718
0.000570154
0.000584167
-0.000686793
8.68639e-07
-0.000965035
0.00013834
0.000934716
0.00049761
-0.000277623
4.77556e-05
0.000221558
-0.000134256
0.000164893
0.000145647
0.00102005
0.000192054
-0.00059226
0.00104918
-0.00126168
-0.000461932
-0.000924974
0.000794647
-0.000615877
0.000861664
-5.10226e-05
-0.00100398
5.28064e-05
-0.000287272
-6.46183e-05
0.000326498
-0.000943058
0.000668808
-6.06007e-05
-0.000435109
0.00016678
-0.000329666
0.000597996
-0.00112632
-2.76201e-05
0.00108943
-0.000262105
0.000272082
-0.000615695
-9.86642e-05
0.000118968
0.000595391
-0.00105711
0.000796985
-0.000151548
1.03621e-05
-1.33939e-05
-0.000122676
3.97124e-05
-6.85845e-05
0.000759477
0.000110019
0.00018158
-0.000852508
0.000249986
-0.000981007
-0.000192905
0.00116136
1.25476e-05
3.82558e-05
-3.55689e-05
0.000188926
-0.000194332
0.000671076
0.000503595
-0.00102592
0.000456963
-0.000347523
-0.000974458
0.000997732
-2.32737e-05
-0.000141037
0.000126575
1.44623e-05
0.000306311
-7.5786e-05
-0.000665634
-0.00106449
-2.93794e-05
0.00109387
-0.00101601
0.00102906
-1.30442e-05
-0.000945486
-4.10644e-05
-0.000495896
0.000274638
-0.000119028
0.000282949
-0.000885782
-0.000993859
0.000126104
-0.00106057
0.00118476
0.000931508
-0.000158167
-0.000889485
-0.000218295
0.000868594
0.000239186
-0.000344395
4.69349e-05
0.000554816
-0.000257356
0.00100544
0.000130406
0.000415194
-0.000989217
0.000157304
-0.000149094
0.000180712
-0.00103159
-3.30252e-05
-0.000912461
0.00110853
-0.000624509
-0.000169876
-8.53362e-05
0.000172562
-6.96502e-05
9.02711e-06
5.42068e-05
2.40128e-05
-3.33317e-05
9.14968e-05
-8.21779e-05
-0.000439424
-0.000121726
0.00014557
-0.000785549
0.000257194
-0.000203501
0.000113087
-2.50401e-05
0.000130908
-0.000156252
-0.000153481
-0.000101268
-0.00101969
-0.000506499
-0.000799725
0.000514987
0.000791237
-0.000910232
-0.00106402
-8.90335e-05
5.08266e-05
0.00110222
0.000552988
3.54309e-05
0.00118194
-1.6706e-05
-0.00120066
-0.000761408
-0.000529928
-1.05857e-05
0.000109712
-0.000266566
0.000167439
0.0009151
-0.00102563
-0.000513152
0.000337231
0.00120156
1.80414e-05
-0.000262367
-3.37127e-05
0.000321084
-0.00101872
0.000929256
0.000271327
0.000678886
-0.000643901
-0.000352149
0.000319923
-0.00135601
-3.73705e-05
0.000247939
-0.000171793
-0.000108767
0.000250417
0.00109761
2.59971e-05
-0.00137403
-0.000135735
0.000443998
0.000284281
-0.000456953
0.000380701
-0.000264354
-1.82796e-05
5.53036e-06
-3.77086e-06
2.20428e-05
0.000866968
4.24625e-05
-0.000163103
0.000189059
-6.84179e-05
-9.36463e-05
0.000278217
-0.000104675
8.21507e-05
-0.000291075
0.000475284
0.000259789
-6.99549e-05
-0.000340111
-2.93587e-05
8.70685e-05
-0.000158638
0.000128314
-5.6745e-05
0.000355217
-0.000997242
-0.000103646
-0.000176022
0.000129772
0.000833395
-6.14633e-06
-3.44812e-05
-3.47425e-05
8.5766e-05
-0.000198133
0.000248235
0.000210114
-0.000214787
0.000261867
-0.000141919
0.000421634
0.000200598
-0.000480313
-0.000107812
-0.000276696
0.000406117
0.000932116
-0.000404688
0.000329858
9.11297e-05
-6.79918e-05
-0.000352996
0.00108887
0.000216792
0.000234174
-0.000289704
-0.000161261
7.41418e-05
-0.000196295
0.000216354
-9.42008e-05
1.51611e-05
-6.66087e-05
-0.000152054
0.000205971
-0.000303675
0.000301587
-9.99247e-06
-0.000734974
0.000646303
0.00015908
6.79228e-07
-0.000185956
-5.8059e-06
2.59529e-05
-2.02614e-05
0.000146117
-0.000151794
-8.93831e-05
0.000122224
0.000118953
0.00118823
-0.000899865
-0.000129718
-5.82629e-05
0.000134165
-1.576e-05
-0.000214649
-0.000593668
0.000824078
0.000238258
-0.000321073
8.2815e-05
0.000103634
-0.000917551
-7.14296e-05
-6.48856e-05
8.01369e-05
-1.52514e-05
-4.93796e-05
6.07642e-05
-1.13846e-05
2.82214e-05
-1.89816e-05
-9.23979e-06
-0.000109374
7.09957e-05
3.83782e-05
-8.48091e-05
-1.06033e-06
8.58694e-05
6.37337e-05
-2.01848e-05
-4.35489e-05
-0.000105595
0.00010134
4.25467e-06
9.14755e-05
-9.82383e-05
6.76285e-06
-0.000108139
-1.23434e-06
-7.78697e-05
-6.93939e-06
0.000148134
9.01241e-05
5.09696e-05
-8.92379e-05
3.82683e-05
0.000267842
-0.000271825
3.9823e-06
-0.000161299
0.000147088
-5.56129e-05
-0.000110287
-7.77328e-05
9.72092e-05
-1.94764e-05
-4.49522e-05
-4.42734e-06
-6.12359e-05
-3.64962e-06
0.000116561
1.0014e-05
-0.000166717
0.000218287
-5.15703e-05
2.51723e-05
-0.000130531
8.88156e-05
1.65436e-05
0.000271907
0.000276605
-0.000264906
2.97806e-06
0.000121359
-0.000390291
-7.54418e-05
-0.000135062
0.000102412
-0.000211063
9.80652e-05
-4.24485e-05
2.64258e-05
0.000131706
0.000158457
-0.000276804
0.000352521
2.08962e-05
-0.00033825
-0.000637399
-0.000338402
0.000387028
0.00106248
-2.6249e-05
7.72186e-05
0.000101433
-1.0171e-05
-9.12616e-05
9.75973e-06
-1.67308e-05
-1.4136e-05
-1.96287e-05
6.27419e-06
0.000328308
-0.000110021
4.98955e-05
1.21025e-05
-1.69686e-05
0.00010691
-2.67726e-05
-0.000369356
-0.000149748
0.000317294
0.00020181
0.00103949
-0.000266782
-0.000261008
1.67082e-05
0.000120029
-0.000108137
-2.85996e-05
-8.00622e-07
3.31789e-05
0.000918105
-0.000926876
9.0176e-05
-8.14052e-05
-1.56417e-05
0.000329305
-6.05743e-05
-0.000253089
0.000229207
3.86357e-05
0.000229665
-0.000434226
-8.51427e-05
2.91945e-05
0.000131385
-0.000291062
-3.09986e-05
0.000260389
6.16709e-05
0.0011593
-0.000208939
0.000130508
1.58864e-05
-5.93264e-05
0.000373778
-0.00108122
0.000957856
-3.96118e-07
2.28861e-05
0.000162297
0.000268067
0.000156225
-0.000372298
0.000730714
2.55372e-05
-7.09089e-05
8.07857e-05
0.000282008
0.000744854
-0.00043364
-3.88968e-05
4.82861e-05
0.000506944
-0.00024089
-0.000266054
0.000459544
-0.000361052
0.000189849
-0.000288341
-0.000539233
-0.00021115
0.000405988
3.49706e-05
-2.36045e-06
-4.63656e-05
1.37554e-05
2.50693e-05
1.72502e-06
4.97513e-05
0.000130327
-0.000188494
0.000227036
-0.000168869
-8.4904e-05
0.000472692
-0.00034977
-3.80188e-05
-6.63594e-05
-6.94198e-05
-0.000469291
0.00060507
0.000163916
5.37462e-05
-8.73349e-05
-0.000107242
6.94092e-05
0.000497376
-0.000193121
-0.000161866
0.000288627
0.000495507
-0.000448309
0.00024926
-0.000296458
-9.28563e-05
0.000200212
0.000227038
-0.000350411
-7.6839e-05
0.000116889
-0.000591056
7.15279e-05
0.000450108
4.97066e-07
-0.000178499
-0.000384152
0.00012456
0.000438092
5.62957e-05
5.85163e-05
0.000483224
-4.8001e-05
-0.000150955
-0.000284268
0.000311308
-0.000388372
-0.00011143
0.000511328
0.000290784
-0.000306605
-0.000142164
-0.000219141
-0.000107986
-7.55497e-05
0.000142538
-5.67721e-05
-7.51045e-05
0.000407933
-0.000143884
0.000359563
-0.00010204
-0.00049953
0.000601571
-0.000337383
-0.000337717
0.000206003
0.000469098
-0.00045946
0.00025985
-0.000137772
-0.000407248
-0.000285848
0.000279971
-0.000106237
-0.000173734
0.00046442
-0.000848078
-4.94294e-07
0.000476189
0.000112791
0.000336541
-9.35969e-05
-0.000327848
0.000343079
-0.000255917
-0.000546622
0.000218536
8.26659e-05
0.00017149
6.59419e-05
-8.30277e-05
0.000244122
-0.000181732
0.000200975
0.000199293
0.000282717
-0.000168614
0.000222438
-0.000283058
0.000196676
-7.21495e-06
0.000183651
1.26591e-05
0.000171951
8.26843e-05
-0.000192485
8.37951e-06
0.000101421
-0.000138062
3.0112e-05
0.00010795
0.000127689
-8.78586e-05
0.000105363
-2.12872e-05
5.65892e-05
-3.72365e-05
0.000180404
7.15437e-05
-9.78596e-05
-1.09205e-05
3.46139e-05
-9.87674e-05
-0.000210896
-5.96924e-05
0.000106699
5.98645e-05
-6.12003e-05
-3.59443e-05
0.000142459
0.000490968
-0.000307727
-0.000102553
9.58545e-05
-2.84668e-05
3.51655e-05
7.60215e-05
-5.15769e-05
0.000719684
-0.00021274
1.02597e-06
7.09661e-05
3.47072e-05
-2.13347e-05
-1.697e-05
-0.000397359
0.00073858
0.00103263
-0.000685131
0.000708736
-0.00104229
0.00101047
-3.139e-05
0.000156222
-0.000124832
0.000198468
-0.000106514
2.64065e-05
-2.24461e-05
-0.000151035
0.000870719
-0.0011302
-0.00114013
0.000101587
-8.31154e-05
-0.000111627
-3.8893e-06
-1.63719e-05
0.000336773
5.33745e-06
-0.000337209
-4.90087e-06
9.76042e-06
7.37781e-07
-0.000282486
0.000271988
0.000384792
-0.000104821
-0.000114738
-0.000158312
2.02503e-05
4.14765e-05
-5.10709e-05
-3.67712e-05
-0.000449769
0.00107397
0.000114374
-2.09034e-06
2.41235e-05
-0.000107916
-2.27215e-05
-9.70811e-05
0.000126356
-2.92751e-05
4.92365e-05
0.000281806
-0.000345996
1.49536e-05
9.25198e-05
-8.76026e-05
-0.000931793
0.000261874
-0.000328759
0.000116122
-4.46274e-05
0.000111704
0.000281682
0.000276624
-0.000558305
0.00042302
-0.000466033
-0.000405296
0.000115623
0.000483223
-0.000398634
0.000247798
9.48638e-05
0.000326658
-0.000240319
-0.00019116
-2.30098e-06
2.24429e-05
-2.25203e-05
9.52323e-06
0.000233396
-0.000217876
4.72986e-06
0.0001903
-4.77614e-05
-8.89069e-06
0.00019919
-0.000195329
0.000293027
-0.000140111
3.1998e-05
2.84375e-05
0.000235071
0.00129159
0.000184601
-2.14983e-05
-6.92772e-05
-1.2696e-05
-0.00020021
-0.000146346
-0.000268944
-0.000159068
0.000159512
-7.79164e-05
-5.85232e-06
6.83644e-06
2.1902e-05
0.000109814
2.03279e-05
-0.000106019
0.000290049
-6.17682e-05
0.000239749
0.000358894
-0.000311679
-0.000286964
-0.00025532
0.000269811
-0.000230226
-0.000234046
-9.59056e-05
-0.000393974
-0.00115303
4.92291e-05
-0.00102551
-0.000397746
-0.000168057
-0.000210152
2.37456e-05
-0.000306065
-3.2697e-05
0.000425495
0.000652874
-0.000659963
-0.000418406
-3.82877e-05
-0.000386377
0.000153614
-0.000148253
-0.000434046
0.00043397
0.000736419
-0.000736343
0.000222015
0.000476344
-0.000215137
-0.000408191
-0.000268635
0.000118141
-0.000337647
0.000328111
1.48733e-05
-0.000277558
-0.000974139
-1.03959e-05
0.00100722
-0.000326623
0.000117263
-5.7323e-05
-0.000111011
-0.000285981
-0.000253078
8.74143e-05
0.000165664
0.00102456
-0.00106644
-2.51347e-05
-0.000120268
0.000112175
-0.000230547
-0.000191046
-0.000421519
0.000402677
-0.000797119
0.000815961
7.31668e-05
0.000469203
-0.000425466
-0.000143045
0.000407662
-0.000520534
-9.63461e-05
-0.000204761
0.000911015
-0.000902029
-0.000430505
0.000958915
-0.000614826
-2.21683e-05
1.48794e-05
-3.7385e-06
1.10274e-05
0.000383484
-0.000344567
0.000167086
-0.000884632
0.000135771
0.000392099
0.00044559
-0.000561084
0.000209426
0.000260387
-0.000126075
2.0377e-05
0.000105698
0.00033478
-7.43585e-05
-0.000276064
0.000682316
-0.000724263
2.52125e-06
-5.38763e-06
-0.000148297
-0.000117764
-0.000159517
-0.000334316
0.000105461
0.00012376
8.83645e-05
-4.87864e-05
0.000439611
-0.00100801
-0.000108674
2.8038e-05
-0.00074685
2.71788e-05
0.000538849
-0.000406036
-9.68164e-05
-5.29054e-05
0.000129539
2.0183e-05
3.61773e-05
-0.000360446
0.000583676
-0.000415828
0.00114125
0.000148463
3.71153e-05
-0.00103465
-9.29569e-05
-0.000109086
0.000189577
-0.000206661
0.000116461
0.000238809
0.000248559
0.00124958
0.00111304
0.00032123
0.000364732
0.00108554
-0.000378735
5.13775e-05
-3.38786e-05
5.94966e-05
0.000337228
3.72889e-05
-0.000939121
0.000211793
0.000333386
-5.32944e-05
0.000118452
-0.000297836
-0.000307246
0.000189254
3.24807e-05
8.24815e-05
-0.000420329
-0.000243607
-0.000460867
-5.38309e-06
-0.000129613
0.000181651
-5.70449e-05
-0.000181929
-0.00037173
0.000345104
2.12382e-05
0.00113622
-0.00037105
-0.000879237
0.000114071
-0.000901276
0.000753151
0.000587736
0.000263963
0.000250644
-4.55098e-05
1.67493e-05
-5.73874e-06
-0.000507068
-9.17512e-05
-0.000459801
0.000694742
0.000242654
-0.00100106
0.000325765
0.000319328
-0.000518737
-3.41423e-05
0.000298279
-0.000273027
0.000605277
-0.0003577
7.16758e-06
-0.000338691
0.000121867
-0.000140211
-6.68475e-05
8.51915e-05
-0.000213854
0.000166789
5.2317e-05
0.000154449
-5.1883e-05
4.10702e-05
4.80151e-05
-1.49435e-05
0.000168148
5.73807e-05
0.000764398
-0.000129288
9.95129e-05
0.000151642
7.39299e-05
6.97995e-05
0.000366886
-3.70532e-06
-0.000474611
-0.00101989
0.00105808
-0.000281048
2.2611e-05
-0.0004687
0.000116235
6.22256e-05
-0.000126143
0.000168625
-6.8505e-05
-0.00097716
-0.000198323
0.000512981
-0.000324033
7.39206e-05
0.000810089
0.000131328
0.00111535
-0.00112167
-5.98405e-05
2.80828e-05
0.000147992
-0.000210171
-0.000393881
0.000340446
5.77549e-05
-5.68849e-05
-0.000341316
-0.000309825
0.000427269
0.000134482
-0.000297787
0.000147354
-0.000648413
0.000391127
-0.00032852
0.000427008
-9.69187e-05
-5.51308e-06
-0.000110298
0.000112683
-5.91101e-05
-3.19837e-05
0.000457225
7.08251e-06
0.000369088
0.000352461
-0.00028564
0.00112237
-0.00142527
0.000451362
6.74296e-06
-1.89145e-05
0.000729577
5.70445e-05
0.000948857
0.000275123
-9.70884e-05
-0.00112689
4.04567e-05
0.000362989
-0.00017632
0.000316536
0.00013884
-0.00012681
-6.87945e-05
5.6765e-05
0.000104107
-0.000159673
0.000163019
-0.000107453
9.3086e-05
-0.0001014
0.00134558
9.62889e-05
1.23136e-05
3.33068e-05
0.00132636
0.000316173
2.14617e-05
0.000207677
0.00040021
9.39171e-05
5.38065e-05
-0.00104095
8.04849e-05
2.28587e-05
0.000532146
0.00013698
-0.000845447
-0.00102373
-0.00121422
0.000796618
-0.000206707
-6.06298e-05
-0.000135535
-6.27761e-05
0.000117365
8.09457e-05
0.00053291
-7.79357e-05
-0.000175142
0.000149113
1.2595e-05
8.61768e-05
-1.23305e-05
0.000177031
0.000345453
-0.0002116
-0.000252985
-8.97711e-05
0.000173887
0.000315796
-0.000655993
-0.000308216
0.000548911
1.96927e-05
2.30095e-05
0.000762591
8.60904e-05
0.000463621
-0.000309844
9.46124e-05
-0.00016538
0.000110012
0.000111325
-1.41154e-05
-1.9165e-05
4.02755e-05
0.000899551
0.000230461
-0.000181354
-0.000819623
2.24925e-05
-7.00568e-05
0.000215322
0.000390856
0.000337601
0.000321932
-0.000394671
0.00108616
-0.000146402
-1.46517e-05
-7.46326e-05
7.5506e-05
-7.86692e-05
4.24358e-05
-2.23786e-05
4.18204e-05
-2.61864e-05
0.0002647
1.34537e-05
-0.000198248
-0.000729951
0.000681518
4.84332e-05
-0.000245333
0.000299026
-0.000342034
0.000312623
0.000900275
-0.00029738
0.000945027
0.000241736
-0.000791004
6.10529e-05
4.68322e-05
0.00109343
-7.89306e-05
-0.000966008
0.00103454
-0.000505186
0.000736553
0.000222168
-0.000453535
-0.000175399
-7.1741e-05
9.53457e-05
5.72408e-05
0.000624277
-0.000200167
0.000306232
0.000193106
-0.000299171
0.000862639
1.99415e-05
-3.91176e-05
-0.000843463
8.21975e-07
2.12293e-05
-2.20513e-05
-0.00016062
-8.4038e-07
-8.21991e-05
-5.20222e-05
9.57286e-05
7.28969e-05
-2.4638e-05
2.54599e-05
-5.62236e-05
0.000872722
-0.000759185
-0.000618723
-0.000898277
-0.000161301
0.000147812
-0.000134808
-4.6307e-05
-0.000494776
0.000151478
0.000140482
-0.000138764
-0.000108539
0.00053927
-0.000155028
0.000379054
0.000497158
-3.6661e-06
-8.70179e-05
2.2179e-05
-0.000388131
0.000343328
4.48031e-05
8.1861e-05
-0.000872865
-4.41277e-05
-0.000111606
0.00029347
-9.88254e-05
-4.29732e-05
0.000878438
-9.82465e-05
0.000146929
-0.000197676
9.87869e-05
0.000134781
0.000211604
-0.00011806
0.000878921
-0.000193885
0.000354455
-0.00096455
0.000651637
0.000636719
-0.00108961
-4.8295e-05
0.000223195
0.000206404
-0.000235887
-0.00065314
0.000654317
0.000494464
-0.000645186
0.000378866
0.000709421
-0.000276134
-0.000118949
-1.93787e-05
0.000121956
8.73625e-06
-9.1178e-05
-0.00056601
0.000732136
-0.000432109
4.39784e-05
6.10741e-05
0.000308058
-9.87178e-06
0.000775788
-4.88985e-05
7.06159e-05
3.77792e-05
-7.17648e-05
0.000113882
4.3074e-05
0.00041775
-0.000417253
0.000300748
4.25801e-05
0.000248661
-6.35256e-05
-4.62952e-05
0.000197885
0.00039301
8.55388e-05
2.73593e-05
-0.000168232
-5.54217e-05
-4.09927e-05
-2.08187e-05
0.000138959
-0.000251468
-5.43199e-05
0.000130825
1.31222e-05
2.14499e-05
-0.000182431
-4.63226e-05
3.85446e-05
-3.3347e-05
2.68843e-05
-4.77672e-05
1.78227e-05
-0.000145331
-3.1531e-05
9.15258e-05
-0.000921991
-7.91165e-05
5.77656e-05
0.000149966
-0.000169273
0.0010136
-0.00096534
9.67234e-05
4.36919e-05
0.000148532
6.48631e-05
0.000765212
0.000501761
-0.00110995
1.36533e-05
0.000100066
-0.000291019
0.000739521
-0.000248091
-0.000599969
0.000993197
0.000223912
0.00012498
4.9155e-05
9.43618e-06
0.000101888
-0.000145816
0.000193828
-0.00103323
0.000635545
5.01578e-05
4.55149e-05
-8.50391e-05
-2.86768e-05
0.000109216
-0.000213658
1.86749e-06
0.00113054
6.79689e-05
-0.00110282
-0.000266176
0.000382135
3.21305e-06
0.00010165
9.0697e-05
-0.000106683
0.000159129
0.000485267
-0.000713847
0.000228581
0.000412994
7.22731e-05
0.000420513
-7.51954e-06
-0.000309896
0.00046612
-0.000682193
-0.000606738
-0.000508205
-9.85336e-05
2.54659e-05
-0.000634981
7.72041e-05
-0.000121373
-0.00094044
-0.000121316
-6.4484e-05
-0.000365814
-0.000113195
-5.80323e-06
-0.000117794
-1.72057e-05
-3.19677e-05
-1.42889e-05
4.18292e-05
5.14304e-06
5.50333e-05
-5.04166e-05
-0.000124608
-3.78326e-05
-0.000149082
-4.4976e-05
0.000525279
0.000863169
7.37049e-05
-0.000140821
0.000370028
0.000219371
-0.000460778
0.000341474
-0.000320375
-0.00106981
0.000206357
-8.50156e-05
0.000277496
-0.000480567
-2.7638e-05
5.42044e-05
-0.000144411
-0.000343433
0.000205043
3.61246e-06
-7.35604e-06
-0.000193547
-0.000362434
2.93916e-06
-5.07598e-05
0.000505045
9.68225e-05
-0.00117163
0.0010581
-0.000535073
0.000120941
-0.000180523
-4.08195e-05
0.000100401
-0.000231583
0.000389166
-8.7734e-06
-1.02082e-05
-0.000191718
-6.17814e-05
7.60365e-05
-0.00121378
7.68226e-08
0.000694899
-0.000383672
0.000195732
-0.000160732
0.000109348
-0.000113274
-1.53295e-05
-0.000197762
-1.86733e-05
2.77641e-06
-0.000151121
0.000192472
-0.000217305
-0.000120975
-0.000200446
-2.27237e-05
-0.000669487
-0.000452125
-2.27641e-05
1.85328e-05
-0.000125547
0.000233834
-0.000156288
1.52085e-05
-2.82357e-05
-1.89405e-05
0.000903433
0.000203192
-0.00015573
9.43275e-05
-1.36765e-05
-8.2695e-05
2.07027e-05
7.10195e-05
-0.000811394
0.00113628
0.000130303
-0.000125552
-7.57334e-05
0.000131108
-1.49103e-06
1.76815e-05
-1.83014e-05
0.00104637
0.000197679
5.963e-06
4.85601e-06
-0.000239112
8.16292e-05
4.8585e-05
0.000170548
2.47842e-05
-0.000796017
3.87007e-05
0.000675519
0.000337658
-0.000112652
0.000162356
0.00110094
6.98801e-05
0.000165395
2.1261e-06
-4.33691e-05
-3.24274e-05
-0.000137295
-0.000148732
0.000130568
0.000111055
-0.000102303
2.94241e-05
0.000109439
4.46631e-05
-0.000230382
-3.43912e-05
-0.000101983
2.28661e-05
0.000102664
-8.5903e-05
-0.000963426
0.00101421
-0.000257726
0.000206946
1.6975e-05
1.32147e-05
-1.39414e-05
4.7952e-07
-0.000101305
-0.00024393
0.000735741
-0.000806056
0.000119627
0.000274747
0.000156388
-0.000545108
5.03816e-05
0.000217709
-5.11132e-05
-0.00118095
-0.000156722
-5.40403e-06
0.000254392
2.41213e-05
-0.000166271
-0.00108553
0.000984028
-8.90214e-07
5.68097e-09
0.00100811
-8.6149e-05
0.000551239
-0.000478527
-7.27116e-05
0.00034428
-7.3789e-05
-3.6703e-05
-0.000324853
-0.000799709
0.000766862
-0.000920359
0.00094479
0.000100147
-6.69373e-05
0.000123725
-0.000162681
3.89558e-05
-8.04778e-05
3.47503e-05
4.32471e-05
-0.00019566
3.29795e-05
-5.86039e-06
-3.22483e-05
0.000324893
-0.00107924
-4.22836e-05
4.20434e-06
-1.53296e-05
-1.78329e-05
-0.000106063
9.80938e-05
-5.28618e-05
-2.44997e-05
7.73616e-05
3.64406e-05
0.000323537
-0.000186873
-1.24603e-05
-0.000253673
1.26293e-06
0.000418682
-0.000506771
0.000314469
0.000148479
-0.000134676
-3.83024e-05
-3.98125e-06
9.01455e-05
-3.16095e-05
-7.20932e-05
0.000319783
0.000355644
0.000497003
-1.06134e-05
-0.00013197
0.000122955
-1.68201e-05
-0.000470093
-0.000209106
0.000371952
-2.16806e-05
-3.11813e-05
-2.35776e-05
-1.47247e-05
4.40854e-05
0.000117922
0.000143518
-0.000114581
-1.26167e-05
-0.000376845
-9.12658e-05
0.000298021
8.13041e-06
0.000551705
-0.000316498
-0.000238439
-0.000337219
-0.00025907
2.839e-06
-2.45196e-05
-7.58388e-05
0.000404104
0.00104239
-5.21189e-05
-0.00100866
-9.36814e-05
0.000347188
6.58214e-05
-7.24704e-05
0.000341391
-0.000217109
-3.74924e-05
-0.000191171
2.72068e-05
-7.51035e-05
-0.000132703
0.000138667
-0.000182517
0.000226602
-7.92012e-05
0.00022272
0.00143063
-0.00115685
0.000174243
-0.000925909
-7.30477e-05
0.000107734
-7.02664e-05
0.000907947
0.000402153
0.000497357
-0.000673321
-0.000132284
9.31734e-05
-3.79853e-06
0.000131199
0.00012672
-0.000122957
-9.24605e-05
-0.000889267
3.11925e-05
-7.79291e-05
-0.000409052
0.000350506
-0.000739876
0.000590863
0.000922879
-0.000264162
0.00010692
-0.00079296
0.000812407
-0.000312101
0.000283424
0.000694265
8.71551e-06
0.000139183
-0.000108378
6.39566e-06
0.000341382
0.000264771
-7.2554e-05
1.54122e-05
8.81391e-05
-0.000418664
5.36205e-05
0.000387654
0.000515785
-0.000511306
-0.00014019
3.65614e-05
0.000143468
-9.17852e-05
0.000204938
0.00012236
7.72821e-05
0.000818478
-0.000850957
6.14895e-05