/*--------------------------------*- C++ -*----------------------------------*\
| =========                 |                                                 |
| \\      /  F ield         | OpenFOAM: The Open Source CFD Toolbox           |
|  \\    /   O peration     | Version:  v1912                                 |
|   \\  /    A nd           | Website:  www.openfoam.com                      |
|    \\/     M anipulation  |                                                 |
\*---------------------------------------------------------------------------*/
FoamFile
{
    version     2.0;
    format      ascii;
    class       volScalarField;
    location    "0.8";
    object      epsilon;
}
// * * * * * * * * * * * * * * * * * * * * * * * * * * * * * * * * * * * * * //

dimensions      [0 2 -3 0 0 0 0];


internalField   nonuniform List<scalar> 
1466
(
4.89003
37.0105
7.6264
97.5955
4.96046
21.7498
2.45652
42.081
9.36696
48.3425
61.161
44.3743
5.80278
4.47517
26.1754
83.8751
24.404
99.0185
109.102
67.6456
113.008
68.9123
81.3792
55.5513
7.34198
8.5951
45.2712
87.8112
4.90199
51.1603
72.9108
10.923
7.07915
91.4551
124.21
54.3775
89.0099
30.0215
82.8019
2.34665
2.63412
63.4134
79.3744
2.96686
2.31357
16.1492
79.03
3.78906
49.564
4.23905
16.4862
47.1149
28.3096
4.40414
10.4177
6.80935
8.94703
65.1053
5.8891
57.4316
18.285
2.60685
2.03097
29.4956
80.952
34.1014
158.314
57.1539
33.5215
8.8176
54.9149
145.978
86.1749
6.92512
14.0184
79.0265
2.55116
2.0011
23.9426
72.0155
59.5074
78.3912
8.2289
81.0391
99.7664
149.127
83.9682
75.6035
66.6294
43.5097
11.6589
47.9389
133.519
2.35415
18.6996
8.57645
34.4674
72.0222
8.63687
5.02853
22.6248
11.0355
3.35402
77.8169
91.3663
60.4914
36.9594
4.31535
81.3347
5.9125
14.3824
98.1225
5.23371
69.5683
57.6818
20.4576
52.2505
42.7239
2.34266
1.84331
97.1098
2.59289
2.02952
3.47219
2.70749
63.8344
43.6414
78.761
51.9687
32.9527
76.5709
56.4193
80.1782
54.2026
13.7557
2.96266
2.65827
17.4923
2.28449
2.01386
4.80121
96.2655
71.5496
74.3092
75.5112
168.911
10.951
17.6799
50.9292
95.7792
13.5753
33.1955
38.6145
9.39324
39.5198
66.5156
77.0577
79.4524
11.6257
47.891
10.3352
58.1134
130.895
83.7131
102.365
89.5248
62.0366
88.2204
95.5844
40.8137
107.031
8.58795
3.43976
34.8705
29.7508
7.51831
42.8937
61.5307
12.4204
71.7263
8.76002
27.8528
134.081
3.30638
77.7647
151.649
103.095
47.4559
35.3798
37.9335
118.883
23.4294
126.236
176.841
43.9831
17.0341
8.52033
160.84
109.5
191.394
81.6447
41.5573
47.249
32.0998
41.8477
90.7471
130.8
28.1483
11.5664
62.6871
95.6371
88.5062
128.718
97.7527
117.981
80.9036
151.059
101.58
54.1798
57.3068
84.1707
21.9183
84.8477
20.9631
89.4499
80.2718
60.1953
4.08191
12.6206
20.9723
40.9923
82.5886
191.179
149.431
14.465
70.1864
67.2924
81.5308
21.0954
115.519
50.1501
70.669
39.3939
204.992
17.2848
53.1316
10.474
6.91137
72.0286
34.5634
137.66
88.2347
25.285
55.8719
8.13001
15.9512
76.6606
12.0557
116.602
125.185
90.7838
78.5652
53.8508
20.9812
66.8777
3.64506
39.4184
44.3389
101.348
11.7154
159.548
138.995
56.1653
12.3004
12.757
25.2244
16.5832
60.8783
103.515
56.2649
19.1539
65.9841
81.0221
64.5434
71.1477
2.81924
55.638
51.7456
9.86874
20.0012
23.0357
4.11069
7.38284
15.9036
47.7464
37.9552
224.988
4.0884
57.421
18.2496
4.30505
34.2399
5.49556
8.21792
82.549
15.8776
5.13781
8.06669
39.0011
123.077
31.283
108.372
60.1517
34.9101
50.1531
43.6657
112.562
32.8952
6.21996
28.9686
36.3216
171.016
115.861
16.3047
84.3863
16.9238
3.24092
34.0643
13.7932
30.7556
74.0918
18.1999
9.90978
37.1646
96.6991
16.3906
107.147
19.4506
8.83707
2.21768
2.84197
31.2428
19.0732
70.6004
42.6314
6.34749
62.3815
42.6996
39.282
96.5007
32.0811
13.2586
64.9067
121.369
85.0036
115.163
88.104
20.4908
8.07934
42.015
92.9885
101.219
72.8606
45.4574
9.19537
191.152
27.729
26.7127
70.4827
40.8435
35.8336
119.272
108.786
32.0611
13.0226
89.8905
54.8228
111.962
2.34737
59.9028
46.8442
39.9802
55.211
62.0097
49.3815
45.3897
15.0283
12.6289
6.11408
4.37115
21.0017
35.8717
34.5983
34.7188
13.8248
5.10226
3.8319
110.122
12.3177
7.57803
2.27574
2.16172
70.739
3.60425
48.7663
106.257
86.0274
29.7873
130.784
116.005
25.9496
99.4067
124.559
114.374
74.732
4.24833
3.59715
51.2883
33.6249
8.06894
84.1651
86.5991
7.58434
131.08
4.45103
2.13927
58.5601
102.646
3.38108
2.173
55.236
7.35699
97.5779
223.638
32.1317
5.97233
6.71702
7.32421
4.78527
49.2686
5.10078
26.0082
54.6077
13.0408
27.7375
4.42169
25.869
33.505
3.59927
62.2752
33.6248
3.01224
15.1988
11.0713
25.3281
22.8749
8.09966
32.4126
19.033
29.6056
5.98534
18.4438
10.59
46.8764
54.4948
2.44176
35.3366
15.6367
10.0828
31.8624
12.9357
22.1599
53.6225
2.77623
28.6791
2.0925
4.50618
60.0732
130.393
62.7376
37.339
97.7209
90.3408
118.75
92.193
23.2366
1.97911
5.83599
132.573
78.271
103.96
85.2549
17.7131
38.5827
31.9007
48.4732
79.2678
52.0038
43.0429
51.4578
67.9335
87.0364
58.5187
87.703
14.9023
73.0922
67.913
34.0244
2.20032
64.2708
26.3264
78.5049
36.854
174.94
79.7382
49.4467
19.0948
9.92139
19.761
30.9449
70.0771
10.2762
142.726
27.8725
66.7622
22.1096
13.6352
68.8215
25.3725
108.495
14.0872
203.392
123.93
45.6037
58.5336
16.1568
35.4034
76.6599
22.3359
102.934
21.8007
95.0255
25.6485
30.114
28.7809
31.8145
32.3301
24.4432
128.322
31.0205
94.3217
2.8536
10.5287
55.0429
186.249
71.0421
65.9
38.812
60.4765
17.7509
101.918
103.794
23.145
39.3144
15.2107
21.7414
42.0947
139.975
79.9272
98.2521
88.603
138.238
26.8883
51.6025
21.6836
112.793
13.0215
88.5083
61.8547
76.7886
48.068
97.4745
76.7505
63.3814
49.203
36.9407
101.619
8.71484
51.0872
24.7148
82.2555
26.8935
58.5911
73.777
136.039
78.0762
72.6528
58.1441
31.3904
71.2701
43.0178
14.2932
15.5457
30.8207
210.057
67.8206
27.9423
2.3857
40.0037
79.6878
18.0398
126.575
22.9964
38.0186
113.327
32.4569
52.8951
28.0569
24.8796
106.233
29.9683
3.80388
23.9616
20.2954
38.8322
71.3382
234.216
66.2868
81.5174
91.5664
77.7933
22.9528
25.6134
16.909
87.5254
11.992
99.2111
82.2093
48.5529
93.4967
134.895
83.1512
60.1832
22.6922
101.744
14.5394
66.8253
108.484
60.9004
29.2179
87.7395
11.1063
34.0643
5.09131
129.039
96.7601
4.313
179.834
14.3215
6.11456
147.762
92.4618
4.65993
14.362
108.343
30.5852
111.243
36.8775
57.7849
2.68152
10.3924
17.4348
65.7033
7.47261
55.2256
4.88071
36.437
5.69562
9.94871
19.1158
88.1807
10.9385
9.6729
154.881
18.4927
122.868
26.1873
8.35032
45.5605
11.7725
125.384
18.5389
16.0164
63.6597
19.7701
7.81315
52.9374
84.9348
28.266
58.6506
112.276
23.0685
9.68813
14.028
71.8671
60.1103
28.1712
4.89702
7.90488
61.4736
19.9158
135.557
3.02432
70.01
136.775
97.3929
51.0243
74.9529
82.0429
58.6044
67.9344
106.655
158.288
56.3938
206.333
103.683
91.9664
18.705
15.535
7.1715
73.6777
113.937
72.5422
3.97254
137.132
79.8118
121.132
90.0622
2.92456
120.713
90.2147
56.6825
91.477
3.45793
2.29564
4.24421
33.1299
18.7528
24.6238
48.5347
89.3461
72.9762
9.56591
5.11714
121.774
117.312
163.746
93.1781
14.0751
107.225
94.5881
6.18516
27.9254
45.145
155.132
46.2753
79.9138
121.859
73.8432
141.248
26.8089
10.5805
1.66558
3.24379
61.7325
116.753
40.8144
16.6743
27.5514
118.584
25.3532
7.35503
90.6861
40.8915
100.683
4.2457
39.9462
87.9574
72.9337
39.3257
33.1042
107.182
103.736
6.35207
32.6384
16.1247
116.453
60.1598
8.45052
13.2435
4.092
67.6861
97.423
10.8048
40.6127
2.96311
11.7499
13.8219
65.4411
92.8387
125.275
60.1049
76.3557
48.4475
33.1865
10.105
89.0859
85.9412
12.8733
98.3261
102.59
83.9814
20.8476
62.1366
2.24602
6.53501
93.0898
12.7001
17.7764
74.7316
72.6609
92.0733
15.3848
128.748
12.7189
27.3128
15.3926
14.2582
8.22392
11.1425
18.5989
107.5
100.553
6.16496
90.2411
83.0965
34.5152
91.8741
37.4254
67.9511
99.3462
60.9072
104.782
40.3884
19.6488
25.1123
69.3323
22.5035
66.6526
103.188
141.546
95.425
10.1313
14.9465
8.46555
43.8079
113.809
271.944
31.4548
54.3124
28.5581
8.00245
58.5631
11.6503
139.294
14.1676
102.81
95.0191
105.949
89.1589
128.157
119.71
123.902
126.194
166.891
165.161
184.308
171.442
168.752
169.768
168.579
151.667
208.419
131.906
148.561
232.991
246.56
155.97
220.563
169.026
164.388
155.808
85.8773
96.2159
6.13646
7.81438
62.8335
15.9584
12.1015
5.04769
4.54157
25.5079
123.024
74.5374
104.934
21.011
31.7988
12.0304
49.2386
9.21901
59.1398
25.8591
125.71
35.0822
47.2365
136.667
79.8546
145.961
2.2643
2.19737
8.22647
9.35175
7.66233
37.5105
52.563
57.4735
89.7384
5.8072
2.23655
4.70837
10.9564
13.5009
24.3047
99.4968
2.74758
1.94273
31.1659
97.3283
41.1587
15.4688
51.488
47.4534
68.6506
84.5781
106.652
73.8447
7.98652
59.1262
104.308
47.6916
136.317
34.9696
143.3
36.1988
76.2979
130.047
2.50267
53.9794
21.8883
66.0242
3.2926
101.076
75.3558
100.588
29.0125
30.0005
28.7909
81.9652
24.5393
12.1775
3.48518
80.7547
131.337
98.2253
20.4699
143.93
109.575
27.8926
135.242
67.2375
10.0921
3.02777
35.3322
57.6502
127.934
213.31
63.1013
70.1946
4.05794
13.9685
36.7509
56.296
88.1361
13.0005
63.223
3.07592
1.9802
2.75445
37.5586
7.88001
45.5884
82.0081
11.5904
8.63323
140.073
11.0212
85.2988
20.4815
56.2371
122.148
103.032
142.918
87.2134
106.82
93.5996
99.2405
68.8804
86.2945
58.4567
1.72323
3.98933
125.144
33.0898
10.2503
26.8934
69.2375
34.5814
10.9438
70.2555
7.50587
35.558
40.6733
2.33841
2.36205
39.2062
11.4409
21.1656
12.7213
40.5355
130.61
2.36047
2.83925
9.87755
89.5722
39.951
3.24415
27.5976
117.845
14.19
24.7909
17.5375
7.62889
30.0857
41.74
6.07013
100.03
86.2655
2.90211
2.66131
2.33753
63.1298
24.6533
10.8921
10.0707
12.1385
7.7652
7.01376
12.2265
12.5857
1.96048
3.99337
8.25594
137.933
12.0259
12.4465
12.15
12.4721
41.7657
45.7368
10.8002
11.1258
12.3133
12.6893
66.1736
101.315
63.7452
28.8179
20.1188
102.708
119.675
32.8435
112.66
76.7369
26.904
3.92925
2.02578
5.38655
119.783
62.7633
138.451
35.8619
8.43746
136.168
43.8889
49.4442
51.9134
121.184
97.0089
127.038
16.6323
89.5782
31.4467
109.249
86.8025
141.2
6.95945
15.7394
14.4377
64.2164
45.5637
63.5653
73.6194
56.2093
4.37058
25.5782
10.7723
39.7965
88.6954
83.9617
124.826
104.338
8.42891
3.20013
30.5367
52.4891
49.0475
23.0315
16.9385
4.27208
42.5496
97.3391
49.0908
58.0386
94.9499
8.12772
6.53746
22.2884
66.0668
36.8603
108.458
22.2578
90.5589
129.146
84.6
89.7284
138.716
36.8792
100.447
98.8987
1.99622
4.06839
15.8286
37.4362
2.83792
2.7697
82.2488
66.839
81.5339
111.91
118.745
142.272
38.0253
29.9494
79.3823
75.0117
107.886
103.698
3.97844
13.2482
51.9144
67.754
9.38121
101.334
33.7658
6.06197
53.8725
46.4753
20.4097
17.7776
9.64386
55.5149
8.4501
19.1932
40.7929
36.702
23.2346
243.733
6.75243
15.6401
23.0857
6.77315
7.03682
40.1517
2.18952
2.25195
6.31772
54.4748
66.1566
124.316
101.155
90.0187
6.94112
68.6343
6.80725
83.592
56.5557
3.40621
49.5471
49.1572
86.4003
83.875
66.0909
70.196
100.258
2.63179
6.88511
111.231
16.6598
4.16267
33.3395
5.47029
97.4678
13.4667
124.142
8.96565
129.086
49.8972
3.17836
120.921
35.2304
7.16834
87.6913
78.6931
37.9529
77.1419
40.4986
112.139
48.423
80.8346
8.74012
39.8529
30.6983
114.186
39.2395
124.561
153.358
66.8848
154.957
173.259
162.18
7.23502
30.7467
55.2178
10.4512
114.809
6.51722
68.8518
98.2386
11.0329
120.459
53.6341
6.3006
35.9319
31.7452
6.07282
38.5538
15.2874
23.9703
7.69536
216.943
111.821
76.9515
87.8989
9.73264
3.46974
111.959
71.8816
69.5512
65.5146
70.4579
75.2173
149.398
58.7884
42.5625
115.675
6.56864
59.7472
120.523
94.6383
18.9894
2.44302
7.55841
2.40798
1.96802
7.11271
22.2033
77.5735
8.76599
11.2019
52.1142
7.958
76.938
103.777
93.7674
4.43658
89.7457
35.8423
6.81184
3.98977
5.04087
8.31135
209.55
10.0934
92.1264
23.9061
8.60641
6.03791
2.78095
107.53
6.43555
10.3559
73.8858
10.9186
103.088
89.0445
119.142
60.4809
42.9829
29.7082
24.6056
56.7905
14.7363
33.2502
94.2694
2.80013
59.5544
77.2564
30.0937
66.8807
52.6267
116.738
22.3265
49.056
10.476
51.5225
114.057
41.8266
7.51831
7.16826
13.9005
13.2789
100.629
78.6916
39.3093
53.7525
139.478
26.1235
106.388
55.4709
66.0384
58.8395
7.95074
70.7342
101.433
6.43214
33.2261
100.071
17.8721
136.044
33.552
75.5056
125.712
73.0067
108.696
104.247
95.0804
98.4419
4.45148
2.20923
9.6567
4.09135
26.9496
9.53542
70.0605
32.5185
76.2224
53.5464
110.463
75.4562
120.592
9.97558
114.012
101.16
5.54532
7.45125
130.229
47.7422
12.0704
14.5524
71.6074
35.4142
170.493
31.5057
22.4083
9.58415
10.4461
67.1147
76.053
63.0705
12.6707
189.642
74.5055
48.4071
145.173
7.94869
4.91222
88.0024
72.6469
7.27398
3.24002
41.0138
11.6443
74.5961
141.17
30.987
13.6685
48.138
164.144
67.515
65.733
35.7376
74.1376
10.533
7.82113
7.04218
2.78393
13.3827
2.36835
88.8977
5.22715
4.03446
122.476
10.2817
68.5846
29.8993
23.5165
)
;

boundaryField
{
    frontAndBack
    {
        type            empty;
    }
    wallOuter
    {
        lowReCorrection 0;
        type            epsilonWallFunction;
        value           nonuniform List<scalar> 
108
(
99.0185
145.978
86.1749
5.49556
6.34749
18.4927
26.1873
8.35032
11.7725
19.7701
7.81315
28.266
23.0685
9.68813
7.90488
7.1715
121.132
33.1299
18.7528
16.6743
11.7499
125.275
14.2582
34.5152
95.0191
105.949
89.1589
128.157
119.71
123.902
126.194
166.891
165.161
184.308
171.442
168.752
169.768
168.579
151.667
208.419
131.906
148.561
232.991
246.56
155.97
220.563
169.026
164.388
155.808
85.8773
7.81438
31.7988
145.961
9.35175
97.3283
143.3
36.1988
143.93
63.223
8.63323
103.032
99.2405
68.8804
40.6733
39.2062
12.7213
39.951
30.0857
41.74
86.2655
2.33753
2.33753
10.8921
12.1385
12.2265
12.5857
137.933
12.0259
12.4465
12.15
12.4721
41.7657
45.7368
10.8002
11.1258
12.3133
12.6893
66.1736
112.66
76.7369
8.43746
51.9134
86.8025
141.2
49.0908
58.0386
129.146
84.6
66.1566
10.4512
111.959
65.5146
11.2019
35.8423
10.0934
7.16826
13.9005
139.478
)
;
    }
    inlet
    {
        type            fixedValue;
        value           nonuniform 0();
    }
    outlet
    {
        type            zeroGradient;
    }
    wallInner
    {
        lowReCorrection 0;
        type            epsilonWallFunction;
        value           nonuniform List<scalar> 
126
(
30.0215
82.8019
2.34665
2.63412
63.4134
79.3744
2.96686
2.31357
16.1492
79.03
3.78906
49.564
4.23905
16.4862
47.1149
28.3096
4.40414
10.4177
6.80935
8.94703
65.1053
5.8891
57.4316
23.9426
8.57645
34.4674
72.0222
8.63687
5.02853
22.6248
11.0355
3.35402
77.8169
91.3663
60.4914
36.9594
4.31535
81.3347
5.9125
69.5683
57.6818
3.47219
2.70749
76.5709
56.4193
2.96266
2.65827
17.4923
4.80121
130.895
29.7508
8.52033
116.602
125.185
90.7838
3.64506
39.4184
159.548
138.995
56.1653
4.11069
15.9036
37.9552
224.988
36.3216
171.016
115.861
20.4908
70.4827
108.786
111.962
110.122
7.57803
102.646
97.5779
223.638
5.97233
7.32421
26.0082
15.1988
22.8749
19.033
174.94
203.392
186.249
234.216
179.834
206.333
43.8079
271.944
142.918
89.0445
56.7905
189.642
48.4071
145.173
7.94869
4.91222
88.0024
7.27398
3.24002
41.0138
11.6443
74.5961
141.17
30.987
13.6685
48.138
164.144
67.515
65.733
35.7376
74.1376
10.533
7.82113
7.04218
2.78393
13.3827
2.36835
88.8977
5.22715
4.03446
122.476
10.2817
68.5846
29.8993
)
;
    }
    procBoundary1to0
    {
        type            processor;
        value           nonuniform List<scalar> 
29
(
1.87917
1.87917
2.26838
2.44237
44.6036
40.1224
126.823
24.4577
76.6719
8.16871
18.6585
40.1224
2.26838
2.09223
64.2585
21.0907
44.6036
54.8813
2.44237
1.72936
10.5203
6.03568
62.2247
10.87
10.87
62.2247
7.35825
78.7219
7.35825
)
;
    }
    procBoundary1to2
    {
        type            processor;
        value           uniform 2.88711;
    }
    procBoundary1to3
    {
        type            processor;
        value           nonuniform List<scalar> 
48
(
87.4408
81.4136
81.8117
81.8117
54.2973
91.4218
91.4218
14.9939
75.9983
5.24478
3.46415
5.24478
5.18304
2.38092
2.38922
5.18304
5.79749
5.79749
5.23319
5.23319
1.85285
2.59196
4.9258
21.2455
21.2455
3.29863
5.01601
5.01601
8.29227
44.2966
12.3634
8.29227
14.9939
58.9707
2.35904
44.2966
30.3712
3.46415
87.1771
47.0462
1.88754
45.0484
58.9707
2.35904
2.53139
68.261
49.3759
1.88754
)
;
    }
}


// ************************************************************************* //
