/*--------------------------------*- C++ -*----------------------------------*\
| =========                 |                                                 |
| \\      /  F ield         | OpenFOAM: The Open Source CFD Toolbox           |
|  \\    /   O peration     | Version:  v1912                                 |
|   \\  /    A nd           | Website:  www.openfoam.com                      |
|    \\/     M anipulation  |                                                 |
\*---------------------------------------------------------------------------*/
FoamFile
{
    version     2.0;
    format      ascii;
    class       volScalarField;
    location    "0.39";
    object      k;
}
// * * * * * * * * * * * * * * * * * * * * * * * * * * * * * * * * * * * * * //

dimensions      [0 2 -2 0 0 0 0];


internalField   nonuniform List<scalar> 
1466
(
0.114312
0.122255
0.0817643
0.133385
0.514805
0.277415
0.0874435
0.825357
0.302757
0.336509
0.0217586
0.210517
0.021014
0.0765628
0.0900255
0.120852
0.042596
0.195178
0.317506
0.0653959
0.118183
0.209517
0.198038
0.115645
0.0808356
0.0665874
0.112773
0.333981
0.116188
0.458868
0.589189
0.469073
0.248284
0.634095
0.171709
0.088609
0.0560035
0.0982272
0.371154
0.235051
0.247845
0.215335
0.278696
0.622484
0.30047
0.330281
0.0820311
0.161849
0.173854
0.116552
0.0547687
0.302073
0.42357
0.22162
0.155757
0.354213
0.0912342
0.0706674
0.0476685
0.359813
0.10358
0.422298
0.624155
0.38484
0.154081
0.0824742
0.306798
0.117922
0.125717
0.201855
0.0349483
0.129183
0.102266
0.106348
0.0280332
0.52611
0.112682
0.139104
0.139242
0.365263
0.0501162
0.0920413
0.0926766
0.140868
0.0993518
0.10195
0.0918871
0.124158
0.073298
0.1667
0.108819
0.0601774
0.345921
0.139466
0.0508069
0.109981
0.121817
0.129688
0.16202
0.104698
0.0795846
0.31457
0.0944233
0.0664115
0.0866903
0.302038
0.114403
0.0920246
0.160875
0.0922204
0.0193844
0.0599926
0.212088
0.0969694
0.0240632
0.336548
0.0566914
0.064974
0.168087
0.0631839
0.0995655
0.1359
0.0413498
0.100248
0.0710403
0.119541
0.0889738
0.0686417
0.299745
0.263669
0.0659037
0.119567
0.105211
0.240679
0.0524237
0.363989
0.255033
0.0743231
0.337143
0.102048
0.270775
0.0595349
0.222177
0.276429
0.325278
0.0642523
0.0441712
0.0796421
0.223901
0.103
0.222427
0.126986
0.166074
0.122575
0.0971408
0.0363352
0.131169
0.315169
0.0558271
0.0851078
0.31287
0.0919168
0.156781
0.106049
0.323628
0.355344
0.327563
0.142182
0.0748441
0.154015
0.102194
0.092861
0.10387
0.22505
0.104339
0.12319
0.329637
0.341218
0.0903888
0.349782
0.13827
0.0921352
0.082887
0.072342
0.116289
0.0678111
0.10164
0.459301
0.0954807
0.0647646
0.0711407
0.0691307
0.0852776
0.154252
0.0856306
0.12698
0.338656
0.102874
0.0832597
0.0781118
0.242168
0.0526124
0.08981
0.0752932
0.135377
0.244252
0.0981463
0.403948
0.0830155
0.162819
0.141061
0.233683
0.0667464
0.0825307
0.166162
0.100656
0.0440231
0.0288589
0.0670362
0.115619
0.172795
0.156524
0.0783367
0.0825396
0.225504
0.0821491
0.0725496
0.121203
0.0723917
0.358883
0.071556
0.110069
0.0783812
0.0256966
0.0915526
0.133592
0.0327197
0.636574
0.0420418
0.0962615
0.335792
0.0502009
0.0583626
0.290752
0.320009
0.0458709
0.0268519
0.056928
0.0356641
0.0497045
0.0886159
0.182132
0.186792
0.0914831
0.0727768
0.193212
0.0794446
0.295766
0.518336
0.466819
0.078861
0.0887768
0.237479
0.0905925
0.205224
0.118719
0.289285
0.24408
0.048952
0.120657
0.247365
0.133806
0.060928
0.0792972
0.0944734
0.0755365
0.0692581
0.0740327
0.0746297
0.290682
0.116948
0.0412326
0.0531702
0.0753155
0.0640797
0.0444918
0.0858591
0.0561659
0.149902
0.0961437
0.0812804
0.257325
0.087558
0.395504
0.155945
0.0744655
0.377373
0.356066
0.0770485
0.0611443
0.0521544
0.254129
0.0916055
0.0960524
0.12673
0.0755757
0.0749554
0.0508012
0.050839
0.668939
0.380015
0.0494803
0.0485118
0.20954
0.122415
0.0464816
0.230757
0.0524123
0.420677
0.111142
0.0851976
0.335574
0.0803686
0.0594209
0.043363
0.0545572
0.0284722
0.0628092
0.0184953
0.0582067
0.0762457
0.0571573
0.0227736
0.0879687
0.0566153
0.0591956
0.0132407
0.0491755
0.129272
0.0391129
0.0869213
0.0565357
0.0416592
0.0331314
0.0593158
0.0158643
0.112234
0.0467141
0.0451778
0.271372
0.237625
0.0713942
0.301933
0.0444584
0.0413852
0.0467055
0.229062
0.0676287
0.612943
0.085087
0.106219
0.343081
0.327679
0.0965261
0.126796
0.0630704
0.0321254
0.018792
0.0534195
0.104091
0.0207772
0.035279
0.12715
0.0583504
0.07566
0.067123
0.0488002
0.499287
0.0909339
0.0363131
0.0591669
0.207742
0.120661
0.0540678
0.200326
0.0866949
0.0777632
0.0483553
0.0408265
0.0388679
0.0591311
0.23714
0.233225
0.398622
0.0677802
0.0807176
0.27505
0.0291463
0.0848763
0.0109632
0.112931
0.0316881
0.245966
0.0626694
0.414039
0.0648922
0.256891
0.526758
0.0756894
0.106322
0.0596237
0.229273
0.0473467
0.120673
0.466865
0.158199
0.211073
0.091049
0.0575416
0.10885
0.0801664
0.0263912
0.209561
0.199945
0.198792
0.200439
0.218032
0.222071
0.1648
0.158116
0.242586
0.0616221
0.193619
0.498917
0.243472
0.593707
0.53738
0.629507
0.20376
0.266783
0.128721
0.0392811
0.307351
0.0683049
0.260729
0.518848
0.2375
0.275795
0.423845
0.0780773
0.398978
0.49688
0.0548306
0.10576
0.546929
0.127456
0.322403
0.450941
0.0594748
0.0651595
0.505435
0.164943
0.121175
0.0677858
0.335974
0.0862446
0.592728
0.065608
0.232689
0.0530818
0.524255
0.118934
0.0588142
0.0828148
0.598999
0.569226
0.0363582
0.0331397
0.410452
0.402301
0.205731
0.062589
0.478488
0.0682281
0.533815
0.139937
0.0712961
0.0556941
0.768647
0.459732
0.475181
0.0868293
0.0813677
0.049904
0.215218
0.362906
0.619897
0.500514
0.124001
0.144315
0.0820356
0.0790954
0.168742
0.209493
0.044711
0.263955
0.578155
0.0847014
0.151405
0.156306
0.251069
0.385721
0.264685
0.0589847
0.0506794
0.250758
0.0672375
0.0813722
0.0847876
0.0727686
0.0953244
0.449171
0.308553
0.161137
0.159207
0.0416746
0.346041
0.25158
0.0307815
0.0453597
0.069712
0.315788
0.0978072
0.114681
0.0543685
0.392682
0.263179
0.504632
0.111026
0.0420262
0.44961
0.561095
0.26415
0.538919
0.169067
0.0587787
0.0321538
0.334562
0.52536
0.0738864
0.0821907
0.0917425
0.573251
0.264771
0.336657
0.352616
0.233531
0.0622565
0.168711
0.225026
0.0735832
0.0525128
0.328084
0.264609
0.522328
0.319984
0.0868104
0.139975
0.180594
0.306767
0.0991475
0.103278
0.203709
0.284165
0.04199
0.178405
0.202997
0.0373219
0.238858
0.219238
0.0590313
0.158994
0.226972
0.274976
0.0844348
0.48554
0.306543
0.0806949
0.357367
0.296373
0.0331039
0.060526
0.424612
0.075504
0.0615991
0.0834727
0.283477
0.218035
0.430073
0.297469
0.390594
0.0729021
0.0821374
0.0487111
0.034379
0.251532
0.182941
0.0544524
0.46581
0.268108
0.29596
0.259696
0.315492
0.478379
0.0713679
0.0304328
0.374503
0.0821675
0.0888373
0.0740793
0.0742713
0.0909503
0.214066
0.199277
0.0734207
0.118756
0.0273769
0.148936
0.101945
0.561616
0.223762
0.257404
0.0641532
0.119347
0.277172
0.278809
0.275206
0.56748
0.063762
0.0793315
0.109246
0.327207
0.0912334
0.248825
0.0303679
0.28488
0.0504797
0.210936
0.237823
0.112859
0.153403
0.45049
0.247214
0.453323
0.0807963
0.271857
0.30265
0.257097
0.110013
0.0518969
0.126752
0.512562
0.265562
0.213956
0.31911
0.57611
0.193466
0.049192
0.494861
0.142869
0.102287
0.0713905
0.0174122
0.0432065
0.0318018
0.0594073
0.320234
0.544045
0.0671403
0.0465912
0.0749818
0.0691399
0.0305512
0.0569845
0.0968053
0.0407672
0.391321
0.0501743
0.0247774
0.163348
0.0905293
0.0926055
0.237821
0.053602
0.404967
0.0799059
0.338699
0.0584349
0.0882612
0.212407
0.257221
0.0584454
0.284144
0.448365
0.159505
0.166352
0.230252
0.541313
0.24262
0.0692134
0.0738956
0.0330699
0.304436
0.0731457
0.0797737
0.136531
0.340865
0.295022
0.0842419
0.0871046
0.259424
0.14315
0.0844547
0.288802
0.407411
0.0795249
0.246786
0.115835
0.20199
0.328391
0.265319
0.16526
0.0619919
0.00986001
0.00960766
0.409828
0.0110824
0.0102858
0.0706575
0.435618
0.106411
0.0142932
0.0105888
0.043383
0.103613
0.079595
0.0909084
0.0732162
0.0561323
0.323117
0.036789
0.13637
0.0494243
0.133442
0.298069
0.154362
0.581846
0.352994
0.0454071
0.0722049
0.0812803
0.108333
0.104711
0.0632446
0.0673513
0.32575
0.151425
0.10762
0.0396972
0.0385635
0.250184
0.246751
0.199416
0.0358846
0.1742
0.0504868
0.122355
0.345671
0.144299
0.255666
0.493977
0.345622
0.0362019
0.0845795
0.200367
0.0953733
0.070388
0.108808
0.0389402
0.0608609
0.0863872
0.0657181
0.0742112
0.0775516
0.0742158
0.313972
0.433363
0.0646558
0.217216
0.0497476
0.107651
0.278719
0.0773731
0.0440801
0.050347
0.0216343
0.225663
0.0885894
0.0633186
0.251634
0.535601
0.0251262
0.0921164
0.194465
0.0753513
0.274961
0.120437
0.0274929
0.089966
0.257763
0.626856
0.0642499
0.154535
0.190739
0.0843794
0.08931
0.121191
0.0737202
0.0651287
0.0680142
0.0749535
0.113055
0.0583877
0.0207125
0.069961
0.0750806
0.264948
0.121668
0.0678117
0.106256
0.0215185
0.0588777
0.371052
0.273256
0.0204757
0.147632
0.358173
0.336624
0.160685
0.162913
0.411353
0.0639824
0.308601
0.332939
0.0331762
0.0500067
0.100153
0.0590738
0.0375698
0.0561424
0.260841
0.0224707
0.425309
0.120945
0.081154
0.0791706
0.117325
0.0826415
0.244015
0.050294
0.0746699
0.0561942
0.153226
0.556621
0.0347216
0.08845
0.0839313
0.108959
0.465117
0.106787
0.0862606
0.046459
0.0358433
0.068711
0.112851
0.0328528
0.109934
0.272249
0.142767
0.505975
0.0546813
0.0926449
0.0551988
0.138485
0.0806899
0.311054
0.0290038
0.0457204
0.12553
0.302539
0.172481
0.0701138
0.0491509
0.0597029
0.231919
0.0404016
0.098648
0.102245
0.283268
0.0762126
0.134983
0.0290262
0.262589
0.0985305
0.0676601
0.0369792
0.251126
0.081251
0.144433
0.14589
0.0821591
0.0743113
0.251165
0.278361
0.360681
0.073279
0.119265
0.0657374
0.0664116
0.12966
0.0781069
0.0952674
0.0838676
0.152127
0.0253649
0.249229
0.104101
0.207771
0.0953656
0.0276861
0.0256292
0.0276106
0.0255832
0.101502
0.100849
0.100377
0.0989124
0.0321929
0.0981585
0.0989741
0.0354033
0.0370119
0.0368229
0.172393
0.0373365
0.0377067
0.323093
0.0282458
0.213454
0.0579653
0.100126
0.533518
0.102232
0.133356
0.114377
0.0223099
0.277594
0.12946
0.0619773
0.103784
0.104431
0.269889
0.0551785
0.0508676
0.093384
0.103608
0.082503
0.0867826
0.101328
0.103841
0.257342
0.262198
0.47044
0.404905
0.117353
0.0521436
0.250693
0.150244
0.0632372
0.0699773
0.128553
0.172525
0.104542
0.102511
0.195597
0.0442925
0.0698574
0.373717
0.263444
0.251297
0.104195
0.103381
0.219477
0.114599
0.235812
0.086087
0.0900107
0.280117
0.122731
0.118159
0.106426
0.0925483
0.0801601
0.132605
0.0251977
0.315131
0.079982
0.0923426
0.0222535
0.293313
0.0883584
0.141501
0.287084
0.165995
0.464809
0.318383
0.141707
0.189282
0.432251
0.286256
0.112161
0.0527283
0.452156
0.192563
0.0544974
0.259788
0.24908
0.0156652
0.0457852
0.233924
0.394405
0.0141966
0.0676852
0.223907
0.129114
0.257243
0.13791
0.0225924
0.230417
0.0774877
0.0996048
0.0588971
0.0321254
0.379656
0.0347557
0.106352
0.582828
0.0482563
0.0304692
0.128188
0.289041
0.128487
0.0501238
0.035
0.0609415
0.157045
0.0944707
0.378992
0.336971
0.241803
0.0215555
0.197542
0.0708484
0.120951
0.4937
0.0579632
0.324077
0.839419
0.0710739
0.0856407
0.202212
0.106019
0.179161
0.149389
0.0772615
0.290569
0.369255
0.313918
0.0391859
0.0808486
0.0630879
0.273599
0.0735166
0.236061
0.135314
0.0619269
0.0903208
0.0449186
0.20378
0.0847111
0.0702914
0.191736
0.0875305
0.246357
0.0663217
0.0372445
0.0312841
0.159142
0.328714
0.101754
0.0696407
0.249545
0.0663496
0.145046
0.183689
0.0659486
0.0698215
0.12621
0.0627935
0.318232
0.0464401
0.0297999
0.122485
0.0585562
0.0739037
0.0295778
0.160786
0.050678
0.182172
0.203644
0.0231939
0.187367
0.0504868
0.170493
0.0263975
0.187496
0.131738
0.0547752
0.49087
0.0302541
0.0982687
0.0825745
0.0541092
0.0921839
0.0908771
0.545591
0.026453
0.116671
0.208219
0.0420587
0.118342
0.0568842
0.0946179
0.117313
0.10525
0.0818123
0.10978
0.0300632
0.183427
0.0627682
0.0423845
0.226132
0.303582
0.190315
0.156873
0.0966642
0.139568
0.112457
0.0528114
0.0404257
0.0551936
0.078534
0.308254
0.0567663
0.0845935
0.593116
0.365399
0.150093
0.0932937
0.0570385
0.0488948
0.319087
0.133534
0.0871795
0.0950823
0.056091
0.0810145
0.115988
0.266088
0.12289
0.0840178
0.0547885
0.107876
0.0589572
0.0647978
0.498627
0.311343
0.187618
0.047882
0.21791
0.0409737
0.0330718
0.325056
0.069925
0.0755645
0.0857733
0.0983429
0.28541
0.0268635
0.281552
0.0451884
0.0647155
0.0383763
0.123748
0.262456
0.0968855
0.24698
0.151776
0.268032
0.156728
0.205852
0.0804856
0.123068
0.0527226
0.0289934
0.138928
0.0533613
0.429149
0.303258
0.128568
0.0674431
0.218453
0.0463876
0.125699
0.0606826
0.138604
0.0585673
0.514147
0.094406
0.0737342
0.201061
0.100519
0.300373
0.322472
0.211199
0.369169
0.0638774
0.0796276
0.0650433
0.0532433
0.254498
0.432938
0.0627914
0.476284
0.0993949
0.139336
0.0584206
0.223656
0.126386
0.0318468
0.18208
0.0170989
0.0856991
0.278314
0.252817
0.136052
0.0825103
0.236806
0.100038
0.0325507
0.056714
0.239957
0.321932
0.0397634
0.505327
0.354424
0.368161
0.0281396
0.0888044
0.130546
0.0536859
0.20865
0.165322
0.390014
0.0764782
0.075496
0.267924
0.262981
0.124085
0.0665236
0.320662
0.570416
0.354676
0.079987
0.421087
0.422719
0.24009
0.0212615
0.211192
0.202534
0.248801
0.467689
0.0213766
0.195107
0.0303122
0.23587
0.084859
0.356498
0.0104595
0.0711142
0.223083
0.12607
0.176643
0.0750992
0.0337311
0.172667
0.0982764
0.213571
0.0418344
0.37214
0.0375078
0.215535
0.254777
0.10852
0.201049
0.109197
0.0586134
0.11191
0.035491
0.212785
0.158252
0.32294
0.0610482
0.203239
0.21927
0.0213792
0.0516986
0.0772988
0.0879128
0.115677
0.138255
0.0636996
0.0631506
0.0712547
0.112843
0.0794282
0.0326001
0.054967
0.0792623
0.0783957
0.125705
0.0813327
0.228194
0.0733402
0.101042
0.152055
0.108156
0.219639
0.0380319
0.125445
0.0626904
0.184993
0.0644107
0.0853453
0.0699553
0.118808
0.053354
0.146869
0.550833
0.0225567
0.0521726
0.2196
0.0632871
0.197513
0.066951
0.0682222
0.106095
0.128247
0.0699071
0.0719071
0.0997338
0.0942357
0.224822
0.0762846
0.141122
0.126486
0.0795548
0.335958
0.0467925
0.272973
0.104908
0.139363
0.101478
0.153244
0.0785009
0.0432098
0.0682271
0.0725462
0.269047
0.0303055
0.326409
0.344803
0.259233
0.0624892
0.187539
0.251369
0.0204639
0.131033
0.1011
0.178391
0.125709
0.0672881
0.16862
0.0836149
0.118951
0.109485
0.0679983
0.246575
0.451585
0.306
0.530136
0.069588
0.0804706
0.0691208
0.111244
0.247519
0.228677
0.12412
0.0636571
0.0766166
0.116953
0.12187
0.0722426
0.0750693
0.127498
0.125148
0.103868
0.0661145
0.0756862
0.0805901
0.12112
0.293532
0.106825
0.257018
0.266356
0.0748073
0.154178
0.308774
0.136628
0.0452966
0.214563
0.02489
0.120452
0.375599
0.34071
0.0688137
0.236026
0.33397
0.0682043
0.261355
0.353014
0.358119
0.122591
0.0729937
0.180054
0.184861
)
;

boundaryField
{
    frontAndBack
    {
        type            empty;
    }
    wallOuter
    {
        type            kqRWallFunction;
        value           nonuniform List<scalar> 
102
(
0.021014
0.021014
0.198038
0.0280332
0.0240632
0.050839
0.0677802
0.0305512
0.00986001
0.00960766
0.0110824
0.0102858
0.0142932
0.0105888
0.043383
0.103613
0.0909084
0.13637
0.0812803
0.10762
0.0358846
0.0362019
0.0845795
0.0497476
0.107651
0.0843794
0.08931
0.0331762
0.0561424
0.0985305
0.0369792
0.0276861
0.0256292
0.0276106
0.0255832
0.101502
0.100849
0.100377
0.0989124
0.0321929
0.0981585
0.0989741
0.0354033
0.0370119
0.0368229
0.0373365
0.0377067
0.0579653
0.100126
0.104431
0.0551785
0.103608
0.101328
0.104542
0.102511
0.0698574
0.104195
0.103381
0.0925483
0.0801601
0.192563
0.0156652
0.0141966
0.0225924
0.0347557
0.035
0.197542
0.106019
0.179161
0.0619269
0.0702914
0.191736
0.0312841
0.159142
0.101754
0.0659486
0.0464401
0.0739037
0.182172
0.0547752
0.0982687
0.026453
0.10525
0.10978
0.190315
0.0551936
0.0845935
0.0950823
0.0589572
0.0533613
0.100038
0.0325507
0.0212615
0.0213766
0.0104595
0.0750992
0.0213792
0.0631506
0.0794282
0.0225567
0.066951
0.106095
)
;
    }
    inlet
    {
        type            fixedValue;
        value           nonuniform 0();
    }
    outlet
    {
        type            zeroGradient;
    }
    wallInner
    {
        type            kqRWallFunction;
        value           nonuniform List<scalar> 
138
(
0.0217586
0.042596
0.116188
0.458868
0.302073
0.42357
0.22162
0.155757
0.422298
0.0601774
0.0795846
0.0664115
0.0413498
0.270775
0.0595349
0.0642523
0.0441712
0.142182
0.0647646
0.0711407
0.0691307
0.0288589
0.0583626
0.0458709
0.0268519
0.056928
0.0356641
0.0497045
0.205224
0.0412326
0.0531702
0.0561659
0.0594209
0.043363
0.0545572
0.0284722
0.0628092
0.0184953
0.0582067
0.0762457
0.0571573
0.0227736
0.0879687
0.0566153
0.0591956
0.0132407
0.0491755
0.129272
0.0391129
0.0869213
0.0565357
0.0416592
0.0331314
0.0593158
0.0158643
0.112234
0.0467141
0.0676287
0.0965261
0.126796
0.0630704
0.0321254
0.018792
0.0534195
0.104091
0.0207772
0.035279
0.12715
0.0583504
0.07566
0.067123
0.0488002
0.0363131
0.0109632
0.112931
0.0473467
0.120673
0.0263912
0.243472
0.128721
0.0594748
0.0862446
0.0530818
0.0363582
0.0331397
0.215218
0.124001
0.144315
0.168742
0.161137
0.159207
0.0307815
0.0321538
0.202997
0.0331039
0.060526
0.214066
0.119347
0.213956
0.0318018
0.0594073
0.0247774
0.0330699
0.0706575
0.106411
0.199416
0.0608609
0.0216343
0.0251262
0.0274929
0.0207125
0.106256
0.0215185
0.0590738
0.0561942
0.0404016
0.0253649
0.0282458
0.0223099
0.118159
0.287084
0.165995
0.0544974
0.0856407
0.135314
0.0297999
0.0420587
0.0568842
0.139568
0.0488948
0.156728
0.131033
0.261355
0.353014
0.122591
0.0729937
0.180054
0.184861
)
;
    }
    procBoundary2to0
    {
        type            processor;
        value           nonuniform List<scalar> 
42
(
0.638403
0.638403
0.174653
0.160602
0.251341
0.755684
0.139833
0.139833
0.25264
0.236117
0.311303
0.311303
0.256156
0.379693
0.451959
0.705363
0.440772
0.211823
0.2475
0.798294
0.832617
0.164881
0.164881
0.972566
0.832617
0.0967617
0.838952
0.0640197
0.838952
0.601967
0.47208
0.0580798
0.0618677
0.0682643
0.074697
0.160602
0.440772
0.104597
0.750613
0.0881235
0.0881235
0.075948
)
;
    }
    procBoundary2to1
    {
        type            processor;
        value           uniform 0.688228;
    }
    procBoundary2to3
    {
        type            processor;
        value           nonuniform List<scalar> 
29
(
0.835907
0.683814
0.185638
0.12987
0.295979
0.546564
0.358678
0.592426
0.241704
0.249294
0.591936
0.403042
0.550127
0.639161
0.349602
0.525673
0.211697
0.211697
0.683814
0.639161
0.465506
0.212668
0.173705
0.233169
0.279752
0.211592
0.241704
0.623532
0.403042
)
;
    }
}


// ************************************************************************* //
