/*--------------------------------*- C++ -*----------------------------------*\
| =========                 |                                                 |
| \\      /  F ield         | OpenFOAM: The Open Source CFD Toolbox           |
|  \\    /   O peration     | Version:  v1912                                 |
|   \\  /    A nd           | Website:  www.openfoam.com                      |
|    \\/     M anipulation  |                                                 |
\*---------------------------------------------------------------------------*/
FoamFile
{
    version     2.0;
    format      ascii;
    class       surfaceScalarField;
    location    "0.04";
    object      phi;
}
// * * * * * * * * * * * * * * * * * * * * * * * * * * * * * * * * * * * * * //

dimensions      [0 3 -1 0 0 0 0];
oriented        oriented;


internalField   nonuniform List<scalar> 
2776
(
1.08684e-05
0.00017328
-1.30825e-06
-0.00018284
-4.8813e-05
1.1074e-05
-0.000229643
0.000267381
-4.58706e-05
1.54922e-05
-1.63756e-05
4.6754e-05
-1.39186e-05
1.02609e-05
0.000159087
-0.000155429
0.000144175
0.000126093
-0.000113046
-0.000157223
0.000104192
8.20178e-05
-0.000118104
-6.81055e-05
2.27861e-05
-3.97181e-05
4.35948e-05
-2.66628e-05
1.51978e-05
-0.000140947
0.000177432
0.000215353
-0.000244928
-0.000147857
0.000202841
-0.00022147
0.000172013
-0.000153384
1.76944e-05
5.41101e-05
-7.18045e-05
0.000332733
-0.000326491
-5.24954e-06
-9.92175e-07
-4.8123e-06
4.8123e-06
8.87458e-05
-1.54297e-05
-5.94027e-05
-1.39134e-05
-2.96651e-06
-6.13642e-05
5.07052e-05
1.36255e-05
9.5671e-06
9.01048e-05
-6.61951e-06
-9.30523e-05
-3.47568e-05
1.56105e-05
1.91463e-05
0.000141131
7.434e-05
-1.12767e-05
-0.000204194
-8.08976e-06
3.04893e-05
9.18074e-05
-0.000114207
3.15766e-05
-4.92083e-05
0.000114756
-9.71238e-05
5.70063e-05
-5.60515e-05
5.97742e-07
-1.55252e-06
-0.000143776
-0.000128118
0.000236276
3.56181e-05
0.000240289
-0.000220051
-2.02374e-05
1.6536e-05
0.000235751
-0.000216543
-3.5744e-05
6.61857e-05
5.05178e-05
-2.79577e-05
5.89218e-05
1.77773e-05
-4.61314e-05
-3.05677e-05
7.86032e-05
1.75936e-05
-4.15118e-05
-5.46849e-05
-2.26912e-07
9.7825e-06
-0.000200863
0.000191307
-9.71487e-05
-1.85039e-05
0.000108491
-4.64239e-05
-6.20669e-05
2.9216e-05
-7.10726e-05
-0.000167758
4.13442e-05
-7.60573e-05
-0.000120249
0.000154962
0.000107696
-8.52108e-05
-0.000228465
1.68041e-05
5.01236e-06
7.16948e-05
-9.35113e-05
-0.000205934
-6.19263e-05
0.000159208
0.000108652
5.24483e-05
-5.41702e-05
-1.24464e-06
9.35191e-06
-5.69602e-05
5.48157e-05
-7.20739e-06
1.55677e-05
4.27233e-05
-3.92933e-05
-1.89978e-05
5.89882e-06
0.000123252
-0.000182762
5.36116e-05
1.27286e-05
-0.00014511
9.41654e-05
0.000294943
-5.63759e-05
-0.000141435
0.000189546
1.12154e-05
-5.93267e-05
-0.000218771
0.000148737
0.000247466
0.000149221
-0.000135028
7.77659e-05
-9.19596e-05
0.000285613
-0.000261026
-5.72303e-05
3.26431e-05
-0.0001846
0.000108175
0.000333721
-0.000257297
2.54591e-05
4.74306e-05
-1.8199e-05
-5.46907e-05
7.37164e-05
-0.000123763
0.000191178
-0.000110782
-2.08212e-06
-2.85702e-05
5.9951e-07
5.74938e-05
-1.08699e-06
7.42433e-06
-2.69141e-06
-4.72178e-05
4.24848e-05
-2.92368e-05
-4.8717e-06
-4.6321e-06
-0.000229082
-0.00014186
0.000167713
-9.42815e-05
6.84277e-05
-4.10619e-05
2.54954e-07
4.00482e-05
7.58739e-07
-0.000243698
7.6527e-05
0.000150729
1.64416e-05
-2.1552e-05
0.000119669
-0.000109134
1.10169e-05
-8.78353e-05
-0.000124753
7.07288e-05
-2.14947e-06
1.05957e-06
9.27919e-05
-9.1702e-05
0.000125295
0.000106148
-0.000323841
0.000176911
4.07812e-05
4.26807e-05
-0.00012181
6.54077e-05
1.37219e-05
0.00021404
-0.000117785
7.14577e-05
-5.5926e-05
7.9735e-07
-9.22876e-07
-3.11762e-05
-0.000192036
0.00022566
-2.44747e-06
-0.000122793
0.000205827
-0.00022681
-1.49628e-05
1.88552e-05
-4.50073e-05
4.11149e-05
-0.000167822
0.000215154
-8.29968e-05
3.56645e-05
4.30036e-06
4.47007e-05
-3.34333e-05
-0.000175765
0.000115123
0.000143527
-8.28855e-05
4.84569e-05
-4.41565e-05
0.000219047
-0.000318219
-0.000220674
-0.00020785
-6.16893e-05
9.37743e-05
0.000131016
-0.000248117
0.000190817
-5.98876e-05
-0.000150367
0.000113105
-0.000101933
-0.000112286
0.000126384
6.57053e-07
-1.66349e-06
-4.83013e-05
4.93077e-05
8.80365e-05
0.00013024
-0.000113799
-0.000104477
4.60768e-05
-1.52399e-06
-4.70005e-05
2.44775e-06
-2.61775e-05
-7.07982e-05
-1.38065e-05
6.86358e-05
-5.49088e-05
-2.76957e-05
1.39688e-05
3.33495e-06
5.25421e-05
-5.68545e-05
9.77528e-07
5.72103e-06
4.77106e-05
1.52041e-05
0.000321345
8.09108e-05
-8.57923e-05
-0.000316464
0.000121999
2.81006e-05
-3.16897e-05
-0.00011841
-0.000214954
0.000195398
5.53263e-05
-3.577e-05
0.000136421
-4.4267e-05
7.38981e-05
-0.000166052
1.745e-07
-5.56664e-05
5.54919e-05
-9.79939e-05
0.000103225
0.000112155
-0.000117387
-4.26278e-05
-0.000132997
0.000191344
-1.57191e-05
9.01305e-06
-4.07913e-05
3.92026e-05
-5.68191e-05
5.75931e-05
-4.36485e-05
-0.000293853
4.51483e-05
0.000292353
1.04799e-05
-1.91353e-05
-0.000132917
0.000141573
-4.60637e-05
0.000279513
5.86858e-05
-0.000292135
3.40554e-05
-2.05905e-05
0.000122956
-3.71014e-05
0.000225214
-0.000232032
6.5908e-06
1.21917e-05
-2.08467e-05
-3.8261e-05
4.6916e-05
0.000200476
-0.000244124
7.53483e-06
-4.45843e-05
4.0724e-05
-3.67452e-06
-0.000268936
-0.000134434
5.58313e-07
-1.10489e-06
-5.53794e-05
6.69223e-07
4.56992e-05
-2.91671e-07
-0.000275104
-2.68055e-05
0.000255846
4.9119e-05
-2.5296e-05
1.83451e-05
-4.21681e-05
-1.27122e-05
6.39308e-06
-9.50682e-05
0.000101387
2.8829e-05
-4.20164e-05
-3.5721e-05
4.89084e-05
2.48453e-05
-3.14543e-05
-2.71894e-05
3.37985e-05
1.95556e-05
4.86268e-05
-1.02947e-05
5.48239e-06
-0.000190201
-0.000182446
0.000104733
0.000267915
9.60436e-05
8.50719e-05
-8.17792e-05
-9.93363e-05
0.000134995
-0.00010085
6.18987e-05
8.31032e-05
-0.000247066
-5.09911e-05
-0.000121055
0.000118556
0.000171071
-0.000168573
5.60956e-05
2.89673e-07
-5.5588e-05
5.1121e-06
-0.000118931
0.000154854
-4.1035e-05
6.16323e-05
2.34396e-05
0.00020791
-0.00011138
0.000224815
7.67819e-05
-4.70369e-05
9.22539e-05
-5.11546e-05
-2.54472e-05
-0.000111185
0.000187787
1.95577e-05
-1.97921e-05
1.28859e-05
-1.26516e-05
-0.000193375
0.000237048
-2.67823e-05
-1.68902e-05
-8.8834e-05
0.000123481
-0.000132641
0.000196993
0.000134017
-0.000184374
-0.000146635
-7.99316e-05
-8.03803e-05
7.31297e-05
8.71821e-05
5.11042e-05
-1.89573e-05
-0.000239997
1.83503e-05
1.18544e-05
-0.000156823
0.000126618
-0.000174638
7.34808e-05
0.000315198
-7.98147e-07
3.62497e-05
2.5454e-06
-3.7997e-05
-0.000108946
-0.000104389
0.000111402
0.000164412
1.83231e-05
6.81052e-06
4.16077e-06
-6.9594e-05
7.78264e-05
-1.23931e-05
-0.00035069
0.000284836
8.10318e-05
-1.51775e-05
0.00019565
2.63214e-05
-0.000170867
-0.000166635
-5.48357e-05
1.25736e-07
-5.57922e-05
0.000164289
-0.000129342
-0.000135797
0.000100849
-0.000166343
-7.13664e-05
0.000131182
0.000106527
-0.000135479
7.04019e-05
-5.50845e-05
-1.23474e-05
6.74319e-05
-0.000148534
-2.93007e-05
0.000177834
0.00022748
-8.77571e-05
-0.000240462
0.000100739
-0.000174372
0.000162231
-0.000162497
9.34746e-06
0.000142042
-6.65863e-05
-1.84958e-05
1.12025e-05
2.68509e-05
-1.7796e-05
0.000187034
2.61602e-05
2.48891e-06
-0.000235403
0.000169845
6.30685e-05
6.33323e-05
8.36713e-05
-0.000112948
-1.94665e-05
2.43339e-05
2.28715e-06
-7.15458e-06
0.000196691
-0.000108303
0.000149626
-0.000203492
1.88533e-05
3.50132e-05
9.66928e-05
-0.000105368
2.7535e-05
-1.88603e-05
0.000203701
0.000106883
1.9341e-05
0.000228617
-2.27434e-05
0.000140443
-2.37418e-06
-1.45684e-05
-0.0001235
0.000356423
-4.10149e-06
-4.83266e-05
-0.000254058
-8.68746e-06
3.07129e-05
0.00010397
-0.000109691
0.000296435
-0.00023397
3.29474e-05
-9.54129e-05
-3.82814e-05
-8.54928e-05
0.000123774
-0.000112273
7.19831e-05
5.36035e-06
3.49293e-05
-8.23903e-05
4.39268e-05
0.000117067
6.103e-06
-5.88582e-05
5.60902e-05
2.72121e-06
8.73303e-06
4.10878e-05
2.07264e-05
-2.78421e-05
-1.26763e-05
-0.000158544
9.76649e-05
-0.000113492
-3.66764e-05
0.000113192
0.000358062
-0.000227799
-0.000179076
-5.77995e-05
-0.000195458
-8.00555e-07
-0.000102326
8.99359e-05
-9.98962e-05
-9.3877e-07
-1.1465e-05
-4.89605e-05
-9.45595e-05
-0.000204953
4.92376e-05
-4.88061e-05
7.10328e-06
-6.02954e-05
0.000100542
-0.000120179
3.0285e-05
8.91775e-05
9.53472e-05
0.000218712
3.58248e-05
8.37409e-05
4.87339e-05
-4.88901e-05
8.2548e-07
9.63363e-05
-0.000239908
-0.000102123
0.000245694
5.00758e-05
3.4185e-06
-1.04597e-06
7.10067e-06
0.000186595
1.80077e-05
-0.000204602
-0.00010112
7.36239e-05
2.74963e-05
4.67333e-05
0.000113493
-1.97132e-05
5.15402e-05
1.74106e-05
-6.99442e-05
9.88136e-05
4.62662e-05
-2.25458e-05
0.000261115
-1.07961e-05
8.30066e-06
-4.46697e-05
4.71651e-05
-1.32483e-05
5.15712e-05
-3.39132e-05
-4.87942e-05
5.74114e-05
1.41553e-05
-3.59538e-06
3.01137e-05
5.22872e-05
-3.32556e-05
-5.17907e-05
3.27591e-05
2.9934e-06
-1.87846e-06
1.22364e-05
-8.37025e-05
-4.08067e-05
2.93985e-05
-2.71679e-05
-0.000125297
0.000150446
-2.7231e-05
2.92118e-06
0.000274075
0.000138784
-0.000304683
-5.31911e-05
-1.91787e-06
-1.31976e-05
3.64866e-05
-2.56248e-05
2.33581e-06
-4.64842e-05
4.15873e-05
-9.77447e-05
2.11992e-05
9.07008e-05
-1.52747e-05
-1.32068e-05
8.07687e-05
4.64065e-05
-3.02926e-05
-3.3126e-05
1.70121e-05
-5.53107e-05
-3.38277e-07
8.28426e-05
-2.78905e-05
-9.81104e-05
4.31584e-05
3.95437e-05
-1.46181e-05
-2.49257e-05
8.29158e-05
-5.73293e-05
-0.000107366
-0.000182278
1.80233e-06
0.000118787
-0.000212274
-7.23821e-05
0.000249658
3.49978e-05
-0.000196503
5.49936e-07
0.000206821
-7.73623e-05
0.000118506
2.99322e-05
2.52867e-05
-7.78834e-06
7.38204e-05
-0.000143134
-8.92312e-05
3.09357e-05
4.21065e-05
-4.311e-05
6.95376e-05
-3.72651e-05
6.04181e-05
4.51901e-05
-9.17574e-05
-1.38508e-05
1.53065e-06
5.48916e-05
-1.55237e-06
-5.48699e-05
-0.00021533
-0.000157023
0.000175588
0.000196765
-4.92703e-05
6.43494e-05
-1.09184e-05
0.000236125
-0.000271261
6.51755e-05
-3.00395e-05
8.99843e-05
-0.000101364
1.82924e-05
-6.91257e-06
-9.308e-05
8.46289e-05
4.64026e-05
-3.79514e-05
7.12321e-06
3.82498e-05
-2.43836e-05
1.55324e-05
-6.80769e-05
7.85225e-05
-0.000103526
-8.73937e-05
-6.52974e-05
-8.31598e-05
3.49592e-05
-3.32357e-05
0.000150292
-0.000150269
-5.91114e-05
-6.64813e-05
5.54937e-05
-1.71389e-09
0.000121
-1.43869e-05
-0.000174202
-2.93235e-06
5.44604e-05
-5.29297e-05
6.99141e-05
-5.9254e-05
-1.06601e-05
-5.55025e-05
4.88957e-05
5.52517e-05
-7.91357e-07
2.58951e-05
0.000125474
0.000251348
-1.62888e-05
-0.000226351
-8.7082e-06
-0.000103266
-4.8209e-05
0.000258493
-0.00010816
9.75284e-05
-3.92339e-05
1.74045e-05
-4.52408e-05
0.000279185
-1.33322e-05
5.74954e-05
5.14205e-05
0.000235641
9.3734e-06
-0.000234345
0.000137773
0.000305346
-0.000208774
3.30524e-05
-3.59161e-05
-4.62178e-05
4.68609e-05
-0.000299113
0.000317955
-1.43774e-06
8.28448e-05
0.000176183
-7.10311e-05
-4.7073e-05
4.38014e-05
2.59591e-05
-5.61349e-05
-0.000417039
-9.68248e-05
2.60928e-05
-1.80925e-05
3.31259e-05
-2.73451e-05
-3.90364e-05
-0.000108749
-0.000163988
0.000228557
4.41805e-05
3.30473e-05
-0.000182859
-5.51419e-05
1.36981e-05
-1.67735e-05
6.74248e-05
-9.05452e-06
6.52599e-05
9.01373e-05
-0.000122471
1.0782e-05
-1.42049e-06
-4.593e-06
5.52713e-05
-1.25407e-05
1.19252e-05
-4.03407e-06
-2.5076e-07
6.33517e-06
1.86619e-05
-1.21111e-05
-3.86697e-05
3.815e-05
1.238e-05
-1.18603e-05
-6.45625e-05
-1.98661e-05
6.90389e-05
1.53897e-05
1.55833e-05
-6.52955e-05
-0.000108313
0.000158025
6.15967e-05
-0.00022102
0.000214362
-0.000141983
0.000148641
9.61982e-05
0.000193226
4.0391e-05
-3.14105e-05
-0.000176874
-0.000305587
6.54223e-05
0.000159418
1.08551e-05
4.25557e-05
-0.000212829
-0.000184468
-0.000287135
7.28366e-05
0.000117351
-8.96456e-05
0.000120495
8.51375e-07
-7.02043e-05
-5.1142e-05
5.33976e-05
-0.000249601
0.00029254
-0.000167977
0.000187308
0.000191066
-0.000210397
9.78634e-07
0.000104242
3.2187e-05
6.52701e-05
-6.40406e-05
2.8368e-06
1.1019e-05
5.01848e-05
0.000128414
3.49451e-05
-4.63477e-06
1.27513e-05
-4.30615e-05
0.000147015
2.79863e-05
-4.12172e-05
-3.03856e-06
3.27908e-05
-1.60266e-05
-3.85466e-05
4.30641e-05
1.15091e-05
1.96218e-05
-9.03791e-05
8.11769e-05
-1.04196e-05
7.95193e-05
7.2133e-05
1.77206e-05
-1.13854e-05
0.000199082
0.000267884
-0.000130334
-0.00021334
0.000186651
3.48492e-05
6.7785e-06
-3.26146e-05
-2.25284e-05
-2.84109e-05
-0.000214505
0.000104575
0.000272161
5.67531e-05
3.81074e-05
-4.61407e-05
4.11592e-05
8.5144e-06
-2.46511e-05
4.22295e-05
3.9245e-05
-5.81441e-05
0.000202433
0.000113995
-0.000270163
5.31932e-06
2.45451e-05
-5.30706e-05
2.17221e-06
0.000110183
-0.000114907
0.000116127
-8.61527e-06
-7.28348e-05
-3.87285e-05
4.26113e-05
-3.70105e-05
-5.60076e-06
6.30836e-05
-6.89114e-05
5.82777e-06
4.39502e-05
-3.84491e-05
-5.50111e-06
3.47816e-05
-3.25479e-05
-2.23369e-06
-4.53308e-05
4.02913e-05
5.03954e-06
-3.94545e-05
-1.1773e-05
5.12275e-05
4.78196e-05
6.18678e-06
-5.40063e-05
4.66603e-05
-4.84771e-05
1.81671e-06
4.88032e-05
-4.50634e-05
-3.7398e-06
3.72502e-05
-2.46867e-06
-5.20335e-05
4.11303e-05
1.09032e-05
5.474e-05
8.34358e-06
4.43063e-05
-1.69495e-06
6.78057e-05
-5.76691e-05
-1.01367e-05
0.000109159
6.17598e-05
-4.88966e-05
-1.28632e-05
4.84766e-05
5.92647e-05
-1.26043e-05
6.80851e-05
-1.92819e-05
2.87955e-05
-6.60211e-06
-2.21934e-05
3.05435e-05
-3.21374e-06
-2.73297e-05
5.64775e-05
-1.25273e-05
-5.23027e-05
-6.95123e-06
-4.72445e-05
4.27664e-05
4.47811e-06
-5.79078e-05
5.41138e-05
3.79401e-06
-3.88919e-07
-7.48974e-05
1.12457e-05
-0.000177675
-0.000210216
0.000166871
0.000133307
-6.41647e-05
7.14821e-05
-4.93482e-05
0.000154612
-4.85363e-05
-0.000108437
-2.18007e-05
6.76922e-05
6.2545e-05
5.57116e-05
5.76597e-05
5.98273e-05
-5.75295e-05
0.000252979
0.000282096
-4.41243e-05
-9.13754e-05
0.000179171
0.000115966
-8.07744e-05
0.000142285
-0.000110961
0.000100023
-3.23072e-05
-1.97263e-05
-4.94909e-05
0.000223288
-0.000173798
1.11467e-05
-2.00439e-06
-2.20427e-06
1.01774e-05
1.20202e-05
-3.82613e-06
6.6944e-05
-1.28303e-05
5.274e-05
-9.97359e-06
-7.57163e-07
3.87919e-05
2.33841e-06
6.26295e-06
-9.65361e-06
4.11233e-05
0.000346686
-4.18696e-06
3.79805e-06
2.6962e-05
-0.000189129
7.22891e-05
-2.3241e-05
0.000179214
-0.000109851
-4.61219e-05
3.55935e-05
-3.958e-06
-0.000164799
-0.000141582
3.66581e-05
3.37939e-05
-8.85535e-06
-3.26792e-05
-1.71943e-05
-5.58627e-05
5.23232e-05
-7.96203e-05
4.27857e-05
-7.0158e-05
-0.00015885
0.000186222
-0.000158698
0.000157958
4.35255e-05
-0.000206568
4.27788e-05
2.16868e-06
0.000161621
-7.55308e-05
-0.000123596
5.59931e-05
7.58352e-05
-0.000238714
0.000311823
-0.000148944
2.30399e-05
-5.35482e-06
3.73486e-06
-9.71824e-05
-0.000102918
0.000124569
-3.76525e-06
-6.50389e-05
-4.71964e-06
2.57304e-05
9.93824e-05
-3.15767e-05
0.000105783
-4.40236e-05
3.69143e-05
-4.41972e-05
5.07862e-06
3.92056e-05
-0.000102907
-5.98946e-05
-1.24032e-05
6.71118e-05
0.000363023
-0.000121958
-0.000425533
6.53609e-06
-2.84324e-05
-1.67734e-05
-0.000190828
-0.000107535
0.00013202
-0.000210765
-0.00021008
0.0001865
4.39697e-05
-1.07874e-06
-4.61941e-05
3.30317e-06
4.06528e-05
8.62719e-06
-4.12773e-05
-8.00269e-06
1.84456e-05
-1.29747e-05
5.83004e-05
0.000144182
-0.000163277
-1.35017e-06
0.000295578
-2.36323e-05
-0.00025155
0.000237635
3.75472e-05
-7.74546e-05
9.34708e-05
0.00012075
-0.000136767
-8.86541e-05
-0.00018826
8.6086e-05
0.000169523
-0.000167935
-0.000166566
0.000164978
7.54713e-05
-4.52964e-05
-0.000188873
0.000133861
-0.000135844
-0.000125065
0.000158559
0.00013603
4.15818e-05
-0.00011174
-0.000156733
0.000215499
-0.000186885
-0.000207087
0.000169273
-0.000230172
0.000267986
-0.000197435
-0.000166385
0.000168918
-0.000113221
-0.000253132
-0.000259837
-0.000110999
0.000285625
0.000124935
-0.000275206
0.000213952
-0.000303776
0.000131784
-0.000103213
-2.78714e-05
1.5948e-05
-4.34833e-05
2.28925e-05
-0.000161937
0.000156608
-8.33247e-05
1.30855e-05
-2.08134e-05
0.000272304
-0.000264576
0.000294634
-0.000241236
0.000270466
6.41327e-05
-0.000321513
0.000307752
-7.31211e-05
-0.000258263
-0.000163046
7.95857e-05
-4.42706e-05
0.000233445
-0.00026876
0.000288864
0.000210914
-0.000294526
-0.000205252
9.63432e-05
9.34683e-05
-0.000189812
-8.81454e-05
-0.000116001
0.00025621
-0.00010449
-0.000172533
-5.52767e-05
-0.00023735
5.81222e-05
0.000234505
0.000240272
0.000128178
0.000201359
-0.000127041
0.000233433
-3.41198e-05
0.000296281
-0.000219242
-4.29192e-05
-0.00025779
0.000166039
5.76309e-05
-0.000144513
0.000265272
-0.000169685
4.89256e-05
-8.04867e-05
0.00018766
-0.000275108
-0.00031184
0.00016521
2.11734e-06
0.000213443
-0.000211399
0.000199315
-0.000198215
-4.03829e-05
0.000183321
0.000145171
-0.00012718
-0.000151913
0.000133922
0.000247125
-6.21635e-05
-0.000258083
0.000197503
-9.93115e-05
-0.000142462
5.38244e-05
-0.000208164
-0.00010345
-0.000184482
0.000190938
0.000206987
8.22377e-05
5.16722e-05
-0.00013391
0.000194069
-4.86598e-05
-0.000225896
-9.57173e-05
0.000215802
5.33656e-05
-5.43821e-05
-0.000160921
-0.000125727
0.000145232
0.000125666
-9.76134e-05
0.000160208
7.47469e-05
0.000277806
-1.79421e-05
-1.80817e-05
3.60238e-05
8.92865e-06
3.66869e-05
0.00022485
-4.22158e-05
1.11125e-05
-3.00667e-05
4.16476e-06
-5.15089e-06
-1.36231e-05
1.8774e-05
0.00035598
-8.15256e-05
7.76203e-05
-2.45992e-05
-0.000135306
-0.000148547
-8.55713e-05
1.12893e-05
6.13846e-06
5.78107e-05
-0.0002291
0.0001632
7.95982e-05
-0.000188731
0.000115031
-1.81468e-06
-4.18767e-05
6.19699e-06
-0.000157099
0.000101391
-4.01586e-05
-3.01505e-05
-0.000264621
0.000145416
0.000177016
-3.17105e-05
3.23995e-05
-4.51432e-05
4.89543e-05
4.27774e-05
-4.42734e-05
1.39622e-06
9.97166e-08
-5.66068e-05
-0.00011014
-1.39973e-05
-8.78153e-06
-0.000155877
-9.99629e-05
-4.01649e-05
-4.79732e-05
1.75133e-06
4.142e-05
-9.97456e-07
2.35487e-06
0.000138421
-8.0121e-05
-0.000161492
-7.63904e-05
1.61173e-05
-3.17054e-05
-0.000266956
0.000236498
-3.66103e-05
1.86682e-05
5.68581e-05
1.60219e-05
-4.6145e-05
-1.11542e-05
-8.30861e-07
-4.64903e-05
1.12707e-06
-3.53761e-05
-4.31481e-06
3.80404e-05
7.6944e-06
2.90424e-05
3.0651e-05
-0.000162601
-0.000284121
-0.000235244
0.000229291
6.40744e-05
-2.27229e-05
-0.000222494
-2.84445e-05
0.000273661
8.26485e-05
0.000163569
0.000214649
-8.19373e-05
-0.000212451
-0.000104918
0.000198719
0.000175764
-2.91529e-05
0.000209784
2.03604e-05
0.000169099
0.000217761
0.000109136
-4.38754e-05
-4.86191e-05
-1.85061e-07
-0.000121965
0.000153344
0.0001568
-0.000115665
0.000143282
-3.14302e-05
-0.000262013
4.18936e-05
-0.000258321
0.000229936
4.70535e-05
0.000239198
5.5436e-05
-5.55352e-06
0.000244751
6.01873e-05
0.000106464
1.95716e-05
7.63432e-05
-4.20117e-07
4.53799e-05
-3.80366e-05
1.32383e-07
3.35894e-05
4.12224e-05
-4.26766e-05
-1.53192e-05
-0.000106551
-0.000101592
6.68586e-05
-0.00022868
-0.000230972
0.000225712
-0.000279572
0.000247447
-0.000254561
0.000258861
2.29055e-06
0.000300418
0.000131905
1.2668e-06
-6.27565e-07
3.06697e-05
6.78994e-05
-6.77053e-05
4.65839e-05
-0.000236961
-2.15035e-05
-0.000143914
-0.000266762
7.17291e-05
1.37248e-06
0.000154104
-2.05512e-05
4.98027e-05
-0.000261878
-4.67006e-05
0.000258776
-0.000243109
2.48913e-05
-5.50153e-05
-1.6021e-05
-5.90904e-07
-4.72814e-05
1.38201e-06
-6.23672e-07
4.1644e-05
-4.28988e-05
0.000107951
-0.000242809
-0.000101252
-0.000142014
0.000133414
0.000109853
-0.000105608
-0.000110634
-0.000189612
0.000122814
-0.000141367
-4.09503e-05
3.22472e-05
-5.97279e-05
3.64797e-05
7.75521e-05
-0.000212447
-0.000212477
-0.000124968
7.33133e-06
3.23404e-05
-3.81441e-05
-1.52757e-06
2.71055e-05
-0.000104333
8.82461e-05
-0.000101622
-0.000121373
-0.000256096
6.9722e-05
0.000236177
-0.000141772
-0.00011078
7.5963e-05
-7.01455e-05
-1.12404e-06
3.15925e-05
-2.15391e-05
-3.72213e-05
3.60533e-05
-0.000195297
4.70589e-05
-0.000233102
1.67719e-06
-2.27823e-06
4.1138e-05
-4.0537e-05
0.000130032
9.82521e-05
-4.91135e-05
1.21309e-05
-0.000198571
-0.000252506
-3.55719e-05
2.70518e-05
8.57372e-05
0.00013431
-0.000119308
-0.000205602
0.000159784
1.7373e-05
2.84061e-05
-0.000385969
0.000357563
3.29852e-05
-9.90759e-06
-0.000117746
3.15854e-05
-0.000210169
1.66981e-05
4.87516e-05
-0.000105582
9.34025e-05
-3.65718e-05
2.60666e-06
-2.3095e-06
3.61894e-05
-0.000232755
0.000180562
0.00013828
-0.00013377
-4.24438e-05
0.000233914
0.000244307
0.000146322
0.00025432
-6.69207e-05
-1.23583e-06
-5.15042e-05
4.85157e-05
4.22428e-06
-0.000149127
0.000112146
-0.000201733
-0.000228813
7.8746e-05
-5.16999e-05
0.000201767
5.0091e-05
-7.93916e-05
2.18768e-05
-3.42242e-05
-0.000330903
1.41157e-05
-4.77946e-05
-5.2094e-05
-5.04458e-05
-0.000137997
8.23306e-05
-6.42282e-05
0.000123939
3.10934e-06
-0.000118969
-0.000116392
0.000253473
-0.000160964
0.000172763
4.01612e-05
-7.01044e-05
-2.50721e-05
-8.77165e-07
-4.85614e-05
2.1572e-06
3.05258e-05
4.57853e-05
6.5315e-06
-1.04527e-05
-3.94439e-05
-0.000367718
0.000286219
-2.725e-05
5.68414e-05
-0.000212045
2.34568e-05
-3.33198e-05
-0.000148199
0.000174434
0.000293484
-2.16387e-05
-0.000110185
-0.00016166
0.000111253
-4.67136e-05
0.000332795
-0.000291635
-0.000308748
0.000131356
0.00010033
-0.000202464
1.29471e-05
2.76028e-05
-5.60481e-06
-1.5211e-05
2.07333e-05
2.74629e-05
0.000282285
1.83848e-05
-4.09747e-05
2.30401e-05
-0.00022984
-8.41583e-05
0.000172015
3.32738e-05
9.23952e-05
-0.000106047
-1.56602e-05
5.07803e-05
-5.11468e-05
-5.57134e-05
2.9785e-06
0.000250789
-5.52296e-05
-0.00019556
-7.98733e-05
-0.00012873
0.000118958
-3.59336e-06
-5.86081e-05
1.06973e-05
-9.43613e-05
0.000201456
-0.000111115
7.66018e-05
-5.95137e-08
-3.44995e-05
-5.23299e-05
3.71976e-06
0.000158465
0.000131847
-0.000253625
-4.10549e-05
-0.000274347
8.44466e-05
-4.75958e-05
1.05731e-05
5.11383e-05
9.25348e-06
-4.75349e-05
-0.000135362
9.66643e-05
-8.5308e-05
2.68295e-05
-0.00015584
-6.85705e-05
-5.49163e-05
-5.13752e-05
1.96652e-06
1.03373e-05
0.000164727
-4.12232e-05
-4.62324e-07
0.000149532
-0.000202617
-0.000152167
3.18947e-05
-6.75339e-06
-0.000241307
-2.1941e-05
6.19297e-05
-6.10692e-05
-4.84562e-05
-0.000205462
0.000204969
0.000149134
0.000252439
9.22375e-05
-9.6307e-05
-0.000248369
-5.14946e-05
9.44874e-07
1.45092e-06
-2.91571e-05
2.76467e-05
0.0002456
-0.000141254
-9.3989e-05
-0.000163574
0.000212525
2.41868e-05
0.000134817
0.000342725
-0.000355374
0.000230146
6.88826e-05
-0.000115511
-1.71151e-05
-5.2253e-05
4.20053e-07
5.13623e-05
2.11405e-05
-9.69622e-06
1.82233e-05
8.15777e-05
-0.00021317
2.56962e-05
-0.00013518
0.000320247
8.54867e-05
0.000140507
8.87779e-05
0.000244496
-0.000268959
-6.43159e-05
-5.45785e-05
0.000113861
1.02086e-06
-6.03032e-05
0.000228503
-5.63573e-05
-8.09881e-05
-5.34711e-05
1.72173e-07
-1.97268e-05
7.92916e-05
-0.000105778
4.62129e-05
2.61683e-06
-9.05789e-05
-4.78118e-06
9.27432e-05
-9.57563e-05
6.52128e-05
-1.88204e-05
-1.51338e-05
-0.000212876
0.000236392
-4.76904e-06
-7.12268e-05
1.73877e-05
0.000116626
2.05073e-05
9.19396e-05
-0.000101085
6.32334e-05
-9.52732e-06
-6.93663e-05
5.78043e-05
-3.43122e-05
3.16412e-05
-9.9993e-05
0.000139115
-3.67166e-05
-9.94926e-06
0.000207946
-7.66605e-06
2.71194e-06
8.26736e-05
-3.13932e-05
-5.12804e-05
0.000299615
0.000114686
-5.11926e-06
-5.47636e-05
4.78124e-08
-0.000163544
4.43163e-05
-8.39364e-05
-8.24357e-06
-0.000148582
3.36311e-05
5.60184e-05
-3.87783e-06
0.000179842
-3.77704e-05
-7.99858e-05
7.21929e-05
-4.61027e-06
-8.70304e-05
-4.21617e-05
-0.000137123
0.00014896
-9.0942e-05
2.93448e-05
-5.71254e-05
0.000130756
0.000151118
-6.6201e-05
-0.000199307
-1.49915e-05
-9.29404e-05
-0.000330746
-1.8026e-05
-5.55191e-05
3.5481e-06
2.92445e-05
-3.58466e-05
-0.000278989
-1.36673e-05
0.000270111
-3.32283e-05
5.767e-06
-3.53213e-05
0.000156194
0.000152949
-0.000142595
-6.63073e-07
5.51759e-05
-1.03927e-05
-8.62951e-05
-0.000155073
5.25763e-05
0.000120706
-1.82102e-05
4.4321e-05
-0.000111536
6.02418e-07
4.77283e-05
0.000171633
3.77646e-05
-3.32897e-05
-4.58774e-05
-0.000157857
-0.000238489
-4.58096e-05
0.00014882
-2.2627e-05
0.000152082
-8.83633e-05
9.30152e-05
-4.65195e-06
-8.57464e-05
0.000280908
-0.000197898
0.000137889
-0.000220898
9.94083e-05
-8.28771e-05
-2.8693e-06
-2.80592e-05
0.000137218
0.000247494
-2.30537e-05
-8.92847e-06
0.000108337
-4.54586e-05
-3.74186e-05
-8.49923e-05
4.73003e-05
3.7692e-05
-0.000177582
0.000103175
7.44066e-05
3.05025e-05
-5.41377e-05
-6.77402e-05
-2.63117e-05
2.77626e-05
3.67588e-05
-4.8015e-05
-3.21483e-05
4.34045e-05
8.87159e-05
-0.00021036
-3.17481e-05
1.13447e-05
2.43677e-06
7.19557e-05
-0.000166707
0.000176688
-9.98156e-06
-6.25525e-05
-9.02581e-06
0.00012994
-4.2829e-05
-0.000151339
0.000120499
-0.000294788
-2.41289e-05
0.000244372
-0.000202159
0.000122751
-0.000159955
0.000112302
0.000128891
-7.86628e-05
-1.23153e-06
7.08398e-05
0.000153104
-0.000141519
-1.15847e-05
-7.68688e-05
2.08009e-05
8.53305e-06
6.89256e-05
-0.000107204
5.83686e-05
-0.000139181
2.09634e-05
-5.97806e-05
4.44462e-05
-3.45497e-05
-0.000308945
-1.36031e-05
2.8717e-05
3.45827e-05
-1.68601e-05
-4.64395e-05
4.45635e-05
-3.71825e-05
0.000194115
-0.000201496
1.90047e-05
3.32162e-05
9.15744e-05
-6.10851e-05
7.17731e-05
-0.000106052
5.50823e-05
-9.3281e-05
-1.63798e-05
-3.64342e-05
-3.34501e-05
3.27175e-06
-7.88374e-06
-0.000217843
-3.30669e-05
0.000174519
-0.000258124
9.14793e-05
0.000157989
-6.57312e-06
-6.74203e-05
5.80879e-05
4.65435e-05
-5.03064e-05
7.98718e-06
5.86677e-05
9.19464e-05
-1.87665e-05
-7.31799e-05
7.26054e-05
-0.000194551
0.000102218
2.69957e-05
-3.20264e-05
-3.3516e-05
3.18457e-05
-8.18434e-05
-4.03814e-05
5.85657e-05
0.000112517
0.000290132
-0.000121221
3.9701e-05
-0.00013912
-1.01512e-05
5.02836e-07
2.41715e-05
-0.000133291
-0.000176386
-8.73665e-05
6.47887e-05
4.34898e-05
3.65619e-06
-2.12594e-05
1.73618e-05
0.000113625
-1.14833e-05
9.41569e-05
-0.000109928
-0.000124053
-3.82245e-05
3.81337e-06
2.96915e-05
-5.90319e-05
1.94227e-05
-1.20123e-05
-3.77508e-05
-0.000156148
0.000228164
-7.76279e-06
3.70073e-05
-5.52804e-05
-0.000129985
-0.000179242
0.000199299
-0.000123749
-2.82128e-06
-6.8441e-05
-0.000172288
1.32993e-05
3.18944e-06
0.00019
-0.000245041
-0.000249427
0.000266473
2.64937e-06
-8.34035e-05
-0.000126146
-0.000201318
0.000282223
-0.000150789
-7.92748e-05
-3.77488e-05
3.9426e-05
-3.66953e-05
-1.05354e-06
-1.3198e-05
1.83897e-05
0.000249219
-0.00025441
2.89389e-05
-4.05224e-05
4.73859e-05
-4.02475e-05
-1.49807e-06
-5.6404e-06
-9.67158e-06
4.20443e-05
-3.26959e-05
3.23182e-07
6.05033e-05
8.78859e-07
8.37394e-06
7.3567e-05
-2.0577e-05
3.43236e-05
-2.69632e-06
-4.41546e-05
5.37492e-05
-6.33287e-05
-0.000345089
-1.31562e-05
0.000346233
-4.46844e-05
0.000215902
-0.000110118
0.000170516
-7.11336e-05
-3.60258e-05
2.11856e-06
8.12932e-05
-0.000382459
0.000196513
-0.000187922
0.000188402
-9.02051e-05
-3.24309e-06
0.000163776
-8.32374e-05
-0.000134921
0.000183606
0.000221614
-0.000233895
0.000220754
0.000101918
-7.03375e-05
-0.000123161
0.000173935
-4.39827e-05
-1.73817e-07
-3.98322e-05
0.000147961
2.44001e-06
3.78513e-05
1.32296e-05
-7.72667e-05
-0.000131039
-8.43574e-06
-4.7699e-05
-3.40703e-05
0.000188873
7.69078e-05
-1.06494e-05
0.000133309
4.4419e-05
4.41208e-06
6.55508e-05
-1.76022e-05
-0.000156082
-2.72407e-05
1.10349e-05
-1.18016e-06
-8.64141e-05
0.000178816
5.43604e-05
-3.39032e-05
1.64573e-05
5.17695e-05
2.21975e-06
3.44383e-05
0.00019095
-0.000225106
9.50906e-05
-4.18305e-06
-6.39574e-05
-6.0106e-05
3.14167e-05
-5.4874e-05
7.89836e-05
0.000191334
0.000161092
0.000158551
0.000151938
0.000139698
-0.000126658
0.000147971
-1.41387e-05
-4.7912e-05
5.28061e-05
-1.36048e-05
3.8624e-05
-9.26191e-06
0.000158437
3.71142e-06
1.11316e-05
6.59926e-05
-3.80208e-06
-5.22417e-05
0.000146967
8.19917e-05
-0.000176717
-2.61592e-05
7.63132e-05
0.000106323
-5.69563e-05
1.48611e-06
2.97845e-05
6.89025e-06
0.000224827
0.000180503
-0.00011279
3.17765e-05
-2.24042e-05
-1.9825e-05
2.58555e-05
-2.46467e-05
0.000102818
1.42139e-05
-0.000186316
0.000181884
-0.00021574
-1.93369e-05
-5.63698e-05
2.35392e-05
-1.66128e-05
-0.000262782
0.000195982
-1.96147e-05
-3.68266e-05
2.06976e-06
-5.87079e-05
4.33011e-05
-4.31316e-05
0.000263346
3.70001e-05
2.91035e-05
-4.96617e-05
-2.07952e-05
-5.3135e-05
0.00013033
0.000114216
-4.45338e-05
2.41543e-05
2.03795e-05
-0.000142451
-4.80503e-05
4.22778e-05
5.77248e-06
0.000117502
-0.000381155
0.000357819
-0.000220822
0.000122321
-9.65955e-06
-8.71288e-05
4.93951e-05
-1.5002e-06
0.000257724
6.1802e-05
-0.00013688
0.000175261
-5.39158e-05
5.36055e-05
-5.37655e-05
-1.77585e-05
1.66325e-05
3.01387e-05
0.000129059
-1.50578e-05
-5.95277e-05
-0.000168472
0.000207028
-0.000131463
-5.68164e-05
-8.76892e-05
5.78389e-05
-9.29112e-07
5.55976e-05
-5.62209e-05
-7.88259e-05
8.33327e-05
-4.50679e-06
-7.06282e-05
-8.19764e-06
6.03333e-05
-4.79143e-05
-1.2419e-05
-1.02949e-05
-0.000121843
0.000146673
-2.48305e-05
-9.46034e-05
-2.72391e-05
0.000157747
0.000153795
3.95251e-06
8.43922e-05
0.000159448
-5.65319e-06
0.000177387
-1.79388e-05
8.13105e-05
3.08175e-06
7.4691e-05
6.49948e-05
-3.34073e-05
-0.000233324
5.58738e-05
9.12093e-06
7.82357e-06
-7.67056e-05
0.000141581
0.000230068
5.01222e-05
-6.14158e-05
4.20291e-05
-2.28121e-06
-3.97479e-05
0.000193923
0.000264677
0.000127695
-4.56857e-05
0.000135981
4.33291e-05
-3.13501e-05
-1.60669e-05
2.44588e-05
5.20262e-05
7.46693e-06
-0.000145153
-1.56403e-05
-5.66363e-05
5.43074e-05
-5.50643e-05
0.000136799
-0.000152742
1.59433e-05
2.28945e-05
-9.30299e-05
5.66343e-06
4.49663e-05
-4.42749e-05
-0.000195563
9.41204e-05
0.000143998
0.000129785
7.01379e-06
4.48463e-05
1.72994e-06
5.42874e-05
-1.38086e-05
0.000202375
-8.45213e-06
-7.93999e-05
-1.78665e-05
5.62917e-05
0.000277852
0.000145128
2.31465e-06
0.000148259
5.46491e-05
-9.99424e-06
0.000179617
-0.00022875
2.67553e-05
-5.83198e-05
4.35846e-05
2.65218e-05
-7.00604e-05
5.3716e-05
0.000154428
9.31701e-05
2.29956e-05
-0.000257824
0.000279977
0.000156292
0.000243861
-0.000172721
1.99784e-05
0.000202059
3.15645e-07
-0.000128286
7.65338e-06
0.00012715
-0.000116889
-0.000163731
-0.000100272
-0.000260063
-0.000188861
1.61404e-05
-0.000124947
-0.000174729
9.61918e-07
0.000291527
4.76861e-05
-1.59278e-05
0.000414146
-5.82315e-05
-1.93879e-05
-0.000155856
-1.50111e-05
-0.000126601
0.000130312
-3.07377e-05
0.000157887
0.000114422