/*--------------------------------*- C++ -*----------------------------------*\
| =========                 |                                                 |
| \\      /  F ield         | OpenFOAM: The Open Source CFD Toolbox           |
|  \\    /   O peration     | Version:  v1912                                 |
|   \\  /    A nd           | Website:  www.openfoam.com                      |
|    \\/     M anipulation  |                                                 |
\*---------------------------------------------------------------------------*/
FoamFile
{
    version     2.0;
    format      ascii;
    class       volScalarField;
    location    "0.9";
    object      k;
}
// * * * * * * * * * * * * * * * * * * * * * * * * * * * * * * * * * * * * * //

dimensions      [0 2 -2 0 0 0 0];


internalField   nonuniform List<scalar> 
5794
(
0.0446338
0.0515644
0.448421
2.50541
2.79554
0.109705
0.356115
0.133911
1.53745
0.0435567
0.909108
0.269029
0.378322
1.83274
0.0865701
0.158107
6.46844
2.01773
0.0723347
0.0302863
1.01058
0.073807
0.718625
0.113261
0.432649
2.12086
6.45486
2.39051
2.04927
0.0684076
0.293754
0.52549
0.76056
0.0819963
0.157582
0.245723
0.196664
0.691959
0.940246
2.83209
1.32846
0.449162
0.27792
0.421214
0.0826123
1.10219
0.698488
0.347458
0.0358642
0.100702
0.223284
1.40696
0.0723198
0.0737989
0.0100606
1.05132
0.63311
0.504152
0.217967
3.52386
0.935636
0.0367998
0.251268
0.891027
1.28302
0.054063
1.76015
0.460643
1.86742
0.0292262
2.35747
1.78764
7.42121
0.146956
1.91811
1.53916
0.0908502
1.62151
0.37448
0.0945135
0.0524153
0.0252008
1.01605
0.70179
0.483678
0.835706
0.524928
1.06801
0.17271
1.06974
2.48459
0.761427
1.58509
2.58274
1.0288
2.42726
1.9066
1.38638
0.704263
1.02241
0.897949
0.315232
0.248561
2.43138
0.578788
3.51568
0.0316974
0.641784
1.58157
0.329381
0.069459
0.0484943
0.916325
0.103271
0.873953
1.96958
0.0841985
2.39426
0.857501
0.497848
2.86634
0.0379289
0.227035
2.02372
0.0651202
1.42242
1.55397
0.137744
1.62684
0.693032
0.285883
0.432011
0.964391
1.43109
3.42778
0.0909496
2.01204
0.0389994
0.371128
0.0618116
0.117348
2.21166
0.0761922
2.38253
0.409374
6.58991
1.11343
0.905518
2.09908
1.39088
0.314406
0.0547453
3.50672
0.227622
6.91409
0.892995
0.773507
0.485191
1.38992
0.526131
0.0357664
0.110652
0.045064
0.163839
1.14485
1.24093
0.186721
0.106695
0.0468235
0.0275352
0.0398963
0.818423
0.123039
0.0906528
0.0560121
0.551353
0.0341476
0.313093
0.0681661
1.29735
0.141908
0.510314
0.15189
0.911237
0.181782
3.61822
0.350554
0.451699
0.0258089
0.246534
0.923711
0.476218
0.729588
0.198478
0.384777
0.246568
0.194071
0.0826466
0.0436764
0.27619
0.410551
1.22616
0.263114
0.245574
0.722581
1.11803
0.179283
1.10799
4.94164
1.00465
0.282401
0.312802
0.299216
0.162181
0.0942789
0.294558
0.464747
1.18276
1.0794
2.18585
0.305852
0.897975
3.83334
1.53258
1.96528
3.55658
0.234953
0.0590578
0.0343141
0.0937331
0.118317
0.0937778
0.0640067
1.15885
0.928021
4.84423
5.80108
0.872923
0.340128
0.0714415
0.0285167
2.1926
0.978547
0.793418
0.305578
0.143368
0.0813709
1.84532
1.3704
0.945734
0.533928
0.0587561
6.61758
0.0328728
0.211344
5.63139
0.264405
0.427249
0.793125
0.0611792
1.49209
0.293626
0.162033
0.0481872
0.518534
0.450734
1.88295
1.70429
0.0505797
1.37134
0.898248
0.29666
0.753136
2.05372
0.397466
0.0788278
0.0709188
0.117474
0.0308917
0.378783
0.169651
1.71817
1.14046
0.352429
2.0575
2.39101
1.05784
1.30868
2.9387
2.92821
0.185315
0.116909
0.0843584
0.0648063
0.203517
1.99197
0.87894
0.270994
1.30262
0.0648086
0.0248857
0.772848
0.0583947
1.23174
0.195027
1.60431
0.0292356
1.54865
1.349
0.892852
0.397946
1.16176
1.11272
0.106009
0.29241
0.593938
0.828422
2.7018
1.53904
2.41885
0.34708
0.269565
2.18005
2.63709
0.196664
0.630349
0.149512
0.257342
0.385233
0.841125
1.20166
0.280634
0.222853
0.61246
0.436945
0.0320594
0.0360643
0.04239
0.0241266
0.335403
0.0896669
0.366973
1.41748
0.623873
0.0408494
0.136814
1.2019
0.600174
1.42865
0.854441
1.15399
3.29862
0.773953
0.473935
0.17124
2.74043
0.0494546
1.28189
0.373349
0.148573
0.980337
0.639313
1.79111
0.423496
0.178406
0.313786
1.12518
0.983632
0.613626
0.412399
0.0757118
0.0425426
0.329294
0.31106
1.24357
1.29602
0.876364
0.573149
0.713169
0.0287413
0.263024
0.0738909
0.322934
0.216291
0.136585
0.0773295
2.62871
0.348596
0.145584
0.213255
0.102329
1.08864
0.0264693
0.221959
0.0950527
0.0739931
0.0486229
0.134573
0.0713987
0.643757
0.0977987
0.343689
5.21631
0.0723395
0.0575868
1.11761
0.415766
0.111411
0.0419236
1.90688
1.38305
0.681522
1.2609
0.610005
1.20614
0.791176
0.174701
2.00897
1.08641
1.77697
0.686028
1.31242
0.919907
0.0785695
0.157508
0.108662
0.0580057
0.0972808
0.032562
0.0557679
1.40882
0.224153
2.14846
1.35034
0.0740328
0.0681935
0.293206
0.531774
0.176913
0.115942
0.0720227
0.26956
0.232139
0.178555
0.120667
2.19523
0.93889
0.305027
0.0481833
1.29909
0.0413792
0.0380857
1.39683
0.0688737
1.9626
0.040632
1.94748
2.49523
1.27686
3.63142
0.0802096
0.0569759
0.366356
0.181206
1.12105
0.695785
4.34743
3.96739
1.01624
0.302031
0.0255819
5.65545
1.57553
0.0468136
0.0616529
1.81966
6.64367
2.71022
0.213586
0.0515826
0.656555
0.0778572
0.0477884
0.0395331
0.921609
1.12554
0.311823
0.132992
2.80293
0.0583467
0.0385166
2.25233
2.06997
2.36283
0.391626
0.0671943
0.0661963
0.0784104
0.209864
1.00506
4.49939
6.48736
0.26537
0.435767
2.45342
0.0591766
0.0865164
0.621029
1.45012
0.0636652
2.39291
0.0291012
0.338671
0.0413502
0.102951
0.798803
1.77329
0.0401636
0.222807
5.26104
0.12691
0.0474602
3.39695
2.47317
0.761403
0.0671752
0.294269
1.04605
0.0444751
0.0877557
0.522757
0.0451147
4.19972
0.0781351
0.126482
0.093554
0.240232
2.3034
0.672717
1.22888
0.0651078
1.57397
0.0273759
1.67697
0.205183
0.180246
0.214827
2.38769
0.0871229
0.116525
2.53324
0.0362109
0.0411189
0.216771
0.135633
0.107095
0.495919
0.0889304
0.0440611
1.97681
9.87939
0.0485151
1.45544
0.054034
1.66725
0.137019
0.108185
1.13641
0.0684967
0.0626939
1.23703
0.915084
1.45363
1.19623
1.5198
0.292026
4.07945
1.74727
0.368401
1.10904
2.10509
0.871243
3.01464
4.07951
1.7206
0.917172
0.0874899
1.74176
0.751829
2.20565
0.065404
0.131585
0.0438966
2.35189
0.929155
1.17591
0.0247281
0.293619
0.0358959
0.102767
0.0426581
1.37879
0.951506
2.53496
0.0502334
0.511475
2.37003
0.0330782
0.0115281
0.790038
4.4096
5.62084
2.20159
0.155524
0.129508
0.170517
0.916727
0.589312
0.268878
1.26275
0.0274755
1.24249
1.66191
0.894008
0.0303255
0.0843168
0.325053
2.34748
2.24991
0.0819405
0.0568126
0.0299231
0.0219233
0.144052
0.0446385
0.0478363
1.7792
0.487399
0.0479704
2.53615
0.230406
0.287238
1.11644
0.805915
1.9934
2.77555
1.08957
0.737395
0.0715879
0.0398414
0.0980294
0.250264
0.0780759
0.139017
0.12441
1.60743
5.87967
1.11316
2.09908
0.389693
0.0364769
0.0445643
0.07553
0.880057
0.0467581
1.26672
3.03314
2.48152
1.07877
1.21424
0.894042
0.158053
5.12443
0.767954
0.639946
1.03196
2.73838
0.214773
2.24934
0.137145
0.0549129
1.17925
0.0805379
0.225003
2.00963
2.06916
2.26486
0.0779804
0.0345009
0.0423052
1.73528
3.96447
1.62445
1.24015
0.0646206
0.952914
1.11138
0.032336
0.091222
0.289941
0.0271639
0.282834
0.0439116
0.446912
1.92828
2.40794
1.39631
0.0428623
0.0810352
2.94845
0.513531
4.01195
1.35095
1.59106
1.41674
0.373822
0.267163
6.97118
1.26507
1.4252
1.9152
2.11701
2.33758
0.0977334
5.06335
0.200317
0.364603
0.50697
2.89642
0.639437
1.16058
1.13043
3.02435
0.827873
0.0648008
0.188966
4.72264
0.754913
0.744436
1.52239
2.22764
0.032468
0.0536253
0.0250635
0.126987
2.17202
1.04084
2.58321
0.124352
0.283216
0.106579
0.201414
0.0828551
0.0407834
0.905622
2.3352
0.20691
2.75792
1.07363
0.259838
0.14121
6.75424
2.08359
1.21642
3.09066
2.5582
1.11117
1.44578
0.359461
1.60029
0.724662
2.09352
1.75255
0.0758011
0.177122
0.0581925
0.054141
0.232734
2.70272
0.115549
1.27791
6.34725
0.375555
0.0917388
0.0543241
2.17029
0.959262
1.27063
2.2577
0.912415
0.404242
2.27825
2.12697
1.22549
0.185735
1.05243
0.0391443
2.03734
0.0621064
1.77122
0.303759
0.902693
0.180833
0.115665
0.0880754
0.0581231
1.24678
1.63109
1.67124
4.27665
1.31244
0.117349
0.274918
0.636473
3.88461
0.0996377
0.497848
0.697678
2.54912
0.0447819
0.0914592
0.509281
0.866042
5.22672
0.0858756
0.386008
0.0484368
0.0473987
0.0629112
0.779767
1.87763
2.0993
0.282824
0.0773035
2.58565
0.0502264
0.363302
7.77837
0.0460441
0.0167868
0.124452
0.0351898
1.02508
0.416258
0.498008
0.0876361
0.126776
0.218768
0.316538
6.6398
0.998309
2.6802
0.877214
1.17403
1.65775
1.12808
5.12037
1.33801
0.102545
0.0468709
0.206934
2.00286
0.252624
0.0595203
4.11436
1.47183
2.01844
0.857908
0.0766147
2.58098
0.385832
0.34854
1.33875
0.114733
3.19024
0.0423949
0.0769364
1.37721
0.390287
0.230808
0.189654
1.66476
0.676316
0.262527
0.0500131
0.0770725
0.793189
1.75752
0.297867
0.299347
1.00876
0.130175
1.15081
2.97029
1.89608
2.3688
2.2955
0.0548069
0.0355529
1.25119
0.0783217
0.0497816
0.0420294
0.141531
0.75792
0.0323289
0.25429
0.0790827
3.05983
1.30276
0.779704
0.275852
0.520197
0.993523
6.27221
0.767875
1.65026
0.234393
0.0670879
5.92318
0.372575
1.14331
0.262218
1.31175
0.803338
1.02204
0.0874929
1.6292
1.13177
0.120898
0.0693006
0.0440312
0.0637604
0.0293395
0.731417
2.67341
3.36459
1.69155
0.685282
1.27877
1.84701
0.322648
0.0443668
0.0994891
1.14636
0.0734141
5.87261
1.22474
2.04164
0.246403
2.6227
1.109
0.0444612
0.0638885
6.19034
3.47852
0.305131
0.391742
0.474013
1.5791
0.0641372
2.84383
0.0494286
0.138208
0.105551
0.0425971
0.0386461
0.0504555
0.147108
0.0648855
0.0375676
0.0617662
0.26436
2.45695
0.215865
0.0342191
0.080184
1.18224
0.299683
0.515196
0.0929796
0.62956
0.0508244
0.640866
0.200196
0.115225
0.0746307
0.48885
1.51663
0.0652349
0.304315
0.0634602
0.148802
0.291832
1.23059
0.430944
5.16671
1.85285
0.0643976
0.318543
0.531303
2.42482
0.538631
0.897107
1.13239
2.44124
0.107565
0.229984
0.074272
0.0942933
0.417171
0.395795
1.84879
1.7128
1.36117
0.0136054
0.717098
1.4775
0.878315
0.829473
0.950049
0.0308407
0.0772861
0.0473353
0.724628
0.302573
2.38131
0.200866
0.500225
0.196746
0.204865
0.287273
0.354719
0.0442609
0.0818649
1.84187
2.11713
0.757128
0.030298
0.274526
1.26555
0.0688771
0.0542325
0.0680101
0.122623
0.872041
0.0777426
1.41657
0.0363902
0.311387
1.08626
0.0501837
3.38571
0.287509
0.0494581
0.387392
2.64173
0.0529057
1.58481
0.132796
0.10487
0.0546639
0.148059
0.0279334
0.059383
0.309286
0.0608977
0.0297948
0.0678758
0.106891
0.15418
1.64311
0.545327
0.267966
2.4715
0.959868
0.0377971
0.0452568
2.83455
0.417234
1.2313
3.05507
0.0491329
0.500273
0.0463784
3.8926
0.039686
1.62791
0.0378118
4.53045
1.1345
0.0300388
0.662625
0.0473308
0.212654
0.125727
0.151377
0.620208
0.643894
0.0416212
0.676075
0.0183485
0.0349157
0.221814
0.0573103
0.0942217
1.85813
0.240429
1.14125
0.0302974
1.17392
0.0349269
0.105438
0.0517159
0.198748
2.16032
0.404938
0.215049
0.572935
0.25004
0.422532
5.39659
2.26426
0.0424443
0.346605
2.07713
0.869482
1.6105
0.239379
1.88718
2.06552
1.48671
0.49357
2.44627
0.265945
0.264628
0.0475014
0.130022
0.195938
0.0664424
10.2517
0.692499
0.0574667
0.1975
1.69308
1.64969
0.271227
0.0734513
0.29101
0.537588
0.14186
0.0610517
3.25884
0.172329
1.40204
0.48189
2.61203
0.04794
0.128069
0.122059
0.355166
0.230043
0.600906
0.0443236
0.794429
0.0720271
4.9649
0.23582
0.284643
0.191108
0.483261
0.292533
0.391763
0.333105
0.193497
0.144728
0.119303
2.10719
0.291538
0.214398
0.0308257
0.0535018
0.613281
2.02333
0.662161
0.0938938
0.315553
0.25309
0.168944
0.254948
0.239084
0.336368
0.299381
0.322821
0.554713
0.0465192
2.26169
0.042832
6.35426
0.0526573
0.0298605
0.0489837
0.0924546
0.0499814
1.29054
0.0613008
0.230275
0.130819
0.183054
0.661588
1.99245
1.09932
0.0350448
0.0539421
0.176608
0.269702
1.66975
1.1304
0.226891
0.281666
0.0242386
2.23842
0.211671
1.03218
1.57968
0.178228
0.280774
0.651956
0.0737003
0.0387287
2.09065
2.46713
0.630615
0.989948
0.494089
0.453015
0.034814
2.32383
6.63907
1.95203
1.20914
0.0581591
0.101508
1.09006
0.304607
0.217214
0.0341649
0.33753
1.18853
0.219734
0.0491911
0.482071
0.0861835
0.0489745
0.113472
0.263895
2.07818
0.0849039
0.514288
1.46289
3.46626
3.56492
0.142102
0.873365
0.197785
2.23983
0.259468
2.01202
2.61336
0.883449
1.62976
0.155945
2.43693
1.31879
5.72016
0.191245
0.0566972
0.049629
3.86528
0.188056
0.0939612
1.56793
0.746436
0.14551
1.21025
0.815468
0.247869
2.36885
0.168962
0.0295476
0.257452
0.316398
0.0520705
0.0978216
1.24812
0.293958
1.52707
1.29123
1.70393
0.0395585
3.31337
0.229342
0.996002
0.662164
0.265494
0.188295
0.0610488
2.13947
0.0735699
0.0668769
0.0383032
3.32614
0.029187
0.285212
1.70388
4.11753
0.106625
1.71529
4.69527
0.126828
0.277977
0.0235485
1.1134
0.425501
2.36312
2.52665
0.120004
0.14841
0.994864
1.36406
0.627241
1.68692
1.08122
1.38988
0.975471
1.37468
0.166098
0.0609494
1.03971
0.0749265
2.54683
0.035912
0.1022
0.0425825
0.53042
0.328773
0.120231
0.0587388
0.15133
0.221324
0.0449083
0.0666351
0.0510981
0.263643
0.359045
1.0097
0.924245
0.0916495
2.93289
1.357
2.04244
0.437065
0.0793956
0.963708
0.0626248
0.0398765
0.0237013
0.040444
10.7057
0.323282
1.16228
0.681702
1.80828
1.98982
0.565844
0.0206699
0.0227653
0.0493417
0.0445579
0.0937641
0.0871243
0.104018
0.058224
0.0967565
0.13623
0.111285
0.0572955
0.0560865
0.032844
0.0353913
0.103326
0.106528
0.0984078
0.0701461
0.0465154
0.068976
0.0270224
0.0388324
0.0120181
0.256408
0.0564774
0.0465705
0.0280571
0.127538
0.0370226
0.0643194
0.0534885
0.0353679
0.040865
0.0382182
0.023288
0.0811157
0.0303554
0.0546462
0.178601
0.0329689
0.0268077
0.0486829
0.0646752
0.356075
0.479167
5.335
0.045292
0.510185
1.07723
2.3525
2.53294
0.0477947
0.0667094
0.38835
0.0463855
0.752841
2.22502
8.62736
3.63834
2.5165
0.886151
0.0289219
0.0278221
0.124899
0.0452227
0.0544715
1.08277
0.218021
0.370305
0.104553
0.454683
1.00881
1.01824
0.144752
1.24317
0.633653
9.49866
0.0809564
0.294479
0.166889
0.335671
2.9563
0.112324
1.02289
1.82826
0.898057
1.31591
0.650868
0.632011
0.348035
0.327946
0.362151
11.7104
0.0762717
0.0794989
0.0541089
1.97275
2.58539
0.0263155
1.65818
1.97091
0.0597311
0.0868081
0.118231
0.0580541
0.0360198
0.0977424
0.119364
0.0325848
0.0352706
0.15093
0.0683757
0.0507007
0.0204387
0.0641102
0.0319344
0.0516401
0.0626075
0.0368663
0.0876096
0.0300186
0.0308462
0.0227724
0.0440926
1.24974
1.40547
0.181995
0.461354
0.42046
0.362255
1.91935
0.0491082
1.42473
2.51466
0.452393
1.14504
2.64215
0.219157
0.0240549
2.64383
0.956784
0.0581213
6.87321
2.25574
2.26907
0.0383751
2.90617
0.768423
0.0649812
2.94157
0.361504
1.54151
0.196839
0.251736
0.164387
2.05715
0.0541819
2.03293
3.39753
0.248248
3.07081
0.0564089
2.95722
0.0566201
0.143166
0.0410514
2.17903
0.051523
0.066638
0.292059
0.0651866
2.95917
0.315589
1.73037
0.373632
0.661912
0.615935
6.09808
0.0314422
0.279712
0.30272
2.53645
1.1362
0.0476846
0.0451417
1.01462
0.580396
2.79582
0.307993
0.0722628
0.30009
0.121773
0.58864
0.0601155
1.79565
0.517778
0.0152154
0.0243468
3.00504
2.62966
0.327924
0.706842
1.96144
0.274576
2.79307
3.8726
2.17952
2.7949
2.16657
0.0693851
2.06782
0.05881
0.137155
0.065395
1.91156
0.251115
0.245772
0.292001
2.81833
0.625187
0.0549925
0.0916421
0.106454
0.754267
2.01034
2.80178
4.45825
1.5171
0.618067
2.40537
0.264846
0.800301
0.770253
0.916956
1.91129
3.04529
1.18636
2.81498
1.04264
3.13859
1.30146
0.198104
1.22516
0.971511
0.476621
0.51714
0.425039
3.63273
0.701164
0.347617
1.50136
0.947073
1.31873
0.256407
0.315984
6.4298
0.642908
2.28333
0.907355
0.0860228
0.0417351
0.099576
1.50668
0.0579271
0.120264
0.14441
3.05928
3.19146
2.51255
2.17257
3.32816
2.73967
3.34914
0.0625537
3.37163
3.25035
2.91637
2.445
3.15082
2.33087
3.28058
3.15547
3.25955
0.574095
0.546398
0.375685
5.26707
0.409102
0.237409
0.158754
0.234109
0.0289596
0.0351408
0.902257
1.8953
0.616183
0.0953666
0.13472
1.93155
1.80979
1.22964
0.494912
0.191961
0.229378
0.14158
0.176546
0.672932
0.176028
1.32546
0.135546
0.727458
0.312128
0.248317
0.0805075
1.02988
0.0934135
0.283377
0.299538
0.0305732
0.879226
0.201505
0.120312
0.171906
0.120932
0.0995893
1.45411
0.102791
1.189
0.874316
0.295892
1.2313
3.5662
0.106027
1.59088
1.00403
0.835387
3.58285
0.0646738
0.0912221
3.44237
1.17745
1.8092
0.110147
0.362763
2.07812
3.60338
1.65046
0.0924319
0.0981552
0.0896049
1.05914
0.309471
7.08879
0.100293
0.405032
0.235773
0.10357
0.952453
0.0596335
0.285423
1.31102
1.45142
0.57487
6.82386
2.95133
0.0841406
3.10348
0.104072
0.256127
0.579038
0.0683051
2.04596
0.330811
6.62191
0.467175
0.222314
0.0698683
2.2284
6.38866
0.074269
1.28018
1.71075
0.800681
0.373421
0.215626
0.0728826
0.238035
2.00572
1.28552
1.78015
5.26261
5.0769
0.160019
0.696452
0.213469
1.26491
0.358422
0.0824945
0.167319
2.03927
0.0502705
0.128611
0.105603
1.32674
0.215045
0.85419
0.217825
0.306881
0.407316
0.142816
0.365399
0.684554
0.133256
0.130889
0.446418
0.59408
0.0880707
0.258627
0.158669
0.0849216
1.40835
0.272014
0.217429
0.490782
0.423191
0.0643448
0.22205
0.185233
0.36335
0.0635017
0.219616
1.22051
1.93671
0.290372
0.340774
0.14327
0.643687
0.438015
0.444985
0.127082
0.568048
0.416726
0.418873
0.083179
0.704587
0.629335
5.36264
0.341689
0.70609
0.567049
0.433736
0.45637
0.518782
0.351718
0.258275
0.572772
0.535479
0.442778
0.535557
0.583908
0.690768
0.325067
0.202663
0.364024
0.556953
0.179114
0.233328
0.653804
0.478549
0.40277
0.402934
0.323428
0.337126
0.314001
0.570648
0.245476
0.490195
0.0880422
0.131747
0.0525519
0.191151
1.19854
0.234722
1.97534
0.425468
0.203793
0.430057
0.487555
0.342725
1.32719
1.29465
0.497659
0.162349
0.522024
0.116958
0.195426
0.101211
0.317177
0.256938
0.405883
0.218617
5.55237
0.614111
0.13114
0.486474
0.510189
0.208949
0.128545
0.051622
0.0796733
1.41149
0.422724
0.146132
0.263828
0.526392
0.117
0.0484452
0.0837103
1.89599
1.10482
0.238585
1.45061
1.62311
0.355419
0.148017
0.200013
5.53871
0.32953
0.10565
0.258821
1.29903
0.318578
0.415873
0.905561
1.35063
0.415527
0.728839
0.907338
0.110336
0.0440342
0.0760087
0.679678
0.261465
0.586762
1.40792
1.51747
0.228194
5.40748
5.24755
0.123461
0.224159
0.412955
0.247123
0.805719
0.230847
0.758142
0.657891
0.497486
0.437463
0.556715
1.11566
1.18942
1.7552
0.171267
0.74078
0.348438
0.166192
0.578713
0.0652757
0.0666771
1.82504
0.655318
0.390465
1.68648
0.0932281
0.292166
0.500512
1.25674
0.649103
0.741717
0.0918883
0.0389741
0.0877374
1.37297
1.9269
0.160101
1.43818
1.35163
1.27769
1.8715
0.316846
0.198097
0.0655841
0.150254
0.25488
5.32819
0.117402
0.763602
2.20906
0.207007
0.313598
3.7816
0.0424544
0.125354
0.336937
0.537711
0.553515
0.638265
1.40146
1.88229
0.99093
1.07357
1.11761
0.0604128
0.547698
0.300166
0.0418071
0.0414873
0.0840321
0.257176
0.216757
1.12591
0.0864408
0.0389758
0.0902823
2.00362
2.21159
0.0606802
0.0277134
3.55057
2.83497
0.706722
0.0524971
1.47255
0.283555
0.32521
0.0647528
0.282673
5.17438
0.11233
0.0785489
0.0671394
3.48772
2.10427
1.15252
0.127225
3.14124
1.89795
0.862262
0.413737
0.59824
0.450062
0.325238
0.415883
0.342977
0.444282
0.403542
1.96489
1.29408
0.121421
0.0911134
0.657675
2.40276
2.68205
3.41076
2.53056
1.70855
0.407193
1.31644
0.380243
0.363704
1.46801
2.46665
3.06589
3.5035
1.16568
1.68529
0.975696
1.01032
0.660613
0.0865791
0.413003
0.0789609
0.0369956
0.0914708
0.282369
0.305008
0.260932
2.18162
2.68557
0.422328
3.16701
0.632143
0.657107
0.425994
0.167946
1.20256
0.58189
1.04388
0.465903
0.100371
0.22767
2.76328
0.608911
0.315696
0.0511675
1.56661
0.386041
0.464417
0.186848
1.55815
1.63198
0.299143
0.414755
1.2379
1.31378
0.156771
0.129232
0.0238616
0.273339
0.0854788
0.112504
2.97875
0.0955452
0.0554249
0.0923461
1.29932
0.133401
0.257102
2.5228
0.0765908
1.76598
0.387157
0.357944
0.395183
1.69792
1.7707
1.22831
0.385044
0.515101
3.43736
2.29833
0.0591412
0.231412
0.0954819
0.473028
0.959832
0.217687
0.105265
0.315329
0.236927
0.0444067
0.135814
0.496618
0.0904885
0.309559
0.578488
0.389109
0.439315
0.216952
0.539048
1.72373
0.542853
0.791938
0.565848
0.227838
0.337938
2.81518
0.407554
3.13444
0.785875
0.449906
1.01185
1.07943
3.95616
0.828565
1.46417
0.315081
2.29986
0.591649
0.651202
0.110135
0.0764714
2.29308
0.679013
0.838881
0.462505
1.13669
0.630972
0.217355
1.80199
1.43609
1.51411
1.15735
0.607598
0.507129
0.0782361
0.0403692
0.0906265
2.28815
1.57553
1.3164
0.124221
0.0542865
3.36555
0.365631
1.94428
3.41037
2.86494
3.24859
2.56436
0.0565481
0.61376
0.281636
0.535002
2.2714
2.76151
0.0926499
0.77916
0.963556
0.637893
1.70772
0.115874
1.14558
2.13063
2.74844
0.502752
0.0732486
2.25201
2.13643
0.719572
0.66447
1.76654
2.89811
0.579156
0.0799205
0.48177
1.6499
1.50021
0.0572383
0.922051
1.67897
0.609961
0.193384
0.689828
1.44469
3.44369
0.426288
0.232228
0.0447787
0.0772951
1.53576
1.62046
2.67916
2.69826
1.76885
4.42375
0.174479
0.321623
0.645152
2.63677
0.422752
1.85132
1.04069
0.0792721
0.0956163
0.224725
0.0614228
0.0821868
3.20714
3.2954
3.04694
2.1725
5.08026
1.11841
0.701566
0.538145
3.27313
5.21575
2.08691
6.96988
0.202034
0.0662213
1.71434
3.3359
1.68841
1.25338
1.12389
0.611997
0.0735739
1.08992
0.0405207
0.038162
1.88516
0.0912498
0.827247
0.0633968
2.49472
0.378311
1.15916
0.704943
0.831634
0.445338
1.46348
2.11859
1.40218
0.050692
3.94088
0.432459
0.361898
0.0636112
0.10401
0.179658
1.7707
2.7753
3.72014
0.184691
2.64522
3.93864
0.110509
1.15675
0.33674
0.384121
0.109416
0.312
3.3397
1.52596
0.387402
0.353055
3.09449
1.17435
0.447643
0.857483
0.108227
0.747822
0.22337
2.76064
0.428445
1.9216
0.073542
0.0654952
0.362966
3.59388
0.956294
2.88371
1.75629
0.157599
0.242362
1.53912
0.436742
0.0732052
3.69254
0.132782
0.0757086
1.77622
0.315943
3.33375
0.118438
2.78255
2.46976
0.0594689
0.77904
0.400129
3.01281
2.56297
0.188599
0.777502
1.27644
2.77327
0.359641
0.295852
0.275935
0.251028
0.0426669
0.084218
2.49762
1.32625
0.695325
0.291407
2.66426
0.314969
2.52519
1.70164
0.139765
0.204935
1.6249
2.88763
0.0285279
0.0166927
0.0378643
2.704
0.782822
2.9984
0.511695
0.400666
2.29265
3.24388
0.0668887
1.16083
3.12655
2.0559
0.883731
1.93582
0.142743
1.71299
1.08493
0.070145
0.0404239
0.0907272
0.783807
0.0835366
0.514679
1.36407
0.0743741
2.30524
1.05321
0.647115
0.619032
2.21617
0.368915
0.924265
0.0814821
2.12924
2.02302
2.30798
0.681456
0.0727423
0.0431093
0.0855531
1.27517
0.448393
1.10829
1.36838
0.441742
0.92202
4.6804
1.41814
3.01317
0.107349
2.54336
0.350337
0.147504
0.994738
1.3589
0.389351
0.165371
0.155181
1.05305
1.6237
0.129059
0.0695624
2.58205
3.33663
0.595468
1.02842
0.773581
4.71538
5.5267
1.74635
0.0763092
0.763176
1.1993
2.24288
1.68069
2.72431
0.205541
1.49762
0.683854
1.42969
0.543753
1.32534
0.315912
0.810534
0.0319122
1.64953
0.483649
0.0602117
0.966873
0.341935
0.65315
2.10561
0.966628
0.0344476
0.164501
2.36187
1.7542
1.50909
0.819626
0.475482
0.153753
0.0391612
0.072698
0.0639561
0.109327
1.36134
0.0890916
0.710322
3.26186
0.12842
0.0656388
0.341867
0.30765
2.69551
0.0582252
0.0485912
0.0771014
0.317735
0.880376
0.150948
0.226985
0.0283254
0.063679
0.0679094
0.0932384
0.550987
0.299738
0.229943
1.25778
0.56023
0.222886
1.7873
0.738535
1.14373
0.149423
0.156901
0.0259196
0.0467942
0.079995
2.63148
0.0761708
2.76738
1.93296
0.895115
2.28977
0.0741024
0.238423
0.155618
3.52341
0.367129
0.579976
0.065237
0.0449094
0.0845362
0.198441
0.0916383
3.17013
2.13067
0.0508445
0.526328
0.0448438
0.432139
0.306244
0.543814
0.055782
2.53271
1.49651
2.53669
2.90616
0.141313
0.159952
0.552698
3.66036
0.483504
2.30818
0.661905
1.53277
0.0868594
0.247189
0.0701698
0.634661
0.499718
0.686921
0.735816
0.0975894
0.0743015
0.540091
0.190286
0.194347
1.70087
3.24761
2.88417
0.742511
2.67928
0.474357
2.06363
0.564973
2.36221
0.323168
1.14076
0.0782847
1.73919
3.06044
3.55404
0.405967
0.0788595
0.159339
0.154033
0.0343813
0.180917
0.393325
0.209332
0.615346
2.54148
0.0616875
0.118085
2.91671
0.262057
0.621059
1.51839
2.20661
2.3901
0.306257
0.536199
0.336727
0.25682
0.332173
0.278043
0.158361
2.00513
0.0625498
0.61304
0.438558
0.068774
1.16286
0.0695921
0.0704978
0.0544592
0.0258648
0.0303642
0.123001
0.178744
0.211695
0.282755
0.0342724
0.0192369
0.0396103
3.03326
2.77859
0.35909
0.845043
0.258164
0.455761
0.588252
2.27128
1.59656
2.42645
6.28297
0.88699
1.87227
2.02842
3.60291
0.983211
0.0511215
0.0686602
0.0538201
0.0451114
0.068782
0.264337
2.18755
1.72712
0.0259004
0.119749
0.167205
1.35887
0.321139
2.0491
0.0285603
0.238165
1.41447
0.315502
0.606691
0.473665
0.0838177
0.0588674
1.32717
0.493731
3.66987
0.149415
0.448745
5.75741
0.247842
1.4581
2.74452
0.0624911
0.07461
0.373998
0.098716
0.0537783
0.214274
0.0603852
0.115787
0.184529
0.145717
0.462679
0.100712
0.269807
1.95998
2.49176
0.0466748
0.0464815
0.0707166
1.60013
0.828292
0.0781665
1.92107
2.05045
0.0724018
1.18377
1.39756
1.98477
3.49474
3.32468
1.39686
0.847355
0.0942117
1.09819
3.11881
1.78287
0.388886
0.100091
3.53397
0.0633101
3.1097
0.543496
0.0801297
0.348046
1.54988
2.75965
0.05497
0.169078
1.21472
0.222177
0.358568
0.112228
0.546012
0.255054
3.82775
0.374002
1.82411
0.0630046
0.0460415
0.0762248
0.051288
0.0275978
0.0309671
1.952
0.056909
1.92195
3.58429
0.34493
0.897396
5.86381
0.272564
0.203224
1.78492
1.0894
0.944333
6.91397
0.249022
4.009
0.0684168
0.0433478
0.079071
2.9517
0.188171
0.0612449
0.0657311
0.0398606
0.0620968
1.91846
1.80778
0.668472
0.260195
0.459181
3.29044
1.142
0.589841
0.721063
0.734181
0.362762
1.84194
2.39762
2.11484
1.57896
0.0522707
0.417768
0.0986302
1.39957
0.108251
1.56782
1.34479
0.633678
0.616777
0.260795
2.22376
0.209937
0.037761
0.0666571
0.0875062
0.0827276
0.859986
0.627354
1.47314
0.214848
0.4845
2.82142
2.93557
0.421406
2.35305
0.978142
0.0878178
0.109311
0.0532277
3.2265
0.505077
1.66157
0.551665
0.0619517
0.31946
3.26476
1.85558
0.209463
0.26872
0.970315
1.86334
0.118493
0.0418527
0.0620017
0.413622
2.40927
0.222651
1.1141
1.65268
1.58432
1.6201
0.299409
0.218094
2.0807
1.71185
1.61349
0.0566435
0.40841
0.00925724
2.9541
0.00896165
0.427534
2.36807
1.00366
0.482035
2.06885
0.0510455
0.238333
0.512517
0.0106688
0.477746
0.0458086
0.0101948
0.305707
0.586808
1.97808
2.36795
0.645616
0.15139
0.0383185
0.0456494
0.0127328
0.012362
0.0227123
0.0751155
0.470819
1.7967
0.474826
0.537454
0.358149
0.941437
1.71787
0.581945
0.214084
0.0419252
0.190017
3.99183
2.2395
1.15552
0.171061
0.0778757
2.20397
0.102017
0.355842
0.645011
0.718309
0.418111
3.20813
0.332568
0.45089
0.204807
3.4015
2.28862
0.0519064
1.25462
0.109377
0.175437
1.50802
0.191619
0.0294694
0.0283883
0.0699738
0.0901586
0.142254
4.21594
1.47397
0.249053
1.70057
1.00488
0.384935
2.32829
2.52259
0.316332
3.69661
0.0945559
0.569545
0.0395224
0.510704
1.31055
0.0237995
0.383132
2.7751
0.199605
0.517685
0.0534506
0.0908196
0.592083
1.7804
1.23996
2.54797
0.404721
2.51971
0.0752549
0.467436
2.27381
0.210916
3.62805
0.442695
1.37329
0.425425
0.221357
1.99114
0.753223
2.55312
0.0469368
0.0291899
0.0612232
1.9967
0.298013
0.190682
0.104944
0.485889
0.515702
0.0267544
0.106189
0.225452
0.931157
3.14341
0.199439
0.120785
0.350119
2.2392
0.521918
0.421136
0.121606
1.55379
0.707584
0.113844
0.836962
2.73266
0.0267365
0.795057
1.22885
2.01738
0.80708
0.857603
0.41496
0.0752089
0.0692765
0.0545583
0.0484292
0.0656191
0.204402
0.305972
2.88104
1.41954
0.976475
3.28071
1.00496
1.33362
0.165271
0.303147
1.19439
0.165704
0.74057
0.19014
1.55921
3.67091
2.26389
2.0043
1.59431
0.527268
0.911085
0.613961
0.714283
0.0167525
0.0391487
2.14813
0.499963
0.121954
1.95673
2.39686
0.0749754
1.00236
0.829149
2.92247
5.07573
2.853
0.0293839
1.55789
0.0445025
0.0547581
0.0725721
1.60898
2.61222
1.31667
0.0868512
0.450086
2.98756
0.240795
0.0261141
0.627788
2.39411
0.571006
1.62739
4.02438
1.37526
0.0800977
0.0588237
1.10364
2.08062
1.93466
1.97563
2.65527
0.202016
0.103132
3.63882
1.9921
0.0691519
0.0316261
0.0598812
0.0361256
0.139939
0.0781255
4.69848
0.95594
0.10476
1.20889
1.71402
0.196898
2.33979
1.82983
2.537
0.283717
0.5329
0.298559
1.68369
0.805786
0.596278
3.47394
2.89245
1.14782
2.13641
2.60135
2.39287
0.0912108
0.0998758
2.47779
2.55201
0.0963885
0.0544129
0.025022
0.0697755
0.595798
1.20284
2.02055
1.08494
0.0897626
2.46955
0.0386051
0.0640019
0.0783852
0.246523
0.13426
1.65523
1.77273
2.71583
0.24752
3.25986
0.0826236
0.287248
3.58531
1.71977
1.80398
1.22567
0.345546
3.57773
1.86182
0.0730299
0.219979
0.219396
0.398527
0.192154
1.34566
0.892656
0.521276
0.612092
1.85101
1.37351
0.338754
1.30559
0.062252
0.0737977
1.22972
0.444986
0.362674
8.38264
0.309659
1.9756
1.79063
0.050115
0.0519158
0.0652314
0.0523788
2.16431
1.74444
1.80333
0.171564
0.910006
0.229604
0.217395
0.642836
1.8262
0.219133
0.269322
0.21957
0.0583204
0.0616596
0.02253
0.073365
2.09029
1.8139
0.173986
0.815603
8.71327
2.82232
2.91123
1.26352
0.0872088
0.97308
0.281436
0.453247
1.34406
3.1459
0.080931
0.0874554
0.0309912
2.70614
1.39013
2.06841
0.135867
0.142913
1.24997
0.445347
0.0324121
0.0514956
0.0665491
0.125378
0.280709
2.17445
1.79236
0.234316
2.2848
1.0516
1.66424
2.08287
0.344719
2.09961
0.228104
0.825496
1.80554
2.29092
1.50821
0.0525216
0.0621091
1.48015
0.230497
0.0579954
0.117747
1.23961
0.537614
0.52732
0.0411227
0.518421
0.0432454
0.528196
0.503136
0.508779
0.509208
1.61151
2.65721
0.844598
0.136213
2.66304
0.551311
0.0889229
0.257512
0.0796678
0.370636
0.181091
0.385086
2.62561
0.0751463
0.138351
1.18256
0.199104
2.0299
0.0446773
0.0776108
4.04369
5.26107
0.0569196
0.0617156
0.0548026
0.0982976
0.174768
0.0349878
0.0718452
0.0724557
0.0825436
0.056372
0.0486224
1.26612
0.151833
0.0722915
0.574476
1.65356
0.148011
0.617236
0.0448367
0.158376
2.4935
1.90408
0.835214
0.0335286
2.51539
2.23649
2.19479
1.98697
0.421225
0.0353101
0.0278786
0.0807895
1.09927
2.89249
1.2692
0.194302
0.655836
0.260225
0.0671467
0.149477
0.422449
2.8362
0.374083
2.36791
0.0253841
0.263651
2.65628
1.03192
0.105376
0.505868
0.0592794
1.54047
1.31051
0.98449
0.0622209
0.186972
0.0625663
0.0646633
0.23436
0.322467
0.28908
2.49397
1.51963
1.81252
1.34717
0.806747
0.151967
0.534938
0.077387
2.0902
0.907013
0.758002
0.276829
3.2922
0.28112
1.15132
1.67302
0.0676649
0.0863739
0.447541
3.60554
2.95335
1.16758
2.8194
1.95063
2.77932
0.295633
0.512323
0.0268435
0.237158
0.514384
9.07859
3.30641
0.375728
2.52469
1.02941
0.180391
0.247105
0.475345
0.195907
0.0520642
0.056326
1.96181
1.66067
0.889847