/*--------------------------------*- C++ -*----------------------------------*\
| =========                 |                                                 |
| \\      /  F ield         | OpenFOAM: The Open Source CFD Toolbox           |
|  \\    /   O peration     | Version:  v1912                                 |
|   \\  /    A nd           | Website:  www.openfoam.com                      |
|    \\/     M anipulation  |                                                 |
\*---------------------------------------------------------------------------*/
FoamFile
{
    version     2.0;
    format      ascii;
    class       surfaceScalarField;
    location    "0.9";
    object      phi;
}
// * * * * * * * * * * * * * * * * * * * * * * * * * * * * * * * * * * * * * //

dimensions      [0 3 -1 0 0 0 0];
oriented        oriented;


internalField   nonuniform List<scalar> 
11117
(
9.51394e-06
-3.2687e-05
-4.55866e-07
2.36289e-05
-2.57114e-05
-4.63143e-06
1.29775e-05
1.73653e-05
-4.02299e-05
5.04241e-05
-0.000165313
0.000155119
-0.00052353
1.85667e-05
0.000206022
0.000298941
0.000166441
0.000226309
-0.000177147
-0.000215604
1.99876e-05
2.35984e-07
0.000185429
-0.000205652
-0.000525803
-6.60666e-05
0.000438939
0.00015293
-0.000175303
6.81722e-06
8.84498e-05
8.00356e-05
0.00123135
0.000234765
-0.000911305
-0.000554806
8.12325e-06
-6.44418e-06
-2.5941e-06
9.15032e-07
-0.000873199
0.000944535
0.000302223
-0.000373559
-0.000348371
-0.000211956
0.000272959
0.000287368
-0.000491005
-0.000222758
0.000302417
0.000411346
0.000786975
-0.00101629
0.000492014
-0.000262697
1.91105e-05
-2.5205e-05
2.1695e-05
-1.56005e-05
0.000100374
2.43196e-06
1.69906e-05
-0.000119797
-0.000134726
0.000213434
-1.74171e-05
-6.12912e-05
-0.000669705
0.00069541
0.000713163
-0.000738868
1.53092e-05
9.34447e-06
-5.54321e-06
-1.78283e-07
1.63501e-06
6.80382e-06
-8.26055e-06
-0.000328126
0.000184906
6.14531e-05
8.17665e-05
4.10572e-05
-1.6356e-05
-9.70689e-05
7.23676e-05
0.000456713
0.000344955
-0.000238035
-0.000563633
0.000106298
0.000107391
-6.60441e-05
-0.000147645
0.000336445
0.000215365
-0.000386237
-0.000165573
0.000939144
-0.000971101
0.00029538
-0.000263423
0.000281064
-0.000348135
0.000741521
-0.00067445
-0.000204397
0.000262617
-0.000265487
0.000207268
0.000128024
-3.91863e-05
0.000999551
-0.00108839
1.34333e-05
-1.25696e-05
1.13129e-05
-1.21765e-05
-0.000138615
6.54436e-05
0.000156512
-8.33405e-05
-0.000110643
-0.000367916
0.000345388
0.000133171
-0.000118848
-0.000448555
0.000378306
0.000189097
-1.50403e-05
5.97586e-05
-3.38108e-05
-1.09075e-05
-0.000139454
5.82119e-05
-2.17106e-05
0.000102953
-0.000145265
6.22119e-05
-2.07757e-05
0.000103829
0.000602356
-0.000824756
0.00100512
-0.000782721
0.000327244
-0.000499521
-9.77162e-05
0.000269992
0.000500554
-0.000124284
-0.000664733
0.000288464
0.000194826
0.000326799
-0.000420146
-0.000101478
0.000161069
0.000252745
-0.000295455
-0.000118359
-1.77834e-05
0.000250413
-0.000285154
5.25251e-05
0.00100533
0.000884391
-0.000888106
-0.00100162
0.000248852
1.446e-05
-2.09406e-05
-0.000242371
2.69752e-05
2.20335e-05
-3.36995e-05
-0.000935186
0.000740728
-0.000224464
0.000418922
-0.000709635
0.000541524
-0.000156784
0.000324895
0.000189693
-0.000289266
0.000181693
-8.21197e-05
-3.53783e-06
-5.63057e-06
8.20033e-06
9.68088e-07
-6.65929e-05
0.000195934
-0.000129341
2.385e-05
-9.035e-06
-1.4815e-05
-0.000333011
-0.00113224
0.000511131
0.00095412
6.94488e-06
-2.47107e-05
-3.09496e-05
4.87155e-05
4.71163e-05
-4.83897e-05
-1.10919e-06
2.38258e-06
1.09656e-05
-1.09656e-05
0.000418048
0.000176358
-0.000548609
-4.57965e-05
0.000295768
0.000135575
-0.000394275
-3.70682e-05
-0.000142121
-6.911e-05
0.000197546
1.36858e-05
0.000883165
0.00011468
-0.00136313
0.000365285
-0.000408901
0.000793448
0.000554598
0.000849017
-0.000863871
4.21616e-05
-2.73082e-05
0.000100381
-4.56787e-05
-4.93642e-05
-5.33853e-06
-0.000132903
-0.000110349
0.000104636
6.80198e-05
-4.22344e-05
-0.000136428
0.000116059
-3.86707e-05
-0.000196236
-3.18977e-05
-9.33101e-05
7.58658e-05
4.9342e-05
0.000141318
-0.000152407
6.84928e-05
-5.74039e-05
9.01609e-07
-0.000325864
0.000324962
-0.000707369
-0.000392021
0.000565151
0.00053424
1.71115e-05
4.60554e-05
-7.94525e-06
-5.52217e-05
0.000466078
-0.000136935
-0.000662153
-0.000229923
0.000204672
0.000166569
-0.000277519
-0.00124443
0.00128756
0.000234389
-9.47224e-05
0.000258335
-0.000192792
2.91788e-05
-0.000769786
-0.000607288
-0.000107394
3.48416e-05
0.000201357
-0.000128804
1.21308e-05
-1.68462e-05
4.71541e-06
-0.00094514
-0.000164996
0.000139035
0.00024861
3.68237e-05
-3.65822e-05
4.44135e-06
1.74434e-05
-2.18847e-05
-9.24543e-05
-4.30708e-05
1.11376e-05
0.000124388
-2.60513e-05
-6.86152e-06
1.71539e-06
3.11975e-05
0.000119408
-9.71042e-05
0.000127927
-0.000150231
-0.000276691
0.000253248
0.0002611
-0.000237657
-0.00022103
6.43429e-05
0.000254999
-9.83126e-05
5.66971e-05
-0.000501643
0.000444946
-1.67413e-05
-0.000551863
0.000568604
3.19289e-05
-0.000483188
0.000451259
2.44002e-05
1.50283e-05
7.8381e-05
-0.00011781
-4.6992e-05
7.39806e-05
0.00026507
-0.000292059
0.000526008
-0.000156303
7.92181e-05
-0.000448923
0.000675908
5.21118e-05
-5.1819e-05
-0.000676201
0.000720159
-4.74718e-05
5.50282e-05
-0.000727715
-0.000693675
3.87743e-05
-2.74383e-05
0.000682339
-0.000635495
5.33517e-05
-2.55681e-05
0.000607711
-2.03185e-07
0.000224515
-0.000325802
0.000101491
0.000588427
2.23877e-05
-2.25504e-05
-0.000588264
0.000685369
4.49874e-05
-3.02946e-05
-0.000700062
0.000644039
4.95989e-05
-2.71412e-05
-0.000666496
0.000819147
5.94469e-05
-2.95767e-05
0.000379656
7.6748e-05
-0.000407967
-4.84371e-05
-0.000244721
0.000179797
7.50456e-05
-1.0122e-05
0.000307667
-0.000380662
-0.00116958
0.00124258
0.000732867
0.000344782
-0.000753987
-0.000323662
-1.53845e-05
1.39939e-05
-8.37249e-06
9.76315e-06
-0.000861313
0.000252749
0.00076952
-0.000160956
1.16948e-05
-3.93178e-05
7.30129e-05
-4.53899e-05
1.70461e-05
8.90952e-07
2.55578e-05
-4.34948e-05
-0.000244906
3.46376e-06
0.000102206
0.000139236
0.000228969
-5.23497e-05
7.19913e-05
-9.63102e-05
5.99595e-05
8.90546e-05
-5.27039e-05
-3.13526e-05
6.37403e-05
9.3259e-06
-4.17137e-05
-0.000414528
0.00034457
-0.000159226
0.000229184
-2.60972e-05
2.89177e-05
6.60077e-06
-9.42132e-06
0.000100217
0.000556841
-0.000635061
-2.19968e-05
0.000123433
0.000639326
-0.000723064
-3.96958e-05
-1.89447e-05
-8.76188e-06
2.9134e-05
-1.42747e-06
-0.000540725
0.000503143
0.000894775
-0.000857194
3.5232e-05
-1.9793e-05
-0.00087931
-0.00103788
8.44656e-05
0.000958498
-5.08782e-06
0.000972589
-0.000692357
-0.000820957
5.34579e-05
-4.42271e-05
-9.2308e-06
0.000157591
-0.000119353
0.000179288
-0.000217526
-0.000160737
-0.000151054
-2.84461e-05
-2.13546e-05
1.38898e-05
3.59109e-05
-0.000353583
0.000405837
0.00062318
-0.000675434
-0.000461937
0.000689703
-0.000526782
0.000299017
1.74872e-06
-0.000158606
0.000156374
4.83535e-07
0.000556724
-0.000816264
-0.000111704
0.000371244
4.56325e-05
-5.09392e-06
4.59496e-06
-4.51336e-05
9.00144e-05
5.19685e-05
-0.000140321
-1.66207e-06
0.000180676
-3.20846e-05
-0.000183169
3.45775e-05
0.000150884
-9.15338e-05
-6.91925e-05
9.84214e-06
-0.000896903
0.000108631
-0.000156868
-0.000326049
0.000287843
-0.000681589
0.000719796
2.34652e-05
-2.24547e-05
-2.62155e-05
-0.000414893
3.74524e-05
9.17709e-06
0.000368263
3.24368e-05
8.39347e-05
-1.599e-05
-0.000115542
-3.58323e-06
0.000118455
6.70017e-07
5.68884e-05
1.7474e-06
-5.81107e-05
-5.25078e-07
-0.000193978
0.000107657
9.1304e-05
-4.98317e-06
7.43287e-05
-0.00033075
0.000363931
-0.00010751
5.57346e-05
-4.49801e-05
-1.78462e-05
7.0917e-06
0.000439495
-0.000214397
-0.000225401
3.01746e-07
-0.000108749
8.54547e-05
-3.60959e-05
5.93901e-05
4.28879e-06
0.000316516
-0.000155535
-0.00016527
0.000303689
-0.000151265
5.16682e-06
-0.000433587
0.000971286
-0.000556819
1.91202e-05
9.73407e-05
0.000176967
-0.000132674
-0.000141634
-0.000110289
0.000231285
1.22583e-05
-0.000133255
0.000927031
0.000448138
-0.000612323
-0.000762846
-1.01504e-05
9.98434e-06
-2.93112e-05
2.94772e-05
-0.000471998
-5.99723e-05
-0.000329342
0.000124661
-0.000204407
-9.00614e-05
0.000169807
-0.000435348
-0.000384859
0.000494539
0.000325668
0.000755286
-0.000167661
-0.000587625
0.000223862
0.000171791
7.42227e-05
-0.000246014
0.000953979
-0.000229915
-0.000724064
0.000106215
3.00447e-05
-1.19241e-05
-1.81206e-05
-6.55359e-05
0.000274864
-0.000209328
2.47197e-05
-3.4483e-06
-2.12714e-05
-3.09379e-05
0.000318381
-0.000287443
-0.000482698
0.000548159
-6.5461e-05
-0.000487791
0.000482901
4.89018e-06
-0.000268532
-1.14394e-05
0.000279972
-5.67416e-05
-8.29008e-05
0.000139642
-5.19936e-05
-4.43166e-05
-1.50918e-05
-1.62607e-05
-1.96098e-05
1.71732e-05
2.43663e-06
0.000211157
0.000197495
-0.000408651
0.000120597
-0.000154334
3.37368e-05
0.000104269
-0.000145837
4.15683e-05
7.16398e-05
-6.94626e-05
-2.17722e-06
-0.000484367
0.000583296
-9.89291e-05
-1.78604e-06
-4.52765e-07
2.23881e-06
-0.000368316
0.000441524
-7.32084e-05
-9.21181e-05
7.39868e-05
1.81312e-05
0.000924556
-0.00101018
8.56261e-05
-0.000115454
0.000160589
-4.5135e-05
-0.000137902
0.000213556
-7.56537e-05
0.000229124
-0.000211509
-1.76157e-05
-0.00027121
0.000315398
-4.41882e-05
-6.01237e-05
0.000129455
-6.93316e-05
-0.000168754
0.000127909
4.08448e-05
-0.000254391
9.67035e-06
-0.000230721
0.000149953
8.07676e-05
-1.11739e-05
8.03886e-06
3.13509e-06
4.72543e-05
0.000132543
-0.000211844
-0.000661355
-0.000279785
-8.8131e-05
-0.000361534
-8.70215e-05
0.00015394
-8.84964e-05
0.000289907
-0.00010923
0.000179439
-8.94244e-05
0.000213279
5.45469e-05
-0.000267826
-2.10969e-05
2.99393e-05
-8.84239e-06
-4.36984e-06
1.37143e-05
-0.00108542
0.00139309
0.000475508
-2.41677e-05
-0.00045134
-0.00094001
-0.00019223
4.29144e-05
0.000146778
-4.69408e-05
-2.04635e-05
6.74043e-05
-0.000609831
-9.98042e-05
-0.000791726
-0.00014346
1.98629e-06
-7.59898e-05
7.40035e-05
2.63135e-05
-1.57911e-05
1.73443e-05
-2.78667e-05
-0.00016021
8.11744e-05
0.000505997
-0.000426961
-0.000878862
0.000872237
0.000680637
-0.000674012
0.000151129
-3.48443e-05
-0.00019404
7.77554e-05
-0.00118474
0.00114155
-5.20823e-05
9.52704e-05
-0.000177082
0.000148962
-2.81808e-06
-0.000109742
0.000103002
-5.8795e-05
-1.72796e-05
-1.45951e-08
-6.46685e-05
8.19627e-05
0.000116237
-0.000120554
-0.000155386
0.000159703
6.5333e-05
-6.93818e-05
-0.000121868
0.000125917
-0.000189338
0.000156822
0.0001834
-0.0002053
5.06896e-05
0.000594953
-0.000440343
0.000789861
-0.00068373
-0.000184598
7.84661e-05
-0.00139886
-3.50189e-05
0.000249144
0.000221555
-0.000268717
5.26745e-05
-5.51255e-06
0.000253649
4.64099e-06
-4.4949e-05
-0.000213341
0.000704712
-0.000203551
-5.28685e-05
-0.000448293
-0.000354304
-0.000254363
4.15654e-05
0.000567102
-8.02113e-05
5.46665e-05
0.00119741
-0.00117187
0.00012196
-1.43484e-05
-0.000107611
9.80868e-06
2.29046e-05
-1.41492e-05
-1.85641e-05
3.62676e-05
1.0041e-05
-3.62592e-06
-4.26827e-05
9.47464e-06
-9.53308e-06
-3.21645e-05
3.2223e-05
-4.24333e-05
5.94691e-05
-0.000143947
0.000126911
-4.75129e-05
7.23999e-05
-0.000132359
0.000107472
-1.04804e-05
9.09635e-06
-6.24957e-05
6.38798e-05
0.000142305
-5.14114e-05
-0.000223233
0.00013234
0.000181491
-0.000199869
2.6424e-05
-8.04564e-06
2.80431e-05
2.44234e-05
-0.000997359
0.000944893
-0.000116774
4.46656e-05
-0.000745148
0.000817257
0.000866914
-0.000869535
6.87775e-05
-6.61557e-05
0.000186181
-0.000285819
-0.000149903
0.000249541
8.29014e-05
0.000149215
-0.000118177
-0.000113939
4.20385e-05
-1.70102e-05
-3.49069e-05
9.87861e-06
0.000161264
-0.000143963
-5.0276e-06
-1.22735e-05
5.45387e-05
0.000684037
-0.000379723
-0.000358853
-6.79502e-06
0.000236357
-0.0001049
0.000209571
-0.000205887
-1.04794e-05
5.55779e-06
-3.11051e-05
8.55068e-05
-2.0541e-05
3.44526e-05
-3.88158e-05
2.49042e-05
0.000147812
-0.000111148
6.0677e-05
5.33994e-05
-0.000545899
0.0004925
5.13838e-05
-0.000541766
0.000490383
3.64721e-05
-0.00048241
0.000445938
4.68894e-05
-4.75968e-05
-3.11902e-05
-0.000323038
-1.37234e-05
2.38231e-05
-3.59535e-05
2.58537e-05
-1.63392e-05
2.69189e-05
-0.000953539
0.00094296
-0.000279665
-0.00039439
0.000460138
0.000213917
0.00105435
-0.000450439
-0.000806235
0.000202326
-0.00065518
0.00116148
-0.00087017
0.000363867
1.14537e-05
-2.98528e-05
4.47126e-05
-2.73901e-05
-2.95896e-05
2.85336e-05
-0.000625983
-7.07753e-05
0.000303157
0.000393602
-1.24215e-07
-0.00018443
7.47173e-06
-9.73933e-05
-8.20347e-05
6.96855e-05
1.8686e-05
8.37941e-05
-5.33137e-05
-4.91664e-05
-0.000189693
9.45425e-05
9.51507e-05
-0.000200717
0.000198524
2.19341e-06
0.000302836
-0.000213314
-0.00019981
0.000106246
-0.000387857
0.000340717
-5.91062e-05
2.64679e-05
-2.38134e-05
-0.000589972
3.28092e-05
-5.57062e-05
0.000612869
-0.000464994
1.96829e-05
-3.45143e-05
0.000479826
-6.49172e-05
-5.874e-05
0.00013593
-1.22724e-05
-7.73207e-06
0.000237555
-0.000306343
7.65204e-05
-0.000283868
0.000464117
0.000330882
3.00924e-05
-0.00108096
0.00110741
-5.65342e-05
-4.13256e-06
2.59337e-05
-1.23265e-05
4.5378e-06
4.44664e-05
-1.88786e-06
0.000190339
-1.83791e-05
-0.00020152
2.95603e-05
-3.89947e-05
4.50206e-05
2.43001e-05
-3.0326e-05
4.00662e-05
0.000265851
-6.16627e-06
-0.000299751
-4.53663e-05
-1.53399e-05
3.96093e-05
-0.000337943
-6.32711e-05
0.000294562
0.000106652
-0.000431017
0.000266748
0.000325338
-0.00024808
0.000148526
8.17699e-05
-0.000570607
0.000332094
0.000433338
-0.000556286
1.65589e-05
0.000551061
-1.13344e-05
-0.000617327
5.08367e-07
0.00062864
-1.18217e-05
4.1901e-06
0.000631372
-0.000613114
-2.24481e-05
-3.58109e-05
0.000587075
-0.000575046
2.3782e-05
-0.00061244
0.0010486
-0.000762214
-4.80216e-05
5.74337e-05
-6.63342e-05
5.69222e-05
-2.95726e-05
4.81215e-05
-8.54272e-05
6.68783e-05
-3.28277e-05
2.17015e-05
1.13477e-05
-2.21552e-07
5.44712e-05
-4.89862e-05
1.29022e-06
-6.77523e-06
-0.000968162
0.00011592
0.000950728
-9.84854e-05
-0.000114669
0.000687961
-0.000740971
0.000167678
-8.37859e-05
-8.43112e-05
0.000480674
-0.000312577
2.97602e-05
-4.74693e-05
0.000118721
-0.000101012
-0.000139654
-7.42223e-05
0.000628611
-0.000414734
2.01489e-05
6.90719e-05
9.20385e-06
-9.84247e-05
-1.57921e-05
3.96093e-05
-4.98685e-05
-0.000570042
0.00053517
-5.9345e-05
0.00012348
-0.000156589
0.000339309
-0.000285079
3.08652e-07
0.000107037
6.16863e-05
-6.54095e-05
-0.000103314
4.03476e-05
-1.64927e-05
0.000324498
-0.000348353
-3.6409e-05
3.00655e-05
-3.26512e-05
0.000503864
-0.000324379
-0.000571507
0.000758917
-0.00039491
0.000590148
-0.000299856
1.58256e-05
9.10482e-05
2.86373e-05
2.36064e-05
7.79432e-05
-0.000130187
0.000465418
-0.000749503
-0.000594777
9.76813e-06
-2.14334e-05
-1.44319e-05
-0.000426632
0.000472128
0.00101175
-0.00105725
0.00084715
-0.000171072
-4.74326e-05
-0.000628645
3.33332e-06
8.7013e-06
5.01147e-06
-0.000375368
0.000191346
0.000446639
-0.000239692
6.51281e-05
-7.03421e-05
0.000229258
-0.000780937
0.000679703
2.06816e-06
3.9004e-05
-6.55449e-05
2.44727e-05
-2.73746e-06
0.000219808
-0.000311997
9.49264e-05
-0.000683307
0.000612704
0.000573746
0.000116877
0.000226532
2.40628e-05
-3.00693e-05
9.53959e-05
-8.93895e-05
-6.55995e-05
-0.000243093
0.000184409
4.47599e-06
-3.05408e-06
-0.00025299
0.000251568
-0.000168932
-0.000201098
0.000806366
0.000138169
-1.54544e-05
-8.00912e-05
0.000171283
-1.47713e-05
0.000147585
9.09966e-05
-3.05068e-06
5.7651e-06
4.04358e-06
-2.72739e-05
4.50104e-06
2.27003e-05
0.000127253
1.41798e-05
-3.18707e-05
0.000221164
-2.76532e-05
-5.91859e-06
6.1847e-06
0.00022294
-4.03996e-05
-0.00023081
-5.55992e-05
-8.23033e-05
-0.000516888
2.90965e-05
-7.00233e-05
-0.000429497
-7.96174e-05
-0.000585116
0.000146658
-0.000142369
-4.61357e-05
-6.62289e-05
-5.75688e-05
-6.54575e-05
0.000193367
-2.22266e-05
1.78568e-05
0.000368121
0.000585999
-5.02952e-05
3.79765e-05
-8.70229e-06
-1.91938e-05
1.21049e-05
-6.53125e-05
-0.000198305
0.000165901
0.000517813
-0.000544673
2.48235e-05
2.03575e-06
3.40564e-05
-0.000342454
0.000242331
0.000110945
-0.000231443
0.000127315
-2.54143e-05
3.75959e-05
4.37648e-06
-1.65581e-05
0.000273952
0.000466776
0.00021125
0.000330274
-4.96305e-05
-0.000239635
-3.79328e-05
4.28178e-05
1.07674e-05
-1.56524e-05
-9.65805e-05
9.99433e-06
9.13903e-05
-4.80404e-06
-5.74736e-05
-2.76256e-05
5.96848e-05
-8.62747e-05
5.82879e-06
5.25134e-05
2.79325e-05
-7.50915e-06
-8.1892e-05
2.90603e-05
6.03409e-05
0.00042752
-0.000119053
0.000136445
-0.000420979
0.000702583
6.24183e-05
-0.000293205
0.000526555
-0.000145893
0.000225949
-0.000222178
1.59271e-06
7.42245e-06
-8.33954e-06
-6.75619e-07
1.10171e-05
5.34476e-05
-3.56672e-05
-2.87975e-05
1.18577e-05
-3.19953e-05
-1.77952e-05
-0.000624354
0.00102931
-0.000734443
0.000329483
3.60598e-05
-0.000141172
-4.01527e-05
4.13082e-05
-0.000128306
-5.24569e-05
2.93457e-05
1.15069e-06
-4.55368e-05
-0.00105414
0.000942244
7.27125e-05
2.21151e-05
4.52847e-05
-4.93891e-05
-1.80107e-05
-9.28936e-05
7.52158e-05
-4.95377e-05
6.72155e-05
6.19093e-07
-0.000269151
-5.33514e-05
-3.39018e-06
0.000378826
-0.000152579
8.49342e-06
-8.34611e-06
5.92073e-05
-5.93547e-05
3.72471e-05
-3.86983e-05
-4.36543e-06
5.81665e-06
7.81634e-05
5.67557e-05
6.11594e-05
7.74388e-05
-1.40054e-05
-7.13626e-05
7.9293e-06
4.26044e-05
-1.66952e-05
-3.78332e-05
0.000382634
0.000104291
0.000299732
0.00115458
0.000119529
-0.00111685
-0.000157256
9.46124e-05
4.34605e-06
5.93943e-05
-0.000677866
0.000175607
0.00060402
-0.000101761
-9.76508e-05
-1.58636e-06
-4.5435e-06
0.000103781
-6.76898e-05
0.000238019
-0.000130939
-3.93902e-05
1.35391e-05
-5.75993e-05
3.34008e-05
1.06594e-05
-0.000212577
0.000715611
4.52964e-05
-0.00054833
-0.000316403
0.000891625
6.27132e-05
-0.000637935
0.000638137
3.07834e-05
7.73531e-05
-0.000746274
-6.11447e-05
6.64349e-06
8.29208e-05
-2.84196e-05
6.52028e-05
0.000145954
-0.000183276
0.000382928
0.000365499
0.000492648
0.00011116
0.000530666
0.000111837
0.000568674
0.000128778
0.000607974
-7.88761e-06
-4.89154e-06
4.48694e-06
8.29221e-06
4.77283e-05
5.22946e-06
-1.01399e-05
-0.000232606
0.000268666
-0.000222535
0.000263843
-3.36835e-05
6.30292e-05
3.0203e-05
1.24264e-06
-2.52794e-06
5.44721e-07
-1.13297e-05
1.27785e-05
-1.99349e-06
1.24496e-05
7.34974e-05
-8.93906e-05
3.44356e-06
2.05761e-05
0.00063873
-0.000424541
0.00096718
6.26562e-05
-0.00101507
-1.47622e-05
-0.0002589
0.000262572
0.000299163
0.000136509
-0.000264989
-6.9519e-05
0.000197998
2.01485e-05
-6.07561e-06
1.25212e-05
-2.53903e-05
0.000108201
0.000176922
-5.53969e-05
-7.59766e-05
-3.59811e-05
-0.000953437
0.000925808
-0.000399004
-9.22083e-05
-6.34856e-05
3.0923e-05
0.000212562
-1.85044e-05
-0.00022498
-8.07472e-05
0.000716382
1.91181e-05
-0.000654752
-8.15194e-05
0.000627713
2.08478e-05
-0.000567042
3.7432e-05
-4.39557e-05
0.000125403
-0.00011888
-4.75079e-05
4.03997e-05
-2.51825e-05
3.22906e-05
5.172e-05
-0.000141862
0.000190408
-0.000100266
-1.66899e-05
2.2455e-05
1.06277e-05
-1.79266e-06
-7.43702e-06
-1.39807e-06
-0.000277018
-6.4082e-05
0.000202017
0.000139083
0.000122849
-0.00012454
2.96343e-05
-2.79436e-05
0.000661125
2.0517e-05
-1.60424e-05
-0.0006656
1.09153e-06
8.06467e-05
-6.30523e-05
0.000513206
-2.62165e-05
3.18354e-05
-0.000518825
0.000222493
-0.000131865
-0.000144942
5.43147e-05
-0.000557057
-1.24062e-05
-6.66021e-05
0.000636065
-0.00055563
-9.09842e-05
1.48334e-05
0.000631781
0.000182951
-1.45525e-06
-0.000192064
1.05682e-05
4.71964e-06
-2.42645e-05
9.18526e-06
1.03596e-05
-6.89604e-05
-3.70094e-05
5.89046e-05
4.70653e-05
-6.57776e-05
6.57798e-05
-3.11074e-05
0.000778655
7.86908e-05
-3.81987e-05
5.09883e-05
4.27011e-06
-9.62584e-06
-0.00116175
-0.0001226
0.00112346
0.000160887
0.000460896
0.000327689
-0.00028507
-0.000503515
8.44249e-05
-4.39675e-05
-3.35355e-05
-6.92189e-06
-0.000109451
0.000124911
-0.00018059
0.00016513
5.89168e-05
-5.78252e-05
-0.000153615
8.14005e-05
-0.000602433
0.000674648
0.000134186
-0.000113001
3.05763e-05
-5.17608e-05
-6.12487e-05
5.69584e-05
2.18379e-05
-1.75476e-05
3.34241e-06
-3.00189e-05
3.94841e-05
-1.28075e-05
0.000179026
-0.000143643
-6.74496e-06
0.00102753
-0.000892859
0.000204304
-0.000338975
-0.000308605
-0.000225278
0.000268396
0.000133454
0.000125632
-0.000118177
-0.00014091
1.99292e-05
7.93565e-06
-2.31452e-05
-0.000212609
0.000187026
-4.33777e-05
0.000162919
-2.15165e-05
4.15491e-05
7.2545e-05
-7.05504e-05
-2.89007e-05
2.69061e-05
1.76838e-05
-6.44319e-05
5.91625e-05
-1.24144e-05
2.37293e-06
-6.54876e-06
0.000228465
-0.000422054
0.000495812
0.00112882
-1.7329e-05
3.00602e-05
-4.661e-06
1.35158e-05
-0.00018115
0.000172296
-6.02613e-05
0.000206919
-7.89243e-05
0.000137949
-0.00011837
-1.07974e-05
1.61376e-05
-2.11324e-05
-0.00084194
0.000363241
-4.48303e-05
-0.000957199
-0.000568049
0.00018939
7.52982e-05
-8.46587e-06
-8.66312e-05
-2.55375e-06
4.12165e-05
-2.86447e-05
-2.33419e-05
-2.53937e-05
2.91258e-05
7.14716e-06
-2.14503e-05
2.61609e-05
-7.92156e-06
1.64968e-05
0.000131598
-0.000140173
-0.000810227
-9.16943e-05
0.000224055
0.000385795
-0.000363479
-0.000168565
0.000146249
-0.000127659
-0.000916876
5.59734e-05
0.000988562
-6.66168e-05
-0.00100285
0.00103101
3.8459e-05
6.568e-05
-8.0602e-05
-5.06776e-05
-0.000278551
-0.000317095
0.000336747
2.81357e-05
-1.65386e-05
-2.85193e-05
1.69222e-05
-0.000154293
-4.74019e-05
0.000165729
3.5966e-05
-0.000804194
-0.000284572
-0.000176314
-4.35625e-05
-2.09198e-05
0.000240797
7.27789e-05
-1.46344e-05
-7.19612e-05
1.38167e-05
0.000235638
-7.65841e-05
2.44814e-05
-3.37222e-05
-2.71682e-05
4.48949e-05
1.19955e-05
-4.58733e-05
0.000100688
-9.0641e-05
-2.25252e-05
1.2478e-05
9.51372e-06
-8.07213e-06
1.51711e-05
-1.66127e-05
4.06398e-05
0.00065238
-2.78033e-05
-0.000665217
9.14449e-05
0.000677796
-5.42512e-05
-0.000714989
3.14309e-05
5.69112e-05
1.23462e-05
3.03965e-05
-0.00108607
0.00108621
-3.05333e-05
0.000255918
-0.00144758
3.13552e-05
0.00116031
-0.000164832
-9.7981e-05
7.83499e-05
0.000184463
4.76392e-05
3.5949e-05
-4.53745e-05
-3.82137e-05
0.000330356
-0.000310093
0.000206046
0.000741783
-0.000603197
-0.000751027
2.98001e-06
1.72686e-05
6.41543e-06
-2.6664e-05
6.1135e-05
-4.83533e-05
-6.17816e-05
4.89999e-05
-6.72254e-05
2.42414e-05
0.000138755
-9.57713e-05
-0.000734678
0.000233996
0.000478343
2.2339e-05
1.81922e-05
3.49761e-06
-9.50474e-06
-1.2185e-05
-0.000173051
-3.52881e-06
-1.77988e-05
0.000194378
0.00020875
2.18029e-05
8.15045e-06
-0.000238703
-5.66547e-06
7.53041e-05
-6.96387e-05
0.00030445
-0.00121028
-9.13723e-06
1.07545e-05
-6.07277e-07
-1.01e-06
-2.04511e-06
-4.60042e-05
-9.42431e-06
5.72787e-05
-8.83135e-05
-5.03793e-05
8.14141e-05
0.00103973
-0.00146379
0.000183927
0.000240131
0.000470249
8.79322e-06
1.26781e-05
-0.00049172
-6.05274e-06
-3.17199e-06
6.0213e-05
8.79184e-05
8.70904e-05
-0.000950847
0.000775838
2.04875e-05
4.91332e-05
-7.51024e-05
5.48178e-06
-3.8141e-06
0.000170785
-0.0002183
5.13285e-05
2.71212e-06
-9.4853e-06
1.20945e-05
-5.32128e-06
0.000992221
-0.000667183
8.38959e-06
-0.000166993
0.00016308
1.91746e-05
7.88474e-05
-7.39592e-05
0.000844392
-0.0005785
4.97254e-05
-0.000315617
0.000104983
0.000391833
-5.73206e-05
5.29938e-05
-4.88912e-05
-2.63861e-05
0.000206431
1.26356e-05
-0.00019268
0.000577913
-0.000129223
-0.000428118
-2.05709e-05
2.44294e-06
-3.33766e-06
-7.63035e-06
8.52506e-06
-5.99598e-06
-0.000202993
0.000135936
0.000174094
6.48807e-05
-0.000103646
-9.33375e-05
0.000132103
5.95048e-06
5.911e-05
1.53177e-06
-1.62314e-06
0.000208841
1.31237e-05
-1.16772e-05
-0.000174497
-1.00338e-05
4.29084e-06
2.39351e-05
0.000212717
-0.000231927
7.99544e-05
-6.07445e-05
0.0011491
-0.00112402
-0.000302609
-9.90858e-06
-0.000622567
0.000190398
0.000538415
4.18507e-05
-4.51811e-05
-6.81997e-06
0.000558589
-6.72211e-05
0.000500854
-0.000155787
-6.13102e-05
0.000122375
-1.05586e-05
4.24085e-05
6.78634e-05
-9.97134e-05
3.34805e-05
-8.34877e-06
-4.31944e-05
1.80627e-05
-8.9162e-05
6.2776e-05
2.36074e-05
-7.33452e-05
6.74669e-05
-1.77291e-05
0.000724035
9.99505e-05
-4.53306e-05
0.000173449
0.00016635
-0.000271357
0.000235546
-0.000462992
0.000467182
-0.00035922
0.000244551
-0.00113761
0.00113973
9.60804e-05
-9.82025e-05
0.000218151
0.000573101
-0.000304894
-0.000405367
-2.61652e-05
-0.000192154
-0.000221611
-0.000293192
0.00049948
-0.000747919
-0.000156139
0.000404578
-0.000817667
0.000367941
-0.000112392
0.000562118
-3.81287e-05
0.000116231
-0.000348708
0.000270606
-2.23648e-05
-5.5231e-05
-0.00106314
0.00114073
8.46239e-05
-0.000379019
0.000769157
0.000179742
-0.000820413
-0.000128486
-5.38471e-06
6.1432e-06
2.94445e-05
0.000731242
-0.000677162
7.46982e-05
0.000649437
-0.000704373
0.000166773
0.000550882
-0.000512319
7.25974e-05
-2.72731e-06
7.38503e-05
1.65592e-06
0.000121835
3.98141e-05
-9.67687e-05
4.89257e-05
-7.6575e-05
6.64588e-05
-3.88095e-05
0.000641668
-0.000542019
-6.44164e-05
-3.52319e-05
0.000683022
-0.000580565
-1.93232e-05
-8.31332e-05
0.000102444
0.00154388
-0.00121145
-0.000434873
6.36709e-06
-2.19577e-06
-1.44898e-05
1.03185e-05
-0.000992877
-0.00063735
0.00105484
0.000575389
-1.26426e-05
1.76423e-05
-1.80256e-06
-3.19712e-06
2.03301e-05
-3.12731e-05
-2.96412e-05
4.05842e-05
2.30645e-05
-5.29916e-05
-5.66097e-05
8.65368e-05
0.000117851
-4.44259e-05
0.00065061
0.000590444
-0.00083208
0.000341853
0.00059562
-0.000822365
0.000350179
1.79584e-05
8.59846e-05
-6.77734e-06
1.32279e-05
3.74651e-05
-4.39156e-05
0.000613656
-6.99823e-05
0.000144288
-2.4006e-06
1.9241e-05
-8.27533e-06
-0.000121377
-0.000161848
5.15544e-05
0.00023167
0.000171699
0.000797524
-0.000641533
-0.000297701
-0.000348045
0.000366081
0.000676024
-0.000637209
-0.000167196
0.000128382
-4.23084e-05
4.14403e-06
3.6578e-05
0.000115119
-1.54177e-05
6.08881e-05
0.000117976
-3.28741e-05
4.43536e-05
-3.74874e-05
9.4174e-05
0.000530922
-0.000640479
0.000109556
-0.000403034
0.00028848
-0.00127195
0.00138651
-0.000193728
0.000158414
0.000294227
-0.000258912
7.09359e-05
3.19482e-05
-5.34828e-05
-4.94014e-05
-0.000440769
-3.07088e-05
0.000604079
-0.000132601
0.000222136
-0.000186714
-0.000389005
-7.25026e-06
-1.70605e-06
2.54021e-07
9.21574e-05
-7.65643e-05
5.53428e-05
-7.22507e-05
7.94022e-05
5.39835e-05
-4.94227e-05
1.70192e-05
7.36791e-05
-4.12756e-05
0.000195997
-0.000207888
0.000124126
-0.000112235
4.66166e-05
2.37354e-05
9.09117e-05
-5.54374e-05
7.46871e-07
5.59332e-05
-1.84647e-05
4.36083e-05
-6.58318e-05
4.06883e-05
1.05731e-05
4.28421e-06
-6.32662e-06
-8.53069e-06
3.68937e-05
-4.9455e-06
-0.000123991
4.75868e-05
-8.84276e-05
4.68052e-05
-3.86814e-05
3.95154e-05
-1.09185e-05
7.07684e-05
1.26951e-05
-0.000659781
-0.000386144
0.000796308
0.000249617
0.000822382
-0.00104082
0.0003564
-0.000137967
8.81463e-06
2.58904e-05
-3.02946e-05
-4.41052e-06
-1.10934e-05
0.000289694
-0.000340031
6.1431e-05
-8.1331e-05
5.69755e-05
1.64933e-05
7.86219e-06
-0.00132938
0.00116765
-0.000248024
0.000409752
0.000380805
-0.000325363
-0.000130543
7.51013e-05
1.17148e-05
0.000696655
-0.000694283
-1.40875e-05
-0.000346846
1.98714e-05
0.000136167
-0.00055556
0.000534761
-0.000115368
0.00016698
-0.000646276
0.000647408
-0.000168113
-0.000102822
-0.000754109
0.00085693
-9.42874e-06
3.57386e-06
-1.30176e-05
1.88725e-05
8.54087e-07
-2.38128e-06
-1.17933e-06
2.70653e-06
0.000163422
-0.000111208
0.000126822
-0.000179037
-9.21366e-05
-0.000203155
0.000228066
-6.58641e-06
4.94106e-06
-7.49188e-06
-0.00014106
-7.1049e-06
9.75183e-05
5.06465e-05
-0.000126004
-4.80163e-07
9.60119e-05
3.04718e-05
-2.61894e-05
3.07031e-07
0.0003566
-0.000330717
0.00105698
-0.00107772
-6.45385e-05
8.52754e-05
-0.000191995
1.68341e-05
0.000127935
6.51704e-06
-0.000134452
-1.78084e-05
0.000211276
-5.64813e-06
-0.000187819
1.03476e-05
-5.59644e-05
-7.63406e-06
5.32509e-05
-1.59634e-05
2.12478e-05
-7.58348e-05
4.80286e-05
-5.37845e-05
0.000168675
-8.43651e-06
4.89463e-05
-0.000253118
-7.51054e-06
-3.1653e-06
3.0605e-05
0.000650525
4.95232e-05
-6.86758e-05
0.000600185
3.18142e-05
-4.49242e-05
-0.000547982
2.38717e-05
-3.21761e-05
-0.000545069
-3.9944e-05
-3.23137e-05
-0.000362954
-0.000189878
0.000214889
-0.000979674
-0.000170632
0.00028077
8.31807e-05
-2.75532e-06
-2.98666e-06
-0.000101152
-0.0011323
0.00115324
-5.55218e-05
4.55322e-05
-0.000179704
-9.57735e-05
-1.6845e-05
-8.80985e-05
0.000676538
-0.000194961
-0.000563096
0.000687132
-0.000180916
-0.000586963
-2.83095e-05
3.79961e-06
0.000186406
-0.000161896
-6.59426e-06
0.000676948
5.66967e-06
-0.000109171
0.000139636
-1.24861e-06
-2.92159e-05
4.1106e-05
-5.09138e-05
4.06288e-05
-3.0821e-05
3.57364e-05
-2.70417e-05
8.64966e-06
-3.83616e-06
-3.97436e-06
5.55388e-05
-1.63629e-05
-6.38522e-05
1.13988e-05
6.88163e-05
0.000254625
-1.75922e-05
3.15129e-05
-0.000268545
-0.000328816
-7.81141e-05
6.00843e-05
-0.000400145
0.000280149
0.000349254
4.63337e-06
-1.39659e-05
1.64797e-05
3.29114e-05
1.40149e-05
-1.90576e-06
3.63775e-05
-7.86757e-05
7.88845e-05
-3.65862e-05
-0.000357851
4.25006e-05
0.00033127
-1.59202e-05
0.00030402
0.000362053
-0.000586325
-7.97475e-05
0.000225715
-0.000595298
-0.000290198
0.00046334
0.000333876
-0.000648161
-0.000149055
-6.99163e-05
5.89577e-05
2.69575e-06
8.26288e-06
0.000113767
0.00016324
-0.00101169
3.57393e-05
-1.52145e-05
-2.77751e-05
-1.83563e-05
-1.95148e-05
3.03605e-05
-0.00012337
8.06491e-05
9.07491e-05
0.000898938
-2.32397e-05
-0.00076611
-0.000109588
-7.72694e-06
2.09638e-06
-9.32859e-05
-0.000192533
-4.15718e-06
7.94613e-05
-0.000103753
0.00110996
0.000155278
-7.08159e-05
0.000195618
8.79146e-05
-0.000403306
0.000325654
0.000521092
-0.00044344
0.000276313
-0.000256479
0.00044776
-0.000467595
1.063e-05
6.91618e-05
-9.31361e-06
-7.04782e-05
1.59188e-05
-1.39215e-05
-1.20612e-05
1.00638e-05
-0.000252469
4.57305e-05
4.7132e-05
0.000159606
-0.00110672
0.00110179
9.20193e-05
-0.000719009
0.000467399
-0.000651663
0.000557947
-0.000386613
-0.000179025
0.000165494
0.000110424
-3.73826e-05
0.000859883
-0.00102765
-0.000262781
0.000430552
-0.000226632
-0.000988094
0.00118947
2.52549e-05
-0.00104684
0.00107606
-0.00013037
-0.000494311
0.000438706
0.000359495
-0.00030389
-0.000268816
0.000277259
1.62629e-05
-2.4706e-05
-0.000129418
-4.10312e-05
2.64867e-05
-0.000643078
0.000747087
-0.000490153
0.000153352
-1.19184e-05
-2.52433e-05
1.48871e-05
1.66443e-05
-6.28815e-06
-0.000175275
0.00016668
-2.15996e-05
8.28003e-06
9.65003e-05
-0.00091707