/*--------------------------------*- C++ -*----------------------------------*\
| =========                 |                                                 |
| \\      /  F ield         | OpenFOAM: The Open Source CFD Toolbox           |
|  \\    /   O peration     | Version:  v1912                                 |
|   \\  /    A nd           | Website:  www.openfoam.com                      |
|    \\/     M anipulation  |                                                 |
\*---------------------------------------------------------------------------*/
FoamFile
{
    version     2.0;
    format      ascii;
    class       volScalarField;
    location    "0.25";
    object      nut;
}
// * * * * * * * * * * * * * * * * * * * * * * * * * * * * * * * * * * * * * //

dimensions      [0 2 -1 0 0 0 0];


internalField   nonuniform List<scalar> 
1466
(
0.00173169
0.00212483
0.00140356
0.00290919
0.000752806
0.00153673
0.00422249
0.00111974
0.000744754
0.0021326
0.00307379
0.00187046
0.00071754
0.00121325
0.00280129
0.00533471
0.00124109
0.000841591
0.00355855
0.00212774
0.00289227
0.00724072
0.00275819
0.00202121
0.000744755
0.002081
0.00467235
0.0022441
0.000550706
0.00349707
0.00354266
0.00414622
0.00137164
0.00404773
0.0027522
0.000538323
0.00378533
0.000812426
0.00210482
0.00147955
0.00189536
0.00204692
0.00202285
0.0015602
0.000741209
0.00103781
0.0022855
0.00050139
0.00101152
0.00087602
0.000867063
0.00167151
0.0012416
0.000755519
0.000826341
0.00101622
0.00120094
0.00241038
0.000977438
0.00201869
0.00340655
0.00475961
0.00186258
0.0040939
0.00320668
0.00165271
0.00439822
0.00248173
0.00185911
0.000523101
0.00505788
0.00097427
0.000774633
0.000899492
0.00218093
0.00225536
0.00478466
0.00165836
0.00101116
0.00354246
0.00249469
0.004737
0.000719296
0.00216969
0.00373837
0.00271948
0.00403115
0.00299383
0.00230673
0.00190497
0.00291682
0.00399857
0.0036344
0.00374535
0.000915535
0.00101602
0.00191075
0.00213679
0.000829132
0.00054785
0.00116629
0.000676335
0.000455445
0.00111381
0.00236827
0.00151557
0.00100815
0.000565742
0.00208859
0.00149082
0.00325033
0.00272751
0.00288511
0.00185516
0.00156145
0.00496839
0.0028415
0.00145161
0.00442729
0.00278863
0.00348154
0.00571314
0.00281133
0.00157059
0.000908737
0.00148935
0.00238784
0.00265931
0.00243511
0.00458675
0.00174349
0.00199687
0.00243325
0.00196677
0.00414385
0.00145166
0.00155589
0.000919551
0.00274727
0.00186317
0.00110953
0.00249573
0.00295606
0.0028805
0.0075314
0.00347792
0.00412915
0.00545369
0.00452097
0.00238013
0.00336711
0.00387266
0.00216291
0.000899976
0.00499557
0.00712431
0.00219044
0.00397441
0.0043005
0.00160567
0.00385152
0.00312481
0.00107183
0.00293158
0.00512115
0.00351746
0.00262966
0.00313125
0.00318058
0.00232502
0.00310682
0.00249024
0.000894125
0.0019787
0.0011136
0.000863907
0.00325016
0.0039791
0.00305501
0.00448061
0.000806499
0.00458481
0.00331706
0.000646733
0.00288548
0.00292651
0.003786
0.00179031
0.00184187
0.00118268
0.00309582
0.00321741
0.00342009
0.00419553
0.00153023
0.00398833
0.000475525
0.00292954
0.00515314
0.00369285
0.00297008
0.00455778
0.00294977
0.00296468
0.00494782
0.00558238
0.00338891
0.00216414
0.00406487
0.00211557
0.00324143
0.00351945
0.00314296
0.00291059
0.00312301
0.00298707
0.00312327
0.00387511
0.00210709
0.0024721
0.00296383
0.00540012
0.00309303
0.0042991
0.00315898
0.00357445
0.00222229
0.00070788
0.00318208
0.00569776
0.00393947
0.0028972
0.00441297
0.00642707
0.00183749
0.00529056
0.00283077
0.00304879
0.00455929
0.003179
0.00168794
0.00339065
0.00288638
0.00345584
0.00392736
0.00286499
0.00377028
0.000883356
0.00380728
0.00265739
0.00311633
0.0036801
0.00204112
0.00455731
0.0024377
0.00588255
0.00194539
0.00104034
0.00119534
0.00143289
0.00100326
0.00224934
0.00198165
0.00578524
0.00213989
0.000594089
0.00099328
0.00487317
0.00292422
0.00118404
0.00122473
0.00124455
0.000864045
0.00388262
0.00323277
0.00434586
0.00403634
0.00225704
0.00322234
0.0042594
0.00654528
0.00735126
0.00265171
0.00291484
0.00796537
0.00143779
0.00470615
0.00485183
0.000841876
0.00167224
0.00158695
0.00142902
0.00076068
0.000742787
0.00193494
0.000865358
0.00134977
0.0014695
0.00438811
0.00560809
0.0014336
0.00373719
0.000337419
0.000826952
0.00269307
0.00373614
0.00321886
0.00131648
0.00251763
0.0043589
0.00207205
0.00351467
0.00255027
0.00465217
0.00423436
0.00347369
0.00579538
0.00279938
0.001551
0.00315296
0.000764941
0.00129393
0.00109059
0.00551603
0.00367614
0.001499
0.00138282
0.00278847
0.00560011
0.00518277
0.00248423
0.00157978
0.00149796
0.00188163
0.00296332
0.000860996
0.00343811
0.00474004
0.0031267
0.0034267
0.00252133
0.00227683
0.00125249
0.00362112
0.00254004
0.000302529
0.00275245
0.00275886
0.00189311
0.00294713
0.0013375
0.00090511
0.0030936
0.00415452
0.00598712
0.00398998
0.000557029
0.00062666
0.00100221
0.00265689
0.00534759
0.00337687
0.00259148
0.00307318
0.0011813
0.00462959
0.00200989
0.00190928
0.00113637
0.00196631
0.00235875
0.00447526
0.00142419
0.00200902
0.00139123
0.00382143
0.0024082
0.00141675
0.00479858
0.00206495
0.00325375
0.00320892
0.00338256
0.00354038
0.00345845
0.00331243
0.00132458
0.00139015
0.00148355
0.00162822
0.00340625
0.00386533
0.00302383
0.00380552
0.00366352
0.00179942
0.00145087
0.00145057
0.00356442
0.000813875
0.00131129
0.0013082
0.00232898
0.000683221
0.00242241
0.0095498
0.00233089
0.00199567
0.00826721
0.00731027
0.00266242
0.00252482
0.00273351
0.00851119
0.00271005
0.0011963
0.000887667
0.00229326
0.00334912
0.00358092
0.0073612
0.00859185
0.00318307
0.002542
0.00389122
0.00308174
0.00628368
0.00146698
0.00364605
0.00337889
0.00426822
0.00278346
0.00162003
0.00152746
0.00575817
0.000641162
0.00143946
0.00100584
0.00174469
0.00442999
0.00134855
0.000924042
0.00410195
0.00144529
0.00662422
0.00546254
0.00117926
0.00617281
0.0055938
0.00335916
0.00616767
0.00507558
0.00101023
0.000830621
0.00373725
0.000934749
0.000943409
0.00158126
0.000941143
0.00659286
0.00174559
0.00336669
0.000965343
0.000787894
0.00290424
0.00582889
0.00331231
0.00338664
0.00350554
0.00320789
0.00347128
0.00148549
0.00264595
0.000949653
0.00654872
0.00515335
0.00335401
0.0041199
0.00725299
0.00523578
0.00204165
0.000657879
0.00114419
0.00656643
0.00638577
0.00195215
0.00449496
0.00370608
0.00525242
0.00289166
0.00733057
0.00217502
0.00135535
0.00346768
0.00308153
0.00386113
0.00383281
0.00363457
0.00369696
0.00310154
0.00374338
0.00402447
0.00239591
0.00267337
0.00101699
0.00382633
0.00319018
0.00651623
0.00437577
0.00380469
0.00628296
0.00543528
0.00294864
0.00152824
0.00384042
0.00308455
0.00358103
0.000820729
0.00120403
0.00115764
0.00388563
0.00343204
0.00656798
0.00228135
0.00463905
0.00329745
0.0034609
0.00340852
0.00337361
0.00590451
0.00204939
0.00154369
0.00559741
0.00383048
0.00389966
0.00353458
0.00166195
0.003432
0.00364088
0.00111979
0.00183821
0.00255556
0.00106041
0.00302704
0.00348445
0.00178034
0.00364562
0.00147706
0.0059001
0.00640033
0.00896587
0.00343641
0.00371151
0.00381247
0.00154667
0.00382906
0.00379369
0.00300964
0.00177812
0.00142905
0.00537835
0.0064473
0.00660675
0.0027859
0.00107894
0.00372907
0.00366768
0.00624771
0.00359792
0.00380859
0.00352392
0.00598045
0.00465711
0.004077
0.0027318
0.00378426
0.000920006
0.00390228
0.00386437
0.00414093
0.0041857
0.00380216
0.00384903
0.00371413
0.00320658
0.00344743
0.00357936
0.000982289
0.00379746
0.00358638
0.0037928
0.00172274
0.00623043
0.00393488
0.00322898
0.00302346
0.00290368
0.00279231
0.00330134
0.00419921
0.00355172
0.00125631
0.00107746
0.00200288
0.00464401
0.0054274
0.00660934
0.0010209
0.00297727
0.00383058
0.00260329
0.00331234
0.00173603
0.00157677
0.00124903
0.002646
0.00385504
0.00215743
0.00170062
0.00369345
0.00203072
0.00156679
0.00647669
0.00124742
0.00165328
0.00395737
0.00175888
0.00607183
0.00663828
0.00388991
0.0064995
0.00180567
0.00178531
0.00110513
0.00400925
0.00120241
0.00424244
0.00451374
0.00486019
0.00340433
0.00596872
0.00272511
0.0029893
0.00488831
0.00417943
0.00121922
0.0069565
0.00488572
0.00289869
0.00208714
0.00406092
0.000920067
0.0040546
0.00162119
0.00733082
0.00410682
0.00329965
0.00139837
0.00599961
0.000905106
0.00687063
0.00300409
0.00151173
0.00131345
0.00789012
0.00411966
0.00255213
0.00497381
0.002221
0.00380416
0.00115126
0.00496783
0.00720964
0.000755232
0.00155255
0.00146598
0.00397094
0.00111929
0.00216198
0.00156731
0.00358789
0.00160527
0.00172932
0.00331716
0.000637415
0.0050231
0.000714747
0.000454918
0.00431558
0.000510971
0.00684327
0.00149834
0.00143411
0.00220673
0.000685419
0.000448155
0.00227603
0.00913228
0.000710751
0.0038318
0.00420374
0.000722835
0.000479036
0.00531526
0.00364163
0.00334683
0.00497446
0.00202621
0.000465791
0.0034341
0.00277993
0.00400087
0.00191572
0.00281526
0.00594375
0.00278477
0.00162763
0.00378481
0.00740653
0.00398028
0.00202337
0.00674431
0.00386094
0.00229715
0.00154667
0.00378305
0.00349132
0.003235
0.00324381
0.000317499
0.00881169
0.000960909
0.00888855
0.00106801
0.0031123
0.00463069
0.000882479
0.00469208
0.000629492
0.00569676
0.00397664
0.00352349
0.0040653
0.000596192
0.00312593
0.00297415
0.000748792
0.000427612
0.00293202
0.0026238
0.00354686
0.00511579
0.0020277
0.00119987
0.00297658
0.00258063
0.0028297
0.00325872
0.00117185
0.00265947
0.00364832
0.00236571
0.00503022
0.00447101
0.00695169
0.00304251
0.00239443
0.00312658
0.00272827
0.00317609
0.00576792
0.00297976
0.00254814
0.00592199
0.00726726
0.00341562
0.0038967
0.000590248
0.00313867
0.00225669
0.00384646
0.00268937
0.00241549
0.00230644
0.00719269
0.00125936
0.003864
0.00387794
0.00371335
0.00224264
0.00314588
0.00817612
0.00345449
0.0028192
0.00483177
0.00130811
0.00529647
0.00367468
0.00128213
0.00381857
0.00319892
0.00451751
0.00381687
0.00150999
0.00143868
0.00114417
0.000311743
0.00107224
0.00734274
0.00318693
0.000904997
0.00378969
0.00266474
0.00249464
0.00493707
0.00172887
0.00368315
0.00242888
0.00366994
0.0048267
0.00272448
0.00407905
0.00149131
0.00410864
0.00305568
0.00468161
0.00313843
0.00113975
0.0013495
0.0025512
0.00368699
0.00331353
0.00340325
0.00865901
0.0018539
0.00215681
0.00179133
0.000549336
0.0031705
0.0035033
0.0036503
0.00428715
0.00502959
0.00244414
0.010223
0.00181495
0.000760304
0.00402706
0.00299598
0.004009
0.00819856
0.00259412
0.00275329
0.00373783
0.00359457
0.00544696
0.00302665
0.00283133
0.00290489
0.00279911
0.00584271
0.00395852
0.000865767
0.00307061
0.0020577
0.00155697
0.00264262
0.00195944
0.00498718
0.00376101
0.00344675
0.00137405
0.0049345
0.00429701
0.00778271
0.00320792
0.00487529
0.000884118
0.000842214
0.000876122
0.000716682
0.000744783
0.000804687
0.000675606
0.00100751
0.00112784
0.00115634
0.00101492
0.000956261
0.000908011
0.000947421
0.0010723
0.0011563
0.000751316
0.000833406
0.00112702
0.00106419
0.00120238
0.00102195
0.000869308
0.000874025
0.000900027
0.000843764
0.00283351
0.000717406
0.000371422
0.00752979
0.00244198
0.00140583
0.00333962
0.00111298
0.0026028
0.00451329
0.00242734
0.00394066
0.0019216
0.000730191
0.00116324
0.00345957
0.0032049
0.00545973
0.00686518
0.00254551
0.00527741
0.00227193
0.00582834
0.00739543
0.00090971
0.004459
0.00176591
0.000926753
0.000495415
0.000827689
0.00155091
0.00306425
0.00587474
0.00385391
0.000729672
0.00310415
0.00312926
0.00189576
0.00381363
0.00152386
0.00363404
0.00464162
0.00233171
0.00495802
0.000934798
0.00187553
0.00131336
0.00498766
0.00267875
0.00383081
0.00625212
0.00224015
0.00788992
0.00181644
0.00371136
0.00537315
0.00370293
0.00572933
0.00121172
0.000830199
0.000765078
0.00288058
0.00390418
0.00111249
0.00282656
0.00309622
0.0076522
0.000657608
0.00383894
0.0075405
0.00365484
0.00510841
0.0020422
0.00563658
0.0037618
0.00119114
0.00404297
0.00279161
0.00318999
0.00356651
0.00392061
0.00113602
0.000871552
0.00430684
0.00418203
0.00405631
0.00252995
0.00187639
0.00124843
0.00345483
0.00293165
0.00393049
0.00467887
0.00383633
0.00489275
0.000627451
0.00131303
0.00317342
0.00551252
0.0079279
0.00108327
0.000926892
0.00437863
0.00305257
0.000864402
0.00212748
0.00073488
0.00121685
0.00231489
0.00130172
0.00027672
0.00200513
0.000826313
0.00750548
0.00673767
0.00202711
0.00499021
0.000755037
0.0014397
0.00882592
0.00276539
0.00348959
0.00100893
0.000844408
0.00303034
0.00207901
0.00241377
0.00563968
0.00326705
0.00597774
0.00275335
0.00287784
0.00580592
0.00496257
0.00231173
0.00746397
0.000784091
0.00525976
0.000835207
0.00223671
0.00156947
0.000747927
0.00125958
0.0018157
0.000515264
0.00201498
0.00552246
0.00507024
0.00298017
0.00303983
0.00248263
0.000937132
0.00330063
0.00540102
0.00528931
0.00581156
0.00154963
0.00231357
0.000926103
0.000722661
0.000757039
0.00128132
0.00366853
0.000979697
0.00605584
0.00329313
0.000165306
0.00583199
0.00313539
0.000489822
0.00237194
0.00058716
0.00212473
0.00093871
0.000565771
0.000597928
0.00386203
0.00294851
0.000720792
0.000864197
0.00043563
0.000500356
0.000457415
0.00044347
0.000997466
0.00101703
0.0005732
0.000633985
0.00064197
0.000619277
0.000919583
0.00811593
0.00489507
0.00512916
0.00689986
0.00350046
0.00490765
0.00556008
0.000986504
0.000815813
0.00327511
0.00469433
0.00274656
0.000713305
0.0030687
0.00338206
0.00591169
0.00309972
0.000482264
0.00393031
0.00256993
0.00402481
0.000614957
0.00279178
0.00257881
0.00315875
0.00142755
0.00343028
0.00433358
0.00273426
0.000707156
0.000880457
0.000851682
0.000998754
0.00583359
0.00310311
0.0028587
0.00253603
0.00299926
0.00308713
0.00322603
0.00373888
0.00344384
0.00410451
0.00535677
0.00405455
0.00745887
0.00410856
0.000994565
0.000919616
0.00232297
0.00279281
0.00297589
0.00233803
0.00359025
0.00176123
0.0025645
0.00402705
0.00104565
0.00105069
0.00368548
0.0024055
0.000809837
0.00238816
0.00269758
0.00402348
0.0039701
0.00112697
0.00195403
0.000889226
0.000726319
0.00324644
0.00770258
0.0024087
0.0103992
0.00427829
0.00245094
0.00520174
0.00377406
0.00380359
0.00237286
0.00164753
0.00941789
0.00307382
0.00800466
0.00749902
0.00964821
0.0079111
0.00147134
0.00419094
0.00261353
0.00378836
0.00180779
0.0037357
0.00217932
0.00378916
0.00511981
0.00682262
0.00125863
0.0105167
0.00540236
0.0048632
0.00259685
0.00256855
0.00118597
0.0031575
0.00245694
0.00346389
0.00252134
0.00196684
0.00251741
0.00249165
0.00710778
0.00384815
0.000954083
0.00240833
0.00406357
0.00243443
0.00153548
0.00448347
0.00472453
0.00236162
0.000904065
0.00252178
0.00090349
0.00231807
0.00372492
0.0039588
0.00119258
0.00243244
0.000859993
0.00729917
0.00318349
0.00144423
0.00407326
0.00238545
0.00940107
0.00779106
0.00393655
0.00213876
0.00138203
0.00194272
0.00259661
0.00680991
0.00122271
0.00147754
0.00354791
0.00120148
0.0102237
0.00262312
0.00194762
0.00260241
0.00485111
0.00156084
0.000660995
0.004241
0.0025801
0.00083379
0.0038114
0.00398467
0.00251003
0.00175757
0.00177781
0.010156
0.00193184
0.00384503
0.00256127
0.003826
0.00553475
0.00315327
0.00506871
0.00943343
0.00705509
0.00285678
0.00168051
0.00162787
0.00393467
0.000759695
0.00352204
0.00259913
0.000518209
0.00496443
0.00339155
0.00323093
0.00432211
0.00240386
0.00382665
0.00249766
0.000917734
0.00169208
0.00466658
0.00100216
0.00156015
0.00123543
0.00389702
0.00287004
0.00391775
0.00428761
0.00343285
0.00180922
0.00170191
0.00132932
0.000708616
0.00132742
0.00220111
0.000979547
0.0027814
0.00302214
0.00331943
0.00393371
0.00195075
0.00624591
0.000897265
0.00252919
0.00388579
0.00349736
0.00122712
0.00346064
0.00373345
0.00456798
0.00153196
0.0032728
0.00704511
0.00373765
0.000963712
0.000326922
0.00488159
0.00273664
0.00295635
0.00432518
0.00498997
0.000399904
0.00303284
0.000456779
0.000879053
0.000815189
0.000781343
0.00159228
0.00355345
0.000325123
0.00402366
0.00383595
0.003453
0.000922324
0.000618582
0.00489064
0.00106896
0.00351864
0.00186359
0.00400502
0.00748871
0.00146981
0.00301756
0.0032272
0.00314576
0.00272157
0.00315237
0.00114825
0.00599294
0.00311159
0.00347898
0.000663236
0.00347372
0.0026442
0.00319724
0.00305264
0.00323109
0.00410096
0.00310311
0.00272753
0.00152736
0.00301885
0.00536556
0.00357631
0.000889473
0.000182602
0.000372877
0.00302495
0.0031089
0.00279527
0.00455943
0.00338427
0.00101974
0.00230892
0.0103523
0.00428232
0.00430249
0.00379378
0.0025083
0.00430353
0.0100493
0.000986907
0.00152251
0.00250178
0.00145293
0.00455956
0.00196758
0.00177106
0.00402347
0.00209491
0.00268244
0.00254113
0.00294065
0.00294091
0.00279084
0.00295826
0.00247971
0.00104473
0.00245522
0.00320313
0.00608546
0.0043146
0.00239554
0.00223855
0.00446472
0.00245599
0.00309708
0.00220788
0.00400673
0.0102455
0.0042094
0.00097236
0.0037267
0.00341656
0.00240717
0.00205212
0.00301672
0.00351887
0.00333691
0.00525382
0.00340486
0.00238893
0.000740888
0.00361523
0.00242214
0.00394177
0.00413217
0.00163762
0.00224167
0.000957649
0.00166197
0.000884957
0.00119542
0.00184997
0.00263819
0.00104224
0.00122496
0.000672297
0.000710894
0.00109148
0.00175712
0.00100514
0.000666121
0.00153209
0.00214198
0.00146174
0.000784415
0.00101322
0.00175789
0.000736976
0.000840078
0.000964962
0.00167557
0.000926394
0.000982944
0.00196634
0.000268911
0.000278336
0.00177656
0.000620273
0.0013152
0.00125958
0.00262765
)
;

boundaryField
{
    frontAndBack
    {
        type            empty;
    }
    wallOuter
    {
        type            nutkWallFunction;
        Cmu             0.09;
        kappa           0.41;
        E               9.8;
        value           nonuniform List<scalar> 
108
(
9.64554e-05
0.00010932
9.04052e-05
3.63228e-05
3.22623e-05
7.72909e-05
8.60467e-05
5.4423e-05
6.20688e-05
8.283e-05
5.39432e-05
8.55789e-05
8.70343e-05
5.75683e-05
5.645e-05
3.42562e-05
0.000103179
9.00532e-05
4.46093e-05
7.18227e-05
3.2362e-05
0.000105487
6.69117e-05
9.14015e-05
0.000102963
9.84813e-05
0.000101863
8.4661e-05
8.77242e-05
9.45937e-05
7.993e-05
0.000113535
0.000125287
0.000128128
0.000114001
0.000108363
0.000103468
0.000106775
0.000119566
0.000127903
8.60916e-05
9.48188e-05
0.000124463
0.000117353
0.000130552
0.000112311
9.95653e-05
0.000100386
0.00010355
9.81155e-05
4.09931e-05
8.78765e-05
0.000104945
6.00915e-05
0.000106417
9.67282e-05
9.19641e-05
0.000101046
0.000102694
2.97835e-05
8.70308e-05
0.000114179
0.000101601
0.000100022
8.9985e-05
5.95111e-05
0.000111602
8.69799e-05
9.10392e-05
0.00010435
1.62175e-05
1.62175e-05
5.67202e-05
6.84898e-05
6.58441e-05
7.01215e-05
0.00010073
5.09567e-05
5.82175e-05
5.37917e-05
5.15949e-05
0.00011839
0.000120578
6.89748e-05
7.58065e-05
7.63267e-05
7.31743e-05
0.000109598
0.000111558
9.79281e-05
5.85727e-05
6.53757e-05
8.31344e-05
9.94394e-05
0.000123766
0.000124337
0.000100673
8.65162e-05
0.000107771
6.26558e-05
8.17441e-05
0.000116371
3.63646e-05
4.82743e-05
3.6178e-05
1.78028e-05
4.34928e-05
0.000113357
)
;
    }
    inlet
    {
        type            calculated;
        value           nonuniform 0();
    }
    outlet
    {
        type            calculated;
        value           nonuniform 0();
    }
    wallInner
    {
        type            nutkWallFunction;
        Cmu             0.09;
        kappa           0.41;
        E               9.8;
        value           nonuniform List<scalar> 
126
(
9.49175e-05
0.000237947
0.000172583
0.000212896
0.00022513
0.000224472
0.000173016
9.15843e-05
0.000132446
0.000257238
5.71913e-05
0.000109437
9.89185e-05
0.000102685
0.000193195
0.000142853
8.08952e-05
9.4573e-05
0.00012036
0.000149121
0.000269904
0.000120727
0.000227142
0.000123219
0.000117196
0.0002189
0.000241928
9.92116e-05
5.71634e-05
0.000135155
8.13537e-05
5.2828e-05
0.000111679
0.000259146
0.000146528
0.000114613
6.32245e-05
0.00023541
0.000180654
0.000206997
0.000177898
0.000172115
0.000103239
0.000198999
0.000218149
0.000167378
0.000179813
0.000112989
0.00012457
0.000121955
0.000130117
5.27999e-05
0.000140524
0.000158625
0.000112693
6.76293e-05
0.000118475
0.000138267
0.000145187
9.77431e-05
0.000172753
9.25334e-05
0.000102521
0.000154741
8.69512e-05
0.000149736
0.000123332
7.40124e-05
0.000124319
0.000165361
0.000164619
0.000168311
9.7048e-05
0.000169898
0.000172517
0.000178597
8.16832e-05
0.000118152
0.000117568
0.000125144
0.000117627
0.000117309
0.000178568
0.00018045
0.000180762
0.000189155
0.00014028
0.000162064
0.000174115
0.000214737
0.000155169
0.000170033
0.000132067
0.000189555
0.000114805
0.000181823
0.000105605
0.000131676
0.000207947
0.000132226
0.000150007
6.9219e-05
8.91747e-05
0.000128768
0.000196723
0.000116642
7.81626e-05
0.000171394
0.000243703
0.000169832
7.90578e-05
0.000117648
0.000201387
8.86124e-05
0.000100481
0.000114645
0.000186646
0.000118153
0.000123928
0.000200238
3.15752e-05
3.32513e-05
0.000204058
6.62499e-05
0.000154366
0.000147224
)
;
    }
    procBoundary1to0
    {
        type            processor;
        value           nonuniform List<scalar> 
29
(
0.00366921
0.00366921
0.00239051
0.00362016
0.00545973
0.00242656
0.00263056
0.000829091
0.00284221
0.00238135
0.0019542
0.00242656
0.00239051
0.0021665
0.0018606
0.0010205
0.00545973
0.00411694
0.00362016
0.00319186
0.000795964
0.000727106
0.00374074
0.000712207
0.000712207
0.00374074
0.000712008
0.000911502
0.000712008
)
;
    }
    procBoundary1to2
    {
        type            processor;
        value           uniform 0.00265979;
    }
    procBoundary1to3
    {
        type            processor;
        value           nonuniform List<scalar> 
48
(
0.00322066
0.00109762
0.00271854
0.00271854
0.00247612
0.000733714
0.000733714
0.00372156
0.00367226
0.000847307
0.000587701
0.000847307
0.00137296
0.00323606
0.0031844
0.00137296
0.00162155
0.00162155
0.0016749
0.0016749
0.00334314
0.00339339
0.00156655
0.000660534
0.000660534
0.00111993
0.00346274
0.00346274
0.00367481
0.00211856
0.00129965
0.00367481
0.00372156
0.00377845
0.00115783
0.00211856
0.00370374
0.000587701
0.00361189
0.00252274
0.00303341
0.0037314
0.00377845
0.00115783
0.00294886
0.000792392
0.00251258
0.00303341
)
;
    }
}


// ************************************************************************* //
