/*--------------------------------*- C++ -*----------------------------------*\
| =========                 |                                                 |
| \\      /  F ield         | OpenFOAM: The Open Source CFD Toolbox           |
|  \\    /   O peration     | Version:  v1912                                 |
|   \\  /    A nd           | Website:  www.openfoam.com                      |
|    \\/     M anipulation  |                                                 |
\*---------------------------------------------------------------------------*/
FoamFile
{
    version     2.0;
    format      ascii;
    class       surfaceScalarField;
    location    "0.25";
    object      phi;
}
// * * * * * * * * * * * * * * * * * * * * * * * * * * * * * * * * * * * * * //

dimensions      [0 3 -1 0 0 0 0];
oriented        oriented;


internalField   nonuniform List<scalar> 
2776
(
0.000431325
0.000128315
-0.000461857
-9.77829e-05
-0.000873227
0.000968416
0.000293704
-0.000388893
2.31472e-05
-0.000169613
1.18336e-05
0.000134632
4.10295e-05
7.38071e-05
0.00103638
-0.00115122
3.98337e-06
0.000408727
-0.000196548
-0.000216162
-0.000141746
-0.000638479
0.000463664
0.000316561
0.000259597
-9.57505e-05
0.00010791
6.33645e-06
-0.000220515
0.000106269
0.00103597
0.000909749
-0.000914386
-0.00103134
-0.00124613
0.00093641
-0.000304635
0.000614357
-0.000525951
-0.00138102
0.000654632
0.00125234
0.000505187
0.000285255
-0.00071325
-7.71924e-05
0.000900278
0.000116068
-0.00139114
0.000374794
-0.000101957
-0.000170317
0.000276257
0.000220681
-2.09062e-05
-0.000341521
0.000672236
-0.000302844
-0.000895343
-0.000106347
-0.000125821
0.000215561
1.66059e-05
1.94058e-05
-0.000503229
0.000483823
0.000523618
-0.000146114
7.45048e-05
-0.000452009
0.000833571
-3.66995e-05
4.2828e-05
-0.0008397
-0.000780049
4.25418e-05
-3.21568e-05
0.000769664
-9.01002e-06
0.000242747
-0.000354295
0.000120558
0.000579935
2.66004e-05
-2.68047e-05
-0.000579731
0.000761152
0.000101335
-6.04724e-05
-0.000802014
0.000317691
-0.000389698
-0.00120145
0.00127346
6.05352e-05
-5.15589e-05
0.000100002
-0.000108978
-0.000215196
4.7371e-05
0.000140256
0.00072944
-0.000824407
-4.52896e-05
2.98088e-05
-2.9843e-05
2.94092e-07
-2.59931e-07
-0.000370184
0.000427518
0.000631715
-0.000689049
0.000710688
-0.00116965
-0.000115303
0.000574261
0.000101434
1.13873e-06
-9.03678e-08
-0.000102483
-0.000246867
0.000467745
-1.76774e-05
-0.000203201
-0.000556286
0.000676634
-0.000585625
0.000465278
4.66902e-05
8.21874e-06
0.000415559
7.10763e-05
-2.42583e-05
-1.70092e-05
-0.000403366
0.000252235
-0.000617785
1.563e-06
0.00120689
-0.00032489
-0.000882002
0.000211493
-0.000259137
4.76445e-05
1.11554e-06
-0.000761671
0.000760555
-0.000542195
0.00060105
-5.88555e-05
-0.000578662
0.000551205
2.74574e-05
0.000769988
1.29024e-05
-0.00078289
-5.77454e-05
1.13105e-05
4.64349e-05
0.000123142
6.84464e-05
0.00100408
3.40819e-05
0.000346497
-0.000391305
4.48075e-05
-0.000422749
0.000477233
-5.44843e-05
-0.000390877
0.000355928
3.49483e-05
-0.000212124
7.46001e-05
0.000137523
-0.000218751
-0.000654476
-0.000528566
-0.000109912
0.000402456
6.27042e-06
-0.000158478
-8.83891e-05
-0.00111907
0.00143676
-0.000250061
0.000177539
7.25218e-05
-0.00107646
-0.00030456
0.000180192
-0.000376665
0.000196473
-0.00105049
-0.000195645
5.38247e-05
3.25521e-05
-1.96743e-05
-6.67024e-05
0.0005289
-0.000422482
-0.000105303
-8.31538e-06
3.86029e-05
0.000181205
-0.000235048
6.76671e-05
0.000627739
-0.000460358
0.00081576
-0.000732444
-0.00019208
0.000108764
0.000155132
-0.000175238
0.000173297
-0.000153191
0.000213779
-1.52952e-05
-1.90584e-05
-0.000179425
-0.000184141
-0.000144386
-0.000621026
0.000911887
-0.000916792
6.87204e-05
-6.38152e-05
8.28541e-05
-0.000179522
-0.000170307
0.000266975
0.000141977
-0.000124871
4.59799e-05
-6.30858e-05
5.55637e-05
-0.000536312
0.000480748
7.53909e-05
-0.000454848
0.000379458
0.00108353
-0.000463517
-0.000829437
0.000209425
4.62613e-05
-6.89323e-05
7.64957e-05
-0.000679799
-8.18102e-05
0.000333274
0.000428336
-9.48412e-05
0.000601406
2.23347e-05
0.000141146
-5.53824e-05
-9.40794e-05
-0.000338253
0.000330332
7.9207e-06
0.000116878
-0.000412553
0.000361168
-6.54924e-05
-0.000783576
5.14364e-05
-0.000127022
0.000859162
-0.000490994
0.000680943
0.000464683
7.01438e-05
6.65129e-05
-0.000110249
-2.64075e-05
-0.000287587
-5.80808e-05
0.0002501
9.55674e-05
-0.000615635
2.25996e-05
0.000621343
-2.83074e-05
-4.80658e-05
0.000654181
-0.000636541
3.04254e-05
-0.000578702
0.000545877
-0.000523462
4.62265e-05
-1.90503e-05
0.000351549
-0.000378725
0.000999051
-0.000575735
3.89901e-05
6.64714e-06
4.33975e-05
-8.90347e-05
4.93005e-05
-3.60711e-05
4.73058e-05
-0.000244781
6.655e-05
-3.69645e-05
0.000186659
-0.000716459
0.00057083
-2.07797e-06
-0.000172448
0.000290622
-0.000116095
6.41246e-05
-0.000166152
0.000108364
-0.000135331
0.000842435
0.000125981
-7.23736e-05
-8.30938e-05
-0.000102443
-9.41049e-05
0.000251541
2.34853e-05
5.11148e-05
3.243e-05
0.000314067
-5.04895e-05
-0.00037226
-0.000630415
5.17529e-05
4.47132e-05
-0.000265228
-5.1333e-05
1.11516e-05
0.000438248
0.000814089
0.000181263
4.86664e-05
-4.46839e-05
2.85696e-05
0.00057392
-0.000607558
2.68803e-05
6.75847e-06
6.80792e-05
0.000294388
-0.000234152
0.000395453
0.000540957
9.86228e-06
-3.84225e-05
-9.40256e-07
2.95005e-05
0.000460195
-0.000103926
0.000206986
-0.000463765
0.000761966
-5.15138e-06
0.000307229
-4.24803e-05
-0.000129536
9.09718e-05
9.27565e-05
-0.00118495
0.0010677
0.000191059
-0.000334855
-9.01539e-05
0.000235208
0.000189801
0.000316396
1.48904e-05
-0.000235155
-9.61322e-05
-6.78594e-05
0.000837847
-8.18639e-06
-4.9559e-05
0.000309967
-0.000156969
-0.000714423
0.000188625
0.000637918
-0.00011212
-0.000221078
0.000710951
5.07189e-05
-0.000540592
-0.000271313
0.000913101
2.01827e-05
-0.000661971
-5.94739e-05
6.85096e-06
7.84898e-05
-2.58669e-05
0.000112507
0.000522992
0.000198518
0.000638025
2.27632e-06
-8.212e-05
5.00699e-06
7.48367e-05
0.00048839
0.00037384
0.000181755
3.3948e-05
0.000205674
7.6869e-05
-9.18878e-05
0.000816249
2.06412e-05
-0.000745002
0.0007977
5.0081e-05
-5.57699e-05
-0.000792011
0.000495026
-2.32973e-05
2.49897e-05
-0.000496718
0.000263032
-0.000261553
-0.000122394
0.000120915
-0.000616638
-0.000105124
2.20607e-05
0.000699701
0.000105491
-3.30822e-06
-7.48591e-07
8.5674e-05
-4.44173e-05
-7.49652e-06
-3.37601e-05
0.000134109
-0.000115458
3.02673e-05
-4.89185e-05
0.000155119
-0.000101367
-1.47619e-05
7.90073e-05
-1.98445e-05
0.000223115
-0.000453005
0.000523594
-0.000852283
-0.000101468
0.000239328
8.18561e-05
-0.000116588
9.88561e-05
-0.000171588
-3.66242e-05
-2.77633e-05
0.000235975
0.000236489
-5.25978e-05
0.000107775
0.000777048
-6.53321e-05
-0.000819491
0.000224206
-0.000383763
-0.000419146
2.42543e-05
4.79673e-05
-1.92705e-06
-7.02945e-05
-0.000820019
0.000289482
0.000523985
6.5515e-06
5.29312e-06
-1.87813e-05
0.000118979
-0.000656642
0.000206308
0.000567212
-0.000275082
0.000227016
0.000570448
-0.000848227
-0.000184755
0.000462534
-6.77923e-06
8.93148e-05
-0.000363448
0.000280913
0.000134212
-0.000501595
0.000854788
-0.000823262
0.000166991
0.000536888
-0.000497743
7.33618e-05
0.000721676
-0.000606739
-7.48107e-05
-4.01269e-05
7.77523e-05
0.00154614
-0.00124629
-0.0003776
0.000675922
-0.000922466
0.0003868
-7.37775e-06
2.26306e-05
3.88479e-05
-5.41007e-05
0.000194713
3.74451e-05
0.00012377
-4.40867e-05
0.000103691
0.000561791
-0.000687869
0.000126078
-0.000415932
0.0002957
-0.00131394
0.00143417
-0.000443899
-1.91095e-05
0.000609736
-0.000146727
0.000223833
-0.000195268
-0.000398748
-1.13855e-05
2.01933e-05
3.98585e-05
1.0851e-05
3.93884e-05
9.17376e-05
-0.00135224
0.00119117
-0.000259041
0.000420109
0.000406434
-0.000345127
-0.000150854
8.9548e-05
0.000151505
-0.000604772
0.000559524
-0.000106256
-0.000177729
4.74117e-05
9.87566e-05
3.15604e-05
-2.54865e-05
-1.09943e-06
0.000389232
-0.000362647
0.000671617
2.91507e-05
-4.65873e-05
-0.000597734
2.72431e-05
-4.51442e-05
-0.000321666
-0.000162093
0.000196173
-0.0010386
-0.000173291
0.000295098
-0.000130227
-3.86966e-05
-0.000169329
0.000771606
-0.000203918
-0.000659575
6.36717e-05
-6.76887e-05
-1.56573e-05
-0.000291319
0.000216993
0.000260985
0.000327214
0.00040201
-0.000644625
-8.4599e-05
0.000140996
0.000150333
-0.00111135
-1.84761e-05
3.89658e-05
-3.18752e-05
-8.20234e-05
-9.74989e-05
-0.000470125
0.000382567
0.000607492
-0.000519933
-0.000249306
5.7462e-05
3.4919e-05
0.000156925
-0.000804407
0.000514984
-0.000275137
-0.000117327
0.000101145
0.000107643
-3.30081e-05
-0.000508491
0.00045154
0.000378734
-0.000321782
-0.000571256
0.000584199
0.000156783
-0.000169726
-0.000103798
-9.96798e-05
7.86069e-05
-0.000245234
-0.000485774
7.85903e-05
0.000809194
0.000487868
0.000802764
-0.00041074
-0.000879891
-2.6727e-05
2.01261e-05
4.01001e-05
-3.34991e-05
-9.62456e-06
0.00082393
1.92663e-05
3.91626e-05
0.000564597
-8.01423e-05
-7.57725e-05
2.00177e-05
-0.000646906
0.000702661
-2.38836e-05
1.75515e-05
-0.000224005
0.000230337
0.000483164
-0.000191182
0.00038394
-9.14455e-07
-0.000776987
-2.147e-06
5.58159e-05
-0.000653017
0.000882896
-0.000285694
0.000692094
0.000126308
-0.000146784
-0.000568758
2.68398e-05
-0.000220047
-0.000425141
0.000323522
-0.000219375
0.000858606
0.000215557
-0.00015351
0.000510539
0.000179859
-1.60881e-05
1.40239e-06
-2.37369e-05
-4.45649e-05
-3.80037e-05
9.08396e-06
-7.22439e-05
-1.87757e-05
-0.0004754
0.000344668
-0.000191256
-0.000179684
8.51123e-05
0.000285828
8.64932e-05
0.000164063
-1.68256e-05
-0.000233731
2.09963e-05
-3.35894e-05
-5.86195e-05
4.30979e-05
-5.66466e-07
3.8689e-05
-4.06516e-05
4.79424e-05
-4.78311e-05
0.000328326
-0.0005691
0.000288605
7.7118e-05
-0.000476525
-0.000245218
-7.30375e-05
0.00032987
-0.000301484
4.46514e-05
0.000164951
0.000156688
-0.000173542
-0.000148097
-6.68042e-05
-0.000241516
4.29927e-05
-7.9588e-05
7.1346e-05
-3.47507e-05
6.4494e-07
0.000182985
0.000106447
-9.8768e-05
-0.000190665
9.04623e-05
-5.41052e-05
-0.00044891
0.000471487
-0.000331629
-0.000395659
2.88615e-05
-5.35793e-07
-1.62179e-05
-1.21078e-05
8.53206e-05
-0.000651501
7.08291e-06
-4.79041e-07
-0.000108976
0.000102373
-0.000266294
0.000933891
-0.000297166
0.000254688
-3.09436e-05
7.34224e-05
-0.000298837
0.000751214
0.000663917
0.00022281
-0.000194633
0.000820475
-0.000410523
0.000914451
-0.000238186
0.000240275
0.000817935
-0.000820024
-1.30575e-05
7.01851e-05
-8.38547e-05
0.000111254
-1.32595e-06
-9.09932e-05
0.000683286
-0.000825764
-0.00100496
0.00126921
0.00056152
-0.000425474
0.000445492
-0.000256167
0.000382475
9.92414e-05
-8.16899e-05
-2.65471e-05
0.000396029
-4.40075e-05
0.000462658
-1.48909e-05
-4.14523e-05
0.000543363
-0.000501966
-0.000582656
0.000541259
1.69846e-05
-0.000460957
0.000547478
-8.65211e-05
-5.70938e-05
7.91737e-05
-0.000649547
-0.000134939
-0.00135253
0.000661705
0.000226681
-0.000501763
-0.000400956
-2.45179e-05
0.000102039
-2.79789e-06
3.4525e-05
1.2656e-05
-2.70549e-05
-7.35094e-05
0.000153919
-8.73518e-05
2.97333e-05
-1.6015e-05
-0.000805854
0.000248764
-0.000147758
0.000704848
-0.00062598
0.000502405
0.000171781
-0.000210596
-7.66425e-05
-1.17911e-06
4.77605e-05
-8.75074e-06
-3.78307e-05
-0.000550901
0.000267355
0.000331209
-4.76631e-05
0.000329568
-0.00017877
0.000530063
-0.000680862
-0.000588599
0.000533358
0.000284984
-4.53242e-05
-9.77512e-05
-0.000141908
-0.000181546
0.000166822
0.000237518
-0.000222794
0.000337594
-0.000425881
3.11933e-05
-1.27635e-05
0.000313733
-0.00030326
6.02983e-05
-0.000133703
0.000964081
-0.000872668
-0.000502153
0.000562331
0.000395447
-0.000769153
-0.000382489
-7.9368e-05
-0.000841658
2.70726e-05
-0.000903178
0.000426892
-4.39585e-05
-0.000118135
0.000378356
-0.000351113
0.000285957
-2.33707e-06
-0.000248672
-1.62134e-05
2.48954e-05
-2.35729e-05
-2.83838e-05
-0.000149851
3.8981e-05
0.000139254
-3.16723e-05
9.13966e-05
5.98072e-05
-0.000119531
8.14518e-05
-1.85589e-05
-6.28929e-05
-0.000575899
0.00143372
-0.00112411
8.43614e-05
-0.000184678
-0.000225983
0.000474905
-0.000335982
-0.000711265
-4.68977e-05
0.000123886
-0.000155852
7.88636e-05
-0.000169659
0.000164056
0.000236764
-0.00023116
-0.0008954
0.000926517
0.000369049
-0.000400166
-0.000290603
0.000205512
-0.000964576
0.00104967
-0.00113384
0.000562432
0.000777719
-0.000124783
0.000414244
-0.000367894
0.000955186
0.00013448
0.000270019
-0.000153909
-0.00025059
8.69776e-05
-0.000451581
4.13087e-05
0.000323295
0.000635986
-5.18367e-05
2.55861e-05
-4.75672e-05
0.000216598
-3.5139e-05
-0.000133892
0.000697829
-3.47363e-05
0.000338367
-0.00100146
2.1247e-06
2.25393e-05
-0.000194323
9.35059e-05
5.14325e-05
7.57428e-05
-7.44461e-06
3.04874e-05
-3.92562e-05
-0.000829466
-0.000225466
0.000368321
0.000686611
-0.00101734
0.000458963
0.00104906
-0.000490682
0.000141856
-0.000438945
0.000586754
0.00055002
-3.32034e-05
3.91072e-05
-8.23859e-05
0.000176151
0.000433175
-0.000526941
3.71181e-05
-0.000558719
0.000541006
-0.000463782
-0.000214793
-3.69327e-05
8.21127e-05
0.000827995
-0.000924007
0.000344776
-0.000220459
0.000376342
0.00038748
0.00127206
-0.000586127
0.000272085
-0.000958015
0.000523301
-8.24151e-05
-0.000299889
8.6164e-05
-8.64632e-06
-0.000117106
-0.00017041
0.000126401
0.000161115
-0.000300255
-0.000213997
0.000320076
0.000194176
3.53181e-05
0.000188836
-0.000121106
-0.000103048
-0.000411621
-1.4495e-05
-0.000453775
0.000314543
-0.000258608
0.000279526
-0.000434171
0.000520221
-0.000365576
0.000558608
0.00107132
-8.37863e-05
-1.8455e-05
9.99068e-05
-0.000610652
-2.20339e-05
0.000803622
-0.000692697
0.000374089
-0.000485014
-0.000153537
-0.00085036
-3.4703e-05
0.000310817
0.000520731
-0.000579402
-0.000739809
0.00162678
0.000385088
-3.28973e-05
-0.00115644
0.00134907
-0.000159732
4.27909e-05
0.000215564
0.00029954
-0.000298505
0.000162433
1.21269e-05
9.39352e-05
-3.49859e-05
-8.93336e-05
-0.000496793
0.00137827
-0.000573197
-0.00154489
0.000351644
-0.000443422
0.00019173
6.66242e-05
0.000388577
-6.27137e-06
4.22702e-05
-7.99958e-06
0.000670578
-0.000107704
-0.000599823
0.000712997
-5.47038e-06
0.000293296
-0.000230873
-1.01044e-05
0.00027991
-5.60269e-05
0.000711828
-0.00064498
-0.000543807
0.00047696
0.000713683
-0.000891879
0.000661323
-0.000483127
-0.000197959
0.000108625
0.000216669
0.000653596
-0.000477772
0.000327906
0.00107638
0.000290558
9.0019e-05
0.000502591
-0.000292218
-0.000210373
0.000616697
-0.0008778
-0.000316682
0.000157088
-5.51989e-05
-0.000639399
-0.000618682
0.000601551
0.000656531
0.0003721
0.000565121
-0.000651966
0.000708586
-0.000205995
0.000131833
-4.79509e-05
-8.59604e-05
0.00050831
-0.000801693
0.000374673
-0.000354459
0.000313205
-0.000333418
-0.000286986
0.000322802
0.0002614
-0.000297216
0.000407087
-0.0003194
0.000261187
0.000446413
-0.000300514
-0.000357856
0.000207089
0.000390554
-0.000239787
0.000226133
0.000382813
9.57856e-05
3.61952e-06
0.000217428
0.000161765
4.8881e-05
0.000191503
3.97844e-05
3.1636e-05
9.04605e-05
-0.000142373
-0.000211811
0.000263724
-0.000370019
-0.000436404
0.000412283
0.000394141
-4.15625e-06
-0.000379056
0.000372807
1.04051e-05
-0.000308272
-0.000325542
0.000263795
3.88973e-05
0.000116988
7.39756e-05
-0.000229861
-9.42953e-05
8.02586e-05
0.000162174
-0.000148137
5.25184e-05
0.000154088
-0.000258534
0.00096712
-0.00017826
0.000102034
0.000115123
9.89458e-06
-0.00010419
-0.000234545
0.000238137
4.89265e-05
0.000156431
-0.000153459
-0.000510576
0.000150269
-0.000573258
0.000933564
8.8113e-06
9.97477e-05
-0.00110739
-0.000280371
0.00109127
0.000296498
-0.000168541
0.000131645
-2.84105e-05
6.53069e-05
0.000611254
-0.000250648
-0.000871182
1.20184e-06
0.000170396
-0.000444261
0.000157941
0.00042786
-0.00014154
0.000266961
-0.000276411
-0.000205006
0.000214455
6.45988e-05
0.000134394
-3.06233e-05
-0.000168369
-1.22506e-05
0.000773774
-0.000553544
0.000542496
-0.00011627
0.00021469
-0.000291198
-0.000393121
0.000347191
0.000337128
0.000181935
0.000140828
0.000105978
8.47682e-05
6.34467e-05
-0.000184249
7.16668e-05
8.64379e-05
0.000143483
0.000172234
-4.24416e-05
-0.000273276
7.57155e-05
-8.08102e-05
-0.000271316
-1.00477e-06
-3.95495e-05
0.000286318
-0.000203021
6.01865e-05
-0.000760794
-4.40438e-05
0.000158563
0.000171799
0.000429231
-5.34341e-06
-0.000413196
-1.37837e-05
0.000193099
-1.26917e-05
-0.00011957
-0.000146017
0.000169837
0.000202689
-9.48556e-05
-0.000225745
8.01471e-05
-8.09013e-05
-0.000102689
0.000103444
-0.000153311
0.000164511
6.90586e-05
3.63123e-05
-0.000234271
0.00115556
7.58247e-06
-0.00116314
0.000145147
-0.000203277
0.000281245
1.96029e-05
-9.7083e-06
-0.0001275
8.72648e-05
4.73253e-05
-9.39646e-05
4.66394e-05
0.00011554
4.71683e-05
1.30647e-06
0.000175131
-6.44943e-05
-0.000123525
0.000213985
8.89216e-05
0.000219751
-0.000261504
0.000337504
-0.000242318
0.000172512
8.30212e-05
-0.000110386
-8.95438e-05
5.06216e-05
0.000107001
0.000183586
-0.000204447
0.00116063
0.000169952
-0.000235414
0.000237975
-0.000101855
-1.87609e-05
3.10723e-05
0.000286604
-0.000411443
0.000116477
8.36129e-06
-0.000150266
0.000270459
0.000165143
-0.000285336
-6.36755e-05
9.36537e-05
-1.84933e-05
-5.61851e-05
7.46784e-05
0.00144241
-5.40009e-05
-0.00025247
-0.000190196
0.000300293
-5.07798e-05
-7.27448e-05
5.36325e-05
2.06718e-06
-9.04031e-05
3.47035e-05
-6.01759e-05
0.00017654
-4.98513e-05
-6.92731e-05
0.000143023
-0.000123337
0.000365298
-0.000191473
-0.000165244
-0.000119312
2.62393e-06
-9.16736e-06
0.00010048
-7.71396e-05
0.000294125
0.000268688
-0.000190712
-5.13589e-06
-0.000106491
-0.000285711
0.000311781
0.000181019
-0.00012711
-0.000107407
9.20944e-05
-0.00010113
-6.95525e-05
7.8588e-05
0.000189505
-0.000249084
-9.12005e-05
8.82964e-06
-4.13853e-06
-4.47654e-05
0.000147634
0.000139992
-0.000258697
0.000126466
0.000168461
-0.000241899
6.83025e-05
-0.000390901
0.00020651
-0.000265034
-0.00027725
-0.000598609
0.000220849
0.00065501
0.000331194
-0.000195316
-0.000219245
8.33667e-05
0.000327165
0.000334121
-0.000193702
-0.000467585
0.000152168
0.00111813
-2.51513e-05
-0.000206399
-0.00026154
0.000455592
0.000137141
-0.00023335
0.000365199
0.00114875
0.00022466
0.000169643
-0.000147118
0.000145936
7.88975e-06
-0.000520724
-9.03013e-05
0.000104055
0.000276805
-0.000221497
-0.00012363
0.000111777
0.000548743
-1.04852e-05
-5.33451e-06
-0.000209797
0.000179052
0.000342527
-0.000536767
-0.000311739
-0.00041827
-0.000473496
0.000455362
0.000572682
0.000882227
-0.000637521
-0.000817388
-0.000232359
0.000413115
0.000688227
-0.000526617
-2.32265e-06
0.000468642
6.02985e-05
-0.000383659
0.000590285
-0.00053897
-0.000381876
0.000537187
-8.9767e-05
0.000224733
2.03183e-05
-0.000289817
-0.000282209
-0.000710763
-0.000136932
0.000739991
-0.000829586
0.000940101
0.000236631
0.000160295
-4.26384e-06
8.79465e-05
0.000563422
-0.00056106
0.000570321
0.000249044
-0.000105281
-0.000180987
3.72236e-05
0.000493342
-0.000389682
3.97668e-05
-5.53914e-05
-0.00118798
0.00115508
0.000751628
0.000369954
-0.000239355
0.000182224
-0.000142983
-0.0001802
0.000215776
0.000716818
0.000738342
0.000211361
2.39017e-05
-0.000973604
2.64086e-05
9.64659e-05
0.00051571
-0.000157783
4.42157e-05
-0.000167743
2.23972e-05
-0.000166587
0.000530866
-0.000445921
8.16419e-05
-0.000824197
0.000723619
0.000274751
-0.000380018
0.000230111
0.000142617
-0.000183223
0.000128783
-0.00015412
6.09657e-05
-9.86911e-05
7.40377e-05
0.000268146
0.000563757
-2.57566e-05
-0.000119036
0.000192118
0.00116547
-9.91251e-06
0.000162124
-5.96181e-06
-0.000353356
-0.000373186
-0.000445608
0.000497183
-0.000404931
-0.000969742
0.000574874
-0.000683937
-0.000156006
-0.000159175
-7.23747e-05
-0.000614599
0.000939155
-0.000103909
0.000148958
0.000181511
-0.000299657
-3.69822e-05
-0.000347544
0.000291192
-0.000963032
0.000465917
-0.000224546
-0.00102053
0.000661206
-0.00061042
-7.41951e-05
2.93069e-05
0.000686411
-0.000641523
0.000255992
0.000381179
-0.000109945
-0.000513857
0.000242623
0.000106586
-0.000157748
-0.000169865
0.000255206
-0.000287698
-2.25102e-05
-0.000303366
0.00063001
3.57985e-05
0.000334686
0.000441676
-0.000586067
0.000148836
0.00063577
0.00024612
-0.000217888
-0.000540114
-0.000692422
0.00127723
0.000170104
-9.00987e-05
0.000605507
0.000478748
0.000685662
-0.000673988
-0.000490422
-0.00026724
0.000394814
-0.000957041
4.97877e-05
-9.06378e-05
0.000646357
-0.000516181
0.000460984
-0.000333056
0.000338148
-0.000466076
0.00160456
-0.00103011
0.000404905
-0.000979353
0.000486878
0.000445165
-0.000605817
-0.000537374
0.00106909
-0.000883942
-0.000473046
0.000287901
0.000455801
-0.000511362
-0.000578143
0.000645123
-0.000573344
-0.000687192
1.61959e-05
-0.000410843
0.000405155
0.000330104
-0.000324416
-0.00133075
-6.04486e-05
0.000206246
0.000833779
8.5466e-05
0.000218065
-0.00113731
0.000449453
0.00057623
0.000223045
-4.2536e-05
-7.94376e-05
0.000440637
-0.000944347
0.00055619
-0.000332009
-0.000248791
0.000146434
0.000434366
-0.00053311
0.000723934
-0.000727979
0.000801052
-0.000431234
0.000481293
-4.60974e-06
0.00111887
-0.00110668
-0.000239911
-0.000604507
0.000907577
-0.000882879
-0.000338654
0.000523098
-0.0004368
0.00101698
-0.00104397
0.000982739
-0.00093319
-0.000394371
-5.91948e-05
-2.29599e-05
-0.000286158
0.000238746
0.000239142
2.24339e-05
0.000199018
2.75922e-05
-0.00022308
-0.000173235
-0.000197624
0.000140085
0.000205173
-0.000340253
-0.000499231
0.000380374
-0.000353966
-0.000731035
-0.000102751
0.000656014
-0.000870853
-0.000104019
-9.01421e-05
0.000839519
0.000813227
-8.25257e-05
-0.000168371
-1.67946e-05
-0.000910694
-0.000193495
-7.48865e-05
8.086e-05
-0.000936189
6.69985e-06
1.84926e-05
0.000896021
-0.000921213
-0.000305098
0.000104437
0.000327394
-0.000431831
-0.000318627
0.000247806
-0.000300192
0.000547996
-0.000708853
-0.000281435
-0.000133764
-0.000572462
-0.000235295
0.000409888
-0.000576621
-0.000334293
0.000826654
-0.000800909
-0.000711858
-0.0008915
0.00101971
0.000583647
-2.23344e-05
1.99967e-05
0.000909914
0.00013208
0.000222961
0.000696502
-0.000859304
0.000713865
-0.000169284
-0.00105099
0.00109996
0.000120315
-0.00112896
-4.99898e-05
2.63537e-05
-7.4244e-05
-0.000652316
-0.000383862
0.000654302
0.000214164
-0.000699072
-0.000125925
0.000688066
-0.000570449
-0.000163955
-0.00105696
-0.000465904
0.000451963
0.000148422
0.000142913
2.90246e-05
-6.78829e-05
-0.00065038
-0.000342188
0.000113366
-0.000241793
3.94221e-05
0.000202371
3.25825e-06
-2.94182e-05
2.72987e-05
0.000286931
-0.00130703
-5.84091e-05
0.00107851
-0.000379976
7.11955e-05
-7.42185e-06
-9.77494e-06
0.000576333
-0.000559136
-8.41584e-05
9.79669e-06
-0.000984599
-2.37031e-05
4.68637e-05
-0.000146791
-4.71759e-05
-1.19209e-05
2.60887e-05
0.000580062
-0.000319947
0.000102834
0.000265221
0.000505576
0.00026653
2.88641e-05
8.18468e-05
6.39113e-06
-0.000634
7.67081e-05
0.000170069
-0.000306185
0.00011929
-0.000159615
0.000280951
-3.62243e-05
4.00263e-06
-1.04109e-05
-3.10439e-05
7.31429e-05
-6.0554e-05
2.54153e-05
-0.000262136
0.00032082
-8.40989e-05
0.000895357
-0.000421253
0.000295868
9.29412e-05
3.24438e-05
-0.000119887
0.000145841
-0.000130336
8.93072e-05
-3.24804e-05
0.000119178
-0.000129404
3.05441e-05
1.83816e-05
-3.54831e-05
1.71014e-05
-6.43874e-05
4.85965e-05
-5.52008e-05
3.20977e-05
2.31031e-05
-5.18581e-05
4.91044e-05
2.75368e-06
-0.000100667
-0.000606829
-4.88816e-05
4.86539e-05
2.27658e-07
0.00022697
-0.00113036
0.00112204
-0.000447163
-0.00154606
-7.01251e-06
2.53941e-05
-5.92358e-05
0.000243604
1.32966e-06
0.000136245
-8.12524e-05
2.60517e-05
0.000124601
0.000775611
-0.000776998
-0.000382474
2.50852e-05
2.22791e-07
-1.14667e-05
-0.00045013
-0.0003685
-0.000348854
0.000406653
0.000165534
6.83072e-05
-7.02063e-05
1.09705e-05
-0.000399435
0.000334927
-0.000124279
-0.000445194
8.41452e-06
0.000473898
0.000286577
-0.000378445
0.000737479
-0.00010027
1.21098e-05
1.26393e-05
0.000689115
0.000377795
-0.000257608
0.000757348
6.94161e-05
0.000695468
-0.000509432
-3.81259e-06
-0.00013308
-0.000212436
0.000123253
0.000117543
-0.000177902
-6.28938e-05
-0.000263019
-2.5952e-08
-0.000653454
8.56008e-05
-0.000710152
-0.000443883
0.000401591
0.000752445
0.000556637
-0.000219064
-0.000118279
0.000207745
-0.000149004
-0.00022915
0.000120532
-2.06253e-05
0.000152244
-8.48768e-05
-2.95236e-05
-7.16486e-05
-0.000117616
0.000190594
-0.000100986
2.56521e-05
-4.97871e-05
-0.000245401
0.000165784
-4.63554e-05
-0.000383897
-0.000689875
0.000624543
0.000872034
4.67505e-05
-4.20965e-05
5.52282e-05
-0.000615109
0.000821264
-0.000112688
-0.000477652
0.000463318
-0.000416696
0.000383434
-5.29578e-05
1.92085e-05
1.39332e-05
1.98161e-05
-0.000395528
-3.79313e-05
-0.000221406
-0.000158369
0.000131731
2.66375e-05
6.19287e-05
-7.24117e-05
1.04831e-05
-6.80081e-05
-9.61085e-05
0.000174806
-0.000307247
0.000909823
0.000466511
-0.000102875
9.02006e-05
0.000215124
-0.000148893
-0.00024074
0.00045008
5.70944e-06
-0.00108274
-9.57516e-05
0.000319192
0.00125104
-0.00119157
4.42228e-05
-9.76536e-05
8.16937e-05
7.18571e-05
-0.000117747
0.000134295
0.000411961
-1.03188e-05
-7.26603e-07
0.000340915
-0.000301625
-0.000401919
2.61611e-06
-0.000896918
-0.00052637
-0.000336876
-0.000144774
7.9656e-05
-0.00033553
6.33084e-05
-0.000109203
6.2911e-05
-1.70168e-05
0.0002978
-2.87068e-05
-0.000266055
-1.81789e-05
-0.000131558
-0.000346506
0.000107327
0.000483868
-4.49141e-05
9.43102e-06
-0.000206748
-0.00105284
0.000201665
0.000362422
-0.000263763
-6.78081e-05
-7.51286e-06
-0.000375981
-0.000264938
0.000521883
-0.000123998
0.000406912
-0.000320244
0.000267586
-0.000251597
9.19238e-05
1.00694e-05
-0.000125696
-0.000138201
0.000600479
-0.000122447
9.31008e-05
-0.000188483
-0.000242088
-0.000792528
0.0010196
-0.000716242
0.000349824
-0.000525082
6.24612e-05
0.00102076
-0.000146452
0.000129763
-2.02433e-05
-0.000447981
0.000656488
-0.00054449
-9.00549e-05
-0.000268075
0.000202278
8.79445e-05
1.25667e-05
-0.000199202
0.000634892
-0.000489361
-0.000723674
0.000198967
0.000132878
0.000282611
2.52996e-05
3.6629e-05
-0.00010939
0.00121333
-2.45748e-05
-2.17899e-05
-0.000687259
5.00101e-05
-0.000877661
0.000581816
-5.83032e-06
0.000134965
-5.38048e-05
0.000307519
-0.000119293
0.000145748
0.000231398
3.57655e-05
7.12326e-05
-3.93912e-06
0.000636646
9.31119e-05
-0.000252655
0.000483214
0.000105883
-0.000181364
-5.47462e-05
-0.000282611
0.00011753
-0.000153369
8.64312e-05
0.000142334
-5.65317e-05
0.000385672
-0.000485724
-3.81482e-05
-0.000721214
-0.000528708
0.000457393
-3.11574e-05
5.42549e-05
0.000116462
-5.246e-05
-0.000103954
4.29835e-05
-0.000412058
0.000280684
0.00013698
1.15771e-05
2.14104e-05
0.000198725
-0.000171292
0.000175557
-0.000177808
3.73988e-06
-6.71384e-05
0.000967279
-0.000570144
-0.000191624
0.000669733
0.000312565
0.000163087
-0.000186923
5.32911e-06
0.00041147
-0.00118358
-0.000280731
-0.000177419
0.000649356
-0.000537926
-0.000139281
-0.000544888
0.000465418
-0.000224859
3.15406e-06
-8.17728e-05
-0.000739331
-0.000567418
-0.00131442
-0.00068942
0.000728573
-0.00043407
-6.36122e-05
0.000218349
1.79519e-06
-0.000156532
0.000209215
-0.000134865
-2.65217e-05
0.000250779
-0.000278363
-0.00018236
0.000518721
-0.000418747
0.000174558
-0.000160518
-0.000589775
0.00104887
-0.00105926
8.4085e-05
0.000391258
-0.000257049
0.000198092
0.000155988
-0.000227679
-5.06886e-05
3.46209e-05
3.62611e-05
-0.000329342
-0.00157195
-0.000527583
-0.000376447
0.000316822
0.000195232
-5.25517e-05
4.96784e-05
-0.000171681
-8.85364e-05
3.53589e-05
-1.9292e-05
-0.000117787
-6.91955e-05
-0.000216826
-1.31429e-05
-0.000558799
0.000549175
-0.000515971
0.000515321
3.3854e-05
-0.00053355
0.000459742
7.38079e-05
-0.000456011
-5.99603e-05
3.73087e-06
-0.000756799
0.000755885
-0.000553261
0.000563117
-9.85587e-06
-0.000514098
-0.000702532
-5.42672e-05
0.000723728
0.000691869
3.18585e-05
-0.000623942
-0.000439593
0.000544768
-0.000490942
-5.38259e-05
-0.000344038
-9.55552e-05
-0.000247825
-9.62128e-05
0.00018189
-0.000124428
-6.59355e-05
0.00067568
1.61893e-05
0.00069414
-1.84599e-05
0.000714781
-4.16095e-08
0.000580661
-0.00038055
0.000141223
-2.06908e-05
-0.000168562
-0.000451791
0.000154278
-0.000263898
0.000139287
1.91958e-05
0.000170784
0.000321509
-0.000391627
-0.000800574
0.000240903
-1.53083e-05
5.73266e-05
0.000498988
-0.000662571
0.000387212
-0.000434793
0.000229611
0.000162693
0.000107774
2.39572e-05
-0.000869775
-0.000101732
0.000148092
0.000213499
-9.36756e-05
8.94167e-05
-0.000843033
-0.000189218
-0.00151219
0.000645853
0.000320388
-0.000254904
-1.37312e-05
0.000707268
0.000438117
-0.00059613
-6.60748e-05
7.27788e-05
0.00109631
-0.00130617
8.32638e-05
1.28255e-05
-9.60893e-05
0.00128706
3.7268e-05
5.89326e-05
0.000214253
-0.000216656
0.000169974
-4.40468e-05
0.000308439
0.000590813
-0.000716869
-0.000363306
-4.73984e-05
-0.000227992
-0.000394732
0.000252926
0.000703597
0.000810198
-0.000859267
-0.000285919
-0.000102615
0.000138332
0.000105945
0.000265352
-0.00017617
0.000180837
-0.000534387
-0.00083388
-0.000212011
-0.000129185
0.00024278
-0.000166345
0.000214472
-0.000290908
0.00024401
0.000236442
-0.000225765
0.000171293
-0.00024951
7.82323e-05
-0.000279658
0.000418419
0.000103728
2.1718e-05
-5.19416e-05
-2.97908e-05
8.2457e-05
0.000278171
0.000484529
-0.00074228
5.27447e-05
-0.000145147
0.000655553
0.000680023
-0.000160094
-5.25489e-05
-0.000490728
-0.000661979
0.000651494
-0.000188946
1.15268e-05
-0.000915789
0.00071415
-0.000166255
-0.000285741
0.000129813
3.11451e-05
0.000176564
0.00056145
-0.000745974
-0.000120111
0.000246744
0.000113824
5.26385e-05
3.81692e-07
-0.000614429
1.10629e-06
-6.44956e-06
-3.27261e-05
0.00043451
0.000137066
0.000441224
0.000468878
-0.000161895
0.000117152
0.0001369
-0.000224795
3.36937e-05
5.28417e-05
-2.29947e-05
-6.91031e-05
0.000300863
-4.61364e-05
1.79581e-05
-0.00060669
-0.00139133
0.00115078
0.000377236
-0.000229036
0.000819079
0.000198216
8.4396e-05
7.9468e-05
5.03188e-05
-0.000222802
0.000283498
-9.87194e-05
3.03896e-05
0.000139562
-3.40145e-05
4.25275e-05
-0.000231593
8.62578e-05
-0.000126381
0.000180208
0.000756056
0.000511951
-0.000401044
-0.000106046
0.000248834
-0.000181837
-0.000349607
-1.63153e-05
-3.34894e-05
-0.000297667
0.000271532
-0.000274846
2.47713e-05
0.000522411
-0.000602591
5.54087e-05
-0.000232706
-4.20585e-05
-6.6982e-06
4.53872e-05