/*--------------------------------*- C++ -*----------------------------------*\
| =========                 |                                                 |
| \\      /  F ield         | OpenFOAM: The Open Source CFD Toolbox           |
|  \\    /   O peration     | Version:  v1912                                 |
|   \\  /    A nd           | Website:  www.openfoam.com                      |
|    \\/     M anipulation  |                                                 |
\*---------------------------------------------------------------------------*/
FoamFile
{
    version     2.0;
    format      ascii;
    class       volScalarField;
    location    "0.1";
    object      nut;
}
// * * * * * * * * * * * * * * * * * * * * * * * * * * * * * * * * * * * * * //

dimensions      [0 2 -1 0 0 0 0];


internalField   nonuniform List<scalar> 
1431
(
0.00133216
0.00273952
0.00120007
0.00177174
0.00115239
0.000825711
0.00111707
0.000782081
0.00204645
0.000855417
0.000713353
0.000709375
0.00127376
0.00155883
0.00171257
0.000636679
0.00162665
0.000768751
0.000216923
0.000726544
0.00128108
0.00081731
0.00102526
0.0017325
0.00161325
0.000803267
0.0016378
0.00140942
0.00101259
0.00150754
0.00334211
0.000819487
0.0010022
0.000528644
0.000497883
0.0014696
0.00146932
0.000858246
0.000942312
0.000857095
0.00352387
0.00137015
0.0010356
0.000838699
0.00133469
0.00123735
0.00141602
0.000815293
0.00192396
0.000875868
0.00117685
0.000807643
0.00119835
0.00114363
0.00100945
0.000742163
0.000799806
0.0008856
0.00107466
0.000826319
0.00171116
0.0010434
0.00137325
0.000781441
0.000935983
0.000929213
0.00120782
0.000506161
0.00124826
0.000747975
0.000566397
0.000483387
0.00173124
0.00080154
0.00111664
0.000656572
0.00132533
0.00118999
0.000777459
0.00236264
0.000804197
0.00091467
0.00121129
0.00230851
0.00244338
0.00119949
0.00106606
0.000841981
0.00193762
0.00114045
0.00105409
0.000916609
0.00106304
0.000860894
0.00071184
0.00127197
0.00111234
0.000723382
0.000916188
0.00270727
0.00112603
0.000801264
0.00119665
0.001089
0.00115665
0.000953758
0.000781929
0.00385752
0.0036805
0.00118902
0.00271865
0.000920602
0.000754403
0.00126067
0.00110782
0.00108107
0.000766109
0.00250569
0.00218236
0.00123053
0.000849308
0.000995336
0.000838978
0.00262962
0.000830706
0.00148122
0.00246538
0.00152714
0.00146868
0.000807594
0.000887301
0.00356404
0.0010439
0.00114399
0.001062
0.00100627
0.00157271
0.000856269
0.00115818
0.00359292
0.00132999
0.000574986
0.000766981
0.00214105
0.0022341
0.000774244
0.000726179
0.00391941
0.00148274
0.00166236
0.000818132
0.00100331
0.00233672
0.000710152
0.000395638
0.00143127
0.000801736
0.00104284
0.000752424
0.00093696
0.000818265
0.00101989
0.00121096
0.000973725
0.0010411
0.00332021
0.00126264
0.000857919
0.00135131
0.00144545
0.00176197
0.00101285
0.00307868
0.00076821
0.000768352
0.000527675
0.000423089
0.000883728
0.00159869
0.000724311
0.000838763
0.00208754
0.000743143
0.00151176
0.00077206
0.00136784
0.000753481
0.00129069
0.000972863
0.000798206
0.0026797
0.00160667
0.00142923
0.000788036
0.00183491
0.00083375
0.000780741
0.000860744
0.000708108
0.000661988
0.000767063
0.000682738
0.00135246
0.00297847
0.000782804
0.00216788
0.00121035
0.000833944
0.00110695
0.000885597
0.000787569
0.000774547
0.00315172
0.000831457
0.00068302
0.00100876
0.000747032
0.00282327
0.00247942
0.000833403
0.000829935
0.00262711
0.000776112
0.00125732
0.000825602
0.000884513
0.00211607
0.00135695
0.00099791
0.00362769
0.00114989
0.00126059
0.000744021
0.000797024
0.000788751
0.000777919
0.00073201
0.001448
0.000825981
0.0018325
0.00084024
0.00111586
0.00181862
0.0014823
0.00129838
0.00120019
0.000830125
0.000870432
0.000808164
0.00146409
0.000824826
0.00190545
0.000821026
0.000988482
0.00143777
0.00113542
0.000497186
0.00188516
0.00117129
0.001146
0.00112199
0.00106747
0.00094669
0.00132995
0.000787016
0.00092559
0.00106057
0.000737505
0.000799887
0.00144198
0.0007396
0.00215724
0.000770687
0.000743505
0.00110933
0.000761239
0.00115056
0.00143054
0.000924756
0.000915508
0.00218957
0.0020069
0.00191087
0.00111591
0.00106161
0.0014472
0.00116357
0.000720732
0.00125411
0.00083159
0.000775362
0.000873607
0.000703871
0.0021536
0.000921069
0.000742712
0.00146142
0.000746688
0.00206279
0.000812875
0.000842833
0.0024427
0.00206443
0.000990902
0.000869604
0.00231049
0.000827842
0.00114373
0.00115376
0.000873561
0.000835329
0.000782818
0.00309402
0.000712025
0.000884143
0.00252628
0.00100148
0.0023697
0.000794716
0.00114721
0.00224632
0.0010774
0.00150393
0.00227724
0.0017105
0.00111466
0.000805273
0.00114528
0.00351652
0.000830554
0.00285003
0.00167372
0.0018077
0.00255684
0.000784466
0.00179915
0.0013664
0.00103518
0.00112204
0.00122495
0.000681583
0.000821762
0.00108521
0.000934731
0.00110605
0.000756677
0.000826203
0.000364575
0.000330491
0.00033102
0.000577579
0.000261421
0.000358246
0.000343258
0.000573045
0.000829632
0.000301331
0.000709492
0.000355082
0.000477447
0.000586827
0.000640572
0.000353086
0.000340796
0.000396777
0.000341982
0.000423609
0.000464471
0.00302623
0.00246446
0.0029058
0.00165668
0.00110438
0.00110485
0.00225725
0.00282145
0.00283333
0.000841645
0.000848841
0.000460948
0.000275533
0.000379771
0.000412182
0.00032786
0.000567723
0.000376596
0.000541793
0.000642764
0.000342749
0.000328633
0.000412002
0.00136179
0.00172006
0.000848691
0.00113659
0.00068148
0.000963633
0.000834573
0.00166093
0.000768053
0.000545515
0.00283984
0.000832526
0.000935766
0.00294441
0.000744954
0.00193845
0.000902497
0.000864435
0.00260409
0.000830953
0.000999592
0.000814168
0.00186194
0.00222837
0.00102357
0.00263474
0.00135363
0.00107583
0.000903679
0.0024896
0.00164295
0.00100395
0.00332496
0.00162224
0.00259946
0.00314893
0.00200497
0.0014223
0.00243589
0.00126974
0.00309771
0.000945509
0.00223035
0.00221633
0.0024753
0.00176153
0.00219765
0.0032476
0.00111518
0.00103465
0.000626341
0.00231154
0.0024793
0.00106733
0.00201122
0.00191188
0.00314124
0.00117002
0.00194748
0.00207801
0.0010686
0.00191763
0.000940645
0.00151576
0.000923801
0.00102472
0.00113278
0.000968669
0.0021494
0.00136675
0.000469081
0.00100142
0.00106505
0.00168924
0.00125665
0.000864196
0.00117631
0.00100433
0.0011651
0.00166899
0.000880817
0.000983388
0.00106334
0.00097697
0.00113752
0.00189927
0.00175759
0.00148862
0.000623572
0.00154108
0.000873753
0.0010605
0.000799273
0.00137024
0.000855551
0.000968642
0.00133022
0.00125317
0.00110249
0.00108385
0.000527154
0.00118666
0.00198162
0.000573297
0.000888667
0.000787955
0.00282921
0.000837164
0.00288899
0.000949318
0.00134766
0.00201044
0.00232826
0.0025136
0.00318078
0.0011672
0.00115653
0.00132048
0.00060569
0.000547827
0.00313484
0.000741861
0.00278952
0.000791468
0.00117104
0.00166745
0.00112294
0.00143568
0.00147247
0.00320665
0.00328267
0.00311095
0.000861678
0.000889722
0.00155093
0.00227602
0.00134247
0.00318201
0.00250347
0.00142378
0.000991208
0.00314058
0.00316403
0.00122908
0.00141263
0.00186991
0.00256718
0.0020413
0.00139076
0.0023101
0.00161012
0.00270511
0.000790785
0.000310661
0.00129874
0.00224194
0.00079318
0.0012085
0.00136102
0.00294665
0.000576243
0.00111799
0.00137422
0.00190814
0.00268737
0.00174115
0.002786
0.00107739
0.000737829
0.00201619
0.00296352
0.00168551
0.00162581
0.00112097
0.000803567
0.00210598
0.000700584
0.00202308
0.00251287
0.000436581
0.00161444
0.0016396
0.00146708
0.00145463
0.00104077
0.00197796
0.00200855
0.00298737
0.000791372
0.000929784
0.000795552
0.00237923
0.00233252
0.00219363
0.00265378
0.0025029
0.000738366
0.00102169
0.000875647
0.000797935
0.000901541
0.000848169
0.000730985
0.000729225
0.00281712
0.00100806
0.00281928
0.00069927
0.000793853
0.00260783
0.00266015
0.00132133
0.00230252
0.00207815
0.00151082
0.00104931
0.00145101
0.00140029
0.00150719
0.00108738
0.00197639
0.000918796
0.00186996
0.0012791
0.000707806
0.00235801
0.00122372
0.00181794
0.00139428
0.00134758
0.00278849
0.000853517
0.00158268
0.00296603
0.00100126
0.00137782
0.00103224
0.00180965
0.00080294
0.00152676
0.000964143
0.000648157
0.000803812
0.00206257
0.00139361
0.00143487
0.000687443
0.000861622
0.00102442
0.00239269
0.00115402
0.000805041
0.00187669
0.0031578
0.00195372
0.0024637
0.00118743
0.000783643
0.00100182
0.000847161
0.00249607
0.000735297
0.000995561
0.00124468
0.00160033
0.000819586
0.00084104
0.00253463
0.00176819
0.00230211
0.00100606
0.00100891
0.000987101
0.000827105
0.000785573
0.000848048
0.001141
0.00159471
0.00216561
0.00102859
0.000821372
0.000934416
0.00222857
0.00144831
0.00138749
0.00102115
0.000794532
0.00137649
0.000814209
0.00212678
0.000565669
0.00104204
0.000776492
0.00252567
0.00275733
0.00175753
0.00205966
0.00246563
0.000952579
0.00377054
0.00222255
0.00225568
0.0014753
0.00198739
0.00144543
0.000352115
0.000439733
0.000823928
0.000705963
0.00216967
0.00149896
0.000720964
0.00143987
0.0011176
0.00129775
0.000929139
0.00173677
0.000850203
0.0032528
0.0016192
0.000956723
0.00121316
0.00102453
0.00180076
0.000635492
0.00258337
0.00199054
0.000749246
0.0012109
0.000644466
0.000836907
0.000801114
0.00202001
0.00126091
0.000626312
0.000855201
0.00169883
0.00080353
0.000677657
0.000972941
0.000595015
0.000785088
0.000750335
0.00193849
0.000728445
0.00106328
0.00263583
0.0018489
0.00106209
0.00217671
0.00171919
0.00076475
0.00113169
0.000781061
0.000663505
0.000746738
0.00110452
0.00215077
0.00187515
0.00128909
0.000711145
0.000730117
0.000728137
0.00106105
0.000995792
0.000845057
0.00084623
0.000879328
0.00275585
0.000596398
0.0012682
0.00124919
0.00136845
0.000853946
0.00095585
0.00104577
0.00159178
0.000796315
0.000724727
0.00233744
0.00217954
0.00100494
0.00115626
0.00153298
0.000764604
0.000943881
0.00179546
0.00240226
0.00178634
0.00177754
0.000343386
0.000740533
0.00143906
0.000818704
0.00228319
0.000944664
0.00102239
0.000778138
0.00301791
0.00112779
0.000745016
0.000733672
0.000924274
0.000847846
0.000834383
0.0010442
0.00126145
0.00183962
0.000802971
0.00215011
0.00179959
0.000821981
0.00135498
0.000363131
0.00284127
0.00156265
0.000834266
0.000892063
0.00136767
0.000827735
0.000804715
0.000944868
0.00103491
0.00195601
0.000832657
0.000671572
0.000594327
0.000538128
0.000648019
0.000836377
0.000731371
0.000753086
0.00277532
0.00211825
0.000775623
0.00168916
0.00177648
0.0013108
0.0010497
0.000425153
0.000815768
0.00078277
0.000896797
0.00101283
0.00106409
0.00253942
0.00116708
0.00073093
0.00232985
0.000762976
0.0011129
0.000722949
0.000663061
0.00179508
0.000934848
0.00111428
0.00274825
0.00275575
0.000817059
0.00260091
0.00305976
0.00216437
0.000301094
0.00151523
0.000893947
0.000776921
0.000909174
0.000837639
0.00087214
0.000804191
0.00110475
0.00148024
0.000881253
0.00193695
0.00136476
0.000799885
0.000737653
0.000919795
0.00109693
0.0013998
0.00156418
0.00105485
0.00268815
0.000850161
0.000764413
0.00112521
0.000970687
0.00142793
0.000816875
0.000944997
0.00132719
0.000973257
0.000859763
0.000741977
0.00135085
0.000978803
0.00129274
0.00129378
0.000837474
0.000883039
0.0018666
0.000896218
0.000824125
0.00153839
0.00141638
0.000892499
0.000981957
0.0017542
0.00170232
0.00128039
0.00113079
0.00111343
0.00127073
0.000859364
0.000903706
0.00085716
0.00149791
0.000875177
0.0002417
0.00090847
0.00080299
0.00216934
0.000809497
0.00104662
0.00264841
0.0030685
0.000869168
0.00108526
0.0015351
0.00230577
0.000775883
0.00106648
0.00081259
0.000791218
0.00109878
0.00139138
0.000728569
0.0010252
0.00081648
0.00168845
0.000694926
0.00147106
0.000484844
0.00040755
0.000455197
0.000516775
0.000374012
0.000368194
0.0017927
0.00038228
0.000413217
0.000817801
0.00037494
0.00135724
0.000446931
0.00280358
0.0012505
0.000836353
0.000441188
0.00125225
0.000453853
0.000685957
0.00224181
0.00220451
0.00137321
0.000382957
0.000904125
0.00212139
0.000957852
0.00104854
0.00168377
0.000916063
0.000858422
0.00268443
0.000450291
0.000406232
0.000924648
0.000393403
0.00311318
0.00182816
0.00102025
0.00259337
0.00108203
0.00113945
0.000941496
0.000814622
0.000440786
0.000436728
0.000595305
0.00261307
0.000819959
0.00235401
0.00216265
0.000986112
0.000790877
0.000549369
0.00169152
0.000497626
0.00105437
0.000541144
0.000821347
0.00219074
0.00289226
0.000830241
0.00129532
0.001685
0.000911189
0.00267832
0.00116312
0.000426815
0.000488391
0.000817382
0.00106901
0.000947318
0.00076728
0.000796305
0.00162991
0.000845946
0.00109402
0.00172455
0.000892879
0.000811013
0.00072955
0.000913009
0.00200312
0.00146465
0.00136483
0.000700977
0.00146838
0.00248062
0.00104833
0.00185983
0.00110688
0.00116628
0.00118617
0.00257315
0.00096948
0.000598827
0.00362634
0.00178409
0.000841298
0.00319267
0.00197859
0.00118568
0.00125428
0.00184642
0.000837259
0.00190565
0.000864618
0.00138495
0.00114884
0.0009631
0.00114412
0.00210826
0.00117697
0.00128816
0.00155763
0.000696537
0.00177943
0.000919183
0.000623927
0.00140233
0.00236067
0.000974507
0.000915846
0.000825964
0.000841152
0.00077764
0.000814412
0.00192719
0.00193814
0.000846195
0.00080023
0.000863072
0.00112341
0.00087146
0.00077579
0.000840318
0.00136895
0.00106368
0.000796558
0.000787042
0.00139628
0.000818809
0.00193993
0.000468602
0.00080741
0.000791346
0.000802744
0.000464134
0.00157344
0.00142191
0.000777383
0.00104386
0.000551726
0.00101284
0.000963959
0.000813913
0.00170608
0.000935157
0.000743931
0.00144092
0.000838499
0.000533909
0.000491347
0.00190612
0.000833594
0.00147433
0.00149375
0.00170411
0.000489407
0.000947037
0.000914339
0.000404697
0.000871314
0.00235534
0.0010521
0.00127806
0.000817697
0.000854768
0.00167675
0.00176811
0.000681814
0.000738194
0.000862802
0.0027536
0.00110246
0.000861505
0.000799775
0.00111017
0.00100884
0.000790305
0.00043242
0.000940727
0.000511333
0.00108602
0.00058951
0.00106261
0.000918918
0.000788412
0.000283519
0.00128452
0.00172074
0.000983829
0.00152087
0.00324841
0.000979671
0.00116531
0.000848117
0.000866644
0.00103135
0.00202427
0.000927659
0.00115913
0.000797942
0.000847127
0.000641027
0.00219858
0.000820703
0.00128979
0.000950041
0.00105218
0.00173505
0.00114497
0.000741358
0.00239487
0.00127848
0.000527332
0.000833314
0.00144282
0.000347081
0.000801592
0.000780094
0.00120905
0.00344084
0.000654062
0.000903761
0.000935572
0.000485611
0.00084055
0.000934776
0.00173968
0.000825791
0.000837514
0.000839717
0.000762122
0.000292343
0.000944493
0.00118447
0.000520295
0.00139599
0.000712113
0.00147112
0.00118813
0.000826424
0.00147998
0.00170574
0.000592095
0.000903616
0.00107229
0.00132277
0.000870126
0.000477985
0.00188827
0.00164142
0.000901517
0.000986494
0.00149356
0.00073551
0.00181133
0.000851089
0.000782951
0.00118515
0.00170554
0.000907618
0.000850657
0.00144283
0.00161586
0.000842456
0.000819735
0.00101095
0.00128075
0.00104793
0.00105101
0.000877292
0.00120518
0.00315174
0.00239999
0.00197999
0.00089222
0.0013494
0.000473736
0.000554023
0.00174573
0.000749874
0.00110241
0.00114106
0.000771877
0.000844337
0.00091297
0.0023256
0.00115587
0.000932399
0.000384037
0.00173746
0.00119598
0.0011023
0.00155025
0.00116404
0.000835516
0.00275204
0.00134455
0.00102487
0.000856338
0.000898007
0.000833292
0.0011209
0.0027897
0.000869078
0.00105308
0.000895978
0.000787864
0.000678438
0.00265231
0.00172911
0.00241785
0.000621717
0.00162324
0.000908033
0.00144358
0.00179287
0.00212255
0.00111282
0.000768893
0.000843965
0.00275695
0.00109836
0.00144645
0.00193575
0.002478
0.000943897
0.000777282
0.000826216
0.00073281
0.000812427
0.000868498
0.00126394
0.000838037
0.00107664
0.000555291
0.0030771
0.00087145
0.00103583
0.00291706
0.00255139
0.00171536
0.00188877
0.000826359
0.000894281
0.00204091
0.00115066
0.00118109
0.00143723
0.00156766
0.000845873
0.000641467
0.00166028
0.00132177
0.00101559
0.00172695
0.000778678
0.00187534
0.00169278
0.000958601
0.00183901
0.000876825
0.000773471
0.00244484
0.00111422
0.000844755
0.00080894
0.00118252
0.00112725
0.00273653
0.00127258
0.00255652
0.00168297
0.000791388
0.000969856
0.00136865
0.000483807
0.00155688
0.00101972
0.00143062
0.00154775
0.00107253
0.000854355
0.000942389
0.00113207
0.00187519
0.0029398
0.00136499
0.00128495
0.000741389
0.00113432
0.00225247
0.000815829
0.0012144
0.00113875
0.000854858
0.00281006
0.00175817
0.000826443
0.00034699
0.000912856
0.00165415
0.000799403
0.000447241
0.00123793
0.00106395
0.000682002
0.00165188
0.00265896
0.000917728
0.00111905
0.000627156
0.000876756
0.00128368
0.00294969
0.000875691
0.00162343
0.00090753
0.00157001
0.00136496
0.000570338
0.00111483
0.000722903
0.00168807
0.000696421
0.000959255
0.00149641
0.00109411
0.00153729
0.00265618
0.000760958
0.00225392
0.0017919
0.000878085
0.00107533
0.000765009
0.00127398
0.00132124
0.00371773
0.000807138
0.00104947
0.00187835
0.000842792
0.00278904
0.00107035
0.00105986
0.00159144
0.00148034
0.000740164
0.00169443
0.00162974
0.00126102
0.0016177
0.00105991
0.000811494
0.00157386
0.000837303
0.000829816
0.00144211
0.00107743
0.00147763
0.000879215
0.00091887
0.000917774
0.000789446
0.00180087
0.000983016
0.0017288
0.000903
0.000738187
0.0007552
0.00174004
0.000973377
0.00197799
0.000862853
0.00222561
0.000807548
0.000736397
0.000949781
0.000806602
0.000598958
0.000653002
0.00124014
0.000481038
0.000504454
0.000641033
)
;

boundaryField
{
    frontAndBack
    {
        type            empty;
    }
    wallOuter
    {
        type            nutkWallFunction;
        Cmu             0.09;
        kappa           0.41;
        E               9.8;
        value           nonuniform List<scalar> 
90
(
7.88967e-05
7.67593e-05
7.78105e-05
7.56842e-05
9.64444e-05
9.45115e-05
9.03964e-05
9.36582e-05
8.00436e-05
8.77617e-05
8.71594e-05
9.55067e-05
8.68591e-05
9.16481e-05
8.8641e-05
8.83713e-05
9.96964e-05
8.10567e-05
7.19295e-05
6.52017e-05
7.82732e-05
0.000100088
8.79867e-05
9.01974e-05
8.00136e-05
0.000102785
0.000107591
8.77002e-05
9.66636e-05
6.33142e-05
5.56372e-05
6.03858e-05
6.6485e-05
4.96887e-05
4.57018e-05
4.47894e-05
5.57494e-05
5.50309e-05
8.4154e-05
4.61367e-05
5.66408e-05
4.99878e-05
0.000112293
4.79246e-05
5.50986e-05
5.38754e-05
6.26087e-05
0.000125519
6.60597e-05
0.000108751
0.000108336
7.50303e-05
7.53762e-05
9.754e-05
9.5514e-05
5.64768e-05
6.71993e-05
0.000120964
0.000113298
8.94116e-05
6.46572e-05
6.25545e-05
6.0556e-05
0.000111359
9.80345e-05
8.29837e-05
9.89518e-05
5.28448e-05
0.000114271
6.47074e-05
6.32815e-05
4.18902e-05
7.56032e-05
6.07649e-05
0.000100785
6.13173e-05
7.164e-05
0.000103962
5.87645e-05
0.000109842
5.74021e-05
0.000113395
4.66283e-05
7.5127e-05
7.04569e-05
6.02037e-05
0.000100888
4.20037e-05
8.22716e-05
8.38916e-05
)
;
    }
    inlet
    {
        type            calculated;
        value           uniform 0.000851986;
    }
    outlet
    {
        type            calculated;
        value           nonuniform 0();
    }
    wallInner
    {
        type            nutkWallFunction;
        Cmu             0.09;
        kappa           0.41;
        E               9.8;
        value           nonuniform List<scalar> 
138
(
8.13859e-05
2.37996e-05
0.000119546
6.55536e-05
6.10696e-05
0.000165158
0.000146189
6.5487e-05
6.91532e-05
5.93973e-05
7.99925e-05
0.000125048
8.89297e-05
5.07717e-05
6.74175e-05
5.16877e-05
8.93355e-05
8.2869e-05
9.36056e-05
8.31874e-05
0.000149638
0.000134511
5.49006e-05
0.000137718
0.000135286
0.000133224
0.000124848
0.00013202
0.000125098
0.000135229
0.00013596
8.45458e-05
9.16759e-05
4.47353e-05
4.05392e-05
4.08688e-05
6.73154e-05
3.09865e-05
4.28667e-05
4.18446e-05
6.38342e-05
8.91284e-05
3.61094e-05
8.48522e-05
4.52816e-05
5.95597e-05
6.46314e-05
6.98702e-05
4.24012e-05
4.20695e-05
4.93367e-05
4.23459e-05
4.79794e-05
5.65105e-05
6.1362e-05
3.30501e-05
4.66936e-05
5.13289e-05
3.9298e-05
6.42177e-05
4.4119e-05
6.83835e-05
7.47807e-05
4.24099e-05
4.03265e-05
5.07732e-05
6.78304e-05
0.000120929
0.000118589
0.00010715
7.2606e-05
0.000124671
0.000127887
5.33325e-05
0.000122925
7.11565e-05
0.000122636
0.00012309
0.000123783
6.06858e-05
6.61381e-05
9.82926e-05
0.000154211
7.07485e-05
6.52354e-05
0.000132028
3.7788e-05
7.18617e-05
0.000131582
0.000126994
5.47282e-05
9.72435e-05
8.20838e-05
9.55939e-05
7.08193e-05
4.36418e-05
5.50178e-05
7.53632e-05
7.55908e-05
9.22722e-05
7.12521e-05
0.000122882
0.000174208
4.23159e-05
0.000108492
4.49667e-05
5.06738e-05
0.000137115
9.45713e-05
3.68785e-05
2.93515e-05
0.000131048
4.73388e-05
5.18067e-05
5.55848e-05
0.000127974
9.56997e-05
6.92146e-05
5.22825e-05
6.13371e-05
8.68468e-05
6.01697e-05
9.78754e-05
5.05731e-05
3.46249e-05
0.0001106
0.000102475
8.05906e-05
3.56833e-05
9.97043e-05
7.11272e-05
9.11224e-05
0.00011103
9.68364e-05
7.23141e-05
0.000143546
5.93454e-05
7.51179e-05
)
;
    }
    procBoundary0to1
    {
        type            processor;
        value           nonuniform List<scalar> 
29
(
0.00107315
0.00110337
0.00106922
0.00106922
0.00148684
0.00148684
0.00338182
0.000519851
0.000706599
0.000980871
0.000825804
0.000789589
0.000529807
0.000558895
0.0036109
0.00228105
0.00145563
0.00129262
0.00104161
0.00106294
0.00129361
0.000961357
0.00112652
0.000912217
0.000851747
0.00129262
0.000919542
0.0009286
0.000912217
)
;
    }
    procBoundary0to2
    {
        type            processor;
        value           nonuniform List<scalar> 
42
(
0.000810721
0.000834712
0.000993736
0.00103053
0.00110896
0.000810721
0.000993736
0.000942772
0.00100867
0.00087274
0.00116329
0.00115922
0.00116329
0.00108864
0.0010257
0.000780303
0.0010257
0.000854663
0.000917181
0.000961145
0.000961145
0.000854663
0.000853502
0.000833842
0.000833842
0.000886746
0.000779435
0.000933235
0.000766163
0.000861129
0.000861129
0.000974823
0.000993115
0.000988263
0.000993195
0.000993736
0.000905322
0.000485325
0.000766163
0.000942772
0.000927755
0.00100189
)
;
    }
}


// ************************************************************************* //
