/*--------------------------------*- C++ -*----------------------------------*\
| =========                 |                                                 |
| \\      /  F ield         | OpenFOAM: The Open Source CFD Toolbox           |
|  \\    /   O peration     | Version:  v1912                                 |
|   \\  /    A nd           | Website:  www.openfoam.com                      |
|    \\/     M anipulation  |                                                 |
\*---------------------------------------------------------------------------*/
FoamFile
{
    version     2.0;
    format      ascii;
    class       volScalarField;
    location    "0.13";
    object      nut;
}
// * * * * * * * * * * * * * * * * * * * * * * * * * * * * * * * * * * * * * //

dimensions      [0 2 -1 0 0 0 0];


internalField   nonuniform List<scalar> 
5794
(
0.00110038
0.000876363
0.0031903
0.00100655
0.0010682
0.000759465
0.00083446
0.000538495
0.00134187
0.0010844
0.000840269
0.000867158
0.000658478
0.000981418
0.00083324
0.000789258
0.00375154
0.000747398
0.000670733
0.000752967
0.00180431
0.0010128
0.000527226
0.000689642
0.000576299
0.00320502
0.003527
0.00143882
0.00105917
0.00112186
0.000762096
0.00122847
0.000669985
0.00116013
0.00112022
0.000804973
0.000784904
0.000759278
0.000629901
0.00120033
0.00180238
0.000802694
0.000838146
0.00086598
0.000807829
0.000555833
0.00102548
0.000604435
0.000973461
0.00101004
0.000337485
0.000617681
0.000923035
0.00124907
0.0001415
0.000805033
0.000984829
0.000670266
0.000949887
0.00395245
0.00142388
0.000465321
0.00087488
0.00236342
0.000852695
0.000822123
0.00287329
0.000619285
0.000779799
0.000595703
0.000767416
0.00235385
0.0035
0.00074567
0.000723639
0.00131326
0.000259521
0.00300188
0.00103112
0.000161494
0.00120754
0.000807479
0.00173672
0.000702885
0.000818493
0.000312874
0.000481497
0.000399816
0.000964131
0.000845367
0.0015254
0.00105512
0.000700865
0.000792503
0.000766464
0.00100633
0.00126571
0.000703245
0.00101109
0.001554
0.00147499
0.00092078
0.00102519
0.00131001
0.000736271
0.000869772
0.000522496
0.000431584
0.00138981
0.00113135
0.000654737
0.00100699
0.00160614
0.000820169
0.000771878
0.000687388
0.00107333
0.000703292
0.00130867
0.00100017
0.00075002
0.000363052
0.000549541
0.00147592
0.0013456
0.00223379
0.000625752
0.000845568
0.00109361
0.000799416
0.000816275
0.00059337
0.000825398
0.00294251
0.000829943
0.000951411
0.00401893
0.000520946
0.000861828
0.00103054
0.00300366
0.00103085
0.00124767
0.00118836
0.00103513
0.00542028
0.000684148
0.00242911
0.000930765
0.000892492
0.000747203
0.00132405
0.000857575
0.00054102
0.00466408
0.000879916
0.000445927
0.000456363
0.000449634
0.000749813
0.000883573
0.000478022
0.000506793
0.000515476
0.000564978
0.000456373
0.000505531
0.000369156
0.000477763
0.000460326
0.000583339
0.000962989
0.00041979
0.00049003
0.000506815
0.000507711
0.000551692
0.00054642
0.000632136
0.000901614
0.000370771
0.000752876
0.000326791
0.000332457
0.000356152
0.00242293
0.000828843
0.000407249
0.00055374
0.000663831
0.000857704
0.000984958
0.00045093
0.00043821
0.000340878
0.000418973
0.000353869
0.000489535
0.000749676
0.00116953
0.000644342
0.000491502
0.0003868
0.00037299
0.000961987
0.000416418
0.000439783
0.000830111
0.000876292
0.00171264
0.00143026
0.00085971
0.000863406
0.000970186
0.000816955
0.000793643
0.000745654
0.000742401
0.000810137
0.00150703
0.000859964
0.000821887
0.00132467
0.00106528
0.00302164
0.00170167
0.00101491
0.00142516
0.000544844
0.00102358
0.000797501
0.000814069
0.000754471
0.00127412
0.000906829
0.00152718
0.00118295
0.00399855
0.000515845
0.00114694
0.000857452
0.00107609
0.0022439
0.000719389
0.000870972
0.00069876
0.000916492
0.000737289
0.000449368
0.000304257
0.000384528
0.000845054
0.00471466
0.000681872
0.000778597
0.0012491
0.00125808
0.00132417
0.000759211
0.00150132
0.00462442
0.000863862
0.000872455
0.000695467
0.000518001
0.000441031
0.00099591
0.0035973
0.00143187
0.000637626
0.00111449
0.000584782
0.000921145
0.00096855
0.000872024
0.000853502
0.00128929
0.00209714
0.00124215
0.00093635
0.000514172
0.00108117
0.00166941
0.000661442
0.000843853
0.00124627
0.00129569
0.00103791
0.00099284
0.000803656
0.000929662
0.00101623
0.0010001
0.00139935
0.000743872
0.0022942
0.0011987
0.000636219
0.000980319
0.000800418
0.000520356
0.00101822
0.000829534
0.00309791
0.000515647
0.00372792
0.00121288
0.000795798
0.0005697
0.000991247
0.000515948
0.000849362
0.00190972
0.000817491
0.000783165
0.000918779
0.000513303
0.00130624
0.00148626
0.00103343
0.00103078
0.00160532
0.000756393
0.000956825
0.00095579
0.000849299
0.00088632
0.000601315
0.000451289
0.000795697
0.000560722
0.000922791
0.000413918
0.000463628
0.000952008
0.000700075
0.000586074
0.000409804
0.000533867
0.000392134
0.000550981
0.000474941
0.00139817
0.00039939
0.000645794
0.000319434
0.000327509
0.00078738
0.000648782
0.000713716
0.000561477
0.00136775
0.000355912
0.000788251
0.000345236
0.00157987
0.000581152
0.000507448
0.000829117
0.000409491
0.000729933
0.000960053
0.00468259
0.000898441
0.000743976
0.000629195
0.000439925
0.000355499
0.00078815
0.000313019
0.00103346
0.000482869
0.000825362
0.0012086
0.000752984
0.00114258
0.000994563
0.00077455
0.000726329
0.000846392
0.00276977
0.00102283
0.000750729
0.00071229
0.00106598
0.00115686
0.00104784
0.00103945
0.00086233
0.00060636
0.000386168
0.000708707
0.000587266
0.000729507
0.000466471
0.000477601
0.000503309
0.00113434
0.00153734
0.000629384
0.00069626
0.0005774
0.00235056
0.000348558
0.000556324
0.00392881
0.000860246
0.00103164
0.000663823
0.00108579
0.000769123
0.00115758
0.00167519
0.00062683
0.000333063
0.000799926
0.00030389
0.000919533
0.00076721
0.00111106
0.000941751
0.000674339
0.000663985
0.00107666
0.000459698
0.000545024
0.000592239
0.000824925
0.000776717
0.00103876
0.00113108
0.000783284
0.00120234
0.0022033
0.000776617
0.000967167
0.000568682
0.000379419
0.000591964
0.000808296
0.000941282
0.000806005
0.000421951
0.000452412
0.00140669
0.000758645
0.000788257
0.000809303
0.000881642
0.00303819
0.000625231
0.000707098
0.00250764
0.00108898
0.000910773
0.000577309
0.001362
0.00211679
0.00109748
0.00112409
0.00110875
0.000636554
0.0010853
0.000895089
0.00170161
0.000850942
0.00200191
0.00143805
0.00105687
0.0011513
0.000180576
0.0010353
0.00202435
0.00102181
0.00121753
0.00110999
0.00228056
0.00130715
0.000768086
0.000620752
0.00115366
0.00107622
0.0007263
0.000768108
0.00058748
0.000933384
0.000862897
0.000903675
0.0017992
0.00122679
0.000687478
0.000888522
0.000795142
0.000765128
0.000870792
0.000982315
0.000873925
0.00100674
0.00058015
0.00395897
0.0010722
0.00179067
0.000727096
0.000957654
0.00157488
0.000560757
0.000952776
0.00177068
0.00156489
0.00080396
0.00111048
0.00118037
0.00258782
0.000659746
0.00081848
0.000860621
0.000684367
0.000661887
0.000807144
0.00237578
0.00102331
0.000658878
0.00111986
0.000820315
0.00105535
0.000837659
0.00111341
0.0016009
0.000692064
0.00106035
0.00128064
0.000280297
0.00192553
0.000999714
0.000787139
0.00139806
0.000785162
0.00375288
0.000910101
0.00396774
0.000933614
0.00264051
0.000746356
0.000907301
0.000891441
0.000972521
0.000752796
0.00114713
0.000692709
0.000939662
0.00152449
0.000972565
0.000561288
0.000967684
0.000859479
0.0011585
0.00114712
0.00106794
0.000674686
0.00113598
0.00597623
0.000678254
0.00366034
0.00136502
0.000955824
0.000676195
0.000871112
0.0041342
0.000546558
0.000777174
0.00187203
0.00121224
0.000655003
0.00056635
0.000896062
0.000858339
0.001235
0.00075435
0.000631698
0.00182464
0.000843921
0.00128469
0.00160868
0.00161157
0.00147455
0.00183419
0.000830002
0.000881165
0.00145723
0.00128841
0.000793035
0.000873924
0.000722322
0.000913985
0.00111547
0.00165796
0.000709892
0.000831393
0.000666052
0.00118919
0.000654997
0.00207601
0.000944455
0.000895129
0.000737973
0.00135726
0.00283981
0.00063411
0.000170285
0.000909498
0.00167586
0.0015235
0.00146959
0.0010014
0.000504527
0.000597212
0.00397337
0.000349987
0.00111935
0.000678395
0.000312406
0.00201567
0.00241103
0.000632149
0.000391413
0.000850457
0.00125716
0.00119068
0.000915728
0.000705447
0.00126717
0.000829503
0.000310279
0.00103138
0.000726175
0.000776753
0.00329993
0.000812032
0.000557279
0.00143888
0.000779444
0.00163235
0.000770304
0.00147245
0.0038011
0.000988952
0.000997832
0.000999606
0.00118841
0.00064525
0.000515029
0.00104782
0.0010593
0.000608887
0.000528164
0.00401782
0.00275846
0.000977678
0.00122094
0.00090429
0.00110686
0.00061423
0.0010692
0.00110539
0.000616817
0.00105036
0.000984053
0.00126625
0.00130615
0.00104482
0.00419366
0.00109735
0.0023243
0.000708588
0.00074766
0.000957308
0.000925866
0.000936448
0.00149065
0.000983532
0.000797886
0.000872161
0.00117831
0.00086371
0.000686458
0.00336369
0.00107425
0.000985164
0.00127181
0.00073339
0.00166219
0.000984996
0.00353005
0.000949274
0.001337
0.00157895
0.000682348
0.000438307
0.000489515
0.000769363
0.000595243
0.000321985
0.000273837
0.0016201
0.00109385
0.00145575
0.000885469
0.000789359
0.00113281
0.00124533
0.00245766
0.00119606
0.00114892
0.00101943
0.00184112
0.000776346
0.000731941
0.00356192
0.00261706
0.00159062
0.00107433
0.00285462
0.00383902
0.000943113
0.00112646
0.00104182
0.00105185
0.000822052
0.00126812
0.000977472
0.000820126
0.00290596
0.000876982
0.00199507
0.00136126
0.00199063
0.00230133
0.00117373
0.00106872
0.000709409
0.00146498
0.000417779
0.000463232
0.000558591
0.000346267
0.00116834
0.00149555
0.00148611
0.000965203
0.00080342
0.000686721
0.000993396
0.00114206
0.000615223
0.000913763
0.000844321
0.000752731
0.00082747
0.000799214
0.000747239
0.000770823
0.0015705
0.000867454
0.00105311
0.00098517
0.00130133
0.00153403
0.00127592
0.00113085
0.000838552
0.00140546
0.00120704
0.00113888
0.00113245
0.00101384
0.000736076
0.000825371
0.00114027
0.00100006
0.0010272
0.00076785
0.00308566
0.00105509
0.00110774
0.000655882
0.000883022
0.00157176
0.000783864
0.000896947
0.00127203
0.000896094
0.00160763
0.000754399
0.00217935
0.000854161
0.00167745
0.000717857
0.0033727
0.00111119
0.00295482
0.00086351
0.000565784
0.00139656
0.00107045
0.000739087
0.00138372
0.000773765
0.000805247
0.00440551
0.0010531
0.000999166
0.00252294
0.00124312
0.0013022
0.00146544
0.000931401
0.000975403
0.000986008
0.00132133
0.000660523
0.00105969
0.000891432
0.00205146
0.00215839
0.000695589
0.000771096
0.00132824
0.00103817
0.001221
0.00147656
0.000910469
0.00134101
0.00077093
0.0009647
0.000733787
0.00105553
0.000872561
0.00424234
0.00041119
0.000429909
0.000556053
0.000675452
0.00133075
0.001178
0.000874378
0.000710999
0.00329615
0.000702773
0.000840313
0.0017508
0.00095608
0.000923956
0.00103116
0.000996276
0.00380771
0.00206038
0.00230388
0.00382155
0.000819048
0.000638323
0.000736441
0.000816182
0.00117446
0.000764972
0.00136728
0.00128971
0.00387906
0.00153617
0.00106712
0.000939241
0.000924993
0.000773817
0.00377116
0.00101399
0.00382303
0.00128755
0.00102835
0.00299998
0.000959596
0.00075069
0.000361616
0.000905858
0.000714399
0.00131496
0.000829788
0.001019
0.00131204
0.00318038
0.0012081
0.000799716
0.00197661
0.00391759
0.00102601
0.000964975
0.00283612
0.0015281
0.00104988
0.00129712
0.000800091
0.00115267
0.00082779
0.00112637
0.000695321
0.00103592
0.00188788
0.000409036
0.000790506
0.000843309
0.00239163
0.00194583
0.000909047
0.000844348
0.00116603
0.000992044
0.00238605
0.000850525
0.00062949
0.000784396
0.000851174
0.00237285
0.00136431
0.0032384
0.000802145
0.000543881
0.00053453
0.0006528
0.000466417
0.000688798
0.00049238
0.000445323
0.00046167
0.000562714
0.000414042
0.000350635
0.000658311
0.00155096
0.000900635
0.00102484
0.000941179
0.000668328
0.00101534
0.000904395
0.000665942
0.0010422
0.00089001
0.000814904
0.00114603
0.000789344
0.00270838
0.000785599
0.00073043
0.00215186
0.000680306
0.00114102
0.00148021
0.00157663
0.000834754
0.000871764
0.000880624
0.00166087
0.00130006
0.0011584
0.000828172
0.000271803
0.000282314
0.000759952
0.000612062
0.00115321
0.000884207
0.000784675
0.000679229
0.000718683
0.000789757
0.000831958
0.000781189
0.00117394
0.000836037
0.00226339
0.000831885
0.000903191
0.000668216
0.000950434
0.000829865
0.000334503
0.000751894
0.00491159
0.000509932
0.00235357
0.00174404
0.000812908
0.000833874
0.00139828
0.000918493
0.000830637
0.00242601
0.00077932
0.00132816
0.00161645
0.000818559
0.000824982
0.000871403
0.00120083
0.00132945
0.00259576
0.000719224
0.000823725
0.00085727
0.00111468
0.000849456
0.000923807
0.000888566
0.00158349
0.0010705
0.000753778
0.000631553
0.000261349
0.0011795
0.000572249
0.00055165
0.000399402
0.00287799
0.000461219
0.00112529
0.000696771
0.00133699
0.000746929
0.00137642
0.000797338
0.00131437
0.000789558
0.000781923
0.000736001
0.000345407
0.000836375
0.00127858
0.00104002
0.00134394
0.00127483
0.000601984
0.000827417
0.00281652
0.000810429
0.00107357
0.00100762
0.002016
0.000577957
0.000830029
0.000885934
0.000502539
0.000844751
0.000668242
0.000562902
0.00126181
0.000807987
0.000749518
0.000840227
0.00093277
0.000811176
0.00247979
0.00092502
0.00100907
0.000592457
0.000920237
0.000972923
0.000814906
0.000829958
0.000767289
0.000986141
0.000799904
0.000816387
0.000579667
0.00143718
0.00113775
0.000740201
0.000941855
0.00103865
0.00102078
0.00060602
0.000972977
0.000819382
0.00168674
0.000775081
0.00105055
0.00116514
0.000296353
0.00103261
0.00129986
0.00224204
0.00123591
0.00201293
0.0022511
0.000274977
0.00107928
0.00115727
0.000315811
0.00189065
0.000480359
0.00111925
0.00109054
0.00027061
0.00106712
0.000272215
0.000271986
0.000963134
0.000590096
0.00101318
0.00148004
0.000906795
0.000843323
0.000680574
0.0014619
0.00116206
0.000989885
0.000651211
0.000788882
0.000809478
0.000851749
0.000922604
0.00102823
0.00073625
0.000989561
0.00170008
0.00147373
0.000649803
0.00088034
0.00122046
0.00104265
0.000909894
0.000734464
0.00174537
0.00157949
0.00426586
0.00136796
0.00170989
0.000734067
0.000729067
0.00123452
0.000891328
0.0009022
0.000829689
0.00873055
0.0010564
0.00079564
0.000885915
0.00194504
0.00178252
0.000760728
0.000766549
0.000963296
0.000543042
0.00279528
0.000642281
0.00141357
0.00121417
0.00188541
0.000792742
0.0016688
0.00105383
0.000859263
0.00199694
0.00211154
0.000938612
0.00102455
0.000695776
0.00144255
0.00111048
0.0016971
0.000422447
0.000475766
0.000744193
0.00102383
0.000833818
0.000777354
0.000872538
0.000735088
0.000865978
0.00373873
0.00104322
0.000771341
0.000733823
0.000814809
0.00129385
0.00181745
0.00125192
0.00295933
0.000368693
0.000846835
0.000744665
0.00189505
0.00134741
0.000714482
0.000347977
0.00029707
0.000846143
0.00147563
0.00082369
0.000751764
0.000535445
0.00773027
0.000767443
0.00105961
0.00106901
0.000997103
0.000810324
0.00145632
0.00113821
0.000880299
0.00060711
0.000889216
0.000510244
0.000624253
0.000627238
0.00119873
0.00080199
0.000827967
0.00078309
0.00216771
0.000787546
0.00201197
0.000829034
0.000276551
0.000752517
0.000859284
0.00258339
0.000852459
0.000198083
0.00159768
0.00108738
0.0010061
0.000271026
0.001394
0.000710309
0.0011
0.00156444
0.0015178
0.000828951
0.000575663
0.000770541
0.00143178
0.00117896
0.00095167
0.000888191
0.000849357
0.00201431
0.000837295
0.000367876
0.000762033
0.000783864
0.00371692
0.000995071
0.000342612
0.00124025
0.000709644
0.000496836
0.000855286
0.002098
0.00142526
0.000837765
0.000789926
0.0019229
0.00112633
0.00207924
0.00179902
0.00278679
0.00079518
0.000748882
0.00116565
0.000793656
0.00124791
0.00172344
0.00086901
0.00146202
0.00111909
0.00145385
0.0022144
0.00208275
0.00119052
0.00112948
0.00191003
0.000901018
0.00123189
0.00139301
0.000916141
0.00202024
0.00136765
0.00124871
0.00178935
0.00121372
0.000976798
0.000372151
0.00080717
0.00229581
0.000671048
0.00134547
0.00254919
0.000831527
0.00188235
0.0019757
0.00117343
0.000453209
0.00211476
0.00114035
0.00195605
0.00366066
0.000849406
0.00083347
0.000757792
0.00129834
0.000775292
0.00172533
0.000732459
0.00139691
0.00107661
0.000863417
0.00053663
0.00214033
0.00177177
0.00113581
0.00202795
0.00368292
0.000786352
0.000183519
0.00157849
0.000850329
0.0014261
0.000712444
0.00265325
0.000877804
0.00254813
0.000912141
0.000447122
0.00059906
0.000567329
0.000629795
0.000584689
0.00103494
0.000874565
0.00105878
0.000795741
0.00125594
0.00088575
0.00114901
0.000837959
0.0010997
0.00162518
0.000710915
0.00209818
0.00113891
0.000804741
0.000842663
0.000497501
0.00131775
0.000651484
0.000823129
0.00205244
0.00202692
0.000827948
0.000841805
0.00170331
0.000830578
0.000712487
0.000931657
0.000970842
0.00187069
0.0011142
0.000361763
0.00037885
0.000634975
0.00693553
0.000825757
0.000678369
0.00158269
0.00085368
0.00288116
0.00170703
0.000346026
0.000295244
0.000304709
0.000300153
0.000266594
0.000495524
0.000271767
0.000295483
0.000434326
0.000293625
0.000347372
0.00052894
0.000629453
0.000240708
0.00027536
0.00028254
0.000582738
0.000322152
0.000483477
0.000636993
0.000365842
0.000328541
0.00032981
0.000201766
0.000368205
0.00040244
0.00133589
0.000340682
0.000300275
0.000313671
0.00079222
0.000660297
0.000334388
0.000300461
0.000313202
0.000353315
0.000269212
0.000353331
0.000365157
0.000307264
0.000304916
0.000276081
0.000982747
0.000596326
0.0011439
0.000888425
0.00147247
0.000788845
0.00123719
0.00153386
0.00180366
0.000989737
0.00110752
0.000839204
0.00110268
0.00110048
0.0034674
0.0007497
0.00648891
0.00152077
0.00213164
0.00339577
0.00107002
0.00105881
0.000868992
0.00125103
0.000521778
0.00138794
0.000915699
0.00243762
0.00183965
0.00124184
0.00121438
0.000538513
0.00143352
0.00162823
0.00142656
0.00751122
0.00100287
0.00101569
0.000764778
0.000844749
0.00115506
0.00434426
0.00262985
0.00102477
0.00212047
0.000658432
0.00368021
0.00070076
0.000762948
0.000842708
0.00084887
0.00908562
0.000949901
0.000369067
0.000530768
0.00085444
0.00131974
0.000420048
0.00229299
0.000826218
0.000363304
0.000260885
0.000283542
0.000371364
0.000368239
0.00036568
0.000290858
0.000343091
0.000341757
0.00029718
0.000781532
0.000815119
0.000273319
0.000562114
0.000359378
0.000625679
0.000431027
0.000296297
0.000317554
0.00025145
0.000292691
0.000352767
0.000308928
0.00165601
0.00195502
0.000184345
0.00112714
0.00178357
0.000848696
0.00126595
0.000773716
0.00434655
0.000890206
0.00102572
0.00212788
0.00159465
0.00194884
0.000267245
0.00164849
0.0044805
0.00109061
0.00194829
0.00195833
0.00145153
0.000741582
0.00110768
0.00144753
0.00114404
0.00105639
0.00121223
0.00150641
0.00115242
0.00071294
0.000800957
0.000691813
0.00102972
0.000975134
0.00154766
0.000971744
0.00207148
0.000417692
0.00206813
0.000927723
0.000854348
0.000944736
0.000753066
0.000668555
0.00108177
0.000891052
0.000985906
0.00188491
0.000834662
0.000746527
0.000676065
0.000939569
0.00168231
0.00185673
0.00019128
0.000771095
0.00143459
0.000738499
0.00208524
0.000445936
0.000802184
0.000986398
0.00360519
0.00116933
0.000832749
0.000950267
0.0007082
0.00166963
0.00360437
0.000768139
0.000932838
0.000398785
0.00023287
0.000440929
0.00219045
0.00161279
0.000771781
0.000864797
0.00141719
0.000749376
0.00121568
0.00167525
0.00137785
0.00125888
0.00165274
0.000978531
0.00152749
0.000850962
0.00173848
0.00113584
0.000840291
0.000801761
0.000714309
0.000699049
0.00120059
0.000353203
0.00086782
0.000857148
0.000945264
0.00366023
0.00105903
0.00130618
0.00130503
0.00112283
0.000834014
0.00145897
0.000902144
0.00217822
0.0023643
0.000671818
0.000899282
0.00125209
0.00151821
0.00136215
0.00193235
0.00157554
0.0010927
0.00102413
0.00192962
0.00171803
0.00198935
0.000882923
0.00108498
0.000884764
0.00109146
0.000937512
0.00101309
0.00147763
0.00107066
0.000979777
0.00152707
0.00294887
0.00352801
0.00110805
0.00111462
0.000845745
0.000811232
0.00175135
0.0015251
0.000910942
0.000847947
0.00185971
0.00107135
0.0010182
0.0012393
0.00117257
0.000984657
0.0011501
0.000970838
0.00102624
0.000978968
0.000991194
0.00107701
0.0010556
0.00103223
0.00110617
0.000966134
0.00101861
0.000972734
0.000823888
0.000851498
0.00101185
0.00224544
0.000857532
0.000941234
0.000911156
0.000879521
0.000249953
0.000412881
0.0014838
0.00130945
0.000851243
0.00119262
0.000946066
0.00150949
0.00128864
0.00162503
0.0023051
0.000819277
0.000915038
0.000893485
0.00313494
0.00205554
0.00363955
0.00108716
0.00360705
0.00395999
0.000966607
0.00403115
0.00115
0.00172034
0.00123334
0.000870245
0.00101083
0.000339659
0.00253563
0.000989655
0.000946206
0.000923484
0.000916407
0.00105572
0.00182731
0.000827324
0.000879309
0.00163069
0.00102699
0.00174939
0.00103249
0.000781484
0.00170923
0.000965068
0.00118652
0.00131439
0.00113416
0.00114651
0.00102545
0.000990419
0.00175615
0.000662081
0.00099351
0.00122719
0.00102689
0.00122191
0.00120103
0.000981002
0.00106458
0.00220635
0.00100764
0.00447938
0.000947516
0.000913278
0.000848906
0.000892041
0.00199354
0.000946775
0.00103152
0.00104798
0.000931958
0.000838351
0.00415328
0.00119165
0.0012419
0.00113811
0.000902012
0.000923789
0.000795141
0.000948231
0.00145747
0.000935003
0.00387157
0.000855143
0.00104284
0.00104863
0.00129138
0.00362222
0.00118302
0.00114271
0.00117845
0.00467612
0.000866931
0.00106956
0.00121984
0.00084788
0.000852827
0.00240562
0.00109339
0.00235097
0.00219023
0.00314173
0.00196331
0.00076575
0.000888514
0.00256133
0.00110491
0.000889029
0.00119233
0.000954751
0.00192356
0.000845664
0.000883484
0.000892927
0.00471069
0.00253739
0.000897799
0.00278479
0.000985996
0.00134492
0.000584171
0.00440814
0.000895245
0.00122168
0.000941087
0.000995734
0.000877648
0.00103
0.00102793
0.000500068
0.00298943
0.00336536
0.00141546
0.00113918
0.00117249
0.0013703
0.000574851
0.00209709
0.000777604
0.000856164
0.00266078
0.000861073
0.00149759
0.0010734
0.000946915
0.00203548
0.00138946
0.00118656
0.00362529
0.000981783
0.000978484
0.000940408
0.00137978
0.00228234
0.00135385
0.00235701
0.00104187
0.00154158
0.000907769
0.00105721
0.00231663
0.00221338
0.000506824
0.000990901
0.00104369
0.00136321
0.000946179
0.000973922
0.00216494
0.00205856
0.000388693
0.0032028
0.00116726
0.00109399
0.000999379
0.00100634
0.00215562
0.00236049
0.00241074
0.000839714
0.00109339
0.00149942
0.000447823
0.00230598
0.000831127
0.00115575
0.000837958
0.0018502
0.00089049
0.000271298
0.0022143
0.000850118
0.000861335
0.000801486
0.000780429
0.00132069
0.00142988
0.00119944
0.000847192
0.0012062
0.00109629
0.000849234
0.0011798
0.00106691
0.000934974
0.000950743
0.000839326
0.000327997
0.0007827
0.000281729
0.00246998
0.00310561
0.000783105
0.000861013
0.000846647
0.000952912
0.00175934
0.000853848
0.000839743
0.000817337
0.00126084
0.000850534
0.000884831
0.000899259
0.00170403
0.000855239
0.000866652
0.000884308
0.00183078
0.000867482
0.000800587
0.00160959
0.00142716
0.000865217
0.000686064
0.00252232
0.0017695
0.00087514
0.000890445
0.00148049
0.000563026
0.00101418
0.000835022
0.00158665
0.000960322
0.000961622
0.000923111
0.00171699
0.000818579
0.000863975
0.000905064
0.000609759
0.000388511
0.000809555
0.00203638
0.000857199
0.00243367
0.00219212
0.000902869
0.000941312
0.000827053
0.000983782
0.0015541
0.000927135
0.000929803
0.00102274
0.000896047
0.000985562
0.000907715
0.000870076
0.0020822
0.000965653
0.000969009
0.00111964
0.00132393
0.000911885
0.000367807
0.00117562
0.00125906
0.00112269
0.00162446
0.00162061
0.00115854
0.000897432
0.000940928
0.00165847
0.0016237
0.00098782
0.000929515
0.00177266
0.000854218
0.000904494
0.00226473
0.00085939
0.000942696
0.000803199
0.00218369
0.00196056
0.00232142
0.00128477
0.000914795
0.00137841
0.00364917
0.000842614
0.00221904
0.000989603
0.00111852
0.00153574
0.000801519
0.00146431
0.00146873
0.00054302
0.000766071
0.000969825
0.000883128
0.000931314
0.00186201
0.000707205
0.00155983
0.00100032
0.000839602
0.00160631
0.00110496
0.00118612
0.00275782
0.00129433
0.00123436
0.00121088
0.000477846
0.000523999
0.0010103
0.00186084
0.000831258
0.000879869
0.000817475
0.000709898
0.00114542
0.000452488
0.00147245
0.00151059
0.00181771
0.00100501
0.00224508
0.0014508
0.00102546
0.00130583
0.000841969
0.00238149
0.00112485
0.000974928
0.00120029
0.00151763
0.00144626
0.000958579
0.00421332
0.0015856
0.000669064
0.000768916
0.000921574
0.000828269
0.000400014
0.000837172
0.00128877
0.000930557
0.00124388
0.000952274
0.0011035
0.00156947
0.00427739
0.00074236
0.000961694
0.00111039
0.00120687
0.000922957
0.00102513
0.00101209
0.00102058
0.00193923
0.00131037
0.00101674
0.00146531
0.00143078
0.00101323
0.000993307
0.000975394
0.00124576
0.00266965
0.004455
0.00464279
0.00464785
0.0010601
0.00181922
0.000891115
0.000923465
0.00105697
0.00115394
0.00108157
0.0027934
0.00104083
0.000997868
0.000960321
0.000854969
0.00195489
0.00141146
0.00312891
0.000527868
0.000561357
0.0005091
0.000451869
0.0041803
0.000733265
0.0014954
0.00292284
0.000792647
0.000767233
0.00217396
0.00147028
0.00134395
0.00274512
0.000813523
0.00204975
0.00149328
0.00113611
0.00105118
0.00124596
0.00346088
0.00161498
0.000325433
0.000860201
0.00511056
0.0044022
0.000995693
0.00488259
0.000859034
0.000860255
0.00103654
0.00104155
0.00261342
0.00148813
0.000942503
0.000577656
0.00112962
0.00101536
0.00273787
0.00158002
0.000782246
0.00102033
0.00133351
0.00137623
0.000930025
0.0014793
0.00133286
0.00313955
0.0045287
0.00134134
0.00146236
0.00353859
0.000817365
0.00128289
0.000832394
0.000738833
0.00454761
0.00136728
0.00470566
0.00177837
0.0010191
0.00233733
0.000991799
0.00322384
0.00340694
0.00252392
0.00115599
0.000741491
0.00084459
0.00372548
0.00217381
0.00129921
0.00109264
0.000981551
0.000497349
0.00147833
0.00215977
0.00415119
0.00151634
0.00190931
0.00290635
0.00101275
0.000860988
0.00345954
0.000970655
0.00030569
0.000292103
0.00150473
0.000847182
0.00178584
0.00305313
0.00126382
0.00142774
0.000795683
0.00162004
0.0010143
0.000793483
0.00114552
0.000928956
0.00209502
0.00195339
0.00082741
0.000874814
0.00102825
0.000579668
0.00125161
0.00435566
0.000668821
0.00149593
0.00266161
0.00108029
0.00195831
0.00119334
0.000913334
0.00120317
0.000496225
0.00107246
0.00270445
0.00112254
0.00110135
0.000997165
0.0010039
0.00144343
0.00147262
0.000401754
0.00227544
0.00165738
0.00147342
0.000757248
0.00143713
0.00330978
0.00119
0.00239063
0.000724749
0.00379193
0.00176416
0.00265993
0.000907851
0.000868089
0.000950484
0.000974612
0.00156205
0.00125486
0.00113184
0.00157311
0.00126847
0.00103563
0.000750533
0.00150084
0.0015818
0.00155251
0.00223289
0.00446939
0.000949095
0.000812859
0.000811439
0.000568018
0.00219463
0.00156247
0.0021968
0.00476437
0.000954653
0.00149021
0.00135748
0.00100736
0.00109105
0.000934908
0.00121064
0.00075491
0.000684791
0.00217499
0.000998765
0.000976412
0.000970767
0.000918959
0.00099891
0.00145984
0.00240339
0.00159567
0.000823234
0.00155247
0.00152105
0.00206632
0.000842599
0.00620278
0.000728109
0.001172
0.000547277
0.00213592
0.000620355
0.000821592
0.00294413
0.00453936
0.0010319
0.00210674
0.000778854
0.000382918
0.0017296
0.000841968
0.00158877
0.000666684
0.000751877
0.0010033
0.00253729
0.000896514
0.0016845
0.00284958
0.00159122
0.00109779
0.00201052
0.00041406
0.00152543
0.00123148
0.000941768
0.00140157
0.000884267
0.000952471
0.00233818
0.00144239
0.000872134
0.00249222
0.000903338
0.00151658
0.00389169
0.00147791
0.000904793
0.00455994
0.000573834
0.000846842
0.00223503
0.00196104
0.000994183
0.000908832
0.00103747
0.000935704
0.00100727
0.00031386
0.0013207
0.00159389
0.000797951
0.001248
0.00281461
0.0013268
0.00104544
0.00116456
0.00122254
0.000895433
0.00446852
0.000993137
0.00133223
0.00108971
0.00400039
0.00152565
0.00305632
0.000522689
0.000856867
0.000944271
0.000953959
0.000496354
0.000771382
0.000930089
0.00171793
0.00114751
0.00154441
0.000777636
0.00180393
0.000826132
0.00105554
0.00134254
0.000661846
0.00109067
0.00105062
0.00141896
0.00084825
0.000761562
0.000750833
0.00444819
0.000965715
0.000951618
0.00186876
0.00153679
0.00102562
0.000822289
0.00110472
0.0016979
0.00111731
0.00152924
0.00414073
0.000727206
0.000637555
0.000794909
0.000613803
0.000442018
0.00042506
0.00141877
0.00162767
0.00145302
0.00337692
0.00281456
0.00153666
0.000940742
0.00133654
0.00103319
0.00103517
0.000884347
0.00144985
0.00147472
0.000943252
0.0010359
0.000320425
0.00186031
0.000908547
0.00091501
0.000861372
0.00103453
0.00331108
0.00166147
0.00110747
0.0014597
0.00292007
0.000879836
0.00177329
0.000458523
0.00104695
0.00157535
0.000944096
0.00106794
0.00160725
0.000833579
0.00124095
0.00204292
0.000790409
0.000849232
0.00211887
0.00150615
0.001608
0.00227242
0.00136581
0.00175883
0.00117694
0.00109706
0.00106336
0.000932093
0.00165304
0.000814608
0.000787937
0.00182571
0.00100298
0.00205405
0.000944359
0.000893616
0.00217652
0.000853394
0.000817657
0.000806862
0.0013703
0.00105509
0.00083912
0.00231005
0.000945046
0.00128582
0.00253075
0.00067321
0.00106596
0.00163463
0.00207586
0.000967851
0.00118634
0.00121007
0.000734048
0.000949039
0.0016932
0.00266989
0.000718244
0.00172773
0.000798442
0.000963059
0.000471126
0.00236436
0.00201031
0.00160033
0.00145924
0.000855387
0.000822453
0.000721637
0.00193735
0.000504554
0.00156702
0.00162726
0.00106011
0.00209525
0.00189055
0.00119152
0.000774054
0.000841539
0.000709489
0.00205268
0.00475863
0.00151464
0.000841369
0.0028678
0.00175933
0.000439534
0.00108095
0.00105934
0.000894993
0.00117382
0.00154863
0.000975783
0.0009053
0.000916894
0.00180432
0.000903612
0.000871814
0.000943208
0.00115698
0.000814462
0.000848213
0.00107906
0.00214625
0.000804981
0.00100367
0.00141589
0.000880464
0.000643565
0.000868659
0.00147752
0.00084936
0.00101064
0.000436187
0.00050296
0.000986771
0.00164457
0.00105827
0.0011685
0.00079451
0.00441843
0.000787887
0.000957757
0.000805874
0.00209777
0.00142203
0.00225365
0.00101029
0.00187555
0.000891855
0.000870231
0.000713795
0.000853206
0.000957249
0.000493755
0.00100947
0.0013795
0.000463174
0.00127837
0.000753924
0.00109989
0.00127562
0.00172445
0.00166865
0.00155928
0.00195375
0.000988094
0.000882095
0.00366331
0.000876315
0.00117453
0.00164336
0.000796945
0.00180978
0.000856536
0.000807047
0.000664334
0.00108757
0.00194155
0.00197565
0.00271539
0.00532759
0.00105517
0.0010607
0.00105058
0.000784148
0.00280621
0.000988938