/*--------------------------------*- C++ -*----------------------------------*\
| =========                 |                                                 |
| \\      /  F ield         | OpenFOAM: The Open Source CFD Toolbox           |
|  \\    /   O peration     | Version:  v1912                                 |
|   \\  /    A nd           | Website:  www.openfoam.com                      |
|    \\/     M anipulation  |                                                 |
\*---------------------------------------------------------------------------*/
FoamFile
{
    version     2.0;
    format      ascii;
    class       volScalarField;
    location    "0.06";
    object      k;
}
// * * * * * * * * * * * * * * * * * * * * * * * * * * * * * * * * * * * * * //

dimensions      [0 2 -2 0 0 0 0];


internalField   nonuniform List<scalar> 
1466
(
0.117917
0.111202
0.118495
0.146828
0.117674
0.1177
0.176913
0.119058
0.236581
0.115063
0.130712
0.121994
0.209213
0.1184
0.118607
0.149503
0.118127
0.0934737
0.133503
0.145424
0.145192
0.152668
0.114594
0.144058
0.177065
0.100759
0.291961
0.122926
0.123256
0.150905
0.123219
0.105647
0.112302
0.12332
0.337712
0.160379
0.121237
0.115727
0.106094
0.11903
0.118168
0.131509
0.115045
0.109153
0.110575
0.127367
0.255239
0.0986413
0.101311
0.101546
0.105904
0.106499
0.117285
0.113379
0.0981618
0.182635
0.108967
0.139558
0.10736
0.111548
0.122294
0.125582
0.12387
0.11737
0.138614
0.176351
0.13121
0.1747
0.126529
0.124862
0.127557
0.0949057
0.13531
0.151954
0.11582
0.26168
0.122371
0.121226
0.104659
0.126921
0.115241
0.127746
0.151337
0.12859
0.196181
0.164267
0.130667
0.138355
0.112239
0.164671
0.107416
0.247373
0.226384
0.17073
0.131437
0.112175
0.116744
0.167694
0.206969
0.105774
0.113139
0.105813
0.0972373
0.0966376
0.119625
0.115498
0.107703
0.102724
0.123424
0.115795
0.119988
0.223724
0.120251
0.116902
0.108278
0.1169
0.194126
0.126507
0.162214
0.153458
0.129212
0.120655
0.119893
0.110046
0.110334
0.155257
0.121565
0.109528
0.146843
0.135539
0.105287
0.186955
0.109584
0.141592
0.11137
0.128787
0.120118
0.10997
0.144816
0.137845
0.110446
0.131177
0.170736
0.128595
0.132345
0.184867
0.106602
0.121278
0.136238
0.182308
0.111037
0.116271
0.122047
0.144073
0.139729
0.175203
0.117178
0.142272
0.113041
0.199388
0.107892
0.12657
0.135695
0.143587
0.15304
0.129548
0.159023
0.119141
0.137529
0.131876
0.135974
0.114428
0.107389
0.123636
0.100024
0.148538
0.15822
0.14406
0.115695
0.119155
0.167131
0.117588
0.158504
0.115307
0.139721
0.169807
0.205206
0.133466
0.131078
0.15088
0.146376
0.119027
0.295611
0.164569
0.185494
0.117098
0.102386
0.202793
0.13121
0.189215
0.206134
0.135736
0.143769
0.137666
0.128488
0.134662
0.147491
0.170263
0.118042
0.147081
0.126975
0.215729
0.126458
0.130193
0.149457
0.176112
0.170047
0.221808
0.146618
0.152326
0.11543
0.116342
0.166517
0.120876
0.144813
0.162443
0.127447
0.143421
0.111572
0.116057
0.114535
0.144416
0.1593
0.134708
0.140576
0.138614
0.165895
0.123877
0.131756
0.141025
0.163166
0.124681
0.161047
0.189253
0.126426
0.124053
0.105128
0.143539
0.130683
0.165017
0.160581
0.132523
0.176062
0.197957
0.107226
0.118056
0.117647
0.196684
0.130636
0.134496
0.101865
0.106888
0.1411
0.116459
0.211543
0.0883426
0.0931006
0.139694
0.131057
0.191517
0.148713
0.145856
0.10188
0.12103
0.109573
0.124053
0.115094
0.174614
0.138339
0.137397
0.116411
0.178322
0.202144
0.122263
0.198816
0.12088
0.143529
0.144012
0.108747
0.183678
0.124079
0.119031
0.188156
0.0917855
0.187475
0.118532
0.200113
0.116122
0.142351
0.116131
0.118364
0.11847
0.0695783
0.139727
0.134396
0.251573
0.219844
0.117809
0.144684
0.122927
0.13236
0.117698
0.163678
0.147048
0.151189
0.157995
0.185474
0.161757
0.118508
0.118348
0.107029
0.171903
0.127786
0.11581
0.147681
0.197929
0.117377
0.163576
0.114323
0.118469
0.110484
0.192602
0.120635
0.160488
0.206332
0.152692
0.181484
0.12807
0.201857
0.127238
0.124694
0.163495
0.117298
0.167916
0.13144
0.0669269
0.123751
0.157653
0.137714
0.190286
0.218665
0.161742
0.156652
0.186377
0.181887
0.201739
0.161095
0.146396
0.171925
0.151475
0.180393
0.188781
0.161468
0.132691
0.117233
0.136253
0.15918
0.145821
0.139923
0.152635
0.139041
0.172697
0.152408
0.143265
0.119018
0.121643
0.126632
0.14498
0.143687
0.212406
0.13648
0.141353
0.130771
0.127294
0.1347
0.136536
0.117727
0.117755
0.117849
0.118473
0.313503
0.168692
0.146814
0.175865
0.16742
0.30764
0.121024
0.141206
0.170378
0.128714
0.133321
0.131845
0.150319
0.150346
0.145192
0.1459
0.142341
0.158362
0.131538
0.195291
0.121098
0.160755
0.16147
0.170811
0.163873
0.126218
0.135975
0.163305
0.118767
0.125357
0.247733
0.201412
0.13535
0.147156
0.136015
0.130949
0.291873
0.165972
0.153597
0.144466
0.117923
0.23415
0.158771
0.209142
0.117145
0.114153
0.122003
0.139015
0.118117
0.118225
0.133225
0.143038
0.11836
0.122795
0.117175
0.120268
0.239896
0.117399
0.122545
0.119604
0.11752
0.129444
0.161444
0.226121
0.218595
0.116125
0.177055
0.159306
0.116037
0.117299
0.117273
0.26165
0.166966
0.169154
0.124998
0.130641
0.154865
0.212518
0.211841
0.154494
0.187368
0.186092
0.126443
0.143643
0.117107
0.136307
0.135973
0.127294
0.125014
0.133408
0.142623
0.153961
0.1399
0.123112
0.12747
0.177719
0.163867
0.165039
0.156782
0.148553
0.131444
0.120865
0.118301
0.155978
0.137874
0.148879
0.123221
0.134992
0.157306
0.13138
0.1252
0.121871
0.170054
0.139207
0.179501
0.124919
0.146357
0.117637
0.179677
0.131033
0.118886
0.126164
0.13587
0.158055
0.123099
0.131526
0.20566
0.201229
0.147464
0.119732
0.125255
0.237112
0.12289
0.168516
0.126592
0.1911
0.228543
0.201511
0.189841
0.123042
0.181293
0.1877
0.193347
0.15268
0.134501
0.212838
0.197617
0.153941
0.209556
0.148999
0.18016
0.134343
0.17267
0.149693
0.186552
0.170429
0.181836
0.202603
0.128974
0.117364
0.162134
0.208899
0.231714
0.135263
0.169835
0.126057
0.1298
0.143952
0.218027
0.201791
0.123493
0.184872
0.116962
0.162028
0.139797
0.157391
0.155308
0.123694
0.161749
0.12217
0.147729
0.123959
0.133981
0.151256
0.150698
0.128245
0.176378
0.122233
0.132763
0.132474
0.133367
0.122034
0.124221
0.126244
0.136325
0.135483
0.127534
0.145687
0.144899
0.155471
0.129704
0.178455
0.230437
0.125197
0.166567
0.177727
0.142067
0.189877
0.144821
0.149364
0.168896
0.210097
0.210163
0.14989
0.151742
0.20842
0.117985
0.123988
0.119929
0.122981
0.156459
0.167961
0.181879
0.219177
0.163561
0.163659
0.151245
0.167898
0.126024
0.127283
0.157462
0.118685
0.118286
0.221892
0.175117
0.125605
0.202437
0.206131
0.184619
0.121153
0.135917
0.172277
0.129952
0.219782
0.122625
0.172335
0.135297
0.145725
0.144297
0.191481
0.129138
0.222821
0.168164
0.118395
0.120797
0.218466
0.20665
0.122876
0.177646
0.163991
0.122622
0.144278
0.165304
0.117429
0.16205
0.120969
0.214589
0.166452
0.114364
0.139115
0.12268
0.160679
0.212474
0.197426
0.138261
0.129376
0.148285
0.139037
0.137958
0.19806
0.117101
0.124996
0.198005
0.13325
0.122899
0.117904
0.118069
0.0979049
0.117598
0.166262
0.185099
0.117605
0.0929762
0.14574
0.115953
0.188736
0.130491
0.0901472
0.142318
0.0981172
0.177981
0.146907
0.183014
0.13502
0.121417
0.0876378
0.138857
0.190422
0.134642
0.127095
0.121432
0.126165
0.0935633
0.114799
0.125329
0.128015
0.133278
0.263938
0.0857841
0.129527
0.155947
0.125378
0.148525
0.152206
0.128398
0.152702
0.18499
0.125382
0.18432
0.133288
0.29455
0.135855
0.139004
0.203094
0.18098
0.124586
0.188012
0.190966
0.179543
0.068452
0.208226
0.17687
0.200564
0.120191
0.149888
0.153171
0.109159
0.141665
0.164153
0.127222
0.121179
0.117569
0.121732
0.135736
0.153345
0.164234
0.144552
0.0684466
0.152969
0.122194
0.187117
0.150305
0.0973767
0.161424
0.148427
0.169863
0.169664
0.194507
0.125494
0.129075
0.204927
0.190931
0.121213
0.149031
0.128404
0.152304
0.118527
0.199597
0.135849
0.160248
0.121402
0.173091
0.119104
0.119526
0.254504
0.146757
0.157474
0.109907
0.15934
0.140786
0.225727
0.235802
0.126719
0.185967
0.181508
0.118396
0.117933
0.121528
0.125362
0.135467
0.149479
0.147945
0.154369
0.19556
0.117889
0.12931
0.13189
0.28089
0.129582
0.26164
0.230776
0.198749
0.125564
0.118156
0.175435
0.116098
0.0623753
0.132481
0.202174
0.181738
0.109218
0.145787
0.109003
0.142378
0.124668
0.118611
0.23208
0.122122
0.107786
0.138146
0.148861
0.1239
0.166286
0.137913
0.12129
0.122717
0.17773
0.130322
0.124469
0.108882
0.128949
0.193469
0.165742
0.142852
0.119926
0.141392
0.127325
0.103747
0.184088
0.177219
0.160488
0.122143
0.12357
0.118626
0.156616
0.127601
0.14681
0.126806
0.118425
0.179524
0.145178
0.127321
0.138589
0.156744
0.163655
0.125344
0.141668
0.112806
0.117938
0.136489
0.143911
0.12235
0.153576
0.18476
0.110091
0.159162
0.135026
0.223538
0.121811
0.140379
0.154074
0.0886467
0.221793
0.115279
0.129546
0.198485
0.123255
0.129513
0.125501
0.13226
0.110633
0.119254
0.10963
0.113105
0.120064
0.0991977
0.100986
0.118248
0.121234
0.121636
0.113644
0.0972576
0.102514
0.101339
0.106907
0.102064
0.0993155
0.0947589
0.0951644
0.12115
0.119956
0.118215
0.134304
0.196512
0.234944
0.0700754
0.222694
0.170625
0.129215
0.213386
0.118903
0.118811
0.123478
0.113275
0.123404
0.119155
0.141761
0.145629
0.120266
0.209643
0.23698
0.117453
0.139518
0.117387
0.132837
0.123863
0.129012
0.116003
0.12138
0.120017
0.146471
0.0822727
0.132963
0.175738
0.11817
0.236889
0.132854
0.159075
0.142221
0.150592
0.116548
0.124061
0.109174
0.131011
0.13203
0.128654
0.132583
0.0930667
0.147987
0.133862
0.132141
0.12482
0.132424
0.286786
0.243278
0.182506
0.110941
0.117561
0.221932
0.190958
0.123978
0.124669
0.110701
0.148625
0.20674
0.122436
0.127891
0.117863
0.169486
0.180599
0.140563
0.210845
0.133327
0.174508
0.117565
0.115847
0.118771
0.162169
0.145166
0.109344
0.129758
0.212143
0.122538
0.122279
0.169675
0.113343
0.121244
0.117565
0.128752
0.201388
0.0946859
0.11911
0.11861
0.140693
0.121814
0.147247
0.137803
0.220376
0.121424
0.121505
0.145001
0.155633
0.177349
0.12813
0.0941613
0.140726
0.135136
0.119265
0.116905
0.200629
0.166714
0.122808
0.115447
0.0680909
0.154879
0.133043
0.130366
0.117381
0.127643
0.127285
0.094191
0.174431
0.162714
0.180287
0.14312
0.0927603
0.133157
0.120555
0.146204
0.119496
0.120227
0.151363
0.118718
0.118457
0.162628
0.134537
0.1397
0.116759
0.158571
0.148469
0.121429
0.154587
0.118922
0.115778
0.150268
0.12353
0.109621
0.0773033
0.203079
0.125357
0.126389
0.124856
0.102627
0.143779
0.156964
0.229278
0.124468
0.146107
0.115968
0.100744
0.195413
0.152706
0.138474
0.1524
0.0974776
0.129421
0.0899612
0.123055
0.122357
0.0541633
0.142517
0.162318
0.0784073
0.188468
0.0810319
0.117379
0.162048
0.0799042
0.0816517
0.13998
0.138609
0.262213
0.109689
0.0727883
0.077548
0.0717674
0.0747476
0.160145
0.165062
0.0816536
0.0820382
0.0823962
0.0822372
0.218885
0.160588
0.240303
0.131638
0.116493
0.226016
0.123348
0.117582
0.0925272
0.134772
0.15574
0.128279
0.125438
0.157937
0.150211
0.129405
0.127661
0.146714
0.084092
0.129544
0.121372
0.132157
0.0760236
0.304524
0.259441
0.158425
0.134606
0.151242
0.124742
0.191718
0.13518
0.0922815
0.129641
0.125106
0.114367
0.143161
0.12031
0.132852
0.139258
0.118818
0.123473
0.198722
0.195324
0.130813
0.135875
0.134501
0.16044
0.121713
0.132827
0.116756
0.116361
0.158689
0.131697
0.128016
0.325982
0.301877
0.136119
0.122145
0.172152
0.18225
0.13206
0.11046
0.148095
0.111927
0.119536
0.171818
0.124011
0.189647
0.154492
0.0914684
0.135002
0.209907
0.147674
0.14461
0.136411
0.128371
0.121577
0.123009
0.166131
0.162457
0.121734
0.120647
0.146464
0.122226
0.163567
0.129939
0.128175
0.136995
0.222304
0.119341
0.143979
0.125703
0.144325
0.128597
0.255572
0.287069
0.174071
0.188383
0.162343
0.132973
0.121377
0.120024
0.116733
0.161235
0.155998
0.12622
0.109679
0.144409
0.104742
0.121723
0.134531
0.15403
0.117283
0.190006
0.166085
0.185412
0.128225
0.183429
0.0987131
0.152088
0.122572
0.120788
0.133158
0.121151
0.203527
0.177155
0.12514
0.122085
0.134175
0.168239
0.1333
0.141677
0.203206
0.118924
0.118863
0.118683
0.129662
0.149493
0.133693
0.103679
0.163157
0.156519
0.163981
0.128603
0.130711
0.118272
0.118423
0.167684
0.126429
0.17121
0.153042
0.103886
0.134419
0.112998
0.119916
0.122426
0.199597
0.129878
0.12392
0.144862
0.14022
0.119669
0.159769
0.125755
0.118942
0.14616
0.182471
0.15699
0.117877
0.157086
0.125364
0.133431
0.124376
0.171477
0.189009
0.163811
0.241615
0.160121
0.116902
0.137374
0.0807679
0.12291
0.247908
0.123288
0.123143
0.126134
0.12041
0.155952
0.147341
0.216404
0.126889
0.0998871
0.195892
0.160229
0.219665
0.222476
0.157174
0.120884
0.201104
0.134624
0.183014
0.156267
0.0964558
0.163896
0.105341
0.193435
0.134191
0.174366
0.17593
0.1179
0.284166
0.187094
0.13522
0.169002
0.12213
0.274627
0.12047
0.201315
0.219728
0.121426
0.120197
0.120729
0.116971
0.124165
0.137451
0.0676772
0.193278
0.148485
0.13838
0.122652
0.258072
0.0747754
0.147851
0.0634932
0.138917
0.12366
0.158994
0.11092
0.173239
0.0732475
0.123223
0.209293
0.208667
0.145841
0.149866
0.125748
0.147485
0.104679
0.154004
0.105228
0.134781
0.112521
0.230927
0.140852
0.135421
0.183839
0.129527
0.1007
0.1149
0.132773
0.132592
0.146774
0.137158
0.12599
0.122958
0.142472
0.137781
0.122507
0.114594
0.191171
0.106962
0.1362
0.125126
0.178042
0.0970065
0.0481214
0.0677369
0.122594
0.160835
0.142691
0.126362
0.134529
0.0966437
0.115645
0.129272
0.141259
0.175622
0.216972
0.167382
0.305849
0.131073
0.143639
0.193882
0.134174
0.119154
0.139289
0.0951257
0.122302
0.138928
0.136401
0.140646
0.136931
0.176794
0.126864
0.144623
0.142816
0.101555
0.117271
0.117533
0.107452
0.172225
0.139145
0.108064
0.144763
0.154682
0.145601
0.152659
0.100507
0.123377
0.126514
0.119691
0.133354
0.133216
0.201329
0.132624
0.145769
0.140451
0.117572
0.27084
0.119518
0.115178
0.101909
0.287296
0.131723
0.116165
0.194126
0.111215
0.10093
0.116601
0.0993845
0.104108
0.151195
0.100965
0.120516
0.155198
0.109744
0.148532
0.122853
0.111533
0.15801
0.207886
0.115469
0.102279
0.136032
0.175934
0.120938
0.0902978
0.109791
0.115802
0.262284
0.157697
0.149083
0.111493
0.108329
0.113121
0.126209
0.0996288
0.107008
0.0954701
0.0975467
0.103548
0.0980753
0.114544
)
;

boundaryField
{
    frontAndBack
    {
        type            empty;
    }
    wallOuter
    {
        type            kqRWallFunction;
        value           nonuniform List<scalar> 
108
(
0.0934737
0.0949057
0.13531
0.0695783
0.0669269
0.115953
0.130491
0.0901472
0.0981172
0.121417
0.0876378
0.134642
0.126165
0.0935633
0.0857841
0.068452
0.109159
0.144552
0.0684466
0.109907
0.0623753
0.109218
0.103747
0.14681
0.129513
0.125501
0.13226
0.110633
0.119254
0.10963
0.113105
0.120064
0.0991977
0.100986
0.118248
0.121234
0.121636
0.113644
0.0972576
0.102514
0.101339
0.106907
0.102064
0.0993155
0.0947589
0.0951644
0.12115
0.119956
0.118215
0.134304
0.0700754
0.141761
0.116003
0.0822727
0.0930667
0.110701
0.148625
0.113343
0.0941613
0.0680909
0.094191
0.0927603
0.133157
0.154587
0.150268
0.0773033
0.156964
0.138474
0.1524
0.0899612
0.0541633
0.0541633
0.0784073
0.0810319
0.0799042
0.0816517
0.109689
0.0727883
0.077548
0.0717674
0.0747476
0.160145
0.165062
0.0816536
0.0820382
0.0823962
0.0822372
0.218885
0.0925272
0.134772
0.084092
0.0760236
0.13518
0.0922815
0.172152
0.18225
0.0914684
0.135002
0.203527
0.0807679
0.0964558
0.193435
0.0676772
0.0634932
0.0732475
0.0481214
0.0677369
0.0966437
)
;
    }
    inlet
    {
        type            fixedValue;
        value           nonuniform 0();
    }
    outlet
    {
        type            zeroGradient;
    }
    wallInner
    {
        type            kqRWallFunction;
        value           nonuniform List<scalar> 
126
(
0.115727
0.106094
0.11903
0.118168
0.131509
0.115045
0.109153
0.110575
0.127367
0.255239
0.0986413
0.101311
0.101546
0.105904
0.106499
0.117285
0.113379
0.0981618
0.182635
0.108967
0.139558
0.10736
0.111548
0.104659
0.112175
0.116744
0.167694
0.206969
0.105774
0.113139
0.105813
0.0972373
0.0966376
0.119625
0.115498
0.107703
0.102724
0.123424
0.115795
0.116902
0.108278
0.110046
0.110334
0.105287
0.186955
0.128787
0.120118
0.10997
0.110446
0.135695
0.100024
0.102386
0.130636
0.134496
0.101865
0.0883426
0.0931006
0.148713
0.145856
0.10188
0.119031
0.0917855
0.118532
0.200113
0.107029
0.171903
0.127786
0.146396
0.139923
0.152408
0.14498
0.141206
0.128714
0.165972
0.158771
0.209142
0.114153
0.139015
0.143038
0.161444
0.116125
0.116037
0.158055
0.1877
0.169835
0.202437
0.166452
0.18098
0.159162
0.223538
0.174431
0.112521
0.1007
0.10093
0.0993845
0.104108
0.151195
0.100965
0.120516
0.109744
0.148532
0.122853
0.111533
0.15801
0.207886
0.115469
0.102279
0.136032
0.175934
0.120938
0.0902978
0.109791
0.115802
0.262284
0.157697
0.149083
0.111493
0.108329
0.113121
0.126209
0.0996288
0.107008
0.0954701
0.0975467
0.103548
0.0980753
)
;
    }
    procBoundary1to0
    {
        type            processor;
        value           nonuniform List<scalar> 
29
(
0.16522
0.16522
0.162579
0.178383
0.302311
0.244007
0.39566
0.15042
0.394998
0.186024
0.168455
0.244007
0.162579
0.154125
0.349589
0.278118
0.302311
0.338897
0.178383
0.167425
0.263789
0.272884
0.350651
0.313027
0.313027
0.350651
0.295571
0.245137
0.295571
)
;
    }
    procBoundary1to2
    {
        type            processor;
        value           uniform 0.154821;
    }
    procBoundary1to3
    {
        type            processor;
        value           nonuniform List<scalar> 
48
(
0.120485
0.131985
0.126269
0.126269
0.173506
0.148117
0.148117
0.237415
0.124969
0.138496
0.164947
0.138496
0.120176
0.122961
0.130446
0.120176
0.117867
0.117867
0.118269
0.118269
0.119575
0.121682
0.120119
0.169719
0.169719
0.143615
0.130059
0.130059
0.192328
0.20475
0.188982
0.192328
0.237415
0.135266
0.123057
0.20475
0.185548
0.164947
0.121009
0.138222
0.119395
0.150029
0.135266
0.123057
0.140464
0.130674
0.149466
0.119395
)
;
    }
}


// ************************************************************************* //
