/*--------------------------------*- C++ -*----------------------------------*\
| =========                 |                                                 |
| \\      /  F ield         | OpenFOAM: The Open Source CFD Toolbox           |
|  \\    /   O peration     | Version:  v1912                                 |
|   \\  /    A nd           | Website:  www.openfoam.com                      |
|    \\/     M anipulation  |                                                 |
\*---------------------------------------------------------------------------*/
FoamFile
{
    version     2.0;
    format      ascii;
    class       volVectorField;
    location    "0.08";
    object      U;
}
// * * * * * * * * * * * * * * * * * * * * * * * * * * * * * * * * * * * * * //

dimensions      [0 1 -1 0 0 0 0];


internalField   nonuniform List<vector> 
5794
(
(-0.142979 2.37603 -2.26064e-17)
(0.233804 2.52731 0)
(1.68186 0.584009 -7.93955e-17)
(0.473204 1.35751 1.51267e-16)
(2.95707 0.847891 3.33572e-17)
(0.0622056 2.82553 -1.00855e-16)
(-0.17695 0.0107055 -2.89938e-16)
(0.345302 0.0234034 0)
(2.6106 -0.175105 1.31603e-16)
(1.49289 -0.211932 1.88444e-16)
(0.98402 0.050493 1.14223e-18)
(-0.525409 -0.394106 0)
(-0.316535 -0.172382 7.36267e-16)
(1.23771 4.18674 2.43522e-16)
(2.4627 -0.261694 3.95809e-16)
(0.543052 -0.330371 -1.5881e-16)
(0.942609 0.454989 4.76986e-17)
(0.624064 3.50681 1.93988e-16)
(2.01986 -0.126201 3.90259e-16)
(0.0620985 2.09317 1.30053e-16)
(-2.89411 1.1127 -3.86926e-17)
(-0.16489 2.54394 -1.122e-16)
(1.07635 -0.384253 3.57714e-16)
(1.62875 -0.076081 -5.51778e-16)
(1.51762 -0.186682 -4.61281e-16)
(2.76347 9.79434 2.11826e-17)
(7.22052 -0.255913 0)
(0.546358 2.28539 -1.90727e-16)
(0.226983 2.56673 -7.19982e-17)
(-0.658467 -0.203749 2.76101e-16)
(-0.0563232 -0.0762873 -7.43153e-16)
(-1.14186 -0.505682 -5.61251e-16)
(0.0160725 -0.0744309 -1.17657e-15)
(0.340531 -0.762365 4.26025e-16)
(-0.115629 -0.733478 -2.28585e-16)
(-0.580298 -0.757518 2.26237e-16)
(9.90229 1.31118 -1.78106e-16)
(1.2337 -0.429706 0)
(0.275615 -0.116745 2.07569e-16)
(-1.04469 5.43429 0)
(0.151703 3.12615 -1.16116e-16)
(0.504155 2.81367 1.27079e-16)
(5.48249 -0.0782291 -5.3834e-19)
(0.775494 2.52564 0)
(2.14722 -0.202028 -3.6137e-16)
(0.313374 0.0364619 2.27125e-16)
(2.55609 -0.162306 -2.84649e-16)
(0.0657699 -0.0256074 0)
(1.11178 -0.000383939 6.91359e-16)
(-0.0996304 0.0329997 7.7198e-17)
(0.474837 0.0134283 -1.75913e-16)
(-0.554234 0.0487752 -3.66569e-16)
(-1.40771 1.25071 0)
(2.77315 1.38943 1.21532e-16)
(0.0207666 0.0222166 1.08417e-17)
(0.504607 0.211508 0)
(2.98651 0.460031 -2.29946e-16)
(-0.0289022 -0.113336 2.12626e-16)
(6.98591 -0.368055 0)
(4.15313 9.17375 -7.39583e-19)
(7.33734 0.960324 1.84021e-18)
(0.628869 0.822855 -1.28398e-16)
(0.0384109 -0.124485 -1.98639e-16)
(0.463115 -1.16836 2.20177e-16)
(0.116147 -0.0819334 0)
(0.626586 -0.00274086 -2.81367e-18)
(-1.66023 8.52391 -9.84685e-17)
(-0.137628 3.25398 0)
(0.745256 2.89541 -2.076e-16)
(0.0358351 1.17668 -2.71755e-21)
(-0.211901 -0.0942918 2.98778e-16)
(-1.89855 9.24796 -1.33704e-16)
(12.3076 2.03698 -3.46026e-18)
(0.0914988 -1.12756 0)
(0.662135 3.41129 1.90661e-16)
(0.547985 0.414851 1.03259e-19)
(0.297452 -0.00904997 1.45698e-16)
(1.5249 9.56782 -2.19116e-17)
(0.719575 2.21024 3.58465e-17)
(0.634459 -0.00255035 7.09588e-17)
(0.0416647 3.05183 -1.31995e-17)
(-0.0442982 2.29813 -1.23194e-16)
(0.178714 2.92398 1.31364e-19)
(0.113735 -0.117095 -1.37791e-16)
(0.762444 -0.378451 -4.30775e-16)
(-0.0976652 2.34387 -6.27233e-17)
(0.27311 5.225 3.26424e-17)
(0.0682507 1.80566 -3.70245e-17)
(1.5703 0.635344 -1.62064e-16)
(1.62474 0.0256211 -4.8966e-17)
(0.162137 2.51716 -1.21825e-16)
(0.0371052 4.42023 -1.09992e-16)
(0.139813 2.93699 2.32e-16)
(0.0408181 3.01287 1.11332e-16)
(0.104227 3.1898 5.25905e-17)
(-0.544361 -0.276405 8.32077e-18)
(-0.11606 2.55399 -8.4393e-17)
(0.066441 3.05378 -2.45953e-17)
(0.0725454 4.40528 0)
(6.60635 0.96678 -3.07613e-17)
(1.85508 2.94193 -1.07612e-16)
(-1.7908 0.298676 -3.73863e-16)
(6.16116 -0.0541424 7.79297e-17)
(1.45406 3.84206 -3.5116e-16)
(2.03733 0.260541 0)
(0.180199 2.97677 0)
(0.0246489 1.24424 0)
(0.753588 0.135347 -2.67622e-16)
(-1.66157 -0.876572 -1.35474e-16)
(0.521114 1.82929 -1.06392e-16)
(0.514599 -0.0455059 -2.00702e-19)
(1.20098 -0.0446571 0)
(-1.12018 4.3777 9.40511e-17)
(0.550377 -0.0023013 1.56253e-16)
(0.132305 3.54327 0)
(-0.149609 2.98776 0)
(2.31654 0.246165 -2.73662e-16)
(0.286071 3.09954 -1.54375e-20)
(7.98163 0.916766 -1.50594e-20)
(10.8143 0.504133 5.28196e-18)
(0.205126 3.08015 1.95947e-16)
(2.75646 -0.0304311 0)
(-0.818742 0.0152901 0)
(0.422318 1.48332 -2.65905e-16)
(1.50064 -0.284907 1.93707e-16)
(2.91435 1.46961 5.99967e-17)
(1.55167 4.63838 0)
(-0.152859 2.58318 6.0784e-17)
(-0.427525 -0.137336 2.85383e-16)
(1.1417 0.0321383 1.60462e-16)
(0.11551 -0.113096 3.84396e-16)
(-0.0748631 -0.0560624 2.69083e-16)
(1.7594 2.1674 1.88456e-17)
(1.09401 9.16497 -6.76276e-17)
(0.104125 3.01504 2.47994e-16)
(2.34208 -0.321972 0)
(2.58662 -0.78092 9.70021e-17)
(0.634313 0.669946 -1.8436e-16)
(0.195294 -0.0535382 2.08185e-16)
(0.660249 -0.177872 0)
(-0.889079 0.1419 -5.7405e-16)
(1.35451 1.36018 0)
(1.55297 -0.145818 0)
(1.27127 1.56861 4.0358e-16)
(0.0484237 -0.000383405 2.35815e-16)
(1.59481 -0.0781038 1.73753e-17)
(-0.574761 0.453487 2.81689e-16)
(4.1844 -0.158811 2.54272e-16)
(3.01051 0.532742 -2.13962e-18)
(1.25644 0.208558 4.90789e-16)
(5.93491 -0.11157 -1.78698e-16)
(2.31788 0.367577 2.55568e-16)
(0.161987 2.99377 0)
(-1.07027 0.180044 2.02686e-16)
(4.72992 -0.492243 0)
(3.87576 -0.0900031 0)
(0.136251 -0.0581019 -3.48883e-16)
(0.350226 -0.0510684 4.69151e-16)
(0.408516 -0.0298659 -3.92549e-16)
(0.768345 -0.223348 -1.49061e-16)
(0.132111 -0.344774 4.03315e-16)
(-0.0117773 0.012883 -4.46147e-16)
(0.0875283 -0.046708 0)
(-0.405423 0.0999537 -1.6899e-16)
(-1.14392 0.0145439 -3.98885e-16)
(-0.53395 -0.178511 2.254e-16)
(-0.265698 -0.101338 1.53854e-18)
(0.191917 -0.0365225 -4.70368e-18)
(0.43133 -0.0441895 0)
(0.739193 -0.0409824 9.16136e-19)
(-0.823038 0.325119 0)
(-2.34996 0.174776 -1.17269e-16)
(-1.36654 -0.388709 0)
(-0.943955 -0.308235 1.05513e-16)
(-0.929708 -0.36245 4.18753e-16)
(0.387266 -0.104177 0)
(1.86568 -0.0396447 -2.04252e-16)
(0.786331 -0.0866436 -2.78184e-16)
(1.14158 -0.0793144 -8.76473e-17)
(0.07184 -0.482351 1.08495e-17)
(0.165932 -0.015841 -6.27852e-18)
(0.321362 -0.0316841 0)
(0.150702 -0.0228106 0)
(0.045026 -0.00169116 1.46235e-16)
(0.00478956 -0.0203187 0)
(-0.992963 -1.03966 5.63082e-17)
(-1.88379 -0.201225 -1.35004e-16)
(-0.300006 -0.0703418 -1.07928e-16)
(0.899227 0.0168735 1.2533e-16)
(-1.41435 0.411261 3.18935e-16)
(0.747957 0.0343183 -4.3718e-16)
(-0.925501 -0.0442807 4.16892e-16)
(0.060207 0.0370267 7.26478e-16)
(0.0140398 -0.00102455 6.98066e-16)
(-0.114875 -0.0497331 -1.22028e-16)
(-0.0120564 -0.103252 -6.01138e-16)
(0.409982 -0.0418968 -2.52903e-17)
(0.783537 -0.0259648 -1.83059e-16)
(1.64476 -0.100033 -2.68686e-16)
(4.52952 -0.0604803 1.26282e-16)
(-0.0900512 -0.0269207 -2.56305e-17)
(-0.485134 0.263192 0)
(0.103929 0.00156532 0)
(0.0475994 0.0199112 1.27698e-17)
(2.45773 -0.252254 -6.59834e-17)
(0.294605 0.0170696 0)
(0.401433 0.0185042 1.24653e-17)
(0.398271 0.538429 -3.14198e-21)
(5.38686 0.641644 -6.8686e-18)
(0.307212 8.48852 1.23397e-16)
(-0.280118 1.47694 1.08462e-16)
(9.89258 0.0802382 0)
(-0.254653 -0.17949 -1.40937e-16)
(0.174567 -0.178068 2.13365e-16)
(1.48939 -0.50903 0)
(1.14506 -0.669884 8.4262e-16)
(0.420142 -0.92039 -1.95117e-16)
(2.94091 2.48098 8.31795e-17)
(1.08674 0.0641761 1.82675e-16)
(0.0469353 4.07353 -2.23424e-16)
(9.80124 0.053639 0)
(0.612247 -0.0638877 2.97003e-16)
(-0.134202 1.67707 0)
(-0.0380358 2.38562 4.27198e-17)
(1.05501 0.202858 1.65596e-16)
(11.7271 0.720618 1.94058e-18)
(2.65692 -0.889529 -4.40629e-17)
(2.24016 -0.226074 -9.79049e-17)
(2.87512 0.0328075 0)
(2.63218 -0.101321 -2.43686e-16)
(-1.67092 -0.170025 0)
(-1.12041 0.136289 -7.27162e-17)
(-0.853094 0.171221 -1.07914e-16)
(-1.91705 -0.242851 1.51859e-16)
(1.88895 0.0714947 1.78555e-16)
(9.58456 0.188381 6.09496e-18)
(7.52247 0.67822 2.27187e-18)
(5.65206 0.0368936 2.93211e-17)
(-0.892926 -0.047356 -1.95639e-16)
(-0.017006 2.73791 -2.93915e-16)
(0.427383 2.08399 0)
(0.457461 1.05313 1.29699e-15)
(2.32903 7.82939 1.54215e-16)
(-0.622509 0.675777 -2.87025e-16)
(-0.554398 0.477557 3.07128e-16)
(0.582094 0.00574741 3.16636e-16)
(1.97323 -0.141918 -1.25439e-16)
(3.19845 0.394033 9.3138e-18)
(-0.123944 2.11444 0)
(-0.0227697 2.75443 0)
(0.062276 3.78366 0)
(0.639084 -0.0259674 2.91445e-17)
(2.91059 -0.213638 -6.64582e-17)
(0.4109 -0.198638 1.00559e-19)
(6.77225 1.40552 -5.48849e-17)
(4.82686 1.45272 -1.41425e-17)
(5.76963 0.118203 -1.68098e-16)
(7.68342 0.0672283 1.49773e-16)
(0.257006 0.458188 2.98137e-16)
(1.26783 -0.348729 0)
(4.16272 -0.751962 -1.26857e-16)
(-0.154532 -0.126244 1.2002e-16)
(0.272535 -0.119154 -1.20035e-16)
(0.578414 0.00625645 0)
(0.181295 -0.0106034 0)
(0.537973 0.034225 -6.72864e-19)
(0.934706 0.0685492 1.95384e-16)
(4.63813 0.587153 0)
(0.726613 -0.358574 -6.78165e-16)
(0.326118 -0.0422467 -1.95432e-16)
(3.66004 -0.685206 0)
(0.184975 -0.0974572 -3.48776e-16)
(1.35565 1.27361 -5.36379e-16)
(-0.487446 -0.0138561 -4.15298e-16)
(9.67027 0.0966238 3.05151e-17)
(2.47468 -0.171582 2.57298e-16)
(3.08005 1.04098 -1.27785e-16)
(-0.702612 -0.156419 -9.90158e-17)
(1.45009 0.585902 -1.70326e-16)
(-0.302443 -0.0119425 -3.44398e-16)
(0.804641 -0.00497255 3.66192e-16)
(0.137683 2.35706 3.25204e-16)
(0.165725 3.29805 1.12874e-16)
(0.646638 3.00772 -3.25384e-16)
(-0.728516 4.04005 5.62003e-17)
(0.16162 2.72766 1.74608e-16)
(0.0435219 3.22969 1.71072e-17)
(0.160274 2.94292 0)
(0.299006 2.87174 6.99362e-17)
(0.0323944 3.10462 0)
(-0.734456 -0.905564 -1.70297e-17)
(-0.256947 -0.580529 -1.49798e-16)
(0.311473 -0.457987 2.49966e-18)
(2.87723 0.399674 0)
(7.44774 2.25565 0)
(1.55245 6.85959 7.0233e-18)
(-0.0188503 2.55816 6.97533e-17)
(0.5842 2.92346 -2.20054e-19)
(-1.03525 1.69489 -2.66932e-16)
(0.573547 0.00639373 -1.82188e-16)
(-0.0477105 1.91518 8.93114e-17)
(-0.336221 6.122 0)
(0.0338722 2.58051 -5.26151e-16)
(2.1869 6.84979 0)
(0.0275939 0.932976 -1.66156e-16)
(4.81397 0.141118 1.39687e-18)
(1.27373 0.64906 -2.40218e-16)
(0.887121 2.20929 3.63052e-16)
(0.345529 -0.0430244 4.40049e-16)
(3.9246 -0.422479 0)
(0.244923 -0.0702334 -7.44585e-16)
(0.150225 0.207647 -3.28942e-16)
(0.586923 9.10661 -1.20404e-16)
(0.550555 0.00511474 -8.81007e-17)
(10.6677 0.131962 0)
(9.70194 0.522663 -1.61448e-17)
(0.824171 0.155267 -1.00462e-16)
(0.628488 2.91963 -3.52888e-16)
(-1.74216 -0.649937 -2.66549e-16)
(0.249995 2.07227 -7.19789e-17)
(0.204742 0.118463 5.69763e-16)
(-0.335246 0.142823 -2.45017e-16)
(0.383063 2.7664 -1.51027e-16)
(3.16431 0.680583 -1.01773e-18)
(0.219308 -0.289479 0)
(0.341095 -0.266202 0)
(-0.764338 -0.419912 0)
(-0.282971 -0.0490357 8.01647e-17)
(-0.191165 0.00223515 -4.4312e-16)
(0.920895 0.0394298 3.68312e-16)
(-0.587831 0.0480847 -1.15667e-17)
(4.71349 -0.173413 3.14157e-16)
(-0.157386 -0.0398933 1.05796e-16)
(-0.0628492 -0.103695 5.79466e-16)
(-1.80642 -0.340706 0)
(1.07345 -0.157795 -2.20736e-16)
(1.65937 -0.0582345 0)
(0.347609 -0.00084874 0)
(0.785937 0.0683099 -3.03109e-16)
(-0.460477 0.0614436 0)
(1.33205 -0.111203 4.12487e-16)
(1.11515 -0.172078 4.66635e-16)
(1.66543 -0.657009 0)
(0.709288 -0.251447 0)
(2.16372 -0.0319382 3.63002e-16)
(0.19334 -0.000637577 4.37393e-16)
(0.0127122 -0.0275602 3.85263e-16)
(0.388787 -0.0991058 -2.65255e-17)
(-0.259435 -0.195221 -1.72377e-16)
(1.45899 -0.191703 8.19834e-17)
(0.370178 -0.0699723 9.32474e-17)
(-0.344369 0.292177 2.46968e-16)
(0.0478479 0.0202849 -2.70618e-17)
(-0.111717 -0.171809 1.75765e-16)
(0.0691882 -0.0194656 0)
(-1.8035 -0.472087 0)
(1.44502 -0.0281855 1.63732e-16)
(-0.526727 -0.132777 2.95089e-16)
(-0.0399271 0.092206 9.14248e-17)
(0.372923 0.0397081 0)
(0.494929 0.416518 -3.03209e-16)
(1.21983 -0.682378 5.3569e-16)
(3.77052 -0.608905 3.5449e-17)
(-0.131271 -0.105341 -5.13066e-17)
(0.360806 -0.072702 -3.45341e-16)
(3.01399 0.110752 3.74063e-16)
(-0.845983 -0.104109 -5.13637e-17)
(0.36429 0.022787 0)
(2.20791 0.00461591 3.72681e-16)
(0.00492238 -0.0230153 -1.15597e-16)
(1.24728 1.4136 -1.15929e-16)
(0.57901 -0.000610768 0)
(2.88405 0.12181 -8.78348e-17)
(0.396314 1.60378 2.66498e-16)
(0.917127 0.199297 9.08361e-17)
(-1.5238 -0.31068 1.89029e-16)
(0.616685 0.285961 0)
(2.86365 0.589971 8.93174e-17)
(-0.2487 -0.0464164 0)
(1.40787 0.192625 1.26308e-17)
(0.30311 2.53207 1.42424e-16)
(1.08686 1.36192 0)
(10.8499 0.164577 0)
(-0.541152 -0.435721 1.80721e-16)
(-0.102735 -0.494649 -7.52296e-16)
(0.173801 -0.637368 -3.57191e-16)
(0.118767 2.80582 -5.88489e-17)
(-0.114539 -0.096384 3.76612e-16)
(0.332459 -0.0750021 -1.26522e-15)
(-0.0758087 -0.130534 0)
(0.249822 -0.0565612 -8.73666e-16)
(-0.584535 0.359814 3.44403e-20)
(-0.0618724 1.17517 -2.32848e-18)
(0.771726 -0.0241083 1.67166e-16)
(-1.81817 -0.121121 8.47198e-17)
(-1.2217 -0.035474 -9.86185e-17)
(-1.18692 -0.07655 1.05423e-16)
(0.555978 0.891502 0)
(0.975342 -0.616358 0)
(0.931419 -0.494488 -3.30768e-16)
(1.59754 -0.258245 1.32567e-16)
(1.40168 -0.427234 -4.75644e-16)
(10.667 -0.162154 2.98697e-17)
(0.463004 0.0379529 2.08601e-16)
(1.01628 0.0538485 0)
(5.19888 0.471795 4.98596e-17)
(0.118041 2.19367 4.88418e-20)
(0.235919 3.38832 1.41047e-16)
(0.040751 1.35157 -3.44744e-17)
(-0.125174 2.25779 -9.40701e-17)
(-0.0259337 3.26919 3.72186e-17)
(0.32693 4.74117 0)
(2.3995 0.548417 1.58891e-16)
(-1.44622 0.180147 2.80626e-16)
(0.300397 -0.0257259 3.02604e-17)
(2.9944 -0.391716 7.86822e-17)
(0.154849 -0.0428432 0)
(0.742677 2.19493 2.40642e-16)
(-1.80276 -0.261134 0)
(-0.16585 2.52833 6.03537e-17)
(0.097354 4.48009 -8.61322e-17)
(0.0251012 3.15401 5.17943e-17)
(1.00281 0.0710353 -1.51219e-17)
(1.45376 1.50186 -3.40029e-17)
(-0.841068 -0.178493 0)
(-0.510315 -0.187586 0)
(-0.574707 -0.274257 -2.03755e-16)
(0.548203 -0.0125283 -2.03978e-16)
(-0.0859985 2.13954 -1.16679e-17)
(0.022113 2.51488 4.24512e-17)
(1.45869 -0.851449 4.13947e-16)
(10.1269 0.416691 1.08788e-17)
(1.03775 0.637616 -4.44431e-16)
(1.20448 -3.27584 -1.68611e-17)
(2.14793 -0.126997 2.71353e-16)
(1.91895 0.328623 0)
(0.467444 -0.0591877 1.80144e-16)
(0.0707009 -0.0220203 -1.20869e-17)
(-0.573946 -0.154383 -1.20087e-16)
(-0.137333 -0.244812 2.60841e-16)
(-0.0393694 -0.387081 2.61761e-16)
(10.0425 0.0979044 -2.11636e-16)
(-0.0246313 0.00282316 0)
(0.131425 -0.00884096 8.68865e-17)
(-0.613942 -0.126078 -2.52039e-18)
(-0.0934528 3.06089 -1.09724e-16)
(0.128636 3.39622 -2.72346e-20)
(0.270106 -0.0593891 0)
(1.19651 -0.804854 1.76287e-16)
(4.07045 3.30355 -4.32118e-17)
(1.80796 -0.0992309 -1.9079e-16)
(0.00189018 2.27594 -5.29568e-17)
(-2.55403 0.791204 3.79304e-17)
(-0.152377 2.9122 -3.60199e-16)
(0.113175 2.97786 -4.4325e-17)
(0.576559 0.00822444 -5.59757e-16)
(-0.100009 2.55363 -3.23554e-18)
(-0.206885 -0.668427 -3.49087e-16)
(0.132431 3.12849 -5.14894e-17)
(0.435781 2.91159 1.63479e-16)
(-0.372161 3.44039 -7.45823e-17)
(0.354416 2.22528 -1.77043e-16)
(-1.10837 1.2742 1.37375e-16)
(0.671636 0.012157 -4.0805e-16)
(5.7496 0.916392 9.64316e-17)
(1.16979 0.0293218 -2.72752e-16)
(10.8598 0.374353 -2.01575e-18)
(3.27394 1.94946 7.4087e-17)
(1.32181 0.206892 -4.24325e-16)
(0.40535 2.28771 -4.75373e-17)
(0.542353 -0.00590902 3.96663e-17)
(6.42356 0.729785 -5.64783e-18)
(2.89452 0.723768 -6.40816e-17)
(2.83437 -0.0614986 2.29164e-17)
(2.96432 -0.026383 -1.53228e-16)
(-0.650727 -0.460084 1.1854e-15)
(8.52869 1.90193 -3.27295e-18)
(0.643699 2.9304 2.11152e-16)
(-0.577243 0.785993 1.95468e-16)
(0.220642 2.2652 4.32899e-17)
(-1.46917 1.17529 2.1205e-16)
(-0.394087 3.27348 0)
(3.41356 -0.100315 -1.29528e-16)
(3.09637 -0.0533155 9.55251e-18)
(0.881751 0.136696 1.85257e-16)
(1.05315 0.0814109 3.7701e-19)
(9.97041 0.161856 0)
(-0.502911 -0.0576116 2.55304e-18)
(-0.0424694 -0.146627 -4.99901e-17)
(-0.0290002 3.11574 -2.86805e-19)
(-0.0658437 2.29955 1.56774e-16)
(0.460074 1.86713 -2.02922e-16)
(0.32333 2.33803 6.98483e-16)
(3.34372 0.489424 8.94232e-18)
(-0.0484095 2.21014 -2.40319e-19)
(0.612586 -0.0845239 2.51495e-16)
(-0.443889 0.0608038 0)
(0.985762 1.47197 0)
(0.35036 -0.0577115 -3.71935e-17)
(5.3637 0.348118 -5.36521e-20)
(3.9489 1.1517 3.09953e-17)
(8.44232 1.07177 -7.08852e-18)
(10.4838 1.21855 2.71264e-18)
(0.324189 -0.449632 0)
(1.03531 1.7678 0)
(0.582542 1.91374 1.81551e-16)
(-0.212287 3.02109 1.50604e-16)
(6.20631 0.0206941 -4.55931e-16)
(2.05853 0.786949 0)
(0.593493 -0.0133038 0)
(-0.805335 -0.542543 3.24725e-16)
(1.1318 0.669435 1.44905e-18)
(0.228988 2.87439 -1.55024e-16)
(0.593666 0.0145001 1.9958e-16)
(0.548147 0.0200805 -9.98007e-17)
(0.107263 3.93789 -4.11117e-17)
(-0.00417358 2.73075 -2.66017e-17)
(0.60991 0.0186557 -2.65553e-16)
(10.122 0.383652 -5.35001e-17)
(10.4946 0.0883206 3.34042e-18)
(0.345916 3.37637 1.12753e-16)
(0.298477 1.44458 -3.71515e-17)
(3.08663 1.03614 -1.34594e-17)
(-0.0370116 3.15219 -2.4874e-16)
(1.28697 0.0624022 9.89261e-16)
(0.389282 2.85117 5.23321e-18)
(-0.795885 2.58184 0)
(3.55605 4.8817 7.02939e-17)
(0.270478 2.07968 9.43816e-17)
(-0.217365 3.22135 -2.12623e-19)
(-1.0525 1.92364 1.56757e-16)
(0.513703 0.0179438 0)
(10.9255 0.159574 0)
(0.805553 1.53688 -5.91201e-17)
(2.92557 0.0596995 0)
(-0.622992 -0.0442108 7.55775e-17)
(10.1405 0.15516 -8.82538e-17)
(1.47581 -0.473451 8.32244e-17)
(1.21206 0.0214758 1.16906e-16)
(4.37277 -0.864598 9.65518e-17)
(-0.00541861 2.37309 6.24746e-17)
(-0.553885 -2.93 1.33729e-16)
(-0.0319299 2.09167 1.72749e-16)
(1.3844 4.51941 -1.2958e-16)
(-0.878921 -0.307229 -7.69961e-17)
(0.103888 -0.267175 0)
(9.74061 1.72286 0)
(1.25501 1.58683 -3.58385e-16)
(0.541591 -0.00722266 -2.12543e-16)
(-0.128973 2.9541 5.16803e-16)
(1.60058 3.80287 -3.88864e-17)
(1.69625 0.224277 0)
(1.57036 -0.0624599 -4.01252e-16)
(-0.25733 1.57278 -1.54404e-16)
(-0.155849 2.93552 1.25107e-16)
(1.46347 -0.052979 0)
(-0.547251 2.19289 0)
(-0.103198 3.209 0)
(0.27767 1.88727 -1.51195e-16)
(0.379251 0.31547 1.09469e-17)
(11.11 2.67018 -2.56918e-18)
(-1.10329 0.239536 0)
(4.6411 0.813576 0)
(2.336 0.587233 -8.12923e-17)
(1.61396 4.31053 9.47541e-17)
(0.463277 -0.907814 0)
(0.784014 -0.350814 4.045e-16)
(0.545745 5.76505 5.13059e-18)
(-0.0970186 2.3674 -1.36333e-16)
(0.575795 -0.00892612 0)
(4.77978 0.801822 -6.97802e-17)
(-2.54996 0.340127 -1.42727e-16)
(0.270811 1.51454 9.95687e-17)
(0.154213 1.91445 0)
(0.886482 2.5786 -1.0846e-17)
(10.2707 0.548398 -1.5788e-17)
(3.40446 1.47454 -5.05912e-18)
(-0.955861 3.10617 -1.5786e-16)
(0.58693 3.14123 -2.23416e-16)
(0.0488168 3.19115 -5.11098e-16)
(0.0953148 2.68996 -3.68316e-19)
(0.219064 3.68793 6.78785e-17)
(0.768375 1.63223 0)
(10.6297 -0.19938 2.01419e-17)
(-0.158309 -0.255584 2.18701e-16)
(5.06648 0.958118 -1.26793e-16)
(0.545265 -0.029576 1.85028e-16)
(0.101271 3.05362 0)
(0.141122 4.16045 -7.11872e-17)
(-0.239626 2.37304 2.6108e-16)
(0.583161 -0.0137857 -7.93839e-18)
(-0.105538 3.08342 4.30616e-17)
(0.625212 0.273306 6.97217e-18)
(-0.135268 2.69451 -5.1497e-17)
(0.230652 3.38031 -4.26959e-17)
(0.264052 3.71775 8.49949e-17)
(1.1542 0.163033 1.77054e-17)
(10.1908 0.145557 0)
(0.476835 0.0197647 5.01198e-16)
(1.16333 0.888803 -8.02514e-17)
(-0.129594 -0.0886245 -4.11876e-16)
(3.7655 0.652133 1.93624e-17)
(0.193382 3.38464 -6.90654e-17)
(-0.204907 2.89065 3.39015e-16)
(0.579507 0.00873221 1.54097e-20)
(1.61551 0.0193855 -1.03695e-16)
(1.18481 5.79006 0)
(1.3813 -0.0700142 0)
(0.0326524 0.0664234 -2.17296e-17)
(0.191374 2.72358 0)
(3.94559 2.98385 -6.75118e-17)
(4.90942 2.054 0)
(1.68924 4.09143 -2.30436e-16)
(0.315409 1.61659 4.62285e-17)
(0.189072 0.00475372 4.51559e-16)
(0.054633 -0.0607947 6.31326e-17)
(5.52223 0.200647 -1.60405e-17)
(1.20713 -0.00207453 -2.7933e-16)
(5.35982 0.120491 -3.21946e-16)
(0.888072 -0.116087 0)
(0.348223 1.1232 -8.12215e-17)
(2.3324 1.79679 2.10459e-16)
(3.1607 1.19457 -7.82469e-17)
(0.569514 0.330703 -4.23145e-16)
(0.45454 1.10659 5.80989e-16)
(0.189937 2.97374 2.60382e-17)
(0.492062 2.19964 -3.54991e-16)
(2.26628 0.663393 -1.22214e-18)
(0.294011 1.35145 -2.66159e-16)
(0.535567 -0.0167168 1.99234e-16)
(0.0389199 3.06459 6.24504e-17)
(0.207662 2.43589 0)
(0.263028 0.485645 -7.8197e-17)
(0.496203 2.96117 -5.81826e-17)
(0.16168 1.20477 2.96315e-16)
(3.35347 -0.0835656 -7.44714e-17)
(1.52427 7.43107 -3.99552e-17)
(10.7202 0.418597 -6.1757e-17)
(2.87318 0.0513882 7.90075e-17)
(0.558497 2.40922 -6.99339e-17)
(-1.11458 -0.26523 -1.3393e-16)
(6.74065 -0.355344 3.76732e-16)
(1.10703 0.072297 -3.49615e-17)
(0.0666426 4.01246 4.68186e-18)
(2.16852 -0.766071 2.58411e-16)
(-0.193529 2.39385 -2.72439e-16)
(0.144823 2.40743 1.26441e-16)
(7.49681 0.0799617 0)
(0.669317 1.39519 -1.06392e-16)
(0.210746 0.221729 2.87096e-17)
(-0.146853 1.72788 0)
(-0.937304 2.12305 -1.52893e-16)
(0.761479 1.51184 5.70449e-17)
(0.242254 -0.131132 3.34328e-16)
(0.171325 0.0170495 3.24164e-16)
(4.81164 0.00402499 -3.52771e-17)
(10.2537 0.546223 -1.1163e-18)
(0.912204 0.558693 -1.987e-16)
(-0.526147 0.307559 2.86182e-16)
(0.42558 2.41783 -2.65676e-16)
(0.815575 0.671309 1.09267e-16)
(3.24375 -0.129169 0)
(-0.358853 3.20011 -8.17841e-18)
(-1.98905 1.51487 -2.31115e-16)
(0.0484152 2.25947 -1.84455e-20)
(0.13299 2.92348 4.15525e-17)
(0.102709 2.7497 -5.33881e-18)
(0.281151 2.6813 -1.74706e-16)
(0.212247 3.17119 4.36985e-17)
(0.556647 2.5434 -1.93742e-16)
(5.70008 -0.152784 7.14676e-17)
(0.617466 1.11069 0)
(11.156 1.02817 0)
(-0.0170741 0.16084 4.97325e-16)
(0.453038 0.135886 6.09552e-16)
(0.196443 3.35039 2.11003e-16)
(-0.115801 3.02687 -2.36184e-16)
(-0.683292 -0.157654 1.36377e-16)
(1.77299 4.30243 -5.37114e-17)
(-0.352537 2.10891 3.69463e-17)
(0.788669 1.56754 2.05085e-17)
(0.310337 0.691054 -4.05558e-19)
(1.70649 1.64111 -5.22541e-17)
(0.205223 -0.109252 -1.14419e-17)
(1.57055 1.63024 -6.46498e-17)
(1.03019 -0.474994 -4.94707e-16)
(0.36777 1.17393 9.95651e-18)
(0.899648 1.53423 1.4222e-16)
(1.62984 0.558556 0)
(0.620785 0.0567801 0)
(0.444592 2.96423 0)
(0.300677 2.60634 4.30535e-16)
(1.21616 7.09759 2.73914e-16)
(0.0193133 3.27363 3.72134e-16)
(3.04904 0.158122 2.84815e-17)
(4.14714 4.51217 -4.15268e-17)
(0.678171 0.345484 0)
(0.100663 1.5016 8.38074e-17)
(-0.27775 1.69923 2.88962e-17)
(10.6205 0.0842549 -6.38441e-18)
(0.46404 0.016373 -9.73684e-17)
(-0.681061 -0.063178 4.10391e-18)
(0.51726 0.0142118 -1.70021e-16)
(7.22002 -0.361972 -1.98073e-17)
(1.10519 -0.0807658 0)
(0.489245 0.412593 -5.34341e-16)
(3.38789 0.837455 2.21838e-16)
(3.20704 -0.082406 0)
(0.684878 1.50951 6.56862e-17)
(0.371287 1.72284 -3.55114e-16)
(6.70223 -0.912277 0)
(0.748095 2.73687 -8.44639e-16)
(0.141864 2.99292 -2.10079e-16)
(0.534581 1.01889 0)
(2.67187 0.605996 0)
(11.4553 0.274214 3.68895e-17)
(10.4628 0.806276 2.90075e-17)
(10.2852 1.24341 1.96942e-18)
(3.67309 1.31783 -1.41682e-19)
(-0.30817 2.87836 0)
(0.62113 0.82752 2.47253e-16)
(2.76057 6.2785 -3.14155e-17)
(1.71346 -0.498263 0)
(0.818759 1.64785 -4.08931e-16)
(4.34896 1.25386 3.21122e-17)
(0.622278 1.44361 -1.0526e-16)
(8.28122 1.11901 -4.64146e-17)
(10.9583 0.0520657 6.6796e-17)
(0.506274 1.4845 -2.23427e-16)
(9.48953 0.698047 -1.39855e-17)
(0.0830991 3.15062 2.63648e-16)
(0.819119 7.72631 4.54795e-17)
(0.243062 2.68655 -2.06795e-16)
(2.95505 2.07977 0)
(2.97888 0.255673 1.09998e-16)
(-2.45907 -4.75354 -7.26786e-17)
(2.57703 0.0744592 2.76045e-17)
(1.5087 0.117065 1.20568e-16)
(0.0418675 4.40384 4.37541e-22)
(0.113032 2.98808 -1.24553e-19)
(0.043572 2.58656 1.17105e-16)
(0.0129355 0.375892 0)
(0.781348 0.990257 0)
(2.45302 -0.603528 6.83071e-17)
(-0.708772 0.206789 1.75354e-16)
(0.141811 2.58764 -1.61358e-16)
(0.0852146 3.18724 -4.6652e-18)
(-0.242049 2.09974 0)
(0.270905 1.74632 -3.31059e-17)
(10.1766 0.105431 7.31945e-17)
(0.0646554 1.94783 0)
(-1.02208 1.47359 -3.86045e-16)
(1.50222 1.87323 5.88047e-17)
(0.583775 0.00947826 2.63501e-16)
(0.176029 3.59511 9.56695e-17)
(-0.166897 2.8993 2.76363e-16)
(9.58091 1.90442 0)
(0.101379 2.91457 -6.81156e-17)
(0.0955491 3.17708 -5.04653e-17)
(9.52098 2.18691 -8.02786e-17)
(-0.158677 -0.751083 -1.28684e-20)
(7.25704 1.28868 8.37151e-18)
(0.241155 2.7737 4.82667e-19)
(0.154124 2.92507 0)
(-0.000257907 2.73972 4.78209e-18)
(0.408455 2.40181 -1.58569e-16)
(0.433766 2.95981 -5.60541e-17)
(1.11553 2.26444 1.96284e-16)
(0.826728 2.36616 3.13119e-17)
(0.0489181 3.18648 3.666e-16)
(0.242196 4.38349 0)
(-0.223132 2.36484 -2.27762e-16)
(2.28345 0.332128 3.25876e-17)
(0.725301 1.47852 -1.33558e-16)
(2.74613 0.0568688 6.60409e-17)
(0.318005 0.207197 4.5373e-18)
(0.523624 2.64461 1.00256e-16)
(-0.575654 2.82392 0)
(1.95363 2.41512 1.6549e-17)
(-0.0343456 3.08973 -1.69296e-17)
(0.967883 0.141797 -1.27836e-16)
(10.2209 0.856047 -7.26326e-19)
(-0.639688 1.72531 -3.00787e-17)
(-0.178617 3.66997 -1.4166e-16)
(0.399928 2.0429 -1.50033e-16)
(0.201466 2.6647 -4.0572e-16)
(0.248687 3.60271 0)
(0.619148 0.46473 2.91213e-16)
(0.0441328 2.63067 1.53736e-16)
(0.291834 3.3917 3.22765e-17)
(0.29195 -0.225793 -9.00664e-17)
(1.0095 1.98662 -2.18461e-16)
(-0.0780661 0.0696659 6.91264e-16)
(0.783197 0.407524 6.79954e-16)
(0.287539 -0.149531 -3.04346e-16)
(0.323987 3.14728 3.5474e-16)
(-0.0568397 2.28241 -3.05794e-16)
(-0.50696 -0.999684 -1.44295e-16)
(-0.0455056 2.84523 -8.90277e-17)
(1.33242 8.02188 0)
(10.087 0.292275 0)
(0.717917 0.244235 -3.1077e-16)
(-0.390356 1.4803 1.88644e-16)
(0.328562 0.698162 -7.37566e-17)
(0.302715 2.14111 0)
(2.52149 0.494667 9.23309e-17)
(1.01331 0.124888 2.80042e-20)
(0.271299 0.926594 -6.53587e-16)
(4.71574 -0.150819 2.01749e-16)
(0.444591 2.30643 1.89845e-16)
(-0.0192418 3.10935 -4.66652e-16)
(-0.789275 -0.110249 4.4317e-16)
(-0.584748 2.64218 -1.28123e-16)
(7.26879 1.44087 -1.33325e-17)
(-0.330893 3.91714 2.38367e-16)
(0.660649 -0.0374593 1.90879e-16)
(0.925661 -0.601671 0)
(0.0917089 -0.367654 6.1641e-17)
(0.736487 1.14436 -9.01054e-16)
(0.2035 1.56608 -2.32142e-17)
(0.127108 3.34747 2.09995e-16)
(-0.0702733 2.62909 2.21943e-17)
(5.00848 0.336837 -1.299e-16)
(10.1409 0.410151 -3.377e-19)
(0.540298 -0.0113076 1.94214e-16)
(11.1414 0.108644 0)
(2.11234 0.650823 -4.25764e-18)
(2.87126 -0.0880357 2.20595e-18)
(3.12763 -0.0444323 -1.38493e-17)
(0.121436 4.05443 5.44115e-17)
(0.116507 3.00932 6.50065e-17)
(-0.178852 2.46976 2.45905e-17)
(10.6055 0.0786817 1.21489e-17)
(0.841801 1.56213 1.84451e-19)
(0.176303 2.97847 -8.12016e-17)
(2.91283 -0.113367 9.54914e-21)
(0.538643 2.40599 0)
(10.4518 1.7105 -4.66785e-18)
(0.736432 1.12267 0)
(0.25664 0.482295 9.41741e-17)
(-0.243375 0.323303 7.65346e-17)
(-0.0708477 1.23931 4.62406e-18)
(1.85328 0.43338 2.20032e-16)
(-0.0205247 0.316297 3.77831e-16)
(9.5322 0.423659 -1.52397e-17)
(0.539243 0.00720922 2.68084e-16)
(-0.811874 0.566164 3.31949e-16)
(9.79711 2.24506 8.22778e-17)
(9.83182 0.217055 3.5076e-17)
(6.22055 2.0436 3.41135e-17)
(0.225231 3.24839 -6.55516e-17)
(-0.174924 2.89484 4.17263e-17)
(0.210244 0.630745 1.72615e-16)
(-0.175211 0.97727 0)
(4.8212 0.507016 4.37337e-17)
(2.69272 1.8275 1.17362e-16)
(10.5537 -0.108098 -1.85741e-17)
(0.994546 6.40674 5.40262e-17)
(0.540105 0.0284237 2.60217e-16)
(0.218245 0.320626 0)
(8.2142 2.60838 0)
(1.01237 1.23603 0)
(-0.0657176 2.27566 2.77135e-16)
(2.95778 0.0217677 7.29248e-17)
(0.961627 2.29384 3.54481e-16)
(0.157987 2.58124 4.30988e-17)
(1.6255 6.01672 -6.44887e-17)
(2.07709 0.245552 0)
(1.01026 1.94673 7.41224e-17)
(0.668097 3.39452 -1.99799e-16)
(0.162237 0.00613711 -8.64047e-16)
(11.3207 0.108455 8.14406e-17)
(4.84752 0.707643 0)
(0.181794 3.17483 1.41226e-16)
(0.969506 4.72746 0)
(1.88571 0.680391 1.40448e-16)
(0.895461 1.4337 -2.09308e-17)
(0.973533 8.70193 6.39873e-17)
(8.58606 1.87554 -1.21747e-17)
(9.94899 1.53368 8.47129e-17)
(-0.929699 -0.129185 0)
(1.17997 1.7135 -6.50887e-17)
(1.10401 0.0369975 0)
(5.99933 0.210582 0)
(0.63932 0.00790108 -1.42419e-16)
(0.842637 1.49516 2.04693e-17)
(-2.58759 4.61954 -1.1515e-16)
(4.19614 0.665767 -1.15209e-16)
(0.253041 1.45843 1.5886e-16)
(10.3512 0.0979271 -7.34519e-20)
(2.39392 2.09716 -1.14178e-16)
(-1.81836 1.38197 -2.44749e-18)
(0.185687 3.14174 9.19877e-17)
(-0.0489723 2.91946 -9.89599e-17)
(-0.213107 8.73167 -5.5621e-17)
(-0.0265906 3.81512 -3.30756e-16)
(2.82423 0.667063 -1.54791e-17)
(0.042516 3.11271 -2.51194e-16)
(-0.0547221 2.3525 -1.66682e-16)
(2.41233 0.16416 6.01773e-17)
(0.571774 -0.00988657 2.24965e-16)
(0.712304 0.83106 -2.78806e-16)
(0.0314096 1.31165 -5.01296e-16)
(0.353616 3.3173 -2.75185e-16)
(2.61822 2.40218 2.02384e-18)
(0.688504 0.947429 5.6245e-16)
(10.176 0.0779345 -5.35011e-17)
(0.57903 -0.0223317 0)
(-2.64457 7.12121 2.33463e-19)
(-1.23878 0.51172 -1.62962e-16)
(0.198335 2.67344 0)
(10.4595 0.954414 2.95694e-17)
(1.40669 0.0117038 2.75741e-16)
(1.25603 0.156527 -2.51802e-16)
(9.21817 1.64127 0)
(0.0528838 4.11649 -2.09196e-20)
(0.0386735 2.71143 0)
(10.1457 0.218906 0)
(0.610988 -0.0300563 -5.44639e-17)
(9.87701 1.29047 -5.86771e-17)
(4.64726 3.38516 -2.60056e-16)
(1.33266 4.82801 2.5787e-17)
(6.05509 2.30049 -1.0438e-16)
(0.135501 1.08834 -1.06932e-16)
(0.149662 1.50171 3.45698e-21)
(0.105358 1.68236 -1.0378e-16)
(-0.163436 2.07491 0)
(-0.103645 1.29184 1.47549e-16)
(-0.199427 0.909673 0)
(0.332273 0.375545 0)
(0.346277 -0.122609 0)
(0.0283455 -1.537 -1.71789e-16)
(0.0906791 2.12264 0)
(-0.137128 0.896304 1.24464e-16)
(2.78571 2.21337 -2.5002e-16)
(1.29517 2.81457 0)
(0.234765 2.957 2.93171e-16)
(-0.156615 2.45889 -4.21058e-17)
(0.124549 4.53786 1.11924e-16)
(-0.0150231 3.21389 -6.92516e-17)
(1.57888 0.954022 2.88915e-16)
(8.77655 1.59348 -2.39467e-17)
(0.121787 1.46939 2.01061e-17)
(0.2302 3.46514 -5.98846e-17)
(2.85625 0.280927 0)
(0.570315 -0.00246224 -3.29233e-20)
(5.33388 1.1092 0)
(1.02012 0.0746152 2.12495e-20)
(0.00543182 0.187054 -6.70467e-16)
(10.1566 0.110273 2.93351e-17)
(0.227048 2.97998 1.93143e-16)
(-2.06057 1.94397 -2.48348e-16)
(-0.0308922 2.33782 0)
(-0.166557 3.16981 6.47066e-16)
(5.43845 1.7478 -4.35777e-17)
(11.3191 0.445029 0)
(9.869 0.158305 2.10678e-17)
(0.493049 2.10734 1.17911e-17)
(9.48972 0.155973 0)
(2.59887 5.07086 1.22926e-17)
(3.09178 0.0739308 -3.66114e-17)
(2.6808 0.929629 -3.43861e-17)