/*--------------------------------*- C++ -*----------------------------------*\
| =========                 |                                                 |
| \\      /  F ield         | OpenFOAM: The Open Source CFD Toolbox           |
|  \\    /   O peration     | Version:  v1912                                 |
|   \\  /    A nd           | Website:  www.openfoam.com                      |
|    \\/     M anipulation  |                                                 |
\*---------------------------------------------------------------------------*/
FoamFile
{
    version     2.0;
    format      ascii;
    class       volScalarField;
    location    "0.09";
    object      nut;
}
// * * * * * * * * * * * * * * * * * * * * * * * * * * * * * * * * * * * * * //

dimensions      [0 2 -1 0 0 0 0];


internalField   nonuniform List<scalar> 
1466
(
0.000694918
0.000729345
0.000872834
0.000658993
0.000902003
0.00070072
0.00110735
0.00107187
0.000923022
0.00081149
0.000365391
0.00116521
0.000180913
0.00060709
0.000838305
0.000569094
0.000197153
0.000761091
0.00137714
0.000559651
0.000839424
0.0010606
0.00035622
0.000820139
0.000689335
0.000895304
0.00106687
0.00103343
0.000515895
0.000522604
0.000937266
0.00102215
0.00103871
0.00087524
0.000931137
0.000871878
0.000718554
0.000757335
0.00100222
0.000817585
0.00118248
0.00102234
0.00079172
0.000949344
0.00111854
0.000685274
0.000839143
0.000525627
0.00102288
0.000840403
0.000923851
0.00053805
0.00059668
0.000541747
0.000583669
0.00094264
0.000576011
0.000973275
0.000784442
0.000922555
0.000573291
0.000520597
0.000870611
0.000693841
0.000906925
0.000644402
0.000981454
0.000839123
0.000693812
0.000885386
0.000852136
0.000655033
0.000645966
0.00063819
0.000215239
0.00103633
0.000626125
0.000657799
0.000807174
0.000905802
0.000684998
0.000587287
0.000832964
0.00101827
0.000720816
0.000844234
0.000723818
0.000884519
0.000766305
0.000755786
0.000611408
0.000331887
0.000911265
0.00066858
0.000920151
0.000737086
0.000831981
0.000827367
0.000754685
0.000581716
0.000654167
0.00109026
0.000969634
0.000609368
0.000827446
0.000734485
0.000839818
0.000831525
0.000789563
0.000858057
0.000729279
0.000749595
0.000737093
0.000791993
0.00021289
0.000873001
0.000349424
0.000474598
0.000753564
0.000930474
0.000731749
0.0007525
0.000352297
0.000920398
0.000874928
0.00097057
0.000698203
0.000555819
0.000920663
0.000895914
0.00100927
0.000618575
0.000880318
0.00105935
0.000858906
0.000901421
0.00102876
0.000794766
0.00105512
0.000450527
0.000588922
0.000322484
0.00096
0.000923571
0.00107549
0.000428571
0.00055476
0.000658221
0.00103813
0.000679205
0.000928881
0.000784374
0.000772053
0.000887268
0.000629294
0.000924664
0.000669157
0.00121597
0.00110661
0.000680326
0.00109005
0.00059527
0.00096677
0.000733113
0.00107743
0.000904263
0.000912412
0.000496187
0.000711538
0.00118776
0.000759327
0.000845701
0.000710856
0.000989294
0.000954605
0.000890121
0.00106054
0.000899667
0.00084697
0.000902617
0.000757706
0.000854217
0.00101182
0.000786527
0.000907677
0.000518423
0.000858863
0.000885869
0.000866231
0.000518525
0.000470579
0.000351188
0.000631748
0.000923046
0.000848166
0.0006469
0.00102711
0.000879229
0.000876409
0.000796187
0.00110212
0.000921892
0.000830164
0.000713602
0.000802287
0.0010248
0.00085678
0.000640085
0.000878558
0.000520377
0.00082097
0.00118809
0.000979001
0.000851137
0.000755807
0.000861848
0.000828158
0.00030528
0.000528692
0.000656895
0.00107697
0.000764587
0.000638388
0.000845332
0.000949091
0.000855601
0.000687528
0.000606864
0.000746559
0.000918913
0.000853543
0.000894967
0.000699137
0.000937778
0.000834235
0.000851008
0.000955135
0.000863976
0.000982928
0.000776229
0.000921588
0.00100326
0.000351743
0.00103489
0.00104867
0.000312315
0.000394226
0.000315814
0.000312655
0.000310873
0.000618676
0.000911488
0.00101777
0.000904966
0.000843229
0.000923536
0.000829959
0.000911675
0.000845123
0.000994466
0.00085931
0.000835641
0.000935664
0.000699602
0.000655314
0.000691348
0.000922467
0.000995344
0.000886003
0.000653581
0.000969956
0.000769212
0.000863769
0.000732588
0.000814887
0.00094114
0.000985985
0.00100997
0.000616674
0.00103595
0.000873785
0.000314189
0.000312888
0.000613332
0.000859633
0.000822754
0.000975545
0.000407277
0.00101417
0.00049952
0.00086024
0.000912662
0.000973474
0.00101931
0.000996572
0.000927829
0.000948331
0.000894581
0.00101244
0.000438693
0.00086552
0.0011283
0.000516086
0.000990805
0.000769945
0.000953278
0.000913625
0.000990887
0.00021017
0.00085413
0.000907099
0.000840911
0.000904095
0.00114566
0.00101371
0.00088249
0.00103159
0.000808774
0.00109561
0.000672597
0.000860453
0.000905457
0.000991903
0.000328519
0.000454796
0.000333849
0.000325125
0.000356762
0.000363911
0.00039544
0.000288267
0.000284276
0.000347346
0.000449487
0.000396642
0.000300085
0.000247145
0.000452833
0.000249726
0.000367272
0.000368355
0.000376949
0.000342793
0.000313169
0.000415632
0.000384288
0.000318168
0.000333548
0.000794322
0.000999703
0.000991556
0.000866915
0.000997082
0.000965291
0.00097168
0.0009233
0.00115669
0.000583642
0.00080007
0.000941938
0.00103113
0.000919047
0.000902087
0.000514465
0.000412795
0.000432203
0.000312653
0.000359907
0.000406737
0.000398176
0.000370689
0.000332354
0.000323814
0.0002821
0.000306149
0.000327164
0.000329778
0.00098578
0.000822322
0.000308759
0.000804826
0.00106409
0.000946597
0.000789787
0.000971758
0.000959533
0.000489625
0.000875646
0.000945787
0.000692932
0.000969014
0.000910925
0.000936688
0.000911911
0.000212938
0.000883588
0.000910876
0.000787435
0.000821268
0.000290072
0.000345687
0.000784789
0.000935024
0.00087883
0.00103644
0.000858928
0.000922889
0.000818421
0.000855891
0.000855792
0.000863659
0.000973821
0.000298942
0.000412065
0.000909977
0.00100383
0.00092042
0.000909852
0.00106894
0.00105461
0.000909583
0.000421984
0.00119777
0.000878098
0.0010244
0.000828761
0.00102054
0.00106785
0.000747268
0.000718985
0.000907242
0.000870023
0.000921565
0.00117795
0.000619727
0.00101328
0.000933627
0.000961233
0.00120979
0.000979838
0.00052787
0.000835148
0.00132415
0.00103131
0.00101114
0.000934356
0.000892158
0.000890197
0.000921874
0.000929125
0.000918314
0.000910719
0.000832742
0.000901911
0.000967851
0.00113174
0.000890608
0.000912641
0.000419699
0.000952021
0.000971143
0.000909132
0.000897557
0.000922582
0.00126054
0.000397931
0.00102695
0.000862897
0.000872116
0.000313856
0.00116694
0.00112772
0.000938383
0.000905285
0.000974985
0.000931257
0.000359689
0.000312011
0.000953102
0.000893429
0.00085903
0.000859424
0.000903746
0.000862451
0.000827534
0.000862187
0.000861862
0.000873898
0.000815239
0.00106185
0.000756191
0.000889347
0.000875308
0.000863782
0.000524301
0.000824782
0.000770594
0.0010208
0.000437697
0.000490242
0.000898083
0.000873377
0.000438871
0.000952211
0.000862873
0.000937756
0.00104774
0.00100713
0.000906787
0.00102576
0.000892757
0.000677736
0.000929296
0.0009748
0.000866501
0.00095353
0.000931913
0.000889679
0.000903446
0.000911744
0.000892309
0.000910512
0.00103602
0.000621967
0.000509486
0.000730147
0.00112897
0.00103002
0.000377492
0.000865833
0.000844257
0.000906356
0.000965205
0.000932969
0.000978023
0.00108995
0.00112974
0.00116342
0.000842118
0.000713966
0.00112343
0.000967673
0.000890249
0.00102733
0.000966352
0.000937123
0.000329441
0.000900368
0.000934303
0.000931379
0.000891419
0.00075039
0.0010205
0.000936487
0.000910297
0.000892508
0.000905471
0.00085957
0.000913352
0.000932647
0.000724573
0.00095474
0.000919121
0.000893388
0.00104381
0.000912225
0.000860275
0.000786972
0.000933426
0.000900622
0.00051518
0.00108047
0.000909894
0.00113855
0.000793182
0.000893937
0.000642782
0.000865006
0.000927877
0.000894226
0.000956473
0.000545628
0.000925989
0.000917415
0.000824217
0.000896695
0.000697084
0.000908064
0.000908421
0.000929543
0.000540413
0.000417208
0.00112078
0.00100967
0.000980478
0.000907326
0.000952545
0.000898522
0.000910913
0.000915007
0.000913565
0.000966837
0.000915502
0.000903724
0.000858047
0.000932064
0.000920057
0.000841878
0.000904291
0.000889178
0.000903482
0.000748474
0.000925524
0.00087673
0.000531464
0.000869556
0.000899525
0.000574441
0.000999475
0.000973751
0.000909725
0.00086003
0.000510043
0.000947567
0.00090277
0.000901609
0.000905767
0.00083477
0.000861973
0.000943159
0.000918281
0.000891727
0.00100713
0.000490054
0.00092552
0.000894738
0.000911343
0.000961923
0.00101263
0.000915873
0.00086322
0.0010958
0.000561518
0.00107932
0.000797985
0.00110221
0.000990145
0.000959659
0.000904029
0.00086489
0.000657556
0.000918255
0.000907377
0.000939022
0.00102369
0.000868124
0.000849371
0.000990056
0.000867618
0.00101006
0.000533236
0.00093358
0.00114314
0.000639911
0.000889104
0.000981677
0.000904554
0.000930768
0.000924548
0.000951425
0.000871263
0.000600874
0.00067366
0.000923758
0.000499668
0.000368862
0.000984212
0.000939563
0.000849145
0.000744217
0.00100053
0.000823912
0.000256562
0.000987514
0.000993238
0.000777673
0.000646194
0.000854673
0.000384552
0.000931021
0.000637194
0.000874018
0.00118292
0.00110369
0.00117355
0.000859289
0.00101219
0.000881494
0.000961743
0.000962466
0.000912424
0.0009504
0.000947054
0.0010207
0.000991521
0.000779548
0.000931161
0.000935826
0.000909355
0.00101482
0.000892019
0.000348029
0.000854096
0.000979201
0.000929193
0.000610809
0.000955639
0.000898653
0.000871898
0.0010816
0.000940062
0.000903745
0.000893199
0.000934626
0.000899401
0.000861866
0.000932621
0.000832236
0.00107035
0.00100332
0.000909842
0.000820584
0.000898074
0.00024818
0.000257678
0.000900645
0.000246826
0.000285222
0.000445376
0.000921955
0.000476133
0.000250589
0.000247373
0.000233876
0.000355684
0.00083641
0.000180681
0.00100879
0.000778657
0.00107029
0.000856966
0.000292251
0.000636448
0.000876888
0.000922718
0.000760638
0.000832053
0.000913197
0.000780577
0.000603021
0.000277253
0.00109824
0.000920867
0.000978538
0.00100931
0.0009132
0.000703239
0.000285973
0.000828257
0.000961157
0.00101978
0.000923084
0.000542371
0.000323478
0.000908079
0.00095798
0.000699895
0.00103606
0.000688526
0.00095966
0.000807317
0.00105112
0.000199466
0.00020532
0.000887794
0.00100868
0.000901964
0.000744272
0.000725055
0.000325077
0.000597752
0.000951857
0.000951852
0.000736449
0.000952875
0.00102944
0.000961695
0.000725734
0.00127964
0.000323401
0.000483878
0.000925307
0.000882648
0.000916672
0.000770207
0.000373048
0.000910502
0.000756577
0.000901206
0.000946501
0.000786088
0.000350368
0.000733414
0.000943045
0.000675412
0.000762325
0.000679536
0.000383148
0.000943634
0.0008696
0.000749363
0.000740771
0.000906753
0.000951861
0.00019038
0.000194222
0.000812398
0.000861613
0.0006877
0.00079942
0.000789884
0.00101901
0.000728783
0.000415676
0.000775035
0.000542487
0.000735355
0.000880784
0.000537268
0.000506842
0.000362259
0.000802552
0.00115209
0.00090038
0.00064407
0.000913168
0.000975584
0.0010099
0.000897866
0.000934653
0.000987248
0.000895382
0.000916973
0.000936224
0.000204793
0.00087278
0.00101963
0.000322672
0.000736026
0.000272042
0.000815597
0.000611624
0.00103882
0.000887612
0.000911643
0.000893943
0.0006708
0.000739339
0.000946697
0.000714053
0.000821921
0.000298784
0.000995469
0.000841573
0.000917245
0.000861508
0.000640371
0.000901854
0.000856168
0.000902873
0.000613931
0.000978083
0.000871224
0.00083645
0.000669488
0.000804821
0.00090461
0.000800678
0.000900952
0.000950069
0.000991702
0.000861224
0.000525608
0.000370964
0.000863394
0.00093446
0.000883068
0.000926843
0.00114814
0.000877484
0.00078762
0.000862482
0.000832536
0.00098024
0.000951753
0.000254208
0.000860596
0.000732664
0.00106614
0.00103594
0.000747458
0.00077096
0.000931161
0.00018672
0.000836218
0.000204958
0.000957718
0.000680489
0.000899105
0.000826078
0.000927544
0.000805818
0.00089374
0.00115826
0.000904177
0.000676735
0.000861878
0.00106935
0.000841474
0.00104463
0.000699672
0.000907385
0.000998894
0.000894181
0.000298182
0.000906606
0.000860328
0.000918775
0.000838337
0.000229832
0.000221137
0.000190033
0.00020872
0.000310884
0.000295804
0.000303138
0.000274844
0.000234754
0.000256161
0.000282974
0.000236468
0.000233211
0.000226583
0.000788864
0.000216998
0.000209753
0.00117811
0.000350956
0.00111774
0.000196427
0.000314892
0.000978771
0.00104938
0.000615317
0.000663133
0.000372526
0.000895782
0.000684136
0.000901756
0.000863534
0.000334077
0.000935859
0.000309003
0.000819816
0.000912922
0.000331107
0.000866458
0.000872472
0.00033799
0.000618814
0.000915565
0.00096598
0.000866859
0.00090072
0.000860775
0.000967846
0.000724731
0.00072436
0.000730298
0.000933953
0.000816547
0.00054998
0.000342334
0.000349199
0.000989366
0.000837597
0.000279578
0.000903869
0.000892169
0.00092052
0.000348093
0.00035142
0.0011868
0.000863431
0.00111512
0.000561197
0.000636106
0.000664182
0.000688853
0.000425988
0.000840779
0.00030641
0.000367915
0.000918471
0.000868959
0.000909035
0.00083371
0.000834365
0.000899184
0.00095683
0.000754212
0.000660758
0.000419596
0.000463581
0.000839789
0.0010646
0.00106193
0.000982179
0.000891631
0.000944362
0.000860375
0.000891456
0.000901129
0.000360784
0.000247724
0.000943948
0.000784039
0.000236014
0.000970873
0.00126293
0.0010802
0.000220895
0.000844957
0.000856988
0.000971375
0.000974579
0.000779902
0.000213476
0.000958655
0.000830764
0.000825957
0.000645527
0.000861677
0.000897967
0.000266825
0.00106644
0.000993818
0.000849702
0.000514678
0.00127811
0.000921834
0.00066523
0.000807838
0.000203167
0.000816324
0.00080948
0.000544433
0.000880602
0.000947368
0.0011863
0.000874317
0.000384392
0.000784872
0.000781576
0.000856397
0.000753135
0.00103339
0.000900766
0.00103578
0.000348625
0.00102323
0.000237341
0.000338057
0.00105325
0.00095517
0.00119033
0.000892645
0.00117509
0.000943195
0.000833632
0.000957295
0.0011477
0.000594815
0.00088906
0.000420504
0.000323316
0.000750237
0.000981381
0.000955699
0.000728186
0.000381497
0.000337609
0.000783293
0.000894202
0.000851587
0.000578081
0.000202363
0.000302078
0.000918439
0.000330731
0.00100903
0.00096766
0.000855613
0.000749184
0.00114308
0.000305082
0.00042608
0.000627948
0.00074659
0.000895306
0.000204332
0.000359527
0.000902848
0.000845125
0.000188946
0.000442732
0.000471909
0.000758701
0.00037564
0.00124566
0.000699066
0.000968756
0.000876709
0.00090494
0.000593068
0.000750807
0.00097102
0.000283681
0.000929858
0.000865645
0.000321775
0.000812623
0.000945172
0.000642014
0.000856519
0.000890372
0.000204223
0.000821385
0.000930497
0.000286336
0.000738034
0.000276554
0.000595818
0.00047458
0.000196094
0.000899632
0.000187509
0.000831244
0.00125788
0.000800807
0.00101455
0.000896609
0.000909444
0.000386379
0.000910502
0.000750241
0.000498115
0.000579977
0.000857077
0.000731214
0.000246212
0.000768198
0.000903895
0.00083585
0.00029612
0.000913279
0.000974712
0.000795423
0.000559675
0.000953191
0.000304494
0.00102988
0.000768929
0.000537462
0.000156626
0.000540668
0.0009687
0.000808191
0.000899727
0.000802337
0.000876135
0.000891654
0.000625157
0.000304535
0.000696444
0.000858812
0.000906252
0.000895286
0.000534286
0.000681133
0.000895402
0.000919586
0.00065382
0.000817296
0.000682814
0.0009082
0.000630561
0.000891625
0.000883018
0.000898686
0.000934362
0.00083584
0.000847457
0.000809382
0.000882721
0.000744066
0.00099127
0.000903055
0.00106328
0.000505156
0.00136765
0.000957168
0.000820279
0.000907263
0.000865447
0.000655946
0.000261726
0.000888115
0.000896257
0.000613853
0.000799085
0.000788525
0.000485053
0.00109876
0.000469364
0.000899433
0.000804576
0.000928145
0.000539003
0.000444087
0.000939418
0.000635091
0.000894096
0.00090355
0.000897864
0.00087767
0.000729759
0.000982043
0.000937329
0.000872361
0.00109798
0.000990524
0.00109176
0.00109713
0.000903851
0.000644123
0.00101777
0.00125004
0.000903549
0.00080834
0.00070319
0.000701892
0.000738895
0.00101535
0.00101451
0.000675837
0.000822732
0.00106147
0.000245993
0.000156014
0.000438458
0.000897906
0.000941014
0.000472012
0.000881797
0.000898311
0.000908573
0.000759242
0.000784662
0.000802978
0.000890186
0.00114036
0.000495762
0.000976783
0.00084197
0.000776126
0.00109621
0.00104518
0.000792662
0.000632632
0.000928167
0.000871315
0.00090443
0.000644287
0.000899268
0.000900874
0.000976393
0.000210685
0.000942801
0.000972192
0.000898567
0.00105484
0.000229378
0.000789484
0.000889158
0.00106087
0.000912396
0.00111063
0.000153925
0.00106394
0.00116171
0.000710986
0.000866575
0.000294565
0.000842725
0.000917193
0.000982685
0.00123691
0.000919566
0.000896916
0.000844782
0.00105325
0.000997242
0.000716606
0.000915294
0.00089771
0.000819304
0.00111933
0.00104314
0.00132057
0.000829412
0.000894696
0.000688353
0.000651864
0.000711791
0.000258542
0.00100424
0.000690674
0.000695811
0.000661018
0.000805377
0.00102004
0.000250668
0.000701423
0.000659065
0.000191386
0.000921495
0.000765137
0.000746214
0.000733839
0.00090179
0.000502321
0.000922127
0.000677913
0.00064974
0.00124771
0.000930131
0.00102689
0.000863671
0.000995418
0.000685561
0.000667619
0.000516938
0.000728714
0.000611255
0.0008168
0.000880032
0.000994911
0.000931913
0.000208531
0.000795881
0.000871523
0.000834731
0.00083845
0.000189664
0.000455604
0.00020255
0.000899272
0.000945264
0.000879854
0.000639937
0.000872612
0.000862631
0.000788608
0.000534216
0.000470556
0.000689029
0.0010309
0.0009122
0.000879069
0.000474839
0.000891841
0.00104622
0.00122388
0.000845323
0.000394856
0.000900453
0.00093125
0.00119218
0.000641037
0.0010309
0.000997422
0.000892723
0.000792905
0.000781369
0.00122809
0.000458868
0.000566089
0.000584064
0.000839207
0.000496298
0.000636714
0.000788482
0.000855849
0.000736289
0.00060193
0.000714206
0.00111531
0.000882824
0.000900682
0.0010161
0.000779321
0.000909382
0.000761668
0.000406575
0.00093225
0.000684162
0.000465655
0.000842636
0.000965427
0.000780824
0.000771344
0.000778167
0.000464106
0.00067422
0.000806213
0.000940686
0.000411451
0.000830247
0.000949161
0.000786731
0.000798802
0.000491335
0.001184
0.0010912
0.000780604
0.000553098
0.000871742
0.000653696
0.00101021
0.00133643
0.00037919
0.000915971
0.000901243
0.000901538
0.000623926
0.00098607
0.000909839
0.000653313
0.000526636
0.000529979
0.000511322
0.000531805
0.000514034
0.000639671
0.00051902
)
;

boundaryField
{
    frontAndBack
    {
        type            empty;
    }
    wallOuter
    {
        type            nutkWallFunction;
        Cmu             0.09;
        kappa           0.41;
        E               9.8;
        value           nonuniform List<scalar> 
102
(
2.09346e-05
2.09346e-05
4.32826e-05
2.54623e-05
2.53663e-05
2.46619e-05
2.49461e-05
3.11122e-05
2.98442e-05
3.11853e-05
2.95928e-05
3.49152e-05
3.00212e-05
2.98192e-05
2.75885e-05
4.24131e-05
2.03888e-05
3.51841e-05
3.33094e-05
3.44022e-05
4.00507e-05
2.33334e-05
2.3844e-05
3.93434e-05
5.81143e-05
2.1931e-05
2.24225e-05
2.40163e-05
3.26755e-05
2.13464e-05
2.38782e-05
2.71423e-05
2.59488e-05
2.16861e-05
2.42574e-05
3.68923e-05
3.47388e-05
3.61158e-05
3.26235e-05
2.7823e-05
3.04867e-05
3.37539e-05
2.80719e-05
2.7675e-05
2.67912e-05
2.54859e-05
2.4502e-05
2.28415e-05
3.76397e-05
4.00241e-05
3.73546e-05
3.96649e-05
4.04614e-05
4.09797e-05
4.1829e-05
3.3503e-05
4.16837e-05
4.21134e-05
3.64278e-05
4.47634e-05
4.39257e-05
2.82921e-05
2.62029e-05
2.54009e-05
3.20436e-05
2.37005e-05
4.68434e-05
2.83492e-05
4.10088e-05
3.91676e-05
4.65688e-05
4.09466e-05
2.36691e-05
3.64225e-05
3.95863e-05
3.67856e-05
2.39588e-05
2.1762e-05
4.5734e-05
3.42104e-05
3.83991e-05
2.39943e-05
2.25115e-05
2.12914e-05
4.70965e-05
2.92991e-05
3.51972e-05
1.70509e-05
3.68533e-05
3.13572e-05
2.82954e-05
1.68604e-05
2.49775e-05
2.74058e-05
1.67502e-05
3.52871e-05
3.10123e-05
2.9793e-05
2.20916e-05
2.46419e-05
2.18764e-05
2.34759e-05
)
;
    }
    inlet
    {
        type            calculated;
        value           nonuniform 0();
    }
    outlet
    {
        type            calculated;
        value           nonuniform 0();
    }
    wallInner
    {
        type            nutkWallFunction;
        Cmu             0.09;
        kappa           0.41;
        E               9.8;
        value           nonuniform List<scalar> 
138
(
4.55312e-05
2.28311e-05
6.15865e-05
6.36731e-05
6.54733e-05
7.13104e-05
6.52224e-05
6.9693e-05
6.37464e-05
4.11477e-05
7.97753e-05
7.42649e-05
4.37425e-05
7.15149e-05
3.99056e-05
5.16063e-05
6.86407e-05
6.07501e-05
6.32129e-05
5.75276e-05
4.2072e-05
3.75861e-05
4.3743e-05
3.83891e-05
4.95115e-05
3.90038e-05
3.84685e-05
3.8251e-05
8.09087e-05
3.86173e-05
3.8575e-05
5.09128e-05
3.92835e-05
5.54317e-05
4.11502e-05
4.03645e-05
4.44645e-05
4.54369e-05
4.92428e-05
3.53722e-05
3.46554e-05
4.32818e-05
5.41738e-05
4.79616e-05
3.6006e-05
2.99238e-05
5.6996e-05
2.91956e-05
4.58648e-05
4.60519e-05
4.70456e-05
4.19533e-05
3.86716e-05
5.18138e-05
4.82029e-05
3.95634e-05
4.14711e-05
7.12006e-05
6.11886e-05
5.02179e-05
5.41567e-05
3.86964e-05
4.49293e-05
5.09861e-05
5.00495e-05
4.64003e-05
4.13004e-05
3.99221e-05
3.40454e-05
3.69208e-05
3.96148e-05
4.03746e-05
3.77155e-05
3.57396e-05
4.04792e-05
3.6441e-05
5.01853e-05
5.24635e-05
7.70004e-05
6.38741e-05
5.12114e-05
4.77856e-05
3.84994e-05
4.36949e-05
3.80749e-05
6.36092e-05
5.18899e-05
5.89956e-05
5.3328e-05
7.66948e-05
6.25049e-05
4.68624e-05
4.04956e-05
7.83589e-05
6.68486e-05
5.00844e-05
6.26678e-05
5.89013e-05
7.81887e-05
6.143e-05
4.41882e-05
4.75568e-05
4.28547e-05
5.601e-05
5.651e-05
6.49703e-05
3.90076e-05
4.61337e-05
4.32865e-05
4.7191e-05
5.21405e-05
6.01989e-05
4.51574e-05
3.99476e-05
3.6622e-05
3.07093e-05
3.66875e-05
4.3319e-05
4.60248e-05
5.13506e-05
5.11128e-05
5.66055e-05
2.92808e-05
4.28526e-05
5.09862e-05
4.41258e-05
3.50553e-05
3.28479e-05
6.03214e-05
3.75066e-05
6.17094e-05
6.75633e-05
6.51326e-05
6.52163e-05
6.44315e-05
6.19136e-05
7.68669e-05
6.34153e-05
)
;
    }
    procBoundary2to0
    {
        type            processor;
        value           nonuniform List<scalar> 
42
(
0.000858862
0.000858862
0.000971806
0.0010046
0.00101709
0.000839941
0.000896801
0.000896801
0.000951869
0.000872646
0.00109863
0.00109863
0.00105268
0.00106693
0.00103415
0.00077329
0.000944847
0.000866382
0.000896825
0.00102268
0.000890697
0.000867557
0.000867557
0.00083654
0.000890697
0.000900084
0.000762215
0.000949347
0.000762215
0.000869806
0.000918219
0.00100519
0.00103832
0.00103397
0.0010236
0.0010046
0.000944847
0.000456017
0.000742502
0.00091911
0.00091911
0.000991164
)
;
    }
    procBoundary2to1
    {
        type            processor;
        value           uniform 0.00106715;
    }
    procBoundary2to3
    {
        type            processor;
        value           nonuniform List<scalar> 
29
(
0.00108931
0.00102201
0.000604262
0.000490671
0.000587648
0.00063719
0.000575778
0.00095652
0.00102543
0.000859928
0.000871383
0.000729539
0.000591734
0.00101862
0.000972415
0.00104455
0.00104081
0.00104081
0.00102201
0.00101862
0.00104638
0.0010926
0.000365243
0.00102441
0.000730596
0.00128422
0.00102543
0.000982393
0.000729539
)
;
    }
}


// ************************************************************************* //
