/*--------------------------------*- C++ -*----------------------------------*\
| =========                 |                                                 |
| \\      /  F ield         | OpenFOAM: The Open Source CFD Toolbox           |
|  \\    /   O peration     | Version:  v1912                                 |
|   \\  /    A nd           | Website:  www.openfoam.com                      |
|    \\/     M anipulation  |                                                 |
\*---------------------------------------------------------------------------*/
FoamFile
{
    version     2.0;
    format      ascii;
    class       volScalarField;
    location    "0.2";
    object      epsilon;
}
// * * * * * * * * * * * * * * * * * * * * * * * * * * * * * * * * * * * * * //

dimensions      [0 2 -3 0 0 0 0];


internalField   nonuniform List<scalar> 
1466
(
1.22953
1.37617
0.78223
1.78623
1.7978
1.27597
5.17502
1.36884
9.15468
4.91438
0.772235
3.41153
0.120801
1.27521
0.551468
2.36975
0.294004
1.76956
2.03519
1.46975
0.283675
2.73389
5.70291
1.26989
1.16816
0.376411
0.854112
2.99203
4.93926
1.82931
1.35866
1.55593
3.8233
1.23897
1.64961
0.494884
0.454679
0.212159
1.89353
3.39779
3.54218
1.25403
8.61914
1.18397
4.58926
5.97208
0.215227
2.36744
1.03685
0.252625
0.679063
3.27289
2.19457
1.56752
3.95673
1.82739
0.289638
2.10894
0.353136
1.89819
2.51066
1.42831
1.5506
1.95039
1.30923
1.9719
1.72766
0.326752
1.41452
3.16347
0.21103
1.4382
0.209239
1.37299
0.315678
10.035
1.42332
1.44558
4.59108
1.65454
0.234413
1.53001
0.409816
0.828305
0.196271
0.219745
0.193585
1.59635
1.19944
1.76724
1.63276
0.361317
1.54246
1.59259
0.562258
0.25187
1.37779
0.744273
1.72006
1.82071
3.95742
3.49694
0.703376
1.7658
0.277569
9.77928
0.379146
0.354912
1.22423
0.982795
0.232905
0.300983
7.56405
0.20423
0.161648
5.01907
1.70408
1.43511
1.81773
2.51575
0.326829
1.1998
0.679489
1.52735
1.2061
0.804698
0.631406
1.61278
1.61978
5.45585
0.451662
1.48823
1.13897
1.83381
0.27127
1.43916
1.56881
0.196216
4.18293
2.15933
3.99747
0.391077
1.51686
1.0991
4.42013
2.10837
2.14001
1.49793
1.35784
0.201012
1.42215
0.843739
1.68205
1.20809
1.41442
0.50322
1.39772
11.4985
0.299987
1.44117
3.8544
2.03024
1.55828
0.282598
3.01607
1.30651
5.10614
2.20619
1.69055
1.7808
0.220005
0.212725
0.801419
0.991289
0.610972
1.2259
2.59735
1.76437
0.653773
1.62384
1.25983
0.282641
0.572613
1.47347
1.3785
1.32131
0.365176
5.12965
0.452179
1.79742
2.95737
2.79339
1.97776
1.40213
0.250411
1.39109
3.91582
0.911488
0.790729
0.898333
5.82902
0.220631
0.310838
1.72706
1.02143
1.52674
0.320736
2.30283
0.556294
0.837624
0.930259
12.943
0.22508
0.200463
1.80179
0.410547
0.512331
0.448309
1.43562
1.31971
22.5028
1.21259
1.55653
0.208747
0.807763
0.209748
0.904224
1.75341
0.499773
7.12588
0.198902
1.84692
1.26585
0.260943
0.475434
1.12997
0.260001
1.51494
0.289075
1.17934
8.35425
0.338517
0.337684
1.85501
2.19036
0.572987
0.326484
0.429979
0.526005
0.524808
1.40643
1.26568
1.16683
1.53387
1.17535
1.09743
0.686087
3.99742
4.19764
10.7122
0.201006
0.199816
1.34322
1.33514
1.20178
0.489096
9.61222
1.88959
0.230752
1.36007
1.30259
1.21402
0.199569
0.668256
0.199568
0.42474
1.40394
1.37732
1.5347
1.8597
1.0519
0.574255
0.473744
0.482971
0.361451
0.199121
0.592875
0.3124
14.2971
1.95184
0.206908
8.57447
1.68611
12.8401
1.06169
0.234695
5.80059
3.69176
0.267136
0.981463
0.34656
12.5743
0.882247
1.36443
0.698159
0.701345
0.553896
0.372385
0.468854
3.36628
7.65938
0.436073
0.220278
2.04938
0.781267
0.229239
2.91106
0.381443
3.58881
0.676535
0.22
1.20023
0.590136
1.88968
1.22227
0.695343
0.264587
0.332993
0.30187
0.441316
0.337911
1.22688
0.250109
1.15502
0.970981
1.82235
0.320145
0.581451
18.0396
0.224537
0.33056
0.651005
0.690613
0.362319
0.52357
0.230737
5.36891
0.346916
0.403071
15.9945
1.51022
0.202019
1.86271
0.37094
0.343715
0.219111
8.15491
2.10323
3.72445
0.337505
10.2849
1.46732
1.05061
1.22428
3.1342
0.415732
0.298159
0.254375
0.425416
1.16888
0.209418
0.302136
10.0675
1.62757
1.1579
0.599347
0.730452
6.70661
0.195876
0.387037
0.197515
1.41574
1.89594
0.322823
1.00985
0.751431
0.266944
0.231336
0.231873
0.389608
0.471827
2.71006
0.752944
5.10898
0.68785
0.649946
0.82332
0.255361
0.255083
0.26454
18.9319
0.21933
0.740044
0.203241
3.87791
0.550067
1.453
4.10171
0.932299
0.68148
0.269284
0.842504
0.379053
3.41157
6.85984
1.32838
1.42452
1.60251
0.420166
0.780407
1.65285
0.363195
2.26964
4.73451
2.61544
3.52913
5.48065
3.43233
5.26095
5.09793
1.76149
0.265922
1.92784
10.2362
6.83454
8.33623
7.4499
1.30607
3.2311
4.78388
31.96
0.300857
14.6258
2.7655
3.68623
8.31301
6.85503
7.72909
4.42742
1.90068
3.87788
8.2334
2.094
1.51156
8.3795
3.15075
8.77738
9.44472
2.16985
2.31257
9.46617
1.94243
1.74476
2.00009
15.8349
18.5452
8.24559
0.346758
2.22356
0.783077
9.83131
3.04186
2.38861
2.77508
1.04286
1.73184
1.03439
0.828669
1.14596
1.27988
2.05327
0.497384
1.02087
0.770868
1.06845
1.32463
0.861812
0.505263
0.985982
3.37283
1.17243
0.53898
0.91853
0.295609
2.78894
1.25925
1.45013
9.97763
23.6314
27.866
0.342793
0.85286
3.05063
0.891794
0.227019
0.744816
3.4406
2.75879
1.98753
3.04921
5.61206
1.69736
4.14606
2.66389
1.81304
3.27411
0.315166
0.841836
1.85714
2.23263
2.10279
6.21472
18.6756
7.66892
8.06469
0.589774
16.5481
21.4542
0.471259
0.228747
0.516446
0.975666
2.40374
2.05306
2.5881
13.5037
3.77421
10.1978
0.232202
0.511808
11.6005
7.69066
8.80021
8.9258
2.70461
1.68934
0.461422
5.52223
6.7803
0.392922
0.772667
0.294727
8.2028
1.77876
1.22984
10.057
3.0705
0.266176
1.40305
6.91458
0.227645
0.515411
1.51333
5.71359
3.6504
1.87582
0.231286
1.21223
2.467
5.04706
0.429751
6.4398
2.4561
4.48636
0.849599
2.43466
2.65093
0.211714
3.02622
2.90693
0.55687
0.741826
1.01715
0.808935
0.227416
3.09109
4.28405
0.691178
4.52801
2.95542
1.55699
1.88865
3.70952
0.616936
0.377626
0.736354
1.29865
1.45056
5.6748
0.92904
4.30363
0.51299
0.672482
0.485707
0.261287
1.57778
1.0431
0.228798
6.9132
4.63361
1.64241
7.63619
3.63807
4.75689
0.690939
0.216398
6.29609
1.55582
14.487
0.535619
0.515173
0.249437
5.05474
1.4543
0.555552
1.72906
0.267078
1.00817
0.283135
6.26487
1.45208
4.94083
0.662615
1.80591
1.00828
1.72134
0.871982
7.20824
0.484229
0.593831
0.321173
14.4321
0.327627
5.05948
0.241969
3.21058
0.583075
12.9024
6.98835
0.360946
0.880779
4.97739
1.71509
10.2479
0.481184
1.75079
7.8327
0.801056
0.394299
0.609055
2.25202
6.41832
4.21164
3.10457
6.27185
7.32464
1.98676
0.227845
5.73002
1.06326
0.415218
0.93709
0.209058
0.512941
1.38335
1.88831
2.64776
6.31186
0.468099
0.759387
0.620221
0.443839
0.300026
0.525183
0.560066
0.214683
2.01239
0.214492
0.510475
1.90903
1.40205
0.431841
3.5396
0.351865
10.7597
0.546001
2.13267
0.207565
0.648586
1.72915
3.70225
0.490701
1.8022
11.051
1.20325
1.23446
1.87032
5.69659
3.0549
0.532032
0.459541
0.633269
3.48257
0.54099
0.542946
1.6227
2.00912
4.61663
0.466479
1.63901
0.817508
1.41283
0.819972
1.67817
6.74651
0.205318
0.899953
1.18837
19.7594
3.97046
3.19513
1.59139
0.618626
0.357621
0.323223
8.1586
0.403005
0.285971
1.24167
3.81219
1.56862
0.47447
0.323877
1.50431
2.31975
0.281736
1.00107
0.544026
16.4161
2.68895
0.542443
2.72378
0.410859
1.17467
1.49656
1.59229
3.81544
6.36183
0.81275
0.659658
1.45651
0.929435
0.947726
0.8996
1.19042
4.57796
6.29887
2.04422
0.540079
0.47746
1.15532
1.34257
2.56909
0.27498
1.398
0.266554
1.00459
2.37177
0.832782
1.85006
2.38677
13.4972
0.244428
0.866074
1.52886
0.580981
0.64362
0.232034
7.44034
2.31786
1.54328
0.800381
0.630581
1.47353
1.71298
3.0193
5.46437
0.212207
2.16055
1.32691
1.91378
0.905763
0.744317
0.498456
0.744209
0.484029
9.01061
0.250811
0.537471
1.37301
3.64447
0.555299
0.384021
9.80368
1.5749
2.85278
1.38991
0.52916
1.37936
5.08641
2.66051
0.467962
1.04173
1.92109
0.52725
0.619311
1.16486
0.204326
0.222997
0.877068
0.508005
0.724763
0.503505
0.351277
0.63572
1.08358
1.96346
1.2546
1.03738
23.6526
0.266057
0.218741
3.88402
4.75371
0.213478
2.17241
2.11695
2.1754
1.74313
2.09155
11.7632
0.879912
1.1754
13.1559
0.314804
0.287878
1.13952
0.290464
0.821634
1.04444
6.90921
0.223942
9.15187
1.19272
0.741623
0.636364
1.37504
0.447697
0.821184
0.553815
0.607049
0.415082
10.5213
1.08411
0.464752
0.213831
1.37554
1.96374
3.59245
1.39575
1.49132
0.611386
1.76186
0.350235
1.28356
0.508194
1.27505
1.7318
1.35379
1.52947
0.37755
0.219983
0.515389
0.857973
0.755542
6.25373
0.250376
0.329437
3.57629
2.57128
1.24118
0.709675
0.706316
2.50378
0.791326
0.255245
0.233034
0.36517
2.36622
0.538534
1.38084
0.211689
2.53185
0.860438
1.02217
0.652019
4.18007
1.30625
1.76341
1.00512
1.41746
1.19633
4.58551
11.7538
11.3245
1.58859
0.363979
0.285452
0.833504
1.05921
1.25882
1.71524
0.518418
2.12283
0.392762
7.69691
0.252735
1.67247
0.46269
0.823697
0.751578
1.00765
0.812149
2.2212
2.44045
2.14166
2.23462
1.00673
2.35724
2.33586
1.06707
1.04389
0.963255
1.23843
0.855454
0.759711
3.50807
0.522775
3.12214
0.339404
2.22768
7.19264
1.01476
1.66189
1.34016
0.492976
10.221
1.4919
0.768124
0.414739
1.88463
0.774494
1.57086
0.288904
2.337
1.85644
0.808752
0.60874
2.11519
1.77546
11.3918
3.46612
4.63271
7.92859
0.322171
0.688816
11.2547
2.24022
0.724802
2.65282
1.18523
2.95405
1.90379
2.03945
7.43201
0.21913
1.83609
3.73825
6.61987
7.55561
1.93727
1.97275
1.72429
0.397983
3.19133
1.48844
1.66703
8.58394
1.49065
2.48242
0.429862
1.85933
1.83028
0.966006
0.209653
3.64722
0.862587
0.450524
0.241913
2.20918
0.269134
1.68204
7.58736
3.30784
1.25989
4.03719
4.25245
1.02898
2.17453
1.15592
0.283167
0.493621
8.18784
4.47392
2.31323
1.93728
6.74925
0.379508
0.253517
1.9643
3.37741
0.366967
0.351613
3.91455
0.647585
0.753753
1.47323
0.184599
0.925328
0.889802
0.412754
0.437778
0.213674
8.35949
0.766118
0.907062
7.95859
0.226983
0.277795
20.5287
6.9534
1.85219
0.497592
0.53145
0.632345
2.29881
0.373541
4.67956
3.31049
4.21931
0.21699
5.55509
0.96355
1.07291
4.59199
0.282759
4.05948
1.33263
0.541305
3.78751
6.24493
0.786936
4.35804
7.47466
0.679284
4.38978
5.65169
4.06515
0.51859
0.437936
7.12545
1.4605
0.236235
6.14487
3.39216
1.71192
3.11862
0.715914
2.8027
0.258096
1.63056
5.19981
0.211794
3.66159
0.215844
0.225211
0.407331
3.52855
3.44853
1.81877
0.657862
0.78901
0.205473
1.18659
4.72255
1.77063
2.3017
1.89608
0.495979
3.56541
0.320155
0.536248
1.17925
0.4768
0.398755
0.246088
12.1862
0.223789
5.43967
2.90299
0.205347
10.8569
0.20167
1.48053
0.219323
10.4103
1.7421
1.78281
4.43078
0.227718
1.82462
0.502004
0.350072
0.217311
0.419339
1.20508
0.298109
1.22605
0.807259
0.258637
1.18823
2.36365
0.257755
1.36584
1.13142
2.4234
1.42153
0.211063
16.4089
0.655903
0.567413
2.98918
9.02516
5.403
1.10926
1.19604
2.5044
2.44262
0.528692
0.203001
1.84788
0.440528
7.83211
0.599063
1.8637
1.05945
1.14634
1.2112
2.53804
2.6596
0.270253
2.53214
1.20384
2.61177
0.933446
0.5277
1.87097
1.32216
3.81548
1.18338
0.865372
0.205563
1.53729
1.72497
0.442417
3.84736
5.4544
2.44932
0.383756
3.6211
0.207274
0.298514
8.75799
0.206254
1.21568
1.52127
0.217906
4.01472
0.233972
6.29583
0.340773
0.265978
0.213894
1.14852
5.74867
0.326735
0.882644
1.18808
1.08234
3.47444
5.50427
1.40176
1.17455
0.211552
0.223648
1.74913
1.84099
3.48075
6.97055
1.54932
0.365982
6.14338
0.269281
1.26702
1.55465
1.93474
0.529908
1.3172
1.74023
0.942938
7.05169
1.36746
6.31817
3.97629
2.39511
3.92279
0.693318
0.963063
0.728533
0.219807
3.04289
5.31355
0.511993
10.0807
1.38891
1.48227
0.22793
13.8901
1.22524
0.387409
3.56043
0.213881
0.317941
1.82435
1.47243
1.24397
0.463783
2.86889
3.03855
1.52942
0.318511
3.04175
14.2045
0.249165
3.1958
7.7377
8.37498
0.27659
0.236431
0.81579
0.458122
3.05633
4.16368
5.66894
0.995821
0.727462
1.32658
0.946431
1.15754
0.791533
3.7346
3.53965
7.07502
1.11163
7.33111
8.80463
1.00712
0.204825
0.997736
1.96325
3.73059
9.48902
0.381883
1.69278
0.266929
2.0336
0.728484
10.1036
0.448593
0.483169
3.84623
1.51952
1.50865
1.82702
0.203356
0.910514
0.702666
10.9464
0.212106
7.57621
0.214726
5.80029
2.2076
0.415004
2.66746
2.24853
0.669539
3.52111
0.268505
14.3826
1.40132
6.83152
0.390282
7.08932
3.88704
0.585269
0.370398
1.04899
0.667237
1.52366
1.19764
3.18752
1.80436
1.04003
0.364766
0.447596
0.222603
0.252664
1.01338
0.759095
1.25572
2.57979
2.3122
1.07721
0.462228
3.03795
2.06302
6.83665
0.213125
0.688409
0.527077
4.95429
1.56952
0.881718
0.206403
1.1914
0.387296
1.53362
5.2011
0.232142
0.238924
5.99775
0.511312
2.86797
0.362873
0.331738
0.965449
1.51394
1.06931
0.731697
0.230152
0.778083
1.52155
0.208143
5.64377
1.85135
1.90576
3.27766
0.212576
2.08022
0.504388
1.25741
0.78708
2.02062
0.206625
0.245915
1.08072
1.01156
1.55746
0.21656
4.09331
3.61467
6.90177
0.481589
4.39423
2.21616
0.261193
4.13719
2.03375
1.05989
2.03337
1.46227
1.23442
0.209618
1.38639
1.75904
0.206023
1.6671
3.58007
6.23218
2.6189
1.08916
1.17771
1.34888
0.615358
1.99296
2.64821
1.63038
0.665547
0.743742
1.37084
1.16894
0.445478
2.47207
1.68814
1.14977
1.41164
2.10768
0.972363
1.50012
1.23254
3.35131
1.10012
1.6041
1.6035
1.01995
0.656799
3.0362
0.593096
0.233241
14.8837
0.301388
2.32138
8.02441
8.70562
1.49987
1.32259
8.82825
0.836206
2.68586
1.06588
2.19583
2.86214
4.90366
2.65902
2.96588
)
;

boundaryField
{
    frontAndBack
    {
        type            empty;
    }
    wallOuter
    {
        lowReCorrection 0;
        type            epsilonWallFunction;
        value           nonuniform List<scalar> 
102
(
0.120801
0.120801
5.70291
0.315678
0.161648
0.468854
0.68785
0.300026
0.357621
0.323223
0.403005
0.285971
0.47447
0.323877
1.50431
2.31975
1.00107
2.72378
1.45651
2.04422
0.27498
0.244428
0.866074
1.32691
1.91378
0.52725
0.619311
0.314804
1.04444
0.860438
0.652019
0.823697
0.751578
1.00765
0.812149
2.2212
2.44045
2.14166
2.23462
1.00673
2.35724
2.33586
1.06707
1.04389
0.963255
0.855454
0.759711
0.339404
2.22768
1.88463
1.57086
1.85644
2.11519
1.90379
2.03945
1.83609
1.93727
1.97275
1.85933
1.83028
4.47392
0.379508
0.366967
0.184599
0.766118
0.53145
5.55509
0.786936
4.35804
1.71192
1.63056
5.19981
0.407331
3.52855
1.81877
1.77063
0.320155
0.398755
5.43967
1.78281
1.82462
0.298109
1.13142
1.42153
5.403
1.84788
1.8637
0.933446
1.72497
1.84099
3.03855
1.52942
0.204825
0.381883
0.448593
1.82702
0.585269
1.80436
0.447596
0.232142
0.362873
0.965449
)
;
    }
    inlet
    {
        type            fixedValue;
        value           nonuniform 0();
    }
    outlet
    {
        type            zeroGradient;
    }
    wallInner
    {
        lowReCorrection 0;
        type            epsilonWallFunction;
        value           nonuniform List<scalar> 
138
(
0.772235
0.294004
4.93926
1.82931
3.27289
2.19457
1.56752
3.95673
1.42831
0.361317
3.95742
1.7658
0.679489
3.99747
0.391077
2.10837
2.14001
2.20619
1.79742
2.95737
2.79339
0.448309
0.337684
0.572987
0.326484
0.429979
0.526005
0.524808
1.20178
0.574255
0.473744
0.3124
1.88968
1.22227
0.695343
0.264587
0.332993
0.30187
0.441316
0.337911
1.22688
0.250109
1.15502
0.970981
1.82235
0.320145
0.581451
18.0396
0.224537
0.33056
0.651005
0.690613
0.362319
0.52357
0.230737
5.36891
0.346916
2.10323
1.22428
3.1342
0.415732
0.298159
0.254375
0.425416
1.16888
0.209418
0.302136
10.0675
1.62757
1.1579
0.599347
0.730452
0.387037
0.26454
18.9319
0.379053
3.41157
0.363195
6.83454
31.96
2.16985
18.5452
0.783077
1.03439
0.828669
2.78894
23.6314
27.866
3.05063
7.66892
8.06469
0.471259
0.461422
2.65093
1.55699
1.88865
5.05474
1.80591
3.10457
1.38335
1.88831
0.510475
0.633269
1.24167
1.56862
2.56909
2.31786
0.484029
0.555299
0.52916
0.351277
23.6526
0.266057
0.290464
0.415082
0.255245
0.392762
0.522775
0.492976
2.48242
7.58736
3.30784
2.31323
3.78751
3.39216
0.536248
0.258637
2.36365
2.5044
0.270253
3.47444
4.13719
2.68586
1.06588
2.86214
4.90366
2.65902
2.96588
)
;
    }
    procBoundary2to0
    {
        type            processor;
        value           nonuniform List<scalar> 
42
(
2.98085
2.98085
2.06114
1.80267
5.88768
2.56387
2.09725
2.09725
1.45023
1.22322
10.4154
10.4154
13.0616
9.35214
7.71096
2.47773
4.50621
1.20482
1.06809
1.17613
0.909948
0.981158
0.981158
1.07195
0.909948
0.390341
1.5861
0.317758
1.5861
2.81076
3.30109
0.387777
0.494031
0.553965
0.649457
1.80267
4.50621
2.289
2.26962
1.92996
1.92996
1.16452
)
;
    }
    procBoundary2to1
    {
        type            processor;
        value           uniform 2.07044;
    }
    procBoundary2to3
    {
        type            processor;
        value           nonuniform List<scalar> 
29
(
1.40689
1.55256
5.99649
4.46192
2.62095
1.60112
4.71656
1.20835
4.80862
3.93522
1.35812
3.15773
1.85169
6.29236
3.3152
13.8815
9.64936
9.64936
1.55256
6.29236
3.21321
7.41651
5.45582
6.01027
3.31174
5.97726
4.80862
5.12427
3.15773
)
;
    }
}


// ************************************************************************* //
