/*--------------------------------*- C++ -*----------------------------------*\
| =========                 |                                                 |
| \\      /  F ield         | OpenFOAM: The Open Source CFD Toolbox           |
|  \\    /   O peration     | Version:  v1912                                 |
|   \\  /    A nd           | Website:  www.openfoam.com                      |
|    \\/     M anipulation  |                                                 |
\*---------------------------------------------------------------------------*/
FoamFile
{
    version     2.0;
    format      ascii;
    class       volScalarField;
    location    "0.52";
    object      epsilon;
}
// * * * * * * * * * * * * * * * * * * * * * * * * * * * * * * * * * * * * * //

dimensions      [0 2 -3 0 0 0 0];


internalField   nonuniform List<scalar> 
1466
(
14.2351
35.4105
14.6925
90.1866
7.99377
20.322
17.1042
40.7118
9.34364
42.1119
57.133
38.047
6.06032
10.0325
23.9732
76.824
26.3604
94.4169
105.22
56.4871
97.0305
62.4533
78.3193
46.6961
7.49975
9.27939
42.2885
74.081
9.84911
50.5488
65.7845
10.6617
16.5925
101.21
123.964
60.0993
97.0054
32.559
75.0866
9.26826
21.2234
58.131
70.2351
26.5764
5.14536
19.4253
76.4993
3.94697
45.1475
8.7132
15.6939
45.153
26.4564
5.95862
24.4045
6.81951
18.7083
61.7975
7.02539
50.4161
19.2233
18.9668
11.2898
28.3304
71.862
30.3188
143.635
51.8675
35.9434
16.2394
55.0155
140.515
74.869
7.07505
15.5741
85.0662
18.2319
8.38964
17.5945
69.5939
52.5597
70.4791
15.3081
77.4554
85.9698
128.404
89.64
72.7223
59.6925
40.4844
12.2848
44.6233
114.715
11.1841
18.5367
18.2187
32.9443
69.2695
8.62614
9.74396
21.3856
10.573
3.26439
70.0445
79.3639
57.3283
34.151
5.06752
74.8115
15.8422
15.1257
99.4893
15.8335
62.6311
49.9811
20.9105
48.2957
36.4362
17.697
16.1294
87.0884
17.9263
5.48846
30.7716
4.46306
59.8245
45.4695
75.4878
44.8494
30.2409
67.8325
52.8521
77.1917
45.6806
14.2248
22.9416
18.6608
22.3589
18.4017
11.0191
12.3857
81.6288
61.0383
71.5096
65.0812
143.635
10.5837
16.4339
47.5577
88.9634
14.2067
31.7886
40.767
12.1794
36.8456
60.9113
64.284
78.6252
10.9756
44.5216
9.91524
58.5334
117.663
69.591
99.4959
76.7594
53.6968
85.1742
79.1324
38.0295
88.4216
7.76358
6.16594
37.2175
29.018
7.60632
42.731
59.8323
13.1101
72.0335
9.30772
26.9302
109.783
4.48294
75.8549
128.376
88.963
45.7064
37.9411
34.9058
99.1346
24.8116
101.802
151.912
40.8998
17.5182
16.5825
153.651
108.517
162.85
61.3746
38.5009
47.3334
29.4417
41.569
89.6191
113.442
28.6887
10.6852
52.5128
92.0168
76.461
120.961
80.962
101.356
67.8843
126.414
87.2542
51.9612
49.6455
81.2249
22.227
70.9385
21.3471
74.2459
77.229
52.7629
3.33577
13.2011
21.3154
42.0154
81.7388
165.521
127.843
13.44
68.9157
57.8157
78.7015
19.2274
95.4051
48.1092
68.915
39.4282
175.959
15.5443
54.1523
10.4496
7.09702
68.5415
34.7598
115.185
77.218
25.708
44.7652
7.54069
15.0033
63.9288
12.0066
100.256
108.353
85.1368
75.5804
45.2294
21.067
61.4694
6.09213
37.7977
41.3708
90.3557
12.0126
143.565
120.851
53.7118
11.2161
13.34
25.6011
17.0971
55.4564
85.6098
53.1323
18.5497
48.2028
73.3945
64.7649
57.1498
4.31234
52.9819
49.2515
5.21206
20.4532
24.3968
15.5577
7.85855
9.07656
43.9601
36.3551
201.729
8.71105
54.8145
18.3548
7.68533
30.5792
6.49375
8.62129
83.6368
3.72947
18.9959
16.1142
37.6076
114.809
32.5149
103.016
53.14
33.3545
48.8983
43.3774
98.5066
32.9219
7.47103
26.3604
35.0942
150.761
104.064
16.1719
79.8377
17.0051
5.73459
33.9091
13.5247
30.3633
70.1526
18.4669
14.8894
34.5346
87.6223
15.8087
97.3548
17.8089
15.5075
17.3952
3.18889
31.8352
24.4985
69.1341
38.9507
7.48381
63.027
41.778
42.1442
87.9573
30.159
12.951
59.6742
108.493
72.1987
102.646
85.9347
19.3756
8.29318
40.7861
81.112
90.3332
65.8242
47.3351
6.93399
170.091
28.4285
27.602
60.5551
37.7923
34.3023
104.809
106.146
30.2029
15.8135
100.587
46.0504
108.838
12.1704
54.9795
69.9944
56.3441
76.4642
81.3149
60.4966
59.3027
19.9108
18.5754
14.5507
7.44834
9.81129
30.34
45.4844
32.4714
32.9608
19.3383
4.05056
106.703
24.5752
51.7718
3.49793
3.42393
68.5549
7.4895
46.0117
95.7178
83.1518
27.3432
115.029
105.677
23.3159
97.0233
117.823
103.791
69.8427
11.077
8.72377
46.7784
29.8912
23.4169
77.0142
79.1158
23.6793
125.125
23.6916
13.2968
54.0514
100.509
20.6545
15.0031
47.7757
18.7119
82.3
218.305
30.8067
32.4408
5.36764
16.0584
7.72996
42.9612
6.54294
7.09475
46.7556
9.85321
26.7081
21.6841
28.5411
32.304
17.3309
52.7105
32.7294
13.9872
6.97582
12.0077
20.0398
9.9536
13.4309
28.2402
9.12196
28.791
14.8408
10.2388
15.2587
48.9566
45.9965
14.7188
38.9145
8.9319
6.52572
36.9902
7.3039
21.9624
46.3588
2.35115
28.215
14.3298
3.22179
53.8217
108.932
46.1544
34.6687
91.4666
82.9946
100.915
73.0566
23.4928
13.0192
2.72408
115.405
70.108
81.7681
71.8543
19.7976
41.0433
27.3752
48.1294
84.9618
60.4163
42.5087
61.8119
84.7864
104.441
44.1139
75.7788
11.8656
72.0631
65.713
33.4437
12.1137
66.0046
25.0661
63.8084
36.2731
167.309
83.1094
54.5856
15.1122
10.7167
21.4269
30.2935
84.2771
7.16535
124.413
27.799
56.7495
20.6665
10.1859
60.0514
23.9868
94.7371
11.5254
197.391
108.558
46.9578
63.456
12.1291
33.0533
74.4086
18.3077
91.1713
21.8029
83.3797
21.154
35.3612
27.7228
29.8845
31.4393
23.3338
110.225
30.8337
75.0192
13.7978
2.67258
61.4325
179.596
70.668
66.2081
55.1349
54.8438
17.4862
92.0292
88.607
22.5194
38.811
16.4271
33.6401
44.0423
123.747
77.8755
110.746
83.3522
123.711
24.5903
50.5224
15.5411
101.122
12.7156
100.726
65.3033
66.9379
36.2717
109.023
84.1823
61.7174
70.2427
29.5445
90.7636
9.10809
48.532
43.4201
89.0811
25.6828
48.7093
83.057
115.852
65.8519
69.5698
55.5564
21.7119
61.0783
42.2344
14.3038
15.1225
29.2516
183.321
57.3709
26.6689
2.41389
34.9068
98.3386
14.046
108.424
22.4784
35.459
102.001
32.5998
52.0018
27.6579
26.2455
94.8254
28.7373
7.22845
22.6878
19.5056
42.3999
82.802
202.24
55.2518
67.9549
100.788
56.9663
23.5611
26.9248
16.3835
101.398
12.4056
86.7486
70.124
46.2862
83.3138
116.668
82.0002
56.4773
22.9445
113.397
14.3767
54.8711
102.01
57.9619
28.3883
103.243
11.8535
32.9937
13.1979
108.944
109.457
13.094
159.808
13.7932
6.20393
127.168
92.2932
18.3265
14.6023
85.6679
27.905
96.8907
34.6249
48.7003
10.1392
17.7888
16.0691
49.3831
5.96502
49.3954
10.8374
32.446
6.59184
17.6239
19.7515
76.7658
18.5848
10.3127
134.523
17.3865
109.719
24.9956
7.60297
32.123
10.7655
107.807
19.3697
16.482
61.3372
18.6396
7.16685
50.5037
66.8765
27.1326
55.7643
114.756
21.8929
8.81199
13.827
91.193
72.3418
26.1796
16.2832
7.31923
81.2365
17.2058
123.529
13.5984
64.9194
118.92
88.1874
47.0205
78.8282
66.7115
54.8827
74.4907
95.3703
140.438
49.7389
180.219
112.702
80.7653
16.9417
33.8271
8.37255
57.8711
105.78
60.344
9.6971
118.335
77.4722
101.358
76.6053
7.70937
103.119
98.936
49.1
107.067
8.33016
14.7183
19.0145
32.3615
20.9559
24.9556
49.9641
78.1612
61.3787
10.2842
7.14863
104.759
99.6746
141.482
84.3546
15.1354
101.162
81.4383
11.5457
27.9485
43.5125
131.96
46.2762
66.7017
116.82
62.902
115.767
25.4542
11.4782
6.68954
20.9802
57.0708
96.4448
39.9425
15.5312
33.7692
113.468
17.7073
23.4356
76.6584
28.3909
83.723
11.2366
35.2733
92.8724
80.2207
36.5969
51.3873
85.5961
87.2856
12.1719
31.2745
17.1035
100.746
58.6188
13.1133
3.26404
21.1734
58.5187
106.047
16.1526
37.756
4.97821
13.2587
14.9156
60.3413
85.2845
104.918
51.7288
72.9895
41.811
33.0176
16.6776
80.0121
71.8233
13.5313
83.7039
96.3926
82.8172
22.9151
59.306
11.4554
27.3555
82.27
13.4664
18.9895
71.1737
69.6271
83.4456
16.2619
115.263
16.9202
24.0956
14.3477
13.1414
14.3514
18.457
23.7522
109.249
92.8585
16.1411
74.1143
80.0647
33.8969
99.6971
35.9967
56.9132
80.4225
61.7532
97.3474
27.6752
47.7449
23.517
65.4055
21.9628
59.1718
94.5396
122.201
106.038
10.7753
19.7938
9.25273
33.6581
106.152
232.978
30.1778
50.1142
51.5877
8.77778
49.1152
10.882
115.67
11.9341
96.2401
81.0649
89.7645
76.4557
107.227
100.841
103.635
105.869
144.491
159.538
178.475
149.074
145.61
145.979
148.355
146.217
202.608
120.621
133.357
227.919
243.412
157.439
220.273
144.831
140.161
132.234
74.094
96.9152
6.41421
8.95859
51.4689
10.074
11.4744
8.99119
7.90136
23.3295
114.578
70.009
114.29
19.5188
30.8781
12.6694
41.9984
7.56411
49.4137
24.7338
117.253
33.7372
45.4015
123.281
70.0763
123.516
17.4224
4.86456
8.25794
8.84307
8.02224
38.749
45.9762
48.4043
92.3133
14.4795
14.0014
21.6819
19.263
12.1509
23.7556
101.042
20.227
13.3791
29.6755
93.1348
44.6641
16.4164
50.6033
41.9283
66.0549
77.1852
90.9315
56.0498
8.96281
50.8506
95.6276
46.6717
123.096
34.177
120.589
35.7358
66.6222
120.539
3.71018
46.6218
27.6622
56.3965
7.4618
86.3953
67.4818
85.4808
28.2525
28.6541
28.8288
74.3497
23.2682
12.3599
13.1238
70.2656
122.932
111.635
22.0889
121.452
112.605
26.8452
122.876
58.9989
10.7688
3.54643
31.1281
55.6145
117.962
187.477
61.0329
60.3189
8.34275
13.2078
62.0676
39.1213
70.4123
14.0326
64.5866
20.9318
14.6132
2.76831
33.5405
7.94245
38.3134
73.204
6.92677
9.85511
132.619
11.9871
73.7866
19.4431
54.4722
108.988
97.682
118.106
79.507
101.318
87.5647
95.1547
62.8942
83.0091
49.0156
9.01626
23.0711
107.683
32.9263
9.19263
17.2464
59.2825
32.6657
12.0134
50.4402
7.80705
35.3035
40.1687
22.1145
3.41498
38.9139
13.2636
23.5331
13.7411
35.2937
117.236
15.9227
3.74711
10.1607
83.1607
39.5578
10.0457
26.1719
115.058
13.4599
23.9882
10.3427
7.66663
29.0475
41.2495
6.85403
93.2604
92.0661
17.6501
4.43339
2.69513
43.78
43.6663
11.8189
8.96598
12.2774
16.8733
7.11373
12.5605
12.4986
14.5517
2.81872
8.29184
115.702
12.8458
13.0573
12.9442
13.2287
41.562
45.7998
10.4166
10.7927
11.9778
12.4549
65.463
81.8774
53.1533
27.0766
19.2466
92.0482
111.807
31.7877
108.154
69.2742
53.9395
23.9438
12.3234
11.5205
101.079
62.4079
120.915
57.8544
7.89553
122.848
42.3545
45.8751
56.4497
120.083
98.5243
108.07
16.662
85.9899
32.0224
107.956
76.0432
135.756
7.24525
16.4502
13.9751
59.9684
39.9366
64.325
70.3299
48.0467
14.2989
9.30634
33.9852
36.5932
75.2759
86.0764
112.54
114.588
10.8546
3.88715
27.5468
50.6821
43.4955
20.5389
6.85629
21.0172
40.8387
111.618
49.0379
58.1284
97.1708
7.43848
13.815
21.8309
59.9843
35.8209
109.645
24.0216
80.4114
124.11
75.0959
80.8958
116.162
37.5715
82.4538
85.3256
11.1981
23.8933
40.9708
28.0869
28.1895
2.95675
70.153
66.452
61.3234
95.1845
103.856
118.425
41.2332
29.633
66.0608
67.1137
91.8374
104.672
22.0157
3.99236
37.6339
52.8617
12.496
85.3123
33.5749
27.8929
47.0859
43.5963
22.0414
16.0522
10.3623
54.7757
7.93382
17.8234
41.6925
37.1514
22.1526
206.574
6.81632
9.348
20.892
5.12742
7.78808
38.5486
17.0988
4.32159
6.42033
46.0355
65.8569
108.287
110.055
103.034
12.9206
66.925
7.07191
61.7402
46.0942
4.17731
42.5111
42.247
73.9465
62.8199
62.5773
64.4305
85.1933
21.5906
2.75894
95.7228
15.7498
6.40748
29.645
8.07367
83.9065
10.2224
118.344
8.50278
127.276
44.52
2.74372
113.465
22.8946
7.48022
97.1335
75.0794
37.2778
64.2873
44.031
96.0458
41.5437
76.8923
9.68379
28.699
30.1497
95.5594
38.7926
110.683
130.755
55.6397
135.872
166.438
139.998
7.46724
29.4457
50.0097
9.9801
107.633
5.24048
67.7425
97.2762
22.2408
112.326
48.5446
6.40125
38.1847
30.5154
7.11558
41.9218
16.6031
13.0399
28.6825
189.244
114.974
64.5592
84.9238
3.73059
24.1963
104.707
60.7125
63.1059
65.8813
67.597
63.7753
127.182
50.3236
44.1084
105.14
6.6886
53.2831
112.544
84.9851
19.4343
15.3945
2.43948
17.5988
6.08666
24.275
21.3387
89.7134
9.17697
12.4579
39.9708
21.2589
74.5139
102.941
86.967
5.23221
89.3185
39.4205
6.96292
8.80127
10.2971
9.45489
181.006
11.0844
99.2473
10.4251
32.5561
12.0184
6.62225
91.9153
7.82602
10.4544
65.9154
10.726
85.7221
80.5462
117.839
56.2509
39.6052
18.6575
22.2759
48.684
14.0565
30.4305
85.0508
7.63721
58.6091
71.477
29.7727
62.7713
48.765
110.275
21.547
46.6754
11.9273
51.7237
97.2631
31.6854
8.7416
8.0872
15.0536
11.9218
86.868
77.3479
38.8957
46.6906
140.034
24.9573
88.8292
54.2906
62.2218
56.7872
17.975
66.209
90.5302
11.4344
35.7651
85.3671
16.8075
132.942
36.3081
62.8679
121.87
60.7884
93.2376
89.2989
95.3843
88.8255
2.46915
16.7942
10.0625
6.26069
24.5125
9.12006
56.5956
31.3745
73.3591
45.3733
106.836
62.9011
102.45
10.5043
108.356
88.6539
23.507
15.3056
116.444
37.7159
18.3882
16.953
67.9541
33.9944
169.214
30.1944
21.7926
10.0749
10.4249
65.9337
70.6988
52.3142
13.0499
177.973
67.2278
46.2798
122.602
7.99478
50.5639
74.8883
61.4227
4.774
13.0981
44.9464
8.77197
71.2192
116.583
34.8005
14.7082
41.4979
160.857
64.2824
60.9833
35.3118
72.0757
10.4833
7.89289
7.10861
23.2942
23.269
7.11223
79.827
11.2669
8.78127
112.839
20.3471
66.0112
28.8834
22.5423
)
;

boundaryField
{
    frontAndBack
    {
        type            empty;
    }
    wallOuter
    {
        lowReCorrection 0;
        type            epsilonWallFunction;
        value           nonuniform List<scalar> 
108
(
94.4169
140.515
74.869
6.49375
7.48381
17.3865
24.9956
7.60297
10.7655
18.6396
7.16685
27.1326
21.8929
8.81199
7.31923
8.37255
101.358
32.3615
20.9559
15.5312
13.2587
104.918
13.1414
33.8969
81.0649
89.7645
76.4557
107.227
100.841
103.635
105.869
144.491
159.538
178.475
149.074
145.61
145.979
148.355
146.217
202.608
120.621
133.357
227.919
243.412
157.439
220.273
144.831
140.161
132.234
74.094
8.95859
30.8781
123.516
8.84307
93.1348
120.589
35.7358
121.452
64.5866
9.85511
97.682
95.1547
62.8942
40.1687
38.9139
13.7411
39.5578
29.0475
41.2495
92.0661
2.69513
2.69513
11.8189
12.2774
12.5605
12.4986
115.702
12.8458
13.0573
12.9442
13.2287
41.562
45.7998
10.4166
10.7927
11.9778
12.4549
65.463
108.154
69.2742
7.89553
56.4497
76.0432
135.756
49.0379
58.1284
124.11
75.0959
65.8569
9.9801
104.707
65.8813
12.4579
39.4205
11.0844
8.0872
15.0536
140.034
)
;
    }
    inlet
    {
        type            fixedValue;
        value           nonuniform 0();
    }
    outlet
    {
        type            zeroGradient;
    }
    wallInner
    {
        lowReCorrection 0;
        type            epsilonWallFunction;
        value           nonuniform List<scalar> 
126
(
32.559
75.0866
9.26826
21.2234
58.131
70.2351
26.5764
5.14536
19.4253
76.4993
3.94697
45.1475
8.7132
15.6939
45.153
26.4564
5.95862
24.4045
6.81951
18.7083
61.7975
7.02539
50.4161
17.5945
18.2187
32.9443
69.2695
8.62614
9.74396
21.3856
10.573
3.26439
70.0445
79.3639
57.3283
34.151
5.06752
74.8115
15.8422
62.6311
49.9811
30.7716
4.46306
67.8325
52.8521
22.9416
18.6608
22.3589
12.3857
117.663
29.018
16.5825
100.256
108.353
85.1368
6.09213
37.7977
143.565
120.851
53.7118
15.5577
9.07656
36.3551
201.729
35.0942
150.761
104.064
19.3756
60.5551
106.146
108.838
106.703
51.7718
100.509
82.3
218.305
32.4408
16.0584
7.09475
6.97582
9.9536
9.12196
167.309
197.391
179.596
202.24
159.808
180.219
33.6581
232.978
118.106
80.5462
48.684
177.973
46.2798
122.602
7.99478
50.5639
74.8883
4.774
13.0981
44.9464
8.77197
71.2192
116.583
34.8005
14.7082
41.4979
160.857
64.2824
60.9833
35.3118
72.0757
10.4833
7.89289
7.10861
23.2942
23.269
7.11223
79.827
11.2669
8.78127
112.839
20.3471
66.0112
28.8834
)
;
    }
    procBoundary1to0
    {
        type            processor;
        value           nonuniform List<scalar> 
29
(
18.0323
18.0323
17.2323
14.7603
41.4549
37.8458
127.572
24.2198
74.5206
14.8551
17.8099
37.8458
17.2323
14.8666
70.992
23.384
41.4549
51.0897
14.7603
15.1259
11.4822
6.45406
60.9494
10.7937
10.7937
60.9494
7.43606
77.4084
7.43606
)
;
    }
    procBoundary1to2
    {
        type            processor;
        value           uniform 16.4827;
    }
    procBoundary1to3
    {
        type            processor;
        value           nonuniform List<scalar> 
48
(
92.5041
80.6106
88.8793
88.8793
50.6546
83.4388
83.4388
2.738
73.4102
9.26362
7.12923
9.26362
14.6272
12.1254
13.3531
14.6272
12.5491
12.5491
6.69387
6.69387
6.57256
5.14074
4.13076
27.0909
27.0909
2.31341
3.61212
3.61212
2.73924
38.0217
8.99521
2.73924
2.738
53.3168
2.93344
38.0217
10.7043
7.12923
89.1022
40.62
9.62952
30.9552
53.3168
2.93344
14.7878
63.188
45.3574
9.62952
)
;
    }
}


// ************************************************************************* //
