/*--------------------------------*- C++ -*----------------------------------*\
| =========                 |                                                 |
| \\      /  F ield         | OpenFOAM: The Open Source CFD Toolbox           |
|  \\    /   O peration     | Version:  v1912                                 |
|   \\  /    A nd           | Website:  www.openfoam.com                      |
|    \\/     M anipulation  |                                                 |
\*---------------------------------------------------------------------------*/
FoamFile
{
    version     2.0;
    format      ascii;
    class       volScalarField;
    location    "0.17";
    object      epsilon;
}
// * * * * * * * * * * * * * * * * * * * * * * * * * * * * * * * * * * * * * //

dimensions      [0 2 -3 0 0 0 0];


internalField   nonuniform List<scalar> 
1431
(
2.53331
3.3336
1.58225
6.96822
0.951112
0.97832
3.36876
145.132
0.957794
3.61157
155.298
92.1553
2.59431
6.49215
1.98935
3.39598
7.9338
0.283726
11.3959
0.966282
331.449
11.3961
1.45394
69.5006
1.2622
2.89855
102.658
1.55319
3.11341
6.98617
3.06883
2.1088
2.96508
3.04202
1.69667
2.04854
3.7457
0.438618
3.66814
2.0328
3.30545
3.94118
2.91438
6.82329
2.32479
1.10566
6.63624
89.9915
3.58468
1.57503
2.66666
6.22856
2.88083
140.599
1.73193
2.75822
1.23677
125.281
6.39523
0.766985
1.8222
5.18675
1.36044
0.625743
5.0225
4.78094
0.796698
1.85937
0.454813
13.1081
77.731
4.15591
2.03004
2.90043
7.33346
1.41444
0.536781
0.927479
2.78439
0.306472
7.5908
1.0128
2.43166
4.80674
18.2414
7.53746
2.23524
1.49956
6.59115
4.71752
3.00015
1.51516
0.394613
3.48839
1.31513
5.44067
140.629
4.8926
7.976
0.546483
2.42907
5.51891
7.74866
0.351409
0.634534
9.21131
4.43094
106.654
1.68411
6.35184
0.493862
2.03558
7.07921
2.76429
1.98821
1.10742
5.98255
3.68434
3.21502
0.980556
19.1978
2.63441
103.424
9.71746
50.9773
2.75464
0.70251
1.38222
1.22268
1.5279
10.687
0.34557
1.27176
11.5189
2.18113
1.54105
0.814679
6.64651
23.4961
0.428922
1.48065
3.31818
8.25675
0.356656
2.17224
3.082
1.95813
2.81416
2.82222
1.66469
1.46886
0.623279
2.12136
3.33882
3.40287
0.478685
14.6113
6.79942
3.65132
1.45998
17.6116
2.09479
2.35387
1.54103
73.832
2.35324
2.70717
1.35956
1.0635
3.22457
10.1469
2.5138
2.1101
21.2237
4.2591
13.5831
1.22039
1.20942
2.80708
2.31363
4.32872
5.50314
4.83431
177.073
1.20362
8.59843
43.4934
5.30718
4.236
11.0488
4.18416
3.87239
2.83033
226.485
4.09343
7.015
7.37487
2.55615
0.342846
2.03986
5.73284
2.11858
110.469
1.93952
2.47058
4.82041
4.63143
0.561762
30.0765
1.29037
40.8023
2.85572
4.23376
9.65717
21.0431
1.6016
2.87672
2.79299
2.08006
115.035
2.50255
4.51105
7.39373
1.7954
3.70291
50.9948
97.7074
3.68826
2.34854
73.9692
79.6519
2.99435
9.34947
2.56609
2.14741
8.2049
3.96175
9.53864
3.93386
4.97192
1.53841
2.19066
38.0821
7.30315
4.5269
24.7616
8.61169
95.1014
2.70746
0.743557
1.20309
16.4043
1.54114
1.95308
4.46265
1.55993
1.63252
75.0773
10.2136
3.04242
5.84921
21.011
3.02293
1.26142
4.68076
139.249
0.83119
382.555
91.0528
1.1842
2.05312
3.50005
2.68683
4.5443
19.5608
2.16459
19.5233
57.3536
9.37356
5.15098
2.09289
1.40076
3.16685
2.88772
1.50182
3.96689
1.98859
6.90867
18.5098
5.28687
0.394789
0.734581
6.06575
1.63203
45.2984
2.28639
61.0591
9.8839
3.05863
10.5482
2.99227
0.514094
2.45828
2.7096
30.8902
1.73464
6.09281
3.66699
2.96746
2.92907
7.99356
2.38378
5.01165
167.426
0.800196
8.13788
2.49929
1.60329
0.604694
733.21
6.6455
7.69973
0.70297
1.48632
1.68418
2.7441
0.626669
0.838463
155.888
1.87886
15.7422
0.710816
0.835318
17.685
1.40951
2.89367
0.894246
6.97471
1.49287
77.9515
0.58696
2.85848
8.6792
2.39081
0.902055
6.77176
4.23479
16.1706
6.07002
2.05031
2.12763
1.4104
1.91162
3.68446
1.55193
1.84605
29.4824
31.4239
15.2604
2.60786
15.2987
6.84898
12.8944
2.31729
0.461191
22.1637
1.04518
303.801
2.36646
7.69235
127.127
1.2448
6.69973
2.776
1.9876
140.512
5.97714
2.4655
5.02847
197.823
1.5156
1.14783
3.59559
1.66151
582.307
0.806335
2.59399
1.04597
1.87001
1.92203
1.76826
2.97796
2.90401
1.83071
12.6417
2.26199
1.25504
1.14429
1.10521
0.896789
3.506
1.66639
9.69132
1.27548
4.21146
1.32838
0.9089
2.23016
1.38761
1.41267
5.25549
2.03474
1.50843
3.18401
0.976687
1.24583
2.00151
1.67151
1.10457
1.63418
3.75147
2.70445
2.25959
2.36626
1.7848
1.57237
1.08028
26.1471
7.20248
43.4969
2.27589
3.47062
2.59674
5.47531
2.09263
1.44167
1.72505
1.12111
1.26959
1.01793
1.9008
24.5363
1.62373
1.30818
1.10273
0.896281
0.54746
0.475674
4.61124
9.29849
7.05908
1.90958
6.3078
0.856285
7.84899
4.90334
14.7255
82.4677
0.875067
0.519074
10.9776
1.76509
77.7495
6.24079
0.693608
1.6355
0.698682
75.1561
1.7741
74.1747
5.53943
5.84631
0.33043
25.097
25.0622
20.2883
1.89434
0.928641
0.654869
4.48435
28.3976
0.575174
26.9811
2.48108
0.545364
26.2725
0.293341
0.704122
1.48595
0.494405
33.5879
3.35051
3.05953
0.50871
27.8627
0.396796
5.48717
38.7019
4.0563
2.36353
4.54233
1.67042
0.78357
6.90265
38.1257
22.0762
1.54281
3.09332
4.38434
1.4646
0.788834
37.3282
0.898445
6.95644
12.438
4.05563
4.88929
0.705506
34.866
25.9601
5.81738
3.94086
1.82194
1.88262
1.55217
2.43898
38.1122
2.03424
1.54965
2.12738
6.07199
3.66612
2.79639
58.5432
0.862594
7.76498
2.68323
7.16022
1.35544
1.67566
1.73992
3.15617
2.12849
3.69172
2.26548
2.70566
3.70752
8.65609
1.4547
0.788363
2.2162
4.21877
1.42708
1.94443
1.64748
34.8105
2.30112
4.20839
7.47395
461.791
0.901675
29.9406
9.41863
1.45503
676.857
1.25485
2.77372
1.66218
3.44931
0.977482
2.07321
17.0335
1.20698
2.78248
0.888222
2.2325
2.61528
3.72373
1.5679
4.51696
2.03839
10.4827
3.45236
2.57926
2.76835
2.87724
5.88766
3.51234
1.44264
1.42751
2.25917
5.06121
3.10089
1.91651
3.18922
1.20697
23.4995
2.58055
5.72671
24.7738
12.9407
2.50302
1.37326
3.30163
4.22401
1.44529
136.891
4.59894
4.51673
1.04721
2.57359
1.47513
2.69289
1.53688
1.55444
0.85317
19.4955
1.40411
4.09231
2.55313
2.41437
6.27545
1.12638
2.17435
1.75874
2.9699
0.92273
1.112
6.39848
2.89927
2.52179
2.95731
5.65534
1.23158
2.1134
3.17272
110.329
2.04478
2.19196
5.28481
1.14411
10.2898
2.49361
1.57524
4.08827
1.95839
2.97904
1.80317
56.3644
4.69297
3.51582
1.48699
3.71461
3.69928
1.06721
1.51612
1.12919
4.65216
6.71147
8.87841
14.5261
0.970085
2.71821
1.77117
3.95776
29.5302
2.84445
7.09078
2.878
1.50096
1.97064
1.47585
27.6781
0.980266
3.67091
12.8455
29.4039
18.8882
1.72736
3.85379
4.02957
1.60687
2.70496
26.5463
1.63905
0.429825
2.20434
1.72305
1.86621
2.96978
86.4879
5.92928
1.92793
2.91893
3.03309
1.73288
3.88541
4.46794
3.20005
13.8648
3.42166
2.56476
1.96067
2.93345
3.34939
31.4186
3.65423
3.63135
4.54837
0.809474
1.53398
2.46636
28.7163
2.353
5.36618
2.45423
3.39836
3.13975
4.42014
1.62527
2.29682
5.13837
15.7591
2.40501
0.480897
1.53047
45.4145
3.26283
76.7603
232.522
1.08105
2.22487
4.51956
2.88499
87.5853
6.41072
1.70676
4.21708
25.6348
2.17089
3.63052
1.21141
3.26483
2.8631
2.26246
1.67394
14.462
0.613038
1.45416
7.73285
1.2476
4.75862
1.31684
6.8903
126.104
1.35223
1.06125
1.34276
0.893658
2.20802
117.153
60.2344
7.65145
6.33497
0.695903
4.57137
4.31796
3.97058
1.21413
4.23371
3.66447
9.39167
1.33408
1.42499
1.12759
2.17029
3.13892
2.00192
0.759474
0.863125
2.01331
0.510801
2.24052
1.80668
3.05386
27.2252
1.41661
2.31481
2.15044
1.85739
52.2506
2.89785
3.97093
0.82424
4.4657
3.2956
4.38392
12.9074
4.73579
2.5887
2.04985
18.4912
0.683891
2.94744
1.75401
745.22
5.52332
0.794903
1.44408
1.42089
345.898
1.85908
5.24353
17.8643
0.983348
93.3435
2.3595
1.65459
1.96509
1.46928
0.380346
106.62
1.90393
1.15026
3.21123
3.59789
1.0903
3.3513
1.35974
5.40037
1.25327
4.62
25.5932
2.22499
3.52655
140.754
6.01111
3.06769
1.85628
2.5662
2.48831
0.44961
0.62744
6.81259
2.17151
9.49911
0.463512
176.853
2.26728
15.7508
2.44088
4.5076
2.25162
4.27462
0.507088
1.84387
1.41249
5.32013
0.675428
1.06334
4.0028
1.92592
3.00405
2.27958
2.06082
0.836261
1.87864
2.5185
15.1986
0.944859
1.08471
649.682
0.721962
4.16109
7.67376
0.861959
3.2888
2.57641
0.778692
2.55988
72.6549
6.77751
1.71218
73.067
439.478
116.384
120.831
85.9869
3.35322
3.46119
3.59651
3.54155
101.267
3.34705
4.84485
3.92912
4.41729
5.0316
57.1783
111.564
4.86854
22.2006
33.3188
4.75884
3.49487
3.64559
4.85152
3.76958
3.76054
5.07619
3.6639
2.19658
19.6774
1.81216
6.17313
1.48375
9.87436
6.81884
51.4822
2.36704
13.7502
7.02279
1.29342
1.84543
152.766
28.8984
0.436862
19.0556
3.40128
1.5543
4.99893
2.09416
111.068
1.03448
3.57559
1.74377
1.79203
2.94061
3.82139
13.6376
5.51454
10.7004
2.68395
1.23045
1.33724
2.35807
31.2219
1.62775
6.44958
1.48214
8.53602
2.09653
2.96174
5.95723
5.34751
2.62679
0.593687
7.68589
0.888835
0.661231
1.40999
15.7525
1.69521
2.86484
3.8486
0.379267
16.7316
2.06262
3.80498
1.3459
3.08518
3.04092
7.77467
26.424
0.422053
12.1484
0.29025
2.6772
7.29926
739.607
1.0974
7.3016
3.66469
151.47
0.982611
5.56361
5.24624
2.28903
2.0638
1.11598
3.42683
2.0644
8.66233
475.389
28.5158
3.66772
1.01234
7.93677
15.0941
18.8546
2.54987
14.3213
1.43972
3.54246
66.3222
3.63391
125.314
2.27853
4.10345
1.80051
14.9597
3.16613
18.361
0.789449
2.13169
5.64631
2.20638
2.42079
2.92252
1.88201
21.8318
506.738
3.68268
3.32296
9.16489
1.43407
0.955871
141.551
5.56516
0.924163
2.9342
19.519
16.1252
4.41032
6.54421
2.2379
2.59184
5.15496
11.0639
1.17356
1.94469
3.26746
15.4233
3.641
0.696029
5.19647
41.0753
2.9081
108.424
26.6811
0.712131
7.85447
1.19308
1.33841
0.604976
2.72088
1.98908
1.9458
2.82249
1.61602
0.818739
3.3295
0.918055
20.8997
1.33572
0.465682
1.4537
10.2845
0.875285
10.3644
4.55093
1.58056
9.92508
3.76796
6.98551
7.85265
8.82378
10.6592
12.2727
13.0676
9.69983
13.3623
3.73568
4.39393
5.15655
4.01226
5.10158
4.97394
2.43939
9.1901
1.05554
9.84735
0.739602
5.53111
1.87683
4.96281
1.76029
4.09866
2.65483
5.06737
2.72142
1.58554
2.94011
0.892035
1.03355
1.64192
5.85841
2.2082
1.01011
61.5952
4.11439
1.80832
541.232
2.67309
0.822391
1.57421
1.67995
0.486563
1.89337
19.1716
0.631154
0.752804
2.16476
1.36634
4.63283
5.74199
9.76049
0.867676
2.03502
18.1374
0.319666
2.13058
1.89439
1.97304
0.412011
11.62
3.41891
227.521
1.28478
18.2838
46.2255
1.34991
11.0468
5.82592
1.00822
4.91613
26.5412
2.53624
1.68397
6.42873
46.4686
0.79492
5.74194
8.15318
1.1163
3.03361
0.877987
1.83921
2.0774
24.6306
41.9386
29.3399
2.87266
3.86336
5.71021
5.29081
3.84537
1.04298
0.551058
8.7457
0.299292
62.0455
2.17508
4.89174
23.7373
3.0288
7.64075
0.703081
2.29272
5.38243
173.324
89.7434
1.26743
1.36235
1.56578
1.65167
18.8502
1.10938
18.0956
5.92519
0.585945
21.3183
95.4674
3.0513
2.51288
0.663469
0.82299
2.2628
163.617
0.905805
3.88315
28.8269
12.345
0.391905
0.736189
4.10968
9.79149
11.0653
6.61087
4.5493
1.4964
2.97131
17.5375
2.58328
1.21548
2.923
2.02755
15.6271
0.737188
12.0633
1.47473
2.26102
2.70156
2.30995
8.66977
11.9984
0.555059
0.880121
5.71222
2.59399
376.485
5.09104
1.73532
2.13521
31.8191
2.58305
5.31217
1.76255
2.82281
3.09107
1.19503
2.42805
2.90295
4.07715
8.19763
5.80719
8.07905
4.62477
1.90813
89.3417
0.855319
176.983
0.843418
1.77715
2.05722
2.58594
5.54959
0.909422
7.61443
7.24036
4.34753
2.23488
206.096
2.74934
2.93567
1.68837
0.566633
8.3145
2.56409
3.80968
6.29314
0.682976
4.09074
14.2979
4.94728
2.90469
1.05768
2.04677
121.166
5.86232
3.5201
12.8225
13.0901
1.48842
14.5252
5.45589
3.12686
148.365
1.69453
0.306014
21.2694
1.14124
93.619
6.4984
11.1071
1.73816
146.094
2.819
0.531687
1.42362
306.104
1.07008
0.783887
1.39737
0.964674
20.5719
1.64999
118.546
4.64428
6.18557
1.92493
238.929
3.94662
152.411
4.23685
0.460046
6.16802
109.415
120.911
2.47906
34.9112
1.82781
1.54003
1.54179
5.84388
0.923364
28.8301
2.38705
1.56597
29.3977
223.594
0.902482
12.5896
3.42551
11.0888
3.8402
5.4711
1.12846
143.339
3.56293
1.9314
1.62819
1.78486
10.671
5.91047
0.977236
3.27248
5.51984
4.9945
195.629
5.7559
1.06698
1.00091
1.3699
4.76748
2.09155
5.37579
0.77508
5.19009
2.39535
2.94468
2.09049
4.88413
2.07786
3.23541
2.2882
37.9293
2.49989
3.90865
0.79163
10.014
8.32895
3.43362
3.51705
2.54267
2.93163
3.88961
4.98522
6.66436
3.70984
1.83829
8.3904
0.833482
1.22457
2.12893
1.57905
1.61165
0.739068
1.20348
1.07554
5.47139
9.65296
2.40522
16.5624
1.90861
6.16883
10.6098
2.61274
3.86048
4.76593
10.0307
2.30812
86.404
0.673373
2.3258
6.5324
0.888422
1.0692
1.11459
2.13715
1.99515
4.27716
19.3722
94.5517
18.7375
5.66837
2.74208
5.31595
6.88694
5.78822
3.04534
1.36305
1.81773
5.44766
2.91393
0.541174
1.72748
7.93227
3.33727
1.4355
1.37559
)
;

boundaryField
{
    frontAndBack
    {
        type            empty;
    }
    wallOuter
    {
        lowReCorrection 0;
        type            epsilonWallFunction;
        value           nonuniform List<scalar> 
96
(
3.11341
6.98617
5.44067
27.6781
29.4039
26.5463
2.96978
2.91893
3.03309
3.88541
3.20005
3.42166
2.93345
31.4186
3.63135
4.21708
25.6348
3.63052
3.13892
3.05386
3.2956
3.21123
3.59789
4.62
25.5932
85.9869
3.35322
3.46119
3.59651
3.54155
101.267
3.34705
4.84485
3.92912
4.41729
5.0316
57.1783
111.564
4.86854
22.2006
33.3188
4.75884
3.49487
3.64559
4.85152
3.76958
3.76054
5.07619
3.6639
3.57559
2.96174
5.95723
3.80498
3.08518
26.424
3.66772
125.314
3.32296
9.16489
5.56516
5.15496
3.26746
3.641
41.0753
10.2845
10.3644
9.92508
3.76796
6.98551
7.85265
8.82378
10.6592
12.2727
13.0676
9.69983
13.3623
3.73568
4.39393
5.15655
4.01226
5.10158
4.97394
5.53111
2.94011
5.74199
5.74194
18.0956
2.923
5.71222
6.29314
3.5201
12.8225
3.94662
34.9112
29.3977
3.42551
)
;
    }
    inlet
    {
        type            fixedValue;
        value           nonuniform 0();
    }
    outlet
    {
        type            zeroGradient;
    }
    wallInner
    {
        lowReCorrection 0;
        type            epsilonWallFunction;
        value           nonuniform List<scalar> 
126
(
6.39523
0.766985
1.8222
5.18675
1.36044
0.625743
5.0225
4.78094
0.796698
1.85937
0.454813
13.1081
77.731
4.15591
2.03004
2.90043
7.33346
1.41444
0.536781
0.927479
2.78439
0.306472
7.5908
1.0128
0.546483
1.10742
5.98255
3.68434
3.21502
0.980556
19.1978
2.63441
103.424
9.71746
50.9773
2.75464
0.70251
10.687
0.34557
0.428922
1.48065
8.25675
0.356656
1.95813
1.66469
0.623279
3.33882
73.832
4.32872
8.59843
43.4934
4.09343
40.8023
1.1842
9.37356
5.15098
0.394789
61.0591
9.8839
10.5482
0.514094
2.38378
5.01165
167.426
2.7441
0.626669
15.7422
77.9515
0.58696
31.4239
6.84898
12.8944
2.23016
1.67151
6.90265
12.438
2.12738
7.16022
3.15617
8.65609
4.21877
7.47395
0.888222
3.72373
1.44264
5.06121
12.9407
1.12638
5.65534
4.08827
3.71461
3.34939
3.65423
2.20802
4.16109
2.57641
1.40999
41.9386
0.902482
12.5896
10.0307
2.30812
0.673373
6.5324
0.888422
1.0692
2.13715
4.27716
19.3722
94.5517
18.7375
5.66837
2.74208
6.88694
5.78822
3.04534
1.36305
1.81773
5.44766
2.91393
0.541174
1.72748
7.93227
3.33727
1.4355
1.37559
)
;
    }
    procBoundary3to1
    {
        type            processor;
        value           nonuniform List<scalar> 
48
(
5.13996
3.80338
4.62035
4.9475
3.84549
2.52026
3.80338
7.11703
6.92604
0.737904
0.737904
0.727141
0.727141
0.481407
0.783867
0.516357
0.292846
0.339619
0.292846
0.321595
1.1308
4.33085
0.321595
1.05816
0.600513
1.01772
9.12922
4.33085
8.30874
4.25134
4.25134
7.75085
7.75085
6.92604
0.38422
5.95037
5.99136
0.600513
6.01277
2.57044
0.481407
6.63033
7.56807
0.321595
1.07161
2.92073
2.80772
0.639814
)
;
    }
    procBoundary3to2
    {
        type            processor;
        value           nonuniform List<scalar> 
29
(
1.5537
1.5537
4.44525
4.35847
1.3279
2.42163
2.0863
1.43615
3.33634
3.44636
1.81159
1.56579
1.61987
6.16759
2.0824
6.94882
5.35756
4.77219
1.45578
2.47622
2.38493
5.35756
3.67819
4.77219
2.02268
4.9014
4.77219
1.30563
1.30563
)
;
    }
}


// ************************************************************************* //
