/*--------------------------------*- C++ -*----------------------------------*\
| =========                 |                                                 |
| \\      /  F ield         | OpenFOAM: The Open Source CFD Toolbox           |
|  \\    /   O peration     | Version:  v1912                                 |
|   \\  /    A nd           | Website:  www.openfoam.com                      |
|    \\/     M anipulation  |                                                 |
\*---------------------------------------------------------------------------*/
FoamFile
{
    version     2.0;
    format      ascii;
    class       volVectorField;
    location    "0.17";
    object      U;
}
// * * * * * * * * * * * * * * * * * * * * * * * * * * * * * * * * * * * * * //

dimensions      [0 1 -1 0 0 0 0];


internalField   nonuniform List<vector> 
1431
(
(0.289672 0.835914 1.61693e-16)
(3.48672 0.823334 3.15032e-17)
(-1.76433 -0.080403 0)
(0.317787 -0.178477 2.18922e-16)
(-1.08585 0.074775 0)
(1.06079 3.9974 2.6004e-16)
(4.20215 -0.422844 3.21571e-16)
(1.75573 0.154472 5.1664e-17)
(0.480405 3.47962 2.00408e-16)
(3.55865 -0.326926 3.30009e-16)
(2.76569 10.1371 2.02063e-17)
(7.30665 -0.13621 0)
(0.201948 2.33673 -1.91074e-16)
(-1.82426 0.154999 -5.29851e-16)
(2.18783 -0.150034 0)
(3.5331 -0.634838 -3.03584e-16)
(4.98168 -0.00428585 -2.20357e-16)
(-0.274539 -0.0371387 0)
(5.80836 -0.0376002 -1.70276e-16)
(-0.492834 -0.162928 2.07844e-16)
(4.04488 9.30825 -7.0744e-19)
(-0.938141 0.35648 2.2493e-16)
(0.521836 2.80803 -2.15655e-16)
(12.3335 2.02361 -3.52259e-18)
(0.52164 3.31639 1.99053e-16)
(-0.133651 1.1849 -6.20619e-20)
(1.61281 9.94722 -2.07671e-17)
(1.94409 -0.736873 -3.80646e-16)
(0.0187429 2.5063 -6.29687e-17)
(0.241396 4.09046 3.91117e-17)
(0.0923839 4.85936 -1.04897e-16)
(0.0489807 3.85572 4.88079e-17)
(-0.14273 4.8057 0)
(-0.562128 0.0987603 -4.71553e-16)
(1.17068 3.39966 -3.78307e-16)
(2.72305 0.107729 0)
(0.858286 3.4732 0)
(-0.21968 -0.0746587 -1.19855e-19)
(-0.718089 -0.264147 0)
(0.0347064 3.97605 0)
(0.651993 2.36647 -1.04333e-18)
(0.824635 2.70147 2.00263e-16)
(0.107462 1.98706 -2.49404e-16)
(0.508702 -0.643179 2.11963e-16)
(1.33185 4.36999 0)
(-0.559502 -0.375106 3.5381e-16)
(1.0185 1.57065 2.32702e-17)
(1.28321 9.45599 -6.48819e-17)
(3.32084 -0.19786 0)
(-0.0806472 -0.616009 0)
(1.87279 1.81741 0)
(0.638023 -0.62875 0)
(0.970862 1.32526 4.4145e-16)
(2.07147 0.0396693 1.70115e-17)
(3.90234 0.563443 -1.95683e-18)
(0.301692 0.210217 5.61347e-16)
(-0.475894 0.0930017 2.26023e-16)
(5.01082 -0.37719 0)
(4.38844 0.10172 0)
(0.089354 -0.126224 4.7364e-16)
(1.74898 -0.333088 -1.39035e-16)
(-2.08406 -0.0299761 3.43753e-16)
(-0.982987 -0.0848728 0)
(-0.332552 -0.137501 0)
(-1.33488 -0.243822 8.83269e-19)
(3.1703 -0.0181575 -1.75162e-16)
(-1.10925 -0.112866 -2.70449e-16)
(1.36552 -0.293972 -8.57687e-17)
(0.023043 -0.087346 -6.45834e-18)
(-1.85786 -0.290581 0)
(-0.124548 -0.644776 6.81223e-17)
(-0.844658 0.233784 -1.59121e-16)
(-0.451337 0.00843412 1.31362e-16)
(-0.800062 -0.0192261 3.69737e-16)
(-2.10264 -0.0797143 3.84377e-16)
(-0.758465 -0.176081 -5.58615e-16)
(-1.34412 0.0832212 -2.33098e-17)
(0.142547 -0.0778202 -1.97071e-16)
(2.60825 -0.375857 -2.4415e-16)
(-0.190351 0.00873556 0)
(4.62485 0.0607595 -5.54353e-17)
(0.275251 -0.0722109 1.26337e-17)
(6.30304 0.627937 -6.46414e-18)
(2.1689 2.21455 9.59132e-17)
(11.9918 0.731153 1.9681e-18)
(1.50164 -0.2307 -1.0281e-16)
(3.7783 0.00326849 0)
(1.59898 0.428029 1.97819e-16)
(9.59145 0.134652 6.52738e-18)
(8.05644 0.570067 2.26075e-18)
(-0.109806 0.385338 -3.1059e-16)
(-0.456848 0.429871 3.20209e-16)
(-0.144119 -0.0451104 3.44415e-16)
(2.96012 -0.758852 -1.05383e-16)
(4.24675 0.442052 8.41808e-18)
(-0.103809 3.80369 0)
(3.48269 -0.292559 -7.20986e-17)
(5.46474 1.3077 -1.36556e-17)
(-0.444095 -0.524201 0)
(0.553145 0.076292 -6.89674e-19)
(0.0267234 0.535037 2.13579e-16)
(-1.67202 -0.147197 -6.03124e-16)
(4.40987 0.178088 0)
(-0.0722715 -0.0727735 -3.58836e-16)
(0.0263167 0.00364867 4.24829e-16)
(0.110933 4.06439 1.5613e-17)
(0.12846 3.41542 0)
(1.88271 6.50292 6.47548e-18)
(0.604036 2.07916 3.79861e-16)
(4.6536 0.210625 0)
(-0.077814 -0.0870688 -7.66683e-16)
(0.308368 2.77459 -3.67944e-16)
(-1.30549 1.42059 4.78677e-16)
(0.447515 1.94736 -1.65344e-16)
(4.02734 0.699571 -9.37513e-19)
(-0.975295 -0.069563 7.51879e-17)
(-1.44511 0.265952 0)
(-0.0786845 -0.294602 -2.39377e-16)
(0.336257 0.0059691 0)
(-0.644455 -0.152492 0)
(-1.10129 -0.478848 -2.26768e-17)
(2.1522 0.0975902 7.79634e-17)
(0.408897 0.154423 2.36028e-16)
(-2.27147 -0.137506 1.51213e-16)
(-0.810698 -0.104991 0)
(1.7772 -0.238255 1.5596e-16)
(-1.43871 0.0443566 0)
(1.32195 0.00261421 5.33e-16)
(-1.76508 -0.223069 -2.81107e-16)
(4.02328 0.0967856 3.30877e-16)
(4.60169 -0.185903 3.03163e-16)
(-0.233869 -0.0223304 -1.15297e-16)
(3.88056 0.107938 -7.81158e-17)
(4.8425 0.282992 7.25164e-17)
(-0.563471 -0.0464766 0)
(-1.37681 -0.324937 -3.12285e-16)
(0.26366 -0.101445 1.8641e-16)
(-1.0859 -0.127693 0)
(10.2953 0.0427419 3.27759e-17)
(-0.110723 0.0115266 2.20814e-16)
(-0.675896 0.0456684 0)
(-0.00494786 4.53268 0)
(4.68506 0.0430843 6.95834e-17)
(-0.108268 -0.0480754 0)
(0.478397 2.13438 2.47707e-16)
(-0.19463 4.79429 -8.24332e-17)
(-1.36083 -0.138655 -1.85354e-16)
(0.341231 0.840846 -4.59574e-16)
(3.59766 -0.685345 2.28475e-16)
(0.84694 -0.306722 1.73715e-16)
(-1.32336 -0.244761 2.21109e-16)
(-0.293571 -0.0691497 8.73542e-17)
(0.0231432 3.93891 -3.68099e-20)
(0.469007 -0.124289 -2.17773e-16)
(0.166156 3.7049 -4.86698e-17)
(-0.00948423 -0.0662292 -4.46011e-16)
(10.83 0.487749 -2.06263e-18)
(3.1143 1.68759 7.73222e-17)
(7.18414 0.664543 -5.44873e-18)
(3.6923 -0.0822358 2.07764e-17)
(8.20472 1.46462 -3.47058e-18)
(0.353102 2.8734 2.15454e-16)
(4.36881 -0.0994386 -1.14185e-16)
(4.06372 -0.0906309 8.58442e-18)
(0.676961 0.01095 -4.71524e-17)
(0.203521 1.08123 -2.24451e-16)
(0.184154 1.2695 7.94845e-16)
(4.38568 0.538268 8.12786e-18)
(-0.291595 -0.319826 2.59679e-16)
(4.74804 1.12967 2.93643e-17)
(8.4415 0.83224 -7.37447e-18)
(0.478116 1.51652 0)
(0.174516 4.194 -4.12954e-17)
(10.2972 0.288921 3.47123e-18)
(3.58101 1.02707 -1.29547e-17)
(10.8605 0.281687 0)
(3.92728 0.0260822 0)
(1.18108 4.28175 -1.39689e-16)
(1.20613 1.48345 -3.71389e-16)
(1.2536 3.06562 -4.3659e-17)
(2.77383 -0.0733653 -3.44982e-16)
(0.178564 -0.456301 0)
(0.527073 0.860159 1.05363e-17)
(10.7963 2.5693 -2.59553e-18)
(1.38751 4.10913 1.01789e-16)
(0.0999659 2.27759 0)
(0.420234 0.672704 -1.1197e-17)
(3.76342 1.37139 -5.0074e-18)
(0.367706 4.14232 6.58451e-17)
(10.5402 -0.150457 2.16061e-17)
(-0.261165 4.52099 -6.69519e-17)
(0.208558 3.83054 -4.18386e-17)
(0.0435754 3.81463 -6.63178e-17)
(1.12475 5.07101 0)
(0.0835843 0.0890307 0)
(3.65482 2.54399 -7.19395e-17)
(5.16762 1.7353 0)
(1.33556 3.53608 -2.4484e-16)
(0.143973 -0.061753 4.71589e-16)
(0.894605 0.0188505 0)
(1.82753 0.556932 -1.05709e-18)
(4.31199 -0.0807538 -6.54312e-17)
(2.17677 7.4063 -3.99888e-17)
(3.7697 0.020268 7.20864e-17)
(0.207298 2.24458 -7.44276e-17)
(-0.0969162 4.59891 4.33509e-18)
(0.0295699 3.07056 1.2101e-16)
(0.323571 -0.0947232 3.29405e-16)
(10.1512 0.672925 -1.10962e-18)
(0.534193 0.452685 -2.11922e-16)
(-0.165657 0.0726621 3.32046e-16)
(4.14805 -0.148679 0)
(0.0518715 3.3729 3.95561e-17)
(0.46165 4.02333 3.94637e-17)
(11.2343 1.05546 0)
(0.506282 0.375488 5.95053e-16)
(0.0319893 3.80824 2.05647e-16)
(1.42064 3.79818 -5.77845e-17)
(1.80985 1.98095 -6.20466e-17)
(1.65774 6.7346 2.81093e-16)
(0.120813 3.86434 3.50968e-16)
(0.217796 0.206777 0)
(2.80436 0.795972 2.49569e-16)
(4.1622 -0.0991355 0)
(0.231179 3.55757 -1.96842e-16)
(10.1731 1.26013 1.94586e-18)
(3.83503 6.17422 -3.08756e-17)
(5.11101 1.19966 3.0558e-17)
(0.139548 3.73259 2.45337e-16)
(1.12711 7.23632 4.74043e-17)
(3.15356 0.226827 2.85915e-17)
(0.0148238 4.85295 1.78853e-20)
(-0.165901 3.90249 -4.28628e-18)
(0.0858964 3.97209 9.30856e-17)
(0.0806957 3.82134 -4.73608e-17)
(7.55445 1.04946 8.48018e-18)
(0.0339361 3.37825 0)
(0.80668 3.66632 -4.93401e-17)
(-0.174258 4.55111 0)
(1.64775 0.253302 3.50335e-17)
(3.60069 0.0540446 5.95795e-17)
(1.92504 2.65597 1.67677e-17)
(10.1253 0.930745 -7.37863e-19)
(0.49368 4.22129 0)
(0.391626 3.85501 3.13967e-17)
(-1.3773 -1.04708 5.9308e-16)
(0.548132 3.77573 3.31144e-16)
(1.92529 8.37304 0)
(0.130811 3.67895 -4.42711e-16)
(-0.0946305 -0.200088 2.068e-16)
(0.678976 0.319457 0)
(9.75214 0.332665 -2.91072e-19)
(3.72445 -0.109095 1.99811e-18)
(3.96136 0.0565722 -1.23459e-17)
(-0.187052 4.54901 5.06853e-17)
(0.573498 3.13612 -8.00333e-17)
(3.76334 -0.13042 -7.29063e-21)
(10.2834 1.66963 -4.65405e-18)
(6.37205 1.66713 3.49401e-17)
(0.0565778 3.71481 -6.47886e-17)
(0.0460784 1.22473 1.6407e-16)
(10.2846 0.0990804 -1.99624e-17)
(1.21035 1.54532 0)
(3.95109 -0.0205957 6.5571e-17)
(0.283604 3.12441 4.09049e-17)
(2.14624 5.71168 -6.74575e-17)
(0.488119 3.41273 -2.03901e-16)
(0.655809 3.83684 0)
(1.26989 8.77721 6.17388e-17)
(-0.401246 0.0709013 0)
(0.892652 1.67013 -6.88427e-17)
(0.0324832 3.58526 8.71959e-17)
(3.40587 0.658994 -1.45143e-17)
(2.02994 0.127855 6.25912e-17)
(8.77071 1.24518 0)
(0.173267 4.34525 -6.27016e-20)
(9.33153 0.97154 -6.37783e-17)
(1.35588 4.03702 2.77503e-17)
(-0.0577344 2.08878 -5.1535e-21)
(-0.00724567 2.23452 -9.72405e-17)
(0.65699 2.07354 0)
(0.554437 3.34965 2.836e-16)
(-0.15674 4.69115 1.09979e-16)
(2.20418 1.3676 2.61061e-16)
(3.79187 0.300328 0)
(6.14349 1.02584 0)
(0.658064 3.02845 1.885e-16)
(5.84605 1.47679 -4.34049e-17)
(11.5509 0.494458 0)
(2.78783 0.866901 -3.37329e-17)
(0.047766 -0.0301291 -2.71397e-16)
(0.474049 3.45606 2.16154e-16)
(4.78114 1.5137 -3.7906e-17)
(0.424755 1.87145 -8.96937e-17)
(0.994458 6.53663 -1.66542e-16)
(0.139889 3.65331 -5.97182e-17)
(2.72191 4.58248 0)
(0.25007 2.38634 0)
(0.411087 0.613387 2.35443e-16)
(0.0491028 2.08859 1.03575e-17)
(0.624593 1.24212 -2.9717e-16)
(0.139182 0.0292488 -2.45881e-16)
(3.32616 0.488913 -3.85129e-18)
(0.188007 1.49257 1.10806e-16)
(0.0104274 2.68929 -6.37669e-17)
(3.81096 -0.142932 -4.55274e-17)
(2.74129 1.17104 2.31866e-17)
(0.1035 3.61125 -3.9429e-16)
(0.842291 3.11199 -3.57427e-16)
(4.42168 1.01492 -1.98764e-17)
(4.18368 3.50144 2.50297e-16)
(1.45565 0.0717974 0)
(-1.92086 0.098876 -8.18468e-17)
(-0.271234 -0.465863 0)
(0.475489 3.5089 -3.67317e-16)
(4.7447 2.06191 0)
(1.34249 3.24107 -1.68345e-18)
(3.82084 0.424735 1.56351e-17)
(0.376992 -0.146205 -2.56134e-17)
(5.9763 4.76386 1.20225e-18)
(2.16233 1.55354 2.44629e-17)
(4.16656 2.25339 0)
(0.231012 0.0742614 0)
(0.370963 1.5803 0)
(1.42709 3.54758 4.59687e-16)
(-1.49176 0.0792316 -2.45051e-16)
(0.195791 0.0901742 0)
(0.437062 3.49691 4.38431e-16)
(2.63154 0.18795 2.86766e-17)
(4.03493 -0.0362893 5.79697e-17)
(0.738237 2.81684 2.37084e-16)
(0.126297 -0.268646 2.07489e-16)
(0.474169 3.50431 -4.33433e-16)
(-0.47944 0.211203 -3.83172e-16)
(3.63998 0.000148843 -1.4391e-17)
(0.115239 1.59001 -4.88535e-17)
(0.384254 3.39978 0)
(7.06135 1.11286 6.07841e-18)
(1.45674 3.70554 -2.05433e-16)
(-0.417776 -0.984198 0)
(0.0668675 -0.0888262 0)
(0.085836 1.71009 3.76505e-17)
(3.63617 4.88235 9.61489e-17)
(0.521715 2.34081 0)
(0.446019 3.52666 2.09766e-16)
(-0.424246 3.88339 0)
(2.79344 0.635106 2.2845e-17)
(9.50786 0.663078 5.76403e-17)
(3.59096 3.87202 -1.81253e-16)
(0.35056 1.82905 0)
(0.765797 4.55389 1.95381e-16)
(0.881567 -0.727594 -3.67427e-16)
(0.260344 1.35024 2.67044e-16)
(2.60918 2.89528 -8.28114e-19)
(1.10068 -1.00577 2.80685e-16)
(1.86765 1.63736 -1.8083e-16)
(9.2634 2.88016 1.70652e-18)
(-0.527035 0.484277 -7.47887e-17)
(10.1344 0.158872 -1.39123e-19)
(0.709067 2.77696 -1.21929e-18)
(-0.242436 0.40777 -4.57572e-16)
(0.0155204 2.13709 -4.09752e-17)
(0.265079 2.48765 -7.92504e-17)
(3.33627 0.333098 3.5764e-18)
(0.245116 -0.133907 -4.80547e-17)
(7.70944 5.7423 1.47495e-17)
(0.497555 3.5065 2.04302e-16)
(11.6052 3.59467 -3.74925e-19)
(0.00412492 3.56371 5.00021e-17)
(0.495885 4.565 1.41299e-17)
(1.41601 8.57871 -7.63436e-17)
(-0.72325 -0.0391708 -2.14152e-16)
(9.259 0.248199 9.38207e-17)
(1.6737 2.27516 0)
(0.505294 2.6117 1.12944e-16)
(7.99661 1.17889 -1.08445e-18)
(2.7532 2.3434 -2.40494e-17)
(0.599005 -0.0269433 -8.83975e-17)
(-0.442879 3.07095 0)
(7.88844 1.67887 -2.20283e-18)
(0.450281 3.19573 4.35025e-16)
(1.44146 3.89976 1.0514e-16)
(0.385521 0.250075 0)
(1.48096 -0.779113 1.47252e-16)
(9.72941 4.79647 -1.15067e-17)
(0.508646 3.63459 5.38104e-17)
(1.29502 2.14152 -7.43752e-16)
(0.382969 3.59515 3.27586e-18)
(1.18404 3.8927 0)
(1.8603 2.54585 -3.06319e-17)
(3.52383 0.129296 1.16009e-16)
(1.06952 2.1285 -2.29731e-16)
(0.987079 2.18684 2.2918e-16)
(3.87313 -0.138694 1.47512e-16)
(6.9997 1.69121 -4.42631e-18)
(0.289362 1.32107 1.15275e-19)
(0.42677 3.24999 1.77559e-19)
(0.437679 3.34011 -1.47302e-16)
(0.454228 3.53231 -4.20218e-16)
(0.843606 3.81506 -5.43578e-17)
(2.82897 3.42913 -9.81615e-17)
(0.446907 2.83257 3.27409e-17)
(5.54847 2.09048 1.22684e-16)
(0.489137 3.20878 -3.42626e-17)
(1.14202 0.18034 -9.21352e-17)
(0.470793 3.17892 -2.83858e-20)
(0.816445 4.03445 9.13498e-17)
(-0.195461 -0.0343285 1.04349e-16)
(3.81331 0.202162 3.06828e-17)
(0.499957 3.13097 1.80028e-17)
(3.27318 3.12146 0)
(1.38305 3.33811 0)
(0.5378 3.08047 8.74639e-18)
(0.37458 2.65714 1.77809e-16)
(0.430346 3.67908 -1.95345e-17)
(0.673814 -0.194703 2.3083e-16)
(1.99758 3.10658 1.4424e-20)
(-0.158438 -0.623871 0)
(1.33456 3.81382 -1.93241e-16)
(0.58119 3.01534 0)
(-0.111013 3.23123 -9.57247e-17)
(0.290351 2.57186 -4.891e-16)
(2.30463 1.76432 -1.06225e-16)
(2.33076 3.11109 4.23811e-17)
(0.629289 2.91913 1.92047e-17)
(0.0266486 -0.269885 4.65321e-16)
(-0.428148 -0.103065 2.51425e-19)
(3.58501 0.109889 8.83824e-17)
(-1.85766 1.41192 -2.52232e-16)
(11.9564 1.70534 2.1153e-18)
(0.450577 3.4933 1.92543e-16)
(0.509437 3.68182 2.7632e-16)
(0.551855 3.54273 -2.81408e-19)
(0.622131 3.94283 0)
(0.547945 3.46209 -1.76946e-16)
(0.509628 3.37464 -1.30954e-16)
(0.49393 3.40617 -1.3354e-16)
(0.510338 3.35109 -2.76811e-16)
(0.507155 3.33436 3.91672e-16)
(0.50756 3.34726 1.08111e-16)
(0.455741 -0.920549 0)
(10.2653 0.371541 1.23704e-18)
(0.434832 -0.990117 -1.08044e-16)
(0.500544 -0.67788 3.06101e-16)
(0.733778 -0.306983 -4.4841e-16)
(0.558842 -0.219323 1.22923e-19)
(0.3868 0.11215 0)
(0.350776 0.000225164 -1.09267e-16)
(3.14056 1.33392 4.51281e-17)
(0.791147 0.577939 6.60105e-17)
(1.13574 0.722395 6.02871e-17)
(-0.354088 -0.820679 -2.61375e-16)
(1.68899 -0.0611903 -1.48089e-16)
(-0.256461 -0.556753 0)
(0.896589 0.265955 -8.80609e-17)
(2.36492 -0.339825 2.26003e-16)
(0.796431 0.392921 9.50367e-17)
(8.62821 0.321476 -2.20532e-18)
(-0.0122312 -0.500134 0)
(-1.29171 -0.273686 3.17669e-16)
(0.590365 0.5633 -1.26986e-16)
(0.547407 -0.893706 2.28114e-16)
(8.70934 0.1287 -2.9668e-17)
(1.09935 -0.393692 -2.48765e-16)
(-1.1885 -0.365982 -1.8069e-16)
(0.492637 -1.08285 2.61027e-16)
(-0.148974 -0.407568 4.00315e-16)
(8.69222 -0.0238587 1.42874e-19)
(-0.102416 -0.865617 -2.51988e-16)
(8.80364 -0.102057 -2.53539e-17)
(1.4308 -0.67316 -6.05466e-16)
(1.19567 -0.725453 0)
(-0.136437 -0.206506 4.29116e-19)
(1.18992 0.165802 0)
(10.3198 0.135236 3.6046e-17)
(10.3088 0.265359 1.12656e-16)
(-0.499246 -0.494603 1.3769e-16)
(0.155318 -0.264534 -1.41012e-16)
(0.510074 0.0431099 7.14102e-16)
(2.37261 -0.690313 0)
(0.400077 0.121684 0)
(0.449634 0.194098 0)
(10.1364 0.190953 2.45216e-17)
(2.92984 -0.0118388 1.97016e-16)
(0.514217 0.189267 1.89541e-17)
(1.47927 0.0351672 2.26987e-16)
(-0.214285 -0.155782 0)
(0.554036 0.0443614 0)
(-1.58921 -0.401325 2.22163e-17)
(0.0807437 0.106798 2.18466e-16)
(9.72455 0.273802 -7.09877e-17)
(2.61314 -0.464719 1.86791e-16)
(-1.77259 -0.232571 1.68084e-16)
(-0.00728254 0.197794 4.13646e-16)
(2.23336 -0.0150576 -2.65253e-16)
(-0.230073 -0.209594 -2.20882e-16)
(-1.87415 0.546265 1.41135e-16)
(9.53862 0.500963 1.645e-17)
(2.01147 -0.255106 -2.50237e-16)
(0.0151353 0.917525 -5.51811e-16)
(0.139518 2.35579 1.62286e-16)
(-0.179985 0.451767 -4.8048e-16)
(-0.276317 0.289603 1.07125e-15)
(0.193373 1.83456 -1.86222e-16)
(9.60575 0.734236 -3.44773e-17)
(10.0737 0.470841 -9.40727e-17)
(-0.145368 -0.772069 -3.39853e-16)
(2.51949 0.111388 1.94822e-16)
(1.45013 -0.104353 1.95567e-16)
(0.03834 0.70094 0)
(-0.111407 0.197093 3.0083e-16)
(1.24637 -0.363964 2.82054e-16)
(-0.275206 -0.182621 0)
(-2.0374 0.64371 0)
(0.18626 1.90379 2.01859e-16)
(3.73851 0.0510515 -1.37504e-16)
(0.0542339 2.42653 -8.14547e-17)
(-0.0333447 0.297058 1.82471e-16)
(-0.756066 -0.995857 1.78497e-16)
(10.157 0.706126 -3.00378e-17)
(1.49382 2.82769 0)
(1.80493 0.234391 -3.90319e-16)
(0.463431 1.26239 -2.14183e-16)
(3.94732 -0.115867 -5.52607e-17)
(-0.140553 0.565171 -1.24907e-16)
(3.62673 -0.180783 -8.31855e-17)
(9.82144 1.13959 5.67167e-17)
(0.0507309 3.96588 -4.8167e-19)
(1.0941 -0.865904 0)
(-0.0591819 -0.0969339 2.77308e-17)
(2.14262 0.831708 1.78661e-16)
(1.27075 0.685446 -3.18507e-16)
(-0.0374749 1.22661 0)
(-0.203007 -0.586678 0)
(0.484773 3.40373 0)
(-1.75127 2.33348 3.41416e-16)
(-0.168888 -0.0861618 3.23998e-18)
(0.207486 4.56127 2.81615e-17)
(-0.0292642 0.62306 8.18661e-17)
(1.49296 -0.380609 2.26251e-16)
(0.417199 2.88799 1.86442e-16)
(0.181515 1.43464 -3.13837e-16)
(0.285177 2.41712 -7.91814e-17)
(1.94301 0.600698 4.67751e-16)
(0.359512 1.95673 4.51697e-16)
(-0.16881 -0.255601 7.16412e-17)
(1.21415 1.68006 -9.07099e-18)
(0.761854 6.29328 -4.69767e-17)
(0.417534 3.09605 0)
(0.487183 3.37809 0)
(1.5516 2.53734 3.11573e-16)
(0.190625 1.64711 3.52167e-16)
(0.38791 2.99419 0)
(0.845174 2.83122 -4.14773e-16)
(-0.807899 -0.488304 -3.82652e-16)
(-0.989673 -0.070229 -6.29128e-16)
(3.55983 -0.17171 1.40664e-17)
(0.186303 2.25231 -1.6095e-16)
(0.350896 5.45145 3.54983e-18)
(2.22119 6.3116 0)
(0.492327 3.35594 5.22689e-17)
(10.1338 1.51059 -5.4026e-18)
(4.72605 3.13068 7.04652e-17)
(0.41015 1.61504 0)
(4.92894 7.25393 0)
(0.486589 1.42091 1.02734e-16)
(1.18817 1.2606 0)
(4.1139 -0.0990462 -8.51314e-18)
(0.346095 2.73003 -1.141e-16)
(0.41418 3.33428 2.38445e-16)
(0.531664 2.53976 -4.39521e-17)
(4.5457 5.83752 -3.62784e-17)
(0.511745 3.30604 -7.5106e-17)
(2.59298 0.605337 -1.06518e-16)
(0.0421635 0.212333 1.09515e-16)
(1.17695 4.28385 4.97739e-17)
(3.85535 -0.149455 1.01065e-16)
(0.00462587 2.87946 0)
(0.467359 3.26764 1.44621e-17)
(0.416082 3.86735 2.11504e-19)
(0.493269 2.62611 0)
(2.36713 6.36244 2.74509e-18)
(1.77999 3.97918 1.65718e-16)
(1.87713 3.4524 -1.45009e-16)
(2.3118 3.5144 1.95511e-16)
(0.0776633 3.7249 3.52442e-20)
(0.267654 4.5358 -1.4233e-16)
(2.01464 1.0419 -6.99875e-16)
(0.372306 0.886387 0)
(0.595696 0.776649 1.33022e-16)
(0.407671 3.07444 -3.54698e-17)
(0.0230654 1.82223 4.59743e-17)
(1.65472 1.42232 -4.21446e-19)
(1.96345 2.37207 -1.36181e-16)
(0.0854848 3.45539 -4.40208e-19)
(0.437852 3.32369 0)
(-0.832282 -0.776598 -1.88116e-16)
(1.33679 2.37547 5.96297e-16)
(4.25262 1.49795 0)
(10.2099 0.474628 2.09605e-18)
(1.08907 7.82932 2.92432e-17)
(0.00798344 1.10728 9.95819e-18)
(0.698596 3.25351 5.6045e-17)
(0.8441 0.310791 0)
(1.95676 4.96875 1.25312e-16)
(1.57632 3.85669 -2.57721e-16)
(2.50501 11.972 4.56271e-18)
(2.82651 4.11409 6.88654e-17)
(1.42499 -0.0362014 -5.01057e-17)
(0.307577 -0.456019 -2.96435e-16)
(3.72827 -0.173448 5.32779e-17)
(0.515639 1.2685 -1.37428e-16)
(0.886234 2.12528 3.83253e-16)
(0.486533 3.21259 -2.041e-17)
(0.23964 3.5827 -8.03721e-17)
(0.393346 3.44209 2.19104e-16)
(11.3703 0.10448 -9.23277e-18)
(3.6652 -0.0482311 -3.38567e-17)
(-0.0824546 2.9929 -1.22153e-16)
(1.30273 2.97067 -2.98445e-17)
(4.19649 0.850881 -1.38908e-17)
(1.70226 0.977587 -3.39451e-16)
(-0.159884 0.119683 -1.11032e-16)
(0.992466 2.63652 2.03191e-16)
(0.37 1.50822 1.43187e-16)
(1.01397 5.20397 -8.12022e-17)
(0.464875 3.4092 -2.28221e-16)
(0.288949 0.541079 0)
(2.72208 5.11556 -6.63739e-17)
(0.272625 -0.112466 0)
(0.230899 1.6139 1.527e-16)
(0.735385 0.61647 0)
(-1.55124 -0.0985084 4.18647e-16)
(0.509687 3.28295 -2.25489e-16)
(0.560117 2.43876 5.91965e-17)
(1.69879 4.02145 1.05855e-16)
(6.15932 0.417516 -6.21027e-17)
(3.43176 0.227095 1.13858e-16)
(0.421766 2.77638 -2.16564e-16)
(1.25845 0.398273 1.06547e-16)
(0.374809 3.49872 -2.07609e-16)
(5.16708 2.69533 -2.33485e-16)
(3.26429 0.0233345 4.96392e-17)
(0.77358 3.13844 0)
(0.00684407 2.07446 -4.14218e-17)
(0.273174 1.33746 1.08148e-16)
(1.44573 4.67906 -2.45271e-17)
(1.36542 3.58674 1.54422e-16)
(1.62714 0.257778 1.41686e-16)
(2.16519 2.30871 2.32335e-17)
(0.283157 2.82832 1.46059e-16)
(0.592423 3.30443 -7.93943e-18)
(0.0970494 3.0801 1.49921e-16)
(2.18079 4.14665 -1.23413e-16)
(-0.0731987 -0.456094 7.24931e-17)
(1.37443 3.72869 -8.74865e-17)
(0.438431 3.31316 -2.21217e-16)
(1.50054 5.75965 -5.36707e-17)
(-0.925385 3.07257 0)
(9.11651 0.452215 -1.59265e-16)
(7.61467 1.57476 1.18299e-17)
(0.44978 3.40285 1.60884e-16)
(0.00835273 1.61564 6.51221e-16)
(0.392369 1.8673 4.44002e-17)
(0.206423 2.17285 0)
(3.71648 0.430907 -1.37622e-16)
(-0.532857 0.284775 7.58395e-17)
(-1.1278 2.36845 -2.62482e-16)
(0.908438 0.979166 7.90972e-19)
(0.923266 -0.50323 -1.62037e-17)
(0.699538 2.7984 6.98441e-17)
(4.57255 0.633304 -7.90296e-18)
(9.29952 0.45152 0)
(0.506126 3.35963 0)
(0.149912 2.918 -6.77735e-17)
(-0.690542 -0.592297 2.23966e-16)
(9.90282 0.520576 0)
(0.229684 0.317933 -4.75301e-19)
(1.62359 4.33135 -3.1876e-16)
(2.55807 0.323628 0)
(2.56233 0.479763 0)
(2.41402 1.4812 -1.31523e-16)
(2.17168 2.76017 2.51287e-17)
(8.70746 0.389563 0)
(0.844804 -0.613578 1.91106e-16)
(-1.36894 -0.10757 -1.40284e-16)
(0.436344 3.01598 0)
(0.523139 2.86135 0)
(-0.30973 -0.667163 1.99696e-16)
(3.60808 0.168463 -5.32232e-18)
(0.0851208 0.369583 1.59124e-16)
(-0.30898 1.68334 -3.35383e-16)
(0.266758 2.63061 7.44862e-17)
(3.36213 0.146115 0)
(2.96185 0.0834143 0)
(0.555789 3.39175 -2.01733e-16)
(5.42101 0.257255 -2.05739e-18)
(2.02208 3.30918 -2.04986e-16)
(2.80878 0.0410697 1.33286e-17)
(4.45346 4.72161 -3.89819e-18)
(4.5806 0.225383 0)
(1.59849 3.30826 0)
(0.460695 2.70239 -9.00395e-18)
(3.1452 0.118944 0)
(0.0366791 2.23582 0)
(10.7643 0.601932 -1.16012e-18)
(0.198557 3.28583 -2.88761e-16)
(4.97713 0.241815 0)
(1.33647 1.69579 -4.79203e-18)
(0.619072 3.57995 3.41603e-17)
(0.202471 3.45263 1.04548e-16)
(1.32272 1.19833 -2.1199e-16)
(0.636914 3.81283 -4.27227e-18)
(0.018569 3.70826 4.27563e-17)
(-1.51716 0.406011 3.00144e-19)
(0.340641 1.88963 -4.92487e-16)
(0.371725 2.66386 5.53754e-19)
(0.231046 1.63146 2.61055e-16)
(2.33714 0.0314054 -2.47379e-16)
(0.409715 3.34626 2.0826e-16)
(0.323749 2.17322 0)
(-0.0118958 4.65526 2.16231e-18)
(9.88717 0.287505 -8.83028e-18)
(0.377523 2.24007 0)
(0.186308 0.165891 6.34312e-16)
(4.60469 0.414697 1.46827e-17)
(-0.477364 1.21257 0)
(0.239491 2.32714 4.18132e-16)
(3.01803 7.50004 0)
(1.63437 7.8695 2.48603e-17)
(0.0754443 -0.396835 0)
(5.42406 0.888483 1.86911e-17)
(-0.257012 3.58718 -2.70048e-16)
(3.08544 0.0977712 -8.85539e-17)
(1.60431 0.377312 -2.14447e-17)
(-0.271304 1.20306 2.68169e-16)
(0.2665 2.83934 -6.8307e-17)
(5.86086 0.275725 7.45819e-18)
(8.25382 0.325755 0)
(3.51333 -0.152481 -1.63228e-17)
(0.0674818 3.56887 0)
(0.342208 3.4769 0)
(2.89099 0.199468 -1.13122e-16)
(1.89672 3.9959 0)
(0.373257 3.41773 0)
(0.891876 3.99821 -3.72318e-17)
(2.39861 0.283814 0)
(-0.0652302 -0.262865 2.07617e-16)
(0.34174 3.75229 6.93475e-17)
(-0.312206 -0.418614 2.41878e-16)
(0.214198 0.644311 1.87633e-16)
(0.76626 0.135952 2.21427e-17)
(4.15044 0.347056 -5.10988e-17)
(0.607564 -0.654461 -3.98309e-16)
(13.2314 2.58832 0)
(0.468046 3.94668 0)
(0.349927 3.27443 -2.22896e-16)
(0.192684 0.110791 1.27897e-20)
(0.625505 3.92097 1.44968e-17)
(0.994572 0.52764 2.18124e-17)
(10.4906 2.16589 3.17608e-18)
(3.59062 1.38631 4.47795e-17)
(-0.130475 1.06727 -9.49027e-17)
(-0.164524 0.235671 4.30252e-16)
(-0.377472 -0.251303 -3.35284e-16)
(0.228914 3.47025 0)
(2.5704 -0.767522 3.64804e-16)
(3.28739 -0.585054 -1.76458e-16)
(0.632784 3.28695 -3.57865e-17)
(1.10701 0.0384709 -1.90593e-17)
(0.214329 2.1864 -4.51848e-16)
(-0.0604758 3.96994 -6.48521e-18)
(0.652085 4.20396 1.88274e-16)
(0.252889 3.058 1.07944e-16)
(0.312162 3.31901 0)
(1.96206 2.20255 9.1531e-17)
(2.7521 -0.0310583 5.07755e-17)
(0.161949 0.948287 0)
(0.465214 3.42573 -1.87954e-16)
(0.126224 0.510439 -7.37037e-16)
(1.74787 3.00518 0)
(0.166435 0.108876 -1.89758e-16)
(0.414229 2.20438 0)
(-0.853084 -0.591785 -9.09088e-19)
(3.89488 0.191083 -2.47373e-18)
(9.5624 2.00904 1.9129e-18)
(1.76962 3.94541 0)
(1.59896 2.11925 2.07048e-16)
(0.136284 4.111 -1.24848e-16)
(1.84104 2.52 0)
(1.57373 -0.145699 -1.13795e-16)
(-0.463952 0.306258 -1.60186e-16)
(0.0236569 3.31082 -1.27387e-16)
(0.459309 3.41301 1.46278e-16)
(0.11454 3.1396 2.88185e-16)
(2.72184 -0.00107375 -2.78607e-17)
(2.85781 -0.215391 0)
(-0.181527 3.45167 0)
(2.91559 -0.235984 2.76894e-17)
(0.207864 2.06382 2.12443e-16)
(0.0224658 3.94112 -4.49843e-17)
(0.849729 0.316211 1.29459e-16)
(-0.0518729 0.0118775 -2.88428e-16)
(0.360468 3.58267 0)
(0.42812 3.32045 1.16745e-16)
(9.60818 7.28656 -1.32264e-18)
(0.23761 3.13721 3.83291e-17)
(0.572534 3.70513 -1.69068e-17)
(0.350954 1.22908 -1.08846e-16)
(1.60622 4.05716 2.06929e-16)
(4.75521 1.47638 2.54391e-18)
(3.84967 0.0475814 -1.1348e-16)
(0.709722 0.472802 0)
(11.0144 0.820052 2.26318e-18)
(0.470826 3.33404 8.61668e-17)
(8.43556 0.53686 1.12341e-18)
(0.346346 3.15813 -1.33345e-16)
(-0.305243 -0.627924 -1.83898e-16)
(0.61751 3.40532 -3.77888e-16)
(0.49423 3.36206 4.60185e-19)
(0.243296 -0.0330635 5.0539e-16)
(1.60555 3.02864 -1.33965e-16)
(0.519974 1.88617 -4.74093e-16)
(0.466667 3.33775 -1.59358e-19)
(4.23135 0.209474 1.00625e-17)
(0.0513391 3.44301 -6.36839e-17)
(0.439385 3.2759 4.20592e-17)
(0.108893 4.46001 -2.71933e-18)
(-0.874721 -0.298426 0)
(1.22601 -0.418445 0)
(0.516913 3.35785 -1.05559e-16)
(6.35709 0.291823 1.69323e-18)
(7.85154 0.211672 -1.30956e-17)
(0.0949141 3.99905 1.86869e-16)
(1.82933 2.30451 -3.41825e-17)
(2.61999 -0.0020614 6.75319e-17)
(3.81467 0.617313 9.61776e-18)
(0.683773 3.56247 7.05881e-17)
(0.433905 2.77392 -1.39134e-16)
(2.42077 1.1461 4.50914e-16)
(0.334235 2.2453 -1.35751e-16)
(-0.059156 0.0275754 0)
(0.0685234 -0.0733767 -1.40355e-16)
(0.18189 1.98417 -1.31134e-16)
(0.822313 2.3518 0)
(8.01438 0.949739 -1.0135e-17)
(0.12542 0.0992363 1.16076e-16)
(5.65557 0.238498 0)
(-0.055026 0.647193 0)
(6.31652 2.54052 -2.91331e-17)
(-0.0281575 3.62299 2.22647e-17)
(0.263446 4.4449 -7.56212e-18)
(0.109592 1.10644 0)
(-0.13983 0.0267494 1.00296e-16)
(-1.31593 -0.150047 7.94657e-16)
(1.07689 -0.472044 -6.03726e-16)
(4.05871 0.171453 -3.67491e-17)
(2.03261 2.12921 7.64143e-17)
(-1.6822 -0.209504 2.36873e-16)
(0.385436 -0.229305 0)
(0.437557 0.660121 -8.89944e-17)
(2.02216 2.8933 -2.08566e-18)
(1.56087 3.36385 8.29974e-17)
(1.69129 2.19199 -3.04394e-17)
(0.416904 2.98403 0)
(0.52361 3.44574 1.11256e-16)
(0.448918 3.0474 1.10312e-16)
(3.27938 -0.539931 0)
(9.53568 0.446531 1.39543e-16)
(0.638068 3.46285 0)
(0.49584 3.34221 0)
(3.19351 4.21392 -2.67652e-18)
(0.466189 3.44375 2.40945e-16)
(0.318134 3.85915 1.54563e-16)
(3.6824 0.395785 -2.04117e-16)
(0.118064 -0.402173 2.61207e-16)
(3.91353 -0.0877319 1.72094e-16)
(0.063148 2.5581 0)
(0.552614 3.53914 4.47677e-20)
(0.338205 2.65335 -2.35578e-16)
(8.24067 -0.165208 -6.39146e-17)
(1.68172 -0.223105 5.38157e-17)
(0.286266 3.26962 3.77878e-16)
(0.535352 0.490413 -1.26482e-16)
(2.19461 1.56037 1.41368e-17)
(6.8114 -0.241875 3.98924e-17)
(3.9878 -0.0336938 -6.3522e-17)
(0.187629 8.05199 8.80539e-17)
(0.0668927 3.06233 -8.09875e-20)
(0.0772329 2.93602 1.18825e-16)
(0.0822091 2.63933 1.12718e-18)
(0.0794513 2.7911 0)
(0.131561 9.00342 -7.66553e-17)
(0.0492836 3.14741 -2.21135e-16)
(0.0517629 3.79262 -9.4596e-19)
(0.0663025 3.64762 -2.646e-17)
(0.0548028 3.68841 0)
(0.0567149 3.93281 5.35101e-17)
(0.210069 7.27624 0)
(0.187682 9.91214 0)
(0.0392902 4.10173 -7.04857e-17)
(0.347456 5.79695 -4.87529e-18)
(0.280125 6.54386 -4.45518e-18)
(0.01224 4.185 2.2457e-17)
(0.0192729 3.14516 1.14689e-16)
(-0.0083284 3.1335 0)
(-0.0315072 4.13833 -3.10163e-17)
(-0.0196843 3.12544 0)
(-0.0195552 3.1498 0)
(-0.0810272 4.01313 2.3334e-17)
(-0.0141238 3.18346 0)
(0.437947 2.97304 1.26668e-16)
(5.59745 4.02057 -5.76486e-17)
(0.237968 -0.870206 2.662e-16)
(-0.54923 2.38418 0)
(1.43357 3.75912 -1.26937e-16)
(-1.54938 0.175957 1.02632e-16)
(-0.00267593 0.440798 5.7306e-16)
(8.59334 1.81361 -1.6164e-17)
(0.0470875 3.54995 -2.88635e-17)
(0.793018 4.85189 0)
(-0.89409 0.443325 5.46102e-16)
(0.831241 -0.093498 3.32226e-16)
(2.74538 0.556579 0)
(5.69347 -0.102444 3.16341e-17)
(0.832299 -0.195403 -2.54001e-16)
(-0.188989 -0.197231 -2.08216e-16)
(6.22458 3.2072 1.01104e-16)
(2.0448 3.46279 -5.60102e-17)
(0.482194 3.16343 1.18628e-16)
(1.78895 1.28616 -4.95563e-17)
(3.77301 0.0131983 -7.46079e-17)
(8.19904 0.80936 -2.85241e-19)
(-0.85577 0.314049 -3.30134e-16)
(-0.0107782 3.22955 0)
(1.32361 3.50505 4.12953e-16)
(1.87633 2.72293 -1.68945e-19)
(0.683175 0.0509164 7.13708e-17)
(0.512256 -0.0744953 0)
(10.4941 0.0911538 2.84202e-17)
(0.0542649 0.90744 -1.73545e-16)
(2.48397 0.361412 3.78472e-18)
(0.382368 2.77618 1.58028e-16)
(0.353983 3.13641 0)
(0.41507 1.65536 1.14473e-17)
(0.295945 1.75996 -9.35869e-17)
(8.95078 2.71129 2.3609e-17)
(0.181195 -0.608146 3.06454e-16)
(-0.12804 -0.543755 -2.94224e-16)
(-0.743364 -0.363565 2.14845e-16)
(1.83479 -0.26345 -5.97993e-17)
(0.454431 2.1737 4.8107e-17)
(0.0110894 2.57674 -2.25197e-21)
(0.149575 3.82426 -2.32077e-17)
(-0.139902 2.42155 0)
(1.42446 1.79121 3.68863e-19)
(0.0819189 0.311775 7.37776e-17)
(2.52394 0.597777 1.13717e-16)
(0.240606 -0.599691 0)
(0.271121 0.418596 -4.48576e-16)
(-0.182526 0.235143 0)
(10.8875 0.639575 2.04729e-18)
(0.35773 2.9561 0)
(1.07275 1.74737 -8.84077e-17)
(0.220044 1.34429 1.77571e-16)
(-0.121039 -0.145511 3.28974e-16)
(2.49579 0.147117 0)
(3.39625 -0.0222442 -2.67752e-17)
(0.0129751 3.22631 4.72101e-19)
(0.320026 -0.131422 0)
(2.87305 -0.0364611 0)
(0.791867 1.60601 -3.20489e-16)
(-0.578858 3.63619 -1.22265e-17)
(7.33601 0.0231134 0)
(0.26479 0.0364897 -1.40853e-16)
(3.86157 0.0162874 -1.79587e-16)
(-0.217538 -0.0960973 0)
(0.233216 3.27398 3.29608e-16)
(0.429778 -0.0793127 -1.54303e-16)
(7.62188 4.90755 1.80397e-17)
(0.575351 3.31155 3.47802e-17)