/*--------------------------------*- C++ -*----------------------------------*\
| =========                 |                                                 |
| \\      /  F ield         | OpenFOAM: The Open Source CFD Toolbox           |
|  \\    /   O peration     | Version:  v1912                                 |
|   \\  /    A nd           | Website:  www.openfoam.com                      |
|    \\/     M anipulation  |                                                 |
\*---------------------------------------------------------------------------*/
FoamFile
{
    version     2.0;
    format      ascii;
    class       surfaceScalarField;
    location    "0.44";
    object      phi;
}
// * * * * * * * * * * * * * * * * * * * * * * * * * * * * * * * * * * * * * //

dimensions      [0 3 -1 0 0 0 0];
oriented        oriented;


internalField   nonuniform List<scalar> 
2708
(
-2.598e-05
4.95237e-05
1.24194e-05
-3.5963e-05
-6.86227e-05
9.50379e-05
-1.39608e-05
-1.24543e-05
0.00121869
0.000232725
-0.000894174
-0.00055724
-0.000340185
0.000186305
6.35288e-05
9.03513e-05
-1.43464e-05
1.13912e-05
9.94274e-05
-9.64722e-05
0.0006034
0.000452712
-0.000393054
-0.000663058
6.80997e-06
-0.000254747
0.000599331
-0.000816863
0.00099702
-0.000779488
0.000215637
0.000280812
-0.000358359
-0.00013809
0.000162004
5.78289e-05
-0.000116742
-0.000103091
4.98295e-06
1.58147e-05
-4.91132e-06
-1.58863e-05
-0.000101904
-1.84704e-05
0.000120375
0.000109605
-3.58451e-05
0.000124423
-0.000198183
0.000841871
-0.000857278
4.30618e-05
-2.76549e-05
0.000122965
-0.000127354
5.10928e-05
-4.67036e-05
6.20726e-05
-0.00027082
0.000208748
-0.000211001
0.000187356
0.000146609
2.95112e-05
-6.99988e-06
-7.68007e-05
5.42894e-05
9.30899e-05
-3.93703e-05
-5.37196e-05
-6.5478e-07
1.10213e-05
-5.3836e-06
4.70254e-05
4.24269e-05
-6.73761e-06
-8.27146e-05
5.52269e-05
3.80627e-05
-0.000116558
0.000128122
0.000336429
-0.000347992
0.000811491
6.02322e-05
-2.98514e-05
0.0004008
7.95828e-05
-0.000423034
-5.73485e-05
-2.50151e-06
-2.92777e-06
4.7745e-06
-0.000420356
0.000347356
-0.000186005
0.000259005
3.61199e-05
-2.02088e-05
-0.000873189
-0.00103724
9.14496e-05
0.000959381
-1.35858e-05
-7.10022e-05
-0.00011649
8.49048e-05
0.000102588
-0.000429903
0.000961065
-0.000550853
1.96912e-05
0.000905666
0.000437907
-0.000598728
-0.000744845
0.000210274
0.000198121
-0.000408395
0.000166483
-0.000234996
6.8513e-05
0.000107798
-4.54915e-05
-6.23063e-05
-0.000861601
0.000855846
0.000667217
-0.000661463
-6.95012e-06
2.80435e-06
3.85203e-06
2.93742e-07
-0.00117021
0.0011278
-5.13252e-05
9.37353e-05
0.000154568
-0.000172115
-0.000310018
-0.0013817
-3.44853e-05
0.000245976
-0.000348239
-0.000251351
4.06342e-05
0.000558956
-0.000100601
1.75103e-05
8.30904e-05
-7.20016e-05
0.000112226
-0.000211533
0.000171309
-3.65214e-06
3.68418e-05
0.000121077
-0.000154267
0.00014273
-5.20757e-05
-0.00022362
0.000132965
-5.43435e-05
-9.04823e-05
5.20912e-05
9.27346e-05
6.23866e-05
0.000673638
-0.000376313
-0.000359712
-1.29272e-05
2.45597e-05
-0.00093633
0.000924697
-0.000647934
0.00115
-0.000861792
0.000359724
3.07678e-05
-0.00106568
0.00109216
-5.72488e-05
7.34082e-05
-9.78446e-05
-8.90398e-05
0.000113476
-0.000138015
7.33896e-05
0.00022663
-0.000489575
0.000278273
0.000426939
-1.94788e-05
7.18261e-05
-0.000143453
9.11054e-05
0.000265539
-0.000204342
5.7145e-05
-0.000118341
-0.000952574
0.00011777
0.000934518
-9.9714e-05
-0.000208254
0.000131878
0.000343926
-0.00026755
-0.000217059
-2.54732e-05
0.000712741
-0.000470209
-0.000588699
0.000569143
2.89565e-05
-2.74843e-05
4.55532e-05
0.000317309
-0.000266598
1.16752e-05
3.22258e-05
4.39938e-05
-6.17716e-05
-1.4448e-05
0.00046155
-0.000736088
-0.000587063
-0.000424954
0.000470614
0.00100905
-0.00105471
0.000842706
-0.000170298
-4.69021e-05
-0.000625506
-0.000129907
0.000130665
0.00012062
-0.000121378
0.000217867
-5.50539e-05
-9.01118e-05
0.000144542
-0.000105821
5.13912e-05
-0.000622418
0.00102633
-0.000732166
0.000328248
9.44816e-05
0.000104146
3.30716e-05
5.05621e-05
-3.88331e-05
-4.48006e-05
-0.00018069
0.000185749
-0.000142209
0.000137149
6.5682e-05
0.000144592
-3.12243e-05
-0.000104707
0.000129973
5.9588e-06
2.09287e-05
0.000644009
-0.000432213
0.000963271
6.18247e-05
-0.00101105
-1.40493e-05
0.000131404
-0.000259883
-7.42839e-05
0.000202762
-0.000950262
0.00092219
-0.000396882
3.55059e-05
0.000100107
-2.96439e-05
-0.000105969
0.000234825
-5.18183e-05
-3.96205e-05
-0.000143386
3.11475e-05
-0.000136235
0.000173713
-6.86254e-05
-0.000277245
-5.20723e-05
0.000195258
0.000134059
-8.69297e-05
0.000105495
-4.31498e-05
2.45841e-05
-6.07752e-05
3.05338e-05
6.20601e-05
-3.18187e-05
-0.000216042
-6.12724e-05
0.000219395
5.79196e-05
0.000770553
7.92324e-05
-3.82945e-05
-2.25605e-06
5.87271e-06
-5.99823e-06
2.38157e-06
-7.66128e-05
5.43217e-06
3.32933e-07
7.08477e-05
-0.00032807
0.000228471
-0.000116444
-6.72494e-05
-1.98641e-05
2.63383e-05
0.00111544
-1.68271e-05
2.91789e-05
2.11275e-05
-3.6661e-05
-0.000159237
0.00017477
6.8298e-05
-0.000109814
7.04723e-05
0.000168252
-0.000214496
-0.000134445
-6.7642e-05
-0.00099907
0.00102691
3.9799e-05
3.44866e-05
1.93242e-05
-2.23311e-05
-3.14797e-05
-0.000796717
-0.00028112
8.39507e-05
-0.000135386
-3.86764e-05
3.08132e-05
-0.00107537
0.00107562
-3.10597e-05
-2.71718e-05
3.29676e-05
-3.27078e-05
2.69119e-05
0.000100576
-2.59844e-05
3.14968e-05
-0.000106088
0.000273807
2.76126e-05
1.27946e-05
-0.000314214
-0.000143861
0.000186755
5.94284e-05
-0.000102322
0.00103569
-0.00145809
0.000183041
0.000239367
0.000464966
7.71411e-06
1.29416e-05
-0.000485622
8.82298e-05
8.44302e-05
-0.000942207
-3.04854e-05
-7.93724e-05
0.000115173
-5.31517e-06
9.85241e-06
0.00016993
-0.000223831
4.40486e-05
-0.000108457
0.000178763
-0.000200213
0.000836494
-0.00057243
5.14104e-05
-0.000315474
-5.44133e-06
2.11531e-05
1.6514e-05
8.75516e-06
-1.61825e-05
0.000281234
1.19454e-05
-1.03289e-05
9.89592e-05
-3.76118e-05
3.60414e-05
3.10816e-05
3.22743e-05
2.48669e-05
-4.91323e-05
-8.00882e-06
0.000715679
0.000100077
-4.5203e-05
0.000175757
0.000165094
-0.00112441
0.00112696
9.56939e-05
-9.82407e-05
-0.000341763
-0.000364872
-0.000244256
-0.000102013
0.000760759
0.00017872
-0.00081217
-0.000127309
-0.000988941
-0.000636851
0.00105228
0.000573512
-3.66389e-05
5.93017e-05
9.12169e-05
-0.00011388
0.0001175
-4.41514e-05
0.00064233
-6.07511e-05
0.000191914
5.45854e-05
2.50277e-05
-4.57667e-05
6.17806e-05
-4.10416e-05
0.00082088
-0.00103831
0.000354814
-0.000137383
0.000133606
-0.000176193
8.90501e-05
-4.64635e-05
-0.000342774
1.97421e-05
-0.000107295
-0.000736563
0.000843858
-2.21839e-05
1.64014e-05
-2.13893e-05
1.73752e-05
-2.38595e-06
-8.22386e-05
-7.44997e-05
3.42083e-05
-0.000287778
2.26559e-05
4.00674e-05
-2.96516e-05
5.71428e-05
-4.70052e-06
-0.000269657
0.000217215
6.94532e-05
-7.0487e-05
-2.97846e-05
3.08183e-05
-0.000325497
-7.66262e-05
5.93489e-05
-0.000275284
2.11687e-05
0.000256451
-2.3354e-06
2.94812e-05
2.62135e-05
-3.83195e-05
0.000896329
-2.30647e-05
-0.00076377
-0.000109494
-0.000101078
0.00109851
0.000152573
-0.0010953
8.91084e-05
0.000858082
-0.00102516
-0.000261739
0.000428815
-0.000224682
-0.000984844
0.00118525
2.42742e-05
0.000150838
-1.13684e-05
-1.62602e-05
1.71804e-05
2.17356e-05
-0.000909372
0.000872687
-0.000273515
0.0003102
0.00126572
7.61882e-05
-0.00031465
-0.00102726
-4.98428e-05
0.000900795
-8.247e-06
1.92117e-05
-7.11369e-05
4.48314e-05
7.09381e-06
9.27386e-06
0.000225551
1.06043e-05
3.33894e-05
-0.000138054
0.000245555
-0.000927413
-0.000375944
0.000353095
3.02433e-06
-1.64558e-05
-8.75249e-06
0.000899609
0.000118516
-0.000181631
-0.000190273
0.000893321
-0.000878679
0.000175632
4.68566e-05
-0.000139803
8.59463e-05
-1.29848e-05
7.74594e-06
3.91158e-05
4.17748e-05
-4.7923e-05
-3.88626e-05
0.000190808
-0.00014319
2.37449e-05
-6.20772e-05
-4.7451e-05
-1.35852e-05
7.08886e-05
9.14623e-05
-5.36497e-05
2.18445e-05
-0.000122091
0.000124497
-1.84467e-05
2.53021e-05
9.54608e-06
-0.000938435
0.000184161
0.000871774
8.34271e-05
0.000270641
-0.000291995
0.000365123
-0.000576122
-0.000545694
0.000756693
1.42331e-05
0.000237238
-0.000873889
-3.35427e-05
0.000915681
1.41906e-05
-8.61508e-05
-2.81781e-05
0.000114329
0.000115248
-0.000189748
0.00106393
-0.00124016
-0.000164887
0.000341116
0.000157437
-0.000156029
-0.000117898
-0.000812522
-0.000353174
0.000847147
0.000318549
-7.74061e-05
0.00103999
-0.000946196
-1.63863e-05
-3.12281e-05
9.7293e-05
-1.93746e-05
-4.66903e-05
0.00013158
-0.000966048
0.000931074
-9.66058e-05
9.1839e-06
-1.39026e-05
-7.2267e-07
-0.000332232
0.000246501
0.000943813
-0.000917198
0.000905093
-0.000178169
0.000622659
-0.000595758
-2.26599e-05
0.000597238
-0.00054037
-1.0953e-06
-3.66226e-06
-0.000331142
-0.000906907
0.000310636
0.000105238
-9.26143e-05
6.74831e-05
-8.01068e-05
-0.000339391
0.00033221
-7.3239e-05
8.04201e-05
-9.86112e-05
0.0010132
-0.000889271
-0.000157474
0.000283102
6.52013e-06
-2.72424e-05
-0.00026238
-0.000155222
0.000165296
0.00111689
8.65665e-06
2.25724e-05
0.00100446
0.000131611
0.000911337
-0.000979124
-6.38235e-05
-5.59916e-05
-5.77996e-06
-3.88112e-05
-1.2562e-06
-0.000224867
0.000292034
-6.71667e-05
-0.000199922
-0.000909935
0.000200485
-0.000317685
-7.21346e-05
4.15805e-05
-0.000197748
-0.000247144
-3.01012e-05
3.46338e-05
4.45588e-05
0.00101788
-8.93214e-05
-0.00097312
9.93937e-05
5.16374e-05
-9.59223e-05
-5.51088e-05
-8.18693e-05
0.00103851
-0.000648482
-0.000263853
0.000672592
-1.14229e-05
-0.000885851
0.000132419
0.00081965
-0.000191309
0.000973269
0.000150765
-0.000160638
-0.000963396
0.000327954
0.000210922
-0.000406999
0.000348797
-4.97629e-05
-0.000324507
0.000208024
0.000888613
-0.000197028
0.000126946
0.00013489
-0.000156598
-5.7379e-05
0.000102707
2.20312e-05
-6.73595e-05
0.000369206
-9.25785e-05
0.000582093
-0.00085872
0.000353534
-0.000120008
0.000512578
0.00122376
-0.000540907
-0.000353267
0.00080972
-0.000882819
-1.94793e-05
-0.00102677
-0.000817341
0.000603951
0.000827033
-0.000894536
5.73069e-06
-0.0010052
5.17328e-05
0.000996534
0.000867701
-8.8763e-05
5.66481e-06
6.32341e-05
-0.000204981
0.000214755
0.000218697
0.00100933
0.000200046
-0.000529822
0.000955644
-0.00124268
-0.000415764
-0.000915738
0.000801679
-0.000612277
0.000869105
-8.05852e-05
-0.000988376
8.41182e-05
-4.2705e-05
-5.68846e-05
7.36095e-05
-0.000934035
0.000661442
-5.85485e-05
0.000107603
-9.14454e-05
6.48113e-05
-8.09689e-05
-0.00109809
-4.12214e-05
0.00105744
-0.000189277
0.000172663
-0.000238773
-0.000100676
0.000143729
0.00019572
-0.000491408
0.000613568
-0.000156367
-8.03956e-05
9.87087e-05
-0.000159742
-7.86887e-06
1.1244e-05
0.000754961
-0.000115916
0.000286473
-0.000994907
0.000156549
-0.00096879
-8.95762e-05
0.00116643
-0.000108063
0.000160227
-0.000118188
0.000119327
-6.54683e-05
0.000772938
0.00049051
-0.00113184
0.000205327
-0.000267777
-0.000952974
0.000977036
-2.40623e-05
0.000140796
-0.000186582
4.57856e-05
3.57488e-05
-9.7948e-06
8.16489e-05
-0.00103773
-2.4221e-05
0.00106195
-0.000994793
0.00100617
-1.13721e-05
-0.000922206
-8.89997e-05
-0.000382963
0.000127665
-1.99852e-05
0.000244249
-0.000867949
-0.00101895
4.98607e-05
-0.000981161
0.00107685
0.000899058
-0.000224989
-0.000918274
-0.000123857
0.000925925
0.000116205
-0.000171695
2.32967e-05
0.000247933
-9.95344e-05
0.000987965
2.961e-05
0.000441093
-0.000975441
5.81661e-05
-5.15146e-05
9.06483e-05
-0.00101436
-3.53257e-05
-0.00088688
0.00101968
-0.000659791
-3.05229e-05
-3.1882e-05
2.96971e-05
-0.00010542
-0.000144924
0.000148439
5.19922e-05
-7.03038e-05
0.000190053
-0.000171741
-0.000253354
-0.000107644
-0.000122569
-0.000577553
-8.60705e-05
8.1067e-05
-8.64419e-05
3.44321e-05
-5.36557e-05
-3.81553e-05
-2.82585e-05
-2.36536e-05
-0.000959317
-0.00041144
-0.000832947
0.000525622
0.000718765
-0.00100525
-0.00104333
-9.50972e-05
5.82184e-05
0.0010802
0.000550683
3.1568e-05
0.00114245
-1.37014e-05
-0.00116031
-0.000683134
-0.000540828
0.000194547
5.76667e-05
-5.02913e-05
-0.000201922
0.000969804
-0.00102495
-0.000385112
0.000208225
0.00120183
3.59005e-05
-8.51865e-05
-4.93252e-05
0.000198047
-0.00104938
0.000982909
4.01903e-05
-0.000103827
9.93855e-05
-0.000236767
0.000205235
-0.00134038
-2.26042e-05
0.000317563
-0.00027182
-3.64691e-05
0.000299541
0.00100569
-6.35342e-05
-0.0012417
1.06626e-05
0.000106235
-0.000174728
0.000108683
0.000376683
-0.000258438
-1.77569e-05
6.43107e-05
-5.91667e-05
-8.46001e-05
0.000862456
-3.12188e-05
-2.22022e-05
6.34507e-05
-1.00297e-05
3.69446e-05
1.88749e-05
-0.000161806
0.00016061
8.19337e-05
-3.71023e-05
6.14038e-05
-6.36383e-05
-0.000245067
5.53513e-05
-0.00014068
0.000162533
2.38234e-05
-4.5677e-05
0.000303883
-0.000975371
1.74981e-05
0.000118031
-0.000179168
-9.93871e-05
1.40598e-05
5.41982e-06
0.00010456
1.44695e-05
-0.000323174
0.000329874
-0.000176308
0.000174071
-8.38326e-05
-6.70761e-06
4.32247e-05
3.17983e-05
-6.83153e-05
5.46991e-06
0.00013176
0.000403204
0.000918791
-0.000399805
-0.000148741
-4.34596e-07
-1.95233e-05
0.000168699
0.00107355
1.44163e-05
-6.76464e-05
8.61155e-06
4.46186e-05
0.000244471
-0.000303995
0.000230134
-0.000170609
1.49553e-05
3.81917e-06
6.22925e-05
0.000140791
1.20452e-06
-0.00023461
-6.33627e-05
-0.000172227
0.000134914
-0.000110624
-5.01321e-05
3.86647e-05
3.20005e-05
7.46627e-05
-5.65961e-05
-0.000151872
-9.55795e-05
-7.73775e-05
7.41115e-05
9.88455e-05
0.00117199
-0.000886493
1.34651e-05
-6.42113e-05
0.000138078
9.29467e-05
-0.000242825
-0.000543913
0.000693791
9.59313e-07
-6.32597e-05
6.23003e-05
0.000106392
-0.000915246
-7.39644e-05
8.9952e-05
8.89904e-06
-9.88511e-05
2.54993e-05
-4.51038e-05
1.96045e-05
4.88807e-05
-0.000101343
5.24624e-05
0.000318175
-0.000226257
-9.19179e-05
-0.000263483
2.16661e-05
0.000241817
0.000238221
-5.03858e-05
-0.000187835
0.000186931
-0.000150107
-3.68244e-05
-4.79752e-05
1.66229e-05
3.13523e-05
0.000227706
9.04684e-05
-0.000266725
3.24164e-06
-1.52829e-05
1.62422e-05
-5.70966e-05
0.000101864
-4.4767e-05
-0.000131321
0.000140295
-8.97469e-06
8.42002e-05
-0.000148088
0.000100113
0.000208059
5.7345e-05
-5.76137e-05
2.68672e-07
-1.65759e-06
2.71569e-05
0.000164613
-7.46605e-05
-0.00020978
2.31986e-05
0.000177183
-0.000177365
1.82169e-07
5.39707e-05
-4.84657e-05
-1.94373e-05
1.39323e-05
-1.62187e-05
6.17825e-05
-9.19976e-05
7.73656e-05
-5.39907e-05
6.99718e-05
3.83416e-06
0.000119617
-0.000116337
0.000170572
0.000140312
-7.97065e-05
2.20855e-05
0.000160328
1.90918e-05
-1.33411e-05
-7.33972e-05
1.47489e-05
-0.000324071
-0.000636874
-0.000339322
0.000388476
0.00106196
-2.37081e-05
-3.33885e-05
0.000187466
2.35248e-05
-0.000210991
-6.16441e-05
4.72231e-05
-2.85036e-05
2.90946e-05
-1.72156e-06
-0.000201078
2.37133e-05
1.34001e-06
-4.82435e-05
1.22412e-05
0.000123532
-0.000114633
-0.000327889
-0.000604093
0.000352418
0.000579565
0.00103913
-0.000267345
0.000135159
-5.65756e-05
0.000222937
-0.000248299
8.19383e-05
4.57079e-05
2.26106e-05
0.000912966
-0.000922828
9.44698e-05
-8.46083e-05
-2.1696e-05
-2.69733e-05
4.78293e-05
8.39963e-07
-0.000111261
-2.00594e-05
-8.67188e-05
2.34408e-05
7.18895e-05
6.64215e-05
-0.000172508
6.06285e-05
-6.94492e-05
-3.71787e-05
4.59994e-05
0.0010795
-0.000284817
-3.31069e-05
-9.95996e-05
-7.97332e-06
0.000413838
-0.00105701
0.000942717
7.1534e-05
-9.22728e-05
2.00829e-05
-1.72097e-05
0.000156059
-0.000367826
0.000724344
-5.76753e-05
-0.000222972
0.00024646
0.000678007
0.000657838
-0.000479999
7.95417e-05
-7.63319e-05
0.000646565
-0.000356809
-0.000289756
-6.7826e-05
8.18494e-05
3.63644e-05
-5.03878e-05
-0.000322455
-0.000124569
0.000275329
3.93287e-05
7.25148e-05
-4.12756e-06
-0.000107716
-3.73936e-05
6.33856e-05
-7.71606e-05
-2.51365e-06
-3.43519e-05
-0.000165612
0.000202477
7.16575e-05
-0.000144658
7.99215e-05
-6.92104e-06
5.19229e-05
-3.1697e-05
-1.56751e-05
-4.55075e-06
-0.000151356
2.6388e-05
0.000122455
-6.6312e-05
4.70507e-05
-4.85647e-05
8.40625e-07
4.20874e-05
8.99495e-06
-5.58494e-05
-4.32571e-05
6.73644e-05
3.17422e-05
7.87447e-05
2.66006e-05
-2.55529e-05
8.26163e-05
-8.3664e-05
-0.000136863
-7.58203e-05
2.28729e-05
2.12503e-05
-2.32432e-05
-3.67064e-07
1.95933e-05
3.98435e-06
-2.32106e-05
-7.92859e-05
5.62295e-05
2.41741e-06
-7.38583e-05
6.71678e-05
4.27308e-06
-0.000159016
0.000191845
-6.71803e-05
-2.22762e-05
-2.62534e-05
-7.31983e-06
-7.08963e-05
-1.19493e-05
6.71705e-05
3.27675e-05
0.000341137
-0.000326668
1.17541e-05
-3.43974e-05
2.6867e-05
-4.13662e-05
1.09377e-05
-7.0475e-05
5.95373e-05
-1.73466e-05
4.44702e-05
3.27148e-05
-5.98383e-05
-2.93054e-06
-2.72822e-06
-1.16879e-05
-0.00010104
3.61578e-05
0.000133157
3.75885e-05
-0.000170745
6.47642e-06
-3.81972e-05
5.13141e-05
-9.01814e-06
1.94789e-05
-0.000113671
8.0742e-05
0.000104587
7.60147e-06
8.89816e-06
-1.94302e-05
-7.69681e-05
-3.10105e-06
-6.45887e-05
3.17338e-05
-4.74529e-05
-0.000149893
9.45221e-05
-0.000102897
-6.85933e-05
-0.00015073
0.000111858
-7.47993e-05
0.000112089
-6.98628e-05
3.85161e-05
-5.9309e-05
-7.57575e-05
2.0295e-05
0.000271684
-0.000277984
0.000249148
-0.000242848
7.84233e-05
-3.72021e-05
-4.12212e-05
-0.000107855
-3.14933e-05
-4.34385e-05
-0.000483213
0.000410093
-8.50611e-05
-2.38034e-05
-0.000107006
0.000120389
-9.84439e-05
-0.000101088
-0.000439065
-0.000109653
0.000220828
-0.000235415
-6.47525e-05
0.000256729
4.02508e-06
-7.17026e-05
0.000506537
-0.000267595
-7.68743e-06
2.13649e-05
8.51636e-05
-9.88411e-05
-4.14538e-05
1.71347e-05
0.000858234
-0.000211669
0.000108367
-0.000123152
-0.000220629
-3.74285e-05
0.000113968
-0.000786019
0.000688464
0.00066741
-0.000795592
0.000561029
-0.000485193
0.000256373
-2.39595e-05
-0.00012541
0.00014937
-0.000143582
1.16631e-06
-5.56257e-05
4.67719e-05
-0.000141469
0.000999703
-0.00109402
-0.00112596
-8.63852e-05
-0.000252949
-3.40818e-05
-0.000334519
-4.03272e-05
-5.72787e-05
-3.06272e-05
4.23996e-05
4.55063e-05
4.73223e-05
-5.43819e-05
0.000134321
-0.000127261
9.732e-05
3.58369e-05
2.6845e-05
0.000103132
-2.47087e-05
0.000121827
-2.68238e-05
-9.91306e-05
-0.000743904
0.000909497
0.000522871
-2.22784e-05
-1.06507e-05
4.84734e-06
6.96964e-06
-0.000476609
4.78169e-05
0.000428792
6.78897e-05
-5.0191e-05
5.51163e-05
-7.28149e-05
9.68799e-05
-9.06907e-05
-0.000929017
-6.7989e-05
7.60704e-05
5.98083e-05
-0.000386749
-7.09218e-05
0.000528272
0.000135908
-0.000664181
-6.04803e-05
-4.18853e-05
5.91085e-05
-5.80546e-05
1.10147e-05
7.36405e-05
-1.21483e-05
-7.14593e-05
0.000127873
-0.00014815
5.61133e-05
-5.52052e-05
0.000139603
4.59863e-05
-2.33435e-05
-0.000113161
0.000127892
-3.94393e-05
0.000356702
-1.55644e-05
-1.50928e-05
0.000371794
5.3678e-05
0.000171041
-5.49668e-05
4.1578e-05
-5.08276e-05
-9.95357e-05
0.000484536
5.16634e-05
-3.79687e-05
0.000116637
-9.58478e-05
4.40814e-05
-0.000154643
-8.12217e-05
4.64832e-05
0.000112392
-0.000118502
-0.000108292
9.78068e-05
-8.17877e-05
0.000119761
-2.04967e-05
-0.000109915
-0.000142826
-6.36429e-05
4.28086e-05
-3.58015e-05
-2.35321e-05
1.65251e-05
0.000138798
-0.000130915
-0.000100517
7.29731e-05
2.47379e-05
5.72454e-05
-0.00110995
-7.40706e-06
-0.000913792
-0.000320501
-4.52233e-05
7.97572e-05
-5.92097e-05
0.000116917
-4.90632e-05
-6.97377e-05
6.87351e-05
-5.71235e-05
5.8126e-05
2.16197e-05
7.91886e-05
1.67739e-05
3.52978e-05
-0.000248423
0.000322723
0.000436534
-0.000510833
-7.87596e-05
7.04885e-06
8.27254e-05
-1.82104e-05
-0.00030007
0.000130891
4.01036e-06
-1.52745e-05
-1.93631e-05
-1.05547e-05
-0.000955823
-2.27184e-05
0.000987198
9.13631e-05
0.00014951
-7.7832e-05
-9.85016e-05
8.7558e-05
6.82957e-06
1.87808e-05
-2.56104e-05
0.000976144
-0.00102747
-5.75685e-05
1.70587e-05
4.29899e-05
6.5814e-05
-5.36511e-05
3.47542e-05
-5.6727e-05
-6.43065e-05
8.62793e-05
3.1794e-05
-6.88267e-05
-0.000329446
2.46481e-05
-9.85271e-06
-5.8972e-06
5.82226e-05
9.78846e-06
0.000144551
-0.000120179
1.03822e-05
0.000564743
-0.000291208
-5.10096e-06
-0.000130884
0.000147319
-1.13338e-05
-0.000105514
7.64725e-05
6.17561e-05
-0.000854106
6.2909e-05
0.000154116
7.36291e-05
-0.000165963
-7.93788e-05
-1.1529e-05
-0.000214648
-2.84692e-05
0.000243117
2.2868e-06
-3.58709e-05
1.18881e-05
0.000258819
-0.000353126
3.30509e-05
-2.67537e-05
-1.59138e-05
-2.10972e-05
-6.80523e-05
0.000144348
0.000115549
-0.000168617
0.000109946
2.09312e-05
0.000268307
-0.000988534
4.58023e-06
3.5773e-05
-0.000736416
1.99598e-05
1.40683e-05
7.09654e-05
0.000133685
0.000138154
-0.000241137
-3.07026e-05
1.55725e-05
9.36053e-05
-4.15145e-05
-4.79381e-05
0.0010866
2.25154e-05
7.74886e-05
-0.00104875
-3.78423e-05
0.000125826
-8.19702e-05
6.74466e-05
0.000630016
1.52783e-05
0.000251919
0.00124767
0.00108679
0.00017085
0.000207248
0.00108777
0.000105118
-4.1697e-06
-5.61813e-06
-3.48925e-05
-2.58884e-05
-8.82927e-05
-0.000915321
0.000119381
0.00015346
7.20903e-05
-8.75229e-05
-7.60557e-07
-3.47743e-05
-1.24033e-05
-8.27559e-05
0.000177061
7.71117e-05
-8.47778e-06
-3.45113e-05
4.84772e-05
-2.68218e-05
0.000206014
-0.000145427
-0.000138419
-4.90455e-05
4.17332e-05
-1.94415e-05
0.000833929
-0.000175666
-0.000639303
-1.89601e-05
-0.000746127
0.000687253
0.000327182
-5.88772e-05
3.57554e-05
-3.67166e-05
-8.26432e-05
0.000100153
-3.67461e-05
6.59133e-05
-0.000250369
0.000338171
0.000155217
-0.00097989
3.13521e-05
0.000644076
-0.000627611
-2.65915e-05
0.000338445
-0.000326946
6.92874e-05
5.85562e-05
5.7154e-05
7.97154e-05
-6.64417e-05
-0.00023259
7.99894e-05
0.000219042
0.000280803
-0.000224279
-0.000130627
-2.46255e-05
7.84519e-05
0.000201386
0.00031048
-0.000267396
-1.74442e-05
8.02058e-05
0.000818204
-0.000265351
0.000236642
-3.77326e-05
-1.20803e-05
-1.11317e-05
-0.000117836
-8.71553e-05
0.000137811
-0.00100178
0.00103442
-0.000279786
-1.79989e-05
-6.69175e-05
-8.81347e-06
-8.92278e-05
-3.25857e-05
-6.27011e-05
-2.34497e-05
-0.00096151
-0.000197746
-8.60661e-05
0.000116502
-0.000109331
0.000782186
6.19853e-05
0.00103409
-0.00100251
-8.7013e-05
0.000110012
-3.18124e-05
-3.52654e-06
8.8654e-05
0.000152803
2.41254e-05
-9.29073e-06
-0.000167638
-0.000306573
-2.38901e-05
-3.71123e-05
2.12522e-06
-3.71971e-05
-3.91479e-05
-7.47025e-05
9.00625e-05
0.000358965
7.95356e-05
0.000120127
-0.000105447
-7.07936e-05
-0.000189458
-8.38996e-05
9.60493e-05
-0.000167706
-2.77306e-05
0.000204811
-0.00016642
0.000988673
-0.00124132
0.000275158
0.000180239
-6.49765e-05
0.000718307
5.68019e-05
0.000943701
0.000279156
-0.000101498
-0.00112136
-5.5207e-05
-6.32161e-05
4.94288e-05
3.828e-05
-3.04844e-05
3.79168e-05
1.51737e-05
-2.26062e-05
8.97121e-05
1.03342e-05
7.72751e-06
-0.000107774
8.55505e-06
4.5443e-06
0.00132733
9.97557e-05
9.02008e-05
3.66689e-05
0.00132636
-2.85517e-05
-1.00663e-05
-1.19613e-05
0.000105673
-1.69885e-05
1.20865e-05
-0.00102606
8.1017e-05
9.57206e-05
-1.19542e-05
3.88723e-05
2.25107e-05
-0.000964782
-0.00115149
0.000730789
2.9494e-05
0.000200832
1.47459e-05
0.000106657
-0.000116874
-4.52939e-06
5.63283e-05
2.95434e-05
-2.27138e-05
0.000211465
-2.8526e-05
0.000259039
-9.33752e-06
0.000154765
1.83485e-05
-3.68755e-06
0.000103866
0.000139566
-4.09546e-05
-7.65516e-05
-1.69076e-05
5.43112e-05
2.62295e-06
4.97652e-05
-5.77457e-05
-1.58811e-05
4.22069e-05
2.05598e-05
-3.3798e-05
3.02088e-05
-0.000272433
-0.000102249
-4.85176e-05
-9.09607e-06
-9.11158e-05
4.28317e-05
0.000852867
0.000134554
-0.000216473
-0.000807365
0.000222976
-1.19868e-05
5.23579e-05
0.000447409
0.000405734
0.000157013
-2.43842e-05
0.00108357
-0.000483758
-2.52358e-05
-0.000100146
4.12828e-05
0.000143769
-5.38479e-05
-2.00689e-05
0.000175059
8.1991e-05
-3.26216e-05
-2.85118e-06
6.42834e-05
-0.000725383
0.000675248
5.01349e-05
5.40357e-05
-3.38864e-05
-7.05372e-05
-5.12493e-05
0.00028486
4.94912e-05
0.000882967
0.000145532
-0.000788115
6.27327e-05
5.41073e-05
0.00106155
-8.82482e-05
-0.000942907
0.00100844
-0.000319524
0.00054367
3.94481e-05
-0.000263594
-0.000101206
3.04034e-05
-2.47773e-05
5.85757e-05
0.000616672
3.10052e-05
-6.59422e-05
1.33257e-05
2.16113e-05
0.000140746
-8.57716e-05
8.35331e-05
-0.000138508
-0.000192589
4.27572e-05
0.000149832
3.40681e-05
3.06406e-05
0.000112242
-2.32665e-05
-2.08633e-05
-4.18378e-05
-0.000237133
4.45442e-05
-0.000281285
0.000316763
-0.000365798
-0.00027049
-0.000885012
-1.93507e-05
4.29123e-05
-3.94754e-05
-0.000226413
-1.81955e-05
-1.63959e-05
6.65076e-05
-7.81308e-05
4.99368e-05
0.000153179
-8.20282e-05
0.000382053
0.000523613
-9.61694e-05
-1.51224e-05
8.78421e-05
-0.000474608
0.000455894
1.87142e-05
8.33031e-05
-0.000871418
6.93661e-05
-0.000118565
0.000312329
7.73244e-05
-8.43379e-05
0.000850116
-0.000326488
0.000364782
-0.000394634
2.00973e-05
5.49654e-05
0.000114129
4.90208e-05
0.000877947
-0.00019557
0.000356757
-0.000956038
0.000654167
0.000630119
-0.00104959
-5.14103e-05
0.000568309
0.000394373
-0.000266251
-0.000620315
0.000581131
0.000515011
-0.000605631
0.000332921
0.000570933
-0.000263473
-0.000605219
-1.63885e-05
0.00058128
-0.000118674
1.80731e-05
-0.000630988
0.00075224
-0.000496982
2.23737e-05
-0.000177067
1.25477e-05
0.000362914
0.000534035
2.17165e-05
-3.40485e-05
-2.25606e-05
7.53989e-05
-3.28007e-05
0.000176444
-3.82727e-06
-1.9416e-05
0.000442497
1.33967e-05
-1.18296e-05
-2.70776e-05
8.4228e-06
9.78946e-05
-3.64229e-05
-4.19947e-05
-0.000158518
-0.000299826
0.000154349
-0.000119526
6.17135e-05
6.91773e-05
-0.000422288
-0.000242719
4.72088e-05
2.02417e-05
-0.000101361
-0.0005249
0.000112733
-0.000128741
4.03224e-06
-3.61637e-05
0.000113629
0.000136829
-3.93559e-05
-1.4299e-05
2.17729e-05
-0.000911426
0.000134676
-9.4042e-05
9.06005e-05
-0.000169673
0.00101344
-0.000958248
-4.14569e-05
-3.72316e-06
8.51801e-06
0.000195323
0.000221519
0.000355772
-0.00107591
2.9715e-05
6.21314e-05
3.1115e-05
3.96505e-05
2.23131e-05
-1.20269e-05
0.000918964
0.000136666
4.48015e-05
0.000140442
-1.47119e-05
-3.38057e-05
0.00021227
-1.53001e-05
-0.000980108
0.000650241
6.20903e-05
-0.000113916
7.38119e-05
8.69607e-05
-4.61247e-05
-8.58573e-05
1.70507e-05
0.0011087
7.12623e-05
-0.00107042
-0.000521753
0.000655867
2.81068e-05
-1.80545e-05
6.47002e-05
-0.0001055
0.000172204
0.000500715
-0.000723756
0.00022304
0.000433851
6.68641e-05
0.000445061
-1.12098e-05
-0.000307587
0.000463646
-0.000675413
-0.000599224
-0.000501285
-9.79391e-05
2.54575e-05
-4.97502e-05
-0.000131051
0.000150531
-0.000936669
-0.00012112
-8.28253e-05
2.96552e-05
5.02532e-05
2.33221e-05
4.27015e-05
-6.74608e-05
2.10137e-05
3.31815e-05
-2.70383e-05
-0.000104564
-0.000144669
0.000187589
4.45261e-05
7.59227e-06
-0.000185814
-5.33692e-05
0.000435356
0.000806795
-0.000115325
-8.58366e-05
-2.54245e-05
0.000101525
8.51299e-05
-0.000124523
-0.00022988
-0.000988439
0.000147151
-3.00762e-05
0.000216258
-0.000473903
-2.73824e-05
0.000265692
-0.000147068
-0.000598623
0.00013101
0.000134797
8.67976e-05
-5.09839e-05
4.092e-05
0.000157696
-9.26802e-05
3.10337e-05
9.69596e-05
-0.00114048
0.00102982
-5.16976e-05
3.64737e-05
-8.94554e-06
9.89997e-05
-0.000126528
-1.23729e-05
4.06215e-05
4.26295e-05
-0.000143973
-2.65564e-06
-7.77903e-06
8.23327e-05
-0.00117319
1.50937e-06
0.000677862
-0.000379854
0.000127174
-0.000113514
0.000121279
0.000188975
-8.03115e-05
-6.70323e-05
-3.56543e-05
1.68293e-05
-0.000116647
0.000115267
-0.000136767
5.31363e-05
-0.00018388
4.35771e-07
-0.000605494
-0.000369336
-8.20349e-05
-8.70234e-06
-9.98784e-05
-4.07497e-05
6.67698e-05
2.60397e-05
7.26874e-05
-7.77134e-05
0.000974319
0.000102551
8.15017e-05
-0.000316579
0.000149079
-0.000124661
-0.000149672
0.00012941
-0.000797176
0.00111568
4.24543e-05
-4.18793e-06
0.000119102
0.000148711
-0.000110509
-8.23829e-05
-4.43475e-06
0.00103634
5.68288e-05
1.33287e-05
-2.06339e-05
-2.33502e-05
0.000157388
-9.12829e-05
-0.000100231
9.63333e-05
-0.000838792
4.30221e-05
0.000616026
6.35517e-05
-6.77435e-05
8.47821e-05
0.00107975
7.17789e-05
7.96447e-06
8.67315e-05
-0.000372288
6.32534e-05
-0.000111327
-5.32248e-05
0.000262311
-1.99169e-06
-6.46708e-06
0.000132956
-3.44027e-06
0.000114925
0.000125946
-3.7201e-05
0.000142259
-7.58244e-06
-0.000165364
0.000153995
-0.00096091
0.00102636
-0.000248177
0.000182729
1.84161e-05
6.94066e-05
0.000135065
-4.19748e-05
1.82301e-05
-0.000245086
0.000487338
-0.000449466
-0.000178954
-0.000115141
-9.50443e-05
5.41682e-05
-4.86759e-05
3.49195e-06
-4.99242e-05
-0.00114103
-9.38177e-05
0.000139302
-0.000183377
-3.16597e-06
1.2648e-05
-0.0010636
0.000962817
1.71071e-05
-1.73119e-05
0.000987403
4.18497e-05
0.000555118
-0.000479087
-7.60315e-05
0.000122948
-3.37836e-05
0.000124596
5.66449e-05
-0.000100486
0.000102398
-0.000888064
0.00089683
2.24779e-05
-6.5222e-06
5.7988e-06
-1.68586e-05
1.10598e-05
-5.21508e-06
3.03766e-07
5.83715e-07
-5.74416e-05
4.0583e-05
-5.07983e-06
-8.0076e-06
0.000318004
-0.00105838
-9.1029e-06
1.48242e-05
-1.9064e-05
-3.04941e-06
0.000104904
-9.47934e-05
-7.16908e-06
-5.59003e-06
1.27591e-05
-6.73398e-06
2.91041e-05
-0.000103695
-2.26372e-06
-0.000310108
3.92872e-05
-2.63648e-05
-0.000599183
0.000437198
3.82517e-05
-4.9497e-05
-8.89154e-06
-2.11361e-07
3.81138e-05
5.65601e-05
0.000134275
0.00055514
8.70973e-06
6.86739e-05
1.23825e-05
0.000145357
-0.000128644
5.90501e-06
-3.18486e-05
-5.38601e-05
5.09344e-05
-4.95631e-07
-6.67345e-06
-7.25424e-06
-1.63731e-06
5.79908e-05
0.000128314
0.000109589
-9.81977e-05
4.35983e-06
-2.76313e-05
1.60895e-05
-0.000150754
8.87449e-05
0.000457441
-0.000247533
8.18498e-05
0.00018431
-0.000254499
4.44989e-06
-4.94552e-06
-0.000229475
-5.16053e-06
0.0010485
-1.3928e-05
-0.0010103
-0.00012631
4.07232e-05
0.000729663
-2.74544e-05
0.000421251
-0.000241939
-4.58396e-05
-3.35665e-05
-4.75305e-06
0.000276105
-3.84356e-05
5.17643e-05
-0.000240687
0.000298677
-3.04195e-05
0.000140008
0.00139347
-0.00112539
8.15802e-05
-0.000924123
-7.5731e-05
-1.65453e-05
-4.37046e-05
0.000161228
-4.3919e-05
0.000546825
-0.000717123
-0.000120803
9.22299e-05
-2.62929e-06
7.46524e-05
0.00034434
0.000302482
-8.15865e-05
-0.000883759
-8.85846e-05
-0.000149829
-0.000368021
0.000390212
-0.000162189
0.000587857
0.000926311
-0.000266501
4.09992e-05
-7.80284e-05
4.35709e-05
4.83559e-05
-8.19395e-05
0.000677087
5.94484e-06
6.24167e-05
0.000152422
-1.01636e-05
4.00789e-05
0.000158115
-1.26369e-05
-6.41821e-05
-0.000131879
-0.000112927
-1.46029e-05
0.000109531
-1.33228e-05
3.13582e-05
-3.71358e-06
0.000237002
2.70586e-05
1.02952e-05
9.31861e-05
0.00013759