/*--------------------------------*- C++ -*----------------------------------*\
| =========                 |                                                 |
| \\      /  F ield         | OpenFOAM: The Open Source CFD Toolbox           |
|  \\    /   O peration     | Version:  v1912                                 |
|   \\  /    A nd           | Website:  www.openfoam.com                      |
|    \\/     M anipulation  |                                                 |
\*---------------------------------------------------------------------------*/
FoamFile
{
    version     2.0;
    format      ascii;
    class       volScalarField;
    location    "0.89";
    object      k;
}
// * * * * * * * * * * * * * * * * * * * * * * * * * * * * * * * * * * * * * //

dimensions      [0 2 -2 0 0 0 0];


internalField   nonuniform List<scalar> 
1431
(
2.51196
2.76142
0.12396
0.0453233
0.26718
1.82798
0.0903924
6.43572
2.01539
0.0754989
2.11237
6.42463
2.41571
0.529239
0.682007
0.0855049
0.696503
0.350695
0.633224
0.506045
3.51468
0.896573
1.86526
7.37628
1.9166
1.56717
1.61421
0.474689
0.837504
0.522193
0.762086
1.03118
0.705161
0.31676
2.43428
0.582587
3.51049
0.0719153
0.049096
0.876451
2.39503
2.86512
2.0496
0.0665696
1.55073
0.28382
0.961728
1.42431
0.0951343
0.0632078
2.24282
0.076675
2.41446
6.55826
2.05366
1.41906
0.226924
6.87898
0.888589
0.47444
0.515625
0.0365705
0.0459735
0.0473967
0.0272407
0.0362369
0.306033
0.0687579
0.142929
0.513602
3.60159
0.352506
0.0269905
0.24741
0.479829
0.243528
0.185542
0.0878272
0.0453169
0.267836
0.719778
0.18277
4.89453
1.17758
3.53991
0.0615814
0.0362643
0.918581
4.81288
5.75461
0.78658
0.304293
0.153274
0.0829245
1.79905
0.531613
6.5896
5.5865
0.0629278
0.457661
1.91572
0.0522484
0.895154
0.291232
0.178294
1.05317
1.3105
1.98426
1.54417
0.889038
0.38352
2.72375
0.376877
2.18293
2.59369
0.254583
0.439765
0.0334807
0.0384612
0.042911
0.602183
0.84306
3.29017
0.477512
2.72239
0.0459753
0.139136
0.630806
0.171119
0.297551
0.612012
0.4162
0.308627
0.574489
0.715191
0.0802369
0.233952
0.0736857
5.18758
0.0755707
0.0587045
0.680676
0.787733
0.172404
2.00343
0.68694
0.0598334
2.18249
0.0761728
0.283246
0.0734318
0.179549
0.941357
0.0438937
1.27852
0.192882
4.32462
3.95409
5.60744
0.0487799
6.60729
2.73223
0.0487305
0.0410553
2.79312
2.25955
2.07467
2.31629
0.0686808
4.45616
6.44265
2.48896
0.800612
5.2308
3.36726
4.17793
0.123657
1.6744
2.41906
2.54154
0.0429984
0.10877
1.98946
9.82174
1.66393
1.19869
1.51672
4.05164
0.869234
4.05753
0.747707
0.928036
0.951677
2.36203
0.0352292
4.39968
5.58501
2.20502
0.130505
1.26351
2.33624
0.0486211
1.76925
0.0516514
2.56377
0.801724
1.08986
0.125683
5.84585
1.11737
2.0983
0.0456453
1.26821
1.07473
5.09604
0.645759
1.03267
2.25232
2.03233
1.61403
1.24213
1.93399
1.39019
0.0436158
1.35272
6.93118
2.10689
5.01821
1.16304
1.12384
4.69856
0.745175
1.03357
0.906198
1.07603
6.70436
1.21751
1.10717
0.721264
1.73455
0.165992
2.72063
6.31079
0.955706
0.910328
1.22869
1.04873
1.76209
1.31444
0.103215
0.492982
5.19888
0.0486867
0.06476
0.775444
2.58254
0.0510936
7.73387
6.59672
0.998559
0.880885
5.09162
2.02076
0.0626915
1.47361
2.00458
2.58167
3.18241
1.37045
0.189313
1.65743
1.15174
2.25715
1.2216
6.24059
0.769543
5.89402
1.1303
0.803332
1.02409
2.70622
3.36204
0.686245
1.87837
1.10204
5.82275
2.6203
6.14633
3.46265
2.8219
0.106496
2.45361
5.12942
2.46723
0.89149
1.13498
1.84555
1.36376
0.722382
0.878177
2.41416
0.373092
1.80078
2.15369
1.25309
0.0549772
3.37051
0.959386
3.05202
3.85172
4.52495
0.139422
0.0309681
1.17045
2.15708
5.3704
2.26917
1.56441
0.131314
10.2185
3.25703
4.94634
0.290325
2.15046
2.01979
0.0915371
0.342698
2.2578
6.32432
0.0627859
1.09847
0.176106
2.23457
1.03757
0.0746241
2.12429
2.31988
6.58865
1.94755
1.2058
0.229192
2.10994
3.56641
2.24155
2.00986
0.875818
2.40957
5.68938
3.86576
2.41106
1.70451
0.18944
2.18049
3.3332
0.275687
1.72503
4.11105
1.70532
4.67021
2.52572
0.998931
1.08354
0.975058
1.33159
0.151809
2.93926
2.0399
10.6479
1.16447
0.67927
1.98063
0.351726
5.29754
2.55116
2.22589
8.58271
3.63751
1.00814
1.26022
9.45045
2.9739
1.82322
1.32625
0.335711
11.6601
1.96889
2.60797
1.96906
1.918
2.53653
0.420988
2.66536
2.66791
0.0589863
6.83014
2.30748
2.91866
2.95122
2.05485
2.02701
3.4031
2.1792
6.06465
2.53255
1.04407
2.80867
1.79199
0.51775
0.669366
2.808
3.87258
2.17901
2.81214
2.19403
1.90966
0.250091
2.83166
0.628113
2.00417
2.82112
1.51943
2.43049
1.94049
3.05661
2.8364
0.418328
0.349454
0.952141
0.275307
6.39221
3.06065
3.18936
3.32617
3.34523
3.37034
3.25253
3.15342
3.28401
3.16233
3.26519
0.365763
5.24132
0.230335
0.159252
0.196405
0.143984
0.122701
0.122517
1.18599
0.876038
0.83664
0.0661321
0.0948621
0.358596
0.0960875
0.0931645
1.06083
7.0505
0.404329
0.226879
0.954418
0.0598957
6.7868
0.0871167
0.246919
0.0692397
0.32329
6.5856
0.0714426
6.35402
0.0761237
0.0740293
0.239558
1.28675
5.23441
5.05084
0.0852048
0.17515
0.133552
0.0853479
1.2237
0.147745
5.33484
0.404786
0.253395
1.20033
0.236748
0.210886
0.156009
0.430429
5.52538
0.208585
0.141039
0.558156
1.10678
0.239927
0.152143
5.51449
0.426352
0.89995
1.38235
0.939766
0.682317
0.605292
5.38573
5.22224
0.242062
0.776304
0.680303
0.494072
0.588645
1.19961
0.173955
0.175058
0.603696
0.0672731
1.28991
0.778498
1.38121
5.30424
1.39412
1.01757
1.06737
0.0615186
1.16195
0.0617319
5.15731
0.864945
0.404204
0.447205
2.66926
1.73955
1.71895
2.18702
3.17268
0.436625
1.24396
1.76127
1.26728
0.557245
2.83617
0.801906
2.30288
1.46647
1.50898
1.15976
2.30481
1.5722
2.88135
3.24861
2.58388
0.653851
2.13044
2.76661
0.0749138
1.76312
0.0583158
1.47424
1.61592
4.4134
3.29525
5.06556
5.20228
2.13288
6.95556
1.76067
1.70517
0.0415526
1.91367
2.48996
2.80558
3.3437
3.10504
1.19901
0.877992
1.92022
0.0669498
1.77065
2.79498
3.01092
2.80211
2.50147
1.61922
2.71282
3.00643
1.16222
0.88071
1.74473
1.11234
0.777422
2.32665
2.21869
2.16189
2.33397
1.42026
3.02507
1.06088
2.60145
4.6822
5.49487
1.74568
1.71527
2.7352
1.52683
2.36234
1.75052
1.35682
3.26501
0.31754
0.151278
0.0648959
1.834
2.65691
2.78329
1.93108
2.28633
3.50706
0.0534562
1.51628
2.54561
3.20628
2.8826
0.760529
2.69717
2.10857
1.74021
3.06705
0.39066
2.91823
1.5173
2.24479
2.03816
0.0301319
3.04734
2.80988
2.42967
6.25962
0.844491
1.86967
2.18064
2.04729
5.73459
0.227646
2.75713
1.96128
1.96429
2.04978
1.9832
3.31182
3.12646
1.81006
3.10507
1.54327
2.7633
0.219631
1.82069
1.95064
1.92398
0.915112
5.82408
6.87205
2.95827
1.94734
2.44059
1.60679
1.35789
0.635026
0.644667
2.25698
0.216274
2.84512
2.88935
2.34433
3.23478
1.6855
0.972641
2.40012
1.11819
1.582
1.58765
2.05233
1.63687
2.96729
2.35918
0.0513779
0.230797
2.39139
1.7943
0.349642
0.918432
2.22731
1.15624
2.20677
0.696577
0.319376
3.39999
2.26271
1.50033
0.18196
4.21662
1.67614
2.53171
2.80179
0.498567
1.7807
2.50961
1.36604
1.96599
2.56618
2.23478
2.01537
1.43558
0.993779
1.33596
0.182637
2.26857
2.03266
1.58791
0.678258
1.95604
2.40032
0.825351
5.04856
2.6476
0.654368
2.35115
1.61439
2.10723
1.96745
2.64572
0.106462
4.64949
1.7211
0.558524
2.89436
1.14845
2.13895
2.57463
2.38367
0.0558141
0.595069
2.01867
1.04509
1.65014
2.72193
1.71954
1.22423
0.337391
1.86035
0.0753705
1.38443
1.84627
1.32924
0.0759748
8.33256
1.78945
2.1621
0.22287
1.81132
0.823272
8.66351
2.92534
1.26398
0.0904423
0.279493
1.34599
0.0832125
0.0907685
2.71539
1.37491
1.81949
1.04566
1.66309
2.08456
2.09914
2.31965
0.0578561
1.65086
2.65725
0.849703
2.67721
0.271678
2.66269
0.0776887
1.15889
5.24841
1.6512
2.52061
0.83721
2.5394
2.00192
0.422098
1.09988
2.83911
1.03137
0.100949
0.0613206
0.975677
0.0637231
2.5238
0.909494
1.15342
0.446803
2.82083
2.78824
9.05819
1.02814
1.95707
1.70402
1.64271
9.53811
0.0813361
2.23682
4.74362
2.94762
7.40528
2.25932
0.362173
3.48243
1.94522
0.138129
1.92973
2.60954
3.0969
1.40666
0.608976
2.49748
0.671667
0.353317
0.227221
3.31501
2.8283
2.43295
0.868811
2.79656
6.51325
1.18426
3.53219
2.81232
1.57611
2.62999
0.348808
0.250898
1.08174
2.74312
6.64082
0.401682
7.90445
1.59235
6.38975
1.2303
0.675477
1.75959
1.6151
0.26781
0.0597543
0.556368
1.76597
0.178822
0.144873
1.66997
2.81866
1.88525
2.31972
2.71926
2.43116
2.65049
0.0885248
5.45976
2.47684
3.14368
7.71908
2.70068
1.2252
1.14955
0.467829
0.0914637
1.6743
2.244
1.8823
6.26597
0.0631488
1.91979
3.07915
7.64278
7.12202
5.69754
0.746459
0.752172
0.766999
0.756776
0.76012
0.835995
0.729076
0.552801
0.580521
0.564951
0.567393
0.637768
0.913529
0.573762
0.548098
0.571495
0.565793
0.706384
0.684359
0.554368
0.664139
0.656595
0.543179
0.650512
2.47069
5.23578
0.0581518
0.912077
1.71623
0.817154
0.565637
4.85006
1.11775
0.682066
0.707904
0.821158
1.08433
7.59685
1.07987
0.160232
5.90069
1.60889
2.77787
0.920047
0.0412711
7.89791
0.23247
0.635409
2.31196
2.65584
0.397386
0.831867
4.37867
0.78601
1.14135
2.42808
2.11974
2.1396
2.35538
4.94356
0.0824747
0.0587765
0.365788
0.0597256
2.67465
0.87269
0.521942
1.14615
2.46633
0.872308
1.10059
0.460953
0.990503
0.666862
4.48799
2.8719
2.58997
1.46764
0.261437
1.25287
0.0950809
0.606557
0.453517
0.0215333
2.52601
0.967757
2.44659
0.134551
0.939884
0.294245
2.16253
0.0886444
11.3307
2.70229
1.09211
0.221272
6.49202
2.69368
6.29579
0.0855369
0.233997
0.0558254
0.355867
0.134695
2.80954
1.01879
4.85543
5.64795
0.619307
2.69534
0.0583074
1.06619
0.973591
1.40931
0.915304
0.773689
1.48422
1.54304
2.57286
1.02059
3.16382
0.0627838
0.0757924
0.981127
1.39245
1.17207
0.261742
2.59882
2.86336
2.56321
0.385247
2.61424
2.61085
4.11807
5.2544
0.0844073
0.800455
0.520789
0.0428765
2.7719
7.33849
0.522345
1.85457
0.726974
6.45787
4.80304
0.277061
0.659389
1.12129
2.51695
3.03816
3.72216
3.02769
2.62706
0.0189926
2.37246
0.0197671
2.54991
2.27955
3.07846
3.50549
6.446
5.71427
2.49555
0.593572
2.55563
0.0478175
0.306121
0.0335394
0.0623104
0.0465245
2.64671
3.36156
1.96975
2.02414
3.19949
6.44351
0.0700143
0.200306
2.92556
3.08782
2.45221
3.19554
3.60135
2.94489
3.16966
0.614835
3.15837
3.05572
3.06497
3.05352
2.88343
2.71929
3.1875
2.58834
0.035774
0.0265576
0.0311168
0.0337577
0.0309496
0.0331539
2.58138
1.08666
3.31823
1.23731
2.58781
0.526339
0.0624633
2.3378
0.0674585
0.0982232
2.61365
0.119223
1.06461
1.44524
0.0261705
0.705994
0.276461
3.34741
2.83141
1.26183
2.33277
1.08498
0.803947
2.70411
10.2265
1.10982
0.342456
1.04204
3.48455
0.384457
2.01495
3.75948
0.326117
2.40567
0.0493193
0.52833
0.0621449
0.521433
1.11376
0.415699
0.0539892
1.00954
0.287434
0.14508
4.06773
3.23165
0.504619
0.856663
2.02771
2.3955
0.069421
3.4795
5.49901
0.910981
4.29244
1.07748
0.554975
1.48055
3.76176
0.0329102
2.59651
1.54901
2.09161
3.10628
0.526475
1.13483
0.389062
0.104811
2.88909
1.47719
2.74889
3.57717
2.1152
4.75069
5.24889
0.824064
2.54604
1.02656
0.0564962
0.235634
0.185015
0.884219
0.281466
6.13235
2.75528
0.446734
3.22017
2.57584
0.767558
3.12061
0.495006
1.50063
2.97144
1.29615
2.46549
0.0799668
1.62594
2.05928
3.49517
3.28021
2.43805
0.0509617
0.312992
0.866222
5.73595
5.32675
2.44076
2.8578
2.20428
0.0686782
7.73776
0.258927
1.40794
1.12978
0.774606
0.355955
2.90922
0.0678427
0.85657
1.21347
5.05784
0.513302
2.94203
1.67205
0.987537
0.0680569
0.214918
0.0349939
4.39008
0.936086
3.01898
3.95112
2.67118
2.63417
2.60253
0.749993
0.0538005
0.667852
0.437875
2.25887
3.16913
2.55252
11.4783
1.06725
0.708281
2.58542
4.90714
2.44566
0.0716727
1.46583
1.22977
1.67743
1.50508
2.02445
2.56458
2.0132
0.490345
2.56649
0.633826
0.0654547
2.29292
3.97943
2.659
3.51613
1.98717
1.62557
2.28226
2.63891
1.10487
0.487262
0.74777
0.697688
0.0670468
2.55928
6.55029
2.47392
2.57939
0.0659061
0.252169
0.848874
2.4598
0.673047
3.19215
2.77445
3.45028
4.5033
0.425806
2.64277
2.51133
2.69318
2.97523
1.41118
0.76684
0.525409
1.00743
0.732892
1.38261
0.849902
1.21984
7.53503
2.51915
0.257861
1.24018
2.80131
1.77582
0.835172
1.25954
0.476041
6.60436
1.19546
0.196009
0.0658168
10.3958
2.03061
2.91574
0.0783726
0.257406
3.42592
1.05196
5.78229
0.106568
0.0668793
0.242588
8.78405
0.02266
5.93569
5.75028
0.601058
1.53137
3.45962
6.05083
3.47796
2.74384
0.433168
0.258171
1.88072
0.979007
0.272678
4.71373
0.0335795
2.85392
2.41916
6.90294
0.533531
0.506805
0.0184221
3.87557
0.115683
1.09179
0.655207
6.35775
0.0987843
0.146753
0.651416
3.86325
1.27657
1.07061
0.310817
0.0695761
0.160618
5.20801
8.19098
0.0844676
2.13769
0.332177
0.0879561
0.709462
0.959166
0.564063
2.27501
0.0656344
0.758573
0.775182
0.995288
5.62947
0.972499
0.0373643
1.14508
0.851579
0.0683332
0.0727907
2.34045
0.803543
0.0593699
0.69552
0.792261
1.07298
0.0352118
0.0362172
5.41672
4.62635
1.39368
1.00955
0.0588574
0.168528
0.117731
1.19797
0.0788054
0.0872426
0.263328
0.291632
0.230054
0.0663884
6.16145
1.11502
0.69348
2.80732
1.58897
4.72955
2.44824
0.0685465
0.491998
1.13335
0.923078
3.28881
0.191057
0.682339
0.278792
0.628751
0.157163
0.646878
0.455262
1.09945
0.0726825
2.0689
2.68077
1.06175
1.46091
0.286895
1.12494
0.561802
0.815968
1.42878
0.282631
0.387174
0.918275
1.67117
0.228483
0.0343354
0.968532
1.08126
0.678887
0.22879
)
;

boundaryField
{
    frontAndBack
    {
        type            empty;
    }
    wallOuter
    {
        type            kqRWallFunction;
        value           nonuniform List<scalar> 
96
(
0.837504
0.522193
0.531613
2.34433
2.40012
2.35918
0.918432
0.696577
0.319376
2.26271
0.18196
1.67614
0.498567
2.50961
1.96599
2.57463
2.38367
0.595069
0.0578561
1.15889
0.100949
1.40666
0.608976
2.8283
2.43295
0.746459
0.752172
0.766999
0.756776
0.76012
0.835995
0.729076
0.552801
0.580521
0.564951
0.567393
0.637768
0.913529
0.573762
0.548098
0.571495
0.565793
0.706384
0.684359
0.554368
0.664139
0.656595
0.543179
0.650512
0.635409
0.87269
0.521942
0.606557
0.0215333
2.44659
0.619307
1.02059
0.800455
0.520789
0.522345
3.03816
0.0189926
0.0197671
3.07846
3.08782
3.19554
3.16966
0.614835
3.15837
3.05572
3.06497
3.05352
2.88343
2.71929
3.1875
2.58834
0.035774
0.0265576
0.0311168
0.0337577
0.0309496
0.0331539
0.526339
0.0261705
0.521433
0.526475
2.43805
0.0349939
3.16913
3.19215
0.76684
0.525409
0.02266
2.74384
2.41916
0.0184221
)
;
    }
    inlet
    {
        type            fixedValue;
        value           nonuniform 0();
    }
    outlet
    {
        type            zeroGradient;
    }
    wallInner
    {
        type            kqRWallFunction;
        value           nonuniform List<scalar> 
126
(
0.888589
0.47444
0.515625
0.0365705
0.0459735
0.0473967
0.0272407
0.0362369
0.306033
0.0687579
0.142929
0.513602
3.60159
0.352506
0.0269905
0.24741
0.479829
0.243528
0.185542
0.0878272
0.0453169
0.267836
0.719778
0.18277
0.457661
0.254583
0.439765
0.0334807
0.0384612
0.042911
0.602183
0.84306
3.29017
0.477512
2.72239
0.0459753
0.139136
0.612012
0.4162
0.0755707
0.0587045
0.787733
0.172404
0.0598334
0.283246
0.179549
0.0438937
2.79312
0.0429984
1.19869
1.51672
0.0352292
2.0983
0.189313
0.803332
1.02409
0.106496
1.84555
1.36376
0.878177
0.373092
0.139422
0.0309681
1.17045
0.0915371
0.342698
1.09847
1.2058
0.229192
1.70532
1.08354
0.975058
0.51775
0.628113
0.605292
0.603696
0.447205
1.76127
0.801906
1.5722
0.653851
1.61592
0.877992
1.77065
1.11234
2.21869
1.74568
0.760529
0.0301319
1.96128
1.54327
1.7807
1.36604
0.823272
1.2252
1.6743
0.666862
2.1152
0.533531
0.506805
1.13335
0.923078
0.191057
0.278792
0.628751
0.157163
0.455262
0.0726825
2.0689
2.68077
1.06175
1.46091
0.286895
0.561802
0.815968
1.42878
0.282631
0.387174
0.918275
1.67117
0.228483
0.0343354
0.968532
1.08126
0.678887
0.22879
)
;
    }
    procBoundary3to1
    {
        type            processor;
        value           nonuniform List<scalar> 
48
(
3.50167
2.2142
2.46883
3.26429
1.53498
2.00936
2.2142
1.00023
3.20346
0.291689
0.291689
0.303219
0.303219
0.217596
0.216836
0.275351
0.221771
0.223687
0.221771
0.193241
0.144447
0.137735
0.193241
1.12242
0.243788
0.162841
0.207971
0.137735
0.335563
0.423198
0.423198
0.660046
0.660046
3.20346
0.157904
1.37666
1.49534
0.243788
3.59976
1.3129
0.217596
2.14388
2.66197
0.193241
0.225215
0.904963
1.48812
0.165114
)
;
    }
    procBoundary3to2
    {
        type            processor;
        value           nonuniform List<scalar> 
29
(
0.0851857
0.0851857
0.0408492
0.0427532
0.360023
0.0911561
0.0255258
0.0965352
0.0988364
0.0835512
0.0999387
0.337238
0.0706934
0.0636127
0.0656141
0.0493734
0.0949521
0.100371
0.090945
0.0693108
0.0688269
0.0949521
0.0372607
0.100371
0.0569081
0.0715
0.100371
0.271746
0.271746
)
;
    }
}


// ************************************************************************* //
