/*--------------------------------*- C++ -*----------------------------------*\
| =========                 |                                                 |
| \\      /  F ield         | OpenFOAM: The Open Source CFD Toolbox           |
|  \\    /   O peration     | Version:  v1912                                 |
|   \\  /    A nd           | Website:  www.openfoam.com                      |
|    \\/     M anipulation  |                                                 |
\*---------------------------------------------------------------------------*/
FoamFile
{
    version     2.0;
    format      ascii;
    class       volScalarField;
    location    "0.89";
    object      nut;
}
// * * * * * * * * * * * * * * * * * * * * * * * * * * * * * * * * * * * * * //

dimensions      [0 2 -1 0 0 0 0];


internalField   nonuniform List<scalar> 
1431
(
0.00495672
0.0163751
0.0007231
0.000720177
0.00128366
0.0077131
0.00168426
0.0101499
0.00687037
0.00124816
0.00367727
0.0136307
0.0128974
0.00211243
0.00166416
0.00166673
0.00183234
0.00104942
0.00175148
0.00145251
0.004847
0.00493348
0.00548691
0.0156333
0.00575001
0.00910156
0.003269
0.00155899
0.00090522
0.00074499
0.00211536
0.0026219
0.00200152
0.00120673
0.0118647
0.00402331
0.0125008
0.00087534
0.000813306
0.00234698
0.00633459
0.00873714
0.0110802
0.00138183
0.0035241
0.00150577
0.00308575
0.00308691
0.00185959
0.000911737
0.0137802
0.00157474
0.013882
0.0127195
0.0131201
0.00757105
0.000799112
0.0141982
0.00168528
0.00121449
0.00148335
0.00037117
0.000370278
0.000421765
0.000229687
0.000254089
0.000973305
0.000461947
0.000649574
0.0011518
0.00372289
0.0011159
0.000277394
0.000827326
0.00138952
0.000788908
0.000717326
0.000509806
0.000428874
0.000952653
0.00160586
0.000708281
0.0135763
0.00365681
0.00689429
0.00118596
0.00044313
0.00289102
0.0107676
0.0137361
0.00149317
0.00125633
0.001937
0.00166911
0.0111667
0.000704386
0.0125574
0.0228673
0.00122541
0.00125458
0.0103772
0.00086446
0.00244047
0.00110238
0.000848046
0.00255951
0.00310361
0.00302142
0.00429179
0.00211029
0.00120842
0.0138955
0.00327106
0.00517244
0.0153413
0.00105181
0.00130835
0.000344121
0.000318948
0.000328997
0.0012056
0.00166931
0.00251743
0.00116247
0.00260133
0.000374538
0.000713277
0.0024383
0.00088951
0.00311623
0.00122102
0.00100521
0.00337354
0.00138415
0.0016837
0.00105949
0.00172864
0.00134168
0.0145315
0.000426751
0.000436326
0.0020445
0.0014057
0.000613913
0.00544907
0.00189207
0.000414938
0.0123919
0.00134574
0.000944995
0.000937821
0.00082767
0.00249476
0.000362429
0.00349694
0.00248369
0.0106101
0.0202592
0.0142546
0.000929992
0.0203285
0.0139173
0.000717814
0.000654796
0.0027629
0.00466161
0.00430567
0.0131004
0.00105343
0.0207969
0.0191644
0.01392
0.00226187
0.0144348
0.0185366
0.00995205
0.00176644
0.00543323
0.014121
0.0128999
0.000292995
0.00172959
0.0123881
0.0182102
0.00578803
0.00133651
0.00149848
0.0205595
0.00256381
0.00770897
0.00240169
0.00261466
0.00272994
0.00330413
0.000305965
0.0208425
0.0234152
0.0115748
0.000674257
0.00188219
0.014529
0.00078201
0.00363796
0.000642254
0.0138373
0.00253345
0.00251436
0.000544419
0.0155303
0.00285388
0.0020869
0.000533641
0.00310207
0.0025676
0.0127872
0.00143533
0.00291043
0.0119131
0.0129393
0.00347376
0.00330625
0.0120132
0.00240796
0.000715298
0.0036355
0.0169724
0.00393822
0.0219154
0.00288438
0.00273473
0.00637439
0.00211354
0.00258482
0.00263054
0.00276107
0.0208798
0.00310695
0.00282417
0.00230182
0.0112327
0.00219601
0.0160297
0.0162313
0.00269758
0.00263051
0.00359747
0.00284064
0.00345778
0.00349034
0.00142464
0.00224591
0.0151464
0.0009686
0.00156312
0.00249046
0.00848591
0.00105986
0.0175754
0.02315
0.00279259
0.00166574
0.0141429
0.0127276
0.000987795
0.00386514
0.00404079
0.0108618
0.00395344
0.00303752
0.000554735
0.00454606
0.00308078
0.0142196
0.00818189
0.0188956
0.00208395
0.0177735
0.00291142
0.00105563
0.00154273
0.0146354
0.0130062
0.00188947
0.0120206
0.00836536
0.0209269
0.00828842
0.023415
0.00598287
0.0167103
0.000459754
0.009398
0.022833
0.0140076
0.00246247
0.00263395
0.00178975
0.00149884
0.00202257
0.00110094
0.0136209
0.000901059
0.0120207
0.0129565
0.00284416
0.00118606
0.0186383
0.00262022
0.00985631
0.0193607
0.0195138
0.000589517
0.00028612
0.0012783
0.00818276
0.0229882
0.0118505
0.010817
0.000996897
0.0127704
0.0182493
0.022155
0.00088965
0.0119128
0.00945797
0.000511318
0.000884432
0.00763165
0.0122796
0.00143059
0.00121703
0.00116679
0.00771784
0.00547186
0.00130364
0.0126652
0.00820279
0.0212602
0.00872096
0.00130027
0.000720908
0.0123054
0.0149991
0.00583306
0.00727554
0.00247896
0.0148948
0.0170204
0.0178107
0.0138204
0.00631432
0.0009404
0.0121083
0.0179972
0.00122096
0.0105682
0.00853425
0.0018911
0.0129469
0.00739738
0.00523451
0.00133802
0.00114724
0.00952026
0.0011118
0.00539478
0.00646196
0.0175387
0.00268196
0.00207582
0.00351978
0.00169447
0.0121652
0.0154616
0.00618834
0.0185954
0.0191703
0.0053192
0.0093503
0.0185423
0.0144139
0.00755989
0.00594827
0.00128048
0.0162535
0.00779502
0.0145821
0.00685563
0.00942361
0.0152821
0.00404185
0.0144154
0.0143579
0.0013154
0.0225568
0.0130319
0.013579
0.0133551
0.00610159
0.00904167
0.0175188
0.00636958
0.0233722
0.00858861
0.0068823
0.013117
0.00719883
0.000855491
0.00580712
0.0133417
0.019155
0.0108328
0.0135819
0.0123119
0.0068062
0.000894645
0.015811
0.000931512
0.00923628
0.0138237
0.0038074
0.0129441
0.0124815
0.0168375
0.0140864
0.0016881
0.0014547
0.00299168
0.0026659
0.0147338
0.013945
0.0139249
0.013999
0.0139682
0.0140961
0.0140841
0.0141388
0.0139561
0.0142372
0.0141664
0.00149875
0.0150167
0.00118029
0.000937704
0.00096237
0.000924981
0.00102669
0.000989124
0.0039836
0.00444409
0.00390636
0.000899345
0.00195217
0.00137547
0.0019582
0.00191437
0.00530834
0.016983
0.00140584
0.0012703
0.00491637
0.000689701
0.0163972
0.00180316
0.00158889
0.000773712
0.00130149
0.0158344
0.000870267
0.0151864
0.00160639
0.00158131
0.00109816
0.00564993
0.0147035
0.0147389
0.00104109
0.00163292
0.00110208
0.00174378
0.00570485
0.00108534
0.0148297
0.0038834
0.00117876
0.00530938
0.00119686
0.00112155
0.000938784
0.00385262
0.0146109
0.00275216
0.000928042
0.00537916
0.00409135
0.0013537
0.00119538
0.0140388
0.00421594
0.0021391
0.00741268
0.00667506
0.00174978
0.000923341
0.0137545
0.0152341
0.00132119
0.00621827
0.00539621
0.00164568
0.00547359
0.00409929
0.0011516
0.00162767
0.000820127
0.00170127
0.00759161
0.00672442
0.00433606
0.0149418
0.0036242
0.00723688
0.00294421
0.00139053
0.00841345
0.00146835
0.0129866
0.00231578
0.00152017
0.000787147
0.0160487
0.0104685
0.0106625
0.00515469
0.0136919
0.00443758
0.0056512
0.00171034
0.00923371
0.00164344
0.0140735
0.0012959
0.00549991
0.00949939
0.00360132
0.00536017
0.0143493
0.00155355
0.0138249
0.0132143
0.0146869
0.00103106
0.00647375
0.0138739
0.00104917
0.00334228
0.00133803
0.00760644
0.00160609
0.00559774
0.0133277
0.0135141
0.0210671
0.01203
0.00819762
0.00775157
0.010182
0.000673508
0.0113825
0.00883723
0.0146932
0.0111002
0.0143918
0.00840784
0.00114359
0.00951431
0.00166281
0.00170976
0.0140296
0.0137822
0.0145399
0.00865409
0.00398011
0.0147178
0.0159889
0.0033164
0.0025704
0.0111122
0.00132045
0.00259219
0.0131625
0.00173952
0.0131932
0.0145008
0.00373396
0.0138759
0.00426115
0.0144753
0.0220013
0.01493
0.00166002
0.0111098
0.0129453
0.00880939
0.0113749
0.00694536
0.00169774
0.0159694
0.00236558
0.00099347
0.00158683
0.009854
0.0142501
0.0141471
0.00479045
0.00789984
0.00508076
0.000989912
0.0103928
0.0131341
0.0174782
0.0168912
0.00106127
0.0138352
0.0123156
0.00637444
0.0134367
0.00183465
0.0131961
0.0089798
0.0132726
0.0117829
0.000244872
0.0145156
0.0147923
0.0127933
0.011247
0.00670429
0.00424962
0.0136918
0.0058144
0.0223687
0.0025812
0.0132546
0.00176856
0.0118595
0.0101325
0.00959639
0.00423972
0.0176525
0.0111706
0.0110296
0.00154125
0.0141889
0.00132099
0.00797388
0.00635506
0.00700988
0.0077324
0.0160904
0.0218831
0.0130497
0.0112427
0.0139132
0.00804642
0.00373663
0.00206096
0.00588022
0.013111
0.000907065
0.0143617
0.01491
0.00173187
0.0143633
0.0109188
0.0030139
0.00175721
0.00583917
0.00440578
0.010692
0.0131604
0.0103383
0.0169139
0.00172645
0.000505501
0.000939556
0.0133683
0.0047334
0.00156387
0.00103172
0.00453793
0.00276303
0.00533178
0.000902503
0.00058531
0.0137364
0.00156963
0.00400188
0.000421462
0.0154805
0.00133742
0.0138202
0.0143694
0.000756477
0.00183895
0.00182153
0.001432
0.00145012
0.0155786
0.00976798
0.00575765
0.00660591
0.00265851
0.00348053
0.0011893
0.00517656
0.0117043
0.0031031
0.00498134
0.00474257
0.00575886
0.00254917
0.0145476
0.0144645
0.00247554
0.00949038
0.0032563
0.0113852
0.00314815
0.00401524
0.0011939
0.0189497
0.0110513
0.0046749
0.00582132
0.00294447
0.00535807
0.00170434
0.00170726
0.00122877
0.000808456
0.00667726
0.00757227
0.00427481
0.0135195
0.00675814
0.00482331
0.00128196
0.00469835
0.00147366
0.00947953
0.0116161
0.00912078
0.00156284
0.0160373
0.00464512
0.00720345
0.000911136
0.00691403
0.00107116
0.0178638
0.00565226
0.00335602
0.00178516
0.0012879
0.00312004
0.00173522
0.00183615
0.012627
0.00859463
0.00954088
0.00257378
0.00416255
0.00564546
0.00638443
0.0142787
0.000247204
0.00727735
0.0110021
0.00232304
0.0150188
0.00156434
0.0146141
0.00101925
0.00115177
0.0145645
0.00578296
0.0147309
0.00239077
0.0150812
0.00520137
0.00139457
0.00264875
0.0120797
0.00262073
0.00030702
0.00134911
0.00241055
0.00149572
0.0138647
0.00246063
0.00569228
0.00155764
0.0136151
0.0138019
0.0107096
0.00269296
0.00806444
0.0074467
0.00553645
0.0160772
0.00100486
0.0139428
0.0119642
0.0108111
0.0175707
0.012904
0.00160743
0.0133539
0.00525313
0.0009265
0.0040646
0.0144976
0.0141384
0.00124675
0.000820267
0.00869598
0.00203843
0.00170051
0.00278873
0.013611
0.00182026
0.00163719
0.00242451
0.0164639
0.0133065
0.00269807
0.0137623
0.0142274
0.010401
0.0142987
0.00395875
0.0026406
0.002551
0.0143852
0.0201282
0.0026062
0.0171577
0.00709328
0.0218019
0.00295577
0.00205528
0.0114381
0.00936618
0.000962555
0.000489193
0.00493801
0.00502932
0.000873042
0.000944781
0.00980036
0.0161728
0.00574704
0.0144635
0.0140234
0.010315
0.0139734
0.00137115
0.0160903
0.0110842
0.0144882
0.00958439
0.0109267
0.00122338
0.00360847
0.00144309
0.00162963
0.00208888
0.00956307
0.00358565
0.0144408
0.0011955
0.00418374
0.00443595
0.010826
0.0153007
0.00758708
0.0007977
0.000900343
0.00086211
0.000746627
0.00079505
0.000914817
0.000889642
0.000620464
0.000745988
0.000665423
0.000671772
0.000689402
0.000999808
0.000755639
0.000655098
0.000651564
0.000791916
0.000840242
0.000794135
0.000784725
0.000757519
0.000762882
0.00075462
0.000787917
0.0135537
0.0173472
0.000739767
0.0073353
0.00660805
0.00444161
0.00245841
0.00925018
0.00244436
0.00209373
0.00355672
0.00171253
0.00730133
0.0164949
0.0044616
0.00129287
0.0194836
0.00436533
0.0142041
0.00351414
0.000509983
0.0181502
0.00110279
0.000797264
0.0112997
0.0155812
0.001767
0.00532735
0.0115604
0.001654
0.00435093
0.0131933
0.00671864
0.0118947
0.0136447
0.0129792
0.000927945
0.00118249
0.00168998
0.00131364
0.0147267
0.00100211
0.000750076
0.00829109
0.0144459
0.00696678
0.00433103
0.00144074
0.00607462
0.000908053
0.0112176
0.0141478
0.0144876
0.00208261
0.00113979
0.00502256
0.00158372
0.000730085
0.00201571
0.000164198
0.0140652
0.00255792
0.00145535
0.000931211
0.00315571
0.00107023
0.0125959
0.00179229
0.0142692
0.0123377
0.00284524
0.00222881
0.0113904
0.0119101
0.0213316
0.00179117
0.00241596
0.00117755
0.00193331
0.000904262
0.014604
0.00260153
0.00589163
0.013772
0.000764372
0.0120754
0.00126222
0.00235675
0.00473049
0.00362642
0.00249306
0.00265157
0.00382646
0.00341662
0.0131693
0.00109177
0.0106792
0.00133115
0.00106229
0.00407083
0.00267624
0.00200274
0.000864165
0.013205
0.0168049
0.0148618
0.000928878
0.0140908
0.0151484
0.00863984
0.00620249
0.00134859
0.000808865
0.000710615
0.000673435
0.012123
0.0149916
0.000749747
0.00680804
0.00208953
0.0201923
0.0131645
0.00275839
0.00317928
0.00285726
0.0131404
0.0019061
0.00709999
0.0109452
0.0149779
0.000151601
0.00407657
0.000152253
0.00963962
0.0141716
0.00214711
0.0126799
0.0124887
0.0163829
0.00941207
0.00414892
0.0118823
0.00074345
0.00298679
0.000352884
0.00124798
0.000770289
0.0138515
0.0124151
0.00845121
0.0120044
0.0122901
0.0197442
0.000570582
0.00089111
0.0144495
0.00203664
0.0107023
0.00229896
0.0135526
0.0141909
0.001999
0.000770507
0.00187979
0.00176228
0.00171587
0.00228063
0.00201481
0.00191769
0.00185712
0.00193328
0.000209838
0.000160402
0.000155289
0.00018643
0.000136711
0.000162451
0.014053
0.00277973
0.0133475
0.00271497
0.00970425
0.000739783
0.00141467
0.012626
0.000987532
0.00197651
0.0142853
0.00205683
0.00306583
0.00725461
0.000183456
0.00217153
0.00163813
0.0112505
0.0134861
0.00327005
0.0107114
0.00285708
0.0050956
0.0155203
0.0146268
0.0032064
0.00131111
0.00330104
0.016511
0.00410257
0.0128967
0.00768944
0.00268983
0.00950399
0.000725859
0.00227397
0.00141501
0.000666852
0.0045487
0.00142313
0.00091886
0.00366476
0.00128254
0.000844288
0.0178086
0.011447
0.00281303
0.00403546
0.0122588
0.00313727
0.00101
0.00642072
0.0110313
0.00701151
0.00835159
0.00318505
0.00148666
0.00440102
0.00774482
0.000367491
0.0127567
0.00367982
0.00358343
0.0119614
0.000694735
0.00271267
0.00216139
0.00184017
0.0106919
0.00674563
0.0148175
0.00769628
0.00193129
0.00987669
0.020052
0.00241807
0.0154735
0.00166387
0.000657822
0.00109979
0.00112521
0.00268906
0.00110363
0.014817
0.0142413
0.00389468
0.00600879
0.0143248
0.00404126
0.0126356
0.00307759
0.00391198
0.00537596
0.00296436
0.011652
0.000788072
0.00379648
0.00614209
0.00562194
0.0125422
0.00142972
0.000870718
0.00143211
0.00282484
0.0100558
0.0141256
0.00536814
0.011323
0.00793794
0.00179274
0.0169329
0.00133852
0.00418718
0.0050914
0.00237372
0.00134222
0.0111383
0.00169281
0.00124036
0.00304606
0.0115463
0.00258324
0.0140456
0.00842123
0.00514065
0.00171241
0.000968921
0.00020823
0.0128537
0.00322772
0.0126087
0.00885284
0.0128123
0.0138321
0.0145638
0.00190848
0.00112827
0.00179483
0.00139493
0.0101256
0.00196259
0.0140572
0.0182754
0.00242162
0.0046052
0.0144665
0.0124235
0.0133164
0.00122369
0.00946896
0.00464556
0.00220227
0.00701634
0.00444815
0.00492999
0.0057934
0.00181996
0.015593
0.00359708
0.00157528
0.0113385
0.00663794
0.00976084
0.00499597
0.00753746
0.0103218
0.0114163
0.0136365
0.0040653
0.00147448
0.00376457
0.00389177
0.00164315
0.01436
0.0088581
0.0132132
0.0139172
0.000662356
0.00116884
0.0024016
0.0133972
0.00178969
0.00194769
0.011176
0.0138053
0.0122073
0.00216003
0.0142242
0.0114959
0.0147932
0.00549393
0.00349229
0.000741879
0.000666197
0.00155779
0.00264459
0.00229671
0.00255667
0.00341588
0.0159655
0.0142008
0.00105862
0.00513673
0.0127674
0.00338664
0.00242583
0.00292796
0.00160685
0.0138703
0.00667922
0.00105838
0.000627609
0.0178482
0.00930497
0.0123337
0.000818559
0.00159065
0.00410659
0.00596834
0.010537
0.00117578
0.0012583
0.00206909
0.0170934
0.000157509
0.0081518
0.0141256
0.00510072
0.00387439
0.00613697
0.0114907
0.0131209
0.00195191
0.00326857
0.00087407
0.00843981
0.0016936
0.00155945
0.0116546
0.00039524
0.010473
0.00110965
0.0121347
0.000902786
0.000876794
0.000148875
0.00736326
0.00172567
0.00288549
0.0015456
0.01314
0.0019011
0.00156608
0.00457655
0.0120477
0.00232385
0.00247354
0.00197991
0.00176944
0.0018867
0.0109826
0.0172129
0.00141666
0.00985786
0.00192462
0.000945116
0.0016778
0.00247563
0.00258211
0.00946069
0.00159306
0.00191122
0.00209
0.00250937
0.013016
0.0024556
0.000346661
0.00263409
0.00239787
0.00174492
0.00142475
0.0095703
0.00414044
0.00118724
0.0020509
0.00231355
0.00312571
0.000348689
0.000269322
0.0120135
0.0100526
0.00228809
0.00428746
0.00125309
0.000959955
0.000942804
0.0030575
0.000710517
0.000731613
0.00113428
0.00111584
0.000935227
0.00159435
0.0178784
0.00238929
0.00210939
0.0142052
0.00331419
0.0116086
0.0128233
0.00171819
0.00267414
0.00125539
0.00118761
0.00489155
0.000759592
0.00347149
0.000701156
0.00103511
0.00054696
0.00163463
0.000966214
0.00553207
0.000311666
0.00239394
0.00281522
0.00174698
0.00187288
0.000719875
0.00127497
0.000921247
0.00116755
0.00159325
0.000651336
0.000807297
0.00166577
0.0017627
0.000692976
0.000265925
0.00138854
0.00172268
0.00119862
0.000676363
)
;

boundaryField
{
    frontAndBack
    {
        type            empty;
    }
    wallOuter
    {
        type            nutkWallFunction;
        Cmu             0.09;
        kappa           0.41;
        E               9.8;
        value           nonuniform List<scalar> 
96
(
0.000107938
8.93805e-05
8.46942e-05
0.000197743
0.00020041
0.000197169
0.000121185
0.000106575
6.99687e-05
0.000180097
5.01905e-05
0.000155045
8.98456e-05
0.000207163
0.000167264
0.000194429
0.000195137
9.67955e-05
2.88355e-05
0.000134589
3.61185e-05
0.000145102
9.81593e-05
0.000206667
0.000187705
9.54725e-05
0.000107354
0.000103017
8.97668e-05
9.53486e-05
0.000108818
0.000106134
7.48999e-05
8.95905e-05
8.02004e-05
8.0934e-05
8.2934e-05
0.000118387
9.0679e-05
7.89108e-05
7.84983e-05
9.4845e-05
0.000100503
9.52148e-05
9.40055e-05
9.09897e-05
9.16051e-05
9.05258e-05
9.44855e-05
9.55506e-05
0.000118857
8.99723e-05
8.77811e-05
1.81036e-05
0.000168275
9.17573e-05
0.000128643
9.69497e-05
8.53907e-05
8.99386e-05
0.000215681
1.61888e-05
1.60024e-05
0.000240991
0.000229439
0.000256499
0.000225511
9.24538e-05
0.000213
0.000200701
0.000195826
0.00025464
0.000227232
0.000217139
0.000210693
0.000218786
2.40322e-05
1.7081e-05
1.63809e-05
2.08045e-05
1.37845e-05
1.74201e-05
8.87923e-05
2.08971e-05
8.03069e-05
8.3565e-05
0.000165483
2.4204e-05
0.000221595
0.000220065
8.92229e-05
8.02108e-05
1.66778e-05
0.000220777
0.000130595
1.56542e-05
)
;
    }
    inlet
    {
        type            calculated;
        value           nonuniform 0();
    }
    outlet
    {
        type            calculated;
        value           nonuniform List<scalar> 9(0.0175387 0.0162535 0.00169774 0.0160373 0.0107096 0.00620249 0.00214711 0.00313727 0.0110313);
    }
    wallInner
    {
        type            nutkWallFunction;
        Cmu             0.09;
        kappa           0.41;
        E               9.8;
        value           nonuniform List<scalar> 
126
(
0.000192776
0.000141308
0.000170486
4.50003e-05
4.48639e-05
5.11514e-05
2.63136e-05
3.02554e-05
0.000114745
5.60991e-05
7.85955e-05
0.000135706
0.000398889
0.00013168
3.3214e-05
9.9118e-05
0.000161753
9.4338e-05
8.51375e-05
6.26918e-05
5.25124e-05
0.000113834
0.000184431
8.57075e-05
0.000147337
0.00012405
0.000152875
4.18751e-05
3.88827e-05
3.9491e-05
0.000141518
0.000190558
0.000279082
0.000136922
0.000287264
4.40704e-05
8.41582e-05
0.000142977
0.000119472
5.22948e-05
5.30663e-05
0.000162957
7.40495e-05
5.06351e-05
0.000111269
9.92435e-05
4.44295e-05
0.00030385
3.52501e-05
0.000155722
0.000173011
3.71883e-05
0.000235035
6.71634e-05
0.000124744
0.000177942
5.58269e-05
0.000203963
0.00017324
0.000129772
0.000108925
6.90922e-05
3.41188e-05
0.000149187
6.17977e-05
0.000106064
0.000142543
0.000151566
8.80279e-05
0.000214321
0.000155888
0.000134882
0.00010213
0.000110904
0.00011095
9.93954e-05
9.4144e-05
0.000195516
0.000152156
0.000178895
0.000122945
0.000184456
0.000135399
0.000195412
0.000154907
0.000198799
0.000190326
0.000126245
2.83622e-05
0.000201834
0.000177446
0.000209208
0.000165684
0.000126736
0.000143011
0.000235236
0.000108929
0.000218514
0.000107795
0.000104632
0.000146589
0.000139207
9.26397e-05
8.68087e-05
0.000124064
6.68975e-05
0.000114416
3.67541e-05
0.000266809
0.000309134
0.00019991
0.00021259
8.65832e-05
0.000109801
0.00013729
0.000182945
7.85702e-05
9.68441e-05
0.000191042
0.000201252
8.26454e-05
3.12694e-05
0.000161042
0.000196342
0.000140121
8.14745e-05
)
;
    }
    procBoundary3to1
    {
        type            processor;
        value           nonuniform List<scalar> 
48
(
0.0121058
0.00498375
0.0065787
0.0105245
0.00372057
0.00373432
0.00498375
0.00807191
0.0137371
0.00130325
0.00130325
0.00131661
0.00131661
0.00132233
0.00177205
0.00125013
0.00116176
0.00111574
0.00116176
0.00124277
0.00100053
0.00104492
0.00124277
0.00231136
0.00124201
0.00106089
0.0021301
0.00104492
0.00361049
0.00114812
0.00114812
0.006167
0.006167
0.0137371
0.00121014
0.0030549
0.0101726
0.00124201
0.013303
0.00326589
0.00132233
0.0120949
0.0131845
0.00124277
0.00189423
0.00107203
0.00373476
0.00113779
)
;
    }
    procBoundary3to2
    {
        type            processor;
        value           nonuniform List<scalar> 
29
(
0.0011229
0.0011229
0.000299492
0.000314964
0.00085213
0.00044921
0.000238473
0.0011058
0.00183429
0.00129712
0.000778598
0.00110324
0.000729514
0.00150358
0.00162592
0.000985301
0.00187452
0.00204994
0.00127169
0.00180781
0.00181579
0.00187452
0.000221004
0.00204994
0.00104954
0.00112436
0.00204994
0.00154134
0.00154134
)
;
    }
}


// ************************************************************************* //
