/*--------------------------------*- C++ -*----------------------------------*\
| =========                 |                                                 |
| \\      /  F ield         | OpenFOAM: The Open Source CFD Toolbox           |
|  \\    /   O peration     | Version:  v1912                                 |
|   \\  /    A nd           | Website:  www.openfoam.com                      |
|    \\/     M anipulation  |                                                 |
\*---------------------------------------------------------------------------*/
FoamFile
{
    version     2.0;
    format      ascii;
    class       volScalarField;
    location    "0.37";
    object      k;
}
// * * * * * * * * * * * * * * * * * * * * * * * * * * * * * * * * * * * * * //

dimensions      [0 2 -2 0 0 0 0];


internalField   nonuniform List<scalar> 
1466
(
0.546657
0.893618
0.416778
2.16522
0.367724
0.818353
1.17119
1.11545
0.27426
1.05863
1.46021
1.02044
0.211315
0.28767
1.362
2.34742
0.841816
1.12956
2.61374
1.62408
2.6647
2.54567
2.0103
1.4149
0.242115
0.735796
1.62312
2.02136
0.227141
1.34204
1.70434
0.727155
0.459794
3.02686
1.9195
1.31665
2.71833
0.929616
1.36216
0.697141
0.557152
1.1915
1.32506
0.432718
0.482894
0.916681
1.40144
0.252421
0.976373
0.20572
0.474377
0.899747
0.795221
0.305469
0.409747
0.271902
0.662631
1.29443
0.325069
1.07846
1.25904
1.1198
0.855094
1.08917
2.29297
1.09563
3.99497
1.60105
0.77674
0.36892
2.36986
1.4426
1.00113
0.256663
0.926696
1.3532
1.06719
0.755574
0.402484
1.65127
1.31249
2.12104
0.422665
1.79717
2.31586
2.97515
2.8914
1.56222
1.31108
1.2307
0.936776
1.57298
2.52032
0.513164
0.780287
0.416624
0.830403
1.29083
0.27692
0.209349
0.657212
0.335809
0.230823
1.26941
1.54764
1.36414
0.84024
0.274025
1.33841
0.584701
1.11646
1.68353
0.624061
1.19036
0.946497
1.3733
1.33338
0.853694
0.906298
0.977445
2.89068
1.00053
0.894097
0.403125
0.414941
1.23458
1.0089
2.02736
1.40937
1.27026
1.16973
1.10647
1.87711
1.3394
1.02604
0.608793
0.771997
0.657961
0.650961
0.790286
0.250162
2.25111
1.97388
2.0583
2.76569
3.7083
0.718469
1.00771
1.57902
1.90738
1.03384
1.12547
0.899221
0.542401
1.45812
2.47443
1.81802
2.5914
0.753589
1.04185
0.682799
1.34948
1.44902
2.15446
3.18802
1.89713
1.7636
2.34423
2.38753
1.15667
2.58509
0.505983
0.190655
0.815544
0.601887
0.262263
1.15652
1.60371
1.02351
2.42741
0.270164
1.14129
2.79182
0.166809
1.54715
3.0726
2.39763
1.27353
0.798117
0.589872
2.79485
1.34469
2.54411
4.09911
0.948519
1.24043
0.301998
2.34013
3.14642
4.09744
1.84324
1.42214
1.17626
1.77036
2.05401
3.09375
3.1409
0.749606
0.742464
1.55799
2.3419
2.14879
2.71303
2.38473
2.85064
2.11165
3.13895
2.48675
1.51784
1.624
2.22809
1.40429
2.20864
1.40248
2.30192
2.40709
2.19667
0.32661
1.02278
1.37391
1.81232
1.591
4.41904
4.31069
0.666179
2.70585
1.89437
2.22668
1.02896
2.73116
1.06066
1.59073
1.04442
4.1764
0.860925
1.22841
0.729916
0.253346
1.73227
0.923755
3.02174
2.50539
0.684999
1.64057
0.504671
0.987198
1.69504
0.352642
1.30172
1.63648
1.19143
1.78863
1.30509
1.3379
1.60892
0.163652
0.642062
1.52257
2.55679
0.365426
1.70511
1.45094
0.87376
0.748884
0.974208
1.55718
1.21118
1.69769
2.49531
1.61628
1.18566
2.70318
2.15553
1.3897
3.14215
0.177824
1.67609
1.63714
0.239546
0.556158
0.593268
0.480649
0.242214
0.248475
1.31494
0.689191
1.9012
0.265358
1.64383
1.23155
0.274049
1.65184
0.230844
0.264697
2.46302
0.649015
0.727634
0.529065
1.02588
3.70939
0.787317
2.77383
1.65927
1.2995
1.46431
1.20222
3.64857
0.906805
0.279321
1.40363
0.660715
1.63708
1.39024
1.11827
2.77737
0.486994
0.220168
0.917629
0.976343
1.4401
1.9254
0.515716
0.559024
1.08091
2.45595
0.38329
2.6048
1.00711
0.777753
0.76835
0.55604
0.816606
0.766758
1.51392
1.24623
0.231296
1.3253
1.05072
0.85611
2.3277
0.754965
0.35067
1.6121
3.26317
3.41205
3.15468
1.9891
0.382015
0.284691
1.05596
3.34477
2.78926
2.0426
2.26267
0.313675
4.60343
0.726393
0.696391
1.00603
1.196
0.993893
3.37472
1.20675
0.951816
0.62375
2.74576
1.48906
1.22607
0.657567
1.54262
2.41832
1.7914
2.6018
2.66016
1.70573
1.79294
0.696241
0.655823
0.45188
0.242287
0.955402
1.0143
2.17524
0.931384
1.22702
0.462928
0.189643
1.23672
1.17008
0.206629
0.166261
0.160792
1.4102
0.209993
1.20671
3.65241
1.54746
0.97925
3.7005
3.42409
1.10833
1.76966
2.10503
3.62886
1.63996
0.253415
0.234847
1.31175
1.38954
0.86206
2.95516
3.15984
0.90874
2.05173
1.20995
1.21294
2.26459
1.18618
1.24465
1.14324
1.95016
0.727364
1.41322
1.96694
1.34522
0.211947
0.239422
0.329397
0.300959
1.96208
0.227649
0.360693
1.93732
0.327231
1.36093
0.80174
0.555618
1.45289
0.726001
1.85174
1.51618
0.641236
0.229455
0.307569
1.09094
0.338435
0.5161
0.891584
0.272574
1.4751
0.43266
0.87384
0.526636
1.52481
1.78805
0.768397
1.02293
0.74274
0.384747
1.10991
0.474833
0.814332
1.97782
0.299443
1.53445
0.794655
0.713202
2.7479
4.58766
2.79546
1.1164
2.3131
2.29172
4.32162
3.77436
0.639144
0.751471
0.612777
3.79303
2.20044
4.11839
1.94715
0.722285
0.946138
1.74429
0.925272
2.04792
1.58374
1.23043
2.63426
2.61468
3.35304
1.40064
2.73044
0.542067
2.9694
1.45409
1.65746
0.699985
1.32488
1.29967
3.35963
1.94789
1.73264
1.94808
2.47573
0.596523
0.289456
0.486373
0.941112
2.44102
0.458529
4.53721
0.752796
2.98325
0.631539
0.42795
1.92983
0.613122
4.05062
0.72047
1.88352
3.72034
0.910378
1.38597
0.44372
0.961349
1.57561
0.808898
2.27264
0.606279
2.97654
0.691703
1.92282
0.663148
0.91154
0.784172
0.667001
3.83823
1.65573
3.16745
0.703178
0.522964
1.4696
1.8003
1.5695
1.32744
2.36878
1.14449
0.5024
3.84267
3.80517
1.3104
0.990783
0.404041
1.72196
0.908602
4.47699
1.62477
3.31042
2.88864
4.4195
1.1669
1.45647
1.19092
2.99887
0.351261
2.78794
1.34072
1.90526
2.29007
3.23698
2.04631
2.75663
2.6556
1.9125
2.92685
0.290325
0.94599
1.86114
2.83466
0.755672
2.76914
2.09778
3.18949
2.07013
2.03502
1.34804
1.47678
2.16685
1.17804
0.417306
0.422147
0.895369
4.81695
2.95636
1.36579
0.271175
1.68325
3.27824
1.13259
2.34689
0.640065
0.964133
2.25694
0.880639
1.43383
0.753088
0.636952
2.94748
0.841555
0.223063
1.25596
0.537433
0.800468
2.22922
2.28391
3.03397
3.46337
2.73515
3.33679
0.621716
0.659766
0.452827
2.87712
0.373004
2.76822
2.45134
1.58366
2.14911
4.00038
1.66567
1.44143
1.45135
3.66922
0.420831
3.08353
3.79225
1.39496
0.793821
3.03469
0.32147
1.16637
0.34907
4.40362
3.60668
0.695003
1.95003
0.97222
0.241066
4.59522
1.71191
0.341102
0.422775
4.23896
1.14544
2.00093
1.40219
1.56925
0.613766
0.58201
0.972819
2.5075
0.425145
1.94625
0.269222
1.67657
0.487247
0.771879
0.532155
2.07547
0.622488
0.644587
4.04217
0.354797
3.40583
0.442886
0.203782
1.9833
0.249418
4.14903
0.513031
0.465063
1.2529
0.379783
0.196154
1.20073
3.10622
0.456743
2.67037
3.7467
0.420106
0.22193
0.993693
3.15044
2.86621
1.2346
0.459174
0.19935
2.93985
1.31386
3.44631
0.444152
1.62271
4.0564
2.25391
1.00688
3.05588
3.52505
1.61079
1.18465
3.02593
4.13368
1.47618
2.09746
3.5859
2.1033
0.702818
1.04791
0.243298
2.98748
1.99088
2.97588
0.279187
3.49339
2.69275
1.24617
2.67156
0.223301
3.62747
2.75034
1.6821
3.39544
0.216134
0.982682
1.04649
0.504119
0.418141
1.60291
1.1199
2.07768
2.05087
0.721293
0.233372
2.22398
2.83961
3.19144
2.19822
0.399781
2.28891
2.23598
0.608991
1.62958
1.44161
4.54455
1.17732
1.94707
2.20526
2.22502
2.94451
1.2673
0.98099
1.00212
1.03454
2.41094
2.66127
1.23721
0.321091
1.15239
1.76514
1.17694
0.710409
2.14536
1.01208
3.89548
0.272678
1.6217
2.35096
3.07499
1.15472
1.63302
4.19412
2.498
0.692713
1.24786
0.45012
3.4375
1.47161
0.508153
0.623059
0.599957
2.43793
3.37456
0.599841
0.855015
0.197386
0.29784
0.382595
2.49608
2.24359
1.28653
1.87985
2.01554
1.33714
1.79759
0.587402
2.33707
2.04203
0.993472
2.88189
1.83358
3.20894
0.591435
1.666
1.27232
1.0743
2.15268
0.374785
0.480664
1.95089
1.70275
2.32219
1.28682
3.84389
0.837547
0.978018
0.723878
0.283809
0.848269
1.0801
1.52299
3.65427
3.7385
0.652794
3.334
1.23884
0.518249
3.19767
1.0555
1.93381
3.11623
1.27211
2.14847
1.0306
1.40623
1.20896
1.522
0.864465
1.58054
2.18526
4.06183
3.15525
0.299363
0.922771
0.769152
0.85374
2.14913
2.50912
1.26844
1.00687
1.99228
0.532879
2.48225
0.757209
4.75052
0.743916
3.73091
1.11334
1.14423
1.0754
1.15264
1.14163
1.20158
1.11445
1.59386
1.64779
1.76052
1.62453
1.55777
1.51813
1.5594
1.54089
1.87037
1.22889
1.37502
1.95087
1.95048
1.6687
1.81523
1.47765
1.45918
1.44001
1.03866
1.69747
0.217294
0.261684
2.86391
0.883963
0.530443
0.632979
0.293226
1.3226
3.71467
1.92384
3.64611
0.957768
0.488349
0.366212
1.77652
0.698067
2.69752
1.33221
2.15953
1.35663
1.07661
4.34569
2.6851
1.39662
0.836586
0.666978
0.282975
0.222517
0.255336
0.898756
1.49693
2.59506
3.1438
0.32967
1.06189
1.12365
0.61816
0.767084
0.671072
3.40262
1.17633
0.979884
1.27345
1.17849
0.871999
0.43933
2.22717
1.36023
1.68106
2.74269
2.08903
3.1835
0.710499
1.7953
2.83139
1.27033
4.2629
0.834154
1.31465
0.53252
1.82628
3.14332
0.178758
1.4345
1.07528
2.78114
0.234258
2.51332
2.70294
2.48606
1.26746
0.792327
1.63686
2.27944
0.909552
0.898987
0.506446
1.97266
2.9654
3.37834
0.48452
1.3532
3.7195
1.07703
3.51442
1.63834
0.605837
0.278292
1.63831
1.30985
3.28874
4.90675
1.60617
2.79399
0.29332
0.583041
2.10837
2.34134
3.69807
0.371331
0.986758
1.30659
1.12814
0.262335
1.57084
0.250038
0.92261
2.68248
0.292064
0.235091
1.87471
0.328234
2.78027
1.17984
1.0562
3.60917
1.09146
1.63901
3.16373
1.98496
3.01777
1.23281
0.944878
2.15878
1.49074
1.09297
1.11694
3.01686
1.7081
0.554185
1.09122
2.47987
1.35149
0.883277
2.99313
0.248323
1.71693
0.592802
0.544877
0.45858
0.548327
0.566121
0.948255
0.334273
1.22305
4.00972
0.855173
0.732995
0.706963
2.22928
0.622964
0.462495
1.25171
3.4057
0.932367
0.647273
0.812621
0.271949
0.473649
0.570559
0.532901
3.17441
1.16855
0.841256
0.918807
0.103042
2.74087
1.33133
0.297581
0.777422
0.316577
0.703378
0.260608
0.317056
0.317247
0.744559
0.562837
0.254431
1.31826
0.287111
0.307113
0.290845
0.294375
0.657489
0.695059
0.263817
0.287157
0.310678
0.317023
0.80216
4.03849
2.44577
1.25862
1.20465
2.27215
3.81243
1.37232
1.29427
0.977764
1.71076
1.19582
1.15305
0.399413
2.84484
1.471
4.0813
2.2622
0.208141
3.44455
1.05604
1.47669
0.759158
1.9126
1.6312
3.03006
0.426978
2.45586
1.73436
1.9506
0.965079
1.35145
0.245777
0.713842
0.985206
1.49372
1.3837
1.28986
1.54865
1.62817
0.568455
0.979999
0.86439
1.31812
2.36775
2.94136
3.57726
3.67593
0.505073
0.264058
1.40208
1.6852
1.47716
0.956298
0.78548
0.408669
1.09606
3.43384
0.731969
0.798759
3.293
0.498049
0.370559
0.809416
1.50487
1.20105
3.61484
0.50488
1.865
1.30704
0.967722
2.13634
4.62952
0.926365
3.49422
2.83283
1.12164
1.20889
1.27509
1.03539
0.457373
0.438168
3.15833
1.45781
3.47575
3.22612
3.77315
4.75318
0.754511
1.32969
1.98631
1.79588
1.6965
3.49381
0.440673
0.591385
1.94063
2.32872
0.327793
3.54328
1.76817
0.988913
1.30771
1.21857
0.492325
0.745451
0.854931
1.40165
0.520627
0.887142
0.999477
0.939284
1.29
5.03709
0.261941
0.831406
0.992219
0.386835
0.611533
1.36341
0.844795
0.705247
0.245157
1.47938
0.794027
2.09099
3.4962
3.48811
0.419406
1.42759
0.243908
3.53893
1.35072
0.272446
1.89227
1.2452
3.16414
3.54518
1.69598
1.75118
1.30413
0.400406
0.38768
3.0866
0.59729
0.295511
1.63231
0.246186
3.44491
0.957177
1.71328
0.538716
3.26523
1.8367
0.273397
3.70475
1.0119
0.247552
2.9107
2.59216
1.28719
1.6011
0.845455
3.70587
1.08038
2.67352
0.809898
1.5046
1.42552
2.44326
1.90721
3.87915
4.62563
1.3983
1.99779
1.77116
2.77986
0.241438
1.03169
1.42197
0.242962
3.84031
0.45086
1.52498
3.46526
0.834028
3.11126
1.52598
0.245396
1.02022
1.22948
0.467678
0.77855
0.6982
1.05999
0.699099
4.921
3.76118
2.22802
1.25465
0.39324
0.275145
1.1008
1.11299
2.20495
0.820077
1.95882
2.02982
3.40132
1.88135
1.25801
3.19427
0.24908
1.63677
3.14391
2.22091
0.739661
0.649334
0.499977
0.940207
0.688239
0.804094
1.26905
3.23369
0.289355
0.264163
1.71864
0.888087
1.56146
3.55478
2.53709
0.246167
1.69442
0.566358
0.251044
0.305105
0.409331
0.664529
4.61865
0.248978
3.44811
1.01139
0.759417
0.410928
0.185981
3.1343
0.260634
0.739574
1.35536
0.736009
3.05049
1.17077
2.05996
1.48393
1.22517
1.00334
0.886117
0.804463
0.968147
1.05164
2.87422
0.18506
1.46088
1.58871
1.21987
1.5068
1.38485
3.65202
0.849031
1.27103
0.676338
1.24567
3.3923
1.32368
0.448116
0.180767
0.277224
0.636821
2.24189
1.52838
1.75814
1.6689
1.46315
0.774991
3.5862
2.11187
1.79796
1.5186
0.880524
2.02782
3.55778
0.453798
0.873537
2.30586
0.722418
3.27243
1.15199
1.56897
2.97356
1.67161
2.50183
2.37677
1.7178
2.50018
0.451001
0.5752
0.6555
0.289701
1.33368
0.602286
2.19481
1.18701
1.85206
1.38005
3.08041
1.87852
2.90383
0.678508
3.61404
3.51891
0.816447
0.36586
3.29084
1.31027
0.856264
0.918659
1.53791
1.11451
2.66204
1.29683
0.91929
0.677083
0.289497
1.58753
1.96519
1.59647
0.96773
1.84811
1.35358
0.697816
1.72532
0.272389
0.200267
1.30231
1.40952
0.348163
0.397372
0.833765
0.389712
0.814802
1.85644
0.66836
0.327543
0.921382
2.01899
1.01497
1.0562
0.656587
1.12371
0.288448
0.264074
0.267918
0.502732
0.750385
0.587693
1.70606
0.231149
0.188099
1.53387
0.363586
0.954136
0.632889
0.786166
)
;

boundaryField
{
    frontAndBack
    {
        type            empty;
    }
    wallOuter
    {
        type            kqRWallFunction;
        value           nonuniform List<scalar> 
108
(
1.12956
1.4426
1.00113
0.230844
0.231296
0.354797
0.442886
0.203782
0.249418
0.379783
0.196154
0.456743
0.420106
0.22193
0.19935
0.243298
1.24617
0.504119
0.418141
0.321091
0.29784
1.28653
0.283809
0.518249
1.11334
1.14423
1.0754
1.15264
1.14163
1.20158
1.11445
1.59386
1.64779
1.76052
1.62453
1.55777
1.51813
1.5594
1.54089
1.87037
1.22889
1.37502
1.95087
1.95048
1.6687
1.81523
1.47765
1.45918
1.44001
1.03866
0.261684
0.488349
1.39662
0.222517
1.17849
1.31465
0.53252
1.3532
0.986758
0.235091
1.09146
1.23281
0.944878
0.592802
0.548327
0.334273
0.622964
0.473649
0.570559
1.16855
0.103042
0.103042
0.297581
0.316577
0.317056
0.317247
1.31826
0.287111
0.307113
0.290845
0.294375
0.657489
0.695059
0.263817
0.287157
0.310678
0.317023
0.80216
1.29427
0.977764
0.208141
0.759158
0.965079
1.35145
0.731969
0.798759
1.30704
0.967722
0.794027
0.242962
1.1008
0.820077
0.264163
0.566358
0.248978
0.180767
0.277224
1.46315
)
;
    }
    inlet
    {
        type            fixedValue;
        value           nonuniform 0();
    }
    outlet
    {
        type            zeroGradient;
    }
    wallInner
    {
        type            kqRWallFunction;
        value           nonuniform List<scalar> 
126
(
0.929616
1.36216
0.697141
0.557152
1.1915
1.32506
0.432718
0.482894
0.916681
1.40144
0.252421
0.976373
0.20572
0.474377
0.899747
0.795221
0.305469
0.409747
0.271902
0.662631
1.29443
0.325069
1.07846
0.402484
0.416624
0.830403
1.29083
0.27692
0.209349
0.657212
0.335809
0.230823
1.26941
1.54764
1.36414
0.84024
0.274025
1.33841
0.584701
1.19036
0.946497
0.403125
0.414941
1.16973
1.10647
0.608793
0.771997
0.657961
0.250162
1.44902
0.601887
0.301998
1.30172
1.63648
1.19143
0.163652
0.642062
1.70511
1.45094
0.87376
0.480649
0.248475
0.689191
1.9012
0.660715
1.63708
1.39024
0.382015
1.00603
1.20675
1.22607
1.23672
0.206629
1.18618
1.41322
1.96694
0.211947
0.329397
0.360693
0.229455
0.338435
0.272574
1.73264
1.88352
1.8003
2.28391
1.95003
2.09746
0.85374
2.50912
1.63901
1.17077
0.804463
1.84811
0.697816
1.72532
0.272389
0.200267
1.30231
0.348163
0.397372
0.833765
0.389712
0.814802
1.85644
0.66836
0.327543
0.921382
2.01899
1.01497
1.0562
0.656587
1.12371
0.288448
0.264074
0.267918
0.502732
0.750385
0.587693
1.70606
0.231149
0.188099
1.53387
0.363586
0.954136
0.632889
)
;
    }
    procBoundary1to0
    {
        type            processor;
        value           nonuniform List<scalar> 
29
(
1.07589
1.07589
0.634772
0.971841
1.74728
1.05633
1.89414
1.0303
1.5387
0.904989
1.01375
1.05633
0.634772
0.865163
1.10626
0.468084
1.74728
1.7437
0.971841
1.06579
0.294421
0.215908
1.48717
0.288981
0.288981
1.48717
0.239123
0.872218
0.239123
)
;
    }
    procBoundary1to2
    {
        type            processor;
        value           uniform 0.770298;
    }
    procBoundary1to3
    {
        type            processor;
        value           nonuniform List<scalar> 
48
(
2.56392
2.34391
2.64323
2.64323
1.58912
2.31393
2.31393
0.596086
1.63648
0.258713
0.261113
0.258713
0.292834
1.16485
1.10236
0.292834
0.29089
0.29089
0.301073
0.301073
1.12029
1.01053
0.347538
0.870667
0.870667
0.340676
0.872602
0.872602
0.582135
1.28012
0.571833
0.582135
0.596086
1.14325
0.282991
1.28012
0.995209
0.261113
2.24457
1.25611
1.3058
1.05303
1.14325
0.282991
0.904913
0.91114
1.44735
1.3058
)
;
    }
}


// ************************************************************************* //
