/*--------------------------------*- C++ -*----------------------------------*\
| =========                 |                                                 |
| \\      /  F ield         | OpenFOAM: The Open Source CFD Toolbox           |
|  \\    /   O peration     | Version:  v1912                                 |
|   \\  /    A nd           | Website:  www.openfoam.com                      |
|    \\/     M anipulation  |                                                 |
\*---------------------------------------------------------------------------*/
FoamFile
{
    version     2.0;
    format      ascii;
    class       volScalarField;
    location    "0.37";
    object      p;
}
// * * * * * * * * * * * * * * * * * * * * * * * * * * * * * * * * * * * * * //

dimensions      [0 2 -2 0 0 0 0];


internalField   nonuniform List<scalar> 
1466
(
72.9388
111.388
71.1893
77.9165
73.3002
91.7261
63.486
71.9723
102.343
93.0631
70.9924
95.1682
102.499
71.8731
91.2347
70.2122
72.8043
96.8312
100.187
72.5915
78.7776
69.814
95.8279
73.1238
102.55
112.566
69.0502
76.6458
72.5798
109.352
72.782
111.171
76.6129
71.7548
102.482
73.1197
70.9752
74.6126
92.6425
68.602
66.8025
69.1752
70.9473
72.4999
68.1344
68.2176
73.2941
70.5941
93.5793
76.8115
92.6653
111.165
91.6895
73.1892
76.6809
100.837
70.0114
70.1559
76.6582
92.7488
112.818
67.138
67.6668
111.826
84.777
70.7215
98.558
72.4678
105.186
72.8364
113.099
96.8759
73.6296
101.517
112.899
103
69.6647
67.9138
75.5205
108.862
92.205
69.3895
71.9705
91.099
72.3086
74.5078
72.3494
107.263
91.5462
92.1765
112.565
68.9888
79.4738
74.2987
68.9601
73.5198
111.667
71.024
103.615
74.075
92.2141
92.8336
70.944
95.6477
71.6785
71.6938
92.1556
71.6467
72.1889
71.4683
112.703
103.518
72.2821
70.0405
93.7949
112.549
69.0492
95.3654
64.0206
68.9475
77.5779
73.2714
68.1493
74.1737
68.2033
74.4018
106.571
96.3877
72.4444
110.53
92.5019
69.2133
96.0268
73.0987
112.238
64.307
69.5554
76.1862
64.9544
68.9253
77.6082
76.7312
72.9263
94.306
73.0554
79.3779
111.025
110.839
110.489
93.4535
112.58
110.89
105.953
68.4327
110.546
69.0107
74.9234
73.2841
110.783
82.9293
110.848
108.013
69.2772
74.9326
110.548
72.3713
72.8931
95.3909
74.9058
88.3949
76.5703
110.504
76.3085
105.51
111.433
99.7273
110.413
109.77
112.638
114.003
103.036
112.08
77.0341
76.7094
106.361
76.6745
72.5037
91.3096
105.252
75.8977
76.5757
113.148
82.1359
86.4307
81.9149
112.625
71.8415
104.642
112.475
80.3548
73.8659
110.462
108.517
77.1759
112.821
112.33
84.285
106.846
110.628
72.7694
97.4071
73.1629
93.4856
76.1752
80.1252
74.0994
77.4977
73.9487
98.3943
72.9673
96.3459
112.627
74.9335
112.668
74.8186
106.74
95.0063
71.3073
112.599
112.226
113.536
105.246
91.2079
83.8957
93.0123
112.44
73.044
94.762
110.561
76.3266
76.3619
108.533
108.841
88.5142
110.502
107.775
111.496
101.084
109.344
108.809
77.4385
85.1936
106.251
77.7573
110.607
110.804
74.8627
91.177
73.2589
76.9976
92.2063
96.6795
73.187
112.288
81.8966
76.4615
111.594
110.43
87.8141
93.3265
66.8092
72.8139
90.7398
110.595
112.553
112.756
112.577
84.2714
75.6351
110.29
111.618
81.9396
81.8613
106.976
80.0206
75.2796
110.489
110.757
76.5842
102.764
104.764
73.5286
103.029
76.3219
86.0457
88.0977
71.908
76.3467
110.267
111.906
70.1402
91.4317
113.331
102.249
71.9646
68.346
77.3471
76.2734
101.685
76.911
105.859
96.4365
72.7678
112.028
111.775
111.182
79.7167
112.587
76.0178
91.2012
90.0517
71.8258
74.4662
111.886
74.7888
100.206
75.8204
117.483
111.454
112.224
97.1344
101.492
70.3376
89.4769
80.2993
81.9626
78.4198
110.696
77.5134
75.0881
68.3478
106.602
76.0123
126.8
87.9425
113.117
106.501
116.43
104.715
79.7289
85.7788
85.456
80.6433
79.1904
79.2792
80.2987
72.6507
74.7384
94.0488
109.334
78.6327
81.7001
83.7722
77.2791
76.5282
99.8229
105.744
105.093
78.8355
87.1271
95.0953
82.1819
129.408
92.0175
70.2517
71.9376
95.5965
119.051
74.9888
83.1401
77.3958
76.6183
76.8456
76.0924
74.4112
75.631
74.7108
74.2979
75.8365
75.648
69.087
69.7596
77.2248
69.8613
76.7928
75.93
75.0747
107.611
76.3719
75.8212
74.8357
75.1247
95.2335
71.853
93.1236
69.4904
94.7984
93.123
70.602
69.1417
91.4548
97.3482
94.9903
69.1558
94.0211
72.7092
72.7158
92.9795
91.4774
67.6102
68.6811
68.8534
65.3851
94.5303
64.4681
67.8953
68.6775
133.621
63.2994
68.7681
91.4073
76.0402
78.4438
73.0933
111.332
75.7766
75.3462
75.9442
69.4384
91.5207
74.9574
67.9896
91.6387
75.617
111.604
72.0368
103.111
111.865
73.4757
92.6144
112.139
74.2955
68.3781
102.97
69.2904
68.382
69.2753
72.0475
68.7523
111.949
76.1755
68.6985
70.1485
71.9766
94.7672
74.617
72.9828
68.8134
70.0805
74.4942
68.6855
70.5785
94.5786
70.5376
112.161
75.2794
68.1787
78.9028
83.3856
82.7662
87.63
70.7066
72.3719
82.5408
83.1479
106.188
75.7461
68.32
83.0495
84.3685
83.6683
76.4749
71.3001
71.7379
77.7173
70.1718
70.9848
73.1518
112.837
77.1429
75.1404
75.5174
71.9011
96.589
71.2596
77.422
105.396
112.308
76.014
70.4694
110.996
82.0067
77.0755
79.827
70.402
77.2954
69.0992
103.173
104.292
70.0226
73.971
72.8928
81.9973
111.762
80.3959
72.1717
71.7235
78.1967
70.6873
81.2377
75.9537
69.6754
80.8718
70.4814
71.4147
69.7648
89.4013
114.759
68.934
72.0369
106.329
95.9881
71.9534
76.9331
69.8793
93.2583
69.6987
93.942
81.3674
112.413
74.5369
76.7606
68.1853
72.1424
76.4723
69.7624
70.0159
77.6158
78.5602
98.0095
79.8126
80.545
111.775
119.431
104.256
76.7884
70.9151
80.5457
123.582
73.1013
75.09
79.2195
110.562
111.144
77.9106
76.5909
87.6705
72.535
70.9042
73.9669
81.2183
72.501
71.4541
77.5988
77.5835
79.2392
76.5365
99.4625
69.7935
77.1903
71.3754
98.3151
77.4481
72.0482
78.0688
72.6613
96.6784
82.2874
80.1451
82.6071
119.785
94.8744
87.8162
95.9155
95.1917
78.2927
111.381
69.5355
93.2012
76.3382
76.4801
74.9706
103.087
86.1851
72.6623
110.509
110.681
111.571
105.823
75.0234
101.85
75.8421
110.988
90.4866
104.183
72.8729
74.0636
78.5713
79.9689
71.3658
83.4015
104.201
105.918
87.9742
73.4307
97.5347
77.1843
79.7024
111.134
75.9261
79.5159
102.656
80.3412
112.621
76.0272
93.4662
78.9944
77.77
79.2197
107.971
74.5668
103.588
113.195
76.5477
82.8707
76.5263
76.9986
74.951
111.158
97.4011
83.0996
104.939
75.7468
97.1075
83.7071
110.389
73.4759
111.004
97.8007
75.9568
76.8936
110.61
79.6661
72.2861
94.7434
70.9844
91.2585
112.912
68.4261
102.49
75.8318
74.9038
112.529
98.2382
109.818
78.7851
109.154
110.382
82.2493
110.202
81.6787
102.628
99.6279
93.7322
109.656
110.45
91.4022
76.2291
108.809
78.0056
76.3741
109.447
110.3
111.674
76.9021
77.5574
110.769
75.8051
110.507
77.3553
76.4325
97.9917
73.7882
81.5655
78.6357
73.0005
79.2918
77.7415
80.8083
110.162
102.823
70.0678
97.6251
72.2942
74.7801
74.2876
75.7617
74.1149
77.7814
112.875
78.4822
73.2695
75.473
72.9572
99.2368
111.338
75.8492
78.7911
71.1495
83.183
71.147
91.3395
74.8889
72.7527
69.4633
63.3067
107.566
113.14
76.6266
107.305
75.6892
74.5731
112.591
75.3653
72.9533
99.568
73.8012
76.7959
103.738
91.9988
72.9298
75.7455
112.646
112.14
83.941
108.957
74.9767
100.609
97.3953
76.9768
111.175
75.827
67.9275
71.9831
68.5554
75.5956
114.862
109.958
75.8609
95.0923
69.8269
76.3165
76.5482
76.3298
81.5709
71.945
91.2773
70.7351
77.4593
87.676
77.3203
83.4494
75.7874
75.7181
110.99
103.033
77.7998
70.7889
68.5936
68.9006
76.7432
78.0057
73.185
72.5221
81.4511
75.8496
113.161
103.634
68.6259
78.3228
75.2376
85.714
97.5318
72.7664
112.674
72.9077
77.9797
75.4597
112.305
79.2256
95.8018
77.6284
75.6235
110.15
67.5585
66.9524
75.6437
101.716
103.754
97.8179
109.228
78.7769
75.9536
69.7443
67.9194
92.7617
92.2676
110.085
75.8407
76.0178
76.3538
76.8274
78.7111
71.0528
73.9281
93.2945
107.103
72.7352
111.699
78.2825
73.4512
105.982
75.8462
68.6845
77.5895
110.691
108.713
111.456
91.9736
77.7113
83.5753
72.024
103.236
77.3947
112.714
75.0604
73.5285
75.065
111.274
69.4351
77.4197
112.584
78.0606
110.706
83.7701
75.4824
78.078
72.9266
72.1781
73.7764
74.2937
72.2443
75.659
72.994
80.7743
97.3607
98.6736
82.3756
79.7276
78.7128
84.5241
97.0456
101.537
90.2138
87.4171
105.662
109.849
113.998
112.765
77.7036
76.8917
76.5077
74.0389
104.078
102.829
112.72
77.4429
76.7286
93.049
76.1822
71.1261
91.4561
77.3679
95.4892
74.9109
91.2204
108.007
100.258
93.1212
76.0914
78.1055
111.255
74.08
111.734
92.6682
78.4339
71.1713
76.6872
73.1334
68.5487
90.1721
110.611
102.068
75.7673
91.8035
76.6171
73.8898
71.9328
68.5561
63.5009
75.2436
110.526
109.802
74.6627
65.1152
67.8718
111.12
97.568
104.748
102.143
112.564
92.4043
109.778
69.1056
77.2816
81.3819
112.787
91.6321
69.9144
120.806
78.0077
96.8009
76.1702
106.581
72.5305
95.3489
75.7246
92.0299
76.8414
75.0012
72.68
74.912
70.3097
75.5093
112.006
111.874
112.6
75.1671
69.621
111.906
73.5762
73.205
95.1411
73.7998
103.601
76.7778
77.216
112.455
96.1632
72.3665
112.309
68.8701
92.2123
97.4363
98.6325
98.5102
109.855
77.9284
73.442
92.5613
77.6941
82.6752
81.8192
103.61
114.245
63.872
68.278
70.1322
93.6021
101.99
72.6659
95.1266
76.3184
112.688
73.8855
76.6075
71.6642
111.031
111.076
76.834
95.165
79.5349
69.2794
96.1518
75.5777
97.0762
73.3751
96.219
73.0974
67.5626
69.7204
82.3126
112.433
110.456
78.9162
74.6362
111.36
112.796
83.0458
102.437
112.374
105.33
74.631
68.4124
106.054
68.5139
113.221
112.414
71.9797
77.7695
74.5811
68.2505
111.77
72.2267
105.218
73.8193
110.777
110.538
110.914
111.569
76.0756
90.833
108.424
105.606
112.76
76.9247
114.483
73.8367
68.0199
113.338
83.4811
77.717
112.355
75.7938
111.447
69.7712
94.7246
111.588
111.294
75.4932
68.3452
103.868
75.2433
112.007
111.714
112.134
111.865
104.935
104.59
110.802
110.876
110.987
111.135
102.37
82.7176
78.2969
110.899
111.296
74.722
77.441
112.167
96.1169
72.4223
77.7609
65.4705
67.6263
69.4583
76.9218
108.579
78.129
77.5925
110.555
95.6583
111.487
110.24
113.654
102.759
103.681
77.9381
75.2973
102.277
112.998
101.268
72.8659
96.4695
101.622
68.622
111.428
109.42
91.5982
105.337
107.764
91.9209
73.0115
68.3303
77.5646
110.326
73.4172
73.6328
69.3737
75.4999
68.0911
69.5894
92.6464
107.047
88.0355
92.0857
69.6
76.1141
92.1806
74.4013
104.135
103.741
74.2589
110.552
71.1772
111.333
92.9672
115.228
75.9159
102.743
87.6295
96.028
72.3372
75.7169
83.4114
107.208
72.8791
85.1267
67.4922
67.3518
77.2183
69.1878
75.3375
68.9348
73.4974
107.484
82.5474
71.6533
71.1882
83.7186
102.439
111.988
74.4635
69.7067
77.0365
75.1754
76.3444
69.5791
81.3842
77.6092
75.191
72.4935
112.593
68.9054
92.3801
93.2532
104.166
110.322
112.627
109.358
110.664
91.6208
107.184
107.564
111.146
94.4717
101.477
76.1447
110.455
70.1442
112.645
112.614
73.9963
68.4536
98.9783
93.111
102.93
76.0697
73.7169
76.8983
69.4629
99.1022
100.485
83.3832
77.5833
68.7832
92.1052
91.8865
72.0414
83.3479
110.066
93.9013
73.3897
76.0144
68.9868
71.1393
93.0744
69.2571
91.91
75.0605
71.6205
75.9312
81.3398
110.726
111.239
94.779
71.7422
77.2337
76.9602
102.008
71.1466
74.4843
109.147
74.518
104.436
71.1539
92.5707
74.5785
75.6997
81.245
112.015
76.2234
112.509
70.1743
83.7123
76.9493
75.8994
80.0284
79.7623
102.616
111.35
93.0485
110.699
77.7575
73.1583
108.025
77.2657
67.283
97.4967
72.205
95.4653
75.7766
111.12
113.04
103.683
69.4319
69.7809
76.6593
99.2878
76.8877
76.303
96.2099
68.9629
75.8504
92.9555
72.5284
94.5341
103.422
94.4781
72.5447
78.4505
91.4643
76.6198
69.317
99.483
72.2969
97.1387
75.5546
69.1641
76.309
68.5593
71.8721
68.3182
68.9601
111.46
77.3334
98.9044
112.565
79.4866
64.9211
106.756
77.5924
69.2881
113.296
105.328
113.366
99.7637
73.4789
68.4807
112.874
98.5913
112.529
77.5139
69.045
77.0736
69.1066
71.8607
84.9187
76.0263
111.672
76.9547
111.352
73.4868
71.7721
100.465
109.794
110.042
77.7471
110.226
94.2028
111.152
110.14
78.1527
72.1586
109.316
93.9356
110.523
109.077
109.918
77.3945
111.731
90.1574
112.903
108.505
84.3585
79.8379
113.085
113.262
112.239
110.397
76.2207
105.96
111.94
87.421
114.631
111.942
72.3785
111.918
70.3265
70.7358
65.1258
69.3934
70.2508
68.1313
75.4608
77.1964
91.7423
108.567
113.649
74.2201
104.521
73.3562
78.2653
77.8951
104.576
90.1037
68.5612
75.8156
111.93
70.0344
91.9384
110.831
75.8744
111.346
96.5115
72.8898
107.54
74.2675
77.8802
112.232
76.839
71.025
70.2282
70.751
92.9431
78.3992
66.6905
67.1875
108.256
111.308
110.527
110.965
111.665
112.064
103.098
109.217
93.4485
76.1041
112.031
100.207
73.6238
111.714
74.43
93.9401
75.7207
74.0447
74.7903
68.9541
72.8658
71.3159
72.2293
78.2101
91.115
71.4266
76.7546
94.4033
124.32
89.5965
95.2811
107.029
113.679
103.252
101.262
99.9453
69.8081
68.9976
68.1452
73.0261
73.4272
72.8222
95.1959
71.319
110.921
111.237
111.828
)
;

boundaryField
{
    frontAndBack
    {
        type            empty;
    }
    wallOuter
    {
        type            zeroGradient;
    }
    inlet
    {
        type            zeroGradient;
    }
    outlet
    {
        type            fixedValue;
        value           nonuniform 0();
    }
    wallInner
    {
        type            zeroGradient;
    }
    procBoundary1to0
    {
        type            processor;
        value           nonuniform List<scalar> 
29
(
69.4461
69.4461
64.4691
63.2534
69.2721
69.6555
101.565
71.4473
76.1805
66.1421
68.5945
69.6555
64.4691
70.4772
102.291
102.704
69.2721
69.527
63.2534
70.355
102.87
102.902
70.7129
101.562
101.562
70.7129
103.558
101.68
103.558
)
;
    }
    procBoundary1to2
    {
        type            processor;
        value           uniform 69.7041;
    }
    procBoundary1to3
    {
        type            processor;
        value           nonuniform List<scalar> 
48
(
70.1955
71.6107
71.1312
71.1312
73.2691
71.7637
71.7637
67.9802
69.7337
72.2903
70.8579
72.2903
72.5646
67.5002
68.0527
72.5646
70.4084
70.4084
69.0967
69.0967
67.7503
67.805
69.4108
71.0913
71.0913
70.3802
68.0364
68.0364
67.9407
71.9154
71.2096
67.9407
67.9802
69.281
69.3408
71.9154
68.1423
70.8579
70.2264
73.3894
67.5235
68.58
69.281
69.3408
68.6401
74.2019
73.247
67.5235
)
;
    }
}


// ************************************************************************* //
