/*--------------------------------*- C++ -*----------------------------------*\
| =========                 |                                                 |
| \\      /  F ield         | OpenFOAM: The Open Source CFD Toolbox           |
|  \\    /   O peration     | Version:  v1912                                 |
|   \\  /    A nd           | Website:  www.openfoam.com                      |
|    \\/     M anipulation  |                                                 |
\*---------------------------------------------------------------------------*/
FoamFile
{
    version     2.0;
    format      ascii;
    class       volScalarField;
    location    "0.33";
    object      epsilon;
}
// * * * * * * * * * * * * * * * * * * * * * * * * * * * * * * * * * * * * * //

dimensions      [0 2 -3 0 0 0 0];


internalField   nonuniform List<scalar> 
1431
(
114.555
28.9076
36.0292
12.4719
1.69105
3.20457
5.62766
111.452
13.173
5.03546
94.2316
82.6886
39.9413
4.82838
1.28234
5.10482
4.52427
12.1915
5.94797
16.5416
205.415
5.76445
3.74168
98.2906
8.87503
45.9318
61.1732
8.75012
76.1598
35.1687
35.6366
42.3447
35.8907
2.29411
6.74767
24.2261
54.295
1.13092
22.4272
36.3206
88.0627
72.2758
43.4199
8.56058
3.16013
3.62702
2.93599
50.4777
6.19933
5.71219
22.2932
11.701
19.8338
147.72
17.1164
53.0051
1.4987
120.505
6.39015
2.46344
2.6605
10.2733
2.39837
1.30311
34.4505
5.29147
23.4391
19.0831
2.62398
11.8712
87.4263
3.19592
9.67105
2.06986
6.52478
2.41709
32.0138
47.0464
5.17083
10.1101
5.17554
17.8031
13.3382
3.03967
38.5868
18.0756
5.54698
1.06279
21.9427
18.4128
1.75772
1.09081
2.32876
5.13588
9.64264
34.7192
128.163
27.7025
10.5036
26.2845
35.2304
13.4102
4.92298
10.3385
52.1223
32.4995
58.0434
92.1977
2.04846
5.38436
8.10086
38.5885
25.6652
101.635
19.4476
1.71292
4.68049
11.9527
16.0699
1.75469
16.4349
1.19217
139.448
8.97063
42.6939
4.91245
32.472
1.0345
28.7
6.06026
6.06703
17.7393
8.08019
10.3149
27.3377
8.39649
28.8072
7.75235
33.4686
1.37177
25.6097
31.0999
6.50628
8.66933
2.30571
36.0167
2.63291
26.7945
4.63976
10.2249
4.20123
3.02249
38.1391
17.6429
49.7002
4.28617
29.8036
31.427
16.5073
8.71586
32.467
38.8189
6.4386
5.4115
94.8986
125.752
113.61
10.931
2.82946
24.3346
26.4243
19.2947
33.8196
34.0305
30.91
28.5541
6.39817
3.49834
17.8953
7.85272
6.50949
21.9829
40.6141
204.136
3.79105
107.057
111.6
31.387
27.9585
28.5918
24.1564
31.0452
32.8877
124.913
14.4793
25.9106
32.1021
5.04764
2.34149
50.6373
36.6379
6.20816
56.0325
4.89694
35.9374
23.8245
46.0848
2.78298
47.8823
42.215
47.8886
7.22578
54.0745
34.581
40.1544
36.5876
37.0831
5.64796
40.7058
48.2856
49.6897
38.8773
8.40202
5.82247
53.8866
77.1789
72.59
25.6066
48.9943
37.7038
46.6347
35.8331
28.3401
32.0748
43.7896
25.6927
49.3933
34.7146
25.7887
34.8679
12.2827
18.8166
59.5464
29.3336
28.8353
29.5263
32.2124
60.2723
53.2133
2.52373
0.795547
28.6896
8.35534
5.57849
23.5506
69.7087
8.04334
106.047
30.3415
35.2324
45.1265
32.2863
41.8559
5.58552
60.4711
57.448
31.9815
201.513
47.6476
1.68085
1.79368
44.3113
26.0403
27.3695
32.5847
34.3871
31.9327
26.3354
59.1318
67.6452
18.3121
45.7439
36.2159
41.2749
12.9464
21.5192
69.1819
29.366
40.3144
35.5778
2.04366
43.574
32.6882
24.0482
30.4247
50.3849
138.683
125.034
25.8777
65.8937
21.1719
98.9995
23.342
36.1694
38.1165
7.75845
34.5173
33.5527
64.9428
23.5175
19.5485
4.7305
6.34732
76.5869
17.1693
30.5089
5.24956
15.0408
3.30424
561.798
30.3899
28.6838
22.1069
27.0602
3.92398
45.996
27.6292
55.9073
173.845
5.62419
87.8044
3.80086
40.0935
6.54523
10.3208
37.3639
91.6004
24.7789
3.87049
78.8866
78.2067
38.8961
13.1269
96.6147
8.40795
23.8448
34.1035
29.5706
14.7099
29.1819
7.24259
10.2331
24.2868
18.3162
10.0186
58.3131
30.0443
37.764
27.0844
77.1152
6.22034
87.0777
75.666
20.8027
3.01415
26.7512
21.3945
298.669
51.3333
27.5487
79.5041
2.26771
21.7829
24.2429
97.296
172.083
24.8833
22.8302
14.3737
227.695
38.8675
3.57463
55.7905
12.094
495.814
4.83751
10.9775
3.76093
3.84571
19.9259
14.943
12.0159
12.8222
7.4382
31.3426
21.7303
45.3909
48.6806
34.3475
3.54937
14.0079
99.9013
31.1542
74.9649
68.1746
34.88
2.74158
16.5031
10.599
30.5754
19.082
4.2747
26.7099
39.2377
2.88885
14.9505
11.7493
40.1689
3.53379
23.2988
65.1296
39.9234
39.0601
14.1791
20.5483
3.90762
10.5728
15.5097
14.634
69.324
29.0967
28.8842
34.0585
30.1351
35.6981
35.247
31.7278
41.298
34.8816
41.8685
6.74103
32.6917
7.61062
7.32235
8.92518
4.38381
2.98925
2.84006
4.63129
5.48792
4.87477
9.15483
5.90403
3.93013
4.85976
6.36079
6.04116
99.741
2.54605
33.0849
5.76706
18.8097
91.2502
7.11753
35.3405
19.3652
7.51493
85.6775
15.8421
80.7373
6.74767
7.44326
6.21848
7.36433
33.9662
30.2647
11.3628
15.8739
4.0179
6.7096
7.71461
5.00914
35.0534
16.0379
10.4601
7.1772
5.203
9.03229
23.249
28.6704
38.989
12.966
19.3157
35.194
8.20386
6.36514
17.7446
41.1114
36.3413
1.47557
55.7488
45.2267
21.6619
96.076
39.8187
31.1379
5.82687
56.5256
66.5015
0.933618
40.3643
27.3899
7.20226
14.3519
123.572
10.8454
58.1347
38.1368
35.4843
32.7691
2.4633
68.5336
1.25111
6.8729
41.0627
13.0673
37.3739
37.0067
8.09602
10.8048
36.5274
41.7198
39.2333
85.8927
47.7848
9.52141
43.8946
15.1434
39.7806
5.15167
37.6349
86.7415
122.769
61.5332
2.75635
31.2937
31.8334
22.1966
41.9092
48.6195
9.97015
88.3456
103.039
13.8894
4.47805
85.0731
13.8149
53.9473
17.4376
277.959
46.9629
32.5047
23.7516
32.7573
460.918
44.9331
55.1501
5.5954
37.903
81.1946
23.7293
18.5664
35.5838
73.1911
126.06
4.70157
10.6573
3.42854
29.4373
23.4728
26.2733
16.4681
2.71767
9.07228
10.9982
42.7978
27.8621
45.5966
149.15
0.964376
29.6656
194.438
25.494
22.7266
58.6397
46.1871
16.9487
9.49916
32.4482
39.7877
30.2599
37.9192
16.1662
52.518
8.23056
3.53384
93.2981
11.1588
16.4112
4.90842
12.0121
43.0042
13.8688
31.1837
2.54123
74.2882
45.1229
9.26558
20.2228
7.15673
21.7972
34.2777
106.03
11.8083
35.2336
8.99231
51.1441
0.794363
10.6379
36.0051
34.6304
29.6957
23.4721
36.0256
22.1736
7.01664
81.8878
17.973
8.91896
36.9056
51.5771
27.7889
19.2312
14.374
111.997
38.2775
6.18824
3.73902
37.4707
23.2357
34.6202
57.0295
2.88362
8.82173
4.60632
3.56218
5.97171
11.335
10.779
24.4801
32.135
52.1651
40.6396
26.4616
52.1918
49.9905
18.7739
12.8654
23.4232
14.1258
18.7339
12.418
69.7778
42.4758
28.4919
23.0622
72.54
6.48035
3.4524
28.1641
32.361
61.4942
18.1481
68.7755
30.4108
22.1157
32.0934
5.21894
5.14745
9.17794
75.5804
46.8929
116.311
8.47957
7.84325
39.8587
16.6209
2.58838
7.71937
17.3354
12.6365
7.69617
29.5671
8.09869
59.2569
75.9589
2.56342
14.4825
28.3196
7.7732
3.04676
65.7209
25.1961
54.6919
48.4962
116.609
39.2419
4.31008
22.4534
26.1625
118.092
24.7037
28.2675
28.7105
77.4802
7.05798
57.7848
43.3155
84.0185
133.997
9.66174
16.7189
14.7358
21.4238
119.708
41.7779
101.766
19.3348
68.4441
14.3311
35.6661
4.48712
23.9933
2.71741
25.222
4.25178
6.28056
8.61624
2.34228
8.89001
42.8967
37.878
8.54796
7.86487
148.581
2.51445
100.461
6.55555
2.41992
82.264
148.587
153.422
44.5609
5.52887
2.60742
61.1853
5.96703
5.93447
19.1329
31.6539
48.2105
30.4534
2.95387
83.7107
76.7763
20.0192
7.33652
42.5023
44.7741
29.7165
10.2691
39.5759
26.018
11.8526
10.0261
31.6575
3.21502
13.3951
34.217
15.8215
73.9897
13.0408
45.6717
52.3264
38.1497
7.54887
19.2828
30.9936
20.0808
34.9367
36.6978
6.49649
5.894
23.7226
27.9151
560.527
34.8809
3.90998
42.995
3.38677
339.155
4.73524
36.3949
34.9666
62.5646
115.303
26.5522
4.49469
44.5172
15.0071
2.52775
46.5446
20.5063
43.4646
11.0531
37.5104
79.3823
30.3532
3.07226
26.4342
41.6047
21.8327
70.7732
35.1615
22.8429
151.543
6.61761
41.1315
33.4828
66.2859
31.6023
19.4607
14.0507
41.5371
15.2553
26.3459
39.7851
193.566
45.7767
30.032
52.2051
28.9247
37.9126
41.5548
23.539
32.3013
6.79892
3.77375
26.3903
32.4135
49.2794
14.8767
3.44104
27.9043
37.1125
17.0257
33.8739
5.1312
28.6778
11.1067
40.3148
461.426
54.5676
2.74275
5.74285
7.16671
5.9317
25.2844
10.5572
16.4721
72.0471
17.8796
42.511
48.6627
365.096
117.227
63.0935
63.6976
61.578
67.2425
75.193
71.442
68.6374
58.2132
38.4665
36.0524
37.6048
40.5391
55.2072
74.3556
38.4967
43.5575
47.4455
35.7129
57.4378
56.5342
34.239
55.2267
52.6906
33.9414
49.1198
33.9847
21.8494
13.0037
20.0138
3.34769
5.88225
2.63775
41.2007
51.7448
27.1391
4.64373
19.8435
66.648
164.52
12.125
6.09398
26.2369
2.85383
32.3176
3.96605
5.19257
138.006
1.19154
45.4189
5.25935
15.5211
12.8267
57.7808
26.3684
35.9133
5.95491
37.4737
103.149
29.9304
32.0289
29.8749
14.6978
12.9379
3.95564
17.8413
23.8498
74.8353
35.0367
38.649
15.6951
38.529
5.78978
3.07736
55.8873
97.8361
31.605
40.1509
14.656
4.4122
6.80051
6.48232
17.1506
43.741
3.18781
7.7902
17.7529
25.0052
76.3927
2.64764
4.99473
8.3945
22.2301
6.44587
585.337
23.1733
35.1569
27.5322
126.744
32.0958
23.502
6.67911
7.18855
14.9033
1.73772
34.8569
18.2163
26.5484
307.755
50.8292
44.2904
27.8215
15.3902
39.6536
8.96045
58.5008
25.4418
0.934347
62.3865
40.6744
19.6025
84.4104
58.8327
19.164
7.14849
15.9844
1.81256
66.6515
15.359
9.32377
28.0579
11.6047
16.9302
8.5594
12.7762
43.403
360.291
5.28676
77.6839
36.3452
5.28764
41.8538
141.064
34.9735
2.45037
35.972
31.8291
27.8699
21.3906
3.7425
45.9505
6.33807
24.6585
28.7136
58.5431
11.1485
8.43891
24.4526
9.82996
69.3401
34.2715
92.5408
51.6383
88.1235
31.7017
56.3779
38.6807
9.1141
5.27336
18.5368
6.90172
15.8257
6.03986
8.92992
49.923
3.47575
17.9222
52.7007
32.765
30.8958
24.0388
36.0513
42.5402
13.5952
43.6123
43.995
40.5855
41.8787
42.2248
31.3407
34.0721
37.7741
43.4442
48.0908
49.2307
41.49
48.4002
9.38884
12.4108
15.0542
9.88423
12.2125
13.8184
34.2774
2.22996
45.8328
47.9549
79.692
35.9357
6.11172
16.4207
5.44616
5.77871
16.7262
11.9069
38.1509
6.02223
7.27812
15.7702
0.909665
8.81471
19.725
51.5799
5.9414
27.0286
20.8737
12.6983
459.16
40.1443
12.4554
1.10448
13.9709
24.1253
38.7686
39.7482
26.7384
31.2786
6.10088
2.50532
19.7485
35.9325
6.12694
5.57508
5.9062
5.84051
7.07745
29.5663
15.1537
54.2284
47.9338
9.71638
29.8596
154.322
3.38765
39.1236
70.7928
7.61634
28.3597
5.45307
3.78922
4.00036
28.4656
6.37293
9.12406
66.9085
91.4462
56.8797
37.378
42.1308
1.29568
5.85086
66.6972
52.8607
21.2311
26.698
53.3027
53.1125
19.0524
28.5594
36.1479
62.4142
14.735
6.76923
31.4896
4.63303
8.35763
65.9988
35.8808
41.0378
27.0986
16.1681
4.74842
54.265
45.7976
60.7691
92.0837
44.0881
6.91039
15.6904
3.23337
3.21043
42.0696
50.0465
62.9989
15.8494
9.3225
7.30292
66.1897
15.1639
117.109
67.3212
27.2209
5.69024
178.719
1.28838
3.50036
8.08545
4.93538
9.89318
65.9067
15.2768
56.2267
39.594
21.752
2.94943
42.7769
49.5298
7.22169
9.03801
6.00162
7.05029
11.5432
17.7016
57.9362
27.441
11.0414
37.2052
12.7702
36.2147
12.1569
5.24978
12.9314
6.31125
27.1059
8.04683
367.71
45.3149
5.50218
9.33035
29.7986
6.90803
6.21851
74.4361
61.1196
13.8193
61.9265
2.57318
126.933
5.65778
1.91402
32.5024
4.14215
19.2363
4.87814
103.881
75.8063
157.068
6.22685
42.101
4.68369
9.24392
5.25257
3.69577
73.2299
4.35703
17.959
9.03596
109.868
6.30012
7.8568
25.1152
29.3858
24.6089
7.01038
25.1726
29.1052
62.9924
36.8663
26.5468
2.20831
9.87512
9.68852
22.5306
94.164
57.9915
77.5749
39.5482
60.238
0.852447
92.9477
26.1046
46.0514
154.799
22.1003
6.49043
6.741
39.2967
63.9761
23.7144
48.5113
5.62912
158.797
52.1759
30.6963
21.4482
311.74
3.62844
56.8878
19.3088
33.2075
50.9642
5.72822
122.892
15.6419
18.2801
5.16599
257.316
10.882
77.8169
17.6206
35.1975
62.71
127.553
115.572
46.0371
82.415
5.35458
8.5848
6.50089
55.6581
1.11154
28.9352
5.94209
7.95457
91.1241
231.486
29.7182
6.94984
9.0225
28.8175
20.6603
5.84867
7.66502
158.104
5.78164
4.84882
50.6454
10.0207
2.27428
43.1709
0.945339
10.7634
20.3506
19.5071
214.667
18.8911
4.11179
1.28737
15.0609
29.1054
39.6716
3.80613
14.8481
15.4233
38.6506
35.8138
41.3569
18.7449
40.7439
8.42215
51.1993
28.0933
7.42821
19.6271
20.3729
6.99446
18.4715
31.5025
30.1242
38.3854
7.5401
10.2552
19.2349
22.49
2.87799
68.7256
18.2854
26.0842
20.2129
49.2408
24.5478
18.6115
25.0305
21.998
1.4413
18.9041
25.5983
52.7672
27.7313
37.9439
2.44898
25.1141
5.76798
13.7877
2.60561
11.541
19.0689
73.8378
8.48211
53.1839
84.1524
102.88
20.839
79.8602
24.7094
60.7603
21.1164
30.5592
107.95
70.1668
11.2739
1.79675
2.49708
28.9439
58.9332
2.45229
1.28582
19.7146
45.7184
102.618
31.1994
42.8116
8.63415
1.83907
3.98023
2.02994
)
;

boundaryField
{
    frontAndBack
    {
        type            empty;
    }
    wallOuter
    {
        lowReCorrection 0;
        type            epsilonWallFunction;
        value           nonuniform List<scalar> 
96
(
76.1598
35.1687
34.7192
69.7778
72.54
68.7755
9.17794
8.47957
7.84325
16.6209
7.71937
12.6365
8.09869
75.9589
14.4825
19.3348
68.4441
35.6661
7.33652
10.0261
7.54887
11.0531
37.5104
21.8327
70.7732
63.6976
61.578
67.2425
75.193
71.442
68.6374
58.2132
38.4665
36.0524
37.6048
40.5391
55.2072
74.3556
38.4967
43.5575
47.4455
35.7129
57.4378
56.5342
34.239
55.2267
52.6906
33.9414
49.1198
45.4189
74.8353
35.0367
43.741
7.7902
76.3927
44.2904
84.4104
77.6839
36.3452
34.9735
24.6585
8.43891
9.82996
92.5408
42.5402
43.6123
41.8787
42.2248
31.3407
34.0721
37.7741
43.4442
48.0908
49.2307
41.49
48.4002
9.38884
12.4108
15.0542
9.88423
12.2125
13.8184
35.9357
7.27812
35.9325
37.378
62.9989
7.05029
27.1059
29.1052
77.5749
39.5482
10.882
82.415
91.1241
9.0225
)
;
    }
    inlet
    {
        type            fixedValue;
        value           nonuniform 0();
    }
    outlet
    {
        type            zeroGradient;
    }
    wallInner
    {
        lowReCorrection 0;
        type            epsilonWallFunction;
        value           nonuniform List<scalar> 
126
(
6.39015
2.46344
2.6605
10.2733
2.39837
1.30311
34.4505
5.29147
23.4391
19.0831
2.62398
11.8712
87.4263
3.19592
9.67105
2.06986
6.52478
2.41709
32.0138
47.0464
5.17083
10.1101
5.17554
17.8031
26.2845
1.71292
4.68049
11.9527
16.0699
1.75469
16.4349
1.19217
139.448
8.97063
42.6939
4.91245
32.472
6.06703
17.7393
1.37177
25.6097
6.50628
8.66933
2.63291
10.2249
3.02249
17.6429
94.8986
6.50949
107.057
111.6
14.4793
47.8886
1.68085
59.1318
67.6452
2.04366
138.683
125.034
65.8937
98.9995
4.7305
6.34732
76.5869
45.996
27.6292
87.8044
78.8866
78.2067
37.764
87.0777
75.666
16.5031
40.1689
96.076
123.572
10.8048
15.1434
86.7415
22.1966
88.3456
17.4376
126.06
3.42854
149.15
194.438
30.2599
106.03
23.4721
111.997
2.88362
59.2569
2.56342
82.264
2.74275
25.2844
97.8361
53.3027
29.7182
6.94984
11.541
19.0689
8.48211
84.1524
102.88
20.839
24.7094
21.1164
30.5592
107.95
70.1668
11.2739
1.79675
28.9439
58.9332
2.45229
1.28582
19.7146
45.7184
102.618
31.1994
42.8116
8.63415
1.83907
3.98023
2.02994
)
;
    }
    procBoundary3to1
    {
        type            processor;
        value           nonuniform List<scalar> 
48
(
59.378
104.761
84.6609
69.7509
67.268
124.571
104.761
11.6105
27.045
3.03713
3.03713
5.88494
5.88494
35.0117
39.8061
7.00715
6.02643
5.533
6.02643
5.04606
18.5591
15.6684
5.04606
75.9234
2.01104
7.64409
9.53412
15.6684
7.97842
15.6034
15.6034
9.11787
9.11787
27.045
6.59772
62.5399
13.6985
2.01104
46.6989
54.0245
35.0117
14.2694
16.1622
5.04606
39.3219
75.3088
63.1576
23.3552
)
;
    }
    procBoundary3to2
    {
        type            processor;
        value           nonuniform List<scalar> 
29
(
7.14147
7.14147
2.45727
5.53591
24.1451
10.5434
7.7094
11.5038
4.83502
4.61206
13.7818
21.4327
4.22981
13.3189
5.87462
10.0147
4.38335
5.01163
6.63884
7.15206
5.65618
4.38335
9.34672
5.01163
5.96582
4.94156
5.01163
30.4656
30.4656
)
;
    }
}


// ************************************************************************* //
