/*--------------------------------*- C++ -*----------------------------------*\
| =========                 |                                                 |
| \\      /  F ield         | OpenFOAM: The Open Source CFD Toolbox           |
|  \\    /   O peration     | Version:  v1912                                 |
|   \\  /    A nd           | Website:  www.openfoam.com                      |
|    \\/     M anipulation  |                                                 |
\*---------------------------------------------------------------------------*/
FoamFile
{
    version     2.0;
    format      ascii;
    class       volScalarField;
    location    "0.01";
    object      epsilon;
}
// * * * * * * * * * * * * * * * * * * * * * * * * * * * * * * * * * * * * * //

dimensions      [0 2 -3 0 0 0 0];


internalField   nonuniform List<scalar> 
5794
(
9.87658
8.09476
8.21499
10.2213
8.41066
8.59764
7.82996
7.83871
8.25488
7.78185
7.79838
8.1833
8.04627
8.44635
7.94805
7.87086
9.89635
8.14855
8.33424
8.35573
123.304
8.98235
8.17492
8.13829
8.19603
33.8522
8.27856
8.10377
8.37752
10.6592
7.77787
7.71838
7.70106
7.93494
7.93047
7.94661
8.83042
7.79579
7.78302
8.0831
8.08027
8.12127
8.77506
9.30123
7.94559
7.7373
8.04427
7.79963
8.33511
9.23483
10.0288
7.75869
40.4378
8.72797
10.8205
7.99889
9.71446
8.34762
7.86991
54.4764
9.96232
8.1306
7.83141
7.76834
7.82445
7.84695
7.97355
19.7448
8.95985
8.11751
7.86122
8.08366
29.5152
8.03149
8.36368
8.78683
13.5448
28.1587
9.30898
12.4649
10.83
8.60217
7.89872
7.83534
7.80962
14.0599
18.1126
12.4145
8.62565
9.02544
8.0373
10.8195
8.44382
8.2937
8.99227
7.8701
8.03742
8.44085
9.67844
9.78668
92.4794
9.81779
7.95443
7.9868
9.53224
7.86377
7.98495
7.96204
7.62862
9.73728
7.6723
8.44482
87.8926
7.84557
8.39725
8.14659
7.94642
8.10379
10.1197
23.0771
7.9194
12.0884
8.9828
8.3126
7.83168
7.94424
12.0584
8.41388
8.07856
7.99098
7.97519
7.89955
9.7979
27.7835
7.86073
7.88211
8.50367
7.96587
8.02247
7.85465
8.79591
8.21907
7.92856
8.11925
8.23456
8.31514
9.84576
7.98808
8.17522
9.32188
9.28803
7.91391
7.8558
10.3859
8.23722
8.50189
7.38889
8.08227
7.89363
7.30781
7.85564
7.67787
8.37529
7.71373
8.22512
8.95103
8.67629
8.57995
7.69963
10.0304
9.68317
7.28145
9.43267
9.46076
9.53626
8.1472
10.4933
8.27037
8.27977
9.00594
8.34076
9.39776
8.5777
8.61094
8.33727
8.91453
8.4805
8.52027
8.89969
9.94079
8.17987
7.69824
7.35947
7.44422
8.86613
8.99739
8.80541
8.40822
7.43734
7.97539
8.85732
8.05961
7.83588
8.24558
8.26787
7.69673
8.7849
7.90165
8.64096
9.64101
10.7091
8.32894
7.78713
7.78646
7.90787
7.93893
7.94343
9.29011
7.84571
7.85102
8.37093
8.10523
7.97425
8.47241
9.64683
10.504
9.74923
7.92281
7.99295
7.91692
9.38861
9.28875
8.89882
8.07007
8.49147
8.25116
8.49308
7.88123
8.79031
11.6684
8.84666
7.98753
8.14244
10.3184
10.0181
7.98818
7.88292
8.18021
12.1641
14.1653
18.9269
7.84619
8.51595
7.9276
8.37169
8.77765
7.73702
7.9418
7.90786
7.76408
7.93213
7.845
7.84476
7.87388
8.93478
8.31399
8.75414
7.93699
7.66669
7.84017
7.88602
7.85903
8.79182
7.83465
21.8689
8.07142
8.44322
8.03033
7.93326
8.52235
7.92176
8.01548
8.41303
8.28774
8.37592
8.856
15.9753
10.0276
8.40825
7.92489
8.24151
8.24123
8.09131
7.90735
8.49649
38.2113
9.69417
9.42777
9.7333
7.8461
9.85264
122.521
11.9239
7.94249
11.978
8.21789
7.92649
8.74426
7.78411
8.02082
7.8282
8.15928
9.20702
7.84613
10.4959
11.4502
7.87897
7.98538
7.72404
9.35221
9.12956
8.71705
8.39322
8.27631
7.84944
7.89052
7.8747
7.21729
7.41502
7.27158
9.15179
9.38539
8.04275
7.6493
8.03949
8.19223
9.17762
9.07809
9.61652
8.77861
9.30808
9.62616
7.67793
9.24857
9.22347
8.6491
8.7231
9.38314
8.27736
7.99761
7.64142
12.0397
8.40581
9.11074
8.43464
11.116
9.01271
8.93476
8.02215
7.98794
7.8824
7.97611
8.01409
7.92317
7.93652
8.07635
9.14083
8.85509
10.0039
8.97165
7.97443
8.05244
7.95751
8.04931
7.85993
7.71815
8.74339
15.3077
10.0639
8.09434
8.35225
7.92956
8.6972
7.87389
7.8576
7.89121
8.12482
7.9049
7.93087
8.40606
8.31687
9.16927
8.03488
7.94018
9.31437
9.52161
9.35364
16.0141
7.86838
7.9712
7.94172
7.94645
7.97388
8.89849
8.07085
7.94717
15.6898
8.35804
7.90824
7.98497
8.23922
8.85471
7.92134
10.0617
8.69831
9.51807
9.17837
10.4247
8.10313
8.13314
9.81389
8.64146
7.85769
8.05771
8.28956
8.2373
8.44533
7.8456
8.08145
8.57809
8.0068
7.99331
8.37626
98.3748
7.80482
8.05922
8.43894
8.08565
7.82276
7.80244
7.89254
10.3172
7.56036
7.54192
7.88212
8.14848
8.54484
7.86931
23.5595
9.38466
8.71758
8.11403
137.865
8.703
8.1637
8.05053
7.8604
7.94103
10.8292
8.56593
9.34174
8.32505
62.6282
7.98123
9.65902
7.97449
8.98531
8.67541
7.86137
9.07664
11.4609
8.60142
7.90468
7.85795
7.90226
8.59731
9.09968
7.96506
9.92697
8.51979
68.7488
9.35162
8.37945
7.86268
7.86718
7.83888
8.30024
7.88875
10.3758
9.22867
8.23809
8.89472
8.71173
8.23791
19.3537
7.86562
8.20977
7.90324
7.86642
7.91257
8.58342
8.33152
8.45664
7.91635
8.17176
8.30703
9.8652
7.99659
7.89803
7.84568
7.8187
7.9198
8.07804
7.89276
7.84884
9.4642
8.3729
7.8789
8.0584
8.20051
8.58216
7.92929
8.49982
8.16358
7.87253
8.27755
11.8259
7.95867
8.34947
8.98155
62.3032
9.48339
8.87948
7.85694
7.91558
7.92147
8.12404
8.23653
7.92948
7.90047
9.26306
162.317
8.48888
9.5666
7.89723
7.85826
9.51231
8.03196
7.88496
8.39976
7.94585
8.12354
9.91848
11.052
8.91948
8.0486
45.9815
9.06657
8.39987
9.1669
47.6353
8.88616
7.96052
7.98794
8.89311
8.1409
7.90782
7.90902
10.8051
7.84477
9.58471
8.52444
11.5655
13.3131
26.8139
9.08336
8.59133
8.69154
8.62706
8.7409
8.52203
11.1362
8.09129
9.02123
7.91758
8.46143
7.84593
8.06568
9.51125
7.87277
7.845
8.38684
7.86911
8.22255
9.3801
7.88379
8.06754
12.7773
7.92432
8.14127
8.03525
9.51189
8.41261
8.0304
7.85318
8.08174
70.1492
9.00608
10.4822
7.93187
9.04657
8.9701
7.99329
18.7957
8.14764
7.98761
7.89261
9.70148
8.40415
9.46478
9.42997
7.94202
7.93212
7.88378
8.46141
8.53677
7.92572
8.34694
8.36086
7.89126
9.0684
8.04973
9.5312
9.58779
8.04301
8.08419
33.4652
25.9447
7.97788
8.15049
8.04254
7.85361
7.85894
11.4773
8.96183
8.18311
8.80056
72.1255
7.90465
7.90076
10.6872
12.7936
7.86467
8.64216
9.5717
8.29177
8.71435
8.68883
12.753
7.85941
7.93081
9.18039
8.98377
84.8174
8.51234
9.51378
8.14595
9.52628
18.1377
8.16145
7.86356
13.807
10.9546
9.02409
12.3775
8.29015
8.00018
7.88019
8.11758
11.1932
8.52246
7.97605
8.23501
7.8503
8.89739
9.90121
9.13309
7.87167
7.92554
7.86306
8.0652
8.35322
28.1733
9.61383
7.87462
8.11584
7.87077
9.93699
11.2974
9.22705
9.17481
10.0912
9.62983
7.91899
9.11954
8.20412
9.17792
7.8939
7.8642
8.2762
7.86408
8.76004
11.1933
8.39783
7.9032
16.4779
8.2342
11.5904
7.94999
7.86048
7.93349
34.7154
8.33195
7.87381
8.65974
11.9247
8.09371
13.7875
8.08168
11.1824
9.0376
22.691
8.27536
7.94212
7.89667
9.37457
13.3379
7.86431
10.1581
8.3104
8.00029
10.1224
11.1267
23.1467
13.5623
8.23888
13.6429
7.94713
22.3891
11.4091
10.1199
13.0363
8.36507
7.9604
8.47505
8.04598
9.56256
8.21316
8.87848
8.38293
7.92523
8.62025
9.02642
8.90085
7.97612
9.93731
19.2534
8.29736
9.5093
8.15934
9.13241
7.90386
8.41713
7.8736
7.92221
7.8825
8.17199
10.8162
8.0973
8.45494
7.84984
9.51799
44.3687
8.86285
8.12851
8.9154
18.2412
7.87938
8.35452
10.2924
8.48764
8.21827
7.98511
11.1269
8.83684
17.3811
8.11766
123.467
8.72148
32.4791
8.46542
7.87191
8.74883
8.14687
9.26004
7.96342
7.84981
8.10189
8.35013
8.36679
9.60264
8.26655
11.2159
8.60174
7.86718
7.89427
8.12046
7.90266
8.02701
8.05055
8.35339
24.4573
8.07518
8.03952
7.88862
9.45342
7.97703
7.8524
7.87078
10.2763
8.03149
7.85803
8.74416
7.85233
8.03438
7.85027
7.88155
18.228
12.1274
11.2971
29.3921
7.87135
7.89673
8.36386
80.164
7.86223
9.02553
8.67933
15.8864
9.25087
8.35407
8.01088
11.7742
8.94299
7.93201
7.94822
8.0933
7.92671
7.85322
7.90422
8.84884
9.01466
9.63354
7.8973
8.79988
11.5165
30.3322
7.87943
8.21771
7.89861
8.25803
14.8829
7.96275
9.05394
128.716
7.96649
7.88934
28.7815
8.42259
9.72872
10.9932
9.05665
7.97446
7.79525
7.85046
7.86919
84.2934
7.92815
10.45
12.7172
7.94434
8.31646
8.50573
7.92031
8.05224
7.86343
8.22604
9.25143
8.08366
8.32228
7.84427
7.93997
7.91837
9.03926
7.94037
8.27946
8.54953
7.84427
7.92566
9.2641
8.09473
10.1989
8.05939
7.85044
8.82332
9.93796
8.57067
8.06336
7.84503
8.42129
8.16278
15.4661
8.57011
12.4831
15.3959
10.3888
12.2692
9.51667
10.9055
13.9988
16.4308
21.5706
15.5909
11.8847
233.369
8.02142
7.96107
8.21907
9.5679
8.74213
8.6235
8.17583
7.96112
8.38256
8.05905
7.84524
8.67474
7.8456
11.4826
8.25278
7.98478
94.0538
8.10107
8.61121
8.95961
10.2965
13.9731
11.9702
104.193
7.87358
7.87128
8.54282
7.85844
9.41122
9.27181
7.85984
7.88129
8.36987
7.99062
7.84472
7.88708
7.88288
9.02253
7.89171
8.05842
7.94226
7.84416
8.41874
12.5261
11.7822
11.0852
12.1071
7.84893
10.4869
9.47968
8.73594
8.1703
19.6104
7.93223
7.86845
12.2805
8.49945
8.00221
12.6456
75.0946
11.5093
8.7731
9.2385
7.85402
12.9275
50.5156
8.40766
8.24304
17.8071
8.86769
8.3203
8.85241
11.4875
7.84456
8.2586
8.80846
8.19791
31.1509
11.2991
13.365
10.0758
10.351
12.406
15.9163
10.8342
7.92847
8.20797
8.6919
8.12664
89.9592
8.37907
8.20042
8.894
8.37091
8.3565
8.1603
8.18551
9.83115
8.00361
9.21149
8.15091
8.65533
7.86785
7.88622
12.0593
13.6843
7.85709
7.84984
7.99825
8.52345
7.86621
7.86041
7.89093
7.93637
27.0425
7.86025
8.00252
8.54748
8.25969
7.90585
7.9728
7.97561
7.86096
8.16119
28.4073
8.98318
8.05526
35.1767
7.89614
7.84675
12.7553
7.87321
7.90252
8.24557
8.19359
8.22617
7.85604
8.64648
8.62759
8.12415
8.92853
7.92339
7.90595
8.0221
8.04284
8.01807
7.89529
7.94039
8.75096
9.19727
8.4869
7.97823
7.92569
7.96151
9.8583
8.25303
9.93467
15.6263
9.8663
8.8475
8.81554
10.0843
13.2906
13.9962
9.75046
18.1521
10.0086
9.90062
43.3884
8.10986
9.18212
8.12175
7.93842
7.84774
9.09573
19.1026
7.92594
9.07765
8.04313
8.1433
8.00549
8.85331
8.004
14.4831
10.0385
8.89501
9.10621
7.94392
7.86544
7.89699
7.9613
7.95817
8.11299
10.1765
8.02479
7.852
7.89383
8.01245
7.92469
8.61497
8.58798
7.98795
8.05848
7.92003
7.86473
110.013
23.1186
7.85052
8.20967
7.90237
7.90156
10.9227
8.68655
12.6182
9.22167
9.68921
7.89096
8.48407
7.93427
8.09314
8.14592
8.09768
8.13423
7.94135
8.21144
16.0838
13.4294
14.857
8.14333
99.5144
8.69387
9.0937
7.92061
8.18991
8.8364
8.71205
16.2336
18.0954
9.30334
8.80425
8.29665
8.81244
9.30979
8.59076
9.52237
8.1748
9.56571
7.9815
7.97997
7.92668
8.7725
8.74461
9.00353
9.05683
7.85782
8.53816
9.41334
10.6134
25.3056
8.15126
7.86263
8.09033
7.88182
11.8662
7.8531
7.93716
29.5057
9.79956
8.15631
7.86105
7.87653
7.87515
10.578
12.3134
10.5251
13.4172
20.0374
7.96311
7.86762
7.98412
7.89603
7.92272
7.84729
8.7562
12.5836
9.95949
8.00018
7.84896
7.83748
7.83888
10.2159
7.87554
14.4511
7.88889
9.81856
8.45477
8.07733
13.6212
8.40416
8.2233
7.85034
8.02636
8.00646
8.71819
8.02919
19.6099
7.89313
7.86109
7.96615
16.5666
9.37694
7.86805
15.1342
12.5431
8.16271
8.46344
8.34124
11.2242
9.37335
42.1915
8.68104
8.42679
7.85487
8.09275
8.04785
7.87263
11.2404
7.95746
7.99116
8.28695
8.28363
8.02946
8.34365
7.89216
9.49371
8.22737
8.67934
8.40262
7.90345
8.18654
9.19274
8.02687
7.91588
9.70658
8.07193
8.86633
8.6778
8.52414
8.26518
7.88077
7.87321
8.33097
8.74821
8.07164
8.26959
9.54425
8.15719
8.41378
8.63419
8.26911
13.96
7.89793
7.92904
8.93725
8.17083
7.85858
7.99774
7.93301
9.33789
7.86038
7.88437
7.86723
8.78851
7.89343
11.0224
8.09189
8.55545
7.91797
7.86701
10.4567
13.1235
8.25273
13.8696
8.12659
8.36557
9.69893
11.1459
7.94575
7.92726
7.91504
8.01055
8.57228
7.93104
7.88525
7.84678
10.788
12.6885
12.3176
10.9782
17.4859
8.10733
8.01495
8.43981
7.84765
9.60626
8.00447
7.91546
7.9221
8.12933
7.93426
8.01373
8.16305
29.2817
8.0159
7.90835
18.9799
7.86313
8.01673
11.2752
8.06086
7.92551
7.85033
7.84815
17.4923
7.85656
8.12016
14.9272
7.8923
8.75521
7.9121
10.1415
10.0825
11.4763
71.4439
12.6044
8.38542
10.1473
8.13882
35.6906
7.95259
10.9691
9.70889
9.63161
9.30246
9.40899
8.93489
11.0418
9.28875
9.54117
8.93651
8.68356
9.61606
11.4517
10.2204
10.196
9.08791
9.02682
10.1351
8.75795
11.5381
9.68684
10.2576
10.297
11.857
8.29829
13.7171
9.88763
12.2782
9.06827
8.79143
9.50616
9.66732
8.76565
10.1027
9.95999
8.51063
9.71883
10.8603
8.47711
8.85984
9.85491
9.75345
9.82034
11.0684
7.92177
7.87297
8.42557
8.40063
8.12149
7.86967
7.8555
8.20806
7.92802
7.86706
10.7762
7.94911
15.8964
8.45775
14.301
8.67694
8.03471
8.75897
7.91519
7.91264
7.97933
8.31826
11.6401
8.07994
8.37955
8.25853
8.47223
8.33404
7.88004
10.401
9.16377
8.63163
8.28869
30.9414
7.94315
8.12828
8.30952
8.51491
7.89765
9.07622
36.6754
8.27767
7.99333
10.3638
8.63069
7.84078
7.84168
15.13
14.0217
102.754
7.85872
9.18704
8.55063
8.18556
7.91052
11.1193
8.07445
8.92953
8.28897
9.6325
11.1774
10.4274
8.31159
9.81777
8.92586
8.50958
8.55113
9.00042
9.40225
9.74313
9.71273
10.7991
9.83915
11.6805
9.59093
10.374
10.4103
10.3697
9.99729
11.1537
9.88239
7.92114
8.71115
10.886
8.31959
7.97073
13.966
8.08795
7.85
7.89523
8.04448
7.96918
7.95693
7.93113
8.5984
10.6102
7.94528
7.85898
7.8524
9.22429
7.90886
8.3638
7.87169
7.89686
7.90553
9.17061
7.87659
9.43542
8.25562
7.88389
7.99287
7.92091
8.27622
8.39996
8.14349
8.784
8.23881
7.86603
7.97727
7.88687
8.11585
7.92488
7.89537
8.32181
8.40834
8.04275
7.92989
7.94146
7.85034
11.7236
9.53341
14.1359
7.86836
7.92609
9.35111
11.2702
8.45566
8.55872
8.0548
7.95344
12.4366
7.85199
8.85073
9.74766
7.92088
11.9046
7.87917
7.90248
7.99214
12.4852
7.84808
8.53998
11.2971
10.8223
11.2593
7.91535
7.85078
11.8974
8.00389
7.85088
7.92352
7.90306
8.99191
7.91034
7.88522
8.26706
7.93046
7.84904
7.86704
7.90786
7.98896
8.65736
8.0757
7.94422
7.8716
8.17346
12.1445
7.86806
7.85353
7.86282
8.37021
8.13409
7.87616
8.06814
8.49105
17.0468
8.03704
17.5503
7.98823
7.98031
11.1741
9.09594
8.36141
7.86237
7.88743
7.93851
7.85443
10.5461
8.05357
9.82725
7.87021
7.87889
7.85293
7.866
7.86002
11.5303
8.22534
7.92634
9.7754
10.7568
8.50198
8.30461
19.6275
8.31007
8.02943
8.07902
7.84999
7.85507
7.91284
7.8623
7.94998
7.87802
8.06787
7.97433
7.93737
7.91981
7.99003
7.92173
7.91419
7.89216
8.17584
7.90985
7.90881
7.9083
7.92533
7.91321
7.95678
7.9067
7.90757
7.90156
7.84757
7.84755
7.84829
8.05647
7.85046
7.86293
7.91161
7.86862
10.7584
12.0423
8.76236
7.96141
7.88495
7.86395
7.88424
7.85765
7.98007
7.96511
8.47891
7.93249
7.91601
8.02022
10.0705
7.91437
10.6627
10.7555
11.9183
8.04846
7.89328
8.83096
8.0569
8.01844
7.90019
11.3848
7.88769
9.61258
7.95303
8.00219
8.55958
8.00949
8.37627
7.99332
8.05968
8.02531
8.53167
8.05659
7.93802
8.07806
7.85118
8.06518
8.11909
7.95648
8.32035
7.86329
7.84503
7.86215
7.85494
7.85045
8.1327
8.3627
7.88704
8.08236
7.85065
7.94858
7.87234
7.89031
7.85944
7.889
7.86509
8.44486
7.94113
7.93755
7.86133
8.39038
7.93441
7.8591
7.89757
7.93618
7.84713
7.86439
8.19298
7.85467
7.85226
7.842
9.40584
7.85487
7.85637
7.85819
8.25573
7.85272
8.0584
7.85365
7.85163
7.85376
7.84597
8.00947
7.85887
10.2313
7.9315
7.96504
7.88283
7.87436
7.87962
7.85411
7.84984
7.89949
7.9775
7.95777
8.00688
12.8334
8.18762
13.7292
9.52563
7.98659
7.88858
7.90585
11.9312
7.9511
8.02191
7.87522
7.84824
12.0251
7.91019
8.52141
7.93021
8.01713
7.88396
8.96794
10.285
10.4842
8.20892
8.07615
7.9501
7.95346
7.99459
7.96232
7.89964
13.299
8.0165
8.15661
8.6244
7.91989
13.7736
10.5772
13.2909
7.89448
8.60737
7.85125
7.90365
7.84598
10.8735
8.04525
8.62125
7.87136
8.35178
7.99803
12.8736
7.9268
7.88226
7.86565
12.0057
7.9267
7.87371
7.99344
7.87848
7.86928
7.91611
9.08911
7.94157
7.92114
12.1678
7.89972
7.95749
10.5544
7.87426
7.90244
7.88158
7.91588
12.4052
9.99566
7.90756
7.94516
7.90751
7.90068
7.91442
7.93291
7.99193
8.15384
7.88971
10.6732
11.4929
7.92442
8.86632
8.03886
7.85602
7.96445
7.88687
11.8541
8.03626
7.87462
7.85455
8.06051
8.08625
8.90374
8.5463
7.90306
7.84517
8.33628
7.9015
7.91445
9.94629
12.9738
8.02218
7.94681
8.01002
11.7287
8.1099
11.4906
8.08542
7.86105
8.1589
8.45397
8.38161
7.97076
7.92013
7.87318
7.85558
7.84503
7.93968
7.97331
8.25187
8.3503
7.88583
7.85942
7.8529
7.85941
8.24078
7.91411
7.84551
9.01963
8.12309
8.20774
12.6327
8.27018
7.85093
8.17833
8.42284
8.34954
11.937
8.11915
9.72675
11.1512
8.04423
8.42283
9.17333
7.90037
7.854
7.84986
8.4497
12.2605
13.2451
7.8466
9.63452
7.84564
8.49764
8.12593
7.85291
7.85954
7.84698
7.85891
9.31131
8.81396
8.25548
8.34546
8.99382
8.18184
8.41705
8.94317
9.29579
7.91235
8.1751
11.7861
8.09408
8.20884
15.8662
7.86818
7.85929
8.07146
9.7227
10.6795
8.16437
8.57409
9.06323
10.5345
12.8097
8.17673
8.52599
7.92669
7.84702
7.84549
9.73141
7.92504
8.2841
7.84732
8.8537
8.84196
8.20969
8.11541
8.2979
14.5111
11.8617
7.84541
8.32347
7.84819
12.3891
7.87324
8.74791
7.85342
7.91362
9.22507
8.47899
9.96266
8.637
8.92517
7.89095
10.2965
7.9338
8.62686
8.76065
7.85876
7.85897
7.99488
8.28375
12.2959
12.6515
12.5895
11.7284
12.1982
8.86906
7.97294
7.85082
7.84647
8.98279
8.38568
7.85467
10.4435
7.91681
7.9216
7.93574
8.22029
8.85032
8.33306
8.62623
13.1563
7.85104
9.0779
7.85506
7.92699
7.86317
7.8551
7.84856
12.8858
8.90664
7.9262
8.19173
8.40928
7.84965
7.84677
10.9449
11.8987
8.00997
7.87428
8.0399
7.86595
7.98484
7.88153
9.56526
8.91657
9.59867
7.88533
8.34152
7.85938
7.89569
8.57998
7.87186
7.95182
7.97541
8.62806
12.4583
7.86028
7.89555
7.88778
8.31307
8.70115
7.93959
7.95864
8.04518
11.3057
7.88887
8.03008
7.84992
7.84499
7.8958
7.91237
7.92189
13.7473
8.00513
8.94998
7.87764
7.87038
7.88868
8.92336
9.793
12.5067
10.2928
12.6771
12.1447
11.7657
10.0272
7.85228
15.9762
13.9652
8.34672
8.15788
9.48544
8.46533
9.01081
7.85245
8.41278
8.29647
8.54347
10.6678
12.5286
10.4788
7.90904
9.56439
7.84924
10.3678
11.9083
7.87032
9.63594
7.85791
7.84762
7.84523
7.85826
8.62555
7.9143
7.85093
12.1788
7.89374
7.8711
14.1403
7.85187
11.6714
8.87388
8.16949
8.18442
7.8601
7.85478
8.03602
8.93465
11.2688
8.60195
9.45715
8.3232
7.84699
7.86731
7.91947
8.41211
10.5792
8.37009
10.5313
7.85144
7.98858
8.03313
7.89725
9.41576
7.85579
7.91101
8.0576
7.85039
7.85807
8.55221
7.92064
7.96959
7.89538
7.87877
10.3678
10.468
8.2898
7.98354
7.93016
7.91231
7.95707
8.37174
9.88236
8.82638
9.0515
10.4578
9.70161
7.89566
7.86107
7.87817
8.05008
8.82671
10.6717
8.01632
9.14271
8.59448
9.06545
11.2325
7.93809
7.92597
8.14477
7.8668
7.84885
8.52647
13.507
8.55011
10.1809
7.85209
7.90359
10.278
11.523
7.8524
7.93876
7.89641
7.88996
8.30626
14.186
8.49771
8.12035
7.89556
7.86594
7.85277
10.1761
7.87265
11.8447
8.09302
8.06925
8.82715
8.20516
7.94898
14.1183
7.86505
7.90971
8.79176
8.21993
7.93213
17.4146
8.02127
9.73656
7.84799
7.88729
7.85735
8.25798
7.85242
7.87794
8.06632
14.7942
9.16472
7.8897
9.91221
7.95942
7.91037
8.84302
7.98571
7.88903
7.84644
12.5971
7.90229
8.19782
8.28948
92.6742
7.90317
8.33766
8.61991
7.87502
7.90736
11.4289
7.37611
8.14404
8.01213
7.97519
8.0577
7.85177
7.87995
7.89783
7.86967
7.864
9.58327
9.56419
7.86353
7.91026
7.88238
9.8316
10.3536
93.2285
8.7643
7.88904
10.9959
7.85927
10.1601
7.84595
8.41564
8.13035
7.91044
7.9492
7.87011
13.0723
8.98621
7.84625
7.91809
7.89393
8.00314
7.86384
8.25129
7.85709
7.88928
7.85415
7.8784
7.92547
8.5543
8.06023
7.90995
8.26699
7.85884
7.93471
9.77667
13.2024
8.0726
7.90632
7.86193
8.22083
8.03323
7.88708
9.08468
7.89135
7.85638
8.36551
9.12002
7.86311
16.9594
7.90716
7.86268
7.85206
7.88996
8.64298
9.31709
12.1816
7.87445
7.99987
8.06249
7.96489
15.4074
8.29974
7.9504
7.86339
8.69148
7.85971
7.89674
7.86464
8.48158
8.49192
8.76085
7.93562
11.8397
8.06337
7.85742
7.90475
7.87039
12.8731
11.9124
7.85404
7.93199
7.98566
7.85004
7.84623
7.87895
8.91876
7.9126
7.89378
9.04745
9.56779
9.54601
7.9132
14.0855
11.2373
10.2683
8.84548
7.87784
7.85041
14.2718
7.91393
7.86482
7.95844
8.01868
8.26263
7.88377
7.88163
8.45303
8.72582
10.3441
7.91325
14.1268
10.2074
9.65795
8.23009
7.89543
8.49986
10.4946
10.4903
8.31311
7.85714
7.87205
9.32452
8.05397
8.70036
16.62
7.94335
7.89068
8.48666
12.6629
8.35333
7.86927
7.84878
8.52895
8.02977
8.11823
8.39666
7.87825
8.29092
7.96458
7.86491
7.90512
13.9618
10.2041
8.05172
7.86293
8.17268
8.01457
8.1646
7.87283
8.67437
7.90081
7.85607
8.01877
7.98917
7.873
12.8235
8.03324
7.88328
8.33406
9.36576
7.88476
8.05068
8.06691
7.93021
8.70929
9.48588
7.84593
7.88458
7.93708
8.03232
8.66428
7.8877
7.91865
8.08639
7.89089
7.89336
7.87988
7.92047
7.87494
8.6994
8.3548
15.4204
7.87144
7.93107
10.7711
8.53768
8.76016
7.89195
8.70409
9.02844
7.91746
8.24206
8.13986
8.21837
7.98919
8.24753
8.13885
7.89692
7.93471
9.48055
7.88547
7.88873
7.8886
9.27396
7.93111
8.07774
8.14767
9.34761
8.16094
7.91953
7.9267
8.7849
8.18651
8.1763
7.90371
14.1216
8.89559
34.267
7.84429
7.95873
9.2753
11.2318
7.91653
8.45104
8.73998
7.9604
12.0797
7.93738
7.86108
7.87785
7.90544
7.90982
7.86974
7.90809
7.85798
7.86558
7.84412
7.92733
8.03549
8.27042
7.84594
7.91498
8.04491
11.4161
7.86511
7.88416
8.08401
7.87729
10.2581
8.87295
7.9738
7.96951
7.88431
7.94467
9.72759
7.86406
8.05388
7.90095
8.53728
8.75889
12.0513
8.07814
7.98753
9.33943
7.91301
7.8571
8.67929
7.84409
7.86678
12.0884
7.8688
8.10373
8.04338
8.04042
8.01147
11.7969
8.04835
8.00066
9.56525
7.94153
7.88496
7.92945
8.36079
8.19208
7.86004
8.09465
7.91966
7.92851
7.90496
7.84414
8.9524
8.07177
7.87786
7.90474
8.00446
7.98615
9.48795
7.90752
7.93205
8.02237
8.13708
7.94925
8.36932
8.37529
11.7583
7.9603
7.96467
10.8529
8.20244
8.23116
8.14196
8.21267
8.03863
9.48199
7.86793
7.86339
8.25639
7.84436
8.10353
7.88309
8.23572
8.14597
8.41716
9.50293
7.92948
8.06055
7.98459
8.79498
10.4034
9.50889
14.3625
9.77948
8.56341
8.1496
8.05865
7.96815
8.09443
10.4724
12.7133
7.89527
8.17772
8.38565
7.90207
7.90447
7.94375
7.91104
7.89511
7.84491
10.9428
8.47136
8.0165
10.0436
8.0574
9.44299
9.66197
13.342
11.9751
10.0129
9.89679
7.87939
7.91446
14.682
7.8837
8.16243
7.95228
7.93831
7.96226
7.91066
8.3662
9.34373
8.038
9.09815
8.72035
7.92647
8.16754
8.12565
7.89018
8.2573
8.36356
7.93053
11.7978
8.46817
8.65649
10.5863
7.97743
8.60015
7.91615
7.89882
8.48586
7.9159
7.90734
8.1066
8.00308
10.7591
11.0247
9.82254
25.7462
7.85749
10.2561
7.9326
8.02117
7.95561
9.66982
7.96115
7.91891
7.93652
9.74521
8.07012
33.2391
8.69123
8.03689
8.03973
7.846
8.8687
9.76819
9.32054
8.46168
8.06689
8.6299
12.4297
7.94393
7.85506
7.96649
7.87599
7.98389
8.09244
8.54234
10.6926
8.71714
7.91917
7.92553
7.9174
8.00982
7.85431
13.7734
8.18918
7.92137
7.8532
8.02259
8.45124
9.39938
7.86047
8.03777
7.87516
7.92062
7.95545
7.97773
7.8832
7.85583
12.9642
8.74954
8.04181
9.84323
7.97839
7.79198
7.79748
7.86113
7.91232
7.98634
7.86972
7.85647
8.07357
12.0851
8.03056
7.87822
10.1019
12.1217
9.95953
8.69728
8.04141
10.5317
7.90745
8.32049
8.55663
8.20152
12.6647
8.60387
12.1069
8.00587
7.85406
9.07245
8.38775
7.9294
10.2145
7.97878
7.87126
7.8704
8.96365
17.7623
9.11874
8.33667
7.94099
8.42723
8.0152
9.34364
9.26174
8.03801
7.9313
7.90955
13.5942
7.93472
7.86133
17.4585
8.70591
8.5927
9.37395
9.1315
7.84886
8.24243
7.90559
7.88621
8.97927
8.01506
12.3833
8.60763
8.80067
8.40028
8.15883
7.92805
7.8581
8.37168
7.84722
7.85517
7.8969
7.88715
7.8994
7.89928
7.85341
7.91168
8.30676
24.0406
17.5712
7.86998
7.8624
7.8973
7.88273
7.88771
8.31101
9.90474
8.41863
7.91131
7.90366
7.91146
8.1176
8.48404
9.90214
12.2598
8.23633
10.1877
8.25562
8.0165
23.3661
18.2513
7.85054
7.83512
7.84319
9.87689
8.21271
23.394
8.0261
8.21601
8.64034
10.5218
22.4771
8.10416
11.9145
8.25686
11.4527
24.3158
17.0308
7.91316
7.93527
7.91557
7.84605
7.84855
7.83323
12.1569
14.927
10.0118
10.3797
9.01198
8.0898
8.4007
8.11321
7.87911
9.88675
9.61809
8.89828
12.3012
11.0855
13.1527
15.0194
14.8598
8.62518
14.956
7.85566
7.85678
13.8986
8.35169
8.33287
8.7248
12.241
9.0378
8.05451
15.7545
8.87275
12.9637
8.1294
8.97466
10.5988
11.9361
7.8937
13.6321
10.3641
8.015
13.7524
12.1012
11.586
7.93863
15.5082
8.02856
8.0406
8.77942
11.203
9.67495
14.2749
12.7568
7.95445
7.91946
7.85536
8.70322
12.7384
7.97176
12.1152
15.1609
7.96123
7.90273
7.92634
8.04417
11.3238
7.85959
9.08066
8.02353
7.92763
8.09745
8.04556
12.6565
11.6394
7.94119
11.3856
13.531
8.4273
10.1407
16.8177
11.3059
8.02748
8.1394
22.027
18.9371
7.92607
12.425
7.8567
9.16249
7.94442
8.76859
13.0525
11.6666
11.8662
15.3807
8.53556
8.3732
17.5926
9.04935
8.07746
8.09781
8.00198
8.71857
10.739
15.0853
15.7707
12.6858
8.45714
11.35
7.85141
7.89784
8.43859
8.00472
13.1695
7.95935
10.3073
33.3836
8.11929
9.4418
9.30418
10.0203
10.228
7.88589
9.41821
149.105
7.88952
10.1589
8.78208
8.54925
8.70305
7.91882
7.94656
7.91731
7.98459
8.0229
11.2209
8.62177
7.89568
11.0497
7.88097
8.09094
12.375
8.45673
8.93479
8.93106
9.18674
8.53096
8.54878
11.2137
8.4313
7.90929
8.78063
8.61555
9.91012
8.02346
9.34341
16.811
8.19246
11.038
11.5211
8.83812
15.3576
10.3967
8.85241
10.3343
7.89004
9.01013
12.9142
7.85772
8.01708
7.91293
7.91634
9.0937
7.899
9.46133
7.85631
7.96064
8.10765
7.90826
7.87898
9.73707
7.87114
11.3475
11.2861
9.41157
8.40953
16.7608
15.9415
7.99401
8.9148
11.0177
8.43443
8.04691
8.21376
12.2116
31.8272
53.5672
8.04676
7.87413
7.90885
8.37616
7.94172
8.42093
15.4067
8.52784
11.6446
23.9199
8.55786
8.97809
10.0388
8.06371
8.17474
10.9664
8.02637
9.781
8.12576
7.86595
16.1369
8.22868
9.00842
9.07791
8.03489
8.14209
14.5364
9.00667
8.45678
15.4833
16.8347
8.61045
8.15794
9.78289
8.15704
8.03562
7.85156
10.6289
11.8265
14.9959
13.0383
9.36682
8.13008
7.87411
7.92494
7.86931
8.37005
7.85044
7.96877
7.9478
9.43706
9.42341
8.09446
8.34275
7.97558
8.61008
12.2714
7.85421
8.61109
7.84667
7.8747
7.852
7.89723
9.01779
7.8467
8.3412
7.88521
7.90254
9.06252
9.51084
14.2541
12.7167
11.7096
8.74242
8.13137
11.709
7.86162
10.0154
7.84687
7.96967
7.92774
13.9711
44.0415
12.3862
8.33509
8.68308
7.85722
7.99282
7.87206
12.291
8.05877
8.46645
8.5036
8.49739
8.26409
8.02733
7.97874
7.99327
7.98621
8.33407
8.25856
9.86574
16.248
10.147
9.92299
7.89546
8.43798
8.4584
8.32985
13.3672
31.6622
8.46701
20.7038
10.2001
7.88
10.0279
8.06027
7.99191
10.8557
8.77671
7.8735
7.86835
7.87185
7.87412
8.82729
9.33325
7.87627
8.61879
9.13845
7.87873
8.07443
8.57265
9.67123
9.72114
14.9118
7.95951
8.55732
8.06302
8.48731
15.0339
9.52763
8.27642
9.41246
8.20297
8.22704
8.49619
8.42834
8.1674
7.87525
8.74786
7.97133
7.91715
7.98572
13.6392
7.85486
40.9033
16.0897
19.7792
11.864
21.7708
11.6041
25.5305
21.5106
16.9213
19.6755
10.3077
7.8753
8.50779
8.56209
8.03544
16.4858
7.87545
7.88655
8.10315
12.2912
9.34748
19.3068
8.06544
7.85983
17.3844
14.1931
7.84741
7.94967
7.85896
7.91639
7.88675
10.5571
20.7288
9.26649
8.06776
9.29202
8.49939
7.87845
8.06108
7.85978
11.6067
25.4997
9.07455
7.96841
10.1348
7.9179
13.1989
8.42232
8.14792
13.4687
11.8433
8.04864
7.92902
8.19287
8.85032
8.07183
7.9655
8.06085
7.94278
11.5089
8.50477
10.8386
10.188
8.00295
8.50159
8.11987
7.84715
8.9854
8.11779
8.12337
7.89294
7.88437
7.87524
7.86647
7.86016
7.82272
8.00416
8.32748
8.10848
9.04054
14.5458
22.5128
7.85838
10.9584
7.94441
11.8151
7.85579
7.9052
7.97605
8.02869
8.22441
12.1375
7.87299
8.30536
8.23332
8.49826
8.14232
8.09578
7.87558
7.96922
8.01798
8.10064
8.37672
11.7403
8.34094
7.88477
7.8487
7.86884
7.84515
7.96457
7.8556
8.2124
7.8638
7.87744
7.8605
7.98463
8.02298
8.05199
9.79379
7.99622
11.5997
8.79653
9.11821
100.776
7.92053
8.19367
8.31985
9.70418
8.94664
7.84576
8.76596
7.94072
9.63732
9.64804
8.15216
10.3333
9.43854
8.56661
7.8472
10.2361
11.6922
12.5217
8.30126
8.45657
8.45924
59.0589
8.00279
12.4181
7.95926
8.24466
7.92019
7.8731
7.8723
8.04554
8.69685
10.3453
8.16349
13.014
8.59504
9.76105
7.86692
9.1028
7.95227
8.47724
8.2519
7.85109
7.92005
7.91052
8.98861
8.44501
8.70094
7.88476
8.0922
8.64578
7.8202
7.83982
7.89962
8.31546
8.62631
8.44526
7.94644
8.45998
8.40886
8.0938
19.1751
7.93317
11.9212
7.86835
8.10059
7.78861
9.24584
9.82344
15.933
8.34648
7.87802
7.94136
14.6811
9.52355
9.10733
14.5496
12.6527
8.03291
8.0822
7.98445
7.97862
8.12837
8.85154
7.84823
7.84388
7.8972
10.1802
7.70173
7.77317
8.05461
7.92949
15.4884
17.3501
8.70147
8.71493
8.11662
8.88714
9.07958
8.47717
8.17108
8.51488
8.2525
7.8582
8.07192
9.19106
7.88633
8.58124
7.93278
8.24292
7.9032
8.59265
9.20742
8.47635
7.98478
7.89686
7.9646
8.98785
9.833
7.85299
8.23434
9.92474
33.626
7.87942
7.98824
8.32838
7.92139
9.23284
8.14452
7.85654
7.88173
7.864
7.86529
8.22039
7.97364
8.47123
10.0951
7.97951
8.23717
9.21985
8.06856
8.04612
8.49354
8.09939
9.21236
8.97972
10.7213
9.33838
8.12896
8.73322
9.83437
10.36
8.87268
7.89468
8.24607
9.26435
8.05385
7.93998
9.42539
9.26103
7.89674
10.1917
8.29492
7.95957
7.85796
7.80007
7.85097
7.85584
7.88091
7.87144
57.1496
8.44359
8.04881
8.15826
13.341
7.95809
7.84769
8.05367
8.02807
9.98377
12.1927
8.32868
8.10707
7.90157
9.7845
7.85685
7.86468
8.30159
8.96885
7.85109
8.03567
7.84636
7.91703
7.90847
7.90447
8.86854
8.25768
8.07915
27.6363
8.20621
8.01934
10.1908
8.66413
7.93172
8.01625
8.48922
8.03239
12.7765
12.7604
8.25907
8.12044
12.6686
7.8957
9.57581
8.13755
10.4959
7.84747
7.84508
10.6427
8.13311
8.05807
8.12245
7.98594
10.4777
7.85166
9.34079
7.84515
8.3113
7.85395
8.84204
8.11631
8.16741
8.77289
8.00846
8.07378
7.94171
8.0719
8.21366
7.9842
7.94358
7.93382
7.92727
7.92769
7.94291
7.85234
7.91468
7.99529
7.87685
8.08951
7.93032
7.86886
7.96309
7.91598
7.87397
8.31246
11.1188
121.222
12.2091
12.4276
7.98395
11.9327
8.93123
7.94441
8.54114
24.9241
7.8745
33.9073
9.06908
8.05439
8.26263
7.86111
8.00363
7.87284
7.87138
15.1323
8.51278
7.91932
7.88482
9.62896
7.85027
7.93081
7.86021
8.63334
8.47447
7.85703
7.85791
8.01555
7.85672
7.84425
7.95827
8.10803
8.31451
7.89793
13.0241
8.00832
8.35742
12.2605
9.76715
8.4606
7.95537
7.84936
32.9445
8.09236
9.15382
39.1951
18.2757
7.91914
7.88532
7.88987
7.86229
10.0957
9.63649
8.08683
7.90328
7.90932
15.127
8.48463
8.51041
7.8938
7.84548
7.86492
9.23364
7.89859
7.87276
13.0299
108.288
7.96159
8.10325
7.8473
12.5034
9.1427
8.61589
10.4729
7.854
12.059
12.2584
13.227
12.5421
14.3973
15.5549
14.4192
15.4424
11.9449
16.3246
32.0452
14.5285
14.975
16.4038
15.7577
32.0742
14.7189
13.2421
20.3555
16.4933
18.7192
19.5083
30.1798
32.0237
17.7491
24.8097
27.333
17.121
15.4085
17.6123
17.3576
17.3281
17.8438
13.7974
15.7403
17.6168
13.2665
11.8764
15.537
15.1767
14.1431
16.2224
18.2724
12.5529
11.5515
11.5996
15.9661
12.4588
13.0263
17.3092
13.3928
12.8365
11.6854
11.8211
13.9715
13.4535
12.1898