/*--------------------------------*- C++ -*----------------------------------*\
| =========                 |                                                 |
| \\      /  F ield         | OpenFOAM: The Open Source CFD Toolbox           |
|  \\    /   O peration     | Version:  v1912                                 |
|   \\  /    A nd           | Website:  www.openfoam.com                      |
|    \\/     M anipulation  |                                                 |
\*---------------------------------------------------------------------------*/
FoamFile
{
    version     2.0;
    format      ascii;
    class       volScalarField;
    location    "0.01";
    object      k;
}
// * * * * * * * * * * * * * * * * * * * * * * * * * * * * * * * * * * * * * //

dimensions      [0 2 -2 0 0 0 0];


internalField   nonuniform List<scalar> 
5794
(
0.273961
0.271201
0.280589
0.324989
0.285401
0.273373
0.288055
0.287631
0.280802
0.291404
0.275094
0.273876
0.272613
0.286392
0.272831
0.272786
0.310367
0.279346
0.275397
0.273871
1.57283
0.282195
0.276889
0.275054
0.275595
0.720067
0.281627
0.278045
0.284789
0.302357
0.276594
0.291139
0.277406
0.273944
0.273988
0.274662
0.295083
0.277823
0.275602
0.277819
0.277764
0.278716
0.273985
0.294086
0.27357
0.277324
0.295016
0.278688
0.282445
0.282738
0.278741
0.285621
0.725255
0.292456
0.233701
0.274322
0.316832
0.282681
0.272507
0.979451
0.298052
0.27851
0.273255
0.278578
0.272887
0.272167
0.275235
0.376183
0.298029
0.269625
0.273185
0.277806
0.63324
0.276615
0.28436
0.294023
0.249467
0.639584
0.290925
0.23472
0.31887
0.277964
0.273454
0.273027
0.274097
0.279427
0.344641
0.25521
0.289136
0.298125
0.270691
0.330864
0.27918
0.271343
0.283435
0.275451
0.270053
0.272733
0.29689
0.29523
1.24371
0.321875
0.273047
0.275545
0.310339
0.272629
0.271475
0.270977
0.281692
0.290739
0.283982
0.275356
1.13632
0.272148
0.274152
0.2705
0.276151
0.278237
0.299662
0.50285
0.273919
0.274183
0.290997
0.282001
0.274586
0.27451
0.351754
0.272193
0.277319
0.270395
0.27688
0.274092
0.315687
0.634644
0.272552
0.272928
0.269929
0.274983
0.276421
0.272729
0.294262
0.280882
0.273947
0.278489
0.281365
0.301976
0.314347
0.274214
0.279932
0.299648
0.277651
0.273669
0.272432
0.310678
0.280603
0.297131
0.290844
0.282386
0.284405
0.294841
0.299914
0.292765
0.288471
0.293648
0.294638
0.296197
0.291167
0.288829
0.294359
0.279298
0.287593
0.304635
0.287332
0.283702
0.286094
0.289867
0.284314
0.286681
0.289427
0.295682
0.28585
0.297084
0.277156
0.278586
0.279831
0.329873
0.310186
0.282991
0.298374
0.316501
0.281166
0.30188
0.291584
0.290634
0.277834
0.285448
0.286907
0.290211
0.296925
0.29911
0.288285
0.298936
0.287623
0.284865
0.303618
0.288744
0.289618
0.27342
0.286526
0.310796
0.302513
0.28162
0.275949
0.275704
0.273656
0.274393
0.274499
0.305095
0.27265
0.272314
0.282843
0.279182
0.27522
0.286538
0.274086
0.31463
0.267772
0.275617
0.271693
0.274046
0.304384
0.301514
0.294687
0.27732
0.287513
0.276047
0.283138
0.272969
0.285843
0.355762
0.294658
0.274396
0.279255
0.33104
0.323184
0.280365
0.273508
0.279791
0.248896
0.278858
0.34141
0.272195
0.285732
0.271539
0.284465
0.293854
0.280855
0.274339
0.272428
0.277425
0.272097
0.274884
0.274743
0.271647
0.278999
0.301838
0.288826
0.273276
0.285866
0.272783
0.27965
0.272789
0.294198
0.278029
0.514154
0.274915
0.286043
0.276572
0.27426
0.287457
0.281577
0.272817
0.285421
0.282582
0.28458
0.29054
0.412753
0.313652
0.280433
0.274072
0.281265
0.281129
0.277904
0.27358
0.287343
0.763523
0.313086
0.307559
0.313952
0.272183
0.269477
1.33651
0.303296
0.274481
0.329388
0.271916
0.274098
0.29317
0.275381
0.286244
0.275434
0.278726
0.300622
0.272166
0.318456
0.297538
0.272158
0.275442
0.281162
0.306582
0.303093
0.29363
0.284993
0.28229
0.272271
0.273468
0.27292
0.29478
0.290571
0.292063
0.295649
0.288295
0.284228
0.290503
0.307928
0.303855
0.298469
0.287336
0.28954
0.278955
0.279359
0.274453
0.295363
0.279142
0.284165
0.272449
0.27426
0.28963
0.297215
0.287354
0.286501
0.319476
0.282992
0.300205
0.281923
0.331155
0.300645
0.292481
0.295299
0.294286
0.273034
0.275578
0.271634
0.274676
0.274946
0.274297
0.294773
0.278087
0.30337
0.28075
0.27523
0.268687
0.274759
0.276583
0.272507
0.285431
0.278862
0.393767
0.305028
0.27216
0.283824
0.27417
0.285566
0.276181
0.27563
0.275386
0.278775
0.273774
0.274448
0.288648
0.286391
0.30041
0.269931
0.274616
0.294374
0.288878
0.293164
0.416642
0.274121
0.274517
0.273563
0.273596
0.275167
0.28067
0.28917
0.27447
0.401762
0.281825
0.272556
0.271078
0.273695
0.282689
0.273882
0.297562
0.277698
0.295578
0.273678
0.329342
0.296795
0.268982
0.291818
0.271621
0.27208
0.277199
0.288453
0.287386
0.287093
0.272144
0.272165
0.279911
0.276253
0.275492
0.283044
1.26682
0.275832
0.280954
0.292501
0.286816
0.28042
0.279651
0.279325
0.319772
0.288125
0.291415
0.273044
0.270898
0.275386
0.272749
0.520903
0.306414
0.300354
0.273105
1.69436
0.279995
0.278875
0.269332
0.272229
0.279343
0.339876
0.288952
0.303543
0.2827
0.927934
0.275686
0.292677
0.270627
0.296508
0.291533
0.27253
0.290102
0.242062
0.285946
0.273396
0.272471
0.273442
0.282406
0.300358
0.274952
0.319321
0.286649
0.96093
0.302417
0.26907
0.272312
0.272394
0.272476
0.281337
0.272506
0.325595
0.289848
0.272692
0.296578
0.292275
0.281229
0.452108
0.273828
0.28556
0.273549
0.272367
0.273699
0.289397
0.283246
0.284364
0.273875
0.279507
0.282097
0.313158
0.275154
0.273419
0.272169
0.277982
0.27394
0.277663
0.271771
0.272262
0.304617
0.279259
0.272218
0.277186
0.280469
0.289185
0.274128
0.287464
0.279548
0.271949
0.282196
0.353727
0.27473
0.275273
0.285689
0.961321
0.267521
0.29322
0.272451
0.273765
0.27396
0.277873
0.272397
0.271372
0.272652
0.279724
1.9354
0.270223
0.310898
0.27352
0.272384
0.310043
0.27655
0.271868
0.282497
0.274586
0.273138
0.28351
0.3235
0.296049
0.275044
0.775424
0.283569
0.273612
0.300716
0.869868
0.296974
0.274793
0.27553
0.296182
0.279175
0.273703
0.273663
0.30279
0.272143
0.29074
0.286377
0.282665
0.313548
0.511826
0.299531
0.289587
0.291585
0.290255
0.292672
0.287546
0.346182
0.277518
0.28659
0.2859
0.281404
0.272143
0.274647
0.303927
0.272091
0.272155
0.282639
0.272741
0.280831
0.307355
0.273098
0.271722
0.365148
0.273479
0.27842
0.276077
0.288872
0.284413
0.275908
0.272062
0.270401
1.16174
0.295156
0.242321
0.274254
0.299991
0.298277
0.275683
0.465702
0.284291
0.275581
0.273248
0.26855
0.285314
0.304772
0.26493
0.274453
0.274204
0.272912
0.277912
0.28796
0.274075
0.283801
0.269229
0.271714
0.298323
0.27661
0.27441
0.311489
0.276569
0.270272
0.72711
0.49749
0.272388
0.279399
0.278845
0.272362
0.272423
0.347543
0.269392
0.280135
0.294105
1.03069
0.27359
0.272573
0.296057
0.368982
0.272634
0.280113
0.301987
0.272289
0.292706
0.291963
0.347478
0.272517
0.274192
0.268041
0.291398
1.08937
0.284744
0.304942
0.276229
0.302757
0.445852
0.274726
0.272499
0.378293
0.340322
0.296099
0.387434
0.280961
0.275222
0.272572
0.278603
0.346401
0.287969
0.272633
0.281402
0.272211
0.294632
0.270187
0.30135
0.272803
0.274085
0.272464
0.277419
0.283291
0.638653
0.31194
0.272758
0.278129
0.272733
0.281277
0.298651
0.296142
0.291561
0.271104
0.266009
0.273854
0.299041
0.279158
0.297767
0.271868
0.272627
0.270867
0.272567
0.294517
0.349471
0.285188
0.273423
0.393232
0.279502
0.352879
0.274654
0.272538
0.27425
0.747981
0.272473
0.272854
0.29115
0.3457
0.277843
0.347556
0.274971
0.295021
0.294369
0.548413
0.276562
0.27447
0.273238
0.307351
0.39247
0.272202
0.316994
0.276429
0.270543
0.262358
0.287415
0.434226
0.318114
0.2784
0.380789
0.271903
0.516456
0.338241
0.315423
0.365031
0.284464
0.270616
0.285012
0.275411
0.311404
0.273411
0.287731
0.284497
0.274088
0.290111
0.298427
0.293308
0.273905
0.314248
0.478617
0.278591
0.304622
0.274663
0.294079
0.271824
0.284955
0.27285
0.273999
0.272757
0.279861
0.335512
0.278055
0.285011
0.272265
0.31099
0.752316
0.291221
0.276707
0.296644
0.476705
0.272978
0.284055
0.32774
0.286783
0.280313
0.27533
0.345656
0.29421
0.46512
0.272346
1.58048
0.280721
0.709074
0.285387
0.272388
0.293183
0.279226
0.30194
0.27494
0.272233
0.270479
0.271883
0.284244
0.312348
0.282167
0.337463
0.285231
0.272696
0.273798
0.278696
0.273562
0.276353
0.273103
0.278013
0.507148
0.276061
0.275988
0.271778
0.295597
0.275292
0.272335
0.272542
0.322098
0.275268
0.272086
0.287879
0.272345
0.276685
0.272275
0.273052
0.460578
0.311567
0.270773
0.545204
0.272264
0.273363
0.28437
1.23579
0.2726
0.29965
0.291323
0.419806
0.304353
0.283319
0.275778
0.358852
0.297361
0.273182
0.274602
0.277866
0.274082
0.272371
0.272827
0.295394
0.297473
0.303923
0.273327
0.296814
0.357966
0.671994
0.272421
0.280974
0.273456
0.28202
0.377574
0.274842
0.296456
1.79277
0.275049
0.273219
0.650293
0.284597
0.314121
0.280645
0.300292
0.27049
0.277555
0.272262
0.272741
1.12559
0.273659
0.292662
0.358369
0.274512
0.282912
0.285153
0.273204
0.277009
0.272608
0.281131
0.298221
0.275394
0.282406
0.272149
0.274408
0.273694
0.299101
0.274424
0.279835
0.285538
0.27215
0.274108
0.303531
0.278103
0.323947
0.270108
0.272245
0.294136
0.314513
0.280974
0.276851
0.272168
0.285114
0.279178
0.429283
0.289061
0.290936
0.338956
0.306775
0.301334
0.287729
0.264811
0.351587
0.375117
0.464253
0.317271
0.260724
1.71304
0.276314
0.274933
0.267815
0.287487
0.271064
0.29041
0.279717
0.27311
0.281572
0.277185
0.272169
0.291376
0.272176
0.277788
0.280134
0.275517
1.25767
0.274066
0.280411
0.298003
0.29749
0.38834
0.347498
1.50457
0.272843
0.272556
0.288435
0.272476
0.262798
0.26721
0.27252
0.273031
0.284425
0.275599
0.272147
0.272512
0.272999
0.294076
0.273297
0.277167
0.274468
0.272147
0.279182
0.360422
0.323779
0.319718
0.332028
0.27226
0.255442
0.309641
0.291698
0.266547
0.457393
0.274197
0.272287
0.35028
0.287464
0.275901
0.365004
1.09503
0.320271
0.293784
0.287506
0.272382
0.349518
0.874393
0.284887
0.280345
0.467804
0.287597
0.274426
0.294905
0.339413
0.272156
0.281848
0.288348
0.280486
0.595786
0.288764
0.32662
0.264133
0.330271
0.289729
0.346074
0.265001
0.273507
0.274265
0.286951
0.277547
1.23461
0.280983
0.279969
0.29652
0.282756
0.284184
0.279594
0.27787
0.290927
0.275627
0.300636
0.279351
0.291095
0.272297
0.27215
0.356708
0.390256
0.272446
0.27224
0.275812
0.288004
0.271972
0.272527
0.273258
0.274287
0.612021
0.272453
0.27461
0.288579
0.281663
0.271561
0.275204
0.275285
0.272543
0.279376
0.589913
0.297989
0.277082
0.662993
0.273364
0.272183
0.354524
0.272825
0.273529
0.277654
0.276872
0.278804
0.272431
0.286423
0.289469
0.278489
0.296972
0.27402
0.273604
0.276385
0.276862
0.276286
0.273374
0.274418
0.293211
0.27054
0.287172
0.275295
0.273816
0.274921
0.318133
0.281912
0.263254
0.393979
0.280283
0.280786
0.294765
0.301174
0.354622
0.360856
0.264808
0.437709
0.26347
0.263388
0.747055
0.277891
0.30017
0.278775
0.274409
0.272212
0.293584
0.435524
0.274085
0.300585
0.276806
0.279198
0.275989
0.287529
0.275958
0.361137
0.321466
0.296248
0.301362
0.27453
0.272654
0.273413
0.274942
0.274876
0.278462
0.324874
0.276427
0.272336
0.272465
0.275821
0.274028
0.288928
0.288014
0.276456
0.277669
0.274022
0.272631
1.61343
0.514556
0.272289
0.280824
0.273525
0.273507
0.337597
0.290975
0.372341
0.277669
0.312701
0.271281
0.287088
0.273982
0.278089
0.279323
0.278186
0.278998
0.274443
0.280794
0.41996
0.385634
0.361808
0.276793
1.31411
0.284339
0.301066
0.27794
0.283841
0.295134
0.287794
0.438531
0.41029
0.300836
0.294357
0.28278
0.294205
0.303466
0.288661
0.310583
0.277409
0.305953
0.275385
0.275398
0.274107
0.292215
0.293234
0.298799
0.299908
0.272414
0.288054
0.284665
0.263352
0.573083
0.278589
0.272584
0.278037
0.273027
0.371174
0.272285
0.274092
0.658552
0.315728
0.278365
0.272551
0.27238
0.272717
0.313387
0.333221
0.271594
0.298718
0.405039
0.274955
0.272693
0.278769
0.274792
0.273967
0.27221
0.293073
0.365237
0.263341
0.275867
0.273081
0.276245
0.272601
0.247541
0.273022
0.371162
0.27321
0.264094
0.286491
0.277359
0.35599
0.284929
0.280832
0.272307
0.270052
0.27602
0.292354
0.276554
0.401434
0.273308
0.272547
0.275004
0.439164
0.285413
0.272641
0.385398
0.370999
0.279355
0.277505
0.283313
0.321474
0.294216
0.701887
0.291012
0.285827
0.272404
0.278038
0.276993
0.27284
0.347557
0.274901
0.275615
0.282552
0.282514
0.276503
0.283901
0.272857
0.305045
0.279206
0.290566
0.28518
0.273563
0.279347
0.302414
0.275711
0.273849
0.314715
0.277224
0.294556
0.289769
0.287428
0.281808
0.273035
0.272846
0.28339
0.292003
0.277464
0.276586
0.306059
0.279549
0.274772
0.290214
0.277926
0.392601
0.273436
0.274155
0.296687
0.269523
0.272485
0.275756
0.274245
0.304909
0.272544
0.27313
0.271963
0.291952
0.273264
0.339165
0.277991
0.288741
0.273891
0.272727
0.320241
0.379297
0.281778
0.368194
0.2781
0.283923
0.305641
0.235513
0.27457
0.274127
0.273842
0.276089
0.288835
0.272034
0.274084
0.272281
0.266884
0.292344
0.307032
0.282219
0.367693
0.278308
0.27611
0.285841
0.272192
0.310781
0.2759
0.273839
0.274004
0.278905
0.274276
0.276925
0.279104
0.583397
0.277686
0.273905
0.413441
0.272581
0.270133
0.343668
0.277295
0.274084
0.272089
0.272246
0.453593
0.272435
0.278678
0.379503
0.2733
0.293131
0.273768
0.255627
0.254689
0.279232
1.15843
0.342382
0.27782
0.316965
0.273846
0.745446
0.274708
0.285389
0.268554
0.267101
0.271915
0.266384
0.292723
0.258061
0.271714
0.265827
0.268679
0.275562
0.275089
0.279623
0.258328
0.257903
0.269271
0.295446
0.262833
0.273713
0.277354
0.27145
0.25421
0.254875
0.254206
0.287215
0.282421
0.284036
0.261131
0.274291
0.275224
0.288212
0.276278
0.274669
0.268275
0.265776
0.279492
0.265081
0.284118
0.278741
0.278316
0.27217
0.270173
0.278268
0.292306
0.273275
0.272635
0.278099
0.277656
0.278577
0.272755
0.272419
0.280492
0.274133
0.272691
0.313587
0.274627
0.428877
0.286585
0.403298
0.291538
0.276434
0.292653
0.273804
0.273763
0.275354
0.283326
0.305088
0.277723
0.283381
0.281648
0.286928
0.283409
0.272978
0.308303
0.299184
0.290527
0.282638
0.641631
0.274495
0.281271
0.285028
0.286789
0.273412
0.299245
0.684526
0.28232
0.275657
0.301773
0.289621
0.272738
0.273221
0.399284
0.364352
1.52361
0.272502
0.274848
0.274686
0.280233
0.273725
0.276746
0.276228
0.296985
0.282427
0.264843
0.260229
0.285822
0.282928
0.265706
0.270098
0.280248
0.281205
0.275612
0.295378
0.277184
0.268459
0.289775
0.271009
0.277764
0.273381
0.254811
0.255656
0.254729
0.267181
0.296845
0.265112
0.273981
0.292327
0.239203
0.282182
0.275176
0.363192
0.277929
0.272261
0.272291
0.276736
0.27508
0.27478
0.274221
0.289156
0.268584
0.274539
0.27232
0.272246
0.303784
0.273635
0.283374
0.272634
0.273411
0.273579
0.300511
0.272928
0.302035
0.28014
0.273105
0.272645
0.271832
0.282371
0.283487
0.279256
0.293991
0.280881
0.272659
0.274266
0.273097
0.278514
0.27404
0.273367
0.283455
0.282045
0.276567
0.274182
0.274465
0.272296
0.33571
0.309725
0.290108
0.272735
0.274108
0.306891
0.235248
0.282846
0.289207
0.277148
0.274698
0.290009
0.272334
0.295439
0.313563
0.273973
0.341486
0.272989
0.273603
0.274973
0.368824
0.272193
0.288482
0.270778
0.261851
0.270899
0.273755
0.272307
0.359112
0.275874
0.27231
0.273112
0.273554
0.298739
0.273765
0.273132
0.281471
0.274223
0.272267
0.272697
0.273804
0.275404
0.290922
0.272176
0.274952
0.272983
0.279886
0.283398
0.272745
0.272385
0.272596
0.284025
0.279078
0.272915
0.277479
0.287387
0.358336
0.276432
0.339016
0.275564
0.275383
0.275006
0.300612
0.284255
0.272583
0.273182
0.274379
0.272392
0.26873
0.273035
0.316319
0.272785
0.272899
0.272362
0.272625
0.272526
0.286618
0.281167
0.274108
0.317882
0.27098
0.287608
0.283018
0.485796
0.282577
0.276546
0.27771
0.272283
0.272405
0.273791
0.272579
0.274642
0.272942
0.277321
0.275217
0.274356
0.273947
0.275608
0.273991
0.273811
0.273294
0.279514
0.273727
0.273704
0.27367
0.274082
0.273802
0.274825
0.27365
0.273658
0.273521
0.272242
0.272289
0.272693
0.276789
0.272316
0.272718
0.273816
0.272755
0.259968
0.285133
0.288137
0.27489
0.273137
0.272621
0.273104
0.272474
0.275303
0.274914
0.281724
0.274293
0.273864
0.27638
0.321681
0.273823
0.333426
0.275885
0.35454
0.276766
0.273311
0.294878
0.27676
0.27608
0.273442
0.277228
0.273183
0.284507
0.274746
0.275893
0.288987
0.275981
0.28473
0.275761
0.277262
0.276184
0.288136
0.27722
0.274369
0.277676
0.272773
0.27734
0.278596
0.274743
0.283187
0.272738
0.272549
0.272604
0.272629
0.272304
0.27893
0.284152
0.273174
0.277652
0.272582
0.274593
0.272892
0.27321
0.272501
0.273303
0.272626
0.287291
0.27444
0.274382
0.272582
0.283567
0.274419
0.27254
0.273153
0.274328
0.272221
0.272666
0.280783
0.273181
0.272367
0.273358
0.30264
0.272428
0.272473
0.272515
0.281112
0.272352
0.277363
0.272561
0.272472
0.272515
0.274849
0.276047
0.272633
0.269342
0.274373
0.275047
0.273213
0.272907
0.273489
0.272406
0.272297
0.274314
0.275333
0.274767
0.275711
0.365824
0.279011
0.314213
0.27788
0.275538
0.273221
0.273636
0.284819
0.274702
0.276357
0.272892
0.272286
0.281048
0.273699
0.287858
0.274198
0.276258
0.273093
0.297381
0.29899
0.330267
0.280837
0.277604
0.274657
0.27474
0.275698
0.274913
0.273667
0.298176
0.276243
0.279479
0.288829
0.273955
0.329139
0.307114
0.308526
0.273359
0.28385
0.272427
0.274991
0.272253
0.330301
0.276906
0.290464
0.272811
0.282909
0.275659
0.358896
0.274113
0.273058
0.272669
0.298263
0.274126
0.272865
0.27551
0.272965
0.272756
0.273857
0.290765
0.274476
0.273983
0.284051
0.273469
0.274832
0.312635
0.272873
0.273539
0.273057
0.273862
0.290127
0.318113
0.273641
0.274548
0.273652
0.273497
0.273837
0.274272
0.275646
0.27966
0.273233
0.319116
0.289885
0.274079
0.296612
0.276793
0.272432
0.274992
0.273168
0.27497
0.277197
0.272889
0.272401
0.276962
0.278204
0.294928
0.286403
0.273542
0.272176
0.283662
0.273535
0.273844
0.30088
0.29296
0.276316
0.27458
0.276052
0.281838
0.278528
0.277293
0.277488
0.272444
0.279534
0.286442
0.284637
0.275209
0.273952
0.272838
0.272419
0.272193
0.274481
0.275278
0.281526
0.284053
0.27315
0.272515
0.272357
0.272529
0.28199
0.273853
0.272181
0.299048
0.278786
0.280777
0.30576
0.281477
0.272299
0.279877
0.285357
0.283269
0.2859
0.278613
0.315441
0.323382
0.276884
0.2856
0.303231
0.273504
0.272384
0.272285
0.286286
0.291974
0.306408
0.272207
0.312634
0.272184
0.286335
0.278183
0.272362
0.272435
0.27245
0.273167
0.299167
0.29338
0.281915
0.284755
0.298761
0.28008
0.285832
0.297328
0.305969
0.273764
0.279976
0.293626
0.278093
0.280803
0.320981
0.272721
0.2725
0.277525
0.304385
0.32449
0.279712
0.288515
0.29892
0.314932
0.350472
0.279984
0.288192
0.27408
0.27222
0.272181
0.315957
0.274071
0.28248
0.272223
0.295532
0.29513
0.280697
0.278659
0.282918
0.32165
0.340922
0.272178
0.282494
0.272245
0.302406
0.272839
0.293141
0.272365
0.273791
0.277934
0.286616
0.315384
0.290584
0.296333
0.273271
0.325557
0.274278
0.290613
0.293497
0.272502
0.272298
0.275682
0.282376
0.298759
0.305997
0.295302
0.290763
0.297231
0.296079
0.275179
0.272311
0.272203
0.298211
0.28461
0.27243
0.274886
0.273866
0.27398
0.274311
0.279761
0.295472
0.283785
0.290399
0.304119
0.272311
0.29869
0.272408
0.274126
0.272594
0.272409
0.272256
0.298062
0.296118
0.274085
0.270695
0.274706
0.272371
0.272229
0.262922
0.335981
0.275927
0.272862
0.276546
0.272672
0.275481
0.273036
0.310389
0.294952
0.308389
0.273127
0.283806
0.272513
0.27338
0.288469
0.272814
0.274684
0.275175
0.284375
0.304867
0.272544
0.273369
0.273195
0.283157
0.292169
0.274429
0.274901
0.276953
0.339226
0.273194
0.276376
0.272289
0.272168
0.273379
0.273769
0.27399
0.395179
0.275938
0.29696
0.272944
0.272796
0.273215
0.291406
0.30883
0.294773
0.300635
0.294721
0.297228
0.34235
0.321765
0.272343
0.419518
0.374796
0.282679
0.277766
0.300099
0.283128
0.293618
0.272343
0.285448
0.282843
0.288548
0.317903
0.299208
0.319183
0.273746
0.281488
0.272267
0.322935
0.351549
0.27277
0.31101
0.272659
0.272351
0.272174
0.272472
0.290019
0.273807
0.272316
0.307054
0.273313
0.272788
0.396833
0.272333
0.286374
0.29617
0.279158
0.279832
0.272534
0.272405
0.276672
0.296528
0.341697
0.288738
0.307091
0.283302
0.272195
0.272691
0.273572
0.28114
0.330981
0.283864
0.328821
0.272313
0.275559
0.276604
0.273413
0.30664
0.27242
0.273746
0.277102
0.272642
0.273383
0.288547
0.273971
0.275128
0.273341
0.272976
0.296436
0.329895
0.282576
0.275496
0.274184
0.273765
0.27485
0.277736
0.314862
0.293849
0.299802
0.270177
0.266645
0.273367
0.27256
0.272965
0.277026
0.294753
0.332403
0.276067
0.292589
0.289723
0.300459
0.328864
0.274388
0.274095
0.279014
0.27269
0.272258
0.287434
0.320248
0.28845
0.323124
0.271957
0.273555
0.317114
0.281891
0.272345
0.274399
0.273394
0.273241
0.30499
0.359995
0.287208
0.278508
0.273366
0.272668
0.272354
0.321308
0.272826
0.297777
0.276077
0.277486
0.293837
0.2807
0.274641
0.398409
0.276176
0.273721
0.293247
0.280597
0.274223
0.454359
0.276157
0.310951
0.272241
0.273183
0.272464
0.28175
0.27236
0.272952
0.277308
0.362098
0.302585
0.273229
0.305793
0.274875
0.27374
0.295367
0.275508
0.27321
0.272201
0.309401
0.273559
0.280567
0.282588
1.42016
0.273555
0.283621
0.289843
0.272887
0.273653
0.282888
0.291319
0.274937
0.272333
0.275264
0.275644
0.27233
0.273002
0.273441
0.272759
0.272632
0.309303
0.294568
0.27262
0.273712
0.273056
0.317617
0.321451
1.4246
0.29336
0.273177
0.317582
0.272508
0.316116
0.272189
0.285182
0.27895
0.273717
0.274615
0.27215
0.341232
0.296053
0.272197
0.273911
0.273259
0.275924
0.272618
0.281566
0.272464
0.273233
0.27239
0.272962
0.274075
0.288401
0.26855
0.273709
0.282033
0.272502
0.274283
0.312037
0.375727
0.27573
0.273623
0.272578
0.281062
0.276538
0.273171
0.300256
0.273238
0.272449
0.284406
0.30049
0.2726
0.45427
0.273639
0.272591
0.272343
0.273244
0.290936
0.305409
0.293844
0.272869
0.275787
0.276954
0.274868
0.417042
0.282871
0.274552
0.272618
0.289355
0.272523
0.27341
0.272635
0.280788
0.279038
0.293309
0.274312
0.354916
0.268364
0.272469
0.27359
0.272792
0.318198
0.360628
0.272387
0.27423
0.275433
0.27229
0.272135
0.272986
0.286257
0.27378
0.273332
0.299597
0.310988
0.310569
0.273781
0.366517
0.347187
0.326627
0.295361
0.272944
0.272293
0.40445
0.273797
0.272647
0.274855
0.276286
0.282045
0.273095
0.273042
0.286128
0.292407
0.325235
0.273827
0.324049
0.272316
0.260008
0.281219
0.273363
0.287463
0.328659
0.327733
0.2802
0.272462
0.272804
0.304715
0.276119
0.291293
0.445466
0.273841
0.273259
0.287262
0.308989
0.283302
0.272751
0.272258
0.288188
0.276564
0.278618
0.283468
0.272959
0.282197
0.275018
0.272658
0.273613
0.315532
0.317692
0.276995
0.272598
0.279819
0.276185
0.279323
0.272841
0.290332
0.273502
0.272429
0.276222
0.275555
0.272849
0.378081
0.276465
0.273088
0.283676
0.307381
0.273114
0.277046
0.276609
0.274201
0.292368
0.308825
0.272191
0.273139
0.274351
0.276663
0.292083
0.273195
0.273613
0.277381
0.273266
0.273317
0.273015
0.273975
0.272887
0.292082
0.284227
0.354642
0.272795
0.274194
0.335984
0.288357
0.293565
0.273297
0.291844
0.297264
0.273879
0.279455
0.277384
0.278742
0.275592
0.281673
0.269503
0.273411
0.274305
0.306844
0.273124
0.273209
0.27321
0.302139
0.274204
0.275723
0.278087
0.30671
0.27955
0.273931
0.274103
0.291539
0.280214
0.280011
0.273563
0.394313
0.295488
0.609023
0.272151
0.274862
0.305096
0.284802
0.273859
0.28145
0.29301
0.27489
0.357665
0.274348
0.272543
0.272951
0.273602
0.275592
0.273398
0.273434
0.272516
0.272336
0.272146
0.274141
0.276675
0.281268
0.272187
0.273818
0.27694
0.330976
0.272658
0.273116
0.277871
0.272943
0.261389
0.291017
0.275237
0.275083
0.273101
0.2745
0.308834
0.272485
0.277166
0.273509
0.286618
0.293018
0.310999
0.277651
0.275535
0.303362
0.273795
0.272457
0.291505
0.272145
0.272692
0.297391
0.272732
0.278106
0.268814
0.276818
0.274857
0.357481
0.276964
0.275297
0.30994
0.274486
0.273092
0.274179
0.284232
0.280356
0.272525
0.277954
0.273951
0.274164
0.273605
0.272147
0.294824
0.269144
0.27296
0.273619
0.275935
0.275505
0.306288
0.273647
0.274243
0.276315
0.27928
0.274655
0.284453
0.284528
0.285724
0.274905
0.274941
0.3334
0.280626
0.281262
0.279194
0.28083
0.276758
0.308496
0.272717
0.272614
0.28193
0.272152
0.278672
0.273069
0.269264
0.275184
0.285559
0.307673
0.274193
0.277167
0.275472
0.291276
0.329774
0.310045
0.404966
0.308657
0.28913
0.279368
0.277224
0.275127
0.278026
0.327653
0.351287
0.273378
0.279924
0.284005
0.273507
0.273594
0.274531
0.273734
0.273391
0.272165
0.336163
0.285394
0.272115
0.282934
0.277155
0.307752
0.312981
0.383371
0.289563
0.259845
0.257182
0.272993
0.27382
0.377815
0.273093
0.278579
0.274722
0.274403
0.274926
0.273714
0.284395
0.303961
0.276681
0.301299
0.28836
0.2741
0.279564
0.278715
0.273226
0.281164
0.284278
0.274194
0.355611
0.286378
0.291092
0.252172
0.275306
0.289568
0.273881
0.27343
0.287364
0.273848
0.272637
0.276313
0.275848
0.325614
0.328042
0.309717
0.583274
0.272461
0.32551
0.274243
0.275657
0.27477
0.31405
0.274918
0.273918
0.274344
0.270885
0.298317
0.623903
0.289385
0.275847
0.272066
0.272191
0.293974
0.316013
0.306221
0.286609
0.27739
0.29061
0.306361
0.274333
0.272406
0.27504
0.272909
0.275483
0.277829
0.286914
0.335302
0.292469
0.273922
0.272868
0.273934
0.276081
0.272393
0.403492
0.278231
0.273976
0.272367
0.276406
0.28631
0.303135
0.272542
0.276747
0.272893
0.273958
0.274799
0.275304
0.273075
0.272432
0.311529
0.293216
0.276203
0.312407
0.275316
0.277057
0.274798
0.272552
0.273776
0.275534
0.272756
0.272447
0.277583
0.355948
0.276574
0.272959
0.27
0.327405
0.267504
0.292061
0.272475
0.331117
0.273654
0.283295
0.288707
0.277881
0.372343
0.28979
0.294141
0.275999
0.272092
0.300396
0.286238
0.274164
0.321308
0.27536
0.272792
0.272779
0.298037
0.456784
0.285743
0.27309
0.27444
0.285829
0.27227
0.305272
0.294052
0.276683
0.274203
0.272506
0.392821
0.274306
0.272563
0.422825
0.291845
0.288772
0.279785
0.294966
0.27226
0.281506
0.273611
0.273147
0.298116
0.276018
0.3719
0.289909
0.294686
0.285401
0.279277
0.27414
0.272478
0.283759
0.272219
0.272411
0.273401
0.273181
0.273472
0.273984
0.272905
0.27376
0.282873
0.410132
0.360336
0.272739
0.272582
0.273416
0.273057
0.273187
0.282555
0.313047
0.284867
0.272813
0.273569
0.273766
0.278582
0.287036
0.309358
0.363769
0.277486
0.32417
0.281863
0.276152
0.408256
0.371368
0.272418
0.273949
0.272229
0.315005
0.280633
0.561462
0.276329
0.280849
0.289849
0.329205
0.515502
0.268905
0.2533
0.28182
0.256149
0.407757
0.351041
0.273796
0.27432
0.27385
0.274612
0.273859
0.27451
0.252109
0.294357
0.289921
0.258789
0.288793
0.277954
0.282937
0.278297
0.272991
0.306701
0.260892
0.275586
0.252441
0.248028
0.251341
0.278308
0.300461
0.290392
0.306303
0.272559
0.273383
0.293116
0.284077
0.265724
0.286827
0.225093
0.299725
0.277138
0.434156
0.295886
0.377343
0.278849
0.29575
0.305209
0.258647
0.273343
0.289477
0.29466
0.275985
0.281982
0.262149
0.247732
0.27441
0.311676
0.276504
0.276766
0.292739
0.344143
0.313251
0.279666
0.262446
0.271714
0.27392
0.272415
0.290574
0.376965
0.275212
0.247437
0.304029
0.274927
0.273546
0.274119
0.276881
0.279639
0.272519
0.29953
0.276414
0.273834
0.278111
0.276879
0.258979
0.262112
0.274443
0.248692
0.285561
0.283834
0.324464
0.32691
0.303776
0.276469
0.278976
0.402721
0.386344
0.274069
0.262829
0.272448
0.302492
0.274542
0.288521
0.309353
0.262796
0.246865
0.307678
0.283506
0.284241
0.464427
0.298928
0.276347
0.278186
0.275893
0.29252
0.321979
0.311989
0.321949
0.260875
0.286217
0.3482
0.272145
0.273422
0.290319
0.274053
0.35232
0.274904
0.29451
0.681408
0.278635
0.286248
0.303534
0.266673
0.265776
0.273146
0.265395
1.87579
0.273215
0.318377
0.293928
0.288638
0.287844
0.273908
0.274459
0.273039
0.275473
0.26973
0.249507
0.28781
0.273376
0.306065
0.273024
0.277799
0.368458
0.286136
0.30096
0.30173
0.30313
0.288168
0.288679
0.263187
0.284235
0.273696
0.294086
0.288809
0.319964
0.276365
0.305022
0.325476
0.27933
0.235091
0.232877
0.290673
0.317306
0.315981
0.29583
0.325947
0.273236
0.294284
0.376265
0.272479
0.275549
0.273771
0.273856
0.30104
0.273276
0.306707
0.27233
0.273223
0.278254
0.272305
0.272053
0.29815
0.273102
0.312588
0.259778
0.300085
0.281326
0.327827
0.431253
0.275666
0.296239
0.337555
0.285074
0.276872
0.279807
0.294205
0.679645
0.971788
0.276929
0.272935
0.273684
0.281561
0.274418
0.285671
0.421124
0.272076
0.327734
0.566683
0.288675
0.298418
0.276625
0.277327
0.279944
0.240335
0.276347
0.306076
0.278058
0.272631
0.32554
0.281128
0.298615
0.299857
0.276468
0.279224
0.413849
0.299251
0.284919
0.315472
0.344664
0.282704
0.273628
0.309802
0.279434
0.276867
0.272331
0.263417
0.285852
0.304647
0.267933
0.306609
0.278656
0.272869
0.274042
0.272658
0.283801
0.272249
0.274261
0.272582
0.307562
0.283868
0.277906
0.283681
0.275261
0.289721
0.366966
0.272391
0.29001
0.272222
0.27303
0.272356
0.273413
0.295422
0.272929
0.274213
0.273125
0.273546
0.300287
0.310064
0.270334
0.267693
0.283927
0.29147
0.278454
0.226707
0.272567
0.274107
0.272527
0.27498
0.274128
0.362789
0.822431
0.354126
0.281051
0.289245
0.271888
0.275396
0.272644
0.362396
0.277242
0.286749
0.285577
0.287511
0.282026
0.276372
0.275337
0.270061
0.275539
0.283574
0.281655
0.317422
0.432638
0.275908
0.272112
0.271657
0.285983
0.286493
0.281714
0.307259
0.652227
0.287107
0.522752
0.325791
0.273138
0.320051
0.277248
0.275627
0.328211
0.286059
0.272779
0.272454
0.272108
0.272871
0.291669
0.299686
0.272913
0.290091
0.301817
0.27298
0.272484
0.279497
0.270202
0.305216
0.416395
0.271909
0.285787
0.27707
0.283443
0.402452
0.308634
0.281838
0.303254
0.280586
0.2812
0.287453
0.285899
0.279525
0.272886
0.292651
0.275112
0.27388
0.275493
0.28188
0.272407
0.659004
0.342905
0.34375
0.23304
0.340272
0.231576
0.355391
0.364372
0.368155
0.375584
0.318088
0.272901
0.287718
0.273732
0.276662
0.327541
0.272888
0.276002
0.275208
0.36149
0.272977
0.419851
0.277268
0.273226
0.445412
0.296683
0.272207
0.274672
0.272492
0.273838
0.273158
0.329522
0.5036
0.303254
0.277018
0.268663
0.276504
0.273066
0.27577
0.272724
0.340075
0.529084
0.293644
0.275081
0.322585
0.273869
0.350296
0.285546
0.279235
0.357118
0.308765
0.276971
0.274151
0.275118
0.290274
0.276749
0.274922
0.277258
0.274513
0.353044
0.287579
0.291823
0.275811
0.27522
0.285926
0.278239
0.27222
0.298555
0.278421
0.278676
0.273303
0.273266
0.273043
0.272691
0.272534
0.275357
0.272415
0.281525
0.278316
0.299725
0.279881
0.388513
0.272576
0.334113
0.274532
0.349051
0.272834
0.273597
0.275268
0.27651
0.281029
0.254089
0.272844
0.282986
0.281349
0.284453
0.278588
0.277059
0.272898
0.275123