/*--------------------------------*- C++ -*----------------------------------*\
| =========                 |                                                 |
| \\      /  F ield         | OpenFOAM: The Open Source CFD Toolbox           |
|  \\    /   O peration     | Version:  v1912                                 |
|   \\  /    A nd           | Website:  www.openfoam.com                      |
|    \\/     M anipulation  |                                                 |
\*---------------------------------------------------------------------------*/
FoamFile
{
    version     2.0;
    format      ascii;
    class       volScalarField;
    location    "0.01";
    object      nut;
}
// * * * * * * * * * * * * * * * * * * * * * * * * * * * * * * * * * * * * * //

dimensions      [0 2 -1 0 0 0 0];


internalField   nonuniform List<scalar> 
5794
(
0.000683934
0.000817754
0.000862532
0.000929979
0.000871609
0.000782305
0.000953751
0.00094988
0.00085967
0.00098209
0.000873372
0.000824939
0.000831266
0.000873965
0.000842886
0.000850871
0.000876027
0.000861884
0.00081902
0.000807884
0.00180563
0.000797904
0.000844051
0.000836654
0.000834032
0.00137848
0.000862256
0.00085859
0.000871312
0.000771896
0.000885252
0.000988364
0.00089934
0.000851184
0.000851938
0.000854396
0.000887462
0.000891081
0.000878331
0.000859388
0.000859345
0.00086088
0.000769922
0.000836857
0.00084772
0.000894598
0.00097375
0.000896199
0.000861391
0.000779081
0.00069726
0.000946312
0.00117067
0.000881963
0.00045427
0.000846711
0.000930001
0.000861535
0.000849237
0.00158489
0.000802539
0.000858624
0.000858101
0.000899099
0.000856552
0.000849595
0.000855066
0.000645042
0.000892193
0.000806012
0.000854411
0.000859246
0.00122274
0.000857431
0.000870128
0.000885466
0.000413519
0.00130745
0.000818283
0.000397791
0.000844966
0.000808372
0.00085203
0.000856243
0.000865808
0.000499802
0.000590194
0.00047218
0.000872278
0.000886278
0.000820504
0.000910617
0.000830756
0.000798974
0.000804046
0.000867664
0.000816629
0.000793105
0.000819649
0.000801543
0.00150534
0.000949737
0.000843545
0.000855567
0.000909327
0.000850662
0.000830673
0.000830007
0.000936148
0.000781286
0.00094602
0.000808055
0.00132219
0.000849626
0.000805541
0.000808353
0.000863704
0.000859773
0.000798617
0.000986138
0.000852695
0.000559703
0.000848414
0.000861006
0.000866454
0.000853704
0.000923493
0.000792504
0.000856777
0.000823453
0.000865138
0.000855919
0.000915424
0.00130472
0.000850505
0.000850546
0.000771143
0.000854321
0.000857192
0.000852275
0.000885993
0.000863908
0.000851887
0.00085969
0.000865254
0.000987004
0.000903256
0.000847186
0.000862679
0.000866888
0.000746997
0.000851733
0.000850295
0.000836411
0.000860295
0.000934592
0.00103035
0.000887961
0.00092223
0.00107061
0.00103051
0.00100471
0.000894228
0.00100608
0.000949897
0.000882125
0.000879413
0.000875064
0.00101281
0.000699937
0.000768742
0.00114706
0.000787726
0.000765671
0.000772473
0.000928181
0.000693314
0.000894364
0.000910546
0.000873702
0.000881684
0.000845233
0.00080597
0.000811167
0.000845298
0.00109859
0.00102109
0.000845929
0.000900304
0.000906927
0.000869804
0.00106542
0.00103974
0.00102121
0.00078357
0.000815043
0.000841347
0.000901498
0.00106689
0.00100961
0.00084447
0.000997894
0.00095017
0.000885726
0.00100347
0.000974904
0.000859326
0.000851503
0.000855084
0.000901716
0.00076909
0.000856998
0.000880078
0.000878593
0.000852302
0.000853548
0.000853722
0.000901764
0.000852751
0.000850077
0.000860118
0.000865471
0.000854892
0.000872167
0.00070086
0.000848183
0.000661915
0.000862929
0.000831173
0.000853758
0.000888146
0.000880846
0.000878281
0.000857687
0.000876141
0.000831174
0.000849522
0.000850895
0.000836552
0.000976225
0.000883285
0.000848372
0.000861963
0.000955853
0.00093833
0.00088561
0.000854073
0.00086128
0.000458349
0.000494065
0.000554262
0.000849851
0.000862834
0.000837074
0.000869937
0.000885374
0.000917557
0.000852901
0.000844671
0.000892159
0.00084004
0.000866862
0.000865996
0.000843455
0.000784087
0.000986239
0.000857636
0.000846819
0.000959311
0.000854186
0.000892515
0.000852172
0.000886018
0.000887982
0.00108794
0.000842733
0.000872161
0.000857289
0.000853327
0.000872629
0.000900773
0.000835713
0.00087149
0.000867152
0.000870197
0.000857858
0.000959785
0.000882959
0.000841772
0.000853057
0.000863907
0.000863101
0.000859038
0.000851885
0.000874589
0.00137308
0.000910037
0.000903005
0.000911398
0.000849785
0.000663337
0.00131213
0.00069432
0.000853707
0.000815221
0.000809751
0.000853049
0.000884623
0.000876804
0.000919383
0.000872201
0.000856932
0.000883414
0.000849681
0.00086961
0.000695848
0.00084609
0.000855084
0.000921113
0.000904529
0.000905617
0.000890171
0.000870929
0.000866556
0.000849976
0.000853002
0.000851292
0.00108359
0.00102479
0.00105576
0.000859584
0.00079701
0.000904007
0.00099294
0.00106148
0.00101431
0.000873596
0.000818516
0.000784589
0.000797782
0.000754583
0.00070425
0.00102261
0.000758259
0.000787934
0.0007724
0.000776063
0.000804602
0.000960486
0.000929215
0.000966764
0.000762962
0.000857455
0.000890276
0.00084808
0.000887888
0.000902598
0.000861699
0.000978311
0.00097577
0.00085117
0.000856919
0.000828622
0.000857009
0.00085725
0.000838436
0.000855523
0.000785981
0.000827977
0.000790697
0.000854936
0.000806878
0.000853826
0.000855333
0.000850311
0.000950014
0.000800462
0.000911615
0.000832063
0.000823586
0.000868035
0.000853165
0.000843873
0.000871848
0.000870176
0.000864934
0.000860867
0.000853353
0.000854758
0.000892044
0.000887568
0.0008858
0.000816145
0.000854798
0.000837314
0.000788791
0.000826955
0.000975588
0.000859491
0.000850858
0.000848093
0.000847788
0.000854607
0.000796744
0.00093246
0.00085314
0.000925896
0.000855256
0.000845421
0.000828244
0.00081826
0.000812246
0.000852258
0.000792003
0.000797907
0.000826108
0.000734438
0.000936422
0.000978368
0.000800627
0.000780954
0.000768389
0.000847891
0.000858249
0.000903361
0.000902381
0.000878356
0.000849597
0.000824934
0.00082204
0.000857821
0.000854545
0.000860794
0.0014682
0.000877342
0.000881497
0.000912449
0.000915659
0.000904693
0.000902081
0.000889705
0.000891997
0.000988241
0.00101341
0.000851263
0.000810543
0.000798769
0.00085081
0.00103655
0.000900413
0.000931349
0.000827305
0.00187413
0.000810724
0.000857381
0.000810948
0.000848531
0.000884383
0.00096004
0.000877245
0.000887679
0.000863986
0.00123739
0.000857045
0.000798155
0.000826572
0.000880609
0.000881714
0.000850299
0.000834486
0.000460125
0.00085554
0.000851023
0.000850306
0.00085157
0.000834888
0.000892265
0.000854216
0.000924445
0.00086799
0.00120882
0.000880171
0.000777602
0.0008488
0.000848824
0.000852406
0.000858236
0.000847202
0.000919552
0.000819303
0.000812382
0.000889993
0.000882516
0.000864061
0.00095052
0.000857958
0.000893937
0.000852134
0.000848738
0.000852062
0.000878154
0.000866657
0.000860586
0.000852749
0.000860423
0.000862168
0.00089467
0.000852099
0.000851883
0.000849743
0.00088949
0.000852784
0.000858958
0.000842207
0.000849986
0.000882404
0.000838264
0.000846466
0.000858097
0.000863317
0.000876998
0.000852932
0.000874985
0.000861537
0.000845478
0.000865851
0.000952238
0.00085352
0.000816793
0.000817859
0.00133496
0.000679193
0.000871448
0.000850291
0.000852149
0.000852728
0.000855386
0.000810777
0.00083585
0.000846853
0.000760233
0.00207693
0.000774172
0.000909329
0.000852602
0.000849726
0.000909497
0.000856973
0.000843645
0.000855073
0.000854003
0.000826535
0.000729348
0.000852218
0.000884361
0.000845914
0.0011769
0.000798208
0.000802121
0.000887838
0.00142962
0.000893236
0.000853712
0.000855355
0.000887781
0.000861637
0.000852596
0.000852224
0.000763656
0.000849684
0.000793733
0.00086587
0.000621761
0.000664614
0.000879281
0.000888957
0.000878498
0.000880395
0.000878897
0.000881958
0.000873203
0.000968531
0.000856656
0.000819404
0.000929131
0.000842283
0.000849555
0.000841689
0.000874065
0.000846336
0.000849734
0.000857252
0.000850779
0.000863228
0.000906393
0.000851421
0.000823668
0.000939165
0.000849432
0.000856942
0.000853697
0.00078956
0.000865389
0.000853168
0.000848269
0.000814241
0.00173156
0.000870584
0.000504166
0.000853438
0.000895315
0.000892655
0.000855732
0.00103849
0.000892765
0.000855704
0.000851403
0.000669042
0.000871755
0.000883249
0.000669874
0.00085359
0.000853102
0.000850262
0.000821514
0.000874204
0.000852987
0.000868446
0.000780251
0.000842018
0.000883257
0.000855452
0.000711041
0.000910771
0.000855916
0.000813219
0.00142183
0.000858544
0.000837008
0.000862003
0.000870114
0.000850092
0.000849897
0.000947158
0.000728811
0.000863098
0.000884583
0.00132558
0.000852236
0.00084633
0.000738129
0.000957768
0.000850595
0.000817122
0.000857492
0.000804742
0.000884849
0.000882949
0.000852088
0.000850434
0.000853168
0.000704342
0.000850662
0.00125924
0.000857241
0.000879676
0.000843024
0.000865982
0.000986374
0.000832291
0.000849872
0.000932829
0.000951543
0.000874403
0.00109146
0.000856983
0.000852137
0.000848529
0.000860571
0.000964822
0.000875728
0.000838711
0.000865431
0.000849507
0.000878091
0.000663565
0.000894887
0.000850891
0.000853068
0.000849709
0.000858816
0.000864676
0.00130297
0.000910934
0.000850294
0.00085783
0.000850553
0.000716567
0.000710545
0.000855418
0.000833882
0.000655495
0.000661327
0.000852339
0.000882534
0.000854889
0.000869463
0.000842687
0.000850598
0.000797853
0.000850239
0.000891161
0.000981991
0.000871642
0.000851355
0.000844576
0.000853867
0.000966934
0.000853978
0.000850449
0.000853243
0.00145045
0.000801942
0.000850975
0.000880992
0.000901972
0.000858411
0.00078851
0.000842003
0.00070051
0.000862923
0.0011929
0.000831841
0.000853681
0.000850907
0.000906899
0.00103936
0.000847936
0.000890292
0.000827537
0.000823398
0.000611995
0.000668183
0.000733139
0.000671547
0.000846668
0.000956541
0.00083726
0.00107219
0.000902492
0.000884813
0.000919915
0.000870616
0.000827972
0.000862635
0.000848449
0.000912675
0.000819154
0.00083922
0.000868963
0.00085312
0.000878719
0.000887981
0.000869877
0.000846545
0.000894372
0.00107081
0.000841853
0.000878244
0.000832126
0.000852283
0.000841353
0.000868224
0.000850973
0.000852889
0.000849437
0.000862578
0.000936659
0.000859339
0.000864681
0.000849898
0.000914511
0.00114806
0.000861222
0.000847759
0.000888326
0.00112121
0.00085115
0.000869214
0.000939255
0.000872094
0.000860498
0.000854413
0.000966395
0.000881579
0.0011202
0.000822342
0.00182083
0.000813209
0.00139323
0.000865888
0.000848279
0.000884241
0.000861319
0.000886076
0.000854316
0.000849696
0.000812688
0.000796733
0.000869096
0.000914388
0.000866823
0.000913822
0.000851233
0.00085071
0.000854658
0.000860842
0.000852274
0.000856279
0.000833813
0.00083274
0.000946464
0.000849376
0.000852693
0.000842693
0.000831865
0.000855042
0.000850057
0.000849361
0.00090862
0.000849098
0.000847892
0.000852991
0.000850122
0.000857555
0.000849909
0.000851379
0.00104739
0.000720409
0.000584098
0.000910184
0.000847563
0.00085168
0.000870166
0.00171455
0.000850644
0.000895359
0.000880049
0.000998421
0.00090119
0.000864761
0.000854437
0.00098433
0.000889871
0.000846768
0.000853848
0.000858596
0.000852925
0.000850194
0.000847535
0.000887483
0.000883465
0.000862948
0.000851391
0.000901021
0.0010014
0.00133989
0.000847674
0.000864614
0.000852053
0.000866817
0.000862104
0.000853782
0.000873624
0.0022473
0.000854666
0.000851573
0.00132235
0.00086548
0.00091281
0.000644816
0.000896115
0.00082574
0.000889429
0.000849807
0.000850775
0.00135272
0.000850141
0.000737664
0.000908889
0.000853702
0.000866175
0.000860374
0.000848154
0.000857659
0.000850566
0.000864708
0.000865189
0.000844391
0.000862479
0.000849776
0.000853527
0.000851408
0.00089073
0.000853585
0.000851225
0.000858277
0.000849778
0.000853198
0.000895047
0.000859908
0.000926058
0.000814733
0.000849702
0.000882484
0.000895826
0.00082901
0.000855496
0.000849808
0.000868765
0.000859342
0.00107238
0.000877474
0.000610261
0.000671619
0.000815305
0.000666074
0.000782933
0.000578722
0.000794723
0.000770755
0.000899271
0.000581075
0.000514772
0.00113171
0.000856638
0.000854522
0.0007854
0.000777431
0.00075643
0.0008802
0.000861285
0.000843226
0.000851227
0.000858024
0.000849795
0.000880832
0.000849797
0.000604823
0.000855801
0.00085561
0.00151356
0.000834468
0.000821806
0.00089206
0.000773569
0.000971342
0.000907911
0.00195537
0.000850935
0.000849391
0.000876467
0.000850279
0.00066045
0.000693077
0.000850406
0.000851273
0.000869881
0.000855497
0.000849714
0.000847418
0.000850904
0.000862648
0.000851807
0.000857975
0.000853656
0.000849773
0.000833241
0.000933359
0.00080078
0.000829917
0.000819506
0.000849964
0.000559988
0.000910258
0.000876598
0.000782621
0.000960142
0.000853043
0.000848019
0.000899198
0.000875019
0.00085613
0.000948195
0.00143709
0.0008021
0.000885414
0.000805258
0.000850171
0.000850489
0.00136217
0.000868784
0.000858103
0.00110606
0.000839458
0.000814615
0.000884189
0.000902557
0.000849789
0.000865698
0.000849524
0.000863699
0.00102554
0.000664179
0.000718385
0.000623172
0.000948422
0.000608968
0.000677232
0.000583368
0.00084916
0.0008248
0.000852594
0.00085311
0.00152495
0.00084802
0.000860256
0.000889718
0.000859593
0.000869797
0.000862168
0.000848947
0.00077483
0.000854281
0.000883067
0.000861662
0.000881103
0.000848148
0.00084526
0.000949614
0.00100166
0.000850243
0.00084974
0.000855997
0.000875839
0.000846302
0.000850388
0.00085165
0.000853161
0.00124661
0.000849943
0.000848104
0.000876869
0.000864446
0.000839517
0.000854949
0.000855154
0.000850427
0.00086073
0.00110252
0.000889634
0.000857784
0.00112462
0.000851747
0.000849718
0.000886839
0.000850863
0.000852089
0.000841452
0.000842028
0.000850437
0.000850262
0.000853924
0.000874093
0.000859174
0.000888985
0.000852895
0.000852182
0.000857004
0.000857751
0.000856824
0.000851902
0.000853542
0.000884197
0.000716219
0.000874539
0.000854932
0.000851382
0.000854405
0.000923973
0.000866675
0.000627828
0.000893991
0.000716606
0.000801997
0.000887044
0.00080953
0.000851585
0.000837339
0.000647259
0.000949917
0.00062421
0.000630624
0.00115764
0.000856992
0.000883152
0.000861196
0.000853698
0.000849793
0.000852843
0.000893661
0.000853023
0.000895784
0.000857368
0.00086152
0.000856326
0.000840426
0.000856289
0.000810447
0.000926496
0.000887989
0.000897599
0.000853859
0.000850634
0.00085196
0.000854556
0.000854483
0.000860191
0.000933409
0.000856977
0.000850106
0.000846403
0.00085454
0.000852805
0.000872106
0.000869317
0.000861111
0.00086108
0.000853268
0.000850571
0.00212962
0.00103073
0.000849971
0.000864544
0.000852081
0.000852051
0.000939093
0.000877217
0.00098884
0.000752469
0.000908264
0.000839369
0.000874315
0.000851492
0.000859991
0.000862015
0.000860108
0.000861246
0.000853598
0.00086417
0.000986892
0.000996641
0.000792989
0.000846742
0.00156179
0.000836954
0.000897067
0.00087778
0.000885345
0.000887165
0.000855628
0.00106618
0.000837253
0.000875515
0.000885722
0.000867436
0.000883988
0.00089027
0.000872945
0.000911703
0.000847238
0.000880716
0.000855143
0.000855389
0.000853085
0.000876039
0.000884974
0.000892459
0.000893802
0.000849959
0.000874631
0.000774761
0.000588116
0.00116805
0.000856932
0.000850499
0.000859964
0.000851193
0.00104492
0.00084967
0.000851866
0.00132287
0.000915508
0.000855025
0.000850467
0.000847733
0.000849977
0.000835601
0.000811578
0.000630748
0.000598551
0.000736878
0.000854443
0.000850645
0.000876002
0.000860683
0.000852636
0.000849828
0.00088283
0.000954087
0.000626673
0.000856135
0.000855095
0.000876307
0.000853182
0.000539837
0.000851835
0.000857964
0.000851572
0.00063931
0.000873699
0.000857156
0.000837339
0.000869402
0.000863155
0.000850102
0.000817749
0.000856411
0.000882334
0.000857296
0.0007396
0.000851721
0.000850435
0.000854423
0.00104776
0.000781862
0.000850271
0.000883288
0.000987608
0.000860439
0.000818912
0.000866055
0.000828666
0.000831153
0.00105088
0.000877994
0.00087254
0.000850218
0.000859712
0.000858026
0.00085102
0.000967193
0.000854712
0.000855538
0.00086705
0.000867166
0.000856953
0.000869404
0.000849019
0.000882135
0.00085277
0.00087548
0.000871098
0.000852195
0.000857888
0.000895369
0.000852326
0.000852642
0.000918355
0.000856896
0.000880714
0.000870838
0.000872271
0.000864761
0.000851357
0.000850994
0.000867591
0.000877197
0.000858408
0.000832564
0.000883306
0.000862221
0.000807602
0.000877928
0.000840704
0.000993707
0.000851999
0.000853126
0.000886414
0.000800141
0.000850324
0.00085571
0.000853259
0.000896055
0.000850498
0.000851558
0.000846134
0.00087287
0.000851415
0.000939264
0.000859516
0.000877037
0.00085268
0.000850918
0.000882677
0.000986627
0.000865881
0.000879698
0.000856519
0.00086726
0.000866844
0.000447879
0.000853913
0.000853148
0.000852688
0.000856401
0.000875881
0.000839766
0.000857418
0.000850328
0.000594218
0.000606209
0.000688781
0.000652957
0.000695866
0.000859838
0.000856064
0.000871281
0.000849679
0.000904892
0.000855883
0.000852622
0.000852935
0.000861193
0.000853317
0.000861258
0.000858858
0.0010461
0.000865763
0.000853799
0.000810542
0.000850428
0.00081922
0.000942747
0.000858512
0.000853069
0.000848746
0.000849958
0.00105859
0.00085023
0.000860761
0.000868352
0.000851762
0.00088328
0.000852541
0.000579901
0.000579021
0.000611464
0.00169051
0.000837034
0.000828409
0.000891073
0.000829268
0.00140127
0.000854037
0.000668262
0.000668552
0.000666645
0.000715336
0.00067876
0.000863112
0.000542809
0.000715335
0.000666559
0.00072701
0.000787015
0.000708259
0.000614496
0.000587647
0.000587121
0.000718056
0.000870291
0.000613444
0.000769892
0.000600039
0.000684604
0.000566999
0.000567789
0.000490501
0.00089468
0.000523328
0.000734338
0.000499832
0.000746689
0.000775454
0.00078643
0.000710605
0.000774602
0.000641156
0.000638286
0.000826073
0.000650707
0.000668956
0.000824891
0.000786851
0.000676504
0.000673547
0.000709648
0.000694759
0.000848436
0.000849703
0.000826121
0.000825935
0.000859999
0.000850806
0.000850244
0.000862668
0.000853101
0.000850689
0.000821283
0.000853909
0.00104138
0.000873964
0.00102359
0.000881591
0.000855966
0.000880024
0.000852432
0.000852457
0.000855181
0.000868523
0.000719676
0.00085913
0.000862505
0.000864476
0.000874559
0.00086739
0.000851077
0.000822479
0.000879113
0.000880083
0.0008674
0.00119749
0.000853729
0.000875978
0.000879916
0.000869337
0.000851884
0.000887954
0.00114987
0.000866596
0.000855562
0.000790829
0.000874695
0.000853834
0.000856762
0.000948347
0.000852088
0.00203325
0.000850412
0.000740036
0.000794179
0.000863442
0.000852447
0.000619913
0.000850483
0.000888959
0.000866071
0.000655359
0.000545272
0.000705111
0.000866783
0.00064719
0.000735588
0.000830652
0.00083227
0.000759582
0.000835155
0.000709709
0.000667819
0.000699806
0.000671819
0.000594474
0.000701323
0.00056329
0.000565053
0.000563165
0.000642647
0.00071102
0.000640089
0.000852893
0.000882887
0.000473048
0.000861391
0.000855002
0.000850045
0.000859551
0.000849851
0.000845173
0.000856792
0.00085457
0.000854016
0.000853313
0.000875164
0.000611898
0.00085377
0.000849253
0.000849501
0.000900406
0.000852065
0.00086409
0.000849837
0.00085196
0.000852073
0.00088627
0.000851136
0.000870151
0.000855548
0.000851457
0.000837017
0.000839591
0.000867062
0.000861056
0.000861862
0.000885558
0.00086183
0.000850602
0.000848656
0.000851083
0.000860203
0.000852859
0.000851848
0.000868948
0.000851467
0.000855929
0.000853202
0.000853724
0.000850036
0.000865193
0.000905619
0.000535847
0.000850822
0.000853156
0.000906457
0.000441938
0.00085152
0.00087953
0.000858246
0.000853885
0.000608645
0.000850096
0.000887563
0.000907802
0.000852874
0.000881603
0.000851239
0.000852556
0.000851453
0.000980586
0.000849637
0.000877047
0.00058412
0.000570204
0.000586603
0.000852112
0.000850054
0.000975551
0.000855783
0.000850066
0.000847238
0.000852185
0.000893252
0.000852713
0.000851477
0.000862499
0.000853401
0.000849994
0.000850727
0.000853226
0.000854462
0.000879853
0.000825587
0.000856457
0.000852019
0.000862576
0.00059519
0.000850921
0.000850242
0.000850555
0.000867397
0.000861759
0.000851105
0.000858875
0.000875418
0.000677924
0.000855702
0.000589386
0.000855533
0.000855257
0.000609136
0.000894142
0.000869719
0.000850521
0.00085155
0.000853506
0.000850194
0.000616291
0.00083309
0.000916347
0.000850934
0.00085071
0.000850163
0.000850396
0.000850426
0.000641222
0.000865004
0.000853123
0.000930338
0.000614377
0.000875636
0.000868062
0.00108214
0.000864792
0.000857223
0.000859148
0.000849993
0.000850205
0.000852609
0.00085051
0.000853907
0.00085107
0.000857923
0.000854865
0.000853485
0.000852826
0.000855612
0.000852892
0.000852584
0.000851737
0.000860039
0.000852527
0.0008525
0.000852341
0.000853074
0.000852636
0.000854315
0.000852389
0.000852343
0.00085214
0.000849995
0.000850291
0.000852738
0.000855847
0.000850147
0.000851303
0.000852895
0.000850924
0.000565375
0.000607614
0.000852748
0.000854223
0.000851538
0.000850592
0.000851411
0.000850358
0.000854789
0.000853975
0.000842463
0.000853614
0.000852721
0.000857174
0.000924793
0.000852638
0.000938368
0.000636899
0.000949206
0.000856557
0.000851723
0.000886175
0.000855623
0.000855507
0.000851798
0.000607566
0.000851529
0.000757861
0.000854223
0.00085608
0.000878107
0.00085585
0.000871079
0.000856214
0.000858431
0.00085542
0.000875796
0.000858498
0.000853495
0.000859039
0.000852922
0.000858329
0.00086037
0.000853839
0.000867455
0.000851394
0.000852191
0.000850678
0.000851619
0.000850074
0.000860992
0.000868952
0.000851546
0.00085843
0.000851788
0.000853752
0.000851372
0.000851418
0.000850332
0.000852138
0.000850495
0.000879621
0.0008536
0.000853626
0.000850631
0.000862528
0.000854195
0.000850613
0.000850278
0.000853434
0.000849915
0.000850825
0.000866046
0.000855095
0.00085027
0.000857587
0.00087639
0.000850369
0.000850484
0.00085055
0.000861482
0.00085013
0.000859192
0.000851334
0.000850993
0.00085103
0.000866532
0.000856257
0.000851213
0.000638145
0.000854221
0.000854809
0.000852243
0.000851251
0.000854315
0.000850312
0.000850095
0.000857312
0.000855245
0.000853851
0.000854451
0.00093852
0.000855711
0.000647211
0.000729566
0.000855545
0.000851674
0.000852392
0.00061192
0.000854162
0.00085685
0.000851064
0.000850202
0.000591171
0.000852317
0.000875163
0.00085327
0.00085675
0.000851372
0.000887513
0.000782261
0.00093635
0.000864699
0.000858794
0.000853987
0.000854143
0.000855685
0.000854269
0.000853255
0.000601684
0.000856723
0.00086185
0.000870553
0.000852867
0.000707872
0.000802547
0.000644569
0.000851894
0.00084246
0.000850754
0.000861097
0.000850237
0.000903011
0.000857762
0.000880761
0.000850976
0.000862495
0.000855073
0.000900491
0.00085311
0.000851336
0.000850705
0.000666894
0.000853197
0.000851058
0.000854639
0.000851165
0.000850858
0.000852665
0.000837153
0.000853779
0.000852907
0.000596793
0.000852017
0.000854282
0.000833459
0.000851049
0.000852157
0.000851405
0.000852722
0.000610682
0.00091116
0.000852241
0.000853837
0.000852314
0.000852089
0.000852722
0.00085344
0.000855646
0.000863256
0.00085162
0.000858704
0.000658059
0.000853152
0.000893052
0.000857745
0.000850268
0.000854526
0.000851528
0.000574041
0.00086053
0.000851109
0.000850234
0.000856489
0.000861433
0.000879227
0.00086381
0.00085211
0.000849843
0.000868703
0.000852232
0.000852761
0.000819158
0.000595378
0.000856572
0.000853859
0.000856229
0.000609522
0.000860925
0.000602247
0.000857096
0.000849799
0.000861943
0.000873486
0.000869955
0.000855199
0.000852825
0.000850949
0.000850235
0.000849966
0.000854012
0.000855355
0.000864422
0.00086964
0.000851522
0.00085042
0.000850137
0.000850505
0.000868447
0.000852853
0.000849837
0.000892351
0.000861117
0.000864451
0.000666053
0.000862209
0.000849987
0.000862009
0.000870083
0.000864923
0.000616278
0.000860471
0.000920686
0.000844017
0.000857735
0.000871565
0.000902119
0.000852162
0.00085019
0.000850016
0.000872977
0.000625779
0.000637951
0.000849881
0.00091303
0.000849843
0.000868349
0.000857101
0.000850168
0.000849909
0.00085136
0.000854546
0.000865086
0.000878886
0.000866435
0.000874448
0.000893192
0.000862891
0.000873584
0.000889654
0.000906383
0.00085249
0.000862961
0.000658356
0.000859917
0.000864498
0.000584426
0.000850754
0.000850338
0.000858802
0.000857633
0.00088735
0.000862466
0.000873759
0.000887297
0.00084735
0.000862999
0.000862836
0.00087672
0.000852914
0.000849921
0.000849842
0.000923255
0.000853035
0.000866907
0.000849903
0.000887825
0.000886587
0.000863758
0.000861147
0.000868152
0.000641667
0.000881873
0.000849834
0.00086289
0.000849951
0.000664329
0.000850944
0.000884079
0.000850135
0.000852524
0.000753628
0.000871968
0.000898559
0.00087988
0.000885497
0.000851724
0.000926416
0.000853382
0.000881091
0.00088494
0.000850407
0.000849116
0.000855552
0.000866308
0.000653314
0.000666095
0.000623401
0.000648756
0.000651831
0.000889573
0.000854778
0.000850075
0.000849872
0.000891002
0.000869372
0.0008504
0.000651181
0.000852643
0.00085284
0.00085338
0.000856898
0.000887801
0.000869794
0.000879857
0.000632699
0.000850056
0.000884502
0.000850222
0.000853168
0.000850504
0.000850223
0.000849978
0.000620502
0.000886052
0.000853
0.00080506
0.000807645
0.000850577
0.000850003
0.000568442
0.000853827
0.000855459
0.000850977
0.000856102
0.000850691
0.000855381
0.000851277
0.000906483
0.000878104
0.000891722
0.000851438
0.000869038
0.000850409
0.000851893
0.00087288
0.000850937
0.000853971
0.000854494
0.000843554
0.000671433
0.000850504
0.000851839
0.000851594
0.000868031
0.000882948
0.0008537
0.000854589
0.000858062
0.000916062
0.000851473
0.000856096
0.000850035
0.000849816
0.000851878
0.000852522
0.000852872
0.00102238
0.000856049
0.000886779
0.000851125
0.000850988
0.000851626
0.000856467
0.00087653
0.000625283
0.000790292
0.000616658
0.000654689
0.00089653
0.000929262
0.000850116
0.000991448
0.000905282
0.000861614
0.000851185
0.000854504
0.000852242
0.000861081
0.000850098
0.000871681
0.000867838
0.000877092
0.000852621
0.000643114
0.000875005
0.000852738
0.000745597
0.000849974
0.000905286
0.000934038
0.000850832
0.000903438
0.000851479
0.000850671
0.000849829
0.000850275
0.000877625
0.000852551
0.000850094
0.000696735
0.000851686
0.00085086
0.00100231
0.0008501
0.000632392
0.000889631
0.000858514
0.000861093
0.000850463
0.000850235
0.000857298
0.00088572
0.000932493
0.000872278
0.000897462
0.000867866
0.000849769
0.000850665
0.000850529
0.000845632
0.00093196
0.000866426
0.000924018
0.000850023
0.000855463
0.000857188
0.000851933
0.00089876
0.000850217
0.000852527
0.000857664
0.000852192
0.000855993
0.000876187
0.000852888
0.000854826
0.000851685
0.000851205
0.000762811
0.000935689
0.000866898
0.000855611
0.000853185
0.000852505
0.000854438
0.000829261
0.000902862
0.00088046
0.000893701
0.000628205
0.000659578
0.00085182
0.000850519
0.000851202
0.000857991
0.000885852
0.000931836
0.000855648
0.000842723
0.000879002
0.00089624
0.000866562
0.000853604
0.000853085
0.000860232
0.000850711
0.000849958
0.000872067
0.000683368
0.000875814
0.000922984
0.00084773
0.000852134
0.000880571
0.00062064
0.000850117
0.0008536
0.000851906
0.000851648
0.00100788
0.000822198
0.000873642
0.000859692
0.000851825
0.000850667
0.000850135
0.000913074
0.000850926
0.000673755
0.000847605
0.000858802
0.00088031
0.000864253
0.000854009
0.00101186
0.000872799
0.000852509
0.000880307
0.000862068
0.000853217
0.00106691
0.000855682
0.00089376
0.000849948
0.000851572
0.000850325
0.000865161
0.000850207
0.000851141
0.000858006
0.000797633
0.00089912
0.000851598
0.000849038
0.000854343
0.000852555
0.000887904
0.000855457
0.000851551
0.000849866
0.000683934
0.000852298
0.000864204
0.00086701
0.00195865
0.000852178
0.00086831
0.000877136
0.000851054
0.000852337
0.000630183
0.0010355
0.000835353
0.000833095
0.000855065
0.000848649
0.000850089
0.000851235
0.000852041
0.000850832
0.000850655
0.000898454
0.000816519
0.00085063
0.000852394
0.000851312
0.000923478
0.000898215
0.00195921
0.000883745
0.000851345
0.000825512
0.000850394
0.000885193
0.000849839
0.000869758
0.00086136
0.000852403
0.000853822
0.000846987
0.000801659
0.000877821
0.000849856
0.000852789
0.00085133
0.000856172
0.000850582
0.000864733
0.00085035
0.000851673
0.000850207
0.000851154
0.000853016
0.000875089
0.000805276
0.000852409
0.000865957
0.000850402
0.000853315
0.000896319
0.000962354
0.000847614
0.000852262
0.000850539
0.00086483
0.000856763
0.000851521
0.000893133
0.000851481
0.000850335
0.000870216
0.000891059
0.000850551
0.00109512
0.000852273
0.000850541
0.000850143
0.000851665
0.000881403
0.000901004
0.000637927
0.000851004
0.000855669
0.000856229
0.00085371
0.00101596
0.000867673
0.0008533
0.000850634
0.000866982
0.000850438
0.00085197
0.000850603
0.000836608
0.000825208
0.000883786
0.000853397
0.00095753
0.000803847
0.000850351
0.000852224
0.000850959
0.00070787
0.000982564
0.000850201
0.000853275
0.000854997
0.000850027
0.000849475
0.000851247
0.000826893
0.000852566
0.000851804
0.000892873
0.000909742
0.000909361
0.000852507
0.00085834
0.000965402
0.000935072
0.000887619
0.000851104
0.000850006
0.00103156
0.000852528
0.000850657
0.00085432
0.000856753
0.000866486
0.000851406
0.000851304
0.000871668
0.000881885
0.000920325
0.000852789
0.000668991
0.000653846
0.000629986
0.000864826
0.000851817
0.000874971
0.000926335
0.000921503
0.000849994
0.000850333
0.000850853
0.000896196
0.000851972
0.000877741
0.00107458
0.000849639
0.000851681
0.000875108
0.000678567
0.000864733
0.000850824
0.000849966
0.00087639
0.000857295
0.000860599
0.000861277
0.000851152
0.000864459
0.000854679
0.000850721
0.000852327
0.000641783
0.000890181
0.000857623
0.00085056
0.000862251
0.000856569
0.000860045
0.000851
0.000874567
0.000852105
0.000850248
0.000856348
0.000855378
0.000851034
0.00100324
0.000856315
0.000851417
0.000869025
0.00090793
0.000851417
0.000858054
0.000853628
0.000853291
0.000883323
0.000904875
0.000849856
0.000851591
0.000853483
0.000857636
0.000886183
0.000851602
0.000850876
0.000856333
0.000851702
0.000851753
0.000851325
0.00085293
0.000851059
0.000882595
0.000870236
0.000734056
0.000850865
0.000853149
0.000943234
0.000876526
0.0008854
0.000851781
0.000880686
0.000880874
0.000852658
0.000852767
0.000850723
0.000850869
0.000855602
0.000865784
0.000803169
0.000851958
0.000853451
0.000893811
0.000851405
0.000851577
0.000851602
0.000885909
0.000853208
0.000847032