/*--------------------------------*- C++ -*----------------------------------*\
| =========                 |                                                 |
| \\      /  F ield         | OpenFOAM: The Open Source CFD Toolbox           |
|  \\    /   O peration     | Version:  v1912                                 |
|   \\  /    A nd           | Website:  www.openfoam.com                      |
|    \\/     M anipulation  |                                                 |
\*---------------------------------------------------------------------------*/
FoamFile
{
    version     2.0;
    format      ascii;
    class       volScalarField;
    location    "0.54";
    object      k;
}
// * * * * * * * * * * * * * * * * * * * * * * * * * * * * * * * * * * * * * //

dimensions      [0 2 -2 0 0 0 0];


internalField   nonuniform List<scalar> 
1466
(
0.430429
0.894479
0.488064
1.93311
0.357203
0.718428
0.787649
0.873808
0.279285
1.02495
1.36043
0.964213
0.224736
0.449461
1.20801
2.27934
0.689282
1.02822
2.39905
1.40978
2.37117
2.34822
1.83991
1.23661
0.254076
0.649377
1.53919
1.78472
0.319834
1.45286
1.55196
0.672861
0.583117
3.65264
2.06434
1.14915
3.84161
0.728438
1.33262
0.369089
0.538596
1.10807
1.18821
0.55679
0.23014
0.474929
1.26048
0.173261
0.843341
0.269591
0.43008
0.912505
0.686023
0.280014
0.51242
0.277868
0.43253
1.19024
0.208384
1.04698
1.10483
0.9085
0.7418
1.05118
2.09645
0.839157
3.60202
1.39858
0.948519
0.438856
2.14715
1.3213
0.833817
0.270306
0.797278
1.61772
0.855507
0.620468
0.55713
1.71056
1.28723
1.96319
0.492118
1.65849
2.17827
2.73009
2.97731
1.60418
1.28114
1.11755
0.830869
1.49652
2.22566
0.391916
0.637428
0.503364
0.824973
1.1676
0.281723
0.323142
0.580445
0.321246
0.144427
1.10638
1.35953
1.04118
0.722256
0.230066
1.23687
0.41526
0.980999
1.86203
0.709823
1.08352
0.910533
1.23176
1.25764
0.803479
0.720563
0.756226
2.39971
0.806242
0.488235
0.60947
0.195392
1.03952
1.1917
1.83861
1.23902
1.21526
1.13827
1.0576
1.71538
1.17146
0.912735
0.540335
0.493292
0.497872
0.593293
0.523436
0.352911
2.0018
1.75331
1.88305
2.35263
3.35136
0.673417
0.978278
1.53383
1.7571
0.919949
1.0995
1.08193
0.519588
1.40891
2.32078
1.58862
2.41107
0.731662
1.02212
0.648833
1.51125
1.36878
1.86537
2.92878
1.62953
1.55678
2.13178
2.09666
1.16171
2.28184
0.486308
0.246838
0.993877
0.574077
0.27301
1.27994
1.67195
0.897566
2.19803
0.303024
1.08666
2.49801
0.180777
1.62392
2.79506
2.26757
1.17889
0.971069
0.826244
2.49143
1.17368
1.96233
3.6507
0.931896
1.1059
0.372621
2.37296
2.86795
3.70301
1.32612
1.37298
1.30886
1.43647
1.87479
2.82131
2.79077
0.870807
0.72166
1.35451
2.14947
1.9531
2.47502
2.09807
2.53475
1.85353
2.83026
2.33115
1.40272
1.43217
2.02312
1.26191
1.9243
1.25838
2.00298
2.21266
1.95454
0.18009
0.90477
1.23101
1.60629
1.70627
3.94811
3.64372
0.66325
2.48321
1.67699
2.02994
0.984212
2.42093
1.14363
1.67649
1.16717
3.81845
0.819457
1.40343
0.661469
0.269764
1.74079
1.04994
2.71558
2.25588
0.796762
1.17082
0.495294
0.95756
1.47551
0.382845
1.18723
1.51148
1.07562
1.6329
1.1414
1.2048
1.52922
0.192484
0.624026
1.47485
2.27216
0.414776
1.61111
1.34416
0.794622
0.722547
0.867525
1.39891
1.08117
1.59333
2.21532
1.59938
1.10743
1.63994
1.99044
1.53826
2.22438
0.258635
1.67048
1.62601
0.251904
0.645975
0.71408
0.375082
0.267496
0.329428
1.25935
0.641832
1.84099
0.383466
1.65297
1.11099
0.389402
1.47459
0.186877
0.294627
2.50365
0.460631
0.954278
0.484645
1.10622
3.24429
0.93077
2.51036
1.46332
1.30356
1.54025
1.32787
3.13188
1.03639
0.29588
1.28272
0.603385
1.5446
1.31047
1.01873
2.37407
0.552327
0.308676
1.04859
0.899789
1.32768
1.7281
0.593078
0.575457
1.06083
2.26058
0.38778
2.41225
0.968927
0.959821
0.702592
0.310898
0.943468
0.652339
1.69758
1.22178
0.190785
1.48206
1.17651
1.03933
2.16809
0.759059
0.365261
1.45369
2.92814
2.77104
2.82303
1.70849
0.3679
0.31456
1.15988
2.83954
2.51573
1.89419
2.12499
0.30323
4.15345
0.844106
0.817212
0.864993
1.16534
1.05154
2.98205
1.31855
0.968049
0.564781
4.0826
1.36399
1.33341
0.482183
1.46245
2.98387
2.79921
3.22153
3.42194
3.12638
2.98746
0.613557
0.596884
0.483696
0.301225
0.853415
2.15559
2.18395
2.23551
1.78585
1.0345
0.254265
1.33777
1.49324
0.720863
0.258719
0.239396
1.45161
0.390178
1.21539
3.44078
1.58692
0.960444
3.41651
3.34075
1.10787
1.80669
2.04103
3.48869
1.61014
0.467815
0.397623
1.26385
1.35815
1.11871
2.86654
3.00875
1.15729
2.01766
1.19174
0.823017
2.16699
1.29902
1.04072
0.859223
1.85518
1.18786
1.1855
2.03605
1.28647
0.532887
0.324473
0.405798
0.381762
1.79481
0.410708
0.264432
1.81711
0.456864
1.28561
0.967669
0.673208
1.36746
0.747082
1.73009
1.40944
0.555491
0.349854
0.351517
1.55419
0.346674
0.518817
0.698496
0.361471
1.36746
0.528573
0.929836
0.529331
1.08823
1.59688
0.580045
2.5759
0.913495
0.838183
2.43613
0.862776
0.651904
1.76428
0.184106
1.40219
0.603296
0.331743
2.15937
3.52402
1.69479
1.10236
1.95482
2.19045
3.34061
2.61122
0.740914
0.542055
0.293701
3.29765
2.02533
2.86678
1.71692
0.612753
2.69618
1.27884
2.92614
3.93597
3.22711
1.3481
2.63369
3.58942
3.82973
0.988016
2.46394
0.419433
2.74593
1.59084
1.51859
0.477271
3.5211
1.26166
2.36312
1.73249
1.74648
3.93002
2.39492
1.4646
0.329439
0.586973
0.758205
3.70273
0.962442
3.73599
0.862001
2.19602
1.87941
1.25127
1.71221
2.0178
3.20685
0.43941
1.93457
3.22565
2.89127
3.42147
1.361
0.949636
1.73871
1.54801
2.06654
0.691609
2.674
0.552606
1.82889
2.13806
0.914998
2.22935
0.692065
3.2246
1.50362
2.45694
0.624233
0.293981
3.328
1.83478
3.63617
3.52637
2.4787
1.07947
0.552961
3.1594
3.13194
1.21804
1.12699
0.482364
1.8249
2.80692
3.73943
1.80757
4.00262
2.44947
3.75072
1.11213
1.54467
0.706063
2.55665
0.366746
4.05519
3.49043
1.65125
1.41916
3.9697
3.90329
2.45929
2.89918
1.26749
2.43769
0.333053
2.94646
2.13841
2.9505
0.786849
2.12413
3.83923
2.8821
1.83473
1.8727
1.33519
0.823159
1.8954
1.30624
0.464334
0.447918
0.92353
4.33133
2.3791
1.31692
0.197752
1.4938
3.65223
0.77787
2.04817
0.699957
0.949675
2.02237
1.0073
1.53332
0.845847
0.764244
2.47913
0.889004
0.319934
1.21565
0.564329
0.982218
3.76724
1.94011
2.35432
2.70184
4.08036
2.04998
0.725345
0.790124
0.479709
4.00589
0.427588
2.34274
2.11289
1.57501
1.91241
3.37341
1.7327
1.35582
1.31078
3.77087
0.461026
2.29652
3.38954
1.3558
0.864745
3.95491
0.371586
1.21821
0.501755
3.56645
3.69744
0.666812
1.62399
0.914181
0.25426
3.7662
1.85675
0.554106
0.480236
2.99812
1.09925
1.67717
1.36523
1.43057
0.419226
0.479938
0.940196
1.63249
0.249563
1.72036
0.473726
1.54298
0.418888
0.678345
0.621273
1.87866
0.620171
0.581077
3.6848
0.345918
3.05005
0.443434
0.195078
1.10285
0.239178
3.46644
0.60816
0.538723
1.31298
0.373849
0.189947
1.23307
2.30195
0.461535
2.2587
3.52685
0.416752
0.211578
0.909674
3.44815
2.903
1.18914
0.854015
0.194746
3.18637
1.03149
3.08533
0.42143
1.47801
3.43359
2.0713
0.975997
2.94668
2.61651
1.57154
1.44447
2.86654
3.74583
1.26617
1.75598
3.70886
1.88494
1.67461
1.74826
0.20563
2.10527
1.74894
2.34109
0.419909
3.19588
2.4828
1.07947
2.28682
0.361216
3.05155
3.95557
1.6748
3.86358
0.307733
0.789999
1.00418
0.520499
0.345137
1.41459
1.29931
1.87445
1.66648
0.645294
0.351698
1.89893
2.60166
2.92461
1.94498
0.48325
2.08714
2.0673
0.5624
1.48329
1.47682
3.78144
1.30778
1.71167
2.21224
2.00637
2.61308
1.23582
0.842798
0.548615
0.975349
2.30212
2.3848
1.33167
0.312271
2.23719
1.79704
1.40763
1.39482
1.899
0.671748
3.05462
0.463618
1.55982
4.0358
3.02205
1.15399
2.55007
3.01474
2.28009
0.795884
1.22097
0.539226
2.92931
1.43456
0.538583
0.416562
1.09288
2.09221
3.55973
0.576792
0.841393
0.265935
0.244255
0.457902
2.36888
1.98141
1.11833
1.67093
1.82076
1.1772
1.64219
0.622465
2.12919
1.79763
0.878248
2.45865
1.82614
2.99287
0.919577
1.67722
0.714627
1.26278
2.14267
0.444012
0.581637
1.75683
1.73477
2.14396
1.10976
3.64035
0.515384
0.958598
0.714456
0.274732
1.0034
1.23156
1.45518
3.46171
3.19454
0.712434
2.66733
1.31769
0.537777
3.35299
1.06481
1.60072
2.50386
1.42824
1.94994
2.11899
2.21749
1.16988
1.50855
0.816029
1.55005
1.95005
3.4858
3.85321
0.341008
1.41753
0.669589
0.628846
1.98296
2.16351
1.25667
2.9986
2.37324
0.479279
1.99621
0.737942
3.6789
1.31339
3.27634
0.933419
0.962054
0.89862
0.985728
0.962582
1.0352
0.942871
1.4199
1.50905
1.61187
1.44627
1.38838
1.35339
1.39121
1.4113
1.71127
1.10519
1.23098
1.78239
1.77737
1.50627
1.64698
1.31725
1.29825
1.27778
0.866115
1.86215
0.231078
0.227718
2.12981
0.486208
0.510737
0.492639
0.403733
1.15123
3.2881
1.72118
3.73854
0.879624
0.501029
0.432589
1.607
0.823163
2.12321
1.27712
2.01958
1.29266
1.14476
3.73963
2.3874
1.23825
0.743744
0.422564
0.29402
0.215257
0.284341
1.07678
1.49075
2.05017
2.93433
0.449869
0.806215
1.12309
0.670332
0.734296
0.6331
3.13743
0.983057
0.826516
1.25993
1.0743
1.07265
0.52872
2.04947
1.33178
1.72474
2.65075
1.59021
2.05385
0.613055
1.77311
2.83128
1.37656
3.69947
0.777548
1.16048
0.554841
1.61555
2.8519
0.233998
1.39667
1.93154
2.27408
0.336984
2.34693
2.45679
2.30024
1.19107
0.78234
1.48699
2.0432
0.715659
0.806369
0.488757
1.76859
2.69513
3.98712
0.575061
1.19772
3.53692
1.03507
3.17719
1.42184
0.549171
0.245327
1.4464
1.4192
2.95138
4.42678
1.66103
2.33444
0.327758
0.547574
2.70319
1.2821
2.65731
0.446777
0.866781
1.03651
0.871487
0.203945
1.38481
0.25771
0.761394
2.39195
0.357113
0.205177
1.81027
0.368555
2.42713
1.13447
1.105
3.10156
0.991762
1.3213
2.9815
1.93873
2.55018
1.12515
0.808971
1.97907
1.30018
0.656568
1.09444
2.68122
1.55406
0.528251
0.598817
2.06375
1.32419
0.763904
1.76594
0.270132
1.56864
0.613359
0.70234
0.269018
0.573404
0.539628
0.813256
0.302838
0.916587
3.48234
0.696711
0.370607
0.630012
2.11682
0.645118
0.338836
1.22408
3.11941
0.89569
0.619708
0.433526
0.284181
0.482458
0.592345
0.465572
2.70264
1.02291
0.755799
0.407497
0.086577
1.52174
2.21837
0.26965
0.50567
0.279522
0.704198
0.278299
0.279241
0.2832
0.63882
0.291688
0.26105
1.15538
0.25712
0.270418
0.264544
0.260816
0.68328
0.725656
0.247187
0.265503
0.284166
0.286
0.819324
2.94743
1.94694
1.22236
1.1402
2.28616
3.41968
1.29411
1.18239
0.835313
2.41359
1.17907
0.809601
0.4736
2.55272
1.60889
3.47041
2.56355
0.203271
3.07594
1.08215
1.42914
0.642202
2.03598
1.80582
2.73079
0.664345
2.25784
1.5509
2.00716
0.804459
1.23766
0.273725
0.598785
0.917902
1.45241
1.37349
1.44043
1.5713
1.55496
0.580339
1.00395
1.68701
1.27013
2.01584
2.74592
3.45402
3.76353
0.506014
0.255484
1.22562
1.55016
1.38621
0.959904
0.646136
1.17606
1.16994
3.94487
0.76014
0.830344
3.05567
0.484736
0.448325
0.761292
1.47181
1.27247
3.35285
0.596527
1.7717
1.19596
0.816338
2.18384
3.70222
1.06383
2.83188
2.49678
0.75954
1.14221
2.02504
2.0941
0.741712
0.237439
2.63626
1.58954
2.2371
2.82347
3.41584
3.74098
0.90603
1.22499
1.70944
1.63184
1.54208
3.21634
1.18773
0.455991
1.14642
1.65942
0.625073
2.97745
1.61623
1.24058
1.28316
1.21127
0.588761
0.716881
0.748361
1.51053
0.510633
0.848775
1.15144
1.06849
1.23522
4.56323
0.270675
0.44747
0.94686
0.396195
0.536369
1.38643
0.714305
0.401712
0.258452
1.37651
0.816511
1.85368
3.66056
3.55738
0.485042
1.47267
0.27165
2.21995
1.04819
0.268537
1.7268
1.18867
2.71035
2.25693
1.68292
1.5847
1.16654
1.0213
0.228011
2.75044
0.553395
0.344408
1.43607
0.424539
3.00526
0.642927
1.67551
0.523738
2.98212
1.6204
0.157652
3.21531
0.623469
0.275214
3.47018
2.27112
1.18449
1.39228
1.03793
3.2339
1.02622
2.31302
0.658899
0.882586
1.32047
2.25851
1.75096
3.60895
3.80364
1.13863
1.71883
1.79707
2.42747
0.258012
1.00668
1.37985
0.231587
3.45252
0.522737
1.63323
3.26221
0.975733
2.80115
1.34796
0.260752
1.25412
1.23406
0.395303
0.944428
0.597664
1.20489
1.56696
4.4993
3.56552
1.78475
1.35047
0.236131
1.01282
0.996078
0.964403
1.96801
0.854601
1.80042
1.80662
3.077
1.82088
1.41657
3.14301
0.262899
1.43764
2.83883
2.28829
0.626344
0.723491
0.27314
0.798905
0.502232
1.08968
1.20228
3.27473
0.331234
0.236258
1.1371
1.06347
1.62136
3.33051
2.572
0.198144
1.83116
0.472591
0.266029
0.376548
0.474561
0.569022
4.23099
0.223641
3.3836
1.07623
1.6657
0.481732
0.337506
2.70632
0.332763
0.665099
1.32173
0.674914
2.54808
1.06619
2.14541
1.43143
1.17828
0.578465
0.858187
0.765415
0.92
1.0149
2.3861
0.321817
1.56702
1.56404
1.12337
1.4787
1.33197
3.15917
0.813746
1.27192
0.575763
1.38928
2.88278
0.882256
0.375258
0.148737
0.253735
0.607986
2.16512
1.62238
1.61139
1.51433
1.31849
0.758457
2.99751
1.94256
1.77355
1.50279
0.927227
2.06966
3.28911
0.509278
1.11778
2.05362
0.666687
2.99515
1.00653
1.36955
2.72669
1.45091
2.22718
2.11635
1.87455
2.2246
0.240594
0.801709
0.583862
0.359294
1.15631
0.578089
1.66026
1.21459
1.6862
1.20877
2.8258
1.61765
2.61084
0.608405
3.12865
3.16434
1.04831
0.445957
2.93043
0.95108
0.804016
0.680612
1.54169
1.10788
2.77915
1.27413
0.871525
0.603102
0.294973
1.69507
1.75414
1.23284
0.862568
1.8444
1.23234
0.68323
1.44469
0.282285
0.684463
1.12903
1.17512
0.166161
0.270458
0.767175
0.266992
1.14358
1.429
0.649895
0.360327
0.858522
2.06717
1.04642
0.927747
0.616551
1.1934
0.29215
0.273092
0.278171
0.530493
0.464091
0.296701
1.2924
0.287832
0.245762
1.51206
0.437865
0.983273
0.610087
0.762924
)
;

boundaryField
{
    frontAndBack
    {
        type            empty;
    }
    wallOuter
    {
        type            kqRWallFunction;
        value           nonuniform List<scalar> 
108
(
1.02822
1.3213
0.833817
0.186877
0.190785
0.345918
0.443434
0.195078
0.239178
0.373849
0.189947
0.461535
0.416752
0.211578
0.194746
0.20563
1.07947
0.520499
0.345137
0.312271
0.244255
1.11833
0.274732
0.537777
0.933419
0.962054
0.89862
0.985728
0.962582
1.0352
0.942871
1.4199
1.50905
1.61187
1.44627
1.38838
1.35339
1.39121
1.4113
1.71127
1.10519
1.23098
1.78239
1.77737
1.50627
1.64698
1.31725
1.29825
1.27778
0.866115
0.227718
0.501029
1.23825
0.215257
1.0743
1.16048
0.554841
1.19772
0.866781
0.205177
0.991762
1.12515
0.808971
0.613359
0.573404
0.302838
0.645118
0.482458
0.592345
1.02291
0.086577
0.086577
0.26965
0.279522
0.279241
0.2832
1.15538
0.25712
0.270418
0.264544
0.260816
0.68328
0.725656
0.247187
0.265503
0.284166
0.286
0.819324
1.18239
0.835313
0.203271
0.642202
0.804459
1.23766
0.76014
0.830344
1.19596
0.816338
0.816511
0.231587
0.996078
0.854601
0.236258
0.472591
0.223641
0.148737
0.253735
1.31849
)
;
    }
    inlet
    {
        type            fixedValue;
        value           nonuniform 0();
    }
    outlet
    {
        type            zeroGradient;
    }
    wallInner
    {
        type            kqRWallFunction;
        value           nonuniform List<scalar> 
126
(
0.728438
1.33262
0.369089
0.538596
1.10807
1.18821
0.55679
0.23014
0.474929
1.26048
0.173261
0.843341
0.269591
0.43008
0.912505
0.686023
0.280014
0.51242
0.277868
0.43253
1.19024
0.208384
1.04698
0.55713
0.503364
0.824973
1.1676
0.281723
0.323142
0.580445
0.321246
0.144427
1.10638
1.35953
1.04118
0.722256
0.230066
1.23687
0.41526
1.08352
0.910533
0.60947
0.195392
1.13827
1.0576
0.540335
0.493292
0.497872
0.352911
1.36878
0.574077
0.372621
1.18723
1.51148
1.07562
0.192484
0.624026
1.61111
1.34416
0.794622
0.375082
0.329428
0.641832
1.84099
0.603385
1.5446
1.31047
0.3679
0.864993
1.31855
1.33341
1.33777
0.720863
1.29902
1.1855
2.03605
0.532887
0.405798
0.264432
0.349854
0.346674
0.361471
1.74648
1.93457
1.83478
1.94011
1.62399
1.75598
0.628846
2.16351
1.3213
1.06619
0.765415
1.8444
0.68323
1.44469
0.282285
0.684463
1.12903
0.166161
0.270458
0.767175
0.266992
1.14358
1.429
0.649895
0.360327
0.858522
2.06717
1.04642
0.927747
0.616551
1.1934
0.29215
0.273092
0.278171
0.530493
0.464091
0.296701
1.2924
0.287832
0.245762
1.51206
0.437865
0.983273
0.610087
)
;
    }
    procBoundary1to0
    {
        type            processor;
        value           nonuniform List<scalar> 
29
(
0.850016
0.850016
0.535403
0.783453
1.66483
1.01472
2.05593
0.485571
1.37567
0.763704
0.616
1.01472
0.535403
0.559235
1.35204
0.561301
1.66483
1.74458
0.783453
0.729377
0.33392
0.233287
1.42783
0.292642
0.292642
1.42783
0.246556
0.885435
0.246556
)
;
    }
    procBoundary1to2
    {
        type            processor;
        value           uniform 0.776968;
    }
    procBoundary1to3
    {
        type            processor;
        value           nonuniform List<scalar> 
48
(
3.84789
2.4661
3.02311
3.02311
1.40026
2.02261
2.02261
0.299501
3.72877
0.447801
0.38545
0.447801
0.535914
0.668312
0.749879
0.535914
0.494655
0.494655
0.353969
0.353969
0.483635
0.408446
0.267742
0.718553
0.718553
0.19363
0.348948
0.348948
0.284604
1.07171
0.405985
0.284604
0.299501
3.1086
0.221232
1.07171
1.09702
0.38545
4.00019
1.10464
0.63262
2.2714
3.1086
0.221232
0.764189
0.783201
1.28592
0.63262
)
;
    }
}


// ************************************************************************* //
