/*--------------------------------*- C++ -*----------------------------------*\
| =========                 |                                                 |
| \\      /  F ield         | OpenFOAM: The Open Source CFD Toolbox           |
|  \\    /   O peration     | Version:  v1912                                 |
|   \\  /    A nd           | Website:  www.openfoam.com                      |
|    \\/     M anipulation  |                                                 |
\*---------------------------------------------------------------------------*/
FoamFile
{
    version     2.0;
    format      ascii;
    class       surfaceScalarField;
    location    "0.54";
    object      phi;
}
// * * * * * * * * * * * * * * * * * * * * * * * * * * * * * * * * * * * * * //

dimensions      [0 3 -1 0 0 0 0];
oriented        oriented;


internalField   nonuniform List<scalar> 
2776
(
-0.000402405
-2.40857e-05
0.000296399
0.000130092
-0.000850003
0.000919273
0.000293653
-0.000362923
-0.000551906
-0.000255353
0.000343696
0.000463563
9.48774e-05
-1.14182e-05
0.00097233
-0.00105579
-0.000265834
-0.000292727
0.000449339
0.000109221
-0.000114992
-0.000429404
0.000364414
0.000179982
-0.000251409
-6.57129e-05
0.000461357
-0.00012013
-0.000641083
0.000299857
0.000992081
0.000874538
-0.000878282
-0.000988337
-0.00088736
0.000699804
-0.000210934
0.00039849
-0.000323117
-0.00111196
0.000504593
0.000930486
0.000393208
0.000168324
-0.000517568
-4.3964e-05
0.000880945
0.000114941
-0.00135882
0.000362933
-0.000176688
-3.41481e-05
-5.49982e-05
0.000108852
-3.85297e-05
-0.000185314
0.00046005
-0.000131658
-0.000651509
-0.00028908
0.000215898
0.000294513
-0.000221331
3.21492e-05
-0.000473491
0.000441342
0.000511599
-0.000152317
7.73409e-05
-0.000436623
0.000660295
-4.07798e-05
4.98265e-05
-0.000669342
-0.000668409
3.98136e-05
-2.79406e-05
0.000656536
1.75369e-07
0.00022293
-0.000322733
9.96269e-05
0.000572203
2.14074e-05
-2.16354e-05
-0.000571975
0.000626133
3.9279e-05
-2.53576e-05
-0.000640055
0.000303824
-0.000378629
-0.00115866
0.00123347
1.82634e-05
1.16676e-06
2.6192e-05
-4.56222e-05
-0.000245088
3.07014e-06
0.000122638
0.000607977
-0.000690243
-4.03721e-05
0.00016078
-9.58203e-05
0.000157928
-0.000222888
-0.000340329
0.000393367
0.000601166
-0.000654204
0.000550719
-0.000794279
-0.000111936
0.000355495
4.44597e-05
-4.82853e-06
4.36865e-06
-4.39999e-05
0.000195549
-2.6172e-05
-0.000198639
2.92618e-05
-0.000303553
0.000267874
-0.000649002
0.000684681
3.18576e-05
9.84698e-06
0.000340511
0.000292203
-0.000153248
2.18252e-05
-0.000440049
-5.99255e-05
-0.000292952
0.000172277
0.000912522
-0.000218055
-0.000694467
-8.08307e-05
0.000228585
-0.000147754
-6.37709e-05
0.000507868
-0.000444097
-0.000482507
0.000547887
-6.53801e-05
-0.00048559
0.000482331
3.25882e-06
-0.000387079
-2.9725e-05
0.000416804
-2.71273e-05
-5.12905e-05
7.84178e-05
0.000454091
-8.93677e-05
0.000912975
8.65865e-05
0.000123514
-3.55961e-05
-8.79183e-05
-0.000254485
0.000298691
-4.42062e-05
-6.75638e-05
0.00012873
-6.11664e-05
-0.00022352
0.000146115
7.74047e-05
-0.000206085
-0.000643918
-0.000344755
-8.46492e-05
-0.000101288
-0.000191439
0.000321708
-0.000126159
-0.00107089
0.00137471
0.000380348
-1.39515e-05
-0.000366397
-0.000925835
-0.000186127
8.09517e-06
-7.70708e-05
6.89756e-05
-0.00075293
-0.00013443
2.70186e-05
-1.45448e-05
1.56902e-05
-2.8164e-05
-0.000290413
0.000248264
-2.16213e-05
-3.21568e-06
2.96107e-06
-8.05761e-05
-0.000199654
4.96826e-05
0.000577893
-0.000427922
0.000783046
-0.000676688
-0.00018137
7.50122e-05
0.000220832
-0.000270964
4.09277e-05
9.20475e-06
0.000250778
-8.46622e-07
-4.22841e-05
-0.000207647
-0.000193578
-4.07739e-05
-0.000405361
0.000839172
-0.000840464
6.83028e-05
-6.70113e-05
0.000208967
-0.000307558
-0.000142157
0.000240748
0.000156207
-0.000140247
-2.03015e-06
-1.39302e-05
5.15767e-05
-0.000532693
0.000481116
4.45083e-05
-0.000494099
0.000449591
0.00104441
-0.000446382
-0.000797566
0.000199537
1.30411e-05
-3.26953e-05
4.66728e-05
-0.000591689
-6.43888e-05
0.000284325
0.000371752
-1.86238e-05
-0.000299083
2.72931e-05
-9.04983e-05
1.79462e-05
6.93364e-05
-0.000231315
0.000132435
9.888e-05
0.000101092
-0.000370731
0.000325759
-5.61202e-05
-0.000563977
2.9732e-05
-5.01164e-05
0.000584362
-0.000274955
0.00045176
0.000327788
4.32908e-05
0.00032265
-1.37685e-08
-0.000365927
-0.000326937
-6.13144e-05
0.000284817
0.000103434
-0.000512766
1.63742e-05
0.00050815
-1.17576e-05
-3.07434e-05
0.000564442
-0.000552853
1.91544e-05
-0.000574274
0.00100842
-0.000737694
3.72338e-05
-1.51209e-05
0.000308336
-0.000330449
0.000723198
-0.000374654
2.81046e-05
2.22498e-05
7.64547e-05
-0.000126809
3.93276e-06
9.59395e-06
4.73669e-06
-0.000239634
6.49839e-05
-7.04377e-05
0.000188326
-0.000734109
0.00064066
0.000130641
0.000163531
-0.000218086
-7.60864e-05
-6.90043e-05
-0.000249374
0.000198248
-0.000230198
0.000785228
0.000134045
-1.28602e-05
-7.88075e-05
0.00034941
9.9929e-05
0.000140894
2.18387e-05
0.000124276
-2.80907e-05
0.000151605
-3.95142e-05
-0.00021497
-0.000511401
2.58107e-05
-8.46927e-05
-0.00055639
-4.60641e-05
-0.000136884
0.00036389
0.000566596
-2.2057e-05
-7.77277e-06
-1.88468e-05
1.20747e-05
0.000484191
-0.000506659
2.36321e-05
-1.164e-06
5.99742e-05
-0.00023839
0.00015433
0.000260364
0.000439441
-8.86107e-06
-7.99767e-05
2.78209e-05
6.10169e-05
0.000427193
-0.000118941
0.000128738
-0.000395477
0.000659947
6.59984e-05
-0.000230777
-8.66304e-05
8.96408e-05
-7.99054e-05
-8.6338e-05
-0.00105233
0.000942251
9.86631e-05
0.000114478
7.92245e-05
-0.000151182
-4.25199e-05
-0.000153056
2.93074e-05
5.67397e-05
6.70086e-05
-6.17132e-06
-0.000380908
-3.41012e-05
6.97397e-06
0.000379466
-0.000127208
-0.000654112
0.000168934
0.000581492
-9.63134e-05
-0.000208312
0.000697279
4.47934e-05
-0.00053376
-0.000296393
0.000817569
6.18747e-05
-0.000583051
-5.83653e-05
6.56055e-06
7.91525e-05
-2.73477e-05
0.000107338
0.000516442
0.000115002
0.000555639
-7.11112e-06
-5.35456e-06
3.97373e-06
8.49196e-06
-0.000382345
-0.000247278
0.000180372
-0.000105254
-9.85987e-05
-9.37358e-05
-7.44741e-05
0.000685569
1.64969e-05
-0.000627592
0.000607512
1.87312e-05
-1.35048e-05
-0.000612738
0.000497194
-2.52251e-05
3.10849e-05
-0.000503054
0.000220366
-0.000122905
-0.000144524
4.70633e-05
-0.000533508
-8.34591e-05
9.78097e-06
0.000607186
4.97086e-05
4.02432e-06
-9.27314e-06
8.16305e-05
-4.23184e-05
-3.25142e-05
-6.79789e-06
0.000128349
-0.000108105
2.94892e-05
-4.97335e-05
0.000175823
-0.000139973
-7.74552e-06
2.70696e-06
-7.63527e-06
0.000221574
-0.000409676
0.000481754
-0.000783776
-8.64572e-05
0.000216122
7.30535e-05
-8.36315e-05
-5.84263e-05
-0.000169075
-4.19101e-05
-2.02075e-05
0.000231192
0.000234326
-7.67754e-05
9.42657e-05
0.000632463
-5.45036e-05
-0.000672225
0.00072641
-0.000569145
-0.00073154
3.10987e-06
1.69275e-05
6.11543e-06
-2.61528e-05
-0.000723164
0.000230233
0.000470949
2.19828e-05
-5.71892e-06
-3.28824e-06
5.87157e-05
-0.000598591
0.00018286
0.000516823
-0.000269173
0.000238429
0.000471608
-0.000695968
-0.000151836
0.000376196
-3.54463e-05
0.000111596
-0.000339968
0.000263818
7.92028e-05
-0.000370238
0.000670551
-0.000621141
6.55914e-05
0.00053471
-0.000496256
6.88831e-05
0.000606988
-0.000513052
-6.96607e-05
-2.42762e-05
0.000101816
0.00152276
-0.00119381
-0.000430765
0.000565761
-0.000786676
0.000343553
-6.51667e-06
1.28153e-05
3.63714e-05
-4.267e-05
0.000114291
-2.73316e-05
4.17708e-05
-3.40594e-05
8.94554e-05
0.000518989
-0.000625824
0.000106835
-0.000398389
0.00028584
-0.00125451
0.00136706
-0.00042837
-3.00606e-05
0.000586306
-0.000127875
0.000213034
-0.000179155
-0.000374208
-6.59012e-06
-1.80062e-06
6.17978e-07
4.30307e-05
2.50286e-05
8.81476e-05
-0.00132694
0.00116233
-0.000242577
0.000407192
0.000369552
-0.000315979
-0.000126978
7.34047e-05
0.000123986
-0.000540534
0.000524754
-0.000108206
-0.000131882
-3.81797e-06
8.94907e-05
4.62095e-05
-2.64992e-05
1.12406e-06
0.000337532
-0.000312157
0.000577049
3.36141e-05
-4.62208e-05
-0.000505981
2.8415e-05
-3.52008e-05
-0.000352077
-0.000183719
0.000208858
-0.000943093
-0.000168921
0.00027155
-6.27283e-05
5.02495e-05
-0.000218836
0.000659393
-0.000170351
-0.000563517
3.72967e-05
-2.82135e-05
6.60703e-06
-0.000386254
0.000250646
0.000323934
0.000298555
0.000348286
-0.00056647
-8.03717e-05
0.000112138
0.000160598
-0.000995899
3.53941e-05
-1.54307e-05
-2.65535e-05
-9.58005e-05
-0.000211757
-0.000389452
0.000313429
0.000500889
-0.000424867
-0.00024523
4.56218e-05
4.48323e-05
0.000154776
-0.000687137
0.000452184
-0.000394149
-0.000143645
0.00015154
0.000105892
-3.59078e-05
-0.000479034
0.000423216
0.000348089
-0.000292271
-0.00026272
0.000274459
1.03585e-05
-2.20979e-05
-0.000126531
-4.09978e-05
2.72824e-05
-0.000237646
-0.000422622
6.69872e-05
0.000703921
0.000480751
0.000761588
-0.00041133
-0.000831009
-5.64101e-06
3.80526e-06
1.24652e-05
-1.06295e-05
1.34759e-05
0.000651655
-4.83565e-06
4.36761e-05
0.000555693
-8.77694e-05
-2.56501e-05
1.45654e-06
-0.000514829
0.000539023
-2.23459e-05
2.22622e-05
-0.000251479
0.000251563
0.00041361
-0.000162763
0.000314914
-2.00836e-06
-0.000669123
2.72238e-06
5.23144e-05
-0.000532387
0.000705312
-0.00022524
0.000592435
0.000115714
-0.0001311
-0.000495834
4.21676e-05
-0.000239045
-0.000438142
0.00032511
-0.000156403
0.000614778
0.000212176
-0.000150633
0.000508197
0.000177146
-4.56061e-05
1.55552e-06
-3.59261e-05
-2.76152e-05
-3.31631e-05
5.51621e-05
-3.86148e-05
5.28579e-06
-0.000452666
0.000325217
-0.000116873
-0.000148576
6.98545e-05
0.000195594
-9.77881e-06
8.73318e-05
1.641e-05
-9.3963e-05
-4.61195e-06
-9.65202e-06
-8.87359e-05
4.31055e-05
2.43239e-08
3.85263e-05
-6.40854e-05
2.3529e-05
-3.81168e-05
0.000282731
-0.000492151
0.000247537
8.74877e-05
-0.000417447
-0.00023651
-6.30581e-05
0.000433569
-0.000389986
1.94745e-05
0.000150212
9.24208e-05
-0.000131697
-0.000110935
-1.50871e-05
-0.000236489
4.50989e-05
-8.29142e-05
5.77311e-05
-1.99157e-05
-3.29662e-06
0.000202637
0.00010093
-7.80949e-05
-0.000225472
7.66356e-05
-4.54146e-05
-0.000401952
0.000445748
-0.000274327
-0.000325322
2.39692e-05
5.69714e-06
-1.53102e-05
-1.43562e-05
7.13491e-05
-0.000593305
-2.08006e-06
2.21998e-06
-4.02673e-05
4.01274e-05
-0.000254938
0.000900961
-0.000269187
0.000230513
-2.55954e-05
6.42699e-05
-0.000306135
0.000721823
0.000575759
0.000186734
-0.000170057
0.000821804
-0.000419215
0.000874668
-5.86085e-06
2.07549e-05
0.000425437
-0.000440332
-2.72673e-06
4.70828e-05
-4.99971e-05
6.60953e-05
1.8645e-05
-7.35557e-05
0.000554183
-0.000774569
-0.000952295
0.001175
0.000551869
-0.000378644
0.000380101
-0.000272043
0.000387757
6.66267e-05
-4.43645e-05
-2.49407e-05
0.00039075
-1.69768e-05
0.000416213
-3.3416e-05
-6.24311e-05
0.000430039
-0.000433858
-0.000492182
0.000496001
-1.75912e-05
-0.000415121
0.000492402
-7.7281e-05
-5.66222e-05
6.64791e-05
-0.000569473
-0.000142553
-0.00127996
0.00064794
0.000184128
-0.000453301
-0.000366592
-1.20517e-05
7.47397e-05
-8.11295e-06
1.14574e-05
1.40331e-06
-9.05548e-06
-1.78033e-05
2.20658e-05
-3.80183e-05
6.50165e-05
3.28029e-05
-0.000689431
0.00024699
-0.000161809
0.00060425
-0.000544085
0.000444643
0.000160932
-0.000195891
-7.31459e-05
6.09411e-08
4.45721e-05
1.29058e-05
-5.75388e-05
-0.00032691
0.00025216
0.000183263
-0.000108513
0.000314253
-0.000185204
0.000423835
-0.000552884
-0.000525684
0.000476461
0.000205919
6.94778e-05
-0.000185715
-8.96818e-05
4.01859e-05
-6.76288e-05
6.50098e-05
-3.75669e-05
0.000325816
-0.000403455
2.10167e-05
-2.14573e-05
0.000305363
-8.76326e-05
4.38158e-05
-3.3254e-05
0.000915013
-0.000826216
-0.000500126
0.000525378
0.0003686
-0.000725045
0.000182024
0.000114375
-0.000824624
4.48021e-05
-0.000790343
0.000415164
-1.34253e-05
-0.000170294
0.000350218
-0.000321803
6.78256e-05
-7.15871e-05
-5.7405e-05
-4.85792e-05
1.21646e-05
2.99863e-06
-0.000162259
-3.86487e-05
0.000208618
-7.71019e-06
-2.72999e-05
5.21284e-05
4.71963e-05
-7.20248e-05
5.90246e-05
-1.14378e-05
-4.75868e-05
-0.000554603
0.00139369
-0.00109403
0.000521497
-0.000548817
-0.000607221
-6.3614e-05
-7.09392e-06
8.44985e-05
-2.96327e-05
-0.00013656
0.000153501
1.26923e-05
-2.6678e-05
-3.14088e-05
0.000250188
-0.000192101
-0.00087082
0.000899445
0.000367617
-0.000396243
-0.000237678
0.000165366
-0.000839026
0.000911339
-0.00106064
0.000518177
0.000725324
-0.000133606
0.000433491
-0.000328707
0.000647092
0.000123818
0.000277085
-0.000146859
-0.000254044
7.00335e-05
-0.000436525
4.82398e-05
0.000318252
0.000615865
-3.63256e-05
6.76603e-06
-5.58018e-05
4.32825e-05
5.05891e-05
-3.80698e-05
0.000677106
-7.31059e-06
0.000307319
-0.000977114
-0.000118542
0.000163186
-7.13223e-05
2.28145e-05
-3.56787e-07
8.63941e-05
-4.40112e-05
-6.58261e-06
2.01456e-06
-0.000913342
-6.71984e-05
0.000123765
0.000856775
-0.000964484
0.000472981
0.000988106
-0.000496603
8.06799e-05
-0.000447634
0.000561293
0.000563446
-2.87652e-06
8.57395e-07
-6.37092e-05
0.000141367
0.000374979
-0.000452637
6.21002e-05
-0.000526453
0.000496502
-0.000468687
-0.000225996
0.000152265
-0.000181622
0.000748132
-0.000840357
0.000339215
-0.00020678
0.000286013
0.000350807
0.00119512
-0.00054986
0.000259436
-0.000904694
0.000433012
-7.30167e-05
-0.000247858
8.4892e-05
-2.83357e-05
9.55748e-05
5.18056e-05
-5.18334e-05
-9.5547e-05
0.000153719
1.38233e-06
-0.000150892
-4.20963e-06
-1.22434e-05
-7.43751e-05
3.90588e-05
4.75596e-05
-0.000404381
-2.5116e-06
-0.000424117
0.000321769
7.4501e-05
0.000284925
-0.00044471
0.000501254
-0.00034147
0.000467148
0.00109098
-3.53626e-05
-8.52273e-06
6.75474e-05
-0.000544389
-1.53546e-05
0.000780995
-0.000669854
0.000383682
-0.000494824
-0.000150805
-0.00076868
-2.36084e-05
0.000229387
0.00049437
-0.000515604
-0.000690058
0.00152771
0.000357464
-4.42265e-05
-0.00114185
0.00129884
-0.000112766
-3.3195e-05
0.000106274
8.80057e-05
-0.000150997
0.000151398
0.000214356
0.000391934
-0.000314088
-7.80164e-05
-0.000471844
0.00132517
-0.000540292
-0.00147494
0.000356869
-0.000446694
5.99991e-05
1.30797e-05
0.00034011
-7.80831e-05
5.93245e-05
-4.93088e-05
0.000594235
-8.96797e-05
-0.000288574
0.000355117
2.31371e-05
4.86243e-05
-0.000123351
-5.07964e-05
0.000270997
3.05772e-05
0.000668707
-0.000621983
-0.000504466
0.000457741
0.000667856
-0.000852012
0.000627227
-0.000443071
-0.00016891
9.0894e-05
0.000208041
0.000599416
-0.000461515
0.00031602
0.00104494
0.000310551
-1.97499e-05
0.000486172
-0.000269475
-0.000216697
0.000573995
-0.00082747
-0.000297356
0.000123446
-5.20859e-05
-0.000428299
-0.000123883
8.05025e-05
0.000471679
0.000207708
0.000354626
-0.00039401
0.000695449
-0.000209277
-0.000124433
8.02604e-05
0.000174814
0.000479582
-0.000681659
0.000176654
-0.000138912
8.47536e-05
-0.000122496
-8.88508e-05
0.000133961
5.22409e-05
-9.73509e-05
0.000226618
-0.000138814
8.404e-05
0.000276704
-0.000134126
-0.000168806
4.3605e-05
0.000194409
-6.92078e-05
4.91943e-05
0.000421052
-0.000130692
1.60467e-05
0.000228796
0.000176209
-1.11779e-05
0.000277412
-9.77886e-06
0.000161787
-1.74663e-06
-8.89478e-06
8.24745e-05
-7.18331e-05
-5.10637e-05
-1.14027e-05
7.4854e-05
-1.23876e-05
-9.18867e-06
-0.000170633
0.000154198
2.5624e-05
-1.79881e-05
-3.49302e-05
1.85461e-06
1.14354e-05
-1.92687e-05
-1.22546e-05
2.00879e-05
9.9445e-06
-1.86086e-05
0.000104509
-9.58447e-05
8.48766e-06
-8.58953e-05
-0.000256954
0.000952403
1.31814e-05
7.17381e-06
-8.91981e-06
0.000110079
-0.000100135
-8.52823e-06
2.088e-06
1.49279e-05
6.20949e-05
-5.61331e-06
-0.000521902
9.63873e-05
-0.000497366
0.000922881
-0.000159682
6.73583e-05
-0.00112882
-0.000201362
0.00112011
0.00021007
-5.28415e-05
1.45561e-05
6.75101e-05
-2.92247e-05
0.000562335
-0.000282451
-0.000801786
3.34356e-05
0.000139026
-0.000284755
0.000118698
0.000208126
-4.20689e-05
0.000117929
-8.74328e-05
-0.000123506
9.30102e-05
1.21685e-05
3.64619e-05
-1.31066e-06
-4.73197e-05
-5.82036e-05
0.000716926
-0.0004831
0.000458332
-2.75863e-06
6.78461e-05
-0.0002229
-0.000294265
0.000268118
0.000249047
0.000162194
-4.95772e-05
0.000193416
-0.000190904
2.88724e-05
-0.000112746
2.73469e-05
7.63601e-06
-3.41105e-05
6.10717e-06
-6.04944e-05
8.84978e-05
-2.92231e-05
-1.84051e-06
-5.63692e-05
5.83799e-05
-9.03617e-05
-1.23448e-05
1.91359e-05
-4.09017e-05
-0.000689096
4.91331e-05
2.90229e-05
-9.05007e-05
-0.000139287
5.56007e-05
0.000150724
-0.000101487
7.44772e-05
1.54504e-05
6.04366e-05
-6.46658e-07
-0.000125503
-8.42104e-05
-2.21334e-05
5.7785e-05
3.84818e-05
-1.70466e-05
-6.77704e-05
4.63351e-05
-5.53777e-05
3.43581e-05
2.41104e-06
2.74463e-05
-0.000196357
0.00106877
5.52672e-05
-0.00112403
0.000142686
-0.000162337
0.000241225
0.000103127
6.95168e-06
-4.83089e-05
-0.000108909
5.3316e-05
-9.97152e-05
4.63993e-05
0.000174047
1.23412e-05
-1.15924e-06
-1.03737e-05
-3.58472e-05
8.36705e-05
-8.54171e-05
5.29501e-05
9.97652e-05
-0.000140374
0.000111803
-0.000121831
0.000137476
9.23385e-05
-8.71282e-05
7.34137e-05
9.32614e-05
-0.000106701
0.000171378
-0.000176253
0.00108536
0.000167985
-0.000229449
0.00019894
5.65175e-05
0.000138673
-0.000121777
0.000133909
-0.000219154
8.5871e-05
-6.25483e-07
-0.000114866
0.000248466
0.00013307
-0.000266671
0.000137175
-0.000205091
-0.000119681
-1.9465e-05
0.000139146
0.00141404
-5.54319e-05
3.89136e-05
-1.69969e-05
-3.08115e-05
0.000101952
-1.82813e-05
-9.68211e-05
-1.94444e-06
0.000155939
-5.71734e-05
5.46269e-05
0.000346327
-7.8304e-05
-1.77288e-05
0.000146019
-9.28994e-05
9.85074e-05
-1.97342e-05
8.5464e-05
-2.12708e-05
0.000150282
-0.000192476
0.000128777
-0.000254905
0.000169427
0.000104572
-6.62909e-05
0.000158065
5.93703e-05
-8.26963e-05
9.72139e-05
2.90873e-05
8.73344e-05
-1.95992e-05
-8.09961e-05
4.78175e-05
-6.6967e-06
3.98753e-05
2.65088e-05
-6.00108e-05
-1.31268e-05
-7.26905e-05
0.000221028
-9.72803e-05
0.000149834
6.1514e-05
-7.37048e-05
9.57521e-05
-3.18845e-05
0.000127674
6.22757e-05
9.49327e-05
-5.7102e-05
6.08246e-05
-4.88854e-05
-0.00030501
2.25159e-05
0.00033138
0.000305302
-5.89729e-05
-0.000267318
2.09889e-05
0.000109085
0.000165882
-0.000106557
-0.00016841
0.000125474
0.00104794
-0.000409362
-0.000841239
-6.14842e-05
0.000344849
2.19374e-05
-0.000175258
0.00022537
0.00109912
0.000248525
-0.000206864
0.000123268
5.17118e-05
-1.5492e-05
9.33107e-05
-4.30205e-05
1.1732e-05
0.000341839
-8.80968e-05
-0.000130461
4.33001e-05
0.000456155
-1.09411e-05
-0.000133535
-3.69193e-05
2.77607e-05
0.000106372
-0.000242681
-6.89244e-05
-0.000127914
-2.95346e-05
0.000146046
3.64234e-05
0.000426508
-0.000346974
-0.000115957
-4.20976e-05
0.000199587
0.000678588
-0.000260672
-5.11216e-06
0.000232272
3.35123e-05
-0.000164366
0.000371862
-0.000396238
-0.000210393
0.000442266
-0.000120513
0.000114536
-4.19155e-05
-0.000169901
-0.000138298
-0.000385942
-0.000139481
0.000435744
-0.000815831
0.000926495
0.000218771
0.000125447
0.000104319
-0.00013637
0.000241514
-0.000237613
3.2523e-05
0.0002206
-7.14382e-05
-0.000164601
1.54389e-05
0.000268911
-0.000105025
-2.91022e-05
1.49873e-05
-0.00103274
0.000988511
0.000219383
1.25355e-08
0.000207112
8.52561e-05
-2.05522e-05
4.19114e-05
-4.09584e-05
0.000704355
0.000696293
0.000196267
2.86589e-05
-0.000921218
-5.11592e-05
0.000129685
0.00030333
2.64339e-05
-3.67677e-05
2.6608e-05
5.79773e-05
-1.39993e-05
0.000497285
-0.000471151
-1.21349e-05
-0.000833296
0.000692981
4.83895e-05
-8.44887e-05
1.32731e-05
1.33567e-05
-1.20932e-07
-4.21413e-05
-1.32315e-06
4.37591e-05
-7.29549e-05
5.66421e-05
2.18082e-05
0.000379239
-2.85395e-05
-1.76098e-06
8.36164e-05
0.00103887
2.98988e-05
7.99445e-07
7.25151e-05
-3.1826e-05
-0.000114076
-0.00020387
0.000217603
-4.55585e-05
-0.000874206
0.000563446
-0.000668239
-2.33156e-05
-0.000757319
-0.000493282
-0.000623431
0.00088926
-9.02582e-05
5.6218e-05
0.000135825
-0.000186791
2.15181e-05
-0.000169014
2.62534e-05
-0.000887866
0.000462673
-2.56738e-05
-0.000944737
0.000658792
-0.000588261
3.41385e-05
-4.8576e-05
0.00069751
-0.000683073
0.000225951
0.000294067
5.11323e-05
-0.000360601
1.54012e-05
-9.51997e-05
0.000169886
-1.21669e-05
3.33776e-05
-3.76602e-05
6.12934e-06
-0.00018999
5.15364e-05
2.11219e-05
0.000127964
0.000394089
-0.000580062
-5.7567e-06
0.000407512
4.01936e-05
-7.7464e-05
-0.00055327
-0.000667422
0.00121291
6.79989e-05
-6.57495e-05
0.000525666
8.45549e-05
0.000543668
-0.000509887
-0.000118336
-9.33633e-05
0.000144117
-0.000964096
-4.87322e-05
3.60458e-05
0.000538353
-0.000494308
0.000116743
-0.00014292
0.00015253
-0.000126353
0.00146432
-0.000940833
0.000371804
-0.000895295
0.000432865
5.82153e-05
-0.000401959
-4.95452e-05
0.000719661
-0.000515262
-0.000334328
0.000129929
0.000210427
-0.00014957
-0.000162726
0.00058251
-0.000316016
-0.000355747
-5.92976e-05
-0.000182187
0.000200839
0.000109544
-0.000128197
-0.00119603
1.17198e-05
0.00013198
0.000802959
8.9183e-05
0.00020432
-0.00109646
0.000166481
1.20881e-05
7.07416e-05
2.28812e-05
6.6322e-05
0.000393276
-0.000883588
0.000559168
-0.000123224
-0.000256138
0.00013706
0.000242302
-0.00030336
0.000622655
-0.000629062
0.000629331
-0.000430848
0.000487389
5.66298e-05
0.00113697
-0.00113833
-0.000106209
-0.000186281
0.000935337
-0.000927284
-0.000310872
0.000532849
-0.000435676
0.000949919
-0.00098293
0.000899918
-0.000884498
-0.000352093
-8.63203e-05
2.09654e-05
-0.000180653
9.35938e-05
0.000147058
-4.47667e-06
0.000181314
4.37629e-05
-3.82375e-05
6.82028e-05
-0.000104355
0.000109797
0.000144391
-0.000193779
-0.000336585
0.000186122
-0.000102517
-0.000728861
-0.000148893
0.000664464
-0.000773919
-0.000493734
-0.000577673
0.000804175
0.000758248
-6.99043e-05
-0.000162966
3.06137e-05
-0.000868519
5.26333e-05
-9.47409e-05
8.9398e-05
-0.000859611
1.26607e-05
1.16575e-05
0.000810217
-0.000834535
-3.76897e-05
3.79548e-05
0.000686495
-0.000724449
-0.000215871
3.95913e-05
-0.000150395
0.000551602
-0.00019588
-0.000121359
-7.32947e-05
-0.000561889
-0.000231043
0.000406296
-0.00038502
-5.4629e-05
0.000799263
-0.000754048
-0.000705656
-0.00083211
0.000956155
0.00058161
5.17534e-05
-3.6362e-05
0.000919946
0.000141333
0.00021227
0.000934562
-0.000989971
0.000700532
-8.66407e-05
-0.00103697
0.00108058
4.30253e-05
-0.00113051
-5.21441e-06
6.85503e-05
-6.23009e-05
-0.000523183
-0.000228881
0.00054167
2.96388e-05
-0.000464801
-0.00016613
0.00049145
-0.000343213
-1.53727e-05
-0.00102576
-0.000475814
0.000459297
0.000140336
-5.53062e-05
-4.56235e-05
0.000112662
-0.000496761
-0.000220201
-0.000136185
-0.000667844
-4.60301e-05
0.000713874
1.36175e-06
-3.51302e-06
-2.67726e-06
0.000272229
-0.00125364
-5.2793e-05
0.0010342
-0.000454552
5.33899e-06
-1.24284e-05
-5.09283e-06
0.000496133
-0.000478612
-5.79503e-05
6.13624e-05
-0.000931187
-8.51162e-05
3.04546e-05
-7.57995e-05
-4.41208e-05
-1.71949e-05
2.5408e-05
0.000595191
-0.000294029
0.000115792
0.000256733
0.000320443
0.000162921
-0.000109023
5.50388e-05
0.00016094
-0.000411964
-7.58859e-05
0.000102523
-0.000171728
8.56145e-05
-9.57934e-05
0.00012852
3.71284e-05
9.79812e-05
-3.44788e-06
-1.03019e-05
4.33489e-05
-4.15697e-05
-0.000215337
0.000312718
-0.000111178
1.3797e-05
0.000845136
-0.000786282
0.000552607
2.81843e-05
0.00020549
-3.96775e-05
0.000248739
-3.49235e-05
3.18305e-05
-1.47103e-05
6.74516e-06
-6.41005e-05
1.54398e-05
1.36917e-05
-2.93126e-05
1.56209e-05
-6.27301e-05
2.79307e-06
-5.08606e-05
3.07978e-05
2.00628e-05
-6.29512e-05
5.65467e-05
6.40459e-06
-4.25106e-05
-0.000232108
-5.08119e-05
4.57137e-05
5.09822e-06
-2.54102e-06
-0.00108788
0.00115904
-0.000479994
-0.00148083
-8.80831e-06
2.25e-05
-6.94679e-05
0.00022672
0.000130853
-6.35059e-05
-7.32976e-05
2.2437e-05
-1.40088e-05
0.000669409
-0.000652817
-0.000245473
2.19895e-05
5.73474e-06
3.44666e-06
-0.00026715
-0.000208249
-0.000188134
0.000238219
0.000145187
5.35102e-05
-7.41106e-05
4.64271e-06
-0.000205222
0.000167071
-3.04708e-06
-0.000420872
5.31805e-05
0.000429792
-7.19288e-05
3.58669e-05
0.00068146
-8.8271e-05
-4.97742e-05
9.13523e-05
0.000658953
0.00103418
-0.000801505
0.000681683
6.98704e-05
0.000417848
-0.000325191
-7.40055e-06
-2.16959e-06
-7.87472e-05
0.000113338
0.000108467
-0.000163647
-5.81577e-05
-9.96597e-05
-8.43597e-05
-0.000405307
1.8651e-05
-0.000597188
-0.000152074
0.000109206
0.000640056
0.000886015
-2.1478e-05
2.00339e-05
2.50028e-07
-1.62816e-05
6.78371e-05
7.41236e-05
-6.57624e-06
0.000201946
-0.000423288
-0.000307632
-0.000109087
2.45536e-05
0.000215386
-0.0002459
0.000305545
-3.8852e-05
-9.75925e-05
7.23441e-05
1.11397e-06
-0.000356169
-0.000583485
0.000528981
0.000864958
-4.62045e-05
-0.000226762
-1.86895e-05
-0.000676518
0.000379427
-2.35422e-05
-0.000282444
0.00025587
-0.000215466
0.000314518
-0.000190671
0.000294883
-0.000172919
6.8706e-05
0.000106926
-2.49332e-05
4.44786e-05
-0.000137948
0.000115872
2.20759e-05
5.1519e-05
-5.98352e-05
8.3162e-06
1.30442e-05
-8.17172e-05
5.3703e-05
-6.2358e-05
0.000587306
0.000194713
-3.78221e-05
5.28212e-05
8.12604e-05
-7.19867e-05
-0.000254183
0.000284347
-2.7561e-06
-0.00107451
-4.7702e-05
0.000132239
0.00119059
-0.00113637
3.52325e-05
-2.88195e-05
6.16425e-05
0.000103148
-7.32123e-05
0.000118183
0.000412339
3.5381e-06
-1.1303e-05
0.000441334
-0.000275003
-0.000381713
9.51048e-07
-0.000742837
-0.000440121
-0.000243596
-0.000135125
5.54445e-05
-0.000314786
5.98315e-05
-2.19408e-05
-9.91835e-06
-2.79724e-05
-0.00014021
6.86921e-05
0.000144622
6.31172e-05
-0.000173765
-0.000314311
0.000113779
0.000485899
-3.92137e-05
9.90115e-06
-2.92478e-05
-0.000993267
-1.65106e-05
-1.24463e-05
3.14704e-05
-7.36668e-05
-7.97057e-06
-0.000141044
-4.99061e-05
0.000189189
-8.21746e-05
0.000263226
-0.000327247
3.80867e-05
-5.06841e-05
-2.71407e-05
3.10232e-05
-8.89987e-05
-0.000110165
0.000530532
-1.71615e-05
4.18523e-05
-0.000189516
-0.000224636
-0.000761443
0.000967077
-0.000716507
0.000370428
-0.00048603
7.02378e-05
0.000781732
-0.000130299
0.000179848
0.000102716
3.73921e-05
-9.76798e-05
5.31938e-05
0.000180777
-1.65815e-05
-1.06953e-05
6.54279e-05
-1.05549e-05
-0.000127828
0.000684644
-0.000183192
-0.000664178
0.000259978
0.000118648
0.00010486
2.35323e-05
2.79866e-05
-0.00011242
0.00115641
2.49228e-06
-0.000104669
-0.000582534
-1.78821e-05
-0.000928091
0.000559421
-1.68288e-05
0.000154687
-9.61223e-06
0.000163285
-6.14018e-05
-0.000151843
0.00019194
2.82327e-05
1.67355e-05
3.56839e-05
0.000512434
6.91133e-05
-0.000215469
0.000326021
8.19554e-05
-7.23102e-05
-7.23735e-05
-0.000261708
-1.24413e-05
8.20599e-05
4.1506e-05
-1.60353e-05
-1.93635e-05
0.00038561
-0.000473447
-2.2328e-05
-0.00068167
-0.000514798
0.000435025
-4.47851e-05
7.77533e-05
0.000101768
-4.51957e-05
-4.8406e-06
6.16251e-05
-0.00022748
0.000142377
-0.000113845
0.0003526
-2.15035e-06
0.000123443
-8.19257e-05
7.4056e-05
-0.000123827
6.49998e-06
-4.74425e-06
0.000776343
-0.000452957
-0.00015802
0.000429549
-0.000277498
1.7051e-05
-0.000152199
9.42451e-05
0.000443959
-0.00116128
-0.000275944
-0.000153069
0.000262372
-0.000315421
-0.000122337
-0.00054167
0.000457923
-0.0001506
-5.6312e-05
4.88555e-05
-0.000471814
-0.000502586
-0.00119296
-2.30568e-05
-2.02014e-05
-0.000107479
-3.03305e-05
2.25117e-05
5.21291e-06
2.60594e-06
0.000165372
-0.000142848
-2.25195e-05
0.00022405
-0.000246945
-0.000156753
0.00046142
-0.000368376
0.000148377
-7.39131e-05
-0.000449117
0.000960265
-0.000944944
2.68658e-05
0.000377574
-0.000241007
-4.03014e-05
-7.38767e-06
-4.14425e-06
-2.07276e-05
6.53664e-06
1.23903e-05
-9.46448e-05
-0.00141653
-0.000772151
-0.000370607
0.000303714
6.1533e-05
-2.88466e-05
1.72165e-05
-0.00011826
-2.20232e-05
-1.03161e-05
-4.99906e-07
-0.00022048
4.80931e-05
-1.4512e-06
-9.45501e-05
-0.000507886
0.000521361
-0.000458059
0.000519457
1.90436e-06
-0.000455425
0.000398446
5.69797e-05
-0.000400814
-5.72452e-05
-2.36811e-06
-0.000653378
0.00065137
-0.000539526
0.000554328
-1.48024e-05
-0.00049585
-0.000608799
-4.45788e-05
0.000623429
0.000596159
2.72699e-05
-0.000541812
-0.000418509
0.000475333
-0.000431945
-4.33875e-05
-0.000323777
-9.47316e-05
-0.000232536
-9.12411e-05
0.000172227
-0.000126605
-6.03096e-05
0.00058206
1.40992e-05
0.000597088
-1.50278e-05
0.000613585
2.59822e-06
0.000494254
-0.00036867
7.5167e-05
-1.04339e-06
-5.85725e-05
-0.000135169
6.73888e-05
-0.000231602
0.000142505
-8.8222e-05
-0.000116348
-3.78197e-05
-0.000222767
-0.000675634
0.000208412
-2.40137e-05
7.38032e-05
0.000446712
-0.000557038
0.000156164
-0.000196314
0.000131436
0.00013494
9.58172e-05
2.00552e-05
-0.000825217
-3.67367e-05
-8.04303e-05
0.000112394
-7.38888e-05
9.28658e-05
-0.000750296
-0.000187877
-0.00146764
0.000535155
0.000274454
-0.000216372
-3.22722e-05
0.000605614
-0.000192637
0.00026569
3.05539e-05
-3.53478e-05
0.00103967
-0.00123928
7.68374e-05
5.77834e-07
-7.74152e-05
0.00124882
3.24562e-05
4.82943e-05
0.000207164
-0.000126431
-3.72257e-06
3.31609e-05
0.000212864
0.000749685
-0.000763162
-0.000169716
-0.000279284
2.35532e-05
-0.000365096
0.00020146
0.000682626
0.000781854
-0.000789811
0.00018311
-4.01005e-05
-2.70477e-05
-6.859e-05
0.000267374
-0.000158169
0.000167881
-0.000518276
-0.000752449
-0.000208123
-6.93636e-05
0.000163882
-7.0595e-05
0.000116056
-0.000209343
0.000224051
0.000213101
-0.000206639
8.49485e-05
-6.68405e-05
-0.000101604
-0.000194935
0.000547186
0.000127413
3.50649e-05
-1.59954e-05
-1.50341e-05
3.13912e-05
0.000156708
0.00027573
-0.000390553
-8.68371e-06
-0.000122423
0.000670722
0.000577633
-0.000208607
-9.60753e-05
-0.00051236
-0.000565242
0.000554301
-0.00016134
8.27088e-06
-0.000664786
0.000481775
-0.000145696
-0.000321808
0.000186772
1.42971e-06
9.54283e-05
0.000333058
-0.000481323
-6.26691e-05
0.000201353
1.03109e-05
-0.000236879
0.000239625
-0.000547266
2.38171e-05
-4.50193e-05
-1.1448e-05
0.000386142
0.000116481
0.000407375
0.000427536
-0.00012917
0.000127886
0.000455133
-0.000471671
-0.000113235
1.8718e-05
-4.32154e-06
-1.23819e-05
-0.000162644
-6.01716e-05
-1.36182e-06
-0.00045531
-0.00132577
0.00109485
0.000258009
-0.000158936
0.000677269
0.000194709
6.72053e-05
4.67437e-05
5.5669e-05
-0.000175579
0.000252048
-3.62017e-05
1.22251e-05
4.07121e-05
0.00014636
-0.000208497
2.38989e-05
5.70584e-05
-6.2403e-05
0.000115142
0.000749945
0.000492569
-0.000393915
-2.7915e-05
0.000225995
-0.000164671
-0.000323031
-0.00021457
0.000327101
-0.000236123
5.45783e-05
-6.75299e-05
6.10074e-05
0.0002289
-0.000283414
-6.49337e-06
-3.35086e-05