/*--------------------------------*- C++ -*----------------------------------*\
| =========                 |                                                 |
| \\      /  F ield         | OpenFOAM: The Open Source CFD Toolbox           |
|  \\    /   O peration     | Version:  v1912                                 |
|   \\  /    A nd           | Website:  www.openfoam.com                      |
|    \\/     M anipulation  |                                                 |
\*---------------------------------------------------------------------------*/
FoamFile
{
    version     2.0;
    format      ascii;
    class       volScalarField;
    location    "0.63";
    object      k;
}
// * * * * * * * * * * * * * * * * * * * * * * * * * * * * * * * * * * * * * //

dimensions      [0 2 -2 0 0 0 0];


internalField   nonuniform List<scalar> 
1466
(
0.0799884
0.0847409
0.0314879
0.0576381
0.151276
0.426016
0.224022
0.203649
0.82172
0.231389
0.101014
0.18553
0.0145716
0.063693
0.0536824
0.0726022
0.0455847
0.0757804
0.235616
0.058792
0.0987174
0.272583
0.0496662
0.0807558
0.0652605
0.0767737
0.0917514
0.129767
0.125071
0.130046
0.208536
0.523489
0.231546
0.278605
0.0686885
0.0600172
0.0426036
0.0503599
0.561534
0.189634
0.193601
0.17466
0.773019
0.264798
0.197079
0.646006
0.0553479
0.0652976
0.188359
0.0892247
0.0332982
0.188178
0.105579
0.387828
0.116545
0.219424
0.0488226
0.099775
0.10463
0.251851
0.0705855
0.110977
0.135133
0.444878
0.0932293
0.0741678
0.197632
0.102061
0.067727
0.242949
0.0500725
0.0634438
0.0500896
0.0605767
0.0266394
0.318577
0.0663148
0.0753744
0.171952
0.22637
0.028376
0.0547458
0.0665324
0.197402
0.0578753
0.0697125
0.0586164
0.121324
0.0527519
0.0736558
0.053668
0.0565362
0.210286
0.0613405
0.0372268
0.0876955
0.101682
0.100361
0.101307
0.0552315
0.177081
0.15926
0.0336441
0.0396703
0.0646469
0.745791
0.0940821
0.0685609
0.113364
0.0590692
0.100727
0.0600057
0.0637974
0.0505599
0.0170064
1.00867
0.0455413
0.054738
0.0822955
0.107306
0.0889749
0.0853644
0.0331514
0.128228
0.0568999
0.278299
0.042409
0.0452046
0.266175
0.169992
0.185655
0.0707413
0.0425939
0.184881
0.0380372
0.194066
0.164852
0.0526031
0.213077
0.0538749
0.148391
0.0558394
0.298802
0.140744
0.207376
0.0579573
0.0396819
0.0535417
0.160976
0.0532929
0.304379
0.0562882
0.0671491
0.0974319
0.05424
0.0744736
0.0684532
0.593394
0.114853
0.049535
0.155852
0.0653813
0.0625702
0.0896745
0.166149
0.16988
0.255767
0.0408666
0.0711873
0.102833
0.0798789
0.0636946
0.045192
0.14309
0.0888916
0.10756
0.177108
0.272889
0.0507815
0.241193
0.0773338
0.071843
0.213236
0.0641166
0.126411
0.0515055
0.0767548
0.863085
0.0693457
0.042184
0.0533932
0.0577402
0.0735065
0.0841655
0.0656728
0.0694852
0.229403
0.0580277
0.0526433
0.0548747
0.256084
0.0686293
0.0674542
0.0705938
0.0598168
0.218741
0.0756819
0.394347
0.0522998
0.0721409
0.0677247
0.337506
0.0641258
0.0583573
0.0912031
0.074852
0.0313772
0.0248549
0.0576269
0.0584759
0.244341
0.087468
0.0680693
0.0546223
0.140438
0.0548545
0.0503339
0.0780513
0.0588525
0.549125
0.0553289
0.110108
0.050492
0.129749
0.0608041
0.0665736
0.129255
0.177593
0.140243
0.0683482
0.732755
0.154595
0.056127
0.155649
0.191019
0.039723
0.0352089
0.0534772
0.0198246
0.0465138
0.0524896
0.243212
0.226544
0.119388
0.0517207
0.25411
0.050557
0.17302
0.943714
0.301989
0.0604935
0.0551427
0.314519
0.0452148
0.445728
0.0579311
0.837586
0.139326
0.070804
0.0605758
0.213243
0.0805252
0.0485874
0.0497123
0.0529644
0.129039
0.0929984
0.0673423
0.0559779
0.204545
0.0635839
0.0285542
0.0508081
0.0391916
0.0929053
0.0452227
0.0895218
0.0562814
0.180847
0.0586977
0.0554692
0.817086
0.112489
0.282411
0.256003
0.0753803
0.820504
1.33122
0.0680749
0.0390815
0.0552006
0.429151
0.040471
0.127153
0.0593928
0.0548197
0.0459254
0.165776
0.0264556
1.19968
0.566908
0.0413786
0.0777036
0.15546
0.217867
0.0619966
0.135957
0.0750789
0.24861
0.0516782
0.059068
0.165146
0.225933
0.0499403
0.0358773
0.0317066
0.0186004
0.0468203
0.0251926
0.0189922
0.0450951
0.0451749
0.0155478
0.025389
0.0383566
0.0477191
0.0357473
0.0461143
0.0310989
0.0169344
0.0516609
0.0475716
0.0163276
0.0276793
0.0388643
0.0259143
0.0439479
0.0440004
0.0760846
0.247729
0.260968
0.0577856
0.246285
0.146218
0.152865
0.0617283
0.23237
0.043157
0.942905
0.0805906
0.140502
0.192244
0.152879
0.0273195
0.0547985
0.0435155
0.0234845
0.0166406
0.0462727
0.0479857
0.0195791
0.0409713
0.0402965
0.0459011
0.0219767
0.041174
0.0234467
1.06818
0.0634659
0.0421959
0.0419365
0.128338
0.220765
0.0403856
0.114955
0.0894026
0.0721793
0.0807985
0.101059
0.180542
0.238363
0.182797
0.125554
1.14474
0.0325808
0.0504267
0.138428
0.0596241
0.0614569
0.0273363
0.0695686
0.0351833
0.121957
0.0541136
0.245695
0.101027
0.186741
0.866811
0.089267
0.0767721
0.0854019
0.116371
0.0401264
0.090492
0.829415
0.308509
0.214615
0.131892
0.233939
0.278309
0.149825
0.0744701
0.285432
0.265807
0.277433
0.277147
0.235871
0.269859
0.265944
0.273412
0.081878
0.0758761
0.270746
0.686833
0.701337
0.8795
0.711786
0.220449
0.0943747
0.0991612
0.25828
0.161428
0.519221
0.084266
0.0929824
0.547199
0.153254
0.21459
1.34425
0.108853
1.4402
0.623268
0.0702837
0.209775
0.597028
0.100346
0.291348
0.455668
0.064989
0.0973331
0.464589
0.271891
0.237849
0.119855
0.499143
0.171713
0.841113
0.0839258
0.0761821
0.0326613
0.653544
0.0876434
0.102333
0.0819316
0.493004
0.234361
0.0467304
0.0361228
0.31199
0.430831
0.0793502
0.0930246
0.437276
0.0961172
0.329873
0.0777699
0.0898989
0.0336062
0.363384
0.277358
0.403873
0.0803193
0.0959046
0.0378136
0.126208
0.407456
0.407417
0.488811
0.194818
0.225167
0.070337
0.088391
0.0740433
0.102606
0.0431888
0.136033
0.281125
0.0922363
0.107768
0.0917472
0.127806
0.499739
0.100704
0.0934301
0.0672382
0.0926077
0.0728259
0.0844948
0.171224
0.132846
0.190431
0.940402
0.382961
0.604735
0.517158
0.167083
0.445773
0.323891
0.0573817
0.0404762
0.0957536
0.143646
0.0945015
0.0996577
0.0851729
0.396555
0.17806
0.582942
0.0782691
0.111861
0.481858
0.720966
0.222796
0.595434
0.0928366
0.0683511
0.0300833
1.08431
0.838058
0.0618223
0.0868306
0.0607091
0.722529
0.245097
0.153633
0.336011
0.0730728
0.0646644
0.242654
0.133131
0.0853951
0.0989792
0.188318
1.07617
0.266126
0.292383
0.0638418
0.0673442
0.0956616
1.15025
0.0532333
0.117353
0.10249
0.185769
0.0364162
0.120201
0.170762
0.0489085
0.0955022
0.114455
0.158311
0.0691897
0.18684
0.133267
0.0572823
1.58384
0.656904
0.0646861
1.24718
0.159983
0.0341425
0.0552164
0.232924
0.0330792
0.0634732
0.0808476
0.171632
0.317207
1.04519
0.134071
1.33283
0.0526809
0.0801844
0.0318191
0.0663877
0.277926
0.214093
0.0865381
0.782379
1.14993
0.292918
0.670502
0.192645
0.840445
0.0322981
0.0553429
1.00612
0.0679713
0.157546
0.045997
0.0599002
0.0713845
0.10812
0.299308
0.0618493
0.134373
0.121559
0.0701274
0.0817354
0.997727
0.289451
1.11367
0.0337828
0.0314254
0.151415
0.315778
0.14815
0.84061
0.0535872
0.0771905
0.0857325
0.324016
0.050806
0.10356
0.0469544
0.18432
0.0329715
0.207361
0.911379
0.0845159
0.0683601
1.22945
0.323004
0.40055
0.0900517
0.317183
0.713089
0.146591
0.0808083
0.0331931
0.0710902
0.950362
0.178516
0.127983
0.540977
0.857966
0.207942
0.0833259
1.09816
0.280329
0.076398
0.0584737
0.0817198
0.0320038
0.03424
0.0524228
0.148869
0.960232
0.0587947
0.156986
0.051393
0.0599492
0.0204504
0.0325429
0.162664
0.029405
0.4797
0.0866184
0.028607
0.07331
0.0537935
0.0691133
0.104529
0.180089
0.624427
0.053429
0.226438
0.0568549
0.224286
0.302352
0.103218
0.0319173
0.289785
0.399599
0.301444
0.0914321
0.258494
1.08908
0.102317
0.0484213
0.0682968
0.0188551
0.186197
0.0465669
0.0700301
0.0736954
0.258913
1.20106
0.0599368
0.0959628
0.137906
0.239383
0.0732432
0.24856
0.922413
0.0568463
0.146161
0.0682815
0.219687
0.165839
0.158851
0.0643328
0.22713
0.0483849
0.0411785
0.677433
0.0528294
0.0331658
0.0627986
1.42729
0.0288392
0.0556819
0.0189388
0.02551
0.0330622
0.0930409
0.0395616
0.0339989
0.177868
0.19538
0.0321087
0.0460182
0.0408933
0.282074
0.177288
0.113476
1.03107
0.384868
0.0355668
0.0478315
0.0509728
0.0420419
0.248042
0.0567918
0.0647461
0.327945
0.282828
0.0484973
0.0317092
0.0365591
0.180388
0.522925
0.104213
0.0168355
0.311166
0.092251
0.0524967
0.209358
0.0636072
0.41993
0.562751
0.308868
0.0209769
0.0380793
0.323777
0.190737
0.0489145
0.0842961
0.124124
0.051514
0.0680272
0.0527005
0.0488419
0.0611313
0.0679853
0.1738
0.822289
0.0885874
0.283007
0.0303413
0.0349393
0.134002
0.0566638
0.0394657
0.0342329
0.0260395
0.190748
0.056128
0.045067
0.302103
0.782036
0.0225539
0.0800881
0.172868
0.0697446
0.582391
0.0709569
0.0298941
0.082362
0.580312
0.658609
0.0550807
0.221517
0.306026
0.0420444
0.0418989
0.0843335
0.0560613
0.0628105
0.0321415
0.0577951
0.279125
0.0459467
0.0537792
0.0489968
0.0494837
0.40759
0.272595
0.0453242
0.20499
0.025628
0.0576541
0.221421
0.166751
0.0667012
0.280361
0.231731
0.21158
0.179094
0.296928
0.344686
0.182918
0.142864
0.286126
0.0322402
0.0384434
0.156283
0.0495253
0.0354239
0.0536796
0.718875
0.0508413
0.830306
0.0982616
0.0626383
0.0497246
0.0730708
0.0680589
0.16083
0.0366487
0.0708462
0.0552729
0.157049
0.319192
0.0334269
0.0582945
0.0527582
0.0947342
0.706087
0.167191
0.0588205
0.035387
0.0969526
0.090565
0.0768754
0.0324559
0.0914425
0.390179
0.194618
0.232274
0.151486
0.062034
0.0407477
0.0603483
0.0673221
0.811165
0.0678755
0.0752338
0.105551
0.0908835
0.0974565
0.0957619
0.127455
0.087651
0.171259
0.0494659
0.0705932
0.0618344
0.197385
0.0331839
0.0755863
0.0448619
0.19003
0.0417657
0.205409
0.0202249
0.214271
0.0527342
0.0949458
0.0663703
0.0935502
0.0525123
0.121611
0.522829
0.324013
0.0687097
0.0918069
0.0817058
0.217897
0.101127
0.0522565
0.0999489
0.174515
0.145614
0.0189579
0.926885
0.0813997
0.252138
0.0686398
0.0254016
0.0244229
0.019615
0.0208858
0.0432252
0.0377278
0.0462252
0.0461506
0.0271638
0.0478798
0.050566
0.0270339
0.0250005
0.0231991
0.103871
0.0220993
0.0212098
0.204354
0.022413
0.182575
0.0384982
0.0523964
1.04482
0.211066
0.0776878
0.0746274
0.0229106
0.251832
0.0640593
0.0318487
0.0754383
0.0569065
0.141849
0.0352817
0.0345243
0.151239
0.0576872
0.0708026
0.0566845
0.0534089
0.0755296
0.234023
0.379683
0.789229
0.541495
0.0971655
0.032402
0.215758
0.0709461
0.0632187
0.108711
0.0944844
0.138699
0.0563372
0.0541676
0.129001
0.0410285
0.04636
1.41377
0.183
0.803722
0.0556913
0.0547302
0.262073
0.0825971
0.188302
0.0680762
0.0735654
0.614569
0.0794791
0.0540623
0.0799958
0.0568488
0.0464321
0.281542
0.0860593
0.16872
0.0759156
0.0649562
0.116716
0.193155
0.0582323
0.0590677
0.447858
0.217535
0.373464
0.154131
0.234382
0.133463
0.142046
0.461528
0.0926657
0.031633
0.645651
0.0456974
0.0453695
0.26752
0.724005
0.0115858
0.108684
0.286342
0.717522
0.010541
0.0693463
0.0719554
0.134561
0.15835
0.121347
0.0164703
0.215288
0.078832
0.0722155
0.0278642
0.04529
0.404289
0.0560422
0.25732
0.946196
0.0367484
0.0690959
0.306951
0.810988
0.0571862
0.0321335
0.0186295
0.076619
0.0737633
0.0525228
1.10961
0.113089
0.188535
0.0996651
0.0553566
0.0718354
0.0756072
0.960068
0.0563938
0.158435
0.232723
0.033169
0.068089
0.198958
0.0448067
0.0451789
0.125536
0.0358248
0.197291
0.886426
0.208282
0.0323482
0.0660311
0.119363
0.227777
0.070836
1.01315
0.0553294
0.0401167
0.0869278
0.0819075
0.179578
0.0808735
0.0438871
0.0468746
0.0708301
0.115004
0.0876048
0.0269694
0.0162785
0.0440754
0.109512
0.057996
0.0833648
0.150211
0.0561935
0.087063
0.109852
0.0559748
0.0632837
0.0572464
0.0486153
0.113377
0.0360195
0.0306143
0.207824
0.0444085
0.0410667
0.0429856
0.0405031
0.0310049
0.0739534
0.110257
0.0407633
0.127158
0.0519844
0.216786
0.0420469
0.0476689
0.273989
0.0535774
1.2698
0.060547
0.0573929
0.10388
0.0831853
0.0866363
0.0707872
0.283114
0.0148578
0.0804154
0.206941
0.051796
0.0828507
0.048042
0.047445
0.0577757
0.0445234
0.142966
0.0467697
0.0424381
0.236466
0.042101
0.0337738
0.132633
0.886625
0.0623023
0.226843
0.0418598
0.0597015
0.0718136
0.0326018
0.0339069
0.0500302
0.0726632
0.928265
0.0368949
0.0565079
0.256489
0.474191
0.112631
0.0680822
0.0965089
0.0515539
0.134203
0.0834965
0.0697127
0.0423669
0.0289343
0.102843
0.0818054
0.148665
0.0916995
0.0900335
0.0571553
0.0772904
0.0548506
0.0555049
1.11671
0.242214
0.143006
0.0279696
0.308446
0.0680003
0.0699995
0.593506
0.059541
0.0573966
0.0831269
0.0472359
1.21476
0.0621761
0.900632
0.130374
0.0876092
0.0377101
0.0866013
1.01756
0.0621903
0.162233
0.212809
0.18917
0.0600296
0.146371
0.074319
0.0908009
0.0643144
0.0486303
0.0588023
0.0519967
1.47137
0.275661
0.0718732
0.062713
0.0684793
0.0275453
0.0520142
0.0515892
0.259354
0.0317709
0.30014
0.0575352
0.0287048
0.229108
0.0557702
1.0298
1.30784
0.168131
1.17969
0.061901
0.0652676
0.0316528
0.0646699
0.272602
0.78411
0.184626
0.766211
0.184366
0.0733049
0.0646399
0.368614
0.221588
0.0636409
0.181594
0.0943709
0.0759501
0.134318
0.20571
0.0634478
0.0615411
0.257906
0.0329438
0.0196169
0.0555242
0.148562
0.251121
0.0261992
1.48732
0.38413
0.721988
0.104821
0.0561129
0.0627945
0.0354293
0.179791
0.274269
0.823728
0.0560586
0.0490751
0.200124
0.166148
0.0867306
0.059677
0.134515
1.26882
0.40636
0.0328886
0.81166
0.474562
0.185088
0.0154903
0.249066
0.0621085
0.132826
0.814038
0.0131775
0.074679
0.059306
0.260906
0.0972705
0.670728
0.0100079
0.131527
0.184814
0.0765734
0.078203
0.0563006
0.0618834
0.228553
0.0340945
0.24277
0.0575339
0.926447
0.0565687
0.138382
0.250234
0.0598064
0.194264
0.207077
0.0334668
0.24177
0.111779
0.42517
0.0805686
0.984707
0.0572188
0.063105
0.284273
0.0566594
0.164568
0.0578658
0.0634626
0.0560292
0.104851
0.102497
0.0478922
0.0623497
0.0725711
0.0418097
0.096727
0.0361823
0.0562656
0.0557067
0.193226
0.0698262
0.222166
0.0582687
0.0694419
0.11746
0.174553
0.21562
0.0425853
0.153502
0.0568231
0.0634912
0.0553435
0.0294547
0.0421726
0.0819124
0.038222
0.302216
1.17966
0.0148246
0.0588137
0.0673756
0.0772878
0.0763738
0.0400666
0.0580316
0.0444091
0.166146
0.059218
0.0464057
0.0464134
0.0532947
0.0944683
0.0658447
0.290152
0.0641564
0.0737454
0.127735
0.0714977
0.0914418
0.0530247
0.107524
0.0380222
0.119014
0.0576806
0.0222428
0.0540131
0.0667656
0.242356
0.0365022
0.231461
0.24888
1.00563
0.067351
0.0696555
0.252663
0.0327444
0.1378
0.0602772
0.0973834
0.066708
0.0627096
0.109597
0.0574801
0.0826659
0.076375
0.0885146
0.169248
1.31311
0.268142
0.585484
0.0554106
0.0737349
0.0608483
0.0518978
0.255988
0.353147
0.0621931
0.0565984
0.0556794
0.0820158
0.0852856
0.0606079
0.0679936
0.0652544
0.087505
0.107834
0.05493
0.0896997
0.0752381
0.09135
0.202317
0.0500038
0.237345
0.215881
0.0325544
0.0655217
0.0924225
0.0600916
0.0682435
0.394859
0.0207298
0.225877
0.821796
0.899167
0.0582819
0.130184
0.830974
0.0307715
0.53231
0.131947
0.341809
0.132987
0.219812
0.15267
0.144116
)
;

boundaryField
{
    frontAndBack
    {
        type            empty;
    }
    wallOuter
    {
        type            kqRWallFunction;
        value           nonuniform List<scalar> 
102
(
0.0145716
0.0145716
0.0496662
0.0266394
0.0170064
0.0264556
0.0325808
0.0204504
0.0483849
0.0411785
0.0528294
0.0331658
0.0556819
0.0189388
0.02551
0.0330622
0.0395616
0.0460182
0.0509728
0.0484973
0.0168355
0.0209769
0.0380793
0.0303413
0.0349393
0.0420444
0.0418989
0.0322402
0.0536796
0.0417657
0.0202249
0.0254016
0.0244229
0.019615
0.0208858
0.0432252
0.0377278
0.0462252
0.0461506
0.0271638
0.0478798
0.050566
0.0270339
0.0250005
0.0231991
0.0220993
0.0212098
0.0384982
0.0523964
0.0569065
0.0352817
0.0576872
0.0534089
0.0563372
0.0541676
0.04636
0.0556913
0.0547302
0.0568488
0.0464321
0.0456974
0.0115858
0.010541
0.0164703
0.0560422
0.0186295
0.0553566
0.0448067
0.0451789
0.0401167
0.0438871
0.0468746
0.0162785
0.0440754
0.057996
0.0559748
0.0360195
0.0410667
0.0739534
0.0535774
0.0573929
0.0148578
0.0445234
0.0467697
0.0623023
0.0500302
0.0565079
0.0423669
0.0548506
0.0519967
0.0329438
0.0196169
0.0154903
0.0131775
0.0100079
0.0563006
0.0566594
0.0478922
0.0418097
0.0148246
0.0400666
0.0444091
)
;
    }
    inlet
    {
        type            fixedValue;
        value           nonuniform 0();
    }
    outlet
    {
        type            zeroGradient;
    }
    wallInner
    {
        type            kqRWallFunction;
        value           nonuniform List<scalar> 
138
(
0.101014
0.0455847
0.125071
0.130046
0.188178
0.105579
0.387828
0.116545
0.110977
0.0565362
0.177081
0.0396703
0.0331514
0.148391
0.0558394
0.0579573
0.0396819
0.0408666
0.042184
0.0533932
0.0577402
0.0248549
0.056127
0.039723
0.0352089
0.0534772
0.0198246
0.0465138
0.445728
0.0285542
0.0508081
0.0562814
0.0499403
0.0358773
0.0317066
0.0186004
0.0468203
0.0251926
0.0189922
0.0450951
0.0451749
0.0155478
0.025389
0.0383566
0.0477191
0.0357473
0.0461143
0.0310989
0.0169344
0.0516609
0.0475716
0.0163276
0.0276793
0.0388643
0.0259143
0.0439479
0.0440004
0.043157
0.0273195
0.0547985
0.0435155
0.0234845
0.0166406
0.0462727
0.0479857
0.0195791
0.0409713
0.0402965
0.0459011
0.0219767
0.041174
0.0234467
0.0421959
0.0273363
0.0695686
0.0401264
0.090492
0.0744701
0.701337
0.25828
0.064989
0.171713
0.0326613
0.0467304
0.0361228
0.126208
0.194818
0.225167
0.0740433
0.604735
0.517158
0.0573817
0.0300833
0.170762
0.0341425
0.0552164
0.10812
0.0314254
0.127983
0.03424
0.0524228
0.028607
0.0188551
0.0627986
0.0288392
0.104213
0.051514
0.0260395
0.0225539
0.0298941
0.0537792
0.20499
0.025628
0.0495253
0.0552729
0.0494659
0.0189579
0.022413
0.0229106
0.0540623
0.447858
0.217535
0.0453695
0.068089
0.0553294
0.0306143
0.051796
0.048042
0.0597015
0.0515539
0.0600296
0.1378
0.53231
0.131947
0.132987
0.219812
0.15267
0.144116
)
;
    }
    procBoundary2to0
    {
        type            processor;
        value           nonuniform List<scalar> 
42
(
1.47858
1.47858
0.0659703
0.0533733
0.241993
1.11089
0.0810464
0.0810464
0.140015
0.0864074
0.572283
0.572283
0.383748
0.747867
0.987084
0.893011
1.34731
0.0861686
0.095692
0.476313
0.365115
0.0824115
0.0824115
0.35346
0.365115
0.0837786
0.470683
0.0743953
0.470683
1.64975
1.55422
0.0646197
0.0545808
0.0505378
0.0545899
0.0533733
1.34731
0.0345204
0.766987
0.0828152
0.0828152
0.0639669
)
;
    }
    procBoundary2to1
    {
        type            processor;
        value           uniform 0.616651;
    }
    procBoundary2to3
    {
        type            processor;
        value           nonuniform List<scalar> 
29
(
0.183745
0.186714
0.0884884
0.0786269
0.367618
0.0795071
0.190891
0.178785
0.20905
0.173653
0.118886
0.447756
0.101842
0.343722
0.279271
0.336494
0.186656
0.186656
0.186714
0.343722
0.311363
0.174578
0.0973093
0.19414
0.220238
0.123735
0.20905
0.595048
0.447756
)
;
    }
}


// ************************************************************************* //
