/*--------------------------------*- C++ -*----------------------------------*\
| =========                 |                                                 |
| \\      /  F ield         | OpenFOAM: The Open Source CFD Toolbox           |
|  \\    /   O peration     | Version:  v1912                                 |
|   \\  /    A nd           | Website:  www.openfoam.com                      |
|    \\/     M anipulation  |                                                 |
\*---------------------------------------------------------------------------*/
FoamFile
{
    version     2.0;
    format      ascii;
    class       surfaceScalarField;
    location    "0.69";
    object      phi;
}
// * * * * * * * * * * * * * * * * * * * * * * * * * * * * * * * * * * * * * //

dimensions      [0 3 -1 0 0 0 0];
oriented        oriented;


internalField   nonuniform List<scalar> 
2708
(
-0.000403052
-1.93594e-05
0.000198416
0.000223995
0.000175457
0.000224853
-0.000173304
-0.000227006
4.42758e-06
3.71716e-05
-6.33591e-05
2.17599e-05
-0.000189948
0.000209235
-5.83699e-05
3.90826e-05
-0.000535466
-0.000186758
0.000384482
0.000337742
0.000783611
-0.00092514
0.00041535
-0.000273821
0.000105103
-0.000104567
5.37148e-05
-5.42502e-05
-0.00010791
0.000143235
-2.58156e-05
-9.50896e-06
-0.000574421
0.000611003
0.000658578
-0.00069516
4.28715e-05
0.000141999
-7.97683e-05
0.000948089
-0.000981871
0.000283248
-0.000249466
0.000257422
-0.000345629
0.00072335
-0.000635143
-0.000155133
0.000218486
-0.000249237
0.000185883
-0.000109356
-0.000390882
0.000355135
0.000145103
0.000450044
-0.000568984
-0.000173326
0.000292265
0.000141998
3.71369e-05
-0.000136264
-0.000829515
0.000661215
-0.000203322
0.000371621
0.000138614
-0.000292609
0.000202317
-4.83219e-05
0.000381172
0.000142402
-0.000488511
-3.50625e-05
-0.000194367
-4.97911e-05
0.000247049
-2.89114e-06
-0.000387121
0.000799857
0.000535352
7.31544e-05
-3.35624e-05
-0.000148948
-0.000634458
-0.000323236
0.000509051
0.000448643
-0.000269111
-0.00126686
0.00130421
0.000231763
-0.000700269
-0.00050861
-9.31697e-05
2.93389e-05
0.000142831
-7.9e-05
-0.000955689
-0.000160112
0.000133931
-0.000272779
0.000193481
0.000296329
-0.00021703
5.79149e-05
-0.000443328
0.000385413
-2.06953e-05
-0.000540172
0.000560867
0.00063098
5.27414e-05
-5.73801e-05
-0.000626341
-0.000551345
4.66077e-05
-1.93898e-05
0.000524127
0.000607411
4.48509e-05
-2.59208e-05
-0.000626341
-0.000233834
0.000172844
6.77948e-05
-6.80433e-06
0.000687319
0.000281131
-0.000724366
-0.000244083
-7.99412e-05
0.000152952
-0.000104263
3.12528e-05
0.000206989
0.000835163
-0.00011573
-1.71596e-05
1.85695e-05
2.56105e-05
-2.70204e-05
-5.75717e-05
6.82842e-05
4.83116e-05
-5.90241e-05
8.12046e-05
0.000484672
-0.000551224
-1.46532e-05
-0.000502113
0.000434048
0.000906546
0.00105298
-0.000146794
-0.000101508
-7.54059e-05
-3.45166e-05
4.98893e-05
6.00331e-05
-0.000490351
0.000677714
-0.000543124
0.000355761
0.000263121
-0.000134599
-0.000210057
8.15353e-05
0.000185864
-0.000136868
-7.68685e-05
2.78727e-05
-0.000904155
0.000107778
-0.000159313
4.70195e-05
-5.14807e-05
-0.000100106
3.92493e-05
2.87348e-05
-5.27665e-05
-1.52176e-05
-6.14975e-06
-0.000328335
0.000374287
-3.98016e-05
7.77136e-05
-7.67947e-05
-6.50184e-05
6.40995e-05
0.000410642
-0.000244325
-0.000195884
2.95675e-05
2.61415e-06
0.000258693
-0.000146743
-0.000114564
0.00010079
0.000156244
-0.000137728
-0.000119306
-5.81524e-05
0.000164554
-2.14516e-05
-8.49501e-05
0.000120965
-0.000186124
-5.99606e-05
0.00012512
-0.000368479
-0.000369876
0.000460685
0.000277671
0.000842591
-0.000200308
-0.000642282
0.00026185
6.2036e-06
-0.000268054
0.000177265
9.4267e-05
-2.14996e-05
-7.27674e-05
-2.28213e-05
4.52594e-05
-2.24381e-05
4.04011e-06
-2.11997e-05
-3.15818e-05
-2.599e-05
3.23355e-05
1.07617e-05
0.000342382
-5.3685e-05
0.000106707
7.77393e-06
2.42679e-06
9.88058e-05
-0.000101233
-0.000176183
0.000242311
-6.61274e-05
-0.000133934
0.000211347
-7.74127e-05
-0.000252026
1.81917e-05
0.000132012
-4.52059e-05
3.37346e-05
0.000139109
-0.000303356
-8.75257e-05
0.000362007
-9.88865e-05
6.44908e-05
8.49016e-05
-0.000149392
3.4459e-05
5.42696e-06
-3.98859e-05
0.000122157
1.98428e-05
-5.04758e-06
0.000143661
-0.000700979
-0.000128536
-1.37042e-05
-5.41093e-05
6.78135e-05
-0.000170104
8.56759e-05
0.000493685
-0.000409257
-0.000250407
0.000219562
0.000216709
-7.5609e-05
5.35146e-05
0.00124105
-0.00121896
1.16758e-05
0.000167476
-1.37561e-05
-0.000165396
-5.15016e-05
5.9673e-06
-7.49203e-06
5.30263e-05
0.000198938
-0.000223063
1.24589e-05
1.16665e-05
2.32427e-05
2.82545e-05
-0.0010351
0.000983601
-0.000129461
5.07472e-05
-0.000750903
0.000829617
4.03699e-06
0.000194854
-7.79256e-05
0.00024324
-0.000265778
2.65743e-05
5.7444e-06
-1.87815e-05
3.16066e-05
-1.7428e-05
6.3233e-05
-0.000143022
9.72171e-05
0.000114338
-7.63347e-05
6.2787e-05
3.59428e-05
-0.000472015
0.000436072
-0.000244992
-0.000295275
-0.000390832
0.000459116
0.00022699
-7.48809e-05
-5.56825e-05
5.51575e-05
-0.000134572
0.000131627
2.94464e-06
0.000288067
-0.000171067
-0.000175152
6.64235e-05
-4.70374e-05
-0.000527848
2.86598e-05
-5.35474e-05
0.000552735
-0.000131552
-7.87812e-05
0.000143234
6.70994e-05
1.61792e-05
2.08206e-05
-2.54076e-06
-0.000578054
-6.8422e-06
0.00058719
-2.29339e-06
7.84988e-06
0.000587881
-0.00057102
-2.4711e-05
-0.000124411
0.000680846
-0.00073304
0.000176605
0.0004675
-0.00028673
-0.000504007
0.000672319
-0.000357576
8.38288e-05
4.64692e-05
-0.000362306
0.000170088
0.000410705
9.25941e-05
-2.83627e-05
3.42297e-05
-9.84611e-05
-0.000634481
0.000579598
0.000488931
0.000123208
0.000208493
-0.000173458
0.000103109
-5.79354e-05
0.000223667
-0.000211991
-1.87812e-05
-5.10136e-05
-0.000125169
-0.000108356
-0.000460628
5.27173e-05
-5.01031e-05
-6.10456e-05
-4.76263e-05
0.000258973
0.000122689
-5.32679e-07
6.89184e-05
-0.000132276
-0.000213335
0.000172286
0.000109438
-8.04152e-05
8.14922e-06
-2.67105e-05
-1.09262e-06
5.59757e-06
2.22056e-05
0.000237709
0.000423506
-2.12921e-05
-0.000271317
-1.24189e-05
-4.6011e-05
3.17194e-05
8.27084e-05
-0.000388444
0.000686907
-0.000157797
0.000274208
-0.000310778
4.73553e-05
-3.46524e-06
-4.10498e-05
-7.85928e-06
1.2187e-05
-4.42849e-05
3.99572e-05
0.000121994
-2.62201e-05
-0.000117273
0.00120943
0.000126521
-0.00117042
-0.000165529
3.13549e-05
2.47257e-05
4.35585e-05
0.000603135
2.96667e-05
7.22538e-05
-0.000705056
-0.000141372
0.000315865
0.000334558
0.000105173
0.000538181
-8.07352e-05
-0.000216115
0.00027016
0.000234023
0.000144413
0.000163561
-3.8941e-05
-0.000132172
-7.61221e-05
0.000542534
2.09918e-05
-0.000487404
-2.67606e-05
0.000250428
-0.000508374
-2.72111e-06
-6.78263e-05
0.000578922
-6.26542e-05
5.25643e-05
-8.69164e-06
-0.00122004
-0.000119616
0.00117613
0.00016352
0.000486516
0.000345852
-0.000304046
-0.000528322
-0.000165447
8.70462e-05
-0.000595685
0.000674086
-1.81438e-05
2.09528e-05
-3.96369e-07
-2.41268e-06
0.00106594
-0.000919685
0.000225543
-0.000371797
-0.000302338
-0.000180943
0.000234044
2.77464e-06
-3.32931e-05
5.16754e-05
-2.11569e-05
9.31512e-06
1.98395e-05
-1.8418e-05
-1.07366e-05
-6.17164e-05
0.000114434
-0.000660642
0.00033651
-7.89204e-05
0.000159092
7.84536e-05
3.54376e-05
-1.7388e-05
0.000380114
-0.000354396
-0.000185137
0.000159419
-0.000147244
-0.000941493
6.72386e-05
0.0010215
-0.000238903
-0.000321385
0.000344173
2.23692e-05
0.000585554
-1.63543e-05
-0.000591569
0.000261894
-0.00151569
4.33042e-05
0.0012105
0.000333587
-0.000328226
0.000219492
0.000315718
-0.00127386
-2.65266e-05
1.1438e-06
1.2964e-05
0.000906221
-0.000612961
3.16382e-05
0.000387943
-8.93915e-06
0.000534298
-7.77711e-05
-0.000408283
-4.8244e-05
-4.74328e-05
5.51607e-05
7.08645e-05
0.000216422
-0.000256142
0.000132328
-9.26077e-05
0.00114708
-0.00112396
-0.000292225
0.000498009
-0.000106827
0.000515038
-0.000449361
0.000457211
-0.00031665
0.000192238
0.000235338
0.000584765
-0.000751754
0.000320151
-8.76363e-05
0.00051924
-2.58092e-05
-5.6668e-05
-0.00111251
0.00119499
0.00060514
-0.000656812
0.000156845
0.000621079
-0.000531182
-3.68385e-06
-8.62134e-05
0.000531452
-0.000752221
0.000301973
0.000604774
-6.50071e-05
0.000141079
-2.75624e-06
0.000179794
0.000832009
-0.000665951
-0.000300355
-0.000362193
0.000367274
0.000657038
-0.000619427
-0.000133853
9.62412e-05
9.72421e-05
-3.88433e-05
4.0407e-05
-0.000156947
9.62791e-05
0.000219632
-0.000158964
0.000215857
-0.000219421
0.000113361
-0.000109796
4.47587e-05
-1.11022e-05
-3.08818e-05
-0.000634706
-0.000409831
0.000782787
0.00026175
-4.38046e-06
-4.31246e-05
4.80901e-05
-5.85038e-07
-1.12991e-05
0.000261946
-0.000307727
5.70801e-05
7.9955e-06
0.000650536
-0.000648542
-9.98923e-06
0.000161089
-0.000600714
0.000604341
-0.000164716
-0.000117661
-8.04257e-06
9.25289e-05
3.3175e-05
0.0010888
-0.00111782
-4.90318e-05
7.80511e-05
-0.000161371
-1.49355e-05
0.000174979
4.53698e-06
-0.000179516
-1.57151e-05
-4.9114e-06
-1.26667e-05
0.000605117
4.64026e-05
-6.36381e-05
-0.000509975
-5.20135e-05
-1.60659e-05
-9.02487e-05
-0.00117414
0.00118878
-8.48313e-05
-2.43279e-05
-2.54125e-05
0.00060734
-0.000181555
-0.000501907
1.2068e-05
0.000664548
-1.95781e-05
0.000286144
-9.64858e-05
0.000109406
-0.000299065
0.000230756
-0.000592822
-0.000272641
0.00043766
0.00029243
-0.000589346
-0.000140744
-9.55238e-05
0.000185208
0.000126737
0.000294761
-0.000298141
0.000472563
-0.000469183
2.65559e-05
-1.98858e-05
-2.38917e-05
1.72216e-05
-0.000593925
0.000523211
-0.00106973
0.00109062
-0.000111142
-0.000592494
0.000728753
-0.00054609
-0.000189999
0.000179282
-0.000392314
3.17691e-05
0.000652974
-0.000496343
6.28749e-05
0.000664224
-4.66405e-05
-0.00013711
0.00024499
-6.12395e-05
-1.68496e-05
1.46766e-05
0.000633152
3.2081e-07
-0.000583949
0.000591623
0.000347151
-0.000114333
0.000298634
-1.11622e-05
-0.00057384
3.36566e-05
-0.000760671
-0.000238872
0.000845411
0.000154132
0.000604472
0.000130497
-0.000129852
-1.61601e-06
-0.000352346
-0.000156013
-0.000124765
0.000400245
0.00032966
-0.00012241
9.7886e-05
0.000202446
-0.000177922
-3.54553e-05
5.00972e-05
-4.11685e-05
-0.000179675
0.000351645
0.00018428
-0.00035625
9.57103e-05
-7.66334e-05
-0.000340198
0.000506006
-0.000167424
-0.000108306
-0.000115531
-0.000118686
8.51405e-05
0.000149076
-0.000372393
0.000209949
-0.000285468
0.000858307
0.000312239
-0.00051519
-0.000386395
-5.4237e-05
-0.000119872
3.11396e-05
-4.35437e-05
-0.000374858
0.00124644
-0.000848341
-1.66491e-05
7.82048e-06
3.20716e-05
-3.33994e-05
4.70623e-05
3.85752e-05
-0.00117434
2.16156e-06
0.000920726
0.000251456
-1.55627e-05
1.62131e-05
-1.72995e-05
-0.000175365
0.00111205
0.000153932
-0.000604485
0.000769664
-0.000462538
0.000297359
1.62087e-05
0.000271302
0.00015271
-8.42787e-05
-0.000339733
9.87336e-05
-0.000404995
-0.000106723
0.000136725
-1.29637e-05
9.72704e-06
6.16585e-05
-0.000343344
-0.000606302
-0.000579014
0.000392393
-0.000476988
-0.000547116
0.000631712
-4.53753e-05
0.000161071
0.000489079
0.000113269
-0.000807476
-5.12231e-05
-0.000134901
0.000214141
0.000111987
0.000580698
0.0001775
-0.000153727
-0.000152682
-0.00015835
-0.000120744
0.000121539
-0.000123205
0.00125242
-0.000333724
-3.54867e-05
0.000533404
0.00153337
-0.00020623
-7.47237e-05
-0.000671501
-0.000109622
-2.84132e-06
0.000783965
-0.000374907
0.000375228
-0.000503613
0.00063411
-0.000328694
0.000384237
-0.000294447
-0.000258208
0.000331188
-0.000589674
0.000516694
-1.28869e-06
0.000414705
0.000285939
-0.000159632
-2.06272e-05
-0.000105681
8.69541e-05
-8.8859e-05
-5.7496e-05
5.9401e-05
-0.00027691
0.000554554
-0.000447747
-0.000992908
9.8845e-05
-0.000280281
-0.000422279
6.69863e-05
-8.48732e-05
0.00119567
-0.00117778
0.000187172
-0.000128103
-0.000286075
-2.04192e-05
-0.000577492
0.000528385
-0.000633673
0.00068278
-1.75496e-05
-0.000472805
2.75397e-06
-0.000272775
-1.34986e-05
0.00028352
2.46095e-05
-0.000793593
2.80631e-05
-0.000561121
0.000289754
-0.000606404
5.05306e-05
-0.000499891
7.93253e-06
-0.000145792
5.3028e-05
-0.000372797
-2.11031e-06
0.000229432
0.000284786
-0.000244058
-1.76723e-05
2.04001e-05
-2.72775e-06
0.000111409
-0.000131924
-0.000132167
-0.00020955
0.00025744
-1.73352e-05
-3.05554e-05
-0.000230073
-0.000511247
0.00013077
0.00061055
-1.46164e-05
2.56095e-05
-0.0004451
-0.000608316
0.000424285
0.000341741
0.000918224
-0.0002826
0.000163541
-0.000735894
0.000807807
0.000107881
-2.10731e-05
0.000143762
5.97228e-06
-0.000127231
8.18559e-05
0.000676394
-0.00065487
0.00058948
-0.000599592
0.000219849
-0.000345215
-0.000503564
0.000229352
7.90571e-05
6.15792e-05
-0.000116187
0.00010471
-5.01018e-05
-0.00063928
0.000576327
0.000755967
-0.000693014
0.000280966
-0.000333635
-0.000392431
0.00015924
7.31768e-05
-7.2117e-05
3.35021e-05
-1.54944e-05
0.000253884
-2.1708e-05
-0.000229422
-0.000538791
0.000275122
0.000444988
-0.000181319
-7.68394e-05
1.34803e-05
5.95101e-05
0.00070466
-0.00062814
-0.000675544
0.000599024
0.000302197
-0.000320965
6.40896e-05
-4.53225e-05
2.46731e-05
-5.19625e-05
5.9361e-05
0.000379639
-0.000431653
6.95705e-05
-0.00011235
-5.84533e-05
0.000705624
-0.000609707
-0.000673409
-2.26745e-05
2.317e-05
5.00295e-05
-5.0525e-05
-2.59974e-05
-2.24216e-05
-0.000209119
-1.17295e-05
-0.000695212
0.000501215
0.000620226
-0.00042623
-0.00026008
-0.000666037
-0.000652085
0.000416655
-0.000303362
-1.49316e-06
-1.0315e-05
-0.000189165
-9.63903e-06
-0.000182695
0.000308131
-0.000743127
0.000617691
-0.00025538
0.000999899
-0.000164921
-0.000540129
0.000433744
0.000782778
-0.000765903
0.000499912
0.000666235
-9.78001e-05
-0.000188654
0.000769054
-0.000531129
0.00129545
-0.000216058
-0.000702531
1.62566e-06
0.000263524
-1.73997e-05
-0.00024775
6.81309e-05
-3.757e-05
0.000777987
-0.000808548
-6.12631e-05
0.000216741
2.35542e-06
-0.000157833
0.000342012
-3.49064e-05
-5.32208e-05
0.000509949
0.000242064
-0.000499864
-0.000252149
-0.000276395
0.000301413
-8.62809e-05
0.000226085
-0.000182905
-9.28318e-05
4.96517e-05
0.000372851
-3.37088e-05
0.000951061
-0.0012902
7.18338e-05
-0.000118474
0.000113637
-0.00136573
0.00122628
8.12012e-07
6.78469e-06
6.55577e-05
-9.95826e-05
-0.0001212
9.23063e-05
-0.000739506
0.00112982
0.000149018
-0.000539335
-0.000596778
0.000602132
-0.000567603
0.000437511
0.000124742
-0.000617464
0.000550638
-4.68614e-05
-0.000642667
0.000668833
0.000856566
-0.000875599
-0.000103189
-0.000159379
7.58101e-05
-0.000594862
0.000100224
0.00113487
-0.000640232
-0.000328533
-0.000160042
0.000308901
0.000889342
0.000209402
0.000883164
-0.000874341
-0.000119965
0.000262593
-2.08577e-05
8.57414e-05
-0.000112929
4.80452e-05
3.57664e-05
-5.10496e-06
-9.05347e-05
5.98733e-05
-0.000208251
0.00091605
0.000282962
-0.000198044
-0.000387257
-0.000644581
0.000490506
-4.55453e-05
0.000114428
8.79754e-05
-0.000156858
8.06468e-05
-0.000948599
-0.000722371
8.77869e-05
0.000660975
-9.23044e-05
-0.000656457
0.000440975
0.000146253
-0.000153687
-0.000433541
0.000592418
9.78215e-06
-0.0003944
-0.0002078
0.000782808
-0.000897632
-1.90285e-05
-0.000353121
-0.000175127
0.000199714
7.11593e-05
-6.70731e-05
-0.000384059
4.39142e-05
4.18493e-05
0.000298295
-0.000511695
6.09624e-05
6.66733e-05
-1.40877e-05
3.58593e-05
-3.6388e-05
0.000861243
-0.000351659
-0.000150441
-0.000635313
0.000456106
-0.00013907
0.000318277
-0.000377534
-8.89277e-05
-0.000168852
-0.000597044
0.000691998
0.000240421
-0.000699518
-0.000247978
0.000707075
0.000619416
-0.000610351
0.000233
3.44417e-05
0.000857062
-0.000615891
0.000560886
-2.76865e-05
0.000815632
0.000132781
-3.46735e-05
4.36592e-05
5.29028e-05
-6.18885e-05
0.000459939
-8.58689e-05
-3.79468e-05
-0.000336123
-0.000762093
7.73749e-05
1.18598e-05
-1.94889e-05
7.62909e-06
-6.79467e-05
4.217e-05
0.000477428
-2.18503e-05
4.3611e-06
0.000672301
-0.00041107
1.38903e-05
0.000453008
-8.54265e-06
3.29621e-05
-0.000106662
7.11121e-05
-8.01788e-05
0.000115729
2.47815e-05
0.000655423
7.0195e-05
9.37304e-06
-4.6066e-05
0.000496866
0.000150272
-0.000476141
-0.000170996
-3.36854e-05
0.000199982
-0.00095139
0.000432922
-2.22723e-05
4.23586e-05
-0.000126676
0.000588618
0.000233151
-0.000129494
-0.000198243
-6.37131e-06
0.000286161
0.000209783
-0.000212781
-4.53938e-05
5.87019e-05
0.000419614
8.34744e-05
-7.57322e-05
-0.000110931
-7.73383e-05
-0.000133103
0.00016065
0.000179846
0.000326129
-0.000363573
2.47151e-05
6.38319e-05
4.04723e-06
-0.000212761
-0.00120826
0.000154161
-0.000198179
0.000301158
7.28119e-05
-0.000175791
0.000311712
-0.000274261
0.00020734
-0.000244791
0.000440746
-0.000327213
0.000190095
-9.19012e-05
0.000261562
0.000214991
0.000258792
-3.30371e-05
-0.000339725
0.000429752
-0.000311276
0.000221249
0.000176424
-8.79545e-05
0.000412858
-0.00029124
-3.36638e-05
0.00036511
-2.33129e-05
-4.56846e-05
-2.54081e-05
0.000483951
4.37757e-05
-0.000318815
0.000170748
0.000104291
0.00108571
0.000532345
-0.000305135
-0.00131292
3.70503e-05
0.000308138
7.12026e-06
0.000246671
0.000102614
-3.00638e-05
-6.45304e-06
-3.55165e-05
-1.84448e-05
1.78738e-05
3.60875e-05
7.40141e-05
-4.82043e-06
0.000235786
-0.000227148
-0.00028182
0.000273182
-7.41175e-05
6.01054e-05
7.3655e-05
-5.96429e-05
-0.000105354
-8.76846e-05
0.000118921
-8.27154e-05
1.07125e-05
2.28957e-05
4.91072e-05
-0.000122344
0.000123141
3.22373e-05
-3.30345e-05
-1.10071e-05
-6.87057e-05
1.99005e-05
4.34548e-05
0.000126706
-6.19161e-05
5.73114e-05
5.41671e-06
-0.000971894
2.69435e-05
0.000905648
3.93024e-05
-1.10874e-05
8.62384e-06
-8.54355e-06
-3.5204e-05
-0.000131536
3.23808e-05
3.56777e-05
-3.74885e-05
-5.05228e-05
6.88388e-05
-6.22008e-05
4.38847e-05
-0.00104623
0.000117645
4.30768e-05
-0.000131782
0.00013216
-3.95218e-05
-6.73047e-05
4.07528e-05
-1.39998e-05
-7.72757e-05
-0.000256406
-0.000107707
-0.00115833
0.000210832
3.45335e-05
-7.64962e-05
-0.000316399
-0.000715413
9.82657e-05
-0.000107364
-2.54187e-05
7.13603e-05
-0.000233394
-0.000158241
5.82656e-05
-3.14978e-05
-7.77612e-05
5.09934e-05
-0.001336
0.000279211
0.000845657
-0.000663407
0.000903461
4.72793e-05
-4.19293e-05
-2.53562e-05
6.64579e-05
-4.89609e-05
4.31398e-06
-2.92118e-05
8.8154e-05
4.64394e-05
1.8926e-05
1.66651e-05
1.55103e-05
6.67745e-06
-0.000933704
0.000443362
-0.000120322
7.94089e-05
-3.9028e-05
6.13259e-05
-4.28709e-05
5.39995e-05
0.000116853
-0.000151926
-0.000204787
-7.58738e-05
2.0503e-06
8.85955e-07
-0.000119294
-6.99914e-06
-2.38979e-06
-3.12322e-05
4.06211e-05
-0.000746988
7.48786e-05
-7.20282e-05
-0.000123172
-3.71237e-05
-7.20195e-05
-1.90269e-06
2.99779e-05
-4.32731e-05
1.51979e-05
0.000131697
-0.000213472
8.15884e-05
1.86306e-07
3.48103e-05
7.24145e-06
-0.000138498
4.61696e-05
-5.85782e-05
-0.00121656
0.000164433
9.88052e-05
4.76779e-05
-7.16045e-05
0.000127575
0.000285706
-0.000170041
3.28458e-05
2.96402e-06
2.01255e-05
-5.59353e-05
-1.08663e-05
9.21934e-05
-5.19882e-05
0.00032496
8.8511e-05
6.0179e-05
-2.73332e-05
-0.000329692
-0.000874143
-1.27226e-05
-0.00121032
-0.000477457
0.000106406
-8.32484e-06
2.08139e-05
0.0001574
6.88621e-05
-5.58577e-05
0.000213944
0.000115047
-0.000201415
3.56224e-05
-4.83914e-05
0.000158253
7.49825e-05
-5.339e-05
-2.76751e-05
1.69475e-05
-4.60114e-05
0.00010619
-1.93461e-05
8.80529e-05
-6.83301e-05
2.52827e-05
2.01675e-05
4.54328e-05
-0.000112937
0.00015566
-0.000770959
-0.000286837
0.000382957
-0.000232988
0.000133335
-0.000291283
0.000218497
4.78383e-05
-1.71673e-05
1.86897e-05
9.36712e-05
5.94729e-05
-5.52954e-05
2.1432e-05
-0.00143072
-0.000214377
0.000364983
5.35658e-06
-0.000108767
-3.1924e-07
-1.91697e-05
-0.000168018
5.46929e-05
-0.000142789
-9.47821e-05
0.000182879
0.000147924
-0.000139549
-2.1227e-05
2.70208e-06
-9.44124e-05
0.000481829
-0.000394275
-0.000593932
0.000506377
-3.99669e-05
5.96358e-05
6.24216e-05
0.000710893
-0.000642762
1.59921e-05
0.000109095
-3.14158e-05
-0.000126816
0.000202051
-0.000395057
0.000474262
-0.000165073
1.09376e-07
-3.12106e-05
3.11012e-05
-1.93307e-06
0.000684279
-0.000647905
3.15001e-05
0.000156528
-0.000405675
0.000400098
3.84589e-05
-0.000302329
0.000274614
-0.000777629
0.000902206
-0.000124577
0.000188739
-0.000127691
-0.000582406
5.47892e-05
-0.000254184
0.000781801
-0.000361983
0.000300075
-0.00025757
0.000319477
-2.72238e-05
3.1261e-05
0.000798114
0.000366369
-0.000433442
0.000484149
-0.000417076
-2.47177e-05
-9.45559e-06
1.17352e-05
6.86494e-05
-0.000208562
6.04157e-05
1.52703e-05
-5.04121e-05
4.33138e-05
-6.67361e-05
-0.000768171
0.000612162
-0.000231112
-0.000164023
-0.000464067
-0.00132454
-0.000312413
0.000780671
0.000186376
-2.36729e-05
-0.000190757
0.000216055
-0.000512168
0.000672746
-3.53903e-05
-0.000160402
0.000172119
0.000217575
-1.73458e-05
-6.24808e-05
-8.49172e-05
9.69859e-05
0.00019401
-0.000672869
3.40414e-05
0.000444818
-0.000369388
0.000335813
-1.18179e-05
-0.000859023
0.000393402
0.000773752
-4.65391e-06
0.000344356
0.000143243
4.5657e-05
-9.93932e-05
8.02668e-05
1.91264e-05
0.000757306
5.01557e-05
-4.31994e-05
4.0882e-05
3.67512e-05
0.000482545
-0.000519297
5.74234e-05
0.000271722
-0.000352458
0.000173544
-0.00025771
-0.000388161
-3.50017e-06
0.000258619
-0.000264643
-0.000852999
-0.000529784
0.000725652
-0.000482704
0.000598865
0.000123476
-0.000572069
0.000198296
0.000570837
-0.000587867
0.000723935
-0.000233995
6.14657e-05
-6.45693e-05
-0.000134784
-8.97351e-05
0.000154394
0.000153838
0.00017645
-0.000181508
0.000483532
-0.000485465
-0.000317324
-0.00046749
0.000236166
0.00034073
-0.000553288
-0.000235494
0.000273592
-0.000452632
0.00028111
-0.000266858
0.00043838
-0.00011879
9.49299e-05
0.00017952
0.000234366
0.000409375
-0.000202767
0.00116082
0.000152186
0.000465366
-0.000493925
8.72614e-05
7.46675e-05
0.000773205
-0.000760753
-0.000178764
0.000166312
0.000633982
0.000219669
-0.000436996
-0.00117189
0.00108738
0.000234566
-0.000704097
-1.70833e-05
0.000178942
-0.00015361
-8.24909e-06
8.42195e-05
3.07196e-05
2.36128e-05
-0.00010227
-8.17444e-05
-0.000306129
0.000180708
-0.000386273
4.0815e-05
0.000226253
-0.000555843
0.000617376
0.000698185
-0.000674342
0.000618529
-0.000642372
0.000144944
0.00112644
-0.000955669
4.48607e-06
-9.53069e-06
5.55204e-05
7.75998e-05
-9.73538e-05
0.000637315
-0.000161425
5.84076e-05
0.000145385
-0.000284372
-0.000217281
1.97207e-05
6.05461e-05
-0.000464448
0.000537796
-0.000379477
-0.00013161
-3.55346e-05
-0.000100013
0.000811264
-0.000369671
-0.000515074
0.000432113
-9.45605e-05
0.000109343
-0.000119125
9.26987e-05
0.000227534
-6.27922e-05
0.000213908
3.48418e-05
7.58274e-05
-4.59833e-05
0.000314512
0.000123808
0.000223547
-1.1543e-05
0.000103459
0.000684565
0.000620094
-0.000740726
-9.637e-05
-0.000351454
-0.00057152
0.000517299
-0.000215701
9.41656e-05
0.000680649
-0.000610603
0.000384629
7.91616e-05
-6.27215e-05
-5.76086e-05
-6.83716e-05
6.386e-05
0.000469877
-1.85889e-05
0.000502121
-0.000141181
-0.000570546
7.48987e-05
-0.000140175
-0.000402874
-0.000241707
-7.09565e-05
-6.98959e-05
0.000904111
-6.62514e-05
-0.000586403
0.000496335
-1.37896e-05
0.000508425
0.000567092
2.76625e-05
-0.000137191
-0.0009888
-0.000297314
0.000339509
-0.000435932
-4.09059e-06
-5.16082e-06
-5.44754e-05
6.65785e-05
0.000303784
0.000105053
-0.000123154
-0.000167745
-4.06671e-05
0.000199015
0.000475051
8.91636e-05
0.000215314
0.000995423
-0.000941908
0.000614567
-8.37662e-05
2.35784e-05
-3.41731e-06
6.49794e-05
0.00108275
-8.73253e-05
-4.18901e-05
0.000662968
0.000207459
-0.000126214
0.00010802
-0.000297297
-0.000203635
-0.00041202
-0.000874313
-6.7595e-05
-5.44859e-05
7.05485e-05
-3.26087e-06
-1.28017e-05
-0.000182418
0.000229068
4.69435e-06
-5.13438e-05
6.41514e-05
0.000153114
-0.000612519
-2.74878e-05
0.000189911
-9.97205e-06
4.62954e-05
-3.63233e-05
-0.000228425
4.8492e-05
0.000182635
0.000236394
0.000268672
0.000696951
1.88305e-05
-2.88025e-05
5.4134e-05
-4.02977e-05
-1.38363e-05
-0.000310692
-0.000261206
0.00033383
-7.26238e-05
-0.000151515
0.000284064
6.18436e-05
-7.70957e-06
0.00111897
0.000195851
-0.00013884
-5.70111e-05
-6.87981e-05
-0.000522849
1.45225e-05
-0.000411226
-2.14672e-05
-4.67716e-05
0.000548892
-9.93956e-05
0.00118214
-1.33281e-05
0.000509663
-6.53549e-05
0.000183
-0.000155768
0.000281669
0.000105046
-9.28231e-05
-0.000631842
0.000619619
-0.000393727
-0.000152334
-0.00014167
-0.0006415
-7.6862e-05
-0.000640866
0.000185739
0.000579869
8.72082e-05
-0.000129818
0.00066052
-0.000326642
8.89562e-05
-0.000105717
-0.000103983
-0.000487915
-0.000450541
1.20383e-05
-1.13058e-06
-0.000664261
-2.33753e-05
0.00060641
0.000322577
-0.000325454
8.59281e-06
-3.917e-05
5.09773e-05
4.38846e-05
-0.000110829
0.000156108
-0.000389848
-9.20093e-05
-0.000120195
8.27101e-05
-5.08583e-05
-0.000320527
0.00036957
0.00013024
0.000125614
-9.10507e-05
0.000101045
6.50732e-05
-8.5623e-05
6.90418e-05
0.000282836
1.73692e-05
-6.38115e-05
0.000745995
-9.5815e-05
0.000419506
-0.000807327
8.34999e-06
5.98862e-05
-0.000460652
0.000444298
-0.000354383
-1.11429e-05
0.00058528
-0.000249297
0.000255993
6.61156e-05
-0.00099848
0.000170904
-2.2206e-05
-0.000309796
0.000278455
-0.000165561
5.23889e-05
0.000653142
-4.95559e-05
0.000118033
1.02159e-05
-2.82534e-05
0.000127132
-0.000109143
0.000116428
-4.59828e-05
4.87052e-05
-4.50127e-05
0.000315642
-7.01203e-05
0.000709934
0.000256206
-0.000757407
6.19604e-05
8.09994e-05
-6.89457e-05
-0.000698925
-0.000133288
-0.000175356
-0.000224672
0.000251013
0.000117845
-0.000144533
0.000304214
0.000125765
-2.93486e-06
8.31191e-05
-0.000131304
4.41569e-05
6.36432e-05
-0.00051521
-0.000123004
4.56813e-05
-6.02423e-05
0.000847551
0.000908557
9.36438e-05
0.00073543
-5.64553e-05
-3.67477e-05
-6.88727e-05
7.76519e-05
-8.77922e-06
-0.000172718
0.00017073
-0.000677843
0.000593993
0.000612234
8.46691e-05
-0.000135372
-0.000409567
3.15144e-05
0.000314986
4.0763e-05
9.018e-05
-0.00128541
-0.000716478
0.000925004
-0.000422872
0.00051267
2.53186e-05
-0.000620571
-0.000385053
0.000268098
-0.000201571
-0.000427261
-0.000386301
7.99587e-05
-7.02906e-06
1.40254e-05
0.000104382
-0.000110058
-0.000359433
0.000145936
-0.00029775
0.000108543
-0.000100137
1.30262e-05
0.000200071
4.45393e-05
7.5193e-06
8.20128e-05
8.96173e-05
-0.000217748
7.99594e-05
0.000118665
-0.00069158
-0.000229214
0.000567285
9.30583e-05
0.000672963
1.85277e-05
-0.000256561
0.00062037
-0.000572059
7.30779e-06
-3.74685e-05
-0.000245583
0.000146311
-0.00116931
9.08852e-05
-8.76544e-05
-0.000737603
0.000198807
0.00062645
-2.5435e-05
0.000882051
-0.000171444
0.000160278
0.00022236
-0.000566089
0.000112294
-0.000515614
0.00046762
-6.16283e-05
-0.000180155
-0.000298979
0.00039512
-4.86604e-05
-0.000435334
5.51078e-05
0.000606557
1.37283e-05
-1.71505e-05
-0.000172559
-8.02253e-05
6.37814e-05
0.000261197
0.000503381
-8.38746e-05
-0.000695144
-0.000112183
4.3046e-05
0.00033101
-0.000112119
0.000309096
0.000484169
4.63785e-05
-0.000189479
-0.000440165
0.000302431
4.11855e-05
9.90285e-05
5.57504e-05
-0.000340019
1.0042e-05
-5.86907e-06
5.1532e-05
6.23427e-06
0.000402031
-0.000546796
-8.44496e-05
0.000286158
-1.49592e-05
3.94745e-05
-0.000590001
-1.69903e-05
0.000581557
-2.72346e-05
0.000163059
-0.000942027
0.00104038
-6.18665e-05
0.000120218
2.26847e-05
-5.87942e-05
0.000131847
-0.000173274
-4.07722e-05
0.000200736
-4.67017e-07
5.26876e-05
2.0683e-05
2.03944e-05
-0.000294633
0.000196411
-0.000191642
0.000289865
-0.000146358
0.000134861
-4.97281e-05
2.90243e-06
-0.000398737
-0.000434949
-0.000510861
0.000651176
-0.000142555
-0.000253732
-0.000105237
0.000601104
6.05028e-05
-0.00055637
-0.000102566
-0.000150639
0.000147021
0.000106183
0.000164365
-2.0484e-05
-3.03496e-05
-0.000580024
0.000550844
-0.000166964
-0.000369837
0.00046983
-0.000542313
-0.000518621
0.000449421
0.000148876
-8.35716e-05
-0.00042288
8.32824e-05
-0.000202374
9.09212e-05
-7.54267e-05
0.000642536
-8.0301e-05
-0.000643845
-0.000547152
-0.000267404
0.000796837
0.000154741
-0.000422326
-1.00357e-05
6.65408e-05
-0.000347335
-0.000279063
0.00050492
-0.000360635
0.000201245
0.00081691
-0.000698412
-0.000118498
-0.000392742
0.00040405
-1.13086e-05
-0.000360973
0.00033291
-0.000317966
-1.49436e-05
0.000930179
0.000392888
-0.00036939
0.000376376
-6.98558e-06
0.000408811
3.9421e-05
0.000433695
-5.73196e-05
-0.000635537
0.00103796
0.000486437
0.000610928
-0.000579474
-3.14537e-05
0.000501113
0.000373499
0.000359172
1.43262e-05
0.000497936
3.17744e-06
0.000355169
4.0037e-06
0.000373073
-1.79044e-05
0.000394065
-2.96306e-05
0.000942577
0.000362773
2.67848e-05
-3.51703e-05
5.43765e-05
-0.000186445
4.58721e-05
-3.18375e-05
-9.09031e-05
0.000772508
-0.00013386
-5.27042e-05
0.000144206
0.000459136
5.51081e-06
0.000660481
8.99571e-05
0.000120704
-0.000151746
0.000215083
3.29422e-05
0.000125076
7.35328e-05
0.000610125
-0.0006046
-4.04824e-05
0.000385179
0.000358484
-0.00011294
-4.06172e-06
6.50294e-07
-6.89235e-05
-4.27755e-05
-0.000282963
0.000401584
0.00080953
-0.000341354
0.000184818
-0.000149182
-4.80131e-05
-3.53271e-05
-0.000127208
0.000899331
-0.00117712
9.60874e-05
0.000237175
-0.000155504
0.000923126
3.84979e-05
0.000217179
-0.0011788
-1.64037e-05
-0.000102022
-6.40093e-05
-0.000113896
-4.21558e-05
9.76814e-05
0.00028967
-0.000517487
6.77122e-05
-7.47305e-05
6.74128e-05
-5.33958e-05
0.000203397
0.000118057
-0.000247799
9.31308e-05
-2.05651e-05
-6.39419e-05
4.77522e-05
3.33115e-05
-0.000439616
-9.33392e-05
0.000393885
-0.00036014
0.000395115
-0.000260427
-8.49032e-05
-0.000204868
2.38627e-05
3.43552e-05
0.000166338
-5.84374e-05
-2.67056e-05
-0.000386931
0.000392288
2.37026e-05
-0.000117082
1.76474e-05
8.03129e-05
-8.43746e-05
0.00026961
-0.000617979
8.9219e-06
-0.0005502
9.94311e-05
0.000320638
-0.000458555
-6.54054e-05
-2.04173e-06
-5.89318e-06
0.000210252
-0.000189095
-7.39673e-05
-0.000541469
5.92209e-05
-0.000163319
0.000622298
4.00893e-05
5.55009e-05
-0.000149384
0.000642345
-0.000287899
0.000185875
1.19883e-06
5.8291e-05
-4.62112e-06
0.000104134
4.21104e-05
-0.000252838
1.22193e-05
-8.93684e-05
0.000134445
-8.8981e-05
-8.28498e-05
-0.000249369
8.14621e-05
-7.65567e-05
9.00244e-05
-0.000569525
-0.000122753
0.000221069
1.80737e-05
0.000160834
-0.000205039
-0.00017764
0.000815582
1.07838e-05
9.47972e-05
0.000175991
-4.74851e-05
-4.33178e-05
-0.000191503
0.000448962
-0.000343075
-0.000114856
0.000410644
-0.000195068
5.37933e-05
0.000121366
-8.26308e-05
-0.000115102
0.000456051
-0.000494637
0.000226819