# vtk DataFile Version 2.0
track0
ASCII
DATASET POLYDATA
POINTS 95 double
2.01419e-18 0.210526 1e-06
1.61136e-18 0.210526 1e-06
1.20852e-18 0.210526 1e-06
8.05678e-19 0.210526 1e-06
4.02839e-19 0.210526 1e-06
0 0.210526 1e-06
4.34675e-19 0.631579 1e-06
0.000265459 0.632535 1e-06
0.000580638 0.633476 1e-06
0.000896044 0.634417 1e-06
0.00121152 0.635357 1e-06
0.00154729 0.636358 1e-06
0.00216898 0.638211 1e-06
0.00316537 0.639893 1e-06
0.00429434 0.641488 1e-06
0.00542335 0.643084 1e-06
0.00728819 0.645719 1e-06
0.00759326 0.64615 1e-06
0.00790038 0.64658 1e-06
0.00820957 0.647008 1e-06
0.00852082 0.647434 1e-06
0.00881284 0.64783 1e-06
0.0099675 0.649382 1e-06
0.0112706 0.650811 1e-06
0.012776 0.652025 1e-06
0.0144748 0.652949 1e-06
0.0185476 0.654849 1e-06
0.0191469 0.655068 1e-06
0.0197584 0.655251 1e-06
0.0203739 0.655419 1e-06
0.0209914 0.65558 1e-06
0.0226377 0.655987 1e-06
0.0238559 0.656242 1e-06
0.0250809 0.656461 1e-06
0.0263122 0.656642 1e-06
0.0275489 0.656782 1e-06
0.028704 0.65687 1e-06
0.0309319 0.656962 1e-06
0.0331366 0.656628 1e-06
0.033806 0.656279 1e-06
0.0349385 0.655484 1e-06
0.0358775 0.654469 1e-06
0.0366606 0.653328 1e-06
0.0373408 0.652124 1e-06
0.0392219 0.648333 1e-06
0.0394281 0.647808 1e-06
0.0396368 0.647284 1e-06
0.0398476 0.646761 1e-06
0.0400603 0.646238 1e-06
0.0402783 0.645708 1e-06
0.0411595 0.643584 1e-06
0.0418887 0.641403 1e-06
0.0424998 0.639187 1e-06
0.0430188 0.636947 1e-06
0.0434371 0.635117 1e-06
0.0439671 0.632937 1e-06
0.0443989 0.630735 1e-06
0.0447308 0.628516 1e-06
0.0448903 0.626278 1e-06
0.0448783 0.624286 1e-06
0.0447213 0.622075 1e-06
0.0443909 0.619884 1e-06
0.0438774 0.617728 1e-06
0.043253 0.615602 1e-06
0.0424963 0.613392 1e-06
0.0418278 0.61167 1e-06
0.041141 0.609956 1e-06
0.0404375 0.608248 1e-06
0.0397182 0.606547 1e-06
0.0391689 0.605279 1e-06
0.0389359 0.604749 1e-06
0.0386953 0.604223 1e-06
0.038447 0.603701 1e-06
0.0381906 0.603182 1e-06
0.037917 0.60265 1e-06
0.0368421 0.600649 1e-06
0.0355631 0.598771 1e-06
0.0340206 0.597103 1e-06
0.0321607 0.595798 1e-06
0.0275251 0.594401 1e-06
0.0255816 0.595097 1e-06
0.0237023 0.595951 1e-06
0.0218821 0.596925 1e-06
0.0201163 0.597994 1e-06
0.0178929 0.599478 1e-06
0.0160848 0.60081 1e-06
0.0142031 0.602036 1e-06
0.0122577 0.603159 1e-06
0.0102279 0.60412 1e-06
0.00881295 0.604596 1e-06
0.00705036 0.605009 1e-06
0.00531234 0.605515 1e-06
0.00360086 0.606106 1e-06
0.00188935 0.606696 1e-06
0 0.607346 1e-06
LINES 2 97
6 0 1 2 3 4 5
89 6 7 8 9 10 11 12 13 14 15 16 17 18 19 20 21 22 23 24 25 26 27 28 29 30 31 32 33 34 35 36 37 38 39 40 41 42 43 44 45 46 47 48 49 50 51 52 53 54 55 56 57 58 59 60 61 62 63 64 65 66 67 68 69 70 71 72 73 74 75 76 77 78 79 80 81 82 83 84 85 86 87 88 89 90 91 92 93 94
POINT_DATA 95
 FIELD attributes 1
p 1 95 float
2.11291e+19 2.11291e+19 2.11291e+19 2.11291e+19 2.11291e+19 2.11291e+19
9.26454e+17 7.84585e+17 6.36337e+17 4.8806e+17 3.39774e+17 1.81959e+17 3.77474e+17 4.76224e+17 5.22376e+17 5.6852e+17 6.44691e+17 6.60063e+17 6.75033e+17 6.89693e+17 7.0404e+17 7.17021e+17 6.54677e+17 5.53378e+17 4.64762e+17 5.37729e+17 6.46874e+17 6.47436e+17 7.02297e+17 7.70867e+17 8.37137e+17 1.00676e+18 1.06706e+18 1.12537e+18 1.18148e+18 1.23519e+18 1.28269e+18 1.35827e+18 1.4556e+18 1.48094e+18 1.3293e+18 1.11287e+18 8.58044e+17 5.82442e+17 -2.96512e+17 -4.14243e+17 -5.31678e+17 -6.48746e+17 -7.65479e+17 -8.83925e+17 -1.59299e+18 -2.33338e+18 -3.09502e+18 -3.52448e+18 -3.68402e+18 -3.55055e+18 -3.4426e+18 -3.5942e+18 -3.8354e+18 -4.10877e+18 -3.90797e+18 -3.77308e+18 -3.50939e+18 -3.27675e+18 -3.06623e+18 -2.896e+18 -2.73254e+18 -2.57534e+18 -2.42401e+18 -2.31488e+18 -2.2245e+18 -2.1353e+18 -2.04743e+18 -1.96095e+18 -1.87303e+18 -1.87283e+18 -1.90166e+18 -1.97065e+18 -2.07903e+18 -2.45993e+18 -2.53384e+18 -2.61389e+18 -2.67848e+18 -2.73006e+18 -2.78273e+18 -1.98548e+18 -1.1737e+18 -4.74786e+17 1.03655e+17 4.53825e+17 8.28044e+17 1.26578e+18 1.81826e+18 2.3707e+18 2.98019e+18
