/*--------------------------------*- C++ -*----------------------------------*\
| =========                 |                                                 |
| \\      /  F ield         | OpenFOAM: The Open Source CFD Toolbox           |
|  \\    /   O peration     | Version:  v1912                                 |
|   \\  /    A nd           | Website:  www.openfoam.com                      |
|    \\/     M anipulation  |                                                 |
\*---------------------------------------------------------------------------*/
FoamFile
{
    version     2.0;
    format      ascii;
    class       surfaceScalarField;
    location    "0.56";
    object      phi;
}
// * * * * * * * * * * * * * * * * * * * * * * * * * * * * * * * * * * * * * //

dimensions      [0 3 -1 0 0 0 0];
oriented        oriented;


internalField   nonuniform List<scalar> 
2708
(
-0.00050614
2.51098e-05
0.000187566
0.000293464
0.000204234
0.000134931
-8.60371e-05
-0.000253129
-0.000234356
-3.0815e-05
0.000181861
8.33097e-05
-0.000141827
0.000151559
-2.98201e-05
2.00882e-05
-0.000519323
-0.000196913
0.000376775
0.000339461
0.000857541
-0.00105962
0.000485421
-0.000283344
0.000125912
-0.000104014
5.39922e-05
-7.589e-05
-8.23521e-05
3.97198e-05
-2.58722e-05
6.85044e-05
-0.000632042
0.000627233
0.000744168
-0.000739359
5.19698e-05
0.000203767
-0.000129824
0.000995805
-0.00102843
0.000278175
-0.00024555
0.000230348
-0.000338507
0.000650099
-0.00054194
-0.00020345
0.000295753
-0.000196786
0.000104483
-0.000126874
-0.000442627
0.000390402
0.000179099
0.000569889
-0.000707073
-0.000207144
0.000344329
0.000179691
2.40717e-05
-0.000151793
-0.000877475
0.000678519
-0.000204607
0.000403563
-0.000128891
-3.13459e-05
0.000100217
6.00198e-05
0.0003757
0.000175182
-0.000503523
-4.73581e-05
-0.000101529
2.8109e-05
0.000107162
-3.37426e-05
-0.000383451
0.000851577
0.000527679
0.000117993
-4.04525e-05
-0.000204414
-0.000780753
-0.000402549
0.000649612
0.000533691
-0.000274463
-0.00125912
0.00129754
0.000236047
-0.000805413
-0.000607383
-2.37664e-05
-6.0275e-05
0.000210667
-0.000126626
-0.00100476
-0.000156501
0.000132826
-0.000315439
0.000257352
0.000328853
-0.000270766
4.633e-05
-0.000461489
0.000415159
-1.59889e-05
-0.000609406
0.000625394
0.000734343
6.06096e-05
-6.15768e-05
-0.000733375
-0.000602024
4.49722e-05
-2.22395e-05
0.000579292
0.000704921
5.63278e-05
-3.46738e-05
-0.000726575
-0.000252466
0.00018664
7.89028e-05
-1.3077e-05
0.00074459
0.000316504
-0.000770392
-0.000290703
-5.65552e-05
0.000173335
-0.000127659
1.08783e-05
0.000245095
0.000715299
-0.00014458
-0.000190072
0.00012246
0.000140654
-7.30416e-05
-2.72551e-05
4.42699e-05
2.09655e-05
-3.79803e-05
8.53754e-05
0.000553679
-0.000621999
-1.70555e-05
-0.000524953
0.000486918
0.000830743
0.000916894
-9.69416e-05
-0.000130275
-8.01342e-05
-1.80474e-05
5.68265e-05
4.13551e-05
-0.000536936
0.000803494
-0.000634027
0.000367469
0.000232914
-7.10964e-05
-0.000223438
6.16204e-05
0.000177244
-0.000103395
-7.75567e-05
3.70804e-06
-0.000955528
0.000107007
-0.000156234
4.35838e-05
-5.94507e-05
-8.81476e-05
7.80976e-05
0.000156165
-9.1492e-05
-0.00014277
2.12024e-05
-0.000378392
0.000427074
-6.98844e-05
7.44867e-05
-7.11392e-05
-5.47272e-05
5.13797e-05
0.000466602
-0.000271738
-0.000221908
2.70446e-05
5.71552e-06
0.000189176
-0.000140055
-5.48364e-05
0.000127023
6.66112e-05
-0.000171815
-2.18192e-05
-5.50843e-05
0.00016823
-3.56144e-05
-7.75311e-05
0.000122333
-0.000203202
-8.4105e-05
0.000164974
-0.000265355
-0.000344661
0.000391606
0.000218411
0.000894792
-0.00020983
-0.000684961
0.000541621
-6.843e-05
-0.000473191
0.000254449
0.000112859
-1.14455e-05
-0.000101413
0.000130876
-0.000177918
4.70415e-05
-0.00013672
-5.33519e-05
-1.69821e-05
-1.0273e-05
6.80427e-05
3.4497e-05
0.000502157
-6.10436e-05
0.000138757
-2.42684e-05
-5.17519e-05
0.000142545
-9.07928e-05
-0.000220329
0.000288797
-6.84685e-05
-9.66684e-05
0.000306881
-0.000210213
-0.000270837
1.83715e-05
0.000100297
-4.95839e-05
3.74106e-05
0.000149229
-0.000348356
-9.42716e-05
0.000337715
-0.000104801
0.000237177
3.90298e-05
-0.000276207
0.000160261
-3.95371e-05
-0.000120723
0.000166371
3.73956e-05
-0.000226993
9.81022e-05
-0.000745037
-0.000132439
-7.10006e-05
-1.83192e-06
7.28325e-05
-0.000179719
8.97294e-05
0.000463791
-0.000373801
-0.000222141
0.000169203
0.000230182
-7.37099e-05
5.40421e-05
0.00125216
-0.00123249
3.8871e-06
6.71224e-05
-1.69775e-06
-6.93117e-05
-0.000193921
1.93972e-06
-6.64419e-06
0.000198625
0.000249579
-0.000285149
2.2806e-05
1.27644e-05
2.33124e-05
2.96911e-05
-0.00106778
0.00101477
-0.000147805
5.84425e-05
-0.000746231
0.000835594
1.76575e-05
0.000252691
-0.000148016
0.000234983
-0.000239973
2.26468e-05
1.98219e-06
-5.11135e-05
0.000171591
-2.22186e-05
7.27063e-05
-0.000169697
0.000119209
3.30527e-05
1.23841e-05
8.15861e-05
4.61469e-05
-0.000557365
0.000511218
-0.000131676
-0.000310291
-0.00034509
0.000415591
0.00023979
-8.5268e-05
-2.53631e-05
3.04969e-05
-0.000100285
9.78964e-05
2.38903e-06
0.0003206
-0.000192638
-0.000183047
4.81105e-05
-2.05196e-05
-0.000552403
3.19428e-05
-6.08457e-05
0.000581306
-0.000298619
-7.38577e-05
7.89059e-05
0.00029357
0.000123013
9.71491e-05
-5.99021e-05
-0.000614033
-6.73435e-06
0.000624112
-3.34442e-06
-2.13311e-06
0.000579569
-0.000563619
-1.38167e-05
-0.000118773
0.00072252
-0.000773525
0.000169778
0.0006412
-0.000357715
-0.000686033
0.000713094
-0.000370705
0.000300851
-5.78485e-05
-0.000309001
0.000230398
0.000374356
-6.28439e-05
9.0523e-05
-0.000122534
9.48551e-05
-0.000626363
0.000567705
0.000545576
0.000147283
0.000123562
-0.000181607
0.000119565
-4.15296e-05
0.000156383
-0.000152496
-5.84409e-06
-6.09358e-05
-0.000159393
-0.000127966
-0.000579108
-4.28881e-05
4.86037e-05
-5.95583e-05
-3.33289e-05
0.00034021
0.000141561
2.481e-05
2.82153e-06
-0.00014293
-0.000262639
0.000198424
6.14666e-05
-0.000258265
0.000165984
5.7885e-06
-0.000106213
-1.30359e-06
0.000101728
0.000264825
0.000413695
3.22666e-05
-6.36126e-05
0.000144317
-4.55792e-05
-9.29489e-05
9.70261e-05
-0.000366336
0.00064501
-6.66435e-05
9.73551e-05
-0.00013224
-3.88303e-05
0.000113988
9.51827e-05
-6.16023e-05
6.08603e-05
-0.00013581
0.000136552
0.000131928
-1.72082e-05
-0.000126166
0.00120819
0.000139193
-0.00116862
-0.000178771
0.000142636
3.99917e-06
4.02707e-05
0.00069022
3.03327e-05
9.06188e-05
-0.000811172
-0.000190827
0.000408608
0.000431831
0.000125753
0.000625315
0.000146348
-0.000242531
0.000302616
0.000260515
0.000194868
0.000183449
8.24188e-05
-0.000122848
-8.56737e-05
0.000609713
2.42874e-05
-0.000548327
-5.73901e-06
0.000162122
-0.000517469
-1.96235e-05
-5.20376e-05
0.00058913
-0.00023306
0.000191755
-9.80801e-06
-0.00124011
-0.000109274
0.0011886
0.000160776
0.000521711
0.000249101
-0.000215127
-0.000555685
-0.000180518
9.31653e-05
-0.000572106
0.000659458
0.00012535
-0.000117824
-1.44808e-05
6.95516e-06
0.00109803
-0.000933678
0.000259065
-0.000423418
-0.000251168
-0.00023181
0.000286193
-0.000171036
0.000142581
0.000134256
-0.000105801
1.44243e-06
0.000166242
-0.000163321
-4.3626e-06
-6.52574e-05
2.23693e-05
-0.000800323
0.000327834
-3.36504e-05
8.59295e-05
9.44066e-05
0.000187113
-0.000162368
0.000325528
-0.000286101
-0.000216927
0.000177499
-0.000174652
-0.000957648
8.29482e-05
0.00104935
-0.00026146
-0.000364
0.000382929
1.97527e-05
0.000675207
-1.88673e-05
-0.000676093
0.00025166
-0.00151637
6.01659e-05
0.00120455
0.000243143
-0.000354343
0.000246131
0.00031715
-0.0013056
-2.93085e-05
0.000140671
3.29541e-05
0.00107465
-0.00075404
5.1684e-05
0.00043751
-2.25918e-05
0.000584697
-0.000103876
-0.00043926
-4.15608e-05
-6.17818e-05
2.57089e-05
6.97433e-05
0.000265172
-0.000290823
8.70042e-05
-6.13532e-05
0.00113188
-0.00109996
-0.000306379
0.000593316
-8.3255e-05
0.000564585
-0.00041376
0.000411627
-0.000358601
0.000239827
0.000264364
0.000500489
-0.000806743
0.000328571
-9.49768e-05
0.00057315
-2.20194e-05
-6.1344e-05
-0.00114708
0.00123044
0.000676826
-0.000728558
0.000177485
0.000655724
-0.000557932
2.11557e-06
-9.99078e-05
0.000571766
-0.000785486
0.000299096
0.000651135
-6.57179e-05
0.000137103
-9.36932e-07
0.000112005
0.00082437
-0.000687274
-0.000267737
-0.000364731
0.000322177
0.000717422
-0.000672485
-0.000184323
0.000139387
0.000122638
-3.73182e-05
5.72247e-05
-0.000233704
0.000149024
0.000347073
-0.000262393
0.000170116
-0.000231047
0.000220156
-0.000159226
7.94931e-05
-0.000171668
-7.88611e-05
-0.000690095
-0.000409817
0.000835459
0.000264453
-1.07093e-05
-0.000181211
0.000187731
4.18931e-06
-0.000102541
0.000274022
-0.000304257
0.000132777
1.26827e-05
0.000718701
-0.000715228
-1.61563e-05
0.00017387
-0.000579904
0.000568733
-0.000162699
-0.000146923
-1.93051e-06
0.000107691
4.11621e-05
0.00107059
-0.00110541
-3.35837e-05
6.841e-05
-0.000214605
6.01025e-06
0.000271424
-1.36823e-05
-0.000257741
1.03108e-05
-7.5432e-05
0.000207702
0.000595962
4.09107e-05
-5.73042e-05
-0.000539334
-6.17029e-05
-1.29959e-05
-8.41382e-05
-0.00117536
0.00118578
-8.80922e-05
-5.30358e-05
4.08425e-05
0.000632838
-0.000191873
-0.000526639
-2.35695e-05
0.000723661
1.73302e-05
0.000318381
-5.29433e-05
6.87288e-05
-0.000334167
0.000239421
-0.000622021
-0.000307494
0.000415789
0.000316651
-0.000601632
-0.000130807
-5.469e-05
0.000242217
7.76455e-05
0.000313106
-0.000306102
0.000509119
-0.000516123
2.23938e-05
-0.000171154
-2.26886e-05
0.000171449
-0.000610576
0.000508896
-0.00104637
0.0010633
-0.000101068
-0.000651001
0.000773468
-0.000532285
-0.00021388
0.000194319
-0.000416043
4.18314e-05
0.000690862
-0.000535849
6.08098e-05
0.000714459
-6.78394e-05
-4.2525e-05
0.00013491
-2.45456e-05
-1.46192e-05
1.42021e-05
0.00073476
3.30911e-06
-0.000621809
0.000631182
0.000362925
-0.000127029
0.00033587
-9.41991e-06
-0.000619048
2.6444e-05
-0.000747123
-0.000270616
0.000846388
0.000171351
0.000605178
0.000117617
-0.000126832
6.3687e-06
-0.000364541
-0.000181162
-0.000148288
0.000453997
0.000371116
-3.00014e-05
2.5391e-05
0.000231224
-0.000226613
9.64881e-05
-8.22378e-05
-4.35589e-05
-0.000139023
0.0003986
0.000146695
-0.000406271
8.73174e-05
-6.31023e-05
-0.000365566
0.000549364
-0.000177429
-0.000131267
-0.000149233
-0.00014422
0.000104097
0.000189357
-0.000401536
0.000208537
-0.000278036
0.000904958
0.000271079
-0.000513546
-0.000359165
-0.000118989
-0.00012085
3.84671e-05
-6.0547e-05
-0.000385297
0.00128718
-0.000878575
0.00013232
-5.52762e-06
-0.000172546
-5.86017e-05
7.66685e-05
4.64711e-05
-0.00105272
6.65079e-05
0.000835079
0.000151135
0.000137066
4.91648e-06
-9.6628e-06
-0.000170769
0.00108353
0.000150545
-0.000565086
0.00074371
-0.000496713
0.000318089
2.1222e-05
0.000244684
0.000156969
-0.000104938
-0.000296715
0.000114394
-0.000422574
-6.54051e-05
9.29633e-05
-1.79865e-05
0.000147948
6.02565e-06
-0.000345523
-0.000682062
-0.00059096
0.000333423
-0.000480469
-0.000490252
0.000637298
-5.18837e-05
0.000161943
0.000541076
0.000113089
-0.00086008
-6.28185e-05
-0.000140383
0.000294705
0.000155668
0.000574712
0.000186908
-0.000156441
-5.75856e-05
-0.000200266
-5.93383e-06
0.000149088
-0.000173155
0.00129615
-0.00037277
-4.29002e-05
0.000623131
0.00158816
-0.000228622
-6.33876e-05
-0.000739866
-9.00257e-05
-2.16503e-05
0.000851542
-0.00038524
0.000388549
-0.000452538
0.000570154
-0.000368773
0.000421847
-0.000314535
-0.000255245
0.000251568
-0.000473611
0.000477288
-4.60088e-06
0.000481628
0.000336708
-0.000186183
-3.82222e-05
-0.000112303
-2.02951e-05
-0.000117191
5.84721e-05
7.90144e-05
-0.000291686
0.000519034
-0.000407067
-0.000894846
0.000164363
-0.000322239
-0.000441181
6.5954e-05
-8.11194e-05
0.00121192
-0.00119676
8.28369e-05
-6.52707e-05
-0.000270695
-2.42843e-05
-0.000527529
0.00045674
-0.000616389
0.000687178
-5.24846e-05
-0.000429133
-1.06936e-05
-0.000322132
3.41757e-06
0.000329408
2.01632e-05
-0.000863506
3.94417e-05
-0.000586292
0.000278093
-0.000636694
7.4346e-05
-0.000488106
-1.7145e-05
-0.000154978
8.40305e-05
-0.000380925
-4.31528e-06
0.000260283
0.000315012
-0.000272679
-0.000137605
0.000113424
2.41806e-05
0.000147055
-2.01577e-05
-0.000184483
-0.00024971
0.000337762
6.13565e-05
-0.000149409
-0.000245882
-0.000564617
0.000132893
0.000677606
0.000141175
1.82854e-05
-0.000486633
-0.000618025
0.000423018
0.000374455
0.000787534
-0.000203279
0.000181542
-0.000761745
0.00082442
4.93303e-05
6.76977e-06
0.000134791
2.83136e-06
-0.000174109
0.000122226
0.000725841
-0.000666152
0.000567545
-0.000584244
0.000167028
-0.000420485
-0.000532344
0.000280343
0.00010494
6.07766e-05
-0.000146282
0.000154006
-6.85003e-05
-0.000688762
0.000571442
0.000784808
-0.000667488
0.000205241
-0.000255426
-0.000436447
9.45556e-05
0.000145571
-3.50495e-05
3.41478e-05
-9.30199e-07
0.000299098
-3.1409e-05
-0.000278382
-0.000623173
0.000325894
0.000479341
-0.000182062
0.000136477
4.53839e-05
6.28469e-05
0.000753664
-0.000619046
-0.000676361
0.000541742
0.000241725
-0.000264797
4.30815e-05
-2.00093e-05
-0.000206983
-5.06704e-05
8.51074e-05
0.000387659
-0.000449362
9.35932e-05
-0.000113495
-7.08912e-05
0.000752783
-0.000603999
-0.000676313
-3.02439e-05
5.81555e-05
5.29686e-05
-8.08802e-05
0.000108156
-2.96543e-05
-0.000229589
-0.000122662
-0.000665461
0.000534749
0.00055555
-0.000424838
-0.000288072
-0.000639569
-0.00076689
0.000448412
-0.000304695
-1.45912e-05
-9.75094e-05
-0.000230685
9.86056e-05
-0.00013651
0.000284721
-0.00079468
0.000646469
-0.000310351
0.000989449
-0.000111393
-0.00060584
0.000490096
0.000841584
-0.000826391
0.000548328
0.000732061
-0.000148766
-0.000116771
0.000783194
-0.000539474
0.00134444
-0.000158459
-0.000739796
-3.706e-05
0.000317965
2.61858e-05
-0.000307091
6.39132e-05
-1.18219e-05
0.000882657
-0.000934748
-8.52465e-05
0.000238987
2.5615e-05
-0.000179355
0.000392117
-3.91869e-05
-5.3833e-05
0.000544815
0.000187969
-0.000539784
-0.000193001
-0.0003035
0.000324485
-0.000106232
0.000240797
-0.000189282
-6.08453e-05
9.33038e-06
0.000396324
-4.83383e-05
0.000852615
-0.0012006
0.000149669
-0.000217509
0.000126745
-0.00140411
0.00125535
2.30254e-05
2.61592e-06
9.23514e-05
2.35223e-05
-0.000160871
0.000117052
-0.000711543
0.00108965
0.00021181
-0.000589915
-0.000655351
0.000602721
-0.000598461
0.000456374
9.95584e-05
-0.000605346
0.000552117
-3.81629e-05
-0.000725616
0.00074779
0.000899104
-0.000918502
-0.000111237
-0.000157654
7.19779e-05
-0.000616375
0.00010542
0.00116728
-0.000656322
-0.000378283
-0.000115128
0.000354388
0.0008683
0.000285512
0.000832706
-0.000825383
-0.000108391
0.000194371
-0.000105744
4.16358e-05
-4.17451e-05
0.000105853
0.000101245
-7.11285e-05
2.36008e-05
-5.37177e-05
-0.000209427
0.000871364
0.000322299
-0.000249142
-0.000324326
-0.00070929
0.000535717
-3.773e-05
0.000160292
5.3921e-05
-0.000176483
0.000137301
-0.000987883
-0.000713956
8.80562e-05
0.000715051
-9.62427e-05
-0.000706865
0.000475879
0.00018796
-0.000189971
-0.000473868
0.000680017
3.01652e-06
-0.000456866
-0.000226167
0.00087606
-0.000997371
-6.30125e-05
-0.0004108
-0.000139321
0.000171837
-5.67204e-05
-7.10967e-05
-0.00042112
5.98677e-05
3.60633e-05
0.000325189
-0.000556795
7.52526e-05
6.04226e-05
0.000148483
3.70909e-05
-4.43988e-05
0.000857598
-0.00040196
-0.00016452
-0.000571607
0.00041111
-0.000195437
0.000355934
-0.000327813
-3.03478e-05
-0.000213446
-0.00065765
0.000807315
0.000243124
-0.000762657
-0.000254049
0.000773581
0.000651362
-0.000649359
0.000185966
8.91056e-05
0.000845703
-0.000636422
0.000517418
2.60804e-05
0.000746146
6.28523e-05
-5.23897e-05
3.04966e-05
7.63471e-05
-5.44539e-05
0.000451796
-0.000135533
-4.19168e-06
-0.000312071
-0.000870155
5.36617e-05
-3.86459e-05
2.18292e-05
1.68167e-05
-8.10152e-05
4.65384e-05
0.000479976
-7.19602e-05
4.37801e-05
0.000734344
-0.000454383
4.59328e-05
0.000464018
-5.03292e-05
6.62875e-05
-0.000159338
3.49471e-05
-3.81142e-05
0.000162505
1.62911e-05
0.000751782
9.44834e-05
-3.07779e-05
-2.95577e-05
0.000540115
0.000113185
-0.000519018
-0.000134281
-7.63759e-05
0.000251309
-0.00104385
0.000449789
-5.40009e-05
6.82297e-05
-9.33505e-05
0.000554376
0.000179338
-0.000170526
-0.000158226
3.34332e-05
0.000324477
0.000165305
-0.000164974
-6.89745e-05
7.81383e-05
0.000440625
8.92506e-05
-8.06718e-05
-0.000119816
3.49063e-05
-7.1076e-05
6.42786e-05
0.00023323
0.000331669
-0.000389717
-0.000144343
-5.07201e-05
0.000132219
-0.000213379
-0.00120199
0.000156243
-0.000127784
0.000279831
1.93666e-05
-0.000171413
0.00028587
-0.000248923
0.00014024
-0.000177187
0.000394484
-0.000236398
0.000134482
-5.28073e-05
0.000233137
0.000140648
0.000240771
1.30653e-05
-0.000339493
0.000342383
-0.000232664
0.000229774
8.0986e-05
-0.000127302
0.000357679
-0.000235543
5.16538e-06
0.000319369
-0.000104289
1.26199e-05
-8.12143e-05
0.000426274
4.63394e-05
-0.000349715
0.000186953
0.000116422
0.00109817
0.000530614
-0.000292892
-0.0013359
4.16881e-05
0.000329136
2.08224e-05
0.000259852
0.000136556
-1.64573e-05
1.10956e-05
-5.53476e-05
-4.04143e-05
2.82998e-05
6.74621e-05
0.000109512
-1.08534e-05
0.000237732
-0.000213216
-0.000271982
0.000247466
-3.83642e-05
2.74099e-05
7.48647e-05
-6.39104e-05
-6.51609e-05
-8.9018e-05
0.000115815
-0.000180198
0.000161137
-9.76068e-05
0.000116668
-0.000100572
0.000105807
2.7174e-05
-3.24089e-05
9.00744e-06
1.59874e-05
2.12033e-05
2.7768e-05
0.000121623
-2.55227e-05
3.34586e-05
1.50896e-05
-0.000928331
1.01388e-05
0.000862555
5.56376e-05
-7.005e-05
6.80623e-05
1.09951e-05
-0.000144114
-0.000212509
0.000176568
4.41957e-05
-4.23085e-05
-0.000153213
7.07306e-05
-8.41003e-05
0.000166583
-0.00100011
0.000131941
1.72522e-05
-0.000121049
0.000131565
-2.34244e-05
-0.000199948
-6.411e-05
4.57692e-05
-0.000134873
-0.000165668
-0.000110027
-0.00110675
0.000221036
-9.56848e-05
-0.000148624
-0.000283386
-0.000684168
9.50121e-05
-0.000116231
3.17149e-06
8.06994e-05
-0.000278194
-0.000141922
4.02718e-05
-1.98872e-05
-6.81412e-05
4.77565e-05
-0.00132736
0.000285491
0.000860269
-0.000686063
0.000923968
0.000162962
0.000114469
-0.000138522
0.000203768
-0.000126848
2.46539e-05
-5.39725e-05
0.000105736
4.767e-05
8.88084e-06
1.14709e-06
1.97064e-05
3.32472e-05
-0.000907966
0.000440874
-0.000104491
0.000139667
-9.17313e-05
3.80708e-05
-1.59754e-05
4.68887e-05
0.000107568
-0.000145576
-0.000176569
-0.000141009
-3.2359e-05
0.000198679
-0.000253049
-4.82756e-05
1.73872e-05
-0.000113113
0.000144002
-0.00071586
0.000124283
-5.48366e-05
-0.000173938
0.000132631
-8.37159e-05
3.11832e-05
0.000124923
-0.000156222
1.15691e-07
0.000151495
-0.000232019
6.67482e-05
1.37766e-05
9.9508e-05
-7.55633e-05
-0.000143567
7.53855e-05
-8.70977e-05
-0.00116998
0.000161231
8.30596e-05
8.52977e-05
-4.40741e-05
0.00016234
0.000346758
-0.000274115
-2.9175e-05
-0.000122776
0.000112473
3.94779e-05
-0.000134358
0.000205766
-0.000131683
0.000387183
0.000144944
-2.23251e-05
-6.84991e-06
-0.000321391
-0.000843391
-5.20094e-06
-0.00122901
-0.000492182
0.000115882
-1.01838e-05
5.56599e-05
0.000167067
6.71044e-05
-3.41965e-05
0.000225529
0.000120687
-0.000183875
9.60957e-05
-0.000199271
0.000206318
6.11056e-05
-3.41937e-05
-9.22088e-06
2.97091e-05
5.51124e-05
-7.74375e-05
-0.00013933
-7.18821e-06
5.17582e-05
-0.000119421
0.0001442
7.68187e-05
-0.00015391
0.000210994
-0.000767209
-0.000274189
0.000404104
-0.00023331
0.000153261
-0.000419942
0.000287756
6.4953e-05
0.000163023
0.000200981
0.000148985
-8.5389e-05
9.02405e-05
1.34339e-05
-0.0014077
-0.000202895
0.000419556
7.09373e-06
-0.000127093
9.08778e-06
1.27414e-05
-0.000249345
5.11821e-05
-0.000157502
-0.000104638
0.000210957
0.000187937
-8.44651e-05
-3.88912e-06
-1.63107e-05
-0.00013371
0.000393695
-0.000423534
-0.000464218
0.000494057
4.47521e-05
0.000133768
4.33407e-05
0.000798605
-0.000734691
0.000141038
0.000162637
-0.00015469
-0.000151763
0.000225327
-0.000371149
0.000475912
-0.000240297
1.12883e-05
-1.50254e-05
3.73709e-06
3.43435e-05
0.000755096
-0.000700334
2.05479e-05
0.000183895
-0.000583801
0.000510617
3.71124e-05
-0.000344003
0.000315879
-0.000857274
0.000972094
-0.00011482
0.000229703
-0.000189742
-0.000516675
-2.56614e-05
-0.000169784
0.00071212
-0.000377053
0.000353608
-0.000307586
0.000331031
4.43836e-06
7.73419e-05
0.000794441
0.000391857
-0.000469909
0.000516191
-0.000438139
-0.000147272
7.27285e-05
0.000121585
7.1699e-05
-0.000219809
-8.24211e-05
1.94861e-06
1.69204e-05
9.99906e-05
-5.86691e-05
-0.000815497
0.000661683
-0.000229638
-9.22835e-05
-0.000411772
-0.00132825
-0.000308078
0.000797914
0.000121062
-6.19952e-05
-0.00024479
0.000269726
-0.000504053
0.000666868
-6.984e-05
-0.000201671
0.000209516
0.000241775
-1.45753e-05
2.08139e-05
-0.000171356
0.000167462
0.000218123
-0.000617609
3.24667e-06
0.000396239
-0.000396777
0.000361569
-3.37667e-05
-0.000928578
0.000463442
0.000749857
-6.94197e-05
0.000307574
0.000161213
2.64017e-05
-8.71952e-05
5.71412e-05
3.0054e-05
0.000840669
-9.94439e-05
0.000115064
4.93325e-05
6.21649e-05
0.000603937
-0.000666102
-2.74839e-05
0.000265094
-0.000341898
0.000108488
-0.000222929
-0.000414047
-3.67314e-05
0.000243291
-0.000238833
-0.000933037
-0.000557355
0.000823832
-0.000540667
0.000642811
8.81246e-05
-0.000617751
0.000158757
0.000589425
-0.000601757
0.00079678
-0.000260412
7.52359e-05
-7.75237e-05
-0.000157035
-8.24156e-05
0.000191405
0.000178766
0.000214976
-0.000221646
0.000600176
-0.000565833
-0.000364931
-0.000533007
0.000211375
0.000390361
-0.00053504
-0.000198049
0.000219543
-0.000375994
0.000303376
-0.000306723
0.000379341
-0.000147377
0.000133976
0.000224395
0.000285012
0.000435478
-0.000244611
0.00121539
0.000206313
0.000483016
-0.000505085
0.000100208
8.70752e-05
0.000836002
-0.000834024
-0.000146701
0.000144722
0.000751107
0.000224221
-0.000526916
-0.00121024
0.00112966
0.000197511
-0.000751341
-3.9663e-05
5.74961e-05
-6.81698e-05
5.03368e-05
7.78574e-05
2.78875e-05
6.6644e-05
-0.000110376
-0.00015794
-0.000337791
0.000203789
-0.000422794
-2.73701e-05
0.000223044
-0.000672889
0.000751345
0.000746295
-0.000659487
0.000554894
-0.000641702
0.000144303
0.00114709
-0.000974246
1.29703e-05
-2.26387e-05
0.000140092
-5.30096e-05
1.4163e-05
0.000700172
-0.00015753
4.20557e-05
0.000166414
-0.000335262
-0.000169509
2.02969e-05
3.68443e-05
-0.000501161
0.000574326
-0.000410957
-0.000184628
6.48126e-06
-7.91466e-05
0.000903135
-0.000386463
-0.000418392
0.000428861
-8.25789e-05
0.000182415
-0.000195469
4.55037e-05
0.00029461
-2.35172e-06
0.000242953
3.11284e-05
0.000130817
-9.99846e-05
0.000276742
0.000145749
0.000238878
-2.30582e-05
7.25017e-05
0.000739284
0.000505994
-0.000593547
-0.000114213
-0.000467656
-0.00074698
0.000630835
-0.000256692
5.10361e-05
0.000800058
-0.000672809
0.000328519
-4.41737e-05
5.37794e-05
-5.31646e-05
-8.44162e-05
7.12578e-05
0.000496175
-5.07284e-05
0.000650905
-0.0002495
-0.000683512
0.00012099
-1.3846e-05
-0.000447373
-0.000182075
-0.00016285
3.09723e-05
0.000788063
-0.000105334
-0.000531594
0.000608538
-4.60186e-06
0.000546936
0.000672019
-6.43508e-05
-0.000136413
-0.00101944
-0.000346696
0.000333453
-0.000357889
2.63767e-05
-3.05431e-05
-1.15587e-05
9.6524e-05
0.000289874
0.000138821
-4.82559e-05
-8.94635e-05
7.09243e-05
0.000231497
0.000501959
0.000104114
0.00014823
0.000998276
-0.000944234
0.000531429
2.89997e-05
3.48085e-05
-2.61005e-06
7.18984e-05
0.00108733
-8.90584e-05
-2.18415e-06
0.000810724
8.10971e-05
-1.07449e-05
0.000138532
-0.000294381
-0.000154848
-0.0004575
-0.000876948
-6.72857e-05
-8.2827e-05
0.000156485
-8.6146e-05
1.24878e-05
-0.000266471
0.00037581
-7.31959e-05
-3.61436e-05
3.43396e-06
0.000184172
-0.000782799
-3.0618e-05
0.000207387
4.8099e-05
-3.58443e-06
-4.45145e-05
-0.000253568
4.84493e-05
0.000188808
0.000186997
0.000246942
0.000781709
8.68777e-05
-3.87788e-05
0.000138714
-0.000117471
-2.1243e-05
-0.000247138
-0.000231319
0.000307864
-7.65451e-05
-0.000135734
0.000317697
0.000151925
-1.32114e-05
0.00115924
0.00016238
-0.000101327
-6.10535e-05
-3.54433e-05
-0.000564977
-3.16395e-05
-0.000432736
-3.05932e-05
-8.32583e-05
0.000734163
-0.000102419
0.00118975
-7.1752e-08
0.00060861
-6.89389e-05
0.00013314
-0.000104364
0.000325612
0.000106218
-0.00010161
-0.000650903
0.000646296
-0.000463278
-0.000206594
-9.87966e-05
-0.00071203
-6.59998e-05
-0.000613153
0.000146063
0.000566648
-0.000123864
0.000137807
0.000762017
-0.00048908
9.11407e-05
3.10758e-05
-0.00012815
-0.000604571
-0.00046615
5.13287e-05
2.01224e-06
-0.000731859
-2.45043e-05
0.000625626
0.000365087
-0.000370541
8.59672e-05
-0.000111245
0.000138702
5.0333e-05
-4.68218e-05
0.000100603
-0.000427751
-0.000122257
-8.45652e-05
3.62969e-05
-0.000101346
-0.000268853
0.000324633
0.00013854
0.0001309
-2.13816e-05
-2.41297e-05
5.7558e-05
-6.62168e-05
5.71081e-05
0.000226556
-9.87998e-06
-2.9679e-05
0.000838739
-0.000140288
0.000397594
-0.000810994
-9.01398e-06
-7.89347e-05
-0.000561903
0.000543036
-0.000430048
5.09572e-05
0.000637141
-0.000195258
0.000248957
-3.43331e-05
-0.00117733
0.000179567
-3.38904e-05
-0.000291891
0.000264936
-0.00028797
0.000201207
0.000788793
-4.20505e-05
0.000128661
8.80612e-05
-0.000141703
0.000216279
-4.44583e-05
6.00618e-05
5.15913e-05
6.57332e-05
-1.29332e-05
0.000327109
-5.99897e-05
0.000848711
0.000301337
-0.000748675
9.18462e-05
0.000112464
-9.47985e-05
-0.000800114
-0.000130031
-0.000175172
-0.000229817
0.000227039
0.000120393
-5.94457e-05
0.000237745
0.000111084
9.77937e-07
0.000116443
-0.000142454
2.38219e-05
8.10202e-05
-0.000517876
-3.51986e-05
9.21386e-06
-9.42405e-05
0.000996613
0.000989748
0.000150329
0.00086501
-0.000106292
3.59416e-07
-0.00016957
0.000197089
-2.75186e-05
-0.00020037
0.000189258
-0.000653057
0.000503933
0.000605865
0.000138928
-0.000108001
-0.00044646
0.000143418
0.000354733
0.00016246
4.67486e-05
-0.00130469
-0.000819525
0.0010947
-0.00047075
0.000552418
3.12139e-05
-0.000705191
-0.000460377
0.000260952
-0.000197065
-0.000349952
-0.000380896
6.19661e-05
-1.76448e-05
-6.2049e-06
-1.67829e-05
1.39738e-05
-0.000387352
0.000155581
-0.000332846
-1.42246e-05
1.9872e-05
7.78657e-06
0.000235157
0.000100221
8.93627e-06
9.92481e-05
0.000162139
-0.000226431
-1.19552e-05
0.000162722
-0.000746537
-0.000241356
0.000564466
9.03826e-05
0.000730886
3.91997e-05
-0.000274196
0.000579125
-0.000514356
2.44984e-05
-0.000172755
-0.000289161
9.25307e-05
-0.00117589
8.78555e-05
-3.40147e-05
-0.000652938
0.000125588
0.000561366
-7.7281e-06
0.000836699
-0.000202629
0.000175055
0.000226882
-0.000460955
0.000149992
-0.000567893
0.000521046
-4.31788e-05
-0.000191639
-0.000341654
0.000329531
-5.4578e-05
-0.000530689
9.45222e-05
0.000690191
1.09289e-05
-1.08995e-05
-0.000164207
-0.000102279
8.39135e-05
0.000245799
0.000486832
-8.92388e-05
-0.00069988
-0.000111114
5.02351e-05
0.000376893
-0.00012018
0.000244099
0.000504093
4.67446e-05
-0.000122749
-0.000400415
0.000286766
-2.87846e-05
0.000124146
5.99932e-06
-0.000405325
2.51084e-05
-3.2624e-05
0.000171459
2.25009e-05
0.000377637
-0.000514958
-0.000104035
0.000312543
-4.59401e-05
0.000141083
-0.000534099
1.8093e-06
0.000524561
-2.1376e-05
0.000171447
-0.00100053
0.00102124
-4.94395e-05
9.54546e-05
1.99544e-05
-5.53792e-05
0.000144965
-0.00021971
-7.66644e-05
0.000312351
-5.23056e-05
0.000108236
-8.30021e-05
2.33275e-05
-0.000304923
0.000197868
-0.000208482
0.000315537
-0.00030595
5.05058e-05
-0.000138827
-5.68858e-05
-0.000445086
-0.000464311
-0.000596323
0.00075571
-0.000192697
-0.000214671
-0.000136595
0.000596253
7.55761e-05
-0.000535235
-0.000133389
-0.000135729
0.000114758
0.00015436
0.00021262
7.05824e-06
-2.63174e-05
-0.000584701
0.000564111
-0.000216431
-0.000349873
0.000507503
-0.000463882
-0.00050246
0.00051437
0.000139331
-8.2839e-05
-0.000427197
-2.02944e-05
-0.000325524
0.000103175
-6.93399e-05
0.000884492
-9.34091e-05
-0.000653737
-0.000727512
-0.000366139
0.000746312
5.51785e-05
-0.000535311
2.57497e-05
2.81651e-05
-0.000388283
-0.000235785
0.000455854
-0.000347635
0.000112321
0.000857314
-0.000738481
-0.000118833
-0.000471691
0.000491467
-1.97762e-05
-0.00042986
0.000390418
-0.000366369
-2.4049e-05
0.000970403
0.000482047
-0.000451819
0.000459102
-7.28215e-06
0.000500135
4.8316e-05
0.000525198
-6.60966e-05
-0.000677672
0.00107741
0.000585808
0.000657508
-0.000629955
-2.75531e-05
0.00060001
0.000459808
0.000442264
1.75436e-05
0.000592039
7.97138e-06
0.000436883
5.3808e-06
0.000457192
-2.03086e-05
0.000481479
1.26688e-05
0.000990698
0.000289605
0.000140376
9.62569e-05
-7.90502e-05
-0.000245717
3.12534e-05
-1.22226e-06
-0.000107588
0.000660913
-0.000116376
-4.31831e-05
0.00012275
0.00047255
-2.4951e-06
0.000728635
0.000125226
0.000146224
-0.000244186
0.000333412
5.97978e-05
0.000124921
7.4816e-05
0.00055056
-0.0005388
-3.00759e-05
0.000318685
0.000358515
-0.000109175
3.02768e-07
-6.49211e-06
-5.17856e-05
-4.96601e-05
-0.000274418
0.000490416
0.000892024
-0.000394934
0.0001605
-6.86667e-05
-6.38578e-05
-2.62105e-05
-0.000135142
0.000914492
-0.00120192
0.000108185
0.000228345
-0.000137471
0.000980901
8.13692e-05
0.00015216
-0.00121443
5.48092e-05
-8.89642e-05
-5.13523e-05
-2.31517e-05
-3.43293e-05
2.76609e-05
0.000324383
-0.000589451
-7.6174e-05
-0.000103124
0.000120264
-0.000198136
0.000176114
0.00011749
-0.000218739
0.000114334
5.55174e-05
-0.000101789
6.45279e-05
1.54683e-05
-0.000396293
-0.000168704
0.00036956
-0.00039919
0.000436466
-0.000391899
-0.000122256
-0.000178282
0.000101296
3.58936e-05
0.000160901
6.32007e-05
-3.90756e-05
-0.00047336
0.000480454
2.43911e-05
-0.000126645
2.15822e-05
0.000226079
-0.000225776
0.000296893
-0.000661704
1.27979e-05
-0.000555577
0.000137208
0.000343235
-0.000484761
-6.30814e-05
0.000131972
-0.00021339
0.000181635
-0.000207962
-4.03534e-05
-0.000533446
8.18572e-05
-0.000181281
0.00061448
1.41407e-05
5.96018e-05
-0.000125285
0.00062626
-0.000297029
0.000197554
-2.12388e-05
-7.21768e-05
-7.08166e-06
0.000103451
-0.000165577
-0.000282485
1.59492e-05
-7.68454e-05
0.000134344
-2.14394e-05
-4.32419e-05
-0.000266776
8.9805e-05
-9.12691e-05
0.00013544
-0.000634516
-0.000141025
0.0001654
4.37137e-05
6.28992e-05
-0.000180842
-0.000203589
0.000668884
-1.91161e-05
-1.89056e-05
0.000228232
-6.47723e-05
-6.1924e-05
-0.000209715
0.000566343
-0.000364616
-0.000121968
0.00045157
-0.000140444
6.25289e-05
0.00012348
-7.83182e-05
-0.000151301
0.000494958
-0.000533629
0.000219627
-0.00129744
0.00135127
-0.00102084