/*--------------------------------*- C++ -*----------------------------------*\
| =========                 |                                                 |
| \\      /  F ield         | OpenFOAM: The Open Source CFD Toolbox           |
|  \\    /   O peration     | Version:  v1912                                 |
|   \\  /    A nd           | Website:  www.openfoam.com                      |
|    \\/     M anipulation  |                                                 |
\*---------------------------------------------------------------------------*/
FoamFile
{
    version     2.0;
    format      ascii;
    class       volScalarField;
    location    "0.66";
    object      p;
}
// * * * * * * * * * * * * * * * * * * * * * * * * * * * * * * * * * * * * * //

dimensions      [0 2 -2 0 0 0 0];


internalField   nonuniform List<scalar> 
1466
(
92.1617
127.156
91.4283
93.8736
95.4644
107.725
91.1078
91.3892
118.678
108.988
85.5848
111.172
118.86
95.4004
107.297
84.7695
92.5867
112.926
116.066
95.1003
94.7634
84.4885
111.922
95.9972
118.811
128.297
83.9675
93.4441
95.6508
125.254
87.4205
126.971
93.5183
95.3474
118.781
96.3538
95.6503
93.041
108.566
93.6122
91.3818
83.9062
85.5586
92.1138
95.6301
91.24
88.0655
96.2252
109.563
92.6629
108.551
126.886
107.737
96.5984
94.0734
117.037
91.5584
84.7583
93.7974
108.641
128.54
91.2678
93.4131
127.516
100.382
89.3597
114.744
95.5517
121.298
91.5047
128.603
112.931
96.3586
117.73
128.586
119.177
91.5232
94.4377
92.2317
124.682
108.096
83.8413
90.5609
107.411
95.9683
90.376
95.3376
123.136
107.396
107.953
128.253
83.8447
94.7106
92.2478
88.954
92.8135
127.387
85.7756
119.975
95.1051
108.117
108.796
95.4662
111.629
86.273
90.5785
108.199
96.8573
86.7652
91.9023
128.454
119.77
91.8525
84.7046
109.748
128.205
83.8809
111.372
91.144
92.5322
93.6
91.883
95.3327
92.5716
95.9408
92.631
122.587
112.551
95.673
126.336
108.345
84.1536
112.13
96.0252
127.886
91.3321
93.0006
93.7882
91.2275
92.9472
93.6042
93.0306
95.9191
110.453
87.7171
95.329
126.835
126.645
126.303
109.686
128.219
126.681
121.994
88.4211
126.357
83.7047
93.9292
95.9498
126.584
98.4366
126.667
123.907
85.0753
94.9934
125.988
86.9118
95.9397
111.525
92.9528
104.015
93.2326
126.298
92.2052
121.597
127.051
115.903
126.302
125.618
128.394
129.264
119.27
127.711
93.0544
92.6352
122.326
92.5561
96.1399
107.599
121.399
92.7066
92.7114
128.784
95.838
102.489
97.3894
128.37
91.0648
120.448
127.664
96.2315
91.0422
126.274
124.499
92.3271
128.465
127.686
100.355
122.907
126.414
95.5567
113.434
95.969
109.589
93.3661
96.1206
95.9839
93.3284
95.9
114.382
95.987
112.472
128.242
95.6492
128.414
93.8068
122.358
111.076
94.7169
128.336
127.849
129.046
121.317
107.25
99.4511
108.828
127.937
95.9618
110.883
126.361
92.6644
92.408
124.368
124.829
104.477
126.303
123.724
127.266
117.287
125.178
124.764
93.3205
100.734
122.295
92.627
126.395
126.613
94.6985
106.942
96.2551
92.7543
108.389
112.763
96.0777
127.914
97.3764
92.3611
127.256
126.24
103.881
109.117
82.1919
96.2213
106.949
126.389
128.158
128.48
128.28
99.8516
92.9025
126.113
127.374
97.1515
97.3996
122.895
95.3733
91.2233
126.295
126.56
93.4787
118.847
120.891
92.2933
119.359
92.8485
101.604
104.196
96.8927
92.1701
126.09
127.584
95.8351
107.484
128.806
118.434
95.9685
95.1544
91.7544
92.7851
117.63
92.3497
121.923
112.563
95.8649
127.759
127.52
126.976
95.3502
128.286
91.8568
107.212
106.4
96.5026
90.2823
127.593
94.652
116.144
91.705
133.167
127.213
127.828
113.259
117.525
91.0224
105.142
95.8008
97.6409
93.8118
126.49
91.9339
92.2481
95.5429
122.618
93.8129
142.457
103.511
128.668
122.452
132.346
120.856
95.1939
101.338
101.119
97.0215
94.7107
94.885
95.8957
96.1159
90.0363
110.008
125.289
94.2168
97.3174
99.3891
92.0784
92.8865
115.991
121.855
121.229
94.6
102.787
110.961
97.8623
145.009
107.784
91.0089
94.6448
111.618
135.154
92.169
98.6334
92.205
92.536
92.4523
92.7643
93.2224
92.842
92.9812
92.4299
92.3455
91.5204
94.39
94.7961
91.6588
94.5781
91.4684
91.2718
90.9352
123.918
91.4559
90.7732
91.0258
91.2716
111.064
92.4742
108.718
84.0699
110.721
108.958
85.0908
83.7814
107.319
113.305
110.891
83.7596
109.906
92.9058
93.076
108.779
107.424
91.0635
83.3576
83.5057
90.9067
110.501
90.9582
91.984
83.5226
149.167
90.979
91.9447
107.382
91.4116
94.1481
88.1318
127.093
90.9475
91.1505
91.2535
95.6726
107.541
91.1008
93.7412
107.614
91.5938
127.347
91.6536
119.45
127.566
91.9162
108.564
127.771
92.0904
93.1908
119.31
94.3094
93.6429
88.6051
90.4744
93.5031
127.625
92.7817
93.8708
89.1741
95.5921
110.777
92.026
93.3
93.5176
92.8873
92.9408
93.2069
89.2741
110.625
94.0418
127.795
92.0119
95.3213
93.856
98.6474
97.7222
103.311
95.0246
96.0729
97.62
98.2839
122.141
91.9868
95.2689
98.7507
100.004
99.0253
93.6804
91.7185
93.6768
92.7656
94.6754
95.0832
93.5293
128.542
91.5941
93.2563
92.9605
90.1629
112.696
94.2502
92.3547
121.524
127.91
92.0275
94.8516
126.794
96.9274
92.1255
96.9553
95.0963
91.8855
93.4851
119.581
120.483
90.5573
93.4418
92.6397
97.0656
127.639
95.248
93.0572
92.8331
93.7794
93.4123
96.2121
91.3381
85.2104
96.5697
94.4374
94.3482
93.1524
104.989
130.819
93.8615
95.5565
122.26
112.103
95.0288
91.69
93.79
108.945
94.1982
109.629
96.4773
128.017
89.1615
91.8618
95.1883
93.9594
92.7943
95.1242
94.8006
91.8167
94.1136
113.841
94.8028
96.2538
127.495
135.269
120.53
91.5075
94.0787
95.5963
139.41
94.3746
93.7174
94.3303
126.366
126.919
92.8607
92.0795
103.304
94.3066
94.6256
88.6933
95.96
94.6959
94.6212
92.6388
91.9117
94.0381
92.5852
115.653
94.8339
91.52
95.1217
114.061
92.7328
94.2926
94.0062
95.5736
112.796
97.6185
94.8232
97.8071
135.256
110.748
103.489
111.724
111.226
93.8717
127.166
94.4139
109.227
92.6919
91.818
92.034
118.921
101.709
95.8423
126.409
126.502
127.485
121.974
91.0596
117.696
91.7762
126.79
106.137
120.45
93.9175
92.6463
94.051
95.57
94.8596
98.6304
120.297
122.076
103.625
94.0514
113.529
93.3042
95.0354
126.934
93.9399
94.6975
118.295
96.3352
128.334
92.9679
109.25
94.3719
92.8391
94.8208
123.86
93.9309
119.895
128.778
92.5542
98.6557
92.6667
91.8472
94.9033
126.955
113.454
98.2698
121.018
91.1303
113.065
99.2424
126.208
91.7304
126.799
113.925
92.0427
93.5973
126.404
94.6535
95.435
110.753
94.9312
107.27
128.547
91.163
118.583
96.5343
92.8166
128.163
114.375
125.64
94.2543
124.963
126.189
97.0447
126.022
97.4546
118.838
115.645
109.601
125.476
126.25
107.1
91.0028
124.619
93.0544
93.0912
125.259
126.115
127.422
92.3875
91.9877
126.567
91.226
126.301
92.1729
91.7985
114.111
92.4844
98.3936
93.9343
95.724
94.7501
92.4668
96.4118
125.985
119.1
84.5705
113.803
95.2963
94.0538
93.9955
94.9115
92.7742
91.8194
128.515
93.5483
95.9447
90.2828
94.0494
115.37
126.909
94.9318
94.252
93.5557
98.3087
95.3721
107.235
93.4197
94.4204
91.8717
90.9803
123.423
128.745
91.7425
123.3
95.7442
89.2809
128.245
91.6224
91.0076
115.773
89.4905
93.2944
119.983
108.142
95.929
91.2306
128.369
127.898
99.3739
124.944
93.2277
116.65
113.5
92.859
126.968
91.3847
94.9203
91.629
83.322
92.2479
130.454
125.782
92.6594
111.182
94.7697
91.4839
93.0503
91.6032
97.3245
94.2416
107.243
95.5182
92.113
103.328
92.2716
99.1198
93.2729
91.258
126.784
119.221
93.4406
85.5669
89.4701
95.0845
91.6543
93.6075
94.8723
92.1605
96.9234
91.8411
128.719
119.809
83.3489
94.1146
93.7603
100.941
113.669
95.9381
128.384
92.5331
93.4177
93.2408
127.921
94.9506
111.778
92.4385
92.0281
125.975
92.7734
91.0735
92.4044
117.879
119.922
113.953
125.041
94.1998
91.4352
84.2771
91.1999
108.525
108.117
125.908
91.3185
91.3699
91.4996
92.0967
93.7698
91.6279
88.5577
109.263
122.993
95.1942
127.451
93.8744
88.0022
121.995
92.4514
95.0473
91.5432
126.493
124.519
127.086
107.815
94.312
99.2284
94.9976
119.497
92.1579
128.444
90.3368
90.774
92.0538
127.048
94.9741
91.5322
128.28
93.6386
126.497
99.2149
92.5289
93.169
95.627
94.7559
96.4005
94.7287
94.32
95.3424
94.2558
96.7855
113.375
114.603
98.4225
95.7381
94.765
100.613
113.086
117.281
106.367
103.536
121.137
125.065
129.026
127.829
93.8312
93.1445
92.9643
96.6283
120.256
119.21
128.401
92.5552
91.9694
108.952
92.1204
96.2477
107.538
92.4972
111.596
93.6141
107.221
123.84
116.462
109.094
92.3549
93.6641
127.037
92.0155
127.452
108.479
93.624
85.7359
93.3931
92.044
95.5177
106.033
126.407
118.27
91.9986
107.688
91.7981
95.1213
95.1541
91.7772
90.9233
93.3355
126.321
125.479
93.8471
91.0666
92.5881
126.899
113.644
120.883
118.262
128.196
108.199
125.605
83.8748
92.6362
96.8658
128.49
107.555
84.5921
135.989
93.2645
112.808
93.5184
122.517
95.7
111.475
91.8134
107.935
92.3871
89.8555
93.6497
94.9861
84.9205
94.0928
127.628
127.553
128.263
97.0361
89.0546
127.609
92.1139
96.1547
111.24
93.9829
119.8
93.7586
92.7746
128.073
112.322
95.4962
127.946
95.107
108.247
113.415
114.79
114.623
125.702
93.508
94.6466
108.44
91.9538
97.7231
97.504
119.807
129.613
90.9955
92.1375
95.0878
109.635
118.285
95.8229
111.231
92.5564
128.362
92.1807
92.5223
86.2101
126.834
126.754
92.2813
111.303
95.3101
83.9156
112.1
92.8492
113.188
96.4698
112.296
95.9317
94.0647
91.3846
98.3411
128.063
126.26
93.7126
89.3862
127.156
128.513
98.4048
118.655
128.035
121.379
92.384
95.7011
122.044
89.4111
128.832
128.068
89.9119
93.0417
92.0694
95.4313
127.499
95.2538
121.268
92.1805
126.578
125.869
126.728
127.19
91.4952
106.718
124.242
121.638
128.453
93.717
129.717
91.9352
95.318
128.831
98.5753
92.0167
128.008
91.3286
127.22
91.378
110.687
127.345
127.084
92.0733
95.3486
120.289
93.1397
127.688
127.451
127.801
127.573
121.007
120.703
126.607
126.686
126.796
126.937
118.699
98.476
93.9448
126.698
127.081
96.0827
92.5201
127.814
112.283
95.7287
91.7445
91.006
92.381
89.0029
92.9784
124.444
93.6048
91.694
126.349
111.738
127.276
126.067
129.162
119.011
119.889
93.862
91.3915
118.084
128.65
117.342
95.8652
112.561
117.817
89.1286
127.215
125.227
107.417
121.444
123.609
107.845
92.0496
95.0767
91.5744
126.151
88.0487
95.6487
83.9259
93.329
88.6378
95.7337
108.695
122.79
103.484
107.898
94.9127
91.505
107.974
93.5635
120.309
119.958
94.5609
126.34
90.3261
126.973
108.849
130.787
93.2205
119.003
103.542
112.175
95.5761
93.0798
99.1204
123.27
87.414
100.583
93.1708
91.1947
91.4826
94.9182
92.3357
95.5917
88.1632
123.377
98.1514
86.1245
85.6791
99.3086
118.646
127.621
95.1896
84.1477
92.8179
93.2725
91.6195
95.0804
96.2966
92.4131
91.568
87.0496
128.283
91.2146
108.284
108.729
120.394
126.144
128.374
125.258
126.458
107.545
123.182
123.617
126.939
110.473
117.711
91.5511
126.265
92.7487
128.37
128.344
92.077
95.5068
115.12
109.042
119.195
97.0858
94.4891
92.3342
89.9297
114.88
116.681
98.7928
92.6526
94.8281
108.088
107.777
86.6017
98.889
125.884
109.973
96.4758
91.9165
95.2585
85.6383
109.1
95.7597
107.959
91.4087
86.1582
91.4807
98.511
126.527
126.453
110.796
95.1782
93.0292
92.16
118.23
95.4369
96.1079
124.909
95.0772
120.599
85.5976
108.469
95.402
91.3111
95.9886
127.627
92.4304
128.204
84.679
99.0244
92.158
96.2976
97.628
94.4567
118.835
127.091
108.863
126.5
92.777
92.5565
123.891
92.1584
91.0369
113.683
95.4722
111.439
92.29
126.915
128.624
120.057
88.7244
94.9404
91.4952
115.413
92.9899
91.3104
112.312
94.8151
91.5162
109.114
95.8126
110.61
119.655
110.674
95.74
94.4039
107.399
93.6149
83.8966
115.644
95.4712
113.314
94.3133
89.9435
91.8539
95.1923
91.8061
95.2121
91.1747
127.229
92.1871
114.981
128.247
94.3483
90.9388
122.67
92.5547
84.0543
128.787
121.392
128.934
115.927
94.073
88.3836
128.543
114.692
128.198
92.4261
95.0123
91.5242
89.1681
93.3244
100.266
92.1133
127.421
92.8227
127.138
88.0153
86.4115
115.774
125.606
125.87
92.7689
126.053
110.157
126.942
125.97
94.2192
94.6767
125.21
109.907
126.238
124.88
125.741
93.5343
127.359
105.531
128.556
124.446
99.5789
94.6414
128.65
128.78
127.898
126.211
92.6262
121.984
127.635
102.742
129.693
127.591
86.8737
127.575
84.9711
85.5086
91.0669
84.2366
84.8106
88.6301
91.8169
93.3637
107.672
123.944
129.15
95.3818
120.144
95.3091
94.2623
93.9506
120.68
106.209
95.2716
91.9989
127.63
96.2965
108.008
126.641
90.6167
127.102
112.648
95.9391
123.046
95.7201
93.8423
127.87
93.3962
85.5612
91.3654
90.534
109.015
93.3344
91.0598
91.242
124.077
127.076
126.821
126.757
127.29
127.731
119.552
125.068
109.537
91.0359
127.692
116.058
88.4537
127.395
88.8
109.859
92.5847
89.0064
89.9112
95.6889
91.7262
94.5537
95.6352
96.5594
101.251
90.536
92.6032
110.392
140.639
105.412
111.266
122.831
128.781
119.67
117.499
116.12
91.6924
91.3109
94.7889
90.4531
94.8399
95.0425
111.183
91.3372
126.549
126.894
127.468
)
;

boundaryField
{
    frontAndBack
    {
        type            empty;
    }
    wallOuter
    {
        type            zeroGradient;
    }
    inlet
    {
        type            zeroGradient;
    }
    outlet
    {
        type            fixedValue;
        value           nonuniform 0();
    }
    wallInner
    {
        type            zeroGradient;
    }
    procBoundary1to0
    {
        type            processor;
        value           nonuniform List<scalar> 
29
(
92.3593
92.3593
91.3989
91.0894
84.2162
84.7169
117.983
91.3318
90.6099
91.1947
91.4631
84.7169
91.3989
93.1653
118.682
119.094
84.2162
84.4694
91.0894
92.2441
119.305
119.35
85.3589
118.019
118.019
85.3589
120.037
118.09
120.037
)
;
    }
    procBoundary1to2
    {
        type            processor;
        value           uniform 92.0014;
    }
    procBoundary1to3
    {
        type            processor;
        value           nonuniform List<scalar> 
48
(
95.4836
95.8219
95.7031
95.7031
96.2718
95.4958
95.4958
95.2097
95.1819
92.1887
92.6319
92.1887
93.3951
92.6188
91.9927
93.3951
95.1804
95.1804
95.4444
95.4444
95.0764
95.3559
94.4839
94.3145
94.3145
93.6792
95.3464
95.3464
95.2662
94.9139
94.151
95.2662
95.2097
95.2385
94.0442
94.9139
95.3546
92.6319
95.9093
96.5235
93.636
95.3046
95.2385
94.0442
91.8277
97.1171
96.3745
93.636
)
;
    }
}


// ************************************************************************* //
