# vtk DataFile Version 2.0
track0
ASCII
DATASET POLYDATA
POINTS 12693 double
1.66533e-17 0.5 -5.37764e-17
0.391304 0.5 0
0.393043 0.491932 -1.11022e-16
0.395291 0.48399 -5.55112e-17
0.398026 0.476204 -5.55112e-17
0.4 0.471535 -5.55112e-17
0.406704 0.457228 -6.93889e-17
0.415157 0.44388 0
0.425208 0.431688 2.77556e-17
0.436671 0.420815 -2.77556e-17
0.464439 0.4 0
0.471551 0.397028 2.77556e-17
0.478811 0.394437 5.55112e-17
0.486197 0.392232 0
0.493688 0.390414 -5.55112e-17
0.5 0.38922 0
0.52 0.3863 -2.77556e-17
0.540211 0.386073 0
0.560249 0.38872 5.55112e-17
0.579692 0.394241 1.11022e-16
0.592445 0.4 0
0.593956 0.40088 0
0.595456 0.401779 0
0.596945 0.402696 0
0.598423 0.403631 5.55112e-17
0.6 0.404659 8.32667e-17
0.62 0.418129 0
0.637192 0.435037 2.77556e-17
0.651238 0.454636 1.04083e-17
0.662013 0.476208 4.16334e-17
0.669643 0.5 0
0.672856 0.52 0
0.673769 0.540236 0
0.672589 0.560458 2.77556e-17
0.66938 0.580458 2.77556e-17
0.663981 0.6 1.11022e-16
0.655685 0.62 0
0.644519 0.638551 -2.08167e-17
0.630667 0.655193 2.77556e-17
0.614467 0.66956 0
0.6 0.678903 0
0.591325 0.683122 5.55112e-17
0.582403 0.68679 -5.55112e-17
0.573284 0.689936 -2.77556e-17
0.564016 0.692612 -5.55112e-17
0.532584 0.7 -5.55112e-17
0.526067 0.700457 2.77556e-17
0.519539 0.700711 5.55112e-17
0.513007 0.700766 5.55112e-17
0.506475 0.700624 0
0.5 0.700291 0
0.499274 0.700233 5.55112e-17
0.498547 0.700173 0
0.497821 0.70011 5.55112e-17
0.497095 0.700046 5.55112e-17
0.496595 0.7 5.55112e-17
0.477276 0.69819 1.11022e-16
0.45816 0.694864 8.32667e-17
0.439376 0.689996 5.55112e-17
0.421066 0.683575 1.249e-16
0.4 0.674079 1.11022e-16
0.38 0.662024 1.11022e-16
0.361642 0.647592 1.31839e-16
0.345254 0.630956 8.32667e-17
0.331277 0.612249 5.55112e-17
0.324655 0.6 1.11022e-16
0.319724 0.588516 1.249e-16
0.315695 0.576686 1.11022e-16
0.312515 0.5646 1.38778e-16
0.310134 0.552331 1.49186e-16
0.303459 0.5 1.66533e-16
0.306144 0.48 1.66533e-16
0.310573 0.460312 1.38778e-16
0.316686 0.441081 1.38778e-16
0.324464 0.422461 1.11022e-16
0.336287 0.4 1.11022e-16
0.34903 0.381554 1.11022e-16
0.363592 0.364508 8.32667e-17
0.379791 0.349009 1.09288e-16
0.397434 0.335175 1.38778e-16
0.4 0.333558 1.11022e-16
0.410991 0.326846 1.66533e-16
0.422383 0.32084 1.66533e-16
0.434117 0.315535 1.94289e-16
0.446117 0.310861 1.8735e-16
0.479091 0.3 2.77556e-16
0.483273 0.299253 2.77556e-16
0.487466 0.298575 2.22045e-16
0.49167 0.297966 2.22045e-16
0.495884 0.297426 2.22045e-16
0.5 0.296967 2.22045e-16
0.52 0.29503 3.33067e-16
0.540089 0.294619 3.88578e-16
0.560148 0.295807 3.33067e-16
0.580044 0.298617 2.77556e-16
0.586149 0.3 3.33067e-16
0.588919 0.300703 2.77556e-16
0.591681 0.301439 2.77556e-16
0.594434 0.302206 2.77556e-16
0.597178 0.303005 2.77556e-16
0.6 0.303863 2.77556e-16
0.62 0.31028 2.77556e-16
0.639241 0.318704 2.77556e-16
0.657507 0.329072 2.77556e-16
0.674604 0.341275 3.19189e-16
0.7 0.364156 3.60822e-16
0.705361 0.371325 3.33067e-16
0.710399 0.378724 3.33067e-16
0.715119 0.386331 3.60822e-16
0.719524 0.394124 3.88578e-16
0.722533 0.4 3.33067e-16
0.732043 0.42 3.60822e-16
0.739779 0.440751 3.69496e-16
0.745911 0.462031 4.02456e-16
0.750443 0.483708 4.31079e-16
0.752751 0.5 4.44089e-16
0.754608 0.52 3.88578e-16
0.75535 0.540072 4.16334e-16
0.755022 0.560156 4.16334e-16
0.753768 0.580203 4.64906e-16
0.751393 0.6 4.996e-16
0.747741 0.62 5.10009e-16
0.742709 0.639698 4.85723e-16
0.736264 0.658981 4.996e-16
0.728186 0.677638 5.20417e-16
0.715905 0.7 4.44089e-16
0.712724 0.704326 3.88578e-16
0.709413 0.708554 4.44089e-16
0.705973 0.712678 4.16334e-16
0.702414 0.716699 4.71845e-16
0.7 0.719267 4.996e-16
0.684209 0.735414 5.55112e-16
0.666369 0.749261 5.01335e-16
0.646854 0.76063 4.996e-16
0.626194 0.769751 4.71845e-16
0.6 0.778503 3.88578e-16
0.58 0.782739 3.88578e-16
0.559736 0.785445 4.02456e-16
0.539358 0.787083 3.88578e-16
0.518923 0.787678 3.60822e-16
0.5 0.787296 2.22045e-16
0.48 0.785867 2.77556e-16
0.460095 0.783448 2.91434e-16
0.440307 0.780213 4.71845e-16
0.420673 0.776144 4.996e-16
0.4 0.770876 4.996e-16
0.38 0.764362 4.44089e-16
0.360406 0.756712 4.57967e-16
0.341282 0.747953 4.71845e-16
0.322771 0.737964 4.71845e-16
0.3 0.723029 4.44089e-16
0.294597 0.718423 3.88578e-16
0.28932 0.713674 3.88578e-16
0.284172 0.708785 3.33067e-16
0.279178 0.70374 3.88578e-16
0.275714 0.7 3.33067e-16
0.260571 0.682832 2.77556e-16
0.247521 0.664024 2.91434e-16
0.23665 0.643878 3.05311e-16
0.227801 0.622765 3.05311e-16
0.220678 0.6 3.60822e-16
0.216615 0.58 3.33067e-16
0.214165 0.559739 3.33067e-16
0.2129 0.53937 3.88578e-16
0.212797 0.518961 4.02456e-16
0.213746 0.5 3.60822e-16
0.215948 0.48 4.44089e-16
0.219331 0.460166 4.02456e-16
0.22365 0.440514 3.60822e-16
0.228919 0.421095 3.60822e-16
0.235868 0.4 3.33067e-16
0.24411 0.38 3.33067e-16
0.253572 0.360547 4.02456e-16
0.264197 0.341704 4.16334e-16
0.276082 0.32363 3.88578e-16
0.294296 0.3 3.88578e-16
0.295437 0.298822 4.44089e-16
0.296583 0.29765 3.88578e-16
0.297735 0.296483 3.88578e-16
0.298893 0.295322 3.88578e-16
0.3 0.294224 4.44089e-16
0.319183 0.275379 3.88578e-16
0.340214 0.258621 3.88578e-16
0.362834 0.244081 4.02456e-16
0.386707 0.231703 4.996e-16
0.4 0.226274 4.996e-16
0.414931 0.221019 5.48173e-16
0.430131 0.216607 5.82867e-16
0.445516 0.212883 4.92661e-16
0.461039 0.209793 4.996e-16
0.5 0.203645 5.27356e-16
0.512643 0.202916 4.996e-16
0.525303 0.202577 4.996e-16
0.537968 0.202604 4.996e-16
0.550626 0.203001 4.44089e-16
0.6 0.206005 3.60822e-16
0.62 0.209695 3.88578e-16
0.639748 0.214557 4.16334e-16
0.659172 0.220583 3.88578e-16
0.678187 0.227798 3.88578e-16
0.7 0.237893 4.996e-16
0.72 0.250284 4.15033e-16
0.738636 0.264645 5.27356e-16
0.755734 0.280806 4.3715e-16
0.770634 0.299013 4.16334e-16
0.77126 0.3 4.44089e-16
0.777008 0.309188 4.44089e-16
0.782336 0.318626 3.88578e-16
0.787265 0.328277 4.16334e-16
0.791791 0.338125 4.16334e-16
0.8 0.357979 3.46945e-16
0.802806 0.366383 3.60822e-16
0.805403 0.374854 3.33067e-16
0.807805 0.383382 3.33067e-16
0.810021 0.391961 3.40006e-16
0.81193 0.4 3.33067e-16
0.816377 0.42 3.1225e-16
0.820123 0.440143 3.33067e-16
0.823086 0.460416 2.77556e-16
0.825313 0.480783 3.81639e-16
0.82682 0.5 3.88578e-16
0.827981 0.52 3.33067e-16
0.82874 0.540019 3.19189e-16
0.828968 0.560052 3.33067e-16
0.828554 0.580081 3.747e-16
0.827579 0.6 3.33067e-16
0.826111 0.62 2.77556e-16
0.82414 0.639957 3.05311e-16
0.821446 0.659829 2.91434e-16
0.817878 0.679563 3.33067e-16
0.813134 0.7 3.33067e-16
0.810507 0.709069 3.33067e-16
0.807654 0.718069 3.33067e-16
0.804526 0.726978 3.33067e-16
0.801095 0.735774 3.33067e-16
0.8 0.738303 3.33067e-16
0.794486 0.750642 3.33067e-16
0.788229 0.762622 2.22045e-16
0.781183 0.774155 2.77556e-16
0.773317 0.785146 2.22045e-16
0.760926 0.8 2.22045e-16
0.74874 0.811672 2.48065e-16
0.735405 0.822011 1.94289e-16
0.72109 0.830943 1.80411e-16
0.706107 0.838706 2.22045e-16
0.7 0.841439 2.22045e-16
0.68 0.849847 1.66533e-16
0.659224 0.856098 1.94289e-16
0.637982 0.860512 2.22045e-16
0.616575 0.864042 2.22045e-16
0.6 0.86611 2.22045e-16
0.58 0.867963 2.22045e-16
0.55993 0.868761 2.498e-16
0.539845 0.868866 2.91434e-16
0.519762 0.868577 2.77556e-16
0.5 0.867816 3.33067e-16
0.48 0.86645 2.77556e-16
0.460054 0.864442 2.63678e-16
0.440167 0.861919 2.63678e-16
0.420325 0.859062 3.05311e-16
0.4 0.855489 2.22045e-16
0.38 0.851158 2.22045e-16
0.360112 0.846341 1.94289e-16
0.340339 0.841069 1.63064e-16
0.320795 0.835004 1.38778e-16
0.3 0.827292 1.38778e-16
0.287946 0.821833 5.55112e-17
0.276001 0.816141 1.11022e-16
0.264231 0.810095 5.55112e-17
0.252746 0.803524 5.55112e-17
0.247227 0.8 5.55112e-17
0.237782 0.793628 0
0.228648 0.786817 5.55112e-17
0.219854 0.779573 0
0.211428 0.771904 8.32667e-17
0.2 0.760185 1.11022e-16
0.190191 0.748148 5.89806e-17
0.181244 0.735458 5.55112e-17
0.173166 0.722197 5.55112e-17
0.165898 0.708476 1.11022e-16
0.16191 0.7 -2.77556e-17
0.153193 0.68 -6.245e-17
0.146511 0.659231 -2.08167e-17
0.141599 0.637974 -1.38778e-17
0.137711 0.616506 -1.11022e-16
0.1355 0.6 -1.11022e-16
0.133569 0.58 -5.55112e-17
0.132838 0.55992 -5.55112e-17
0.13295 0.539828 -5.55112e-17
0.133535 0.519743 0
0.134725 0.5 0
0.136693 0.48 -8.32667e-17
0.139452 0.460094 -1.11022e-16
0.142905 0.440296 -9.71445e-17
0.146812 0.420583 -9.02056e-17
0.151732 0.4 -1.52656e-16
0.157543 0.38 -1.94289e-16
0.163953 0.360184 -1.66533e-16
0.170981 0.340578 -1.52656e-16
0.178978 0.321347 -5.55112e-17
0.189242 0.3 0
0.191394 0.296232 5.55112e-17
0.193568 0.292477 5.55112e-17
0.195767 0.288737 0
0.198007 0.28502 5.55112e-17
0.2 0.281794 -5.55112e-17
0.210328 0.265435 -2.77556e-17
0.221648 0.249747 -1.66533e-16
0.233965 0.234828 -2.2031e-16
0.247243 0.220758 -2.22045e-16
0.269973 0.2 -1.94289e-16
0.275978 0.195757 -1.11022e-16
0.282077 0.191649 -5.55112e-17
0.288265 0.187676 -1.11022e-16
0.294536 0.183836 -1.11022e-16
0.3 0.180616 -2.22045e-16
0.32 0.169225 -2.22045e-16
0.340907 0.159599 -2.41127e-16
0.362499 0.151626 -2.498e-16
0.384538 0.144989 -2.42861e-16
0.4 0.141074 -2.22045e-16
0.42 0.136677 -2.22045e-16
0.440219 0.133431 -1.66533e-16
0.460558 0.13105 -1.38778e-16
0.480948 0.129163 -1.66533e-16
0.5 0.127971 -1.11022e-16
0.52 0.127408 -1.249e-16
0.540007 0.127624 -1.249e-16
0.560001 0.128359 -1.38778e-16
0.579977 0.129498 -1.38778e-16
0.6 0.131232 -5.55112e-17
0.62 0.133879 -1.11022e-16
0.6399 0.137192 -9.71445e-17
0.659691 0.141109 -6.93889e-17
0.679364 0.145576 -9.02056e-17
0.7 0.151723 -1.249e-16
0.72 0.159553 -1.52656e-16
0.739588 0.168363 -8.32667e-17
0.758569 0.178416 -1.80411e-16
0.776296 0.190543 -1.66533e-16
0.787095 0.2 -2.22045e-16
0.789676 0.202653 -2.22045e-16
0.792209 0.205352 -2.22045e-16
0.794695 0.208094 -1.66533e-16
0.797123 0.210887 -1.66533e-16
0.8 0.214361 -2.22045e-16
0.813379 0.231489 -1.94289e-16
0.824696 0.250043 -2.1104e-16
0.834181 0.269598 -2.15106e-16
0.842092 0.289841 -2.22045e-16
0.845239 0.3 -1.94289e-16
0.850779 0.32 -2.22045e-16
0.85542 0.340228 -1.52656e-16
0.859353 0.360604 -1.80411e-16
0.862817 0.381066 -1.94289e-16
0.865427 0.4 -1.66533e-16
0.867649 0.42 -1.66533e-16
[...]
POINT_DATA 12693
 FIELD attributes 1
U 3 12693 float
2.32956e-19 	-4.37967e-18 	-2.32991e-36
0.00233667 	-0.0108401 	0 0.00305827 	-0.010807 	8.52639e-24 0.00371903 	-0.0105865 	8.66849e-23 0.00436416 	-0.0103228 	1.67402e-22 0.0047492 	-0.010135 	2.18353e-22 0.00606633 	-0.00957959 	2.76675e-22 0.00732989 	-0.00889131 	3.14228e-22 0.00852066 	-0.00808239 	3.30651e-22 0.00946776 	-0.00709694 	3.9841e-22 0.0111952 	-0.00467864 	5.66542e-22 0.0114908 	-0.00410052 	6.16454e-22 0.0117548 	-0.00350983 	6.56656e-22 0.0119869 	-0.0029083 	6.87125e-22 0.0121193 	-0.00229294 	6.43124e-22 0.0121046 	-0.00176714 	5.04001e-22 0.0125106 	-0.000140575 	3.02238e-22 0.0124381 	0.00164296 	2.0907e-22 0.0121164 	0.00344042 	1.2979e-22 0.0115472 	0.00521453 	6.63224e-23 0.0109879 	0.00639993 	3.44386e-23 0.0109142 	0.0065382 	2.35391e-23 0.0108391 	0.0066756 	1.2605e-23 0.0107628 	0.00681212 	1.63809e-24 0.0106672 	0.00695607 	0 0.0105593 	0.00711162 	0 0.00941516 	0.00925918 	2.75373e-23 0.00800562 	0.0111711 	3.17298e-23 0.00639154 	0.0127957 	5.75379e-23 0.00448637 	0.0139894 	3.74356e-22 0.00239147 	0.0148862 	6.82117e-22 0.00069048 	0.0153076 	5.17698e-22 -0.000896151 	0.0153586 	2.81414e-22 -0.00243139 	0.0151511 	7.85472e-24 -0.00405793 	0.0146887 	-1.67344e-22 -0.00578221 	0.0139393 	-2.14833e-22 -0.00776242 	0.0128969 	-1.19821e-22 -0.00965529 	0.0115994 	-2.00376e-23 -0.0112866 	0.01001 	0 -0.0127143 	0.00821096 	0 -0.0136856 	0.0066568 	0 -0.014273 	0.00586706 	0 -0.0147668 	0.00509474 	0 -0.0151268 	0.00436734 	0 -0.0154536 	0.00363238 	0 -0.0164348 	0.00115361 	0 -0.0165662 	0.00064471 	0 -0.0166786 	0.000138351 	0 -0.0167721 	-0.000365033 	0 -0.0168471 	-0.000865037 	0 -0.0168925 	-0.00135341 	0 -0.0168929 	-0.00140064 	-1.09946e-23 -0.0168822 	-0.00144893 	-2.85121e-23 -0.0168714 	-0.00149722 	-4.60723e-23 -0.0168603 	-0.00154549 	-6.36754e-23 -0.0168526 	-0.00157876 	-7.58378e-23 -0.016588 	-0.00288636 	-4.65786e-22 -0.0162136 	-0.00420157 	-8.17447e-22 -0.0157282 	-0.00551608 	-1.12736e-21 -0.0151319 	-0.00682078 	-1.39214e-21 -0.0138989 	-0.00837742 	-1.64982e-21 -0.012786 	-0.010052 	-9.35928e-22 -0.0114664 	-0.0116394 	-2.05643e-22 -0.00966829 	-0.012941 	0 -0.00758459 	-0.0140291 	0 -0.00625663 	-0.0145707 	0 -0.00518 	-0.0152086 	0 -0.00412745 	-0.0156871 	0 -0.0031063 	-0.016007 	0 -0.00207729 	-0.0162865 	0 0.00231269 	-0.0172261 	0 0.0038212 	-0.016988 	4.31239e-23 0.00527217 	-0.0165865 	9.06157e-23 0.00672803 	-0.0161056 	1.31445e-22 0.00816676 	-0.0155149 	1.80552e-22 0.00978084 	-0.0141586 	4.76656e-22 0.0113404 	-0.013274 	7.95119e-22 0.0128265 	-0.0122726 	1.10211e-21 0.0137143 	-0.0107536 	1.29759e-21 0.0144915 	-0.00913388 	1.47396e-21 0.0145821 	-0.00890449 	1.49528e-21 0.0153396 	-0.00808689 	1.68059e-21 0.0160389 	-0.00725221 	1.83174e-21 0.0163916 	-0.00638396 	1.67224e-21 0.016725 	-0.005509 	1.51577e-21 0.0175691 	-0.00313888 	1.10327e-21 0.0176675 	-0.00285534 	1.06913e-21 0.0177622 	-0.00257162 	1.03431e-21 0.0178532 	-0.00228783 	9.98833e-22 0.0179405 	-0.00200402 	9.62711e-22 0.0179255 	-0.00173572 	8.88578e-22 0.0180347 	-0.000368837 	6.77076e-22 0.0179362 	0.00106253 	4.92081e-22 0.0177403 	0.00250549 	3.21796e-22 0.0174466 	0.00395086 	1.67609e-22 0.0173248 	0.00439888 	1.24991e-22 0.0172794 	0.00460132 	9.36458e-23 0.0172328 	0.00480336 	6.20861e-23 0.0171849 	0.00500499 	3.03167e-23 0.0171317 	0.00520807 	0 0.0169968 	0.00545308 	0 0.0163146 	0.007143 	1.53789e-22 0.0154749 	0.00878369 	3.24925e-22 0.0145965 	0.0104181 	4.4989e-22 0.0134173 	0.0120884 	7.61032e-22 0.0110807 	0.0148163 	1.51144e-21 0.0105932 	0.0155594 	1.70811e-21 0.0101011 	0.0162817 	1.89219e-21 0.00959095 	0.0169671 	2.03618e-21 0.00897093 	0.0175154 	1.96268e-21 0.00851351 	0.017904 	1.90131e-21 0.00730417 	0.0195944 	2.09379e-21 0.006095 	0.0211505 	2.24753e-21 0.00460447 	0.0220243 	2.18622e-21 0.00316498 	0.0223448 	1.83755e-21 0.00208849 	0.0224897 	1.56335e-21 0.000851998 	0.0230509 	1.55672e-21 -0.000383486 	0.0235161 	1.53765e-21 -0.00146 	0.0233251 	1.14318e-21 -0.00270356 	0.0225437 	4.75686e-22 -0.00395905 	0.021677 	-1.86798e-22 -0.00540633 	0.0211663 	-1.24427e-21 -0.00686641 	0.0205431 	-2.28995e-21 -0.00838816 	0.0193718 	-2.21206e-21 -0.00977675 	0.0178029 	-1.64393e-21 -0.0114357 	0.0155537 	-7.0201e-22 -0.0118684 	0.0151537 	-6.41266e-22 -0.0123016 	0.0147487 	-5.81909e-22 -0.0126351 	0.014273 	-5.05745e-22 -0.0129551 	0.0137845 	-4.28642e-22 -0.0131645 	0.0134613 	-3.79011e-22 -0.0150325 	0.0116679 	-1.5134e-22 -0.0169324 	0.00986419 	3.22064e-23 -0.0184553 	0.00814745 	7.29246e-23 -0.0193673 	0.00647124 	0 -0.0200164 	0.00423935 	0 -0.0211738 	0.00282778 	0 -0.0215064 	0.00172821 	0 -0.021819 	0.000635964 	0 -0.0221114 	-0.000446277 	0 -0.0218895 	-0.00156451 	0 -0.0221535 	-0.00269236 	-2.02382e-22 -0.021833 	-0.00356911 	-8.05568e-22 -0.0215041 	-0.00445607 	-1.3766e-21 -0.0210484 	-0.0053637 	-1.98443e-21 -0.0197123 	-0.00642089 	-3.09359e-21 -0.0195125 	-0.00761797 	-5.44197e-21 -0.0192539 	-0.00881882 	-7.72718e-21 -0.0182518 	-0.00984913 	-8.30055e-21 -0.0164824 	-0.0108102 	-6.8834e-21 -0.0142062 	-0.0121109 	-5.08082e-21 -0.0139162 	-0.0125236 	-5.37394e-21 -0.0136235 	-0.0129378 	-5.65464e-21 -0.0131455 	-0.0132793 	-5.36813e-21 -0.0125872 	-0.0135904 	-4.83081e-21 -0.0121847 	-0.0138144 	-4.43382e-21 -0.0106458 	-0.015342 	-2.87727e-21 -0.00912817 	-0.0169173 	-1.1912e-21 -0.00756437 	-0.0180472 	-8.98295e-22 -0.00586999 	-0.0187606 	-1.54206e-21 -0.00389637 	-0.0191788 	-2.47438e-21 -0.00243989 	-0.0201815 	-2.02576e-21 -0.00126842 	-0.0204277 	-1.79558e-21 -0.000104713 	-0.0206747 	-1.50963e-21 0.00104759 	-0.0209218 	-1.17016e-21 0.00227308 	-0.0206506 	-1.23597e-21 0.00356836 	-0.0209211 	-9.24961e-22 0.00452228 	-0.0205773 	-6.21185e-22 0.00549361 	-0.0202452 	-3.04648e-22 0.00647068 	-0.0196439 	-6.35165e-23 0.00754066 	-0.0182968 	-1.10094e-24 0.00878624 	-0.0180636 	1.19521e-23 0.0100351 	-0.0177975 	3.16849e-23 0.0110474 	-0.0168002 	2.65297e-22 0.0119658 	-0.0155239 	5.75637e-22 0.013054 	-0.0134763 	1.03134e-21 0.013132 	-0.0134283 	1.04542e-21 0.01321 	-0.0133804 	1.05957e-21 0.013269 	-0.013306 	1.07316e-21 0.0133116 	-0.0132091 	1.08627e-21 0.0133524 	-0.013117 	1.09881e-21 0.0147612 	-0.0117619 	1.6742e-21 0.0162809 	-0.010465 	2.30433e-21 0.0171771 	-0.00890643 	2.30617e-21 0.017542 	-0.00716441 	1.7564e-21 0.0177207 	-0.00623684 	1.4583e-21 0.0185872 	-0.0053958 	1.48846e-21 0.0190229 	-0.00460381 	1.35353e-21 0.0192789 	-0.00383868 	1.15261e-21 0.0195473 	-0.0030841 	9.61944e-22 0.0201049 	-0.00115936 	4.6316e-22 0.0201592 	-0.00054059 	3.77061e-22 0.0200836 	4.25429e-05 	3.22045e-22 0.0200129 	0.000627446 	2.65374e-22 0.0199474 	0.00121364 	2.07078e-22 0.0194859 	0.00359528 	0 0.0191045 	0.00470392 	7.45529e-23 0.0185097 	0.0057426 	1.82241e-22 0.0179449 	0.00680891 	2.79167e-22 0.0172059 	0.00796283 	4.59226e-22 0.0155195 	0.00961491 	1.04884e-21 0.0147632 	0.0113763 	1.85163e-21 0.0139167 	0.0131539 	2.57476e-21 0.012256 	0.0149765 	2.81128e-21 0.0106198 	0.0167633 	2.99111e-21 0.010541 	0.016849 	2.99724e-21 0.0100498 	0.0178005 	3.26938e-21 0.00956657 	0.0187322 	3.51912e-21 0.00896464 	0.0195072 	3.50446e-21 0.00838263 	0.0202726 	3.48913e-21 0.00726762 	0.0217696 	3.45754e-21 0.00688142 	0.0224397 	3.49099e-21 0.00650331 	0.0230979 	3.52065e-21 0.00613299 	0.0237443 	3.54673e-21 0.00577415 	0.0243137 	3.52778e-21 0.00546224 	0.0245658 	3.33689e-21 0.0048494 	0.0260721 	3.2949e-21 0.00393517 	0.0269292 	3.075e-21 0.00303157 	0.0277179 	2.84502e-21 0.00220872 	0.0281633 	2.44411e-21 0.00161548 	0.0278452 	1.66203e-21 0.00108749 	0.0286905 	1.58935e-21 0.000330768 	0.0289735 	1.3131e-21 -0.000596723 	0.0288213 	8.86598e-22 -0.00137817 	0.0281695 	4.4698e-22 -0.00197788 	0.0269419 	-5.44108e-24 -0.002651 	0.0268413 	-1.85748e-23 -0.00353371 	0.0260696 	-1.27516e-22 -0.00451866 	0.0249898 	-2.78045e-22 -0.00553399 	0.0238421 	-4.34208e-22 -0.00635086 	0.0219259 	-5.55487e-22 -0.00679504 	0.0214372 	-5.58634e-22 -0.00725325 	0.020651 	-3.26686e-22 -0.00772628 	0.0198134 	-6.10417e-23 -0.00821486 	0.0189646 	2.05251e-22 -0.00836221 	0.0187136 	2.83079e-22 -0.00919896 	0.0176123 	5.36037e-22 -0.0100859 	0.0165075 	7.71066e-22 -0.0110241 	0.0154037 	9.85387e-22 -0.0118372 	0.0141902 	1.20841e-21 -0.0129138 	0.0123704 	1.51996e-21 -0.0141935 	0.0110046 	1.98876e-21 -0.0154989 	0.00966979 	2.38125e-21 -0.0162986 	0.00844454 	2.20742e-21 -0.0164213 	0.00734885 	1.33149e-21 -0.0164771 	0.00692764 	9.74419e-22 -0.0184507 	0.00555066 	5.84651e-22 -0.0205341 	0.0042669 	1.7976e-22 -0.0209894 	0.0034615 	0 -0.0202839 	0.00253117 	0 -0.0197527 	0.00182927 	0 -0.0214167 	0.00085251 	0 -0.0223966 	0.000116723 	0 -0.0224756 	-0.000324032 	0 -0.0217606 	-0.00083721 	0 -0.0204589 	-0.0013978 	0 -0.0216493 	-0.00217952 	0 -0.0225163 	-0.00285649 	-5.36398e-23 -0.0223886 	-0.00322357 	-2.65922e-22 -0.0208152 	-0.00365901 	-1.18464e-21 -0.019074 	-0.00413045 	-2.21383e-21 -0.0197157 	-0.00477547 	-3.33189e-21 -0.020373 	-0.00543203 	-4.45508e-21 -0.0197998 	-0.00614436 	-5.22666e-21 -0.018 	-0.00667575 	-5.35963e-21 -0.01613 	-0.00730416 	-5.55858e-21 -0.0162016 	-0.00772056 	-5.69818e-21 -0.01589 	-0.00816195 	-5.64981e-21 -0.015095 	-0.0086374 	-5.36619e-21 -0.0143098 	-0.00913623 	-5.10306e-21 -0.0139272 	-0.00939493 	-4.98401e-21 -0.0133648 	-0.00996587 	-5.20262e-21 -0.0128215 	-0.0105629 	-5.46951e-21 -0.0122843 	-0.0111793 	-5.74008e-21 -0.0113668 	-0.0116568 	-4.83714e-21 -0.0100894 	-0.0123817 	-3.62146e-21 -0.0093321 	-0.0132359 	-2.97826e-21 -0.0085985 	-0.0141156 	-2.40298e-21 -0.00785847 	-0.0148362 	-2.2177e-21 -0.00702944 	-0.014939 	-3.23094e-21 -0.0065442 	-0.0150144 	-3.859e-21 -0.00535993 	-0.0166596 	-4.99656e-21 -0.00425713 	-0.0184242 	-6.18814e-21 -0.00341317 	-0.0188434 	-6.61968e-21 -0.00244767 	-0.0182769 	-5.98878e-21 -0.00172523 	-0.0178665 	-5.47522e-21 -0.000703464 	-0.0193257 	-5.86024e-21 0.000112856 	-0.0203007 	-5.82882e-21 0.00059401 	-0.0203735 	-5.10916e-21 0.00118188 	-0.0196139 	-3.9475e-21 0.00181662 	-0.0184601 	-2.57451e-21 0.00269189 	-0.019424 	-1.61714e-21 0.00355615 	-0.0203852 	-6.58966e-22 0.0039871 	-0.0201176 	-8.54051e-23 0.00444043 	-0.0185787 	-2.0297e-22 0.00494285 	-0.0170112 	-3.23156e-22 0.00563054 	-0.0174069 	-4.55292e-22 0.00632248 	-0.0176376 	-5.51904e-22 0.00695785 	-0.0167318 	-4.49003e-22 0.00761577 	-0.0158389 	-3.3524e-22 0.00817919 	-0.0143242 	-1.21843e-22 0.00829191 	-0.0143232 	-9.57425e-23 0.00840165 	-0.0142878 	-7.08838e-23 0.00849437 	-0.014095 	-5.1745e-23 0.00858906 	-0.013904 	-3.25204e-23 0.00867358 	-0.0137387 	-1.56418e-23 0.00935391 	-0.0129623 	1.28929e-22 0.0101064 	-0.0122418 	2.80981e-22 0.0109314 	-0.011583 	4.40258e-22 0.0114193 	-0.010429 	5.92976e-22 0.0122929 	-0.00868618 	8.45803e-22 0.0125767 	-0.00847064 	8.80531e-22 0.0128673 	-0.0082608 	9.1671e-22 0.0131497 	-0.00805231 	9.52315e-22 0.0132017 	-0.00777929 	9.57262e-22 0.0132516 	-0.00754801 	9.62565e-22 0.0144112 	-0.00663512 	9.33196e-22 0.0156874 	-0.00579246 	9.19933e-22 0.0161447 	-0.00486177 	8.6359e-22 0.0158763 	-0.00402053 	7.44011e-22 0.0157187 	-0.00345574 	6.68237e-22 0.0169571 	-0.00272191 	3.1362e-22 0.0178964 	-0.00209515 	5.74653e-23 0.0180296 	-0.0016682 	1.83025e-23 0.0176977 	-0.00110809 	4.5152e-23 0.017015 	-0.000478459 	1.249e-22 0.0180329 	0.000194695 	3.30804e-23 0.0183716 	0.000674802 	0 0.0183361 	0.00104636 	0 0.0177948 	0.00154101 	0 0.0166045 	0.00219696 	0 0.0171862 	0.00286111 	0 0.0176536 	0.00349485 	0 0.017413 	0.00395353 	5.78849e-24 0.0158893 	0.00473258 	1.80431e-22 0.0143476 	0.0056175 	3.74184e-22 0.0143647 	0.0064602 	2.86145e-22 0.0140358 	0.00743478 	3.37032e-22 0.0127304 	0.00870788 	7.43009e-22 0.011483 	0.010057 	1.18633e-21 0.0107018 	0.011 	1.50492e-21 0.0105875 	0.0112778 	1.61943e-21 0.010477 	0.0115572 	1.73508e-21 0.0102938 	0.0118427 	1.81009e-21 0.0100487 	0.0121341 	1.84995e-21 0.00975671 	0.0124909 	1.90036e-21 0.00874364 	0.014335 	2.50005e-21 0.00785048 	0.0161852 	3.0865e-21 0.00702251 	0.0179689 	3.59928e-21 0.0060072 	0.0193882 	3.7284e-21 0.00556008 	0.0200739 	3.78918e-21 0.0050936 	0.0222025 	4.03294e-21 0.00469484 	0.0243241 	4.27477e-21 0.00435515 	0.0257205 	4.07907e-21 0.00362598 	0.0263035 	3.59795e-21 0.00297892 	0.0268179 	3.15478e-21 0.00256346 	0.0284093 	3.17156e-21 0.00227501 	0.0295526 	2.93764e-21 0.00213675 	0.0301332 	2.3832e-21 0.00180139 	0.0303319 	1.72263e-21 0.00119287 	0.0299866 	9.21891e-22 0.000668178 	0.0308152 	8.54985e-22 0.000410024 	0.030873 	7.74199e-22 0.00024985 	0.0306468 	6.88895e-22 -9.47206e-06 	0.0301904 	5.16417e-22 -0.000581996 	0.0290021 	6.44975e-23 -0.00122387 	0.0289477 	5.29288e-23 -0.00158172 	0.0281929 	9.2172e-23 -0.00184426 	0.0271897 	1.48879e-22 -0.00222243 	0.0258443 	1.53942e-22 -0.00278732 	0.0239433 	7.67497e-23 -0.00354902 	0.0229891 	1.08462e-22 -0.00426087 	0.0218447 	1.39915e-22 -0.00476578 	0.0202257 	1.8468e-22 -0.00533809 	0.0179677 	7.51299e-22 -0.00605198 	0.0155202 	1.38484e-21 -0.00712506 	0.013779 	2.34045e-21 -0.00817212 	0.0120048 	2.96929e-21 -0.00878297 	0.0100999 	2.55571e-21 -0.00952007 	0.00826168 	2.07344e-21 -0.00984051 	0.00762865 	1.86983e-21 -0.0104481 	0.00708983 	2.09821e-21 -0.0110874 	0.00657425 	2.33733e-21 -0.0113441 	0.00613502 	2.19828e-21 -0.0115218 	0.00572467 	1.97435e-21 -0.0119221 	0.0049211 	1.53961e-21 -0.0125004 	0.004259 	1.27836e-21 -0.013124 	0.00364752 	1.03733e-21 -0.0137866 	0.00308413 	8.15488e-22 -0.0138446 	0.00275496 	7.08045e-22 -0.0127945 	0.00283074 	7.94546e-22 -0.0147853 	0.00200965 	5.56545e-22 -0.015593 	0.00134703 	3.31884e-22 -0.0161675 	0.000745397 	1.1585e-22 -0.0155118 	0.000494592 	0 -0.01349 	0.000631335 	0 -0.0156866 	0.00016673 	0 -0.0168894 	-0.000283111 	0 -0.0170043 	-0.000718776 	0 -0.0160938 	-0.000944673 	0 -0.0140415 	-0.000942227 	0 -0.0160279 	-0.00113445 	0 -0.0164286 	-0.00142257 	-1.8345e-22 -0.0161747 	-0.00175696 	-4.48731e-22 -0.0158746 	-0.0020905 	-7.18815e-22 -0.0141922 	-0.00229222 	-9.96999e-22 -0.0153322 	-0.00235384 	-8.99092e-22 -0.0148201 	-0.0026517 	-1.20914e-21 -0.0143533 	-0.00296924 	-1.53545e-21 -0.0139361 	-0.00330799 	-1.87926e-21 -0.013589 	-0.00365328 	-2.22553e-21 -0.0135858 	-0.00365903 	-2.23291e-21 -0.0135826 	-0.00366479 	-2.24031e-21 -0.0135795 	-0.00367056 	-2.24771e-21 -0.013575 	-0.0036764 	-2.25475e-21 -0.0135495 	-0.00368326 	-2.25611e-21 -0.0129784 	-0.00406584 	-2.27799e-21 -0.0124608 	-0.00448929 	-2.33847e-21 -0.0120195 	-0.00496084 	-2.4428e-21 -0.0113932 	-0.00549339 	-2.458e-21 -0.00950535 	-0.00622925 	-1.88961e-21 -0.00907715 	-0.00693931 	-1.34653e-21 -0.00869187 	-0.00772066 	-8.87665e-22 -0.00752777 	-0.00817212 	-8.23576e-22 -0.0064664 	-0.00872701 	-8.68067e-22 -0.00624927 	-0.00887919 	-9.0494e-22 -0.00585128 	-0.00948067 	-4.66798e-22 -0.0054829 	-0.0101176 	-3.40439e-23 -0.00506102 	-0.0103331 	-4.19755e-22 -0.00465494 	-0.0105371 	-8.69975e-22 -0.00383821 	-0.0110276 	-1.81521e-21 -0.0035266 	-0.0113849 	-2.04663e-21 -0.00323251 	-0.0117625 	-2.29444e-21 -0.00295505 	-0.0121588 	-2.55726e-21 -0.00275025 	-0.0123397 	-2.83372e-21 -0.00278004 	-0.0116717 	-3.09267e-21 -0.00206445 	-0.0131051 	-5.13253e-21 -0.00145819 	-0.0135643 	-5.93443e-21 -0.000885374 	-0.0140857 	-6.69179e-21 -0.000530547 	-0.0139435 	-6.64223e-21 -0.000605248 	-0.0123714 	-5.00997e-21 -0.000153853 	-0.0141232 	-6.38748e-21 0.000314652 	-0.0148165 	-6.43364e-21 0.000791429 	-0.014909 	-5.69777e-21 0.00113575 	-0.0144966 	-4.52087e-21 0.00119599 	-0.0129118 	-2.41295e-21 0.00138872 	-0.0144296 	-1.83554e-21 0.0017309 	-0.0143026 	-1.35495e-21 0.00210113 	-0.0140237 	-9.0482e-22 0.00248331 	-0.0137949 	-4.77372e-22 0.00279336 	-0.0129316 	-4.26446e-22 0.00280946 	-0.0133859 	-6.16924e-22 0.00295481 	-0.0131293 	-5.95616e-22 0.00310658 	-0.0128868 	-5.72158e-22 0.00326503 	-0.0126592 	-5.46455e-22 0.0033877 	-0.0125019 	-5.25654e-22 0.0035831 	-0.0123388 	-5.44313e-22 0.00378804 	-0.0121949 	-5.63568e-22 0.00400274 	-0.012071 	-5.83428e-22 0.00422222 	-0.011885 	-5.90015e-22 0.0044265 	-0.0110838 	-4.91803e-22 0.00484971 	-0.0109275 	-3.70529e-22 0.00526798 	-0.0106617 	-2.41267e-22 0.00570878 	-0.0103588 	-1.08727e-22 0.00609358 	-0.00920343 	-8.48519e-24 0.006676 	-0.00792539 	1.16787e-22 0.00686849 	-0.00781441 	1.27018e-22 0.00707249 	-0.00771441 	1.37932e-22 0.00722067 	-0.00747356 	1.51679e-22 0.00735624 	-0.00718617 	1.67121e-22 0.00747149 	-0.00697839 	1.79611e-22 0.00809906 	-0.00635571 	2.4181e-22 0.00883341 	-0.0058083 	3.11146e-22 0.0092985 	-0.00522893 	3.37124e-22 0.0095743 	-0.00463696 	3.31942e-22 0.0103812 	-0.00339306 	3.36728e-22 0.0104242 	-0.00337183 	3.37011e-22 0.0104399 	-0.00335266 	3.34617e-22 0.0104475 	-0.00333414 	3.31423e-22 0.0104552 	-0.00331568 	3.28243e-22 0.0104635 	-0.00329589 	3.24837e-22 0.0107962 	-0.00279938 	2.70183e-22 0.0112017 	-0.00233981 	2.20693e-22 0.0116738 	-0.00191566 	1.76116e-22 0.0121479 	-0.00153916 	1.38493e-22 0.0110904 	-0.00162075 	1.72546e-22 0.0123884 	-0.00117912 	1.22555e-22 0.0128624 	-0.000767783 	7.44963e-23 0.0131312 	-0.000373747 	2.78679e-23 0.012763 	-0.000145335 	0 0.0114071 	-0.000161035 	0 0.0128532 	8.09867e-05 	0 0.0133933 	0.00039847 	0 0.0133293 	0.000768102 	0 0.0128545 	0.00106599 	0 0.0115038 	0.00121898 	0 0.0128282 	0.00128603 	0 0.0125833 	0.00163456 	0 0.0121976 	0.00203371 	0 0.0118676 	0.00245306 	0 0.0110764 	0.00288799 	0 0.0114759 	0.002884 	0 0.0112129 	0.00308201 	0 0.0109386 	0.00329599 	0 0.0106775 	0.00351951 	0 0.0105102 	0.00367755 	0 0.0102064 	0.00409263 	0 0.00995497 	0.0045376 	0 0.00975836 	0.00501255 	0 0.00927138 	0.00560237 	1.1447e-22 0.00809425 	0.00654352 	4.80212e-22 0.00746378 	0.00775708 	4.26155e-22 0.00699285 	0.00908974 	4.36041e-22 0.00593531 	0.0106571 	9.46192e-22 0.00488949 	0.0123532 	1.64598e-21 0.00477661 	0.0125926 	1.74741e-21 0.00439394 	0.0147106 	2.50792e-21 0.00399734 	0.0166703 	3.09148e-21 0.00355347 	0.0184572 	3.48921e-21 0.0031815 	0.0202304 	3.88668e-21 0.00260759 	0.0213371 	3.97936e-21 0.0023893 	0.0231467 	4.06969e-21 0.00223064 	0.0244321 	3.83189e-21 0.00208947 	0.025719 	3.59768e-21 0.00196311 	0.0270073 	3.36653e-21 0.00167362 	0.0280017 	3.05906e-21 0.00147415 	0.0288765 	2.68798e-21 0.00135443 	0.0294574 	2.15058e-21 0.00123822 	0.0300389 	1.61608e-21 0.00112533 	0.0306208 	1.08432e-21 0.000970279 	0.0311145 	5.32052e-22 0.000850658 	0.0310755 	4.82883e-22 0.00076185 	0.0309473 	4.32126e-22 0.000672765 	0.0308193 	3.81899e-22 0.0005834 	0.0306914 	3.32206e-22 0.000343409 	0.0303495 	2.00629e-22 0.000303916 	0.0302959 	1.77624e-22 0.000264344 	0.0302421 	1.54964e-22 0.000224694 	0.0301881 	1.3265e-22 0.000184964 	0.0301338 	1.10684e-22 0.000149083 	0.0300673 	9.92483e-23 -4.75624e-05 	0.0290709 	1.72164e-22 -0.000255512 	0.0280591 	2.33806e-22 -0.000471125 	0.0270427 	2.91272e-22 -0.000535738 	0.0267481 	3.06497e-22 -0.000613276 	0.0264029 	3.27208e-22 -0.000691914 	0.0260578 	3.47805e-22 -0.000771695 	0.0257128 	3.68283e-22 -0.000852663 	0.025368 	3.88637e-22 -0.00094627 	0.0249856 	4.03386e-22 -0.00121115 	0.023372 	4.88072e-22 -0.00147961 	0.0217248 	5.70821e-22 -0.00177533 	0.0200803 	6.49233e-22 -0.00210482 	0.0184398 	7.22222e-22 -0.00248243 	0.0165587 	9.74584e-22 -0.00297786 	0.014751 	1.493e-21 -0.00342121 	0.0127875 	1.708e-21 -0.00399157 	0.0108476 	1.98881e-21 -0.00459573 	0.00891143 	2.11443e-21 -0.00492995 	0.00648382 	1.27063e-21 -0.00568275 	0.00487509 	9.43184e-22 -0.00671623 	0.0034968 	7.27606e-22 -0.00605393 	0.00319539 	8.50048e-22 -0.00514171 	0.00305113 	9.89098e-22 -0.00631062 	0.00178642 	4.57917e-22 -0.00808407 	0.000768977 	-2.34586e-36 -0.0076513 	0.000727811 	-2.22028e-36 -0.00646902 	0.000848807 	1.14949e-22 -0.00470672 	0.00104135 	2.92291e-22 -0.00669752 	0.000220256 	5.429e-23 -0.0072495 	3.34088e-05 	0 -0.00722202 	3.32822e-05 	0 -0.00657166 	7.9543e-05 	0 -0.00464886 	0.000217567 	0 -0.0068454 	-0.000247038 	0 -0.00748951 	-0.000338059 	0 -0.00776811 	-0.000350634