/*--------------------------------*- C++ -*----------------------------------*\
| =========                 |                                                 |
| \\      /  F ield         | OpenFOAM: The Open Source CFD Toolbox           |
|  \\    /   O peration     | Version:  v1912                                 |
|   \\  /    A nd           | Website:  www.openfoam.com                      |
|    \\/     M anipulation  |                                                 |
\*---------------------------------------------------------------------------*/
FoamFile
{
    version     2.0;
    format      ascii;
    class       volScalarField;
    location    "0.1";
    object      p;
}
// * * * * * * * * * * * * * * * * * * * * * * * * * * * * * * * * * * * * * //

dimensions      [0 2 -2 0 0 0 0];


internalField   nonuniform List<scalar> 
1466
(
94.9052
93.9002
94.7909
95.6947
94.7501
94.4574
89.7145
94.0526
95.0012
88.7069
95.7621
91.503
96.7874
96.375
96.3196
96.4064
95.8515
95.9786
95.5086
96.2917
96.1693
93.8801
91.4265
94.1449
96.4598
95.44
95.4697
93.5109
89.9164
93.8835
93.9453
93.9357
92.1483
92.7581
95.2257
96.2915
96.0529
96.1552
94.8384
92.6042
90.8729
95.349
94.723
92.5668
91.6703
93.9345
96.1474
95.7729
95.5657
96.1496
94.9169
88.8865
94.7476
94.7573
93.4421
94.9204
96.2104
95.8803
95.5339
95.2575
96.3948
93.4779
94.4859
94.5544
93.4275
96.2704
94.424
96.187
95.5497
95.0522
95.2894
95.6551
96.1512
95.3678
96.1451
88.983
95.369
95.5786
89.3847
95.2888
95.1467
95.2627
96.2635
95.7094
96.1222
96.1091
96.1083
92.9455
96.2407
93.9928
95.7156
96.1263
95.6201
95.6263
94.9117
96.1426
94.2536
95.0648
94.3983
95.8574
89.2966
93.3924
94.5013
94.3864
96.2045
94.5646
96.201
96.2427
94.453
96.5256
95.8315
95.8647
94.8913
96.1424
96.7797
95.6569
95.9667
96.1706
93.9733
95.7752
96.1821
95.2792
95.5955
93.0777
96.4881
95.9255
96.7712
94.8383
95.7274
95.5243
95.9355
95.4793
94.3804
93.6439
95.1234
95.3842
95.0704
96.0883
90.8296
95.3016
88.8988
96.1508
95.8205
95.6226
91.2305
97.1074
94.1443
94.0657
93.7219
96.1386
95.8198
96.7383
94.2191
94.2804
95.7849
95.5365
95.5235
95.2279
95.9142
93.6881
92.8628
96.0055
93.3133
96.1638
93.9669
95.5006
95.5018
96.2638
96.4012
95.493
96.0961
96.0913
96.7581
94.3917
95.4933
93.924
94.4822
95.5009
96.3619
95.5517
95.6918
96.1959
95.9144
96.3518
93.3864
96.0637
96.2326
95.7821
96.2695
94.7374
95.2043
96.5138
96.141
93.1922
96.1774
95.6394
90.5471
96.4902
96.4271
96.4329
94.971
95.8322
96.2227
96.4001
96.7231
95.4783
96.2142
93.5833
96.3177
96.5423
96.5309
94.9799
95.8466
96.1012
94.1304
96.2507
93.2079
95.9224
96.2238
95.6268
96.0248
94.8483
96.3624
96.1321
94.9662
96.1175
96.2718
96.5116
96.1993
95.3089
96.0838
92.5787
95.9928
95.9704
96.2869
96.6625
95.9949
93.8511
96.0056
96.5626
95.1636
95.9789
96.1
94.7196
94.9107
96.213
95.3665
96.1728
96.1046
96.2081
95.7021
94.842
95.6742
92.4328
96.3193
94.7031
96.3229
95.5682
95.5428
88.8486
96.0906
96.112
94.275
93.5666
94.5505
96.3192
94.9744
94.9807
95.8376
95.6132
94.4243
95.6472
96.0767
96.156
96.1262
95.5521
92.825
96.7422
94.55
95.2317
96.5777
96.1858
96.1923
96.7809
95.8254
96.0663
95.6085
96.065
95.6314
94.9539
96.1036
95.307
95.5807
88.7319
95.799
95.7528
96.0377
95.531
95.7845
95.7507
95.9044
95.0784
96.7146
95.5869
96.4007
95.7192
92.0569
95.9326
96.7907
95.0737
95.3706
94.9174
95.808
92.1962
95.8296
95.8585
94.9765
95.4461
90.297
96.7497
96.1281
95.1569
95.9582
95.9353
93.1433
95.6799
95.219
95.7989
95.5071
95.0528
94.195
95.8537
95.3086
94.8677
93.7566
95.8825
95.8802
95.4564
95.0242
95.1251
94.3874
95.8495
95.3808
95.0379
95.7424
95.2863
94.7236
95.8525
95.8234
95.7791
95.6136
96.0823
95.3876
95.8066
95.8841
95.8601
94.9731
94.5184
95.0033
95.682
95.4991
94.9844
95.3579
94.6251
94.5055
95.7735
95.1291
95.4025
95.8471
94.5568
95.2064
95.8562
94.86
95.867
94.9463
94.0719
95.5811
95.4225
96.1003
95.7818
96.0758
93.7031
95.7183
95.0332
94.653
95.6433
96.0396
95.8249
96.0557
95.8541
95.9433
95.2837
95.4494
95.7427
96.761
96.3583
95.474
95.3717
96.1894
95.8956
95.2349
95.3898
95.6957
96.0784
89.8701
95.8199
95.6689
95.3787
95.8264
94.348
95.8278
96.0133
95.6955
92.6177
95.7031
95.9028
95.5788
95.4589
95.9593
95.9553
95.4853
95.6993
93.3549
90.4589
92.4481
91.7288
90.9871
91.9099
89.7048
89.8071
94.9049
95.8385
95.6526
95.7949
96.4692
95.783
95.8228
93.3955
95.7448
95.6064
96.5584
95.9346
95.9545
95.9842
95.7929
95.7366
95.5708
95.5351
95.5531
95.6217
95.47
95.6023
95.9842
95.4309
95.9766
95.7837
95.5385
95.5922
95.7807
95.7748
95.9119
95.5727
95.4973
95.6272
96.3163
96.2765
95.9691
95.8351
94.7883
95.817
96.1322
95.896
95.7711
95.8862
93.2421
93.1711
95.9253
95.9694
94.0861
93.3821
94.6576
95.8259
92.8507
95.817
92.6539
94.4581
95.8222
95.0559
92.5285
90.1835
92.5256
94.305
95.7922
95.1369
96.6844
93.6962
93.0564
96.1178
96.3864
96.4906
94.1674
95.8117
95.8498
95.4864
95.2076
95.7113
89.9947
95.9038
95.5325
95.8761
95.5844
92.9943
95.5759
95.8925
95.996
95.7076
94.1239
95.766
95.5105
95.6221
95.5359
95.7603
96.3845
95.9524
95.6625
96.0172
96.4404
96.2502
95.8822
95.2019
95.8078
95.5296
95.7923
95.6696
95.9826
96.2136
93.0595
96.2613
96.1292
95.9026
96.2927
95.9897
95.5558
96.1387
95.7867
96.0432
94.9276
95.6966
95.8611
93.9273
95.7783
96.2268
96.0877
95.7601
95.5949
95.555
94.9187
95.8526
95.4789
95.6024
95.8209
95.8955
95.6716
95.642
89.8947
95.4981
96.1462
96.6962
95.6893
95.6853
96.2758
95.414
95.5867
92.0454
93.8239
95.4539
94.1442
95.2725
95.6512
95.5072
95.9481
96.4815
95.5124
95.6218
96.1638
95.3603
93.6715
95.6233
95.6655
95.6777
92.9357
96.6033
90.4652
94.4812
93.8469
95.6992
94.5041
95.7747
95.7718
95.6237
95.6184
93.459
95.6957
93.4383
95.3834
93.7546
95.3495
95.8216
95.5999
95.616
95.6812
95.504
95.8341
95.6899
96.7436
95.3315
95.66
96.3133
95.7908
91.8961
95.4022
96.1667
96.1671
95.7329
95.409
95.4205
95.8316
96.6064
96.1865
95.8895
94.5607
95.6524
94.4046
94.998
94.834
95.6512
95.1811
95.9468
93.3775
95.5448
96.2046
96.0837
96.2296
95.5925
95.4851
93.7271
94.0081
95.5176
95.5604
96.2213
96.6413
95.7038
95.67
95.6712
95.7187
94.0955
95.0349
95.926
96.2361
94.3852
96.4257
95.8349
92.4736
94.8907
95.2584
96.0235
95.0771
96.0416
95.8137
95.8289
96.248
94.4607
95.9909
93.6496
92.584
96.1394
95.8646
95.89
95.055
95.8909
92.1446
95.0167
96.1324
93.8201
95.6751
95.3015
92.8551
95.8163
94.4061
93.1803
95.9369
96.2548
95.7008
95.9491
95.6448
96.271
95.109
96.0713
95.9052
95.8321
95.5807
93.5227
95.5451
96.0671
95.9047
94.5869
95.732
95.7541
95.5798
92.723
95.2768
95.1168
90.7305
92.7116
95.5415
95.5784
95.3005
95.6402
96.2569
95.4343
95.6217
95.4309
95.7235
95.75
95.6074
96.0905
95.6187
96.6274
96.0346
91.6524
95.503
94.6848
95.955
95.9461
96.0074
95.3991
95.8388
96.0227
95.5259
95.4531
94.4318
95.6978
96.0418
95.9885
93.3803
95.7903
96.6497
93.747
96.1166
94.3074
93.7312
93.7893
95.8835
95.8171
95.6911
94.6176
95.2795
95.4771
93.4449
95.937
94.6436
94.6466
95.8744
92.1906
96.5176
95.566
90.1666
94.2373
93.3758
94.4973
94.9855
95.3256
95.3992
96.1193
95.7878
96.0269
96.7366
94.7551
96.7
95.2404
94.2727
96.0348
96.7983
96.7119
95.7571
95.8297
95.5725
96.1202
95.7987
96.3354
94.6868
95.8653
91.6735
96.6597
93.6001
96.0958
95.8981
95.8239
94.7218
95.9961
93.5976
95.6114
95.6904
94.7466
93.286
94.337
95.5502
96.1934
95.3375
93.9745
94.9484
94.9353
96.1964
95.5074
96.3623
94.1596
95.4392
94.6
94.2398
94.9627
94.1702
94.7146
95.0045
95.7924
96.2627
96.266
94.4707
96.0772
96.028
95.0026
96.1408
95.9316
94.5905
95.6357
95.7378
94.6972
92.6376
95.8252
96.0358
95.6882
95.9162
96.0409
90.7455
95.5285
96.0266
95.6483
94.9869
94.582
95.1679
95.7179
95.8401
95.8615
95.6357
95.5973
96.158
95.126
95.6906
95.8129
94.2234
94.9925
94.4791
96.054
95.3708
94.1478
95.7522
92.9655
95.312
96.2047
95.475
94.7545
95.7608
95.9816
95.461
92.2509
94.2108
96.1031
95.7399
92.7552
95.3654
95.3172
95.129
94.7183
95.6247
95.8168
95.0705
94.0886
94.1408
93.5183
95.1287
94.2925
95.9794
96.1199
95.7698
96.586
95.7454
95.6851
95.3919
95.4376
95.4183
93.5042
94.4452
95.7944
95.8254
95.9934
95.294
95.8444
96.1393
96.2685
94.0511
93.8576
96.6501
95.2981
95.2903
96.3445
95.8292
96.5813
89.0001
96.0104
93.0034
96.6834
92.0176
95.9995
95.5526
95.121
95.5597
96.4011
96.2103
95.8553
95.8823
95.5553
95.7556
92.3998
95.8012
95.329
95.812
95.4476
96.1588
94.8221
96.2058
96.3753
96.316
96.1059
96.2199
93.637
93.409
93.8089
93.8208
96.4081
93.8518
93.9689
96.4283
96.4528
96.4775
94.3844
96.5073
96.5422
90.8909
94.9427
92.775
96.1859
94.1337
95.4321
95.7916
96.5866
95.1939
94.4665
95.5428
95.5312
94.9446
96.2251
94.6751
95.6831
95.9397
95.1497
95.5833
94.7669
95.8166
93.6794
94.2914
96.3991
95.5173
95.6738
95.6246
95.4355
96.1954
94.7263
87.7112
94.5006
95.8433
95.7436
94.3137
89.592
94.6234
94.426
95.5316
95.2179
95.7289
95.5236
95.5444
95.5378
94.5873
94.5215
94.003
96.2212
93.3976
96.4156
96.3477
95.2181
96.59
95.5907
96.2092
95.0524
95.8173
95.8485
96.0217
91.0224
95.8439
94.0351
95.9077
95.1437
96.2085
95.6243
95.4012
93.3259
92.4738
92.4009
89.0789
95.0933
94.7044
94.0427
96.1778
93.3323
95.499
92.2628
96.0834
94.5799
95.6261
96.0839
96.0397
96.7368
96.3553
96.0458
95.8469
94.8009
95.3205
95.8294
94.5424
96.7681
94.6738
95.845
94.2102
95.0693
95.3205
95.4905
95.2811
95.8799
95.556
95.2053
95.9141
96.0584
95.6235
95.6962
95.012
96.6196
95.8331
94.556
96.2523
95.5892
92.6168
91.8068
95.9824
91.0427
95.8459
94.3731
95.6227
96.0193
92.0258
92.975
94.1078
95.7222
89.8685
96.4005
92.7656
95.434
93.976
91.4776
95.7208
91.2322
93.9375
96.1776
95.5753
95.7757
96.0394
95.5946
95.9815
95.9089
95.8027
95.477
91.1185
95.8157
95.8457
91.894
96.0744
95.5213
95.7993
96.0676
96.6571
93.3181
92.351
94.8733
95.4598
95.6237
96.0658
95.1311
95.4754
95.3472
96.008
93.1525
96.1591
91.9285
96.1706
94.7844
95.2251
94.9621
96.2235
95.8664
94.9715
95.2136
90.7516
95.5793
95.8963
95.1464
96.0688
95.0091
95.8768
95.0458
95.7502
95.5436
95.4972
95.3463
94.9713
95.3213
96.0098
95.8313
96.2132
92.3383
96.6937
94.2691
95.114
95.8313
94.7552
96.2219
96.1927
96.628
96.5039
95.5742
96.5643
95.929
95.308
95.6769
94.363
95.4621
95.2315
90.8673
95.2539
93.7888
95.7672
96.401
95.3385
95.2214
95.6308
95.79
95.3724
95.5616
95.1259
93.525
93.6905
94.5074
96.3757
95.83
95.8222
94.0035
95.4703
96.3376
96.3
96.7656
95.7782
94.0148
95.508
94.1231
95.7741
96.0747
96.5295
95.4692
95.981
95.4595
95.4872
95.3856
96.7801
91.4986
96.0543
95.4418
94.5503
96.0551
95.2971
92.2066
96.1634
95.6017
95.3875
95.635
95.6861
95.8212
95.2795
94.517
95.6333
96.2472
95.397
95.019
95.5779
96.5192
89.4207
94.4088
94.2137
96.0645
95.3863
95.6898
95.595
95.4265
95.509
95.5851
95.8537
94.7936
96.79
95.2589
96.205
95.5957
95.0769
93.0782
94.8796
95.0106
89.428
95.5482
95.5904
95.6023
95.29
95.559
94.954
92.0344
94.7761
96.069
96.3488
96.003
95.9115
95.4967
95.3648
96.6539
95.8882
95.059
95.3403
95.5831
93.4761
95.929
95.8057
94.3837
94.4017
96.703
96.1749
92.9727
93.3463
96.03
95.935
95.4519
88.6673
96.0766
95.3427
95.4852
95.2845
95.6997
96.1785
96.4568
95.0353
97.0628
91.3153
96.4181
95.9127
92.6045
95.0868
95.9673
94.5623
94.638
91.4661
95.2842
95.457
94.9517
95.4895
95.5403
94.9396
96.7503
94.6433
95.9455
95.4996
95.2981
96.1096
95.9976
95.464
93.4756
95.7908
95.1911
96.0501
95.8183
92.5038
93.7541
95.6734
95.2204
96.0509
95.0277
94.3239
95.048
95.8897
95.5023
95.8784
95.0291
93.3754
96.2909
88.4719
95.5895
93.4474
89.239
95.9615
95.7118
95.2447
95.5096
95.8605
94.7863
91.4408
95.5133
96.0055
95.8867
93.9152
95.607
94.4598
95.458
95.6814
95.8608
94.2808
96.247
96.0382
95.1271
95.8755
93.43
95.1936
96.257
94.9918
95.881
94.126
95.7693
95.6135
91.329
95.2641
95.5219
95.8543
94.6624
96.3592
94.8031
96.0873
94.3908
95.0284
95.8393
95.6028
96.7251
95.8667
94.9656
95.838
94.6732
96.203
95.8884
96.4423
95.2593
96.1266
92.0379
96.1762
96.4168
94.3678
96.0611
89.9629
96.5231
96.3235
93.0561
96.06
93.9614
96.2918
93.7112
94.2708
95.6954
96.0705
96.1214
96.1846
91.8902
95.3205
96.0654
89.7984
90.3712
95.542
95.846
94.6838
95.7106
96.0674
94.5892
95.9546
94.7403
96.467
96.4358
94.3902
96.0868
93.8332
96.4808
95.8231
96.4499
95.4322
95.4989
94.7005
95.6526
91.8174
96.4733
96.3077
93.4136
91.7307
96.5766
95.4289
91.6807
93.9106
94.6364
96.0944
96.1428
93.4749
94.5341
93.9549
96.4106
95.9844
94.6807
93.8859
90.5347
96.6756
94.326
94.399
94.962
96.4261
93.0427
96.3764
95.9324
95.292
96.0492
95.6471
95.3709
95.3898
96.4873
94.7878
95.2206
95.0068
97.547
93.7533
94.4226
98.5877
89.6629
96.7626
82.8719
)
;

boundaryField
{
    frontAndBack
    {
        type            empty;
    }
    wallOuter
    {
        type            zeroGradient;
    }
    inlet
    {
        type            zeroGradient;
    }
    outlet
    {
        type            fixedValue;
        value           nonuniform 0();
    }
    wallInner
    {
        type            zeroGradient;
    }
    procBoundary2to0
    {
        type            processor;
        value           nonuniform List<scalar> 
42
(
95.1577
95.1577
93.2346
93.4148
95.1148
94.861
93.029
93.029
95.0191
94.7704
95.2558
95.2558
95.1969
95.4378
95.5006
94.7379
95.4654
94.6468
94.9008
93.8899
92.7935
94.525
94.525
92.8543
92.7935
94.303
93.2961
94.1014
93.2961
95.2328
95.4227
93.8361
93.4562
92.99
92.6489
93.4148
95.4654
93.5215
94.2505
92.7498
92.7498
92.5931
)
;
    }
    procBoundary2to1
    {
        type            processor;
        value           uniform 94.5493;
    }
    procBoundary2to3
    {
        type            processor;
        value           nonuniform List<scalar> 
29
(
94.8462
94.1451
91.2055
92.8162
95.1855
94.8987
89.0494
94.4456
91.9949
92.2818
94.7837
95.085
94.8464
89.3964
90.1744
89.1059
90.9062
90.9062
94.1451
89.3964
89.9292
90.9946
90.585
91.9947
90.3044
90.9212
91.9949
95.262
95.085
)
;
    }
}


// ************************************************************************* //
