/*--------------------------------*- C++ -*----------------------------------*\
| =========                 |                                                 |
| \\      /  F ield         | OpenFOAM: The Open Source CFD Toolbox           |
|  \\    /   O peration     | Version:  v1912                                 |
|   \\  /    A nd           | Website:  www.openfoam.com                      |
|    \\/     M anipulation  |                                                 |
\*---------------------------------------------------------------------------*/
FoamFile
{
    version     2.0;
    format      ascii;
    class       volScalarField;
    location    "0.08";
    object      k;
}
// * * * * * * * * * * * * * * * * * * * * * * * * * * * * * * * * * * * * * //

dimensions      [0 2 -2 0 0 0 0];


internalField   nonuniform List<scalar> 
1466
(
0.0915906
0.0902169
0.100209
0.128991
0.0958921
0.0943657
0.165278
0.0975829
0.391167
0.0894122
0.104456
0.101949
0.345989
0.0965505
0.0965289
0.140216
0.0953315
0.0803009
0.140221
0.116746
0.127888
0.142286
0.112726
0.119
0.32366
0.077485
0.336935
0.116444
0.0988551
0.15096
0.100188
0.0837916
0.0891557
0.104235
0.90346
0.132556
0.101646
0.0896332
0.0823353
0.0924629
0.0916481
0.120052
0.0918067
0.0821941
0.0834003
0.116226
0.303029
0.0749109
0.0752638
0.076037
0.0827572
0.0894637
0.089666
0.0862761
0.074525
0.321017
0.0804859
0.10833
0.0802797
0.0852396
0.103491
0.105284
0.106283
0.0938995
0.195129
0.169079
0.119138
0.193397
0.208065
0.0974948
0.116855
0.092894
0.114772
0.269231
0.0963679
0.790471
0.0999647
0.100175
0.080162
0.142525
0.090606
0.104371
0.122542
0.129153
0.196778
0.160263
0.113419
0.209185
0.0872652
0.155987
0.0831499
0.267792
0.189179
0.172622
0.124252
0.0859077
0.0917231
0.137597
0.360201
0.0833551
0.0869842
0.0841157
0.0748265
0.0719473
0.094999
0.0999256
0.0806186
0.077475
0.0896171
0.0870489
0.0987932
0.603221
0.0975387
0.0989174
0.083532
0.0939815
0.176589
0.112907
0.141213
0.141042
0.112898
0.0981332
0.0970824
0.0834594
0.0840886
0.12993
0.157143
0.0979763
0.135965
0.14088
0.0808255
0.191766
0.105309
0.118686
0.0874008
0.116148
0.108285
0.0829687
0.11848
0.12635
0.0834876
0.123215
0.148094
0.128125
0.146462
0.178644
0.0854103
0.109835
0.141064
0.202382
0.0865531
0.094653
0.169866
0.13492
0.147802
0.17564
0.108545
0.126865
0.0961475
0.208015
0.0877333
0.132591
0.129615
0.125451
0.157659
0.117037
0.143882
0.112186
0.131248
0.153018
0.133443
0.125382
0.0831669
0.186236
0.0803782
0.24514
0.171845
0.140568
0.0928956
0.110055
0.298516
0.0946598
0.172876
0.0913237
0.242464
0.169439
0.206102
0.134147
0.236489
0.138938
0.145292
0.10347
0.281469
0.141362
0.199311
0.0945619
0.0863077
0.26117
0.128032
0.18331
0.178665
0.140668
0.137121
0.118379
0.113975
0.129758
0.122818
0.183661
0.109776
0.118548
0.131009
0.209787
0.131059
0.125727
0.129517
0.143913
0.173349
0.218831
0.15313
0.137696
0.106642
0.093442
0.142139
0.100199
0.130551
0.174861
0.108642
0.113572
0.087835
0.0931739
0.101422
0.295649
0.137032
0.189815
0.129397
0.131287
0.147897
0.120132
0.134375
0.141
0.162451
0.145983
0.171618
0.191763
0.132722
0.137957
0.0823505
0.247707
0.13778
0.185453
0.162275
0.173464
0.202027
0.247185
0.102197
0.101498
0.105532
0.202515
0.130898
0.125499
0.0894007
0.101383
0.119267
0.0936293
0.230836
0.0679291
0.0779457
0.144657
0.10393
0.198286
0.145253
0.155015
0.0887435
0.117717
0.0852176
0.105785
0.0917218
0.265261
0.137751
0.139872
0.0937926
0.232688
0.26464
0.175195
0.23906
0.0989106
0.147634
0.153251
0.0830148
0.201108
0.158268
0.0900647
0.324266
0.0661797
0.275282
0.110769
0.224265
0.0928256
0.142478
0.093161
0.0960547
0.0961041
0.0505667
0.244098
0.12276
0.283608
0.235268
0.0956076
0.184246
0.108326
0.137889
0.107684
0.164151
0.168159
0.169642
0.178154
0.191789
0.194233
0.0961655
0.0981245
0.0966355
0.187353
0.118521
0.0928902
0.122775
0.246073
0.0945426
0.204757
0.0914293
0.0970775
0.0885003
0.224224
0.102899
0.238412
0.222381
0.188706
0.228506
0.12719
0.213934
0.107907
0.0992821
0.168049
0.093888
0.216161
0.145171
0.0497186
0.192367
0.203248
0.272128
0.211006
0.237286
0.175247
0.172735
0.201988
0.230787
0.217412
0.15364
0.176404
0.179877
0.194882
0.251199
0.258938
0.248236
0.110363
0.0939715
0.123223
0.159525
0.145701
0.148804
0.226774
0.174565
0.249446
0.200732
0.195831
0.0997783
0.101123
0.108052
0.184543
0.140639
0.270102
0.122202
0.131326
0.116344
0.111907
0.120094
0.124451
0.0958304
0.0956843
0.0956197
0.0962604
0.285907
0.178461
0.123741
0.181661
0.168038
0.260599
0.100008
0.173023
0.178517
0.103934
0.118405
0.110531
0.15222
0.133292
0.145618
0.141668
0.153344
0.155879
0.112231
0.242567
0.10733
0.16816
0.177311
0.194545
0.190995
0.113067
0.121677
0.167748
0.100381
0.10797
0.308291
0.231829
0.122894
0.17729
0.124025
0.12535
0.392838
0.225411
0.150288
0.143595
0.0961093
0.233091
0.173857
0.257454
0.094996
0.108606
0.1002
0.130228
0.0958399
0.0963165
0.120211
0.115876
0.0966154
0.0990862
0.0947752
0.0978468
0.515268
0.0947804
0.100568
0.0981913
0.095138
0.111477
0.163718
0.363143
0.227462
0.0943512
0.15051
0.138543
0.112437
0.0948097
0.094848
0.236734
0.138214
0.153074
0.106206
0.114429
0.14136
0.204235
0.234638
0.14634
0.207215
0.157502
0.108059
0.115731
0.0945755
0.122762
0.109009
0.119213
0.156241
0.160683
0.200683
0.158764
0.135908
0.139331
0.15846
0.218426
0.160472
0.135355
0.233361
0.222802
0.176636
0.115594
0.0975857
0.140443
0.124242
0.138091
0.103622
0.118116
0.183206
0.109833
0.108118
0.103408
0.147006
0.127506
0.151963
0.105853
0.179794
0.0954438
0.18477
0.113937
0.101448
0.141758
0.114013
0.166212
0.103581
0.109472
0.209088
0.337196
0.283791
0.0991948
0.106797
0.237101
0.125168
0.216649
0.1284
0.18002
0.225275
0.223611
0.177382
0.126086
0.238817
0.222496
0.217278
0.140874
0.117071
0.216472
0.280806
0.193753
0.211103
0.154537
0.235372
0.11829
0.153925
0.125238
0.177593
0.250433
0.179474
0.278649
0.123935
0.0950976
0.208906
0.225236
0.229502
0.117554
0.189707
0.107727
0.112599
0.12294
0.305593
0.265889
0.117271
0.190322
0.094385
0.20746
0.254204
0.144153
0.140895
0.117844
0.206917
0.101161
0.119609
0.113804
0.138268
0.164216
0.144334
0.123629
0.178362
0.10164
0.115797
0.122378
0.145348
0.101288
0.104699
0.108758
0.118038
0.132724
0.114448
0.163173
0.13292
0.137977
0.112693
0.255548
0.270312
0.105729
0.160517
0.146497
0.149747
0.197308
0.154725
0.14622
0.214525
0.238544
0.220144
0.20727
0.133945
0.321493
0.0983559
0.101732
0.0977574
0.10562
0.138895
0.14775
0.250614
0.275054
0.172845
0.19181
0.157482
0.223997
0.150298
0.117847
0.217807
0.0959825
0.099883
0.274415
0.404973
0.106357
0.199693
0.274309
0.213448
0.100763
0.176727
0.179603
0.143514
0.2374
0.10219
0.177803
0.137118
0.14435
0.157811
0.163417
0.122094
0.250406
0.181156
0.0964291
0.101527
0.261725
0.247991
0.106376
0.186566
0.224017
0.102648
0.258559
0.215275
0.0943087
0.21976
0.102587
0.229628
0.162512
0.0924668
0.178976
0.137089
0.379844
0.1647
0.213709
0.193264
0.144206
0.145644
0.149614
0.127155
0.214941
0.0938361
0.119772
0.252836
0.104069
0.100961
0.0961491
0.0964034
0.0754952
0.0945964
0.169611
0.173111
0.0954194
0.0725097
0.140686
0.113164
0.272668
0.135764
0.0793617
0.168637
0.0892608
0.219484
0.151718
0.192058
0.147842
0.121151
0.0763077
0.142969
0.237422
0.14287
0.113072
0.101834
0.128604
0.0833691
0.0918584
0.108355
0.10783
0.137247
0.21392
0.0730084
0.112183
0.133614
0.103972
0.130408
0.175226
0.119995
0.148534
0.250754
0.105004
0.212684
0.147542
0.859305
0.118074
0.132867
0.22378
0.179773
0.102258
0.166099
0.187661
0.178522
0.0515709
0.245557
0.176925
0.240448
0.102643
0.151211
0.154079
0.0995462
0.13951
0.133479
0.12705
0.101105
0.096262
0.102238
0.113829
0.153339
0.16197
0.164396
0.0559929
0.128601
0.146357
0.170079
0.167982
0.0749281
0.138552
0.1406
0.181463
0.165367
0.158315
0.179783
0.133809
0.200793
0.223644
0.101096
0.169567
0.170484
0.149297
0.113181
0.251181
0.125536
0.168223
0.108839
0.18157
0.097104
0.0972077
0.318004
0.153334
0.188703
0.104793
0.154828
0.181266
0.248428
0.252471
0.119586
0.250434
0.199711
0.098436
0.0971729
0.101621
0.105114
0.173583
0.141156
0.205606
0.154681
0.213253
0.0988896
0.154335
0.124616
0.371336
0.115236
0.273129
0.244939
0.220696
0.104213
0.0968773
0.204897
0.0927193
0.049285
0.224651
0.227377
0.144661
0.101448
0.141651
0.0939226
0.13218
0.107011
0.0972259
0.336389
0.118016
0.0839609
0.13473
0.17673
0.104839
0.169534
0.137651
0.105054
0.104058
0.188391
0.160592
0.167156
0.0902982
0.140241
0.270259
0.163644
0.131088
0.102384
0.139354
0.11382
0.0965723
0.197023
0.186405
0.152677
0.10423
0.111768
0.0962508
0.197591
0.152607
0.172304
0.10674
0.105938
0.204771
0.162989
0.21528
0.129057
0.154987
0.150013
0.118638
0.188651
0.0909136
0.0987424
0.146703
0.211772
0.10214
0.277203
0.188886
0.0867984
0.154032
0.136583
0.217876
0.11063
0.12695
0.13484
0.0692531
0.278872
0.102185
0.174992
0.202743
0.108243
0.1077
0.104633
0.110347
0.0972132
0.100777
0.098076
0.0976341
0.103808
0.0984882
0.100662
0.101048
0.106125
0.107974
0.0959867
0.0959479
0.101978
0.084961
0.0895113
0.100442
0.0954876
0.086055
0.0883978
0.109241
0.110086
0.110198
0.112751
0.510066
0.362785
0.0536709
0.247153
0.170812
0.117725
0.235672
0.0958747
0.0951459
0.109978
0.0886703
0.101589
0.10033
0.157068
0.157005
0.0991727
0.222977
0.32083
0.0962903
0.153082
0.0945312
0.145612
0.111407
0.104338
0.109482
0.0969346
0.0962651
0.1932
0.0680422
0.219346
0.172927
0.0991409
0.269959
0.110948
0.128525
0.140754
0.142356
0.0935742
0.125603
0.0904938
0.106758
0.113685
0.116132
0.137245
0.0811794
0.31853
0.149837
0.119116
0.121056
0.132058
0.371036
0.268868
0.215909
0.0880085
0.0957335
0.275783
0.266204
0.110438
0.11698
0.105474
0.181212
0.220597
0.119184
0.102941
0.0948983
0.168628
0.234695
0.123229
0.201868
0.111684
0.172181
0.0951453
0.0906855
0.097102
0.150024
0.141642
0.0861304
0.106154
0.214278
0.122548
0.101289
0.336865
0.10783
0.103267
0.0941241
0.122168
0.221243
0.0744195
0.0969417
0.0962746
0.166463
0.103814
0.131596
0.133999
0.348734
0.101472
0.107813
0.130262
0.202341
0.204091
0.200914
0.0827712
0.127954
0.128108
0.0971789
0.0934871
0.356265
0.158337
0.107068
0.0914774
0.0543494
0.171445
0.110622
0.107979
0.0971256
0.139729
0.118825
0.0801936
0.21524
0.159795
0.194223
0.114397
0.0826597
0.121462
0.121649
0.119129
0.0991426
0.0987645
0.128791
0.0971894
0.139104
0.178317
0.236595
0.151941
0.0952144
0.209179
0.268278
0.101543
0.21748
0.0952071
0.0904473
0.191767
0.109215
0.0947093
0.0612632
0.185096
0.112889
0.105767
0.0999616
0.0800483
0.138442
0.235212
0.248755
0.116702
0.150058
0.0968601
0.0807615
0.238447
0.183776
0.150003
0.202739
0.0751612
0.107765
0.0791922
0.101405
0.0988435
0.0388368
0.18271
0.156274
0.0626354
0.222171
0.0645157
0.093521
0.180563
0.0637377
0.0650026
0.127764
0.110586
0.410679
0.103605
0.0589102
0.0622528
0.0577148
0.0604356
0.259287
0.286295
0.067144
0.0666161
0.0660572
0.0655387
0.421051
0.210814
0.264117
0.134423
0.094375
0.265942
0.108656
0.0948658
0.0847514
0.121069
0.140606
0.110923
0.114338
0.130004
0.146795
0.129911
0.117911
0.127431
0.0702903
0.10513
0.117421
0.148675
0.0657015
0.821868
0.720397
0.152341
0.120173
0.162704
0.109299
0.20855
0.116378
0.0893661
0.178221
0.113738
0.0918445
0.190193
0.108152
0.244482
0.198552
0.0966829
0.0996607
0.228989
0.201779
0.147663
0.117101
0.114591
0.166699
0.101157
0.122735
0.0942069
0.0927859
0.1655
0.13915
0.120824
0.297198
0.272909
0.16071
0.101611
0.315094
0.353656
0.108608
0.112698
0.118649
0.0903102
0.105624
0.21911
0.102621
0.377644
0.154657
0.086574
0.118474
0.227142
0.210037
0.140407
0.159624
0.15836
0.10491
0.103547
0.158142
0.167153
0.101381
0.0945306
0.172125
0.162411
0.210541
0.113157
0.107227
0.193688
0.519026
0.0990028
0.120331
0.100321
0.143924
0.104823
0.255926
0.264713
0.227135
0.245536
0.16083
0.135848
0.101422
0.0985681
0.0929569
0.159058
0.305717
0.163633
0.0861485
0.138217
0.0941141
0.105722
0.13366
0.151554
0.0960759
0.196912
0.294357
0.205693
0.139431
0.211753
0.0762346
0.177402
0.0995985
0.0968018
0.187732
0.0995372
0.398843
0.176674
0.103039
0.103894
0.11823
0.173145
0.17103
0.19211
0.255831
0.0969564
0.0972967
0.0952338
0.1194
0.203059
0.142866
0.0957077
0.159341
0.134059
0.130946
0.10767
0.107297
0.0959691
0.0960551
0.153448
0.107105
0.166485
0.1803
0.0894681
0.135026
0.0904944
0.0926022
0.106362
0.238749
0.197183
0.105723
0.126295
0.134073
0.10415
0.360832
0.11001
0.0965604
0.12489
0.207697
0.190036
0.0959064
0.171307
0.108087
0.113959
0.152661
0.21154
0.182566
0.183282
0.234623
0.293419
0.09368
0.147134
0.0666223
0.106553
0.259887
0.153074
0.104874
0.112971
0.105456
0.162187
0.176811
0.227454
0.124204
0.0775046
0.460902
0.149444
0.254284
0.247364
0.157001
0.10242
0.23289
0.164361
0.142104
0.1279
0.0814003
0.165203
0.0943437
0.387954
0.13742
0.147488
0.169962
0.0960016
0.330086
0.21597
0.206073
0.179143
0.110692
0.299269
0.10329
0.207823
0.190247
0.0977953
0.0974098
0.0988934
0.0948001
0.105341
0.163795
0.0542679
0.245842
0.140098
0.223457
0.104894
0.3403
0.0542201
0.325298
0.0528039
0.227984
0.107187
0.137925
0.088956
0.180659
0.058597
0.104296
0.247724
0.226134
0.124787
0.127939
0.145622
0.121593
0.0816476
0.155889
0.0828494
0.132065
0.0817891
0.289567
0.186424
0.180675
0.208587
0.171775
0.0791036
0.0939659
0.177779
0.112571
0.118807
0.130716
0.12558
0.105286
0.18797
0.182296
0.104991
0.0920595
0.196076
0.0874026
0.130951
0.134269
0.217557
0.0763953
0.036105
0.0549859
0.152764
0.172783
0.267161
0.109446
0.135456
0.0876527
0.0915587
0.129218
0.133139
0.188692
0.262867
0.162535
0.390744
0.111546
0.127873
0.191173
0.123711
0.101328
0.144716
0.0833133
0.10417
0.146754
0.111368
0.125717
0.124002
0.44094
0.0997638
0.116198
0.131234
0.0797271
0.0942858
0.0937468
0.0897344
0.222356
0.155233
0.10033
0.125986
0.165438
0.117986
0.14672
0.0785374
0.104079
0.104859
0.0978484
0.111072
0.106628
0.240935
0.128821
0.152107
0.19202
0.10066
0.364769
0.103841
0.0929072
0.0799768
0.437898
0.128924
0.0901381
0.229827
0.0875372
0.122557
0.0961034
0.0820391
0.10594
0.206364
0.0815509
0.104226
0.171152
0.0875066
0.134955
0.101445
0.0883188
0.153875
0.205067
0.0928637
0.0826717
0.126246
0.224344
0.123506
0.071946
0.0930131
0.123199
0.403314
0.265686
0.224683
0.0842905
0.0821445
0.0855432
0.145026
0.0843023
0.0885311
0.0827057
0.0833268
0.0970948
0.079943
0.091483
)
;

boundaryField
{
    frontAndBack
    {
        type            empty;
    }
    wallOuter
    {
        type            kqRWallFunction;
        value           nonuniform List<scalar> 
108
(
0.0803009
0.092894
0.114772
0.0505667
0.0497186
0.113164
0.135764
0.0793617
0.0892608
0.121151
0.0763077
0.14287
0.128604
0.0833691
0.0730084
0.0515709
0.0995462
0.164396
0.0559929
0.104793
0.049285
0.101448
0.0965723
0.172304
0.1077
0.104633
0.110347
0.0972132
0.100777
0.098076
0.0976341
0.103808
0.0984882
0.100662
0.101048
0.106125
0.107974
0.0959867
0.0959479
0.101978
0.084961
0.0895113
0.100442
0.0954876
0.086055
0.0883978
0.109241
0.110086
0.110198
0.112751
0.0536709
0.157068
0.109482
0.0680422
0.0811794
0.105474
0.181212
0.10783
0.0827712
0.0543494
0.0801936
0.0826597
0.121462
0.21748
0.191767
0.0612632
0.235212
0.150003
0.202739
0.0791922
0.0388368
0.0388368
0.0626354
0.0645157
0.0637377
0.0650026
0.103605
0.0589102
0.0622528
0.0577148
0.0604356
0.259287
0.286295
0.067144
0.0666161
0.0660572
0.0655387
0.421051
0.0847514
0.121069
0.0702903
0.0657015
0.116378
0.0893661
0.315094
0.353656
0.086574
0.118474
0.398843
0.0666223
0.0814003
0.387954
0.0542679
0.0528039
0.058597
0.036105
0.0549859
0.0876527
)
;
    }
    inlet
    {
        type            fixedValue;
        value           nonuniform 0();
    }
    outlet
    {
        type            zeroGradient;
    }
    wallInner
    {
        type            kqRWallFunction;
        value           nonuniform List<scalar> 
126
(
0.0896332
0.0823353
0.0924629
0.0916481
0.120052
0.0918067
0.0821941
0.0834003
0.116226
0.303029
0.0749109
0.0752638
0.076037
0.0827572
0.0894637
0.089666
0.0862761
0.074525
0.321017
0.0804859
0.10833
0.0802797
0.0852396
0.080162
0.0859077
0.0917231
0.137597
0.360201
0.0833551
0.0869842
0.0841157
0.0748265
0.0719473
0.094999
0.0999256
0.0806186
0.077475
0.0896171
0.0870489
0.0989174
0.083532
0.0834594
0.0840886
0.0808255
0.191766
0.116148
0.108285
0.0829687
0.0834876
0.129615
0.0803782
0.0863077
0.130898
0.125499
0.0894007
0.0679291
0.0779457
0.145253
0.155015
0.0887435
0.0900647
0.0661797
0.110769
0.224265
0.0966355
0.187353
0.118521
0.176404
0.148804
0.200732
0.184543
0.173023
0.103934
0.225411
0.173857
0.257454
0.108606
0.130228
0.115876
0.163718
0.0943512
0.112437
0.166212
0.222496
0.189707
0.199693
0.162512
0.179773
0.154032
0.217876
0.21524
0.0817891
0.0791036
0.122557
0.0820391
0.10594
0.206364
0.0815509
0.104226
0.0875066
0.134955
0.101445
0.0883188
0.153875
0.205067
0.0928637
0.0826717
0.126246
0.224344
0.123506
0.071946
0.0930131
0.123199
0.403314
0.265686
0.224683
0.0842905
0.0821445
0.0855432
0.145026
0.0843023
0.0885311
0.0827057
0.0833268
0.0970948
0.079943
)
;
    }
    procBoundary1to0
    {
        type            processor;
        value           nonuniform List<scalar> 
29
(
0.153737
0.153737
0.14819
0.168662
0.359642
0.242042
1.04658
0.155523
0.493719
0.175168
0.180066
0.242042
0.14819
0.139087
0.968732
0.579562
0.359642
0.405422
0.168662
0.149701
0.404479
0.373095
0.436543
0.424602
0.424602
0.436543
0.405991
0.451597
0.405991
)
;
    }
    procBoundary1to2
    {
        type            processor;
        value           uniform 0.158004;
    }
    procBoundary1to3
    {
        type            processor;
        value           nonuniform List<scalar> 
48
(
0.100786
0.120812
0.110541
0.110541
0.18847
0.143222
0.143222
0.252783
0.106609
0.127339
0.143046
0.127339
0.102927
0.109953
0.125707
0.102927
0.0958044
0.0958044
0.0959845
0.0959845
0.0972587
0.0982895
0.0987814
0.142569
0.142569
0.124373
0.105467
0.105467
0.166448
0.209695
0.167374
0.166448
0.252783
0.120411
0.10237
0.209695
0.203092
0.143046
0.101097
0.129155
0.0996646
0.143238
0.120411
0.10237
0.140814
0.12078
0.152177
0.0996646
)
;
    }
}


// ************************************************************************* //
