/*--------------------------------*- C++ -*----------------------------------*\
| =========                 |                                                 |
| \\      /  F ield         | OpenFOAM: The Open Source CFD Toolbox           |
|  \\    /   O peration     | Version:  v1912                                 |
|   \\  /    A nd           | Website:  www.openfoam.com                      |
|    \\/     M anipulation  |                                                 |
\*---------------------------------------------------------------------------*/
FoamFile
{
    version     2.0;
    format      ascii;
    class       volScalarField;
    location    "1";
    object      epsilon;
}
// * * * * * * * * * * * * * * * * * * * * * * * * * * * * * * * * * * * * * //

dimensions      [0 2 -3 0 0 0 0];


internalField   nonuniform List<scalar> 
1466
(
8.64133
36.5881
9.11469
93.8643
5.56864
21.1835
4.31677
38.9591
9.36941
46.9439
59.7776
42.818
5.8926
4.92801
25.4423
80.5407
23.3969
99.6737
109.766
64.8894
109.989
64.9653
81.8683
53.2341
7.40535
9.0098
43.472
84.7877
6.2974
51.1456
69.4288
10.9232
8.94851
95.7337
124.411
54.3631
93.2534
28.9027
81.2884
2.2702
5.04257
59.6688
72.4664
6.87594
2.86121
17.8366
79.8444
2.98541
47.957
4.18608
16.1767
46.6059
27.5427
3.43287
13.7545
6.82291
12.8018
64.4581
5.62299
55.8858
19.0137
5.47071
2.44266
29.2272
76.8159
29.791
156.406
55.7425
34.6087
10.517
56.0276
146.941
82.685
6.9922
14.9115
81.3034
5.35941
2.48976
23.0407
71.3612
58.0768
74.6198
9.59273
81.2127
97.2819
144.374
85.6039
74.7834
65.2474
43.1604
12.1136
45.8267
125.478
5.88499
16.5992
10.8365
34.0637
72.3018
8.64354
6.36278
22.122
10.889
2.57749
75.2247
82.2193
55.7504
35.8486
3.45901
78.4969
9.96036
14.9477
98.9156
8.37873
64.4229
55.8397
20.9642
49.5431
41.1448
4.43031
2.08579
91.5484
6.05294
2.49685
8.12981
3.43692
60.8745
44.5875
79.2703
49.9092
32.1034
74.7332
54.0073
80.6947
51.9068
14.1509
5.1534
2.32629
18.082
4.47766
2.02893
5.29299
93.157
68.9266
74.7153
69.0354
163.287
10.8995
17.3314
49.8282
95.1504
14.0612
32.832
39.6526
8.84964
38.6894
63.1617
74.0363
78.0754
11.456
46.4718
10.2479
58.5882
127.805
80.431
103.163
79.5843
59.7521
88.9017
92.0023
39.7067
102.666
8.32067
3.23111
35.9522
29.7458
7.56641
43.0143
61.0993
12.9235
73.3196
8.97656
27.6959
128.725
2.9369
77.3459
146.187
100.703
47.6385
36.5086
39.1643
114.221
24.4544
113.995
172.147
42.6455
17.5267
10.3381
159.577
111.275
185.032
71.7173
40.5817
47.5166
26.5052
42.5136
92.0549
127.879
28.5203
11.3051
60.1295
96.1545
85.8339
128.319
93.8402
114.869
77.8395
145.21
99.1135
54.2706
55.1582
84.8504
22.3562
81.6313
21.4941
86.0181
80.5696
58.0702
3.0961
13.0705
21.3908
42.2339
82.6054
186.405
136.806
14.2073
70.9999
64.8221
82.1075
20.5362
110.748
52.2516
70.294
39.5948
198.194
16.7525
53.8213
10.5858
6.99399
70.9184
34.8155
132.348
83.1574
25.596
49.2967
7.94867
15.6996
73.6069
12.0595
113.667
121.62
90.6061
79.0619
51.4936
21.2711
64.4679
3.35426
39.0694
43.3991
100.078
11.8883
155.443
136.138
56.4555
11.9703
13.2029
25.8459
17.0725
58.334
99.7144
55.2585
19.0989
53.3021
77.3505
64.9462
60.4696
2.91754
54.8
50.9576
7.27555
20.2928
23.6776
8.84665
7.5598
13.3691
45.999
38.0147
223.357
4.35467
56.6186
18.5037
3.70789
33.147
5.95775
8.38852
81.9132
13.7765
8.59637
10.1691
38.4546
118.346
31.9342
108.777
58.134
34.4612
49.8474
43.7377
103.395
33.0683
5.33808
28.1895
36.6419
168.482
113.562
16.438
81.4525
17.0363
3.25817
34.176
13.8202
30.9463
74.4831
18.401
10.54
35.9889
92.4396
16.096
102.58
18.971
10.1822
5.47265
2.72317
31.6455
19.6122
70.4422
41.2186
6.8672
62.9336
42.4816
40.519
92.5886
31.3154
13.1222
62.1805
115.176
75.1562
108.789
85.5649
19.7349
8.19833
41.6
84.5638
95.7536
69.6018
42.5069
7.38359
187.543
28.1612
27.2114
62.7282
39.5377
35.208
111.642
108.402
31.2803
12.8375
94.8004
52.5302
111.358
5.56752
57.6542
55.1387
44.4078
62.5544
68.5957
51.7858
48.7908
15.7573
13.936
8.27792
3.93841
15.3652
32.4325
36.5803
30.7386
21.2801
9.10237
4.20967
109.306
16.2128
20.847
2.92696
2.28016
69.7396
5.13593
47.619
100.68
84.9967
29.4484
122.731
110.809
25.2878
98.3276
123.358
108.912
73.8156
6.48799
5.37822
50.5527
32.6926
10.5789
80.3472
82.5189
9.67498
129.725
7.28784
3.58463
56.0804
102.436
5.88888
3.25249
53.4266
10.7187
85.2187
219.899
31.8268
13.9991
7.10199
8.76742
3.99019
47.6296
6.80895
19.3871
52.6655
13.0234
27.5482
8.90302
26.8433
33.2902
7.5837
59.8895
33.5739
6.635
8.4425
11.4165
20.5267
16.0169
9.00866
28.857
12.3486
29.5477
8.0014
13.4758
11.1163
44.9163
52.0879
6.26121
33.9469
10.841
6.55297
30.9875
8.35064
20.5329
51.3643
1.9866
28.7881
5.51139
2.56749
50.3329
111.126
47.5126
36.2096
93.8012
86.8345
101.239
73.657
23.4677
4.84178
3.81428
123.164
74.5507
83.721
82.2845
17.1072
36.7567
25.1506
46.0416
81.7007
53.474
43.0106
53.3243
73.7703
93.9125
50.8178
84.2134
14.0558
68.1061
67.3069
34.153
5.22241
63.9809
26.0081
62.845
32.4262
171.359
81.6829
48.5397
14.642
10.2185
20.4322
28.6671
75.0873
6.88322
128.01
27.9813
54.3365
18.3424
9.6071
62.7778
21.6148
93.4189
9.25904
199.85
115.053
43.1301
58.6651
11.7668
34.3763
76.1535
17.8431
97.9474
21.9068
92.067
24.6526
29.3776
24.9991
30.9605
28.375
24.0135
117.383
31.3234
83.2032
5.57965
7.70916
55.7464
182.871
71.5251
65.6383
43.6052
57.324
17.7085
89.3168
92.5079
23.1119
39.3028
15.7084
24.9847
39.8801
126.56
79.5753
104.078
85.4244
126.075
26.1799
51.3786
15.6293
106.464
12.8945
93.8443
61.659
71.5853
36.2797
102.934
79.4446
57.2773
56.6403
28.239
95.6834
8.90749
49.0455
31.3816
84.2221
26.3999
50.6824
76.9929
131.589
75.1735
72.8527
56.9668
23.3045
66.2992
42.9205
14.3507
15.4043
30.1334
204.956
59.661
27.6371
1.70471
38.3828
86.6445
13.0328
118.825
22.8481
36.931
108.422
32.6748
52.7591
28.0011
25.5357
100.048
29.4532
3.53163
23.6368
20.0206
40.2216
75.3191
216.396
57.3065
70.5118
96.1114
59.434
23.3265
26.2574
16.7499
93.3127
12.217
92.6047
76.1882
47.8425
88.4934
123.834
82.1098
58.2545
23.1709
106.512
14.527
57.1518
100.707
59.5449
28.9278
93.9542
11.4154
33.8028
6.48678
114.177
101.566
6.17453
167.698
14.2431
6.16583
132.245
92.7652
8.39854
14.522
88.38
29.747
104.38
36.188
55.2405
5.16455
12.1932
17.0403
54.8577
5.82153
53.7153
4.31386
35.328
6.13353
12.274
19.4742
83.0363
12.7859
10.0997
149.716
18.1594
116.247
25.8992
8.09118
34.7099
11.4418
113.467
18.9672
16.2888
62.8017
19.4565
7.5876
51.9656
74.2615
28.021
51.2439
113.156
22.7605
9.39077
14.1089
78.7895
63.067
27.5847
7.92658
7.70422
68.3817
15.3801
134.51
7.32601
67.3001
126.027
92.7912
49.0868
73.4728
69.5916
57.3646
70.3039
100.974
154.599
55.1116
191.388
107.831
86.6918
15.0312
21.5677
7.72579
63.3332
109.606
65.2553
5.65585
131.786
80.3568
116.237
83.231
4.10187
110.36
94.5938
55.0273
97.8954
4.88777
3.08115
5.71756
33.0593
20.0088
21.4287
49.3559
84.1979
66.5186
10.0158
5.79101
114.14
112.281
158.662
88.6987
14.5388
107.042
91.9713
6.27148
28.4102
44.6751
140.759
46.4999
76.8388
120.933
70.5729
134.98
26.4503
8.6446
2.82845
7.34474
59.0992
112.752
40.6382
16.3222
27.1656
117.287
20.8423
13.1503
87.632
33.1341
87.3925
6.13092
38.7601
91.2402
73.4055
38.2327
38.5682
88.7246
100.849
7.00292
32.285
16.5835
107.876
60.3203
8.8441
11.1407
8.66067
61.3023
101.16
11.8067
39.3295
2.84138
12.5715
14.2775
62.482
89.0235
120.34
56.1663
76.859
46.4577
33.7091
11.4326
84.2274
82.704
13.3486
90.8758
101.454
79.623
22.7936
61.2536
4.81788
10.1011
92.9466
13.0546
18.3269
75.2016
71.7451
87.8498
12.9024
121.945
14.4625
26.6905
15.0709
13.906
9.0449
12.4095
18.3286
106.835
89.984
9.15286
81.2597
82.1764
34.5069
94.9073
37.059
58.1983
88.7356
61.5169
101.06
38.3882
30.8173
24.6657
68.0349
22.4957
65.1555
98.674
130.626
100.352
10.3946
15.4264
8.92514
36.7629
109.987
250.428
31.115
52.8244
37.1653
8.43744
50.9611
11.4336
119.533
10.9247
93.87
91.0475
101.472
85.4478
122.733
114.601
118.773
120.767
163.115
166.46
185.925
167.944
164.711
165.464
165.834
152.751
210.55
131.393
147.139
235.929
250.548
159.922
225.162
164.488
159.588
150.898
82.3408
96.8123
6.23211
8.35987
54.5219
10.5379
11.8958
5.4388
4.38767
24.7352
117.643
74.796
109.167
20.4922
31.6633
12.3427
47.2874
7.09409
51.2813
25.6109
121.572
34.7914
46.5476
125.762
73.7279
141.15
5.20638
2.50993
8.2678
9.18897
7.81794
40.3149
51.2002
50.061
90.1571
8.18211
3.49172
6.74081
12.7672
13.0913
24.3377
99.8531
5.76711
2.57815
30.7466
98.0078
42.6072
15.9184
52.0591
46.3444
67.9027
80.8649
96.4732
60.0956
8.51087
57.2668
100.159
47.5775
126.462
35.156
138.151
36.2543
73.8001
129.213
2.31932
52.3163
21.7023
59.9284
4.63426
98.5762
70.5276
98.0225
28.9606
29.6479
29.2439
78.0632
21.676
12.4229
6.95669
78.1954
130.877
104.299
21.108
138.977
109.971
27.6665
133.403
65.1279
10.5451
2.49776
34.0232
57.0088
127.38
208.442
62.5362
63.2602
5.191
13.6891
46.2279
43.3889
73.7176
13.4375
65.1244
5.93333
2.93708
2.0822
36.2103
7.9088
43.8402
80.159
10.2547
9.22588
136.73
11.5847
78.0692
20.2357
55.8428
114.468
103.614
120.932
82.9124
105.854
90.1355
99.9368
66.7673
86.7748
56.0463
3.29261
7.81882
121.999
33.4684
9.91246
20.2059
62.2082
34.0081
11.5708
54.9507
7.63079
35.9676
40.6802
6.5807
2.79536
39.3365
10.6544
22.5459
13.3516
36.2361
121.829
5.68847
2.53623
10.1365
85.9023
39.9791
5.6114
27.2071
119.011
14.0188
24.6869
10.6659
7.67128
29.8926
41.7745
6.46882
96.2629
90.4191
6.94075
2.73501
2.50476
47.3672
30.6415
11.4593
6.52039
12.3171
10.5328
7.07851
12.5102
12.664
4.92888
3.01839
8.27329
132.707
12.5739
12.8694
12.7001
12.9829
41.8481
45.8964
10.704
11.0597
12.263
12.6956
66.0389
84.9524
54.8931
28.3158
19.9503
102.145
113.595
32.6875
113.447
74.2328
37.1647
7.27176
3.26664
6.61719
115.541
62.9394
128.115
43.7443
8.25675
134.749
43.5178
48.2738
54.8496
121.068
97.7753
122.869
18.417
89.8902
32.2853
108.287
83.3857
142.085
7.0913
14.262
14.3937
62.7601
44.4024
64.135
72.6188
54.2632
7.68958
23.3462
18.993
38.7741
81.464
83.9348
118.711
108.788
7.81363
2.66344
29.4771
52.6777
46.7506
22.4543
12.6418
9.40313
41.9259
103.579
49.2055
58.2159
95.4475
7.90741
8.06607
22.3249
64.8661
36.613
108.802
22.9399
87.8281
129.988
81.5188
90.0128
121.681
37.3501
90.6375
92.1938
3.50412
7.74328
26.114
34.7394
8.55436
3.28326
75.5011
67.0112
65.043
103.046
111.016
123.491
39.2381
30.1874
76.178
71.1487
104.381
103.892
9.26351
10.6161
42.2302
58.5143
10.9497
92.7574
34.2255
10.8086
52.4167
45.211
21.0655
17.2434
10.0885
55.4691
8.29852
18.7522
41.3643
37.0717
22.9956
234.629
6.78606
9.60401
22.4078
5.24015
7.44139
39.6822
5.36217
2.46853
6.37321
52.3656
66.1502
116.7
105.201
94.4726
8.03722
67.6333
6.93243
64.8341
50.7292
3.11605
47.6984
47.5291
79.271
66.2138
64.9394
69.2062
97.2101
7.57596
5.12116
103.119
16.5124
3.48677
32.1843
6.59405
89.95
9.01831
121.42
8.83816
130.934
48.2976
2.30108
116.915
27.6943
7.30741
91.6223
76.0764
38.2552
74.0347
41.9174
103.639
46.7626
78.1094
6.75462
32.222
30.7908
111.119
39.7224
117.457
137.8
60.6698
145.01
170.298
151.968
7.32911
30.4155
54.198
10.3113
107.899
5.10357
68.7381
95.0009
13.212
120.308
52.0424
6.35868
38.6504
31.4197
6.58327
39.8461
13.7253
20.5426
15.8143
210.151
112.713
66.9459
87.0464
6.68633
9.08545
112.239
69.269
68.4745
65.7689
70.7279
72.4562
144.481
56.8172
45.067
110.532
6.6297
57.8868
120.275
94.5254
17.5057
5.32529
6.18492
5.21437
2.53281
10.9719
22.0501
80.9722
8.96192
11.8662
44.5053
9.36149
76.3106
101.245
90.6053
4.82002
89.9516
38.0244
6.88306
5.35464
5.89126
8.91409
202.229
10.6525
93.2826
21.3928
17.7649
7.1823
4.05897
99.346
6.81977
10.5316
73.9608
10.9587
93.6125
85.0728
118.128
59.0202
41.8746
22.7352
23.9025
54.7999
14.5966
32.3633
89.0849
4.21234
59.4521
76.1457
30.3605
65.4914
51.3147
113.353
22.188
47.9519
11.2545
51.8623
104.636
35.6671
8.13849
7.65907
14.6192
12.8515
99.4912
78.5022
39.7572
50.6425
142.789
25.827
96.9606
55.9583
64.5822
58.5126
8.39796
68.6974
95.4868
7.00434
36.0722
97.1
17.4757
137.518
35.3787
72.4585
126.704
70.0332
105.746
101.353
95.5493
97.5825
3.92336
5.39737
9.98035
3.71657
26.0694
9.43652
62.2074
32.2262
76.7507
51.2658
111.158
72.3802
116.605
10.3647
111.135
94.3385
10.0669
9.10537
128.597
41.999
13.3558
15.1859
70.4413
35.0401
169.799
31.1616
22.3562
9.94757
10.4479
66.96
76.1079
56.9333
13.0034
187.529
71.0069
47.8899
125.875
7.98844
15.4331
80.8092
66.447
5.66251
7.28893
41.093
9.98778
77.6764
125.584
31.511
14.6228
46.2409
162.765
66.7751
64.576
36.0029
73.7125
10.5298
7.8619
7.0838
5.8041
16.9676
2.55679
80.7215
6.81987
5.40345
120.669
12.4689
67.9503
29.7444
23.291
)
;

boundaryField
{
    frontAndBack
    {
        type            empty;
    }
    wallOuter
    {
        lowReCorrection 0;
        type            epsilonWallFunction;
        value           nonuniform List<scalar> 
108
(
99.6737
146.941
82.685
5.95775
6.8672
18.1594
25.8992
8.09118
11.4418
19.4565
7.5876
28.021
22.7605
9.39077
7.70422
7.72579
116.237
33.0593
20.0088
16.3222
12.5715
120.34
13.906
34.5069
91.0475
101.472
85.4478
122.733
114.601
118.773
120.767
163.115
166.46
185.925
167.944
164.711
165.464
165.834
152.751
210.55
131.393
147.139
235.929
250.548
159.922
225.162
164.488
159.588
150.898
82.3408
8.35987
31.6633
141.15
9.18897
98.0078
138.151
36.2543
138.977
65.1244
9.22588
103.614
99.9368
66.7673
40.6802
39.3365
13.3516
39.9791
29.8926
41.7745
90.4191
2.50476
2.50476
11.4593
12.3171
12.5102
12.664
132.707
12.5739
12.8694
12.7001
12.9829
41.8481
45.8964
10.704
11.0597
12.263
12.6956
66.0389
113.447
74.2328
8.25675
54.8496
83.3857
142.085
49.2055
58.2159
129.988
81.5188
66.1502
10.3113
112.239
65.7689
11.8662
38.0244
10.6525
7.65907
14.6192
142.789
)
;
    }
    inlet
    {
        type            fixedValue;
        value           nonuniform 0();
    }
    outlet
    {
        type            zeroGradient;
    }
    wallInner
    {
        lowReCorrection 0;
        type            epsilonWallFunction;
        value           nonuniform List<scalar> 
126
(
28.9027
81.2884
2.2702
5.04257
59.6688
72.4664
6.87594
2.86121
17.8366
79.8444
2.98541
47.957
4.18608
16.1767
46.6059
27.5427
3.43287
13.7545
6.82291
12.8018
64.4581
5.62299
55.8858
23.0407
10.8365
34.0637
72.3018
8.64354
6.36278
22.122
10.889
2.57749
75.2247
82.2193
55.7504
35.8486
3.45901
78.4969
9.96036
64.4229
55.8397
8.12981
3.43692
74.7332
54.0073
5.1534
2.32629
18.082
5.29299
127.805
29.7458
10.3381
113.667
121.62
90.6061
3.35426
39.0694
155.443
136.138
56.4555
8.84665
13.3691
38.0147
223.357
36.6419
168.482
113.562
19.7349
62.7282
108.402
111.358
109.306
20.847
102.436
85.2187
219.899
13.9991
8.76742
19.3871
8.4425
16.0169
12.3486
171.359
199.85
182.871
216.396
167.698
191.388
36.7629
250.428
120.932
85.0728
54.7999
187.529
47.8899
125.875
7.98844
15.4331
80.8092
5.66251
7.28893
41.093
9.98778
77.6764
125.584
31.511
14.6228
46.2409
162.765
66.7751
64.576
36.0029
73.7125
10.5298
7.8619
7.0838
5.8041
16.9676
2.55679
80.7215
6.81987
5.40345
120.669
12.4689
67.9503
29.7444
)
;
    }
    procBoundary1to0
    {
        type            processor;
        value           nonuniform List<scalar> 
29
(
2.19662
2.19662
3.86911
3.64534
42.8117
38.5982
127.357
25.7825
77.8249
7.88906
19.0468
38.5982
3.86911
1.84805
66.6195
21.9017
42.8117
53.0771
3.64534
1.93089
10.8558
6.17647
62.6764
10.8592
10.8592
62.6764
7.38796
78.4461
7.38796
)
;
    }
    procBoundary1to2
    {
        type            processor;
        value           uniform 5.41053;
    }
    procBoundary1to3
    {
        type            processor;
        value           nonuniform List<scalar> 
48
(
91.2021
80.3739
84.1551
84.1551
53.2705
87.3483
87.3483
10.9598
76.6168
7.30156
4.28265
7.30156
8.08911
5.15231
4.88494
8.08911
4.93843
4.93843
4.47878
4.47878
3.45777
3.16847
4.31205
21.785
21.785
2.21301
2.58722
2.58722
4.12107
43.2498
11.4687
4.12107
10.9598
58.0604
1.93601
43.2498
27.8442
4.28265
89.9024
45.0235
4.49651
43.4161
58.0604
1.93601
5.09505
66.3553
48.0113
4.49651
)
;
    }
}


// ************************************************************************* //
