/*--------------------------------*- C++ -*----------------------------------*\
| =========                 |                                                 |
| \\      /  F ield         | OpenFOAM: The Open Source CFD Toolbox           |
|  \\    /   O peration     | Version:  v1912                                 |
|   \\  /    A nd           | Website:  www.openfoam.com                      |
|    \\/     M anipulation  |                                                 |
\*---------------------------------------------------------------------------*/
FoamFile
{
    version     2.0;
    format      ascii;
    class       volScalarField;
    location    "0.47";
    object      k;
}
// * * * * * * * * * * * * * * * * * * * * * * * * * * * * * * * * * * * * * //

dimensions      [0 2 -2 0 0 0 0];


internalField   nonuniform List<scalar> 
5794
(
0.136313
0.0673267
0.232923
2.89047
2.85843
0.0945689
0.615741
0.170112
1.53032
0.383302
0.88771
0.196578
0.528332
1.62446
0.122061
0.0620746
5.42156
1.90968
0.129531
0.0960334
1.13699
0.0836888
0.800643
0.144476
0.689272
1.50839
5.44554
1.24152
2.06101
0.0657277
0.377091
0.200583
0.761416
0.279166
0.75567
0.922779
0.19661
0.692643
1.11832
1.89113
1.50237
0.192553
0.275642
0.143768
0.195303
1.06219
0.297427
0.30468
0.301619
0.310558
0.02194
1.38989
0.239876
0.387944
0.0218169
1.02163
0.193582
0.416875
0.219384
2.35627
0.947279
0.0615232
0.3418
0.326343
1.27418
0.0793141
1.51876
0.452263
1.96133
0.0949052
2.32041
1.69142
5.76535
0.290267
1.91196
0.67962
0.213111
1.21353
0.0928902
0.0749806
0.113156
0.124841
0.876551
0.867415
0.294575
0.923151
0.640784
1.02952
0.128908
1.10914
2.43239
0.929625
1.60559
2.46182
1.14816
2.38351
1.86339
1.4281
0.86483
1.03732
0.936896
0.126813
0.248199
1.85266
0.6812
3.18414
0.0609498
0.678161
1.56211
0.0777774
0.32661
0.230556
0.999375
0.130086
0.998144
1.89826
0.119542
2.59646
0.866451
0.493671
3.09991
0.0892063
0.2955
0.975741
0.253795
1.3952
1.60712
0.0790824
1.59791
0.688912
0.223104
0.658656
0.7063
1.10643
3.5138
0.128534
2.00458
0.062117
0.070614
0.416612
0.261509
1.66793
0.297095
1.73497
0.109127
5.93593
1.35804
0.934823
2.80453
0.905244
0.311045
0.258061
3.31205
0.159043
6.19364
0.659694
0.969808
0.784464
1.31866
0.377019
0.137742
0.320301
0.307104
0.620319
1.13696
1.23855
0.660419
0.255531
0.324949
0.169642
0.0660059
0.814076
0.450472
0.390157
0.170959
0.689937
0.0838291
0.393332
0.155258
1.28927
0.169433
0.184396
0.183993
0.920677
0.311667
3.51002
0.140165
0.452185
0.290835
0.102292
0.898576
0.178452
0.733484
0.23338
0.584287
0.152287
0.184639
0.284299
0.234702
0.273517
0.612019
1.21556
0.228529
0.418729
0.363034
1.07037
0.29566
1.15036
5.23049
0.997929
0.0925566
0.31122
1.24799
0.455652
0.234197
0.858128
0.856503
0.973982
1.07178
2.10042
0.304658
1.09508
3.69033
1.64589
1.99804
2.62501
0.130456
0.532803
0.983408
0.133624
0.420384
0.830082
0.232123
1.14851
1.15238
4.15379
5.4485
0.866344
0.45825
0.164927
0.100892
2.21391
1.01297
1.01948
0.303294
0.311433
0.354016
2.91534
1.33906
0.995766
0.66084
0.0873126
5.77831
0.0616989
0.211695
5.22165
0.262995
0.438544
0.833068
0.210304
1.50753
1.1965
0.386543
0.0887094
0.275151
0.513032
1.36509
1.67068
0.197415
1.31768
0.499904
0.451284
1.18054
2.01786
0.396947
0.125096
0.404597
0.247715
0.250546
0.540444
0.336116
1.6798
1.54735
0.19164
1.54784
2.35693
1.31721
1.52456
2.78511
3.23495
0.605956
0.785758
0.215147
0.349134
0.202832
1.68634
1.27728
0.231761
1.1863
0.0801011
0.105248
0.795372
0.0855741
1.36217
0.0780547
1.57276
0.247535
1.82653
1.28411
0.586111
0.655885
1.11412
1.10389
0.121054
0.29284
0.596017
0.861987
1.51133
1.52179
2.3506
0.319842
0.652209
2.32713
3.16915
0.0502351
0.832329
0.248651
0.148956
0.556012
0.821701
1.19338
0.277914
0.277202
0.613614
0.169486
0.318779
0.308346
0.313149
0.273553
0.334153
0.130327
0.499801
1.40989
0.728596
0.0961004
0.168445
1.21125
0.212491
1.4299
0.924002
1.35346
2.10019
0.780771
0.175439
0.204048
2.57788
0.34549
1.2648
0.603482
0.151435
1.02228
0.749304
1.78494
0.905631
0.233411
1.85015
1.12004
0.948705
0.221121
0.339674
0.376936
0.0696875
1.73759
0.124738
1.28246
1.28431
0.849441
0.2542
0.627096
0.148024
0.325927
0.384196
0.323594
0.857654
0.692749
0.330587
2.75523
1.35645
0.307846
0.748463
0.255893
1.23102
0.0784366
0.431259
0.322738
0.315388
0.159593
0.379018
0.147289
0.798517
0.19271
0.681273
3.97216
0.293749
0.199235
1.10237
0.297472
0.124602
0.0819786
1.85141
1.46313
0.855546
1.21713
0.605261
1.14927
0.47169
0.31095
2.23511
1.0785
1.73584
0.846082
1.35706
0.949896
0.363121
0.612572
0.343803
0.242807
0.136924
0.0629204
0.125797
1.40469
0.224666
1.53706
1.51699
0.360952
0.0987973
0.216454
0.741801
0.695769
0.524552
0.311269
0.269922
0.445865
0.190251
0.29674
2.0996
1.06565
0.0395114
0.463772
1.48981
0.299217
0.0798695
1.64912
0.0924198
2.02306
0.0839484
1.90835
2.47278
1.499
3.43608
0.0989616
0.0835215
0.353052
0.407156
1.13991
0.687911
3.22857
3.08313
0.988808
0.0935346
0.0259395
5.55325
1.53606
1.00475
0.341714
1.7355
4.90402
1.42434
0.165531
0.0833073
0.467049
0.0929885
0.366629
0.94602
0.954092
1.11022
0.309863
0.286824
2.23268
0.106708
0.0936734
2.45526
2.19989
3.30873
0.280641
0.398909
0.0714995
0.324827
0.0538868
0.993221
4.51277
5.48978
0.266833
0.655586
1.66359
0.079696
0.124638
0.640578
1.40994
0.086477
2.35275
0.237691
0.337641
0.0678506
0.0954683
0.94735
1.74377
0.0444292
0.222348
4.01857
0.156945
0.0709781
3.1887
2.77963
0.743002
0.100253
0.130152
1.00913
0.0916203
0.0809072
0.47354
0.0859733
3.15792
0.233929
1.55242
0.266963
0.240688
2.32046
0.662294
1.25333
0.10275
1.79758
0.072862
1.60005
0.225369
0.0497637
0.213826
1.76627
0.137698
0.0848537
1.88145
0.178785
0.0823597
0.098041
0.0959886
0.27806
0.427517
0.0789429
0.0939621
1.74048
8.29292
0.0523662
1.42924
0.328498
1.55248
0.29592
0.0639873
0.684989
0.0502358
0.0771882
1.2605
0.905045
1.37767
1.2704
1.50311
0.289731
3.54983
1.426
0.226088
1.49056
2.12421
1.09431
2.98752
3.28049
1.72451
0.949434
0.13686
1.84189
0.941298
2.15592
0.0855052
0.0855626
0.0655338
2.32205
1.16897
1.12502
0.105566
0.293811
0.0583617
0.33812
0.135961
1.40745
1.18565
2.4371
0.0954653
0.488255
1.89418
0.303198
0.0251288
0.249755
3.115
4.67087
1.65784
0.262332
0.16084
0.280677
0.907875
0.584915
0.266513
1.74205
0.0473452
1.21803
1.63164
0.936084
0.054958
0.101228
0.122169
2.09268
2.26028
0.128822
0.165372
0.0901623
0.034083
0.133239
0.0677987
0.493577
1.33747
0.488572
1.29738
1.38584
0.189231
0.288201
1.11705
1.01027
1.99119
2.64586
1.35486
0.738194
0.166588
0.0703859
0.049065
0.122955
0.227589
0.176072
0.16331
1.58033
4.55675
1.63536
1.80519
0.112641
0.196711
0.265013
0.088037
0.654403
0.0844476
1.50591
2.8709
2.43785
1.33554
1.19021
0.888977
0.256635
3.77151
0.549102
0.693095
1.26685
2.60563
0.285995
1.64761
0.147244
0.0611372
1.22149
0.352812
0.0531727
1.67352
2.07048
2.34386
0.275899
0.257292
0.0560377
1.17986
3.76584
1.22622
1.43511
0.260751
0.920191
1.15077
0.0818839
0.0589802
0.290459
0.282036
0.38018
0.082743
0.457886
1.73202
2.30984
1.24061
0.690849
0.204106
2.94392
0.522139
3.79651
1.57937
1.65175
1.37502
0.374477
0.267958
5.60657
1.24118
1.54573
1.93311
1.66524
2.3487
0.20826
4.93971
0.158525
0.376053
0.508443
2.89864
0.642489
1.28933
0.979165
2.88266
0.809444
0.31404
0.470657
4.31045
0.730621
0.910132
1.55182
2.17787
0.0550191
0.0456031
0.39937
0.0624129
2.20817
1.31721
2.49918
0.230913
0.283615
0.0610921
0.114971
0.273248
0.0824661
1.114
2.25764
0.20607
2.62729
1.1973
0.266009
0.28993
5.93369
2.11713
1.47933
2.92373
2.53094
1.37207
1.41024
0.137397
1.69825
0.904116
2.04426
1.72312
0.216782
1.37668
0.0948066
0.0979435
0.139234
2.11248
0.0985296
1.31557
4.99982
0.288325
0.107566
0.084919
2.20454
1.19701
1.3071
2.26634
1.15069
0.0592973
2.23855
2.11517
0.571778
0.220152
1.3039
0.0752933
2.38752
0.103442
1.36031
0.301591
0.940893
0.292635
0.0943038
0.0622314
0.323766
1.28563
1.66516
1.64861
4.07383
1.52005
0.247717
0.117038
0.656741
3.82808
0.410265
0.660034
0.684728
2.54806
0.0898121
0.100235
0.369841
0.895745
3.96211
0.134119
0.386921
0.32103
0.899647
0.235191
0.977704
1.96012
2.05652
0.283326
0.23991
2.68749
0.794712
0.110382
6.38335
0.117781
0.0745267
0.208872
0.0712558
0.985243
0.109633
0.497753
0.124248
0.26123
0.22196
0.316773
5.41377
1.24445
2.56058
0.89902
1.16498
1.6262
1.105
3.88965
1.34441
0.0852213
0.0791661
0.205301
1.72357
0.10243
1.377
3.8986
1.71471
1.46376
0.81887
0.229207
2.04376
0.0830109
0.349096
1.31629
0.112892
2.34749
0.317491
0.323721
1.0837
0.402592
0.22939
0.125506
2.03203
0.6796
0.261214
0.0735268
0.27232
0.831116
1.7207
0.076459
0.299771
0.985912
0.583655
1.40578
2.81504
1.98826
2.26922
2.57889
0.120659
0.0923874
1.43144
0.0852668
0.230284
0.0715768
0.131869
0.739339
0.0563686
0.254723
0.0988382
1.99738
1.27716
0.326887
0.273506
0.501736
0.973903
4.50695
0.912752
1.63336
0.234862
0.0946826
4.25968
0.364898
1.04928
0.25959
1.27655
0.982608
1.13964
0.0436914
1.53374
1.10879
0.0806893
0.107167
0.242378
0.0728851
0.0608078
0.738019
1.77759
2.68188
1.6512
0.850151
1.32169
1.32942
0.332178
0.0851633
0.123242
2.18068
0.0765158
5.71416
1.25647
2.06709
0.246844
2.75058
1.26789
0.0784219
0.0975191
5.38097
2.66729
0.305242
0.341257
0.474214
1.53033
0.224251
2.57761
0.0715018
0.195969
0.141365
0.0636941
0.059713
0.151217
0.0583732
0.0820948
0.0727006
0.098199
0.264786
2.14775
0.216422
0.299545
0.0938278
1.21986
0.299742
0.701683
0.249152
0.772484
0.0776091
0.630019
0.19954
0.499698
0.110358
0.482447
1.4761
0.0947798
0.304474
0.172757
0.0823376
0.291948
1.37647
0.432073
4.51652
1.84437
0.0917174
0.318696
0.531069
1.36883
0.558052
0.882035
1.22468
2.34106
0.0999025
0.108717
0.099058
0.0366968
0.424377
0.388426
1.75496
1.63215
1.4347
0.025509
0.71781
1.4358
1.06967
0.816714
0.978742
0.0602985
0.0898831
0.0825185
0.62083
0.303181
1.70111
0.200553
0.0395452
0.196839
0.205265
0.288103
0.376655
0.0945908
0.153296
2.2689
0.982156
0.728296
0.0732298
0.274783
1.32542
0.0868739
0.69105
0.198349
0.326223
0.901006
0.0880885
1.45021
0.0577334
0.312123
1.12434
0.101334
2.83273
0.295341
0.0849434
0.141293
1.5864
0.0796115
1.6387
0.222905
0.166082
0.0714206
0.230871
0.118361
0.0841979
0.309444
0.0914596
0.119583
0.230613
0.499966
0.586759
1.59525
0.561181
0.272764
2.40595
1.20247
0.141328
0.0697494
1.7632
0.164382
1.37951
3.12471
0.165874
0.479211
0.0872953
4.01505
0.270487
1.59172
0.316385
2.85077
1.1454
0.0572178
0.659866
0.150182
0.0207541
0.373113
0.455414
0.616119
0.640339
0.0776587
0.67385
0.0367795
0.0648957
0.253772
0.0788243
0.135796
1.24812
0.180335
1.14104
0.0995287
1.12608
0.278593
0.145896
0.0664135
0.198972
1.93768
0.410276
0.18157
0.567879
0.247137
0.404123
4.1286
1.71805
0.0648976
0.106835
1.34246
0.468233
2.47258
0.236669
1.96242
2.01533
1.46369
0.508891
2.54159
0.269368
0.267178
0.374851
0.141458
0.347803
0.0932137
8.16799
0.690928
0.096411
0.174619
1.65983
1.61751
0.268855
0.0600451
0.129798
0.643832
0.412785
0.0894471
2.53283
0.300208
1.47433
0.233438
1.95
0.134283
0.0626972
0.324204
0.254241
0.125783
0.595928
0.0801395
0.83689
0.0898855
3.64818
0.21748
0.373691
0.191305
0.495685
0.292812
0.392405
0.332005
0.194754
0.163377
0.425396
1.13479
0.298034
0.212493
0.0919599
0.140769
0.599356
1.60231
0.654535
0.178896
0.565053
0.248759
0.318377
0.256694
0.243787
0.430377
0.137778
0.323411
0.576247
0.0638689
2.187
0.0657734
5.99065
0.0946534
0.179618
0.279235
0.0878142
0.0660109
1.25302
0.294795
0.23369
0.0561905
0.0982879
0.645091
1.94106
1.3236
0.310728
0.0788098
0.170497
0.534417
1.63613
1.15768
0.253243
0.281903
0.0477619
2.10339
0.248816
0.349244
1.56494
0.201071
0.280216
0.648764
1.23827
0.0713191
0.973319
2.75843
0.62683
0.367107
1.28668
0.698729
0.0639099
2.37073
5.96591
1.58847
1.26123
0.140402
0.0654245
1.05381
0.304881
0.313796
0.0418465
0.337954
1.34268
0.0964125
0.0880638
0.13846
0.0830729
0.0829813
0.26215
0.227379
0.976362
0.0861354
0.25955
1.3598
3.57003
2.04451
0.295756
0.859626
0.197753
2.38992
0.1094
1.87776
2.53354
1.11753
1.74979
0.286239
2.39259
1.28936
4.30237
0.23615
0.349431
0.288074
2.40944
0.0939497
0.21417
1.13023
0.308507
0.26284
1.01149
0.279391
0.322253
1.21666
0.0975688
0.0462721
0.257774
0.314937
0.0954071
0.225214
1.29088
0.294075
1.49736
1.2644
1.57196
0.0670619
3.31632
0.109986
0.969614
0.580763
0.57837
0.225907
0.0880231
1.29721
0.0725324
0.242323
0.0610611
2.39775
0.170165
0.227323
1.47765
2.80467
0.372007
1.4627
3.573
0.553439
0.278399
0.043765
1.09421
0.158701
1.25243
2.7166
0.216905
0.050945
0.37331
1.34869
0.61925
1.64268
1.16751
1.30866
1.18095
1.9636
0.0581816
0.166923
1.05361
0.28123
2.82604
0.245006
0.0601505
0.127527
0.516498
0.0619258
0.210124
0.267699
0.155435
0.374751
0.155583
0.256657
0.0869835
0.263807
0.323626
0.979482
0.927175
0.0795818
1.67152
1.377
1.96889
0.435626
0.264997
0.941438
0.229341
0.0527317
0.047135
0.198169
8.98012
0.323384
1.24471
0.828665
1.74709
1.51284
0.551992
0.241885
0.0221693
0.0478323
0.106033
0.0328083
0.217786
0.222665
0.0528292
0.263672
0.0202504
0.0544403
0.192331
0.104254
0.0642642
0.0534972
0.0255468
0.205144
0.236142
0.0625404
0.102035
0.19303
0.0527259
0.0537765
0.0217757
0.0324435
0.21389
0.131735
0.0865219
0.0426361
0.0738504
0.152943
0.18493
0.0542652
0.0277842
0.0355459
0.029537
0.0370853
0.226832
0.0516339
0.0139555
0.0981426
0.0463528
0.164032
0.205606
0.244664
0.6711
4.69721
0.0869238
0.11807
1.04283
2.29721
2.04341
0.33187
0.0909942
0.380704
0.358911
0.706685
2.37256
7.60771
2.6687
2.4494
0.986532
0.166341
0.159777
0.0585361
0.137169
0.0598585
1.21973
0.114091
0.234845
0.390358
0.15478
0.971949
1.10753
0.267213
0.396313
0.993046
8.39462
0.306238
1.1106
0.293628
0.344843
1.65109
0.392836
1.08621
1.57386
0.879823
1.32888
0.470738
0.811516
0.263948
0.328128
0.362159
9.81983
0.237485
0.197535
0.0635466
1.79692
1.94745
0.0894157
1.60129
1.89446
0.0541379
0.0365413
0.219278
0.218367
0.0739682
0.250505
0.0209683
0.0515151
0.1
0.0236365
0.182738
0.174959
0.0382876
0.233516
0.097758
0.0842197
0.195295
0.0537834
0.0587379
0.0580824
0.0248532
0.257187
0.0427286
1.18552
1.40277
0.205196
0.477325
0.329803
0.362257
1.51228
0.079975
1.40473
2.00385
1.53312
1.10557
1.93939
0.30509
0.0660463
1.91519
0.95315
0.591376
5.4301
2.19212
1.4824
0.0432456
1.92662
0.741737
0.208733
1.99777
0.354274
1.49096
0.144768
0.208214
0.056286
2.02799
0.158862
1.73859
2.30977
0.106359
3.02023
0.112491
3.02454
0.148442
0.0619018
0.0971286
2.3293
0.0893693
0.110682
0.131195
0.189
2.9122
0.315636
1.91182
0.368119
0.292908
0.922877
4.69267
0.0549941
0.280227
0.298219
2.62189
1.09753
0.230717
0.067668
0.495367
0.361352
1.90465
0.308086
0.213238
0.0383672
0.225205
0.417768
0.0741548
1.64143
0.566392
0.0161836
0.0738085
3.02719
2.5749
0.322781
1.94343
1.89953
0.031624
1.88719
2.63523
1.67587
1.88101
0.795586
0.183947
2.22272
0.0824551
0.30525
0.372841
1.82582
0.251081
0.294871
0.57128
2.07883
0.64602
0.136433
0.0695405
0.208906
0.731574
1.65859
1.88066
4.28763
1.66402
0.619074
1.1292
0.273886
0.784589
0.756455
0.914676
1.45621
2.2116
1.14373
1.88883
1.00729
3.08241
1.25223
0.331356
1.22519
0.93773
0.486346
0.695517
0.290474
3.32254
0.684841
0.279203
1.46216
0.296229
1.26736
0.306372
1.03779
4.89256
0.302805
1.48891
0.79567
0.0803621
0.100125
0.277803
1.46395
0.143637
0.0666593
0.279739
1.93234
2.25393
3.25641
2.25679
2.39743
3.31704
2.52379
0.148145
2.42315
2.19335
3.26423
2.04984
2.024
2.16633
2.23145
1.95356
2.14759
0.73374
0.747098
0.207965
3.90654
0.689727
0.192703
0.180968
0.548534
0.0785952
0.10914
0.614895
1.29777
0.216919
0.170855
0.210853
2.42043
1.37632
1.94253
1.06123
0.216278
0.355994
0.138082
0.427091
0.787557
0.391542
1.27318
0.328114
0.32351
0.153441
0.359867
0.102037
1.54457
0.133499
0.725376
0.159667
0.0548793
0.538713
0.268803
0.147146
0.265518
0.142187
0.131558
1.41618
0.117013
0.911153
0.380714
0.451469
1.18117
3.49531
0.125175
1.54795
0.959993
0.402986
3.5102
0.378766
0.127142
3.38185
1.14922
1.77117
0.118918
0.585948
1.98695
3.53837
1.57257
0.113456
0.118039
0.133151
0.427619
0.493401
6.00283
0.131616
0.66478
0.465255
0.102731
0.396652
0.374442
0.421922
1.23963
1.42332
1.33633
5.7151
2.90759
0.144258
3.04993
0.098715
0.567779
1.37741
0.358363
1.97432
0.540793
5.53778
1.513
0.566558
0.349957
2.1994
5.33039
0.228179
1.23405
1.69243
0.260492
1.30053
0.666213
0.291053
0.298523
1.97016
0.408602
1.76417
3.9986
3.79188
0.362297
1.17689
0.148856
1.27213
0.656427
0.295735
0.444226
1.98783
0.133698
0.33557
0.0648294
1.31962
0.495964
0.276006
0.555715
0.358985
0.556907
0.208261
0.320292
0.259035
0.372962
0.148892
0.334432
0.189778
0.244134
0.87874
0.760155
0.364102
1.12158
0.598003
0.554737
0.123241
0.12591
0.195401
0.373382
0.123063
0.836955
0.0939823
0.247857
0.376475
1.90508
0.258685
0.283156
0.175624
0.894832
0.120391
0.109779
0.316363
0.157407
0.149475
0.153889
0.367448
0.659742
0.283662
4.07107
0.125994
0.295821
0.185042
0.136674
0.702287
0.602913
0.246568
0.188731
0.157692
0.142911
0.182496
0.189339
0.842843
0.701464
0.0495486
0.414695
0.114253
0.11862
0.206932
0.192768
0.529314
0.450849
0.497439
0.527491
0.133925
0.24048
0.0429295
0.504654
0.267993
0.304842
0.063113
0.344276
0.133225
0.121759
0.341525
0.24232
1.93758
0.264728
0.22629
0.284453
0.120365
0.119107
1.32718
1.28074
1.53847
0.274411
0.142896
0.233799
0.889951
0.21608
0.863009
0.0540943
0.42158
0.0896721
4.21647
0.622262
0.144401
1.24466
0.653456
0.421707
0.341627
0.129474
0.0651288
1.41478
1.31364
0.261983
1.08112
0.381981
0.297437
0.123197
0.0755533
1.86116
0.281134
0.231932
1.46434
1.59844
1.05115
0.275689
0.183948
4.13662
0.332861
0.168906
0.603992
0.98805
0.256774
0.375838
1.2969
0.414234
0.649718
0.859597
0.343732
0.318982
0.116265
0.078642
0.993436
0.209392
0.237109
1.42112
1.51401
0.0531548
3.91354
3.8436
0.298181
0.227016
0.722017
0.203188
0.552842
1.05659
0.496067
0.355881
0.701242
0.638196
0.363553
1.43966
0.408704
1.72219
0.190129
0.728999
1.26639
0.293763
0.27377
0.301201
0.241302
1.13242
0.449157
0.377634
1.11198
0.166887
0.603491
0.392299
0.394422
0.835341
0.368591
0.283286
0.0886551
0.0902604
0.515353
1.91525
0.188876
1.46317
1.35872
1.28202
1.91604
1.23892
0.306263
0.201219
0.335472
0.0520723
3.8646
0.328264
0.753701
2.39579
0.20658
0.318212
3.94317
0.0953499
0.142774
1.00164
1.34724
0.676015
0.910554
1.32394
2.09825
0.494404
1.49913
1.07571
0.49603
0.128165
0.439167
0.299483
0.239239
0.210158
0.0751746
0.0981549
0.375911
0.261848
0.0732884
0.0803718
2.17585
2.35785
0.632762
0.0990385
3.73074
3.06874
0.687535
0.153636
1.4823
1.17107
0.312986
0.201783
0.0483754
3.5239
0.339838
0.18752
0.280168
3.42895
2.0296
1.17155
0.504325
3.36225
1.83361
0.986805
0.237264
0.760984
0.513044
0.325257
0.110656
0.126971
0.108083
0.120051
1.2304
1.44007
0.453695
0.163504
0.7549
1.75265
2.33535
2.78723
1.9746
1.16477
0.113202
1.28695
0.11461
0.131523
1.47375
2.90073
3.14575
3.83147
1.25751
0.686668
0.458202
0.268654
0.27287
0.37842
0.107125
0.256004
0.0618836
0.0863525
0.164148
0.136937
0.166177
1.47744
2.63947
0.392072
2.20769
0.25471
0.872472
0.141189
0.331954
0.971404
0.134303
0.855116
0.123876
0.336732
0.225264
2.85186
0.584261
0.316105
0.0928795
1.50846
0.19704
0.0740061
0.331768
1.58384
1.6444
1.12903
0.323728
1.272
1.32465
0.332834
0.286546
0.0616516
0.0466644
0.426513
0.368235
2.23447
0.468141
0.139703
0.0712159
1.27966
0.320835
0.520287
2.75463
0.224151
1.76786
0.109672
0.118513
0.233792
1.81344
1.71751
0.42087
0.120906
0.102077
2.75508
2.55409
0.396503
0.370103
0.390136
0.231877
0.584726
0.500821
0.108719
0.3211
0.240851
0.0865219
0.378397
0.166168
0.428938
0.312177
0.208615
0.551789
0.176133
0.391973
0.539567
0.444122
0.186625
0.953897
0.484434
0.443766
0.813081
1.77126
0.106532
2.95031
0.267874
0.451937
1.04595
0.279098
4.0173
0.803453
1.57448
0.13533
2.40656
0.307028
1.3988
0.193694
0.0353452
2.50751
0.286218
1.04459
0.480216
0.559921
0.408782
0.217651
1.77247
0.870864
1.82079
1.19546
0.233534
0.695414
0.291387
0.0601174
0.0805949
1.91303
1.48995
0.679139
0.406926
0.0760627
3.54465
0.448935
1.89158
3.3876
1.84674
2.46655
1.95899
0.0522374
0.60924
0.478361
0.242833
1.63896
2.05843
0.207649
0.439728
0.934163
0.217717
1.64367
0.370161
0.815203
2.28039
1.93626
0.34461
0.39107
0.648825
2.21024
0.474573
0.645225
1.53543
2.84217
0.549791
0.221468
0.204443
1.95083
0.911909
0.711839
0.894006
1.21043
0.605291
0.193031
0.668223
0.461952
3.39342
0.780993
0.345937
0.128598
0.061677
1.57041
1.5986
1.23854
2.65035
1.77915
3.06156
0.209526
1.15797
0.335112
1.97891
0.151063
1.79722
1.0332
0.180468
0.0652098
0.744457
0.129363
0.215096
2.44067
2.47823
2.28453
2.83187
3.28125
1.08423
0.280948
0.522547
3.43666
3.3979
0.939123
4.89219
0.203683
0.326562
0.725837
3.39522
1.53158
1.26163
1.28558
0.287082
0.37199
1.0535
0.812139
0.244526
0.576379
0.0774648
0.997978
0.101233
2.54249
0.11241
1.253
0.283153
1.01885
0.445108
1.9705
1.42097
1.41369
0.0756488
3.99924
0.155454
0.116972
0.376874
0.0410281
0.120475
1.70579
1.7654
3.74311
0.591247
2.90256
3.98705
0.343051
1.11441
0.12743
0.32064
0.108068
0.0404384
1.87114
1.49722
0.110838
0.117208
1.82287
0.76009
0.428076
0.459571
0.319579
0.84471
0.223671
2.77997
0.300578
1.47884
0.176916
0.460577
0.355288
3.3324
0.287735
2.15983
1.71943
0.209882
0.391554
1.73687
0.24849
0.107395
3.69224
0.20294
0.207425
1.89722
0.310311
2.74148
0.270514
1.44053
2.58624
0.0761301
0.446099
0.404063
2.08487
3.34367
0.185024
1.39611
1.12743
1.75269
0.359662
0.290289
0.270754
0.352074
0.0462542
0.078513
1.61961
1.50032
0.28278
0.125674
2.75811
0.310893
1.7853
2.4106
0.556399
0.206575
1.69479
3.21743
0.350377
0.0356837
0.0517094
1.93229
0.758913
2.08298
0.271716
0.212912
2.36278
2.7137
0.302223
1.37782
2.96329
2.08858
1.10236
1.89081
0.0553785
1.15417
0.516968
0.273634
0.0503794
0.0824379
1.08439
0.28411
0.415789
1.306
0.245502
0.896666
0.397324
0.285492
0.918869
2.47547
0.215567
1.0301
0.213963
1.55836
1.93269
1.83658
0.275192
0.300597
0.0555808
0.0788628
1.23673
0.43766
1.08696
1.35475
0.429714
0.893067
4.47479
1.6271
1.95143
0.041105
2.6057
0.051741
0.152071
0.963586
1.34331
0.850112
0.203304
0.185415
0.295604
1.61946
0.061473
0.169111
1.95604
3.81964
0.20235
0.583438
0.25729
4.09941
4.23934
1.46407
0.260311
0.844911
1.17491
2.19484
0.666095
1.95759
0.206807
0.967829
0.663034
1.3911
0.21399
1.03531
0.115277
0.491498
0.0552352
0.49171
0.755665
0.263225
0.935656
0.0349272
0.26655
2.16522
0.942672
0.0728912
0.228189
1.57047
1.53007
1.48127
0.793642
0.0825357
0.252172
0.0588917
0.0704558
0.217701
0.497673
1.07386
0.0814765
0.701588
2.07373
0.104585
0.330288
0.588161
0.305201
2.74883
0.236497
0.0499394
0.0685924
0.148218
0.853168
0.164607
0.527353
0.135346
0.547965
0.100798
0.0967356
0.307425
0.707231
0.230198
1.2366
0.54245
0.173516
0.733501
0.263437
1.04635
0.227863
0.0514137
0.0670867
0.130242
0.246487
1.87719
0.303501
1.39236
1.93983
0.899941
2.27389
0.223041
0.238703
0.250937
2.79879
0.605417
0.247232
0.278416
0.049575
0.0755493
0.199896
0.108895
2.76959
2.14976
1.11358
0.0571754
0.0696777
0.136496
0.0322783
0.522969
0.393065
2.61921
0.440744
1.8868
3.00547
0.0428283
0.20551
0.361818
3.34098
0.18315
2.53393
0.258277
1.23776
0.114948
0.247487
0.10878
0.29764
0.872092
0.672367
0.7258
0.470912
0.33762
0.151686
0.0951088
0.164048
0.404305
3.57353
2.34819
0.429324
1.92603
0.459685
0.898066
0.317268
1.64302
0.160457
1.47303
0.15943
1.5223
2.14003
3.38657
0.399023
0.112656
0.211577
0.0469485
0.10118
0.351529
0.464773
0.198715
0.26536
2.51863
0.392746
0.107247
1.76823
0.257285
0.6064
1.47033
1.07357
1.6104
0.13772
0.279593
0.655841
0.256982
0.332206
0.149892
0.605812
1.43742
0.109525
0.299377
0.830575
0.291075
0.32069
0.104377
0.0896546
0.0729926
0.0621896
0.131286
0.0386296
0.181633
0.175161
0.282871
0.287716
0.0410076
0.0514138
1.70707
1.78495
0.359144
1.04935
0.140642
0.794979
0.278022
2.18319
1.56546
1.7009
5.13904
1.72441
1.96917
2.07624
3.56063
1.1133
0.0576238
0.0632958
0.110021
0.0632177
0.0664115
0.264432
1.95762
1.69133
0.0250515
0.0455034
0.20856
0.532996
0.327985
2.07292
0.204057
0.0400551
1.35656
0.323659
0.754148
0.899571
0.198045
0.217707
1.36295
0.472826
4.00898
0.0573757
0.436725
4.01532
1.17144
1.40004
1.9647
0.0253938
0.0693292
0.270582
0.123234
0.0830359
0.315139
0.0939305
0.459381
0.449787
0.395486
0.118699
0.0960248
0.32187
2.21374
2.58916
0.0713298
0.374019
0.0983627
0.368599
0.767863
0.189548
0.813188
1.48691
0.242217
1.20816
0.41771
1.56049
3.55419
3.02272
1.33583
0.820653
0.198875
0.30679
2.36029
0.519697
0.11158
0.0450528
3.51893
0.377474
2.8762
0.0851818
0.174541
0.3478
1.6783
1.83592
0.0944204
0.139566
1.18436
0.189972
0.694935
0.208245
0.315924
0.732868
3.88797
0.112935
1.51372
0.238137
0.0536262
0.0697509
0.0319566
0.257056
0.0257211
1.91489
0.170645
1.50373
3.97912
0.974079
0.356162
4.99504
0.272672
0.20553
1.85448
0.348582
0.937948
5.33849
0.246623
4.05618
0.251915
0.0553909
0.0757252
2.08997
0.18888
0.213104
0.0958925
0.0943627
0.403634
0.908874
1.78829
0.643248
0.513687
0.449397
3.49304
1.09922
0.571065
0.940901
0.272125
0.362885
1.90565
1.27779
2.15458
0.539594
0.082921
0.131362
0.194246
1.36406
0.289817
1.51974
0.905922
0.497194
0.343528
0.750212
1.61431
0.206597
0.0560994
0.25445
0.088411
0.211854
1.0279
0.231709
0.551444
0.279497
0.729916
1.89517
3.74662
0.421281
1.87343
0.946795
0.0858532
0.198973
0.0803151
2.05941
0.0748425
0.478475
0.238104
0.259376
0.117242
1.94748
1.87182
0.212645
0.309086
0.51795
1.85748
0.151713
0.0966723
0.123576
0.413561
1.89102
0.276392
0.377006
1.63275
1.607
1.78798
0.300135
0.218142
2.12714
1.68582
1.33427
0.26812
0.444293
0.0441719
2.23007
0.0331987
0.427317
1.9062
1.03594
0.189577
0.936265
0.327683
0.329832
0.822559
0.0564726
0.47644
0.112108
0.0240685
0.0377304
0.575722
2.02248
0.946445
0.298205
0.265613
0.0645315
0.169095
0.0686193
0.0177337
0.0355366
0.059031
0.467377
1.92112
0.470345
0.783678
0.2046
1.58012
1.68108
0.602189
0.134456
0.0666931
0.190575
3.85873
1.76085
1.11964
0.125523
0.0500915
2.28906
0.441467
0.345472
0.925499
1.43132
0.0317237
3.15338
1.15449
0.437314
0.196794
2.54528
2.64645
0.388093
1.38573
0.036675
0.147129
1.4934
1.0364
0.0996227
0.0519484
0.215751
0.209858
0.0897961
2.29705
0.350148
0.238741
2.19254
0.810097
0.124669
1.40259
1.84567
0.312416
3.71961
0.0399626
0.56006
0.0621687
0.500405
1.26963
0.0976727
0.371196
1.75044
0.192894
1.28863
0.0656642
0.177064
0.590733
2.02163
1.1947
2.51859
0.404697
1.9495
0.25093
0.453416
2.43375
0.20908
3.88634
0.452291
1.49545
0.412525
0.212056
2.42154
0.778881
2.08035
0.267844
0.0564636
0.0609033
1.34826
0.116631
0.190654
0.103537
0.481158
0.511611
0.0992682
0.036397
0.142744
0.936201
3.75063
0.164204
0.0387227
0.350123
1.87828
0.523302
0.42093
0.16137
1.58768
0.846342
0.0751906
0.814967
3.22847
0.0231088
0.799473
1.19188
2.01777
0.804212
0.869158
0.825238
0.297681
0.123702
0.0910463
0.382149
0.105318
0.198652
0.305021
3.5837
1.35183
1.05531
3.15518
1.06103
1.49962
0.263345
0.597275
1.03178
0.132023
1.34094
0.156321
1.51161
3.63595
2.38108
0.66119
1.83621
0.0773583
0.909633
0.613334
1.13282
0.0335844
0.0647291
2.2892
0.495424
0.424937
1.98465
2.52331
0.276815
0.969395
1.03837
3.11304
3.86656
2.97464
0.210669
1.56343
0.0443872
0.275715
0.0663402
1.57166
1.51587
1.33746
0.136827
0.0466648
2.93111
0.0989608
0.0529834
0.546938
3.40779
0.568917
1.58837
3.87653
1.39797
0.116384
0.0816596
1.231
0.873068
1.98147
1.64973
1.90752
0.671751
0.454571
3.88356
2.04099
0.0622086
0.0615623
0.223349
0.0698057
0.0879207
0.304036
5.07793
0.533835
0.161248
1.805
0.627764
0.220591
2.36357
1.90859
2.52263
0.421876
0.529413
0.129306
1.22156
0.479415
1.31442
3.37481
2.16858
1.04325
2.19641
2.87104
1.9497
0.204701
0.0596527
2.46426
2.52898
0.130437
0.784072
0.0421488
0.0607346
0.737039
1.17625
1.97924
1.52718
0.205726
2.39118
0.0458301
0.258478
0.07568
0.198091
0.04449
1.81394
1.81095
1.4505
0.378489
3.19754
0.0387427
0.131007
3.34389
1.60269
1.75475
0.496154
0.569122
3.82774
1.86614
0.169138
0.282582
0.701482
1.14503
0.192506
0.508293
0.882813
0.50693
0.589272
1.71776
2.57997
0.365195
1.45936
0.0202995
0.169736
1.21091
0.177539
0.362671
6.66875
0.309699
2.01921
1.79521
0.0726158
0.0498068
0.0594012
0.266975
2.28143
1.74735
1.76223
0.166959
1.16733
0.22918
0.751486
0.66987
0.591864
0.223291
0.340759
0.219524
0.237662
0.0364702
0.0215592
0.119538
2.09539
1.69625
0.215972
0.782101
7.21976
2.68565
2.67336
1.25281
0.114994
0.961093
0.439005
0.192767
1.55201
2.98284
0.224123
0.135647
0.0712521
1.95874
1.42712
2.11308
0.298724
0.152825
1.06975
0.442016
0.0634171
0.140228
0.0294582
0.0805866
0.280967
2.11136
0.6736
0.234032
2.28633
1.32008
1.67829
2.12821
0.53044
2.15055
0.143033
1.46989
1.34991
1.77806
1.53835
0.0701837
0.0629424
1.44989
0.190715
0.938789
0.195462
1.36242
0.537437
0.526864
0.0635446
0.51776
0.0662818
0.528243
0.503064
0.508866
0.509347
0.887545
2.12624
1.19184
0.0710548
1.99074
0.548503
0.0856786
0.437103
0.0875604
0.183052
0.182391
0.385654
1.5432
0.339924
0.378997
1.76733
0.0585733
0.612758
0.0711825
0.146888
4.00819
3.18984
0.24665
0.070344
0.0588073
0.279364
0.0234773
0.0471823
0.280403
0.0642831
0.0745242
0.284801
0.0769555
1.24157
0.159447
0.239646
0.567825
1.60873
0.656692
0.612911
0.24118
0.666983
1.90611
1.85489
0.988317
0.0542142
1.97164
2.14912
2.14882
1.2253
0.362917
0.0701436
0.017577
0.0961599
1.36114
2.74414
1.24549
0.194451
0.795741
0.26671
0.356307
0.311819
1.60317
2.14916
0.106226
2.33334
0.043307
0.264683
2.57292
1.29539
0.968009
0.50598
0.653979
1.52749
1.27918
1.16283
0.562654
0.187149
0.412532
0.412129
0.239589
0.311632
0.159546
1.36625
1.12167
1.75041
0.935692
1.46766
0.188682
0.109807
0.246377
2.00797
1.03339
0.742412
0.263251
3.39159
0.446728
0.413607
1.64654
0.172248
0.213451
0.764011
3.08048
3.24926
1.1197
1.69648
2.21835
1.47918
0.178077
0.16703
0.0290349
0.237546
0.236349
6.78265
3.48834
0.291105
2.48123
1.2696
0.413668
0.0505899
0.743738
0.112945
0.126254
0.0498198
1.76274
0.784173
0.878114
1.55304
1.23148
0.0379627
0.100933
0.094366
0.171145
1.54707
1.39441
8.55024
0.494782
0.32068
0.035418
0.338152
3.11256
1.45499
0.666624
1.46043
0.103241
0.343445
0.225387
0.128453
1.93874
3.49927
0.0779426
0.27481
0.0638015
0.348017
1.38648
0.310431
2.74082
0.271987
6.37803
0.863488
2.21269
3.71397
0.0643352
0.149448
0.220278
0.707293