/*--------------------------------*- C++ -*----------------------------------*\
| =========                 |                                                 |
| \\      /  F ield         | OpenFOAM: The Open Source CFD Toolbox           |
|  \\    /   O peration     | Version:  v1912                                 |
|   \\  /    A nd           | Website:  www.openfoam.com                      |
|    \\/     M anipulation  |                                                 |
\*---------------------------------------------------------------------------*/
FoamFile
{
    version     2.0;
    format      ascii;
    class       volScalarField;
    location    "0.32";
    object      epsilon;
}
// * * * * * * * * * * * * * * * * * * * * * * * * * * * * * * * * * * * * * //

dimensions      [0 2 -3 0 0 0 0];


internalField   nonuniform List<scalar> 
1466
(
7.2526
37.1859
7.09061
99.1925
11.8284
29.5866
21.3257
57.4317
9.24994
47.5658
71.1241
47.1362
5.48928
7.9744
33.9922
88.9713
31.9392
98.1865
126.401
73.9219
113.257
82.6143
93.6615
60.8308
7.05212
11.0243
53.3178
89.2538
3.8427
49.8814
82.4413
14.0357
8.02762
65.5343
118.935
56.7071
55.3809
37.7206
77.076
15.1339
9.3277
74.2616
98.0122
8.47387
7.48806
19.4461
102.71
12.0837
73.8983
6.65328
17.3724
46.8735
38.8012
13.0178
7.05164
6.67284
11.7877
78.7148
6.26458
55.8699
25.6729
12.968
17.473
30.6264
83.5622
46.8912
169.936
68.4623
28.5337
8.01103
67.8871
167.854
91.4833
6.58962
23.3738
69.4119
9.81627
13.7067
21.8175
72.49
54.7638
88.0812
8.60488
92.0718
112.256
145.157
73.0935
75.8935
61.5922
43.9659
15.1059
55.6233
138.151
5.63948
30.3005
6.14225
34.9866
91.9095
8.5083
9.61168
27.1324
8.85003
9.9523
112.113
115.929
78.2245
54.1696
13.4812
93.0905
8.70631
19.6621
91.9227
6.84426
83.8961
59.4551
26.5903
60.5734
46.1906
21.408
25.9104
106.178
7.34135
14.1019
9.03601
5.79292
68.9278
38.6903
86.6978
59.0413
34.5452
72.1313
64.1279
92.3316
59.1623
19.0961
14.4591
27.4215
15.8254
15.2838
20.1772
7.15398
96.8815
84.7924
85.7391
97.9962
174.389
13.3843
17.7028
53.3021
90.5147
18.1287
33.9178
33.5351
19.4065
41.5578
78.4488
81.9131
77.9829
12.386
48.6
12.0419
54.5208
101.889
93.6034
117.05
114.977
73.8932
102.317
105.726
39.532
116.656
8.3331
5.65857
29.8109
33.7645
7.22536
41.1042
61.8335
17.0174
91.2118
7.87849
29.7093
148.271
5.7307
76.1932
155.587
113.754
53.0624
30.2403
31.8093
125.421
34.9587
146.456
186.001
45.0982
22.1225
7.57256
157.975
135.301
199.942
97.0969
43.4317
45.0077
50.9886
49.3116
109.799
132.717
25.7509
11.5083
68.6032
110.015
103.219
143.62
105.961
119.625
92.194
157.512
110.671
59.5161
67.2421
96.5285
28.0375
95.7814
26.5418
100.204
89.4346
80.8779
10.074
16.5811
27.4481
56.4907
79.1336
203.74
173.884
13.7013
81.048
80.2536
95.1978
21.8286
125.547
35.9087
69.8673
37.4104
213.483
17.7147
48.822
14.3318
6.50873
74.603
32.3157
143.453
91.842
23.0624
78.1468
7.88239
16.213
81.6018
11.4914
109.669
106.151
96.4964
90.4511
58.6769
26.7469
68.6268
6.35146
41.5741
46.5305
98.4327
10.6691
133.869
128.892
60.9682
12.2295
17.2097
31.7247
21.5633
62.4178
113.424
58.3859
22.1357
109.761
85.2607
60.5986
102.421
2.22964
57.607
53.7401
11.9493
18.1548
20.0061
7.59508
6.71986
17.5939
48.5067
40.4916
201.879
3.55484
59.0126
23.6683
5.89191
43.5694
8.72804
7.45938
83.0509
12.3
7.49466
5.44129
37.3515
131.81
27.9805
118.125
71.5852
35.8865
49.9997
41.8661
134.102
30.5584
4.80345
35.679
40.3112
155.761
79.6528
20.7175
87.8347
15.6383
3.17566
31.5616
17.3015
35.5649
75.2338
16.6484
11.5914
37.0579
102.835
16.6465
115.107
19.866
9.10022
6.22453
6.65326
28.7642
18.1693
66.2702
41.2051
9.58323
57.9573
39.9614
33.7016
101.728
31.8335
13.1055
65.1854
135.711
107.298
128.186
100.359
21.9121
7.41131
39.7917
112.029
109.751
74.9039
59.3793
8.72984
210.121
25.27
24.0732
89.1648
40.2746
34.5322
133.913
100.269
31.298
16.8609
49.129
60.8259
103.338
5.71704
61.4333
41.1922
22.0736
43.8744
43.9013
20.3861
21.6238
13.0653
9.65031
4.10369
3.19756
14.1272
13.4783
61.4974
11.9875
33.9694
19.0469
2.20644
101.928
42.3874
13.0925
2.28028
2.40292
72.1687
3.57728
48.0777
122.592
87.6428
25.8295
146.375
126.337
24.264
104.555
127.35
127.837
72.7915
6.91821
5.80149
48.2906
33.6303
11.7476
96.6772
100.673
13.4768
135.731
14.3652
42.3211
69.8592
94.7264
16.5685
46.6284
56.9165
28.1022
127.412
227.485
33.0519
18.341
4.4323
21.2828
6.82432
58.6654
4.09007
11.0156
58.607
10.3022
29.4323
7.89524
22.2493
35.4375
6.82439
67.6877
36.9922
6.13563
8.53304
9.79352
11.4676
8.55056
11.8559
41.4233
7.35152
32.8836
4.73666
12.2566
12.5261
59.6844
66.2234
6.22885
12.0868
10.1631
7.39982
12.943
7.84873
27.2967
71.4651
8.12703
33.5507
5.87027
10.3795
88.6376
176.823
113.264
36.6128
115.041
107.656
163.308
144.477
21.2152
5.77036
9.222
150.736
80.6285
156.621
86.7444
23.421
11.7214
55.4234
14.5298
34.6671
19.1406
41.475
67.2353
42.6402
68.5978
72.379
112.73
15.1206
81.1234
64.0377
38.963
5.89763
21.4024
26.7622
125.544
52.4124
179.104
32.9996
64.675
8.217
8.80464
16.9779
44.7473
38.2167
8.00356
179.276
25.7282
104.735
9.76503
8.16025
84.3493
9.07015
147.271
41.7088
207.255
144.543
13.0744
18.7086
7.82455
35.3947
71.9192
9.58113
122.132
20.1401
118.86
25.3577
58.1796
9.30772
31.5922
10.4099
23.8263
152.001
37.0899
127.67
6.33747
10.4025
18.4153
189.77
26.882
22.0773
61.925
67.7398
16.7406
132.51
128.544
26.391
36.4569
13.1223
54.0793
12.0482
172.539
74.8566
67.9878
93.315
166.01
28.172
51.1292
45.035
122.51
12.804
49.5454
19.9628
90.1777
89.1973
66.5548
32.8683
76.2839
60.8562
67.8811
111.329
7.74704
16.1633
50.5788
70.5683
26.2602
79.0661
32.6532
138.024
90.3455
80.7307
57.1891
61.4746
75.3447
40.8161
13.3635
14.9847
30.2129
230.188
87.1564
28.357
7.39465
53.9128
68.2232
38.5711
132.12
21.8383
38.009
128.5
30.1754
52.0811
26.2439
21.7589
116.082
29.1115
2.76145
24.0225
19.6154
33.1325
34.3058
250.671
87.7986
106.271
50.4867
132.867
20.7787
22.5251
16.1075
51.7725
10.7925
107.709
87.4742
50.4037
94.633
159.081
86.3381
59.5787
28.2263
91.7645
13.6856
91.8233
120.264
59.2502
27.8899
56.7544
9.78357
33.7951
4.36314
159.328
89.9499
7.09581
195.792
16.7343
5.80274
185.231
87.6454
14.9112
13.2084
157.333
31.6083
119.207
38.5974
64.2647
6.09465
7.47284
17.6307
103.323
13.222
75.1814
6.01772
42.6963
9.38451
11.6473
17.1853
91.5301
7.9904
11.7148
189.007
18.7473
141.044
25.8691
8.32676
86.0677
12.3099
150.515
16.3939
14.4578
62.2898
19.8072
7.35993
51.9658
119.956
27.6213
78.9938
111.084
22.9978
10.0697
17.9609
67.6754
71.1321
29.4263
17.3328
7.21628
65.2762
41.8498
139.376
5.88405
69.9945
159.915
107.892
54.6011
82.052
111.403
61.5079
58.7196
115.542
179.547
63.2883
224.251
88.6982
94.1349
10.9147
11.921
9.91013
108.015
125.323
97.095
8.74967
166.687
88.705
126.684
96.0316
1.75505
141.633
53.0857
49.4916
70.8611
4.50048
45.5385
16.4904
31.5524
30.41
50.0898
43.8672
91.7676
91.3469
12.1623
4.44144
129.287
120.98
159.969
94.1287
12.0344
120.129
108.413
24.1591
33.5163
45.8104
185.041
44.1679
84.5482
122
89.7351
156.975
27.4914
32.7727
18.5874
8.51484
72.6334
127.589
39.7919
16.947
13.6201
115.949
13.1088
25.3106
91.9589
66.3932
129.273
7.96692
41.3641
44.2654
80.4657
38.164
20.0086
149.994
111.272
24.4117
33.3193
13.973
129.574
67.3404
13.0067
12.0603
6.76637
84.1068
80.6634
10.2161
42.1984
3.90813
18.5076
11.8875
76.5733
94.7658
129.979
62.7959
82.251
54.6959
38.976
9.09367
101.33
90.1857
18.2615
104.864
99.0132
89.8156
15.3314
64.0338
36.3602
12.0678
86.2475
11.0425
15.2669
78.3027
74.3568
100.551
44.4435
142.455
15.2425
22.433
16.0591
14.6576
30.2012
39.5208
52.4273
108.62
121.989
7.74815
120.687
78.8126
32.7064
76.8503
37.342
89.5015
128.312
56.3595
106.673
15.8745
22.9161
25.7461
72.2657
25.2735
58.7141
107.746
162.233
66.1816
9.01407
11.4718
12.1319
73.0979
116.194
285.19
32.2533
17.886
48.3662
9.7112
76.838
11.8521
183.733
11.4596
118.33
101.208
112.903
94.9582
135.926
127.487
130.556
134.309
159.238
191.902
215.474
161.478
161.194
162.763
156.358
175.333
246.036
120.309
135.302
279.478
302.469
200.583
277.654
162.952
160.414
153.906
91.3503
90.4868
5.80774
9.67527
87.7718
37.9
12.6386
8.0548
7.77957
34.9612
131.379
73.4205
91.7679
25.8423
30.5004
10.5039
59.0275
10.2131
78.2443
26.5276
128.825
36.5234
45.3648
159.822
99.84
145.402
6.99976
9.90076
7.89205
9.07485
6.95082
25.3085
43.6449
76.3477
85.5424
4.99222
43.7264
15.0088
9.15206
13.55
27.908
97.2353
15.5796
23.3395
32.3177
99.9899
34.921
13.3516
58.2849
40.3789
69.8919
98.0128
130.757
115.169
12.7318
53.3184
106.917
45.5795
156.094
40.666
145.328
34.1964
89.0972
137.684
3.68675
51.6404
13.1495
86.5043
5.20176
108.999
91.6875
107.951
31.8579
30.6278
34.8476
85.0476
36.0409
16.7063
5.67351
94.6195
142.999
70.2654
17.8303
144.635
109.277
29.2099
144.614
77.9975
12.8627
6.56619
47.0824
54.6944
132.255
237.176
63.8661
87.9013
8.51881
15.724
34.9625
101.164
122.665
11.1287
86.7655
15.9153
33.3805
8.3805
53.6831
7.70309
45.4535
99.0616
10.1133
10.6744
143.252
9.03945
108.653
21.0143
54.2953
135.009
98.4192
190.531
102.016
108.123
99.8258
104.899
73.2056
99.1891
64.0579
22.8573
10.4425
127.2
39.3461
10.269
50.1108
90.6916
36.1012
17.0999
120.137
6.95474
41.6931
38.5873
7.17674
5.15546
36.9847
19.9172
35.8508
14.7844
51.2513
146.721
6.05771
10.3459
13.8008
100.025
37.8976
6.42475
28.5151
138.918
15.2336
27.1793
44.184
7.29006
29.112
39.4694
8.6928
107.478
127.47
6.54575
16.8315
2.90499
114.96
15.3339
12.9697
36.0576
17.1188
9.27692
6.59958
17.3873
17.1566
5.91016
7.81037
8.13163
141.574
15.45
17.5753
14.4825
17.0371
39.5404
43.2052
12.1559
13.2158
15.2044
16.609
63.8572
138.764
84.5253
30.0817
21.913
95.096
128.417
35.1746
121.622
81.7681
26.3033
13.4576
31.3385
6.89879
122.097
60.288
160.493
55.0462
7.79364
138.226
43.152
51.6582
83.6533
117.081
91.1131
128.216
11.1413
100.556
40.7876
116.953
91.9016
161.103
6.31465
26.1478
17.3798
68.0356
37.7606
59.0851
74.8683
56.4809
6.2617
14.4085
10.0145
41.2576
105.959
80.1349
133.916
92.7637
17.6221
7.58247
43.6307
58.8018
48.5952
20.0329
14.4471
13.5995
40.7058
72.5542
46.6354
55.0995
91.4625
7.76287
6.49849
25.466
61.1322
36.2852
107.802
19.469
86.1984
144.424
89.6645
81.3022
173.884
34.0779
132.022
105.902
26.558
12.4776
25.7983
14.6669
7.02419
4.82419
107.202
63.7421
127.43
130.699
138.639
182.262
33.1154
35.0193
88.6228
85.5197
99.1164
102.62
8.80754
12.7784
86.6629
98.3548
7.08782
130.765
39.5994
10.6887
50.1944
46.1498
17.6651
18.1666
13.1785
54.3673
8.53819
21.7348
37.5121
34.2662
23.935
271.399
6.54355
40.5105
23.8578
7.49126
9.16222
40.9295
6.46525
9.26879
5.99518
58.3583
63.5729
141.017
84.7041
87.4923
8.39194
70.7331
6.17915
138.658
73.1311
5.71778
59.0621
49.7593
111.158
133.389
68.9739
73.0956
95.6461
8.39531
8.54247
126.982
15.9239
6.60554
44.5453
4.38917
122.4
37.2281
125.735
9.52913
157.929
70.5137
9.90267
129.792
57.9451
6.50947
64.2803
80.5099
44.2947
82.1145
34.5213
136.377
50.3748
83.2283
29.5686
69.3379
34.8788
117.967
44.9943
141.544
188.683
83.2968
173.817
177.556
172.726
6.82204
31.5558
50.4553
10.8698
124.707
7.1033
66.9119
101.513
11.8953
125.168
64.198
5.94758
24.8971
32.3607
10.8711
33.2444
26.8269
13.8442
14.4692
257.834
110.697
101.377
82.5292
9.81841
11.0824
103.537
70.5721
77.1108
62.1615
79.5357
88.2507
152.59
56.611
31.1357
120.603
6.22833
71.3718
127.633
85.6995
30.0759
6.06575
9.20642
7.84826
11.3539
10.1893
23.9175
81.3089
7.80067
13.1637
78.7231
14.9827
76.2911
106.606
96.2128
7.64465
85.3379
57.6042
6.44186
8.64931
9.67659
14.0847
233.582
11.6276
94.6685
13.94
10.4459
7.88604
2.92293
118.64
5.93836
14.318
59.2899
14.4558
126.499
103.173
122.988
64.3527
44.9229
51.3555
24.876
60.7172
16.4391
34.1461
102.758
2.8242
58.4956
73.5495
35.501
70.3667
55.732
125.187
23.9379
48.9461
18.124
48.8719
130.24
63.6774
13.3799
10.2156
16.6609
13.5686
97.0492
76.2048
45.5255
54.8835
173.214
26.8865
135.116
62.6376
70.3023
63.9883
17.136
74.2724
119.275
11.6662
22.2726
99.3569
21.1539
163.274
53.1718
80.3074
147.861
79.3538
107.902
102.902
89.6844
95.8342
6.69645
6.3415
13.2856
7.7254
38.0184
10.7731
94.8198
32.754
86.9935
59.6856
127.021
84.3181
121.446
12.9741
122.11
122.566
9.18502
7.19001
130.146
65.9933
13.6121
16.1598
73.7657
35.7836
179.086
32.3003
24.7591
12.952
10.3346
65.9611
73.5287
81.8311
17.6045
181.076
85.3341
50.1439
189.57
7.64741
12.8167
106.147
89.2037
6.96595
7.95407
39.2772
14.8773
61.8847
164.908
31.4316
9.39177
50.1937
168
63.4766
80.7406
42.7485
70.7287
10.4334
7.56213
6.76884
8.46359
16.6479
10.5381
111.434
6.72159
4.23895
115.011
8.72821
67.2201
32.5046
24.568
)
;

boundaryField
{
    frontAndBack
    {
        type            empty;
    }
    wallOuter
    {
        lowReCorrection 0;
        type            epsilonWallFunction;
        value           nonuniform List<scalar> 
108
(
98.1865
167.854
91.4833
8.72804
9.58323
18.7473
25.8691
8.32676
12.3099
19.8072
7.35993
27.6213
22.9978
10.0697
7.21628
9.91013
126.684
31.5524
30.41
16.947
18.5076
129.979
14.6576
32.7064
101.208
112.903
94.9582
135.926
127.487
130.556
134.309
159.238
191.902
215.474
161.478
161.194
162.763
156.358
175.333
246.036
120.309
135.302
279.478
302.469
200.583
277.654
162.952
160.414
153.906
91.3503
9.67527
30.5004
145.402
9.07485
99.9899
145.328
34.1964
144.635
86.7655
10.6744
98.4192
104.899
73.2056
38.5873
36.9847
14.7844
37.8976
29.112
39.4694
127.47
2.90499
2.90499
12.9697
17.1188
17.3873
17.1566
141.574
15.45
17.5753
14.4825
17.0371
39.5404
43.2052
12.1559
13.2158
15.2044
16.609
63.8572
121.622
81.7681
7.79364
83.6533
91.9016
161.103
46.6354
55.0995
144.424
89.6645
63.5729
10.8698
103.537
62.1615
13.1637
57.6042
11.6276
10.2156
16.6609
173.214
)
;
    }
    inlet
    {
        type            fixedValue;
        value           nonuniform 0();
    }
    outlet
    {
        type            zeroGradient;
    }
    wallInner
    {
        lowReCorrection 0;
        type            epsilonWallFunction;
        value           nonuniform List<scalar> 
126
(
37.7206
77.076
15.1339
9.3277
74.2616
98.0122
8.47387
7.48806
19.4461
102.71
12.0837
73.8983
6.65328
17.3724
46.8735
38.8012
13.0178
7.05164
6.67284
11.7877
78.7148
6.26458
55.8699
21.8175
6.14225
34.9866
91.9095
8.5083
9.61168
27.1324
8.85003
9.9523
112.113
115.929
78.2245
54.1696
13.4812
93.0905
8.70631
83.8961
59.4551
9.03601
5.79292
72.1313
64.1279
14.4591
27.4215
15.8254
7.15398
101.889
33.7645
7.57256
109.669
106.151
96.4964
6.35146
41.5741
133.869
128.892
60.9682
7.59508
17.5939
40.4916
201.879
40.3112
155.761
79.6528
21.9121
89.1648
100.269
103.338
101.928
13.0925
94.7264
127.412
227.485
18.341
21.2828
11.0156
8.53304
8.55056
7.35152
179.104
207.255
189.77
250.671
195.792
224.251
73.0979
285.19
190.531
103.173
60.7172
181.076
50.1439
189.57
7.64741
12.8167
106.147
6.96595
7.95407
39.2772
14.8773
61.8847
164.908
31.4316
9.39177
50.1937
168
63.4766
80.7406
42.7485
70.7287
10.4334
7.56213
6.76884
8.46359
16.6479
10.5381
111.434
6.72159
4.23895
115.011
8.72821
67.2201
32.5046
)
;
    }
    procBoundary1to0
    {
        type            processor;
        value           nonuniform List<scalar> 
29
(
33.7249
33.7249
12.4641
19.035
53.8274
45.6431
120.501
29.7893
101.13
20.2945
19.514
45.6431
12.4641
28.8648
55.4392
18.2175
53.8274
61.9077
19.035
42.8516
9.356
5.59434
71.0131
10.8056
10.8056
71.0131
7.22482
76.1785
7.22482
)
;
    }
    procBoundary1to2
    {
        type            processor;
        value           uniform 34.3953;
    }
    procBoundary1to3
    {
        type            processor;
        value           nonuniform List<scalar> 
48
(
50.7719
91.0538
68.7994
68.7994
65.7869
109.296
109.296
12.1165
30.1059
4.84891
2.12608
4.84891
8.38875
34.9122
38.1088
8.38875
6.64634
6.64634
5.5424
5.5424
24.5877
20.9921
6.91399
12.7955
12.7955
7.5584
16.2762
16.2762
11.3232
46.6024
12.4903
11.3232
12.1165
20.904
6.71564
46.6024
15.9635
2.12608
41.6991
52.4674
32.2002
17.8937
20.904
6.71564
36.751
72.3843
58.9729
32.2002
)
;
    }
}


// ************************************************************************* //
