/*--------------------------------*- C++ -*----------------------------------*\
| =========                 |                                                 |
| \\      /  F ield         | OpenFOAM: The Open Source CFD Toolbox           |
|  \\    /   O peration     | Version:  v1912                                 |
|   \\  /    A nd           | Website:  www.openfoam.com                      |
|    \\/     M anipulation  |                                                 |
\*---------------------------------------------------------------------------*/
FoamFile
{
    version     2.0;
    format      ascii;
    class       surfaceScalarField;
    location    "0.32";
    object      phi;
}
// * * * * * * * * * * * * * * * * * * * * * * * * * * * * * * * * * * * * * //

dimensions      [0 3 -1 0 0 0 0];
oriented        oriented;


internalField   nonuniform List<scalar> 
2776
(
-0.000671017
-0.000155469
0.000653939
0.000172546
-0.000884689
0.000957859
0.000303875
-0.000377046
-0.000307232
-0.000233101
0.000196624
0.000343709
0.000172792
-8.05323e-05
0.00107255
-0.00116481
-5.28348e-05
0.000418113
-0.000124675
-0.000240603
-0.000113512
-0.000534667
0.000405786
0.000242394
0.000150947
0.000122967
0.00045126
-8.75041e-05
-0.000687686
0.00032393
0.00100556
0.000883637
-0.000887344
-0.00100186
-0.000979352
0.000796223
-0.000254166
0.000437295
-0.000378881
-0.00119805
0.000541961
0.00103497
0.000452789
0.000190326
-0.00059387
-4.9245e-05
0.000876201
0.000114291
-0.00135366
0.000363164
-0.000128806
-0.00019799
0.00027396
0.000159379
-1.21828e-05
-0.000260709
0.00051168
-0.000167827
-0.000722734
-0.000276277
0.000158576
0.000300613
-0.000182913
3.77969e-05
-0.00045567
0.000417873
0.000540939
-0.000165474
8.46957e-05
-0.00046016
0.000759176
-4.76832e-05
5.67006e-05
-0.000768193
-0.000689854
2.71616e-05
-1.85902e-05
0.000681282
1.44013e-06
0.000216914
-0.000313766
9.54115e-05
0.000608418
2.21891e-05
-2.39641e-05
-0.000606643
0.00072351
4.97302e-05
-3.43434e-05
-0.000738897
0.000307599
-0.000377786
-0.00116662
0.00123681
3.74156e-05
-4.27344e-06
4.73831e-05
-8.05253e-05
-0.000231589
9.25629e-06
0.000116373
0.000659055
-0.000739901
-3.55269e-05
7.69358e-05
-0.000116313
0.000188657
-0.000149279
-0.000369445
0.000421623
0.000642582
-0.000694759
0.000579486
-0.000903015
-0.000108483
0.000432012
4.96459e-05
-4.44288e-06
4.06628e-06
-4.92693e-05
1.86823e-05
0.000191717
-0.000144189
-6.62102e-05
-0.0004482
0.000422921
-0.000791007
0.000816285
4.37461e-05
8.55886e-06
0.000403936
0.00022911
-0.000138357
-1.38178e-05
-0.000573218
3.99829e-06
-0.000546686
0.000174983
0.000930985
-0.000235679
-0.000695306
6.9133e-05
-0.000332107
0.000262974
-6.16177e-05
4.8118e-05
1.34997e-05
-0.000473006
0.000537582
-6.45765e-05
-0.000477626
0.000471566
6.06075e-06
0.000104417
-3.25704e-05
-7.18469e-05
0.000234593
8.66224e-06
-0.000243255
0.000701378
-0.000120427
0.000953344
8.20516e-05
0.000320265
-0.000423667
0.000103402
-0.000357418
0.000403426
-4.60085e-05
-0.000264034
0.000321404
-5.73701e-05
-0.000212021
0.000101771
0.00011025
-0.00021439
-0.000670299
-0.000446517
-8.81503e-05
0.000446021
-2.79084e-05
0.000120141
-0.000101459
-0.00108575
0.00139335
0.000560872
-4.13507e-05
-0.000519522
-0.000979076
-0.000218978
-2.56628e-05
-9.74538e-05
0.000123117
-0.000812729
-0.000166623
4.06066e-05
-2.97954e-06
3.16283e-06
-4.07899e-05
0.000181033
-0.000188768
-5.38823e-05
0.000186162
-0.000152126
3.50967e-05
-0.000208104
5.31875e-05
0.000599106
-0.00044419
0.000800289
-0.000697504
-0.000203852
0.000101067
0.000265746
-0.000315904
8.87843e-05
-3.8627e-05
0.000217998
5.99314e-05
-6.48249e-05
-0.000213104
-0.000201137
-5.32424e-05
-0.000449287
0.000897463
-0.000901941
6.79833e-05
-6.3505e-05
0.000193974
-0.000296628
-0.000169826
0.00027248
0.0001553
-0.000146285
2.25616e-05
-3.15767e-05
5.79955e-05
-0.000567632
0.000509637
5.61126e-05
-0.000566875
0.000510762
0.00105084
-0.000449032
-0.000804497
0.000202688
3.35511e-05
-6.70281e-05
7.40836e-05
-0.000666212
-7.85828e-05
0.000326981
0.000417813
-6.95628e-05
0.000192248
5.83472e-05
2.48426e-05
0.000181039
-1.97192e-05
-0.000253193
0.000169665
8.35279e-05
0.000114968
-0.000407718
0.000356782
-6.40317e-05
-0.000574535
4.87034e-05
-9.08876e-05
0.000616719
-0.000328752
0.000516227
0.000354486
3.32416e-05
0.000221117
-2.93953e-05
-0.000224963
-0.000321387
-6.28266e-05
0.000274143
0.000110071
-0.000544752
1.50302e-05
0.000541386
-1.16642e-05
-5.61289e-05
0.00058418
-0.000570278
4.22271e-05
-0.000761747
0.00115718
-0.000843633
4.59322e-05
-1.89902e-05
0.000344363
-0.000371305
0.000764025
-0.000407575
4.56928e-05
-1.84587e-05
6.35273e-05
-9.07614e-05
1.47862e-05
1.32426e-05
9.38675e-06
-0.000231787
6.5774e-05
-6.55763e-05
0.000284541
-0.000869873
0.000758123
-0.000312035
0.000268748
-0.000399348
0.000442635
-1.70926e-05
-0.00029534
0.000224929
-0.000187091
0.000819715
0.000138144
-2.57324e-05
-8.01818e-05
-2.43534e-05
-0.000100322
0.000193765
2.44692e-05
7.73021e-05
5.71644e-05
0.000263101
-4.84317e-05
-0.000308986
-0.000508578
3.09515e-05
-5.81181e-05
-0.000629568
-4.3091e-05
2.23545e-05
0.000381442
0.000653532
-0.000110145
4.64114e-06
-2.31127e-05
1.5492e-05
0.000561683
-0.000593174
2.65564e-05
4.93437e-06
-3.05199e-05
-0.000532828
0.00040788
0.000288894
0.000507329
-2.09661e-05
-8.67187e-05
2.34725e-05
8.42123e-05
0.000421153
-0.000115357
0.000161559
-0.000458084
0.000749314
8.95213e-05
6.622e-05
-4.79421e-06
-9.94791e-05
0.000146993
0.000104904
-0.00110089
0.000986383
3.39733e-05
-0.000343727
-1.07419e-05
0.000229449
0.000125019
5.55947e-06
-3.59797e-05
1.5005e-05
1.54153e-05
-3.73584e-05
0.000141776
-1.09347e-05
0.000245528
0.000409567
-0.000182352
-0.000705215
0.000185159
0.000630751
-0.000110695
-0.000201951
0.000733699
3.6168e-05
-0.000567916
-0.000327532
0.000935156
6.353e-05
-0.000671154
-5.99677e-05
6.16546e-06
7.94503e-05
-2.56481e-05
0.000116485
0.000549928
0.000138456
0.000641167
9.36358e-07
-1.45917e-05
-7.13648e-07
1.4369e-05
-0.000183134
0.000297558
0.000149321
-6.87962e-05
0.000112443
-7.23171e-05
-9.22072e-05
0.000729274
2.51244e-05
-0.000662191
0.000679305
2.13947e-05
-1.86465e-05
-0.000682054
0.000513443
-2.85086e-05
3.46205e-05
-0.000519555
0.000214592
-0.000146909
-0.000133115
6.54319e-05
-0.000557592
-0.000105108
2.9217e-05
0.000633483
5.48247e-05
2.63197e-06
-7.81077e-06
8.34907e-05
-4.20334e-05
-3.1396e-05
-1.00612e-05
0.000134222
-0.000114607
3.16881e-05
-5.13038e-05
0.00016559
-0.000121547
1.64916e-06
1.31146e-05
-1.92946e-05
0.000228125
-0.000424048
0.000499798
-0.000839726
-0.000100101
0.000234613
7.73373e-05
-9.86667e-05
4.23684e-06
-0.000175546
-4.35104e-05
-1.97301e-05
0.000238786
0.000224449
-7.21112e-05
9.11239e-05
0.000710616
-5.66116e-05
-0.000745128
0.000756666
-0.000705456
-0.000812957
8.43891e-06
1.94852e-05
3.89061e-06
-3.18147e-05
-0.000752644
0.000247002
0.000487567
1.80746e-05
-2.79293e-06
-6.76438e-06
6.4382e-05
-0.000650969
0.000202388
0.000563549
-0.000231622
0.000175493
0.000507995
-0.000764469
-0.000161288
0.000417762
-2.37871e-05
0.000105575
-0.000364319
0.000282531
8.98514e-05
-0.000383838
0.000758294
-0.00069822
7.83816e-05
0.000558716
-0.000514817
7.25861e-05
0.00065115
-0.000549721
-6.01295e-05
-4.12996e-05
0.000119439
0.00155029
-0.00121791
-0.000451826
0.000612969
-0.000836223
0.000339628
-4.40241e-06
1.08371e-05
3.74934e-05
-4.39281e-05
0.000239755
-2.11343e-05
0.000102784
-4.33774e-05
0.000101114
0.000554428
-0.000666234
0.000111805
-0.000402886
0.000287028
-0.00127326
0.00138912
-0.000450443
-2.80987e-05
0.000619009
-0.000140468
0.000227563
-0.000194862
-0.000402146
-3.33808e-06
-8.33368e-07
8.81259e-06
2.61951e-05
4.06468e-05
8.8458e-05
-0.00131742
0.0011608
-0.000250494
0.000407115
0.000381868
-0.000327482
-0.000133172
7.87856e-05
0.000151944
-0.000523375
0.000493722
-0.000122291
-0.000262372
7.0465e-06
0.000159933
9.53928e-05
-2.47348e-05
-1.51778e-06
0.000381675
-0.000355423
0.000600226
1.22345e-05
-2.82804e-05
-0.000535223
2.34366e-05
-3.29659e-05
-0.000355975
-0.000187645
0.000222232
-0.00102197
-0.000171063
0.000291094
-8.65718e-05
1.96366e-05
-0.000186257
0.000695335
-0.000192037
-0.000595505
6.00262e-05
-4.73863e-05
-9.47705e-06
-0.000449169
0.000329873
0.000403837
0.000289784
0.000359521
-0.000577513
-7.17912e-05
0.000121342
0.000158515
-0.0010325
3.54795e-05
-1.38172e-05
-2.50003e-05
-0.000112324
-0.000184305
-0.000372334
0.000306403
0.000491178
-0.000425247
-0.000253772
5.71261e-05
3.87104e-05
0.000157936
-0.000723883
0.000456074
-0.000419451
-0.000228931
0.000199214
0.000109651
-3.53964e-05
-0.000508578
0.000453547
0.000374238
-0.000319207
-0.000389157
0.000387889
6.11689e-05
-5.99012e-05
-0.0001358
-5.43919e-05
4.3907e-05
-0.000251364
-0.000423811
7.33639e-05
0.000709968
0.000497094
0.00078928
-0.000416596
-0.000869778
-7.94394e-06
6.81342e-06
1.45307e-05
-1.34002e-05
1.26944e-05
0.000750514
-4.03275e-06
4.80317e-05
0.00058841
-9.55028e-05
-3.08152e-05
1.66613e-06
-0.000550958
0.000580108
-2.08147e-05
1.64933e-05
-0.000240237
0.000244559
0.000427987
-0.000167304
0.000352285
8.17341e-06
-0.000685141
-1.28859e-05
4.65985e-05
-0.000579869
0.000778399
-0.000245129
0.000623023
0.000101995
-0.000124792
-0.000514762
2.61377e-05
-0.000239324
-0.000468089
0.000351438
-0.000184707
0.000704509
0.000238493
-0.000164843
0.000541933
0.000181626
-4.96814e-05
-1.12378e-05
-2.57994e-05
-4.19451e-05
-2.99288e-05
5.58261e-05
-4.34593e-05
-2.21956e-05
-0.000484953
0.000351204
-0.000132589
-0.000236871
8.59867e-05
0.000283473
0.000114878
0.00013768
-3.48427e-05
-0.000217715
4.99581e-06
-2.30865e-05
-9.51774e-05
5.841e-05
-1.2914e-05
3.95513e-05
-6.04804e-05
4.34906e-05
-4.66492e-05
0.000322751
-0.000558936
0.000282834
6.95842e-05
-0.000415342
-0.000231756
-8.54429e-05
0.000410143
-0.000371122
4.64221e-05
0.000167786
0.000112117
-0.000153081
-0.000126823
-2.99786e-05
-0.000252962
4.35152e-05
-8.15121e-05
5.6396e-05
-1.8399e-05
1.10561e-05
0.000208453
0.000125265
-0.000140961
-0.000192756
8.91933e-05
-5.3246e-05
-0.000443666
0.000468273
-0.00031942
-0.000334879
2.1792e-05
2.90261e-06
-1.2273e-05
-1.24216e-05
8.31729e-05
-0.000644948
-1.96803e-06
2.91005e-06
-4.64766e-05
4.55346e-05
-0.000257744
0.0009057
-0.000293346
0.000251224
-2.95732e-05
7.16958e-05
-0.000310936
0.000751111
0.000587137
0.000206946
-0.00017106
0.000834285
-0.000420477
0.000898821
-9.90472e-05
0.000123257
0.000539777
-0.000563988
-3.76918e-06
4.93277e-05
-5.35024e-05
7.23379e-05
1.95917e-05
-8.11898e-05
0.000630518
-0.000790598
-0.000969897
0.00120533
0.000555164
-0.000379378
0.000381044
-0.000187727
0.000289722
8.36504e-05
-6.71571e-05
-3.10376e-05
0.000416123
-2.35726e-05
0.000480032
-3.55383e-05
-5.87028e-05
0.000461874
-0.000453728
-0.000518639
0.000510493
-2.26174e-05
-0.000437159
0.000519891
-8.27325e-05
-5.97293e-05
7.1408e-05
-0.00056701
-0.00013962
-0.00130291
0.000651928
0.000219312
-0.000450934
-0.000367555
-1.18227e-05
8.90473e-05
-5.39687e-06
1.14203e-05
4.65936e-06
-9.26619e-06
-4.18111e-05
4.36879e-05
-4.89235e-05
6.39596e-05
4.17109e-05
-0.000726931
0.00024403
-0.000154342
0.000637242
-0.000572669
0.000450936
0.000172575
-0.00020962
-7.75618e-05
-5.76201e-07
4.77646e-05
1.28565e-05
-6.00449e-05
-0.000304229
0.000219697
0.000164823
-8.02909e-05
0.000317542
-0.000182542
0.000455057
-0.000590057
-0.000580967
0.000526797
0.00023865
5.66669e-06
-8.5536e-05
-0.000158781
-1.36053e-06
-3.4682e-05
0.000147254
-0.000111211
0.000346097
-0.000431826
2.60003e-05
-2.03522e-05
0.000322938
-0.000120337
7.07219e-05
-4.78388e-05
0.000937039
-0.000851162
-0.000502473
0.00055319
0.000387144
-0.000755175
0.000549001
0.000104939
-0.000819003
4.93278e-05
-0.000826997
0.000417608
-2.62207e-05
-0.000161424
0.000352525
-0.000329088
0.000180563
-8.70901e-05
-0.000150843
-5.14781e-05
1.78617e-05
-1.92186e-06
-4.27178e-05
-0.000138964
6.9989e-05
0.000111693
-1.73963e-05
7.73832e-05
3.68715e-05
-9.68584e-05
7.59296e-05
-2.05057e-05
-5.5424e-05
-0.000559229
0.00139388
-0.0010924
0.000473352
-0.000592731
-0.000759058
0.000104134
-0.000215187
-0.000123514
-0.000169382
-3.06202e-05
-4.28827e-05
0.000242885
-6.35254e-05
1.45637e-05
0.000285013
-0.000236051
-0.000886068
0.000915993
0.000363047
-0.000392972
-0.000166238
0.000102117
-0.000881517
0.000945638
-0.00111669
0.000548577
0.000770497
-0.000122107
0.000462089
-0.000352416
0.000729392
0.000131676
0.000286897
-0.000153222
-0.000265351
7.8211e-05
-0.000465136
4.95643e-05
0.000337361
0.000649699
-4.26258e-05
1.19358e-05
-6.40258e-05
8.02613e-05
3.17341e-05
-4.79696e-05
0.000700493
-1.41707e-05
0.000322779
-0.0010091
-0.000146447
0.000194153
-0.000111232
6.06763e-05
2.95836e-05
6.91192e-05
-4.39034e-05
-6.30615e-06
-1.26848e-06
-0.00101256
-8.47112e-05
0.000134461
0.000962808
-0.000985132
0.000471723
0.00101017
-0.000496759
0.000158068
-0.000452295
0.000578555
0.000574233
-3.54621e-06
1.00198e-06
-6.12813e-05
0.000136609
0.000397876
-0.000473204
7.47282e-05
-0.00053475
0.000497818
-0.00046857
-0.000244217
8.16813e-05
-7.05649e-05
0.000778554
-0.000871766
0.000337242
-0.000211867
0.000312686
0.000361056
0.00122187
-0.000562738
0.000265272
-0.000924402
0.000461404
-7.45611e-05
-0.0002655
8.30889e-05
-2.81535e-05
-0.00027882
0.000139851
0.000293624
-0.000154655
-7.16829e-05
-0.000134861
0.000122907
8.36367e-05
-8.27132e-05
-5.74763e-06
6.87569e-05
1.9704e-05
-0.000414285
-7.30796e-06
-0.000448185
0.000285096
2.28008e-05
0.000288225
-0.000446876
0.000516128
-0.000357477
0.000464155
0.00111146
-2.53175e-05
-1.67096e-05
9.26392e-05
-0.000602259
-2.20847e-05
0.00079539
-0.000684564
0.000380811
-0.000491636
-0.000151713
-0.000836722
-3.35365e-05
0.000254678
0.000504373
-0.000535445
-0.000706175
0.00156025
0.000367788
-2.42336e-05
-0.00116757
0.00134418
-0.000152376
-2.12148e-05
0.000116546
0.000139323
-0.000175608
0.000161878
0.000146154
0.000353257
-0.0002703
-7.89815e-05
-0.000483756
0.00133919
-0.00055231
-0.00149305
0.000352507
-0.000443186
8.54744e-05
9.85672e-06
0.000358758
-5.80433e-05
4.7283e-05
-3.03068e-05
0.000620266
-5.85874e-05
-0.000383777
0.000441275
1.09023e-06
9.01338e-05
-0.000165859
-7.75131e-05
0.000238214
5.72973e-05
0.000696357
-0.000639002
-0.000534555
0.0004772
0.000695897
-0.000878497
0.000656948
-0.000474347
-0.000178929
9.99477e-05
0.000206104
0.000619732
-0.000458152
0.000312913
0.00106123
0.000311308
1.71437e-05
0.00049812
-0.000282892
-0.000215228
0.000598999
-0.000851047
-0.000327436
0.000135958
-5.27392e-05
-0.000626341
-0.00015775
0.000110004
0.000674086
0.000232258
0.00040639
-0.000448323
0.000704616
-0.000206495
-0.000417522
-0.00023967
0.000345157
0.000488751
-0.000717752
0.000425492
-9.80826e-05
3.92608e-05
-0.00036667
-1.93243e-05
0.000465085
-2.85922e-05
-0.000417169
0.000486715
-8.05478e-05
-5.25282e-06
0.000554742
-6.27738e-05
-0.00051936
-6.44317e-05
0.000549335
3.44559e-05
-5.95271e-05
0.000380319
-8.06589e-05
1.21865e-05
0.000209759
0.000158374
8.0108e-06
0.000289189
4.46839e-06
0.000197696
1.25117e-05
-5.20457e-06
-0.000131159
0.000123852
-0.000366677
-6.12765e-05
0.000383125
4.48294e-05
3.04394e-05
-0.00019854
0.000192819
-2.47182e-05
-1.94281e-05
-0.000362541
1.52918e-05
1.15324e-05
4.31975e-05
6.36652e-05
-0.000118395
-5.29049e-06
-3.04898e-05
8.37806e-05
-4.80003e-05
1.2349e-05
-4.25626e-05
-0.000253447
0.000958062
-3.40115e-05
5.47379e-05
-9.19398e-06
1.39431e-05
-1.92336e-05
-8.22934e-05
7.34394e-05
2.1203e-05
0.000119353
-5.43927e-05
-0.000522415
9.05402e-05
-0.000492865
0.00092474
7.30363e-05
9.39917e-05
-0.00114295
-0.000202346
0.00113729
0.000208004
-7.69027e-05
3.49204e-05
5.14045e-05
-9.42217e-06
0.000552595
-0.000281136
-0.000793874
3.57064e-05
0.000113621
-0.000315417
0.000121134
0.000256044
-6.17614e-05
0.000150585
-0.00012017
-0.000146836
0.000116421
2.79369e-05
7.83101e-05
-2.28015e-06
-0.000103967
-6.15327e-05
0.000704668
-0.000453047
0.00042722
-2.06952e-05
9.43777e-05
-0.000201691
-0.000278411
0.000257532
0.00022257
0.000158886
0.000194056
0.000132159
9.97632e-05
1.15186e-05
-9.95885e-05
3.8591e-05
5.00223e-05
-0.000412681
0.000254224
-0.000329405
0.000487862
-4.14767e-06
-1.18027e-05
-0.000104219
4.9862e-05
-7.47049e-05
-1.68782e-05
8.04373e-05
-0.00047624
-0.000670656
-0.000366046
-3.49515e-05
0.000384119
0.000106834
-2.42091e-05
-5.28749e-05
-8.15746e-05
8.835e-05
5.33279e-06
-0.000227872
6.22948e-05
0.000288544
4.8022e-05
-2.18986e-05
1.54416e-06
3.1881e-05
-5.79413e-05
-5.02938e-05
7.63541e-05
-6.08759e-05
4.75361e-05
-1.71501e-05
3.91051e-05
-0.000218034
0.00110352
3.91661e-05
-0.00114269
0.000147542
-0.000169757
0.00025034
3.53831e-05
-2.144e-05
-8.15526e-05
-7.2242e-05
3.93349e-05
-9.06259e-05
5.1291e-05
9.29477e-05
3.98346e-05
-2.53499e-05
4.86447e-05
-5.67579e-05
9.45237e-06
3.05932e-06
8.46196e-05
0.000109929
-0.000154714
0.00016437
-0.000153084
0.000143897
9.58519e-05
-9.22073e-05
0.000546381
-2.93489e-05
-0.000547552
0.000175969
-0.000197588
0.00113878
0.00017273
-0.000235989
0.000207157
0.000412149
0.000213171
-7.89394e-05
0.00014221
-0.000241829
0.00011146
-1.18404e-05
-0.00012275
0.000254575
0.000141859
-0.000273684
0.000118091
-0.000123464
5.3533e-07
0.000100825
-0.00010136
0.00140854
-5.43049e-05
-0.000260596
4.56603e-06
0.000250826
2.46918e-05
-1.52394e-05
-5.75166e-05
1.12112e-05
9.75946e-05
-5.12892e-05
3.46545e-05
0.000305039
-0.000118576
2.52271e-05
0.000149693
-9.97131e-05
0.000223765
-7.87659e-05
-0.00015463
8.23126e-06
0.000114349
-0.000137211
0.000130161
-6.32436e-05
0.000197913
0.000103087
-6.87422e-05
0.000157076
-0.000278655
-0.000458539
0.000468428
-7.43202e-05
-0.00018015
5.07468e-05
0.000197189
-5.99618e-05
0.000156559
-0.000293786
-9.45755e-05
-0.000423491
0.000117864
-6.94271e-05
0.000194987
-0.000165286
0.00023061
0.000134802
-0.000238287
0.000108852
0.000222363
-0.000170728
0.000105441
-3.83503e-05
-2.60707e-05
-4.03507e-05
-0.000126404
-0.000387146
8.2684e-05
0.000430867
0.000281934
-7.19224e-05
-0.000225772
1.57607e-05
0.000151893
0.000201544
-0.00010454
-0.000248897
0.00014573
0.001073
-0.000330526
-0.00095198
-0.000101766
0.000348124
3.55762e-05
-0.000150052
0.000230023
0.00112449
0.000246056
9.55952e-05
-7.21332e-05
0.000198901
-4.40481e-05
-8.09389e-05
-6.84915e-05
4.93066e-05
0.000330493
-9.96542e-05
-8.55656e-05
3.51679e-05
0.000497019
-5.26788e-06
-0.000107482
5.03708e-05
-4.78194e-05
0.000465877
-0.00036175
-0.000153812
-0.000462453
-6.40543e-05
0.000465231
8.82288e-05
0.000743133
-0.000616136
-0.000215226
5.56591e-05
0.000544047
0.00071374
-0.000309112
-7.76545e-05
0.000300918
8.58487e-05
-9.52933e-05
0.000684491
-0.000576069
-0.000160906
0.000641682
-0.000183839
0.000150623
-0.000103794
-0.000212115
-0.00018823
-0.000482738
-0.000111213
0.000535364
-0.000827722
0.000937322
0.000222569
0.000140858
0.00022531
0.000215443
0.000526028
-0.000553287
0.000115488
0.000227691
-7.55707e-05
-0.000168884
1.67636e-05
0.000313809
-0.000185553
4.47997e-06
-3.67871e-07
-0.00110953
0.0010853
0.000455448
4.16816e-05
0.000246004
0.000162601
6.9179e-05
-0.00030193
0.000283498
0.000703833
0.000723233
0.000205755
2.48911e-05
-0.000953879
-1.78265e-05
0.000158843
0.00056816
0.00017199
0.000242372
6.64874e-05
-0.000368821
-4.51026e-05
0.000500778
-0.000459337
3.66171e-06
-0.000838563
0.000709048
0.000108214
-0.000181551
0.000393262
-0.000109544
-0.000378294
0.00029361
0.000105321
4.57512e-05
-7.4396e-05
6.77498e-05
0.000388121
0.000411236
-2.75709e-05
-6.04008e-05
0.000127307
0.00109435
9.17118e-06
4.06157e-05
6.3219e-05
-2.18541e-05
-0.000460027
-0.000534065
0.000540737
-2.85265e-05
-0.000906106
0.000567859
-0.00068171
3.1133e-05
-0.000833293
-0.000449212
-0.000623849
0.000909773
-0.000163367
7.71185e-05
0.000152002
-0.000202552
2.82705e-06
-0.000200277
0.000371435
-0.000916159
0.000462001
1.34594e-05
-0.000970885
0.000661961
-0.000597181
8.03528e-06
-2.86586e-05
0.000707548
-0.000686925
0.000255179
0.000263263
3.86661e-06
-0.000358312
9.11826e-05
0.000122926
-6.69981e-05
-0.000128065
-1.93094e-05
2.92918e-05
-1.51853e-05
-0.000375607
0.000192103
-3.41212e-05
0.000149285
0.000410971
-0.000584566
3.44194e-05
0.0004595
9.54998e-05
-0.000102854
-0.000552885
-0.000677466
0.00124899
8.32743e-05
-3.72497e-05
0.000543233
7.49707e-05
0.000685152
-0.000643605
-0.000116518
-9.07626e-05
0.000132484
-0.00105428
-1.90329e-05
-4.23425e-06
0.0005665
-0.000528114
0.000249208
-0.000235952
0.000258269
-0.000271525
0.00154333
-0.000916675
0.000320307
-0.000946966
0.000450737
3.94213e-05
-0.000590791
-7.66042e-05
0.00080751
-0.0006258
-0.000374807
0.000193097
0.000294093
-0.000278101
-0.000198084
0.000725487
-0.000582736
-0.000457339
-2.09192e-05
-0.000152007
0.000354083
7.81473e-05
-0.000280223
-0.00124911
9.13309e-05
5.68917e-05
0.000810289
8.46064e-05
0.000209366
-0.00110426
0.000460427
0.000120291
0.000128177
-6.96208e-05
-3.27825e-05
0.000597232
-0.000906923
0.000558624
-0.000180835
-0.000255615
0.000138842
0.000297608
-0.000571842
0.000661706
-0.000662824
0.00069775
-0.000448228
0.000504987
3.90029e-05
0.00115671
-0.00115655
-0.00015522
-0.000358833
0.000953562
-0.000943218
-0.000332005
0.000548761
-0.000437131
0.000972047
-0.00100349
0.000926715
-0.000906777
-0.000337441
-8.89298e-05
1.10283e-05
-0.000196061
0.000124539
0.000156997
-3.49001e-06
0.00018753
4.36511e-05
-0.000187203
-0.000235074
-0.000115154
0.00016032
0.000185444
-0.000132863
-0.000505979
0.000291784
-0.000187327
-0.000854636
-0.000244169
0.000664811
-0.000804439
-0.000473508
-0.000630085
0.000820974
0.000799953
-8.07022e-05
-0.00016606
0.000127985
-0.000887962
-6.05555e-07
-9.55185e-05
9.22857e-05
-0.000884632
7.94875e-06
1.59482e-05
0.000880313
-0.00090421
2.56105e-05
4.40061e-05
0.000865598
-0.000909604
-0.000237573
0.000108481
-0.000188588
0.000746584
-0.000287724
-0.000142554
-6.16411e-05
-0.000569091
-0.000233561
0.000409345
-0.000551163
-1.40181e-05
0.000811062
-0.00077478
-0.000686228
-0.000882689
0.00102044
0.000548473
2.71179e-05
-1.22892e-05
0.000938734
0.000146809
0.000225694
0.00108541
-0.00113217
0.000715633
-9.0847e-05
-0.00104369
0.00109391
4.06251e-05
-0.00115359
-2.91603e-05
8.00839e-05
-6.33734e-05
-0.000630027
-0.000175763
0.000644884
0.000109558
-0.000528143
-0.000134612
0.000551542
-0.000413377
3.4204e-05
-0.00103094
-0.000495655
0.000477835
0.000149496
-1.04178e-05
4.29267e-06
5.54317e-05
-0.000606176
-0.000156714
-0.000186514
-0.000828959
-2.92801e-05
0.000858239
2.8091e-06
-3.40417e-06
-3.84782e-06
0.000277969
-0.00126604
-5.58384e-05
0.00104391
-0.000433105
9.34378e-06
-8.19143e-06
-9.11029e-06
0.000566032
-0.00054873
-6.29852e-05
7.7423e-06
-0.000950795
-2.6043e-05
8.97438e-06
-6.8497e-05
-4.42622e-05
-1.5612e-05
2.44778e-05
0.000679908
-0.000388917
0.000118761
0.000266834
0.000371357
0.000196592
0.000297677
5.55863e-05
0.000123798
-0.00041378
-1.42469e-05
0.000122957
-0.000246271
8.84716e-05
-0.00015126
0.000195072
4.21747e-05
-9.75613e-06
7.25905e-06
-2.12299e-05
7.21407e-05
-6.76204e-05
-0.000386288
0.00063471
-0.00025903
1.06069e-05
0.000867958
-0.00092157
0.000658032
6.03725e-05
0.000203166
-6.61363e-05
0.000197129
-5.90856e-05
4.22121e-05
-2.49376e-05
3.45938e-05
-9.42594e-05
-4.41281e-05
1.89818e-05
-3.51568e-05
1.61751e-05
-7.08553e-05
6.1509e-06
-4.97035e-05
2.78539e-05
2.18496e-05
-6.31309e-05
5.92884e-05
3.84256e-06
-5.01303e-05
-0.000353987
-5.55397e-05
5.14987e-05
4.04098e-06
6.99449e-05
-0.0011047
0.00117166
-0.000482983
-0.00148255
-4.53966e-06
2.35214e-05
-6.75334e-05
0.000162733
9.72354e-05
3.2948e-06
-7.46904e-05
2.49868e-05
3.46961e-05
0.000734324
-0.000713124
-0.000196963
2.33143e-05
3.74867e-06
3.00417e-06
-0.000429567
-0.00015696
-0.000191586
0.000340497
0.000147003
-6.44522e-07
-7.14e-05
3.86662e-06
-0.000173567
0.0002223
9.58247e-06
-0.000421599
6.62862e-05
0.000430041
-0.000482961
0.000632613
0.000736586
-7.8638e-05
-2.39961e-05
6.12664e-05
0.000678363
0.00124105
-0.000957895
0.000705615
7.31444e-05
0.000466768
-0.000345267
4.11011e-05
-5.18722e-05
-0.00013105
0.000122295
0.000113487
-0.000174263
-6.15198e-05
-0.000132489
-6.88418e-05
-0.000429584
3.66389e-05
-0.000688947
-0.000134218
8.45054e-05
0.000738659
0.00103734
7.3154e-05
-0.000346127
0.000286251
6.63938e-05
-0.000212793
0.00010655
-1.3911e-05
0.000200995
-0.000432061
-0.000336381
-6.46554e-05
-5.49377e-05
0.000216829
-0.000136653
9.01063e-05
-7.11398e-05
-8.75637e-05
6.4444e-05
-1.20251e-05
-0.000382272
-0.000671625
0.000615013
0.000885577
4.30638e-05
8.24479e-06
-6.51138e-06
-0.000676752
0.000596288
-7.54336e-05
-0.000309931
0.000294477
-0.000184285
0.00041259
-0.000112533
5.85655e-05
-1.89331e-05
7.29004e-05
-0.000121621
0.00031428
-7.74048e-05
-0.000150164
0.000123919
2.62457e-05
6.28773e-05
-8.37424e-05
2.08651e-05
2.16558e-05
-9.4899e-05
8.64906e-05
-0.000148163
0.000654315
0.000301359
-6.89934e-05
9.94395e-05
0.000171566
-0.000151653
-0.000358567
0.000325633
-2.5415e-05
-0.00119151
-3.73459e-05
9.66816e-05
0.00122397
-0.00116452
4.16627e-05
-6.92075e-05
4.93789e-05
0.000114571
-7.79461e-05
0.000128444
0.000434611
2.08471e-05
-2.7592e-05
0.000416888
-0.000298813
-0.000403253
6.9575e-06
-0.000812215
-0.000413691
-0.000237054
-0.000128275
5.73208e-05
-0.000321724
3.01086e-05
-5.23408e-06
-1.23714e-05
-1.25031e-05
1.24137e-05
-3.34619e-05
-0.000396829
2.37533e-05
-0.000158954
-0.000324462
9.14205e-05
0.000510179
-4.52602e-05
1.01034e-05
-0.000378929
-0.000988049
-1.94557e-06
0.000268063
-8.43391e-05
-1.05483e-05
4.28765e-07
-0.000249944
-0.000154115
0.000343659
-8.4781e-05
0.000361031
-0.000348757
-2.54154e-05
-0.000352493
4.46878e-05
-1.50902e-06
-6.92217e-05
-0.000135191
0.000544827
-9.4793e-05
2.4941e-05
-0.00019585
-0.000231688
-0.000774592
0.000995675
-0.000719748
0.000347031
-0.000509972
7.8369e-05
0.00086374
-0.000184083
0.000196364
6.93998e-05
-0.000234063
9.16925e-05
-7.28166e-05
3.75222e-06
-0.000236958
0.000190323
7.16107e-05
-1.52486e-05
-0.000130758
0.000791496
-0.000220368
-0.000769212
0.000228196
0.000123851
0.000238234
3.50306e-05
2.78466e-05
-0.000108031
0.00118595
4.50148e-05
-0.00016397
-0.000664667
-6.62109e-06
-0.000943108
0.000577666
-3.17778e-05
0.00018781
-1.91668e-05
0.000200288
-7.01526e-05
-2.94599e-05
0.000212505
3.70886e-05
1.61822e-05
1.34534e-05
0.00049568
6.82549e-05
-0.000191303
0.0003814
8.48023e-05
-0.000118318
-5.30565e-05
-0.000282187
1.89347e-05
-1.84189e-05
-0.000161795
0.000101382
0.000314637
0.00037245
-0.000460492
-4.71483e-05
-0.000703407
-0.000514753
0.000443568
-5.71528e-05
0.00010007
0.000114277
-5.08409e-05
1.49032e-05
2.47879e-05
-0.00026442
0.000166852
-0.000193824
0.000508915
-1.16741e-05
0.00013531
-0.000128801
0.000121121
-0.0001454
6.2385e-06
-5.2491e-05
0.000834171
-0.000495642
-0.000236412
0.000489962
-0.000570622
-7.23515e-05
-0.00013113
7.03413e-05
0.000456159
-0.00116511
-0.000279094
-0.000169155
0.000353244
-0.000405381
-0.000126982
-0.000562374
0.000474967
-0.000164153
-6.91303e-05
2.24564e-06
-0.000508721
-0.000559011
-0.00131765
-0.000197131
0.000184944
-0.000409286
4.89101e-05
0.000212401
-0.000129079
-0.000132232
0.000168976
-0.000144786
-2.57293e-05
0.000244129
-0.000271645
-0.000162949
0.000487479
-0.000385811
0.00012289
-9.9851e-05
-0.000430614
0.00109734
-0.000993569
6.04381e-05
0.000379233
-0.000249376
-9.99402e-05
0.000329622
6.39424e-05
-4.20892e-05
1.56255e-05
2.56303e-05
-0.000198653
-0.00154823
-0.00094695
-0.000382515
0.000312853
0.000142966
-4.54393e-05
2.38291e-05
-0.000128978
-3.23897e-05
-2.7851e-06
-3.97631e-06
-0.000169757
-0.000354362
7.47227e-05
-5.90998e-05
-0.000595553
0.000608247
-0.000538852
0.000601218
7.0291e-06
-0.000533823
0.000469393
6.44307e-05
-0.000472838
-6.60145e-05
-3.44511e-06
-0.000656852
0.000665026
-0.000575209
0.000591596
-1.63874e-05
-0.000527177
-0.000602808
-5.40439e-05
0.000646435
0.000627384
1.9051e-05
-0.000529444
-0.000442481
0.000458036
-0.000411156
-4.688e-05
-0.000338414
-0.000104067
-0.000237853
-0.000100561
0.000169052
-0.000111925
-6.88019e-05
0.000620112
7.27252e-06
0.00064282
-2.27084e-05
0.000667945
4.07014e-07
0.000569225
-0.000370796
0.000111237
-4.68647e-06
-0.00013057
-0.000283043
0.000142087
-0.00023736
0.000135006
0.000355932
-0.00021291
0.000316041
-0.000311987
-0.000723264
0.000162054
-2.36636e-05
7.72907e-05
0.000444191
-0.000649195
0.000126324
-0.000166075
0.000171694
0.000139819
0.00010042
2.3499e-05
-0.000846721
-4.16861e-05
-9.83708e-05
0.000134403
-7.84138e-05
9.61872e-05
-0.000839808
-0.000193753
-0.00147821
0.000568666
0.000268591
-0.000211422
-2.62178e-05
0.000668373
0.000135331
-0.000183431
0.000109325
-0.000156239
0.00105842
-0.00126421
7.51692e-05
2.79299e-06
-7.79621e-05
0.00125056
3.52922e-05
7.45463e-05
0.000233346
-0.000137019
3.69046e-05
2.37695e-05
0.000236934
0.000842092
-0.000852735
-0.000209725
-3.39976e-05
1.05288e-05
-0.000388466
0.000214613
0.000728281
0.000865345
-0.000867079
-0.000248799
-8.76565e-06
-8.22394e-05
4.25559e-05
0.000274631
-0.000162113
0.000174379
-0.000512822
-0.000820023
-0.000226853
-8.05009e-05
0.00015856
-0.000107166
0.000137024
-0.000188418
0.000241834
0.000234122
-0.000224732
9.71818e-05
-0.000113051
-7.8297e-05
-0.000260025
0.000668195
8.70381e-05
-2.61223e-05
-3.37585e-05
-2.95607e-05
6.67612e-05
0.000177422
0.000324191
-0.000471989
9.61792e-07
-0.0001375
0.000691594
0.000615899
-0.000181845
-8.70946e-05
-0.000542418
-0.000632846
0.000627579
-0.000180869
1.17149e-05
-0.000717814
0.000515019
-0.000149621
-0.000323818
0.000184711
1.70001e-05
0.000190888
0.000361753
-0.000516857
-9.9062e-05
0.000207556
4.61771e-05
3.01175e-05
-1.04912e-05
-0.000557579
8.71866e-07
-3.91138e-05
-3.4948e-05
0.000399105
0.000124622
0.000424664
0.000448238
-0.000129
0.000149839
0.000476275
-0.000523699
-8.77122e-05
2.18946e-05
-6.21635e-06
-1.69468e-05
-0.000501486
-5.93246e-05
-6.67346e-06
-0.000573118
-0.00136115
0.00112661
0.000181262
-8.55991e-05
0.000738508
0.000199699
7.19247e-05
8.87976e-05
2.70721e-05
-0.000180975
0.00026641
-5.33911e-05
1.27871e-05
5.67862e-05
-8.42211e-05
8.04411e-05
-0.000183423
6.01287e-05
-5.64028e-05
0.000156594
0.00076574
0.000484496
-0.000399042
-3.29408e-05
0.000247412
-0.000179932
-0.000349667
-8.9548e-05
9.53121e-05
-0.000255911
2.29965e-06
-0.000290822
5.88673e-05
0.000274288
-0.000349907
1.67517e-05
-0.000128793
-4.20693e-05
-1.71794e-05