/*--------------------------------*- C++ -*----------------------------------*\
| =========                 |                                                 |
| \\      /  F ield         | OpenFOAM: The Open Source CFD Toolbox           |
|  \\    /   O peration     | Version:  v1912                                 |
|   \\  /    A nd           | Website:  www.openfoam.com                      |
|    \\/     M anipulation  |                                                 |
\*---------------------------------------------------------------------------*/
FoamFile
{
    version     2.0;
    format      ascii;
    class       volScalarField;
    location    "0.9";
    object      k;
}
// * * * * * * * * * * * * * * * * * * * * * * * * * * * * * * * * * * * * * //

dimensions      [0 2 -2 0 0 0 0];


internalField   nonuniform List<scalar> 
1466
(
0.0515644
0.109705
0.158107
0.0302863
0.113261
0.432649
0.0684076
0.0819963
0.449162
0.0358642
0.223284
0.0737989
0.0100606
0.0367998
0.054063
0.0292262
0.0945135
0.0252008
0.17271
0.0316974
0.103271
0.0841985
0.0379289
0.137744
0.0389994
0.371128
0.409374
0.0547453
0.0398963
0.0560121
0.0942789
0.294558
0.0937331
0.0640067
0.0285167
0.0587561
0.0328728
0.0481872
0.753136
0.0788278
0.0709188
0.0308917
0.352429
0.0843584
0.0648063
0.270994
0.0648086
0.0248857
0.0292356
0.106009
0.196664
0.0241266
0.0896669
0.366973
0.0408494
0.0757118
0.0425426
0.31106
0.0287413
0.0738909
0.0264693
0.0486229
0.0977987
0.343689
0.111411
0.0419236
0.0785695
0.0972808
0.032562
0.0681935
0.305027
0.0380857
0.040632
0.0569759
0.0255819
0.0616529
0.0515826
0.0385166
0.0661963
0.0784104
0.209864
0.0591766
0.0636652
0.0291012
0.0413502
0.102951
0.0401636
0.12691
0.0474602
0.0671752
0.0444751
0.0451147
0.0781351
0.0273759
0.180246
0.0871229
0.116525
0.0362109
0.135633
0.0440611
0.0485151
0.054034
0.108185
0.0684967
0.0626939
0.368401
0.0874899
0.065404
0.131585
0.0438966
0.0247281
0.0358959
0.0426581
0.0502334
0.0115281
0.790038
0.0274755
0.0303255
0.0843168
0.325053
0.0819405
0.0299231
0.0219233
0.144052
0.0446385
0.0715879
0.0398414
0.0980294
0.0780759
0.389693
0.0364769
0.0467581
0.0549129
0.0805379
0.225003
0.0779804
0.0345009
0.0423052
0.0646206
0.032336
0.0271639
0.0439116
0.0810352
0.0977334
0.0648008
0.032468
0.0536253
0.106579
0.0828551
0.0407834
0.0758011
0.0581925
0.054141
0.115549
0.0543241
0.404242
0.0391443
0.180833
0.115665
0.0880754
0.0581231
0.0447819
0.0914592
0.0858756
0.0484368
0.0773035
0.363302
0.0167868
0.0351898
0.416258
0.0876361
0.102545
0.0468709
0.0766147
0.385832
0.114733
0.0423949
0.0769364
0.0500131
0.0770725
0.0355529
0.0783217
0.0497816
0.0420294
0.141531
0.0323289
0.0790827
0.779704
0.0670879
0.0874929
0.0637604
0.0293395
0.0443668
0.0994891
0.0734141
0.0444612
0.0641372
0.0494286
0.0425971
0.0386461
0.0504555
0.147108
0.0648855
0.0375676
0.0617662
0.0342191
0.080184
0.0929796
0.0508244
0.0746307
0.0652349
0.0634602
0.148802
0.0643976
0.107565
0.074272
0.0942933
0.0136054
0.0308407
0.0473353
0.500225
0.0442609
0.030298
0.0688771
0.0680101
0.0777426
0.0363902
0.0501837
0.0494581
0.387392
0.0529057
0.10487
0.0546639
0.0279334
0.059383
0.0608977
0.0297948
0.0678758
0.0377971
0.0452568
0.417234
0.0491329
0.0463784
0.039686
0.0378118
0.0300388
0.212654
0.0416212
0.0183485
0.0349157
0.0573103
0.240429
0.0349269
0.105438
0.0517159
0.215049
0.0424443
0.346605
0.869482
0.0475014
0.0664424
0.0574667
0.1975
0.0734513
0.537588
0.0610517
0.48189
0.04794
0.128069
0.0443236
0.144728
0.0308257
0.0465192
0.042832
0.0526573
0.0298605
0.0924546
0.0499814
0.130819
0.0350448
0.0539421
0.0242386
0.0387287
0.034814
0.101508
0.0341649
0.219734
0.0491911
0.482071
0.0489745
0.0849039
0.514288
0.259468
0.0566972
0.049629
0.188056
0.746436
0.815468
0.168962
0.0295476
0.0520705
0.0978216
0.0395585
0.229342
0.0610488
0.0735699
0.0383032
0.029187
0.0235485
1.1134
0.425501
0.14841
0.166098
0.0749265
0.035912
0.1022
0.0425825
0.328773
0.0666351
0.0510981
0.0916495
0.0793956
0.0626248
0.0398765
0.0237013
0.0493417
0.0937641
0.058224
0.13623
0.111285
0.032844
0.0353913
0.103326
0.0701461
0.0270224
0.0388324
0.0120181
0.256408
0.0280571
0.127538
0.0370226
0.0353679
0.0382182
0.0811157
0.0546462
0.178601
0.0329689
0.0268077
0.045292
0.510185
0.0477947
0.0667094
0.0463855
0.0289219
0.0278221
0.124899
0.0452227
0.0544715
1.08277
0.218021
0.454683
0.0809564
0.0762717
0.0541089
0.0263155
0.0597311
0.0868081
0.119364
0.0325848
0.0352706
0.15093
0.0204387
0.0319344
0.0368663
0.0876096
0.0300186
0.0440926
0.42046
0.0491082
0.0240549
0.0383751
0.0649812
0.196839
0.164387
0.0541819
0.248248
0.0564089
0.143166
0.0410514
0.051523
0.066638
0.292059
0.0651866
0.661912
0.0314422
0.0451417
0.0722628
0.30009
0.0601155
0.0152154
0.0243468
0.274576
0.0693851
0.05881
0.065395
0.0916421
0.106454
0.907355
0.0860228
0.0417351
0.120264
0.0625537
0.0289596
0.0351408
0.616183
0.0953666
0.13472
0.312128
0.0805075
0.0934135
0.299538
0.0305732
0.0995893
0.102791
0.106027
0.110147
0.0981552
0.100293
0.10357
0.104072
0.0502705
0.105603
0.142816
0.365399
0.684554
0.446418
0.59408
0.0880707
0.490782
0.423191
0.185233
0.0635017
0.290372
0.438015
0.444985
0.568048
0.416726
0.418873
0.629335
0.341689
0.70609
0.567049
0.433736
0.258275
0.572772
0.535479
0.442778
0.535557
0.325067
0.364024
0.556953
0.179114
0.233328
0.323428
0.337126
0.314001
0.490195
0.0880422
0.0525519
0.191151
0.430057
0.487555
0.342725
0.522024
0.195426
0.101211
0.256938
0.218617
0.13114
0.486474
0.051622
0.0796733
0.263828
0.0837103
0.10565
0.0440342
0.0760087
0.228194
0.230847
0.0666771
0.0932281
0.0389741
0.0877374
0.25488
0.0424544
0.125354
0.537711
0.547698
0.257176
0.216757
0.0389758
0.0902823
0.0277134
0.0524971
0.282673
0.0785489
0.0671394
0.415883
0.342977
0.444282
0.403542
0.0911134
0.407193
0.380243
0.363704
0.413003
0.0369956
0.0914708
0.282369
0.305008
0.260932
0.632143
0.425994
0.58189
0.465903
0.0511675
0.386041
0.464417
0.0238616
0.273339
0.0923461
0.0765908
0.387157
0.357944
0.385044
0.515101
0.0591412
0.473028
0.105265
0.0444067
0.496618
0.578488
0.439315
0.542853
0.407554
0.315081
0.0764714
0.679013
0.607598
0.0403692
0.0906265
0.0542865
0.535002
0.0926499
0.0799205
0.48177
0.0447787
0.0772951
0.174479
0.422752
0.0956163
0.0614228
0.0821868
0.701566
0.0662213
0.0735739
0.0912498
0.0633968
0.378311
0.704943
0.050692
0.432459
0.361898
0.0636112
0.10401
0.33674
0.109416
0.312
0.387402
0.353055
0.073542
0.0732052
0.132782
0.0757086
0.0594689
0.77904
0.188599
0.084218
0.695325
0.291407
0.0166927
0.0378643
0.0668887
0.142743
0.0404239
0.0907272
0.0835366
0.0743741
0.647115
0.0814821
0.681456
0.0431093
0.0855531
0.107349
0.350337
0.147504
0.165371
0.129059
0.595468
0.773581
0.0763092
0.543753
0.315912
0.810534
0.0319122
0.341935
0.65315
0.0344476
0.475482
0.0391612
0.072698
0.0890916
0.12842
0.0656388
0.0771014
0.317735
0.0283254
0.0679094
0.0932384
0.550987
0.222886
0.738535
0.156901
0.0259196
0.079995
0.0761708
0.0741024
0.579976
0.0449094
0.0845362
0.0916383
0.526328
0.0448438
0.432139
0.306244
0.055782
0.141313
0.483504
0.661905
0.0868594
0.0701698
0.634661
0.0743015
0.540091
0.190286
0.194347
0.323168
0.0782847
0.0788595
0.154033
0.0343813
0.615346
0.0616875
0.118085
0.306257
0.536199
0.278043
0.0625498
0.61304
0.068774
0.0695921
0.0544592
0.0258648
0.123001
0.0192369
0.0396103
0.258164
0.588252
0.0686602
0.0538201
0.0451114
0.068782
0.0259004
0.119749
0.0285603
0.238165
0.0838177
0.149415
0.0624911
0.098716
0.0537783
0.0603852
0.462679
0.100712
0.269807
0.0466748
0.0464815
0.0707166
0.0724018
0.0942117
0.388886
0.100091
0.0633101
0.543496
0.0801297
0.05497
0.112228
0.546012
0.374002
0.0460415
0.0762248
0.0309671
0.056909
0.0433478
0.079071
0.0398606
0.0620968
0.734181
0.0522707
0.417768
0.0986302
0.209937
0.0875062
0.0827276
0.627354
0.0878178
0.109311
0.0532277
0.505077
0.0619517
0.31946
0.0418527
0.0620017
0.00925724
0.00896165
0.482035
0.0106688
0.0101948
0.305707
0.645616
0.0383185
0.0127328
0.012362
0.0227123
0.0751155
0.214084
0.0419252
0.0778757
0.418111
0.0519064
0.109377
0.0294694
0.0283883
0.0699738
0.0901586
0.142254
1.00488
0.384935
0.0945559
0.0395224
0.0237995
0.0534506
0.0752549
0.0291899
0.0612232
0.298013
0.104944
0.0267544
0.106189
0.120785
0.121606
0.707584
0.113844
0.0267365
0.0752089
0.0692765
0.0545583
0.0484292
0.0656191
0.165704
0.74057
0.527268
0.0167525
0.0391487
0.0749754
0.0293839
0.0725721
0.0868512
0.450086
0.0261141
0.0588237
0.0691519
0.0316261
0.0361256
0.139939
0.298559
0.805786
0.0998758
0.0963885
0.025022
0.0697755
0.0897626
0.0783852
0.13426
0.0826236
0.062252
0.444986
0.050115
0.0652314
0.171564
0.910006
0.02253
0.073365
0.453247
0.0309912
0.142913
0.0324121
0.0665491
0.125378
0.228104
0.825496
0.0621091
0.230497
0.117747
0.0411227
0.0432454
0.136213
0.0889229
0.0796678
0.199104
0.0446773
0.0776108
0.0548026
0.174768
0.0724557
0.0486224
0.151833
0.0722915
0.0335286
0.0353101
0.0278786
0.0807895
0.0671467
0.374083
0.0253841
0.186972
0.0625663
0.0646633
0.28908
0.151967
0.534938
0.0676649
0.0863739
0.512323
0.0268435
0.247105
0.195907
0.056326
0.113879
0.0207337
0.267949
0.0256893
0.290467
0.116725
0.0774454
0.043386
0.0329186
0.0614402
0.120336
0.0486145
0.0823733
0.0430793
0.455311
0.0824636
0.108806
0.100845
0.0572499
0.0966172
0.831403
0.288289
0.0591497
0.160501
0.422039
0.100728
0.0409716
0.102896
0.11418
0.170198
0.271792
0.119058
0.0706922
0.102282
0.0301124
0.0638568
0.0815204
0.711313
0.373417
0.393035
0.419957
0.0522348
0.067686
0.0859176
0.0557775
0.34
0.133461
0.0439136
0.105415
0.0588804
0.0673714
0.0954106
0.0609703
0.267678
0.264203
0.0464934
0.0635835
0.0173041
0.0642499
0.0517071
0.109199
0.0665566
0.0830758
0.0573383
0.386834
0.134884
0.507531
0.0328905
0.0894627
0.140564
0.0617892
0.399191
0.0585268
0.0923193
0.0279421
0.314555
0.0129429
0.616343
0.104832
0.249776
0.0614498
0.0166809
0.0184712
0.0214661
0.0202716
0.0757608
0.0722914
0.078517
0.0809577
0.0148087
0.0797281
0.0794874
0.0132625
0.0128248
0.0137751
0.0838804
0.0151993
0.0167951
0.0690351
0.0179579
0.0777983
0.0312844
0.0806834
0.440756
0.159386
0.0572498
0.036226
0.0700426
0.466213
0.0298223
0.200734
0.0668211
0.0490053
0.0880113
0.023389
0.244418
0.256749
0.0431807
0.0803787
0.044785
0.0816469
0.0372822
0.480227
0.242584
0.834387
0.454266
0.0979058
0.174076
0.0398175
0.0491243
0.0527149
0.302097
0.150341
0.0544669
0.0561408
0.0794162
0.431742
0.272372
0.0166556
0.757676
0.408321
0.594393
0.0639032
0.0735281
0.106743
0.078549
0.0686288
0.0396176
0.0321378
0.476528
0.0555368
0.0261539
0.07485
0.0283498
0.0203793
0.0696427
0.02807
0.0581174
0.0810246
0.0443447
0.0293405
0.222874
0.0516142
0.0267579
0.347007
0.0920053
0.0790389
0.0607812
0.092687
0.0363072
0.124323
0.510035
0.103027
0.0856231
0.52928
0.036274
0.0248054
0.229514
0.616387
0.024026
0.0534887
0.20294
0.891132
0.0211695
0.0658713
0.0469762
0.0323703
0.0911801
0.12624
0.0109771
0.160628
0.0803047
0.0447211
0.192657
0.320028
0.453226
0.0178528
0.123368
0.426645
0.25128
0.0529896
0.152659
0.661733
0.0342214
0.0507387
0.0167315
0.0612873
0.0459172
0.0477256
0.82029
0.0574988
0.0679913
0.0279341
0.0381474
0.0712976
0.0476856
0.830565
0.0674276
0.0621468
0.0683024
0.120759
0.363133
0.0914844
0.0498746
0.035011
0.432623
0.0648012
0.0674808
0.748898
0.0676632
0.123138
0.0487652
0.450478
0.0923876
0.0764651
0.702643
0.0204377
0.021658
0.485877
0.417475
0.0706649
0.0930061
0.0210486
0.0364782
0.090179
0.368968
0.174358
0.0288899
0.0150101
0.0320499
0.0569924
0.0385177
0.409501
0.104238
0.0860821
0.0323168
0.424751
0.0228087
0.0330588
0.0914943
0.039723
0.0560689
0.0289044
0.0716679
0.25083
0.0585986
0.0363606
0.0190049
0.0318368
0.206132
0.0359919
0.433778
0.0371032
0.0293966
0.040849
0.264336
0.0254869
0.0302997
0.159081
0.01989
0.551018
0.344157
0.0333357
0.0322553
0.0714517
0.151027
0.0563018
0.10126
0.0126267
0.143709
0.16303
0.0496246
0.061136
0.0234414
0.0409339
0.0494788
0.0487308
0.282895
0.0503748
0.0622845
0.0416198
0.0657728
0.141684
0.343137
0.520837
0.0371983
0.203719
0.0626831
0.024551
0.0266929
0.0542472
0.236079
0.0167792
0.0844658
0.593098
0.0594961
0.0259524
0.106055
0.378792
0.15649
0.0277537
0.347932
0.0539825
0.050319
0.0273522
0.0297344
0.0457238
0.0256586
0.285904
0.129431
0.358552
0.133583
0.0875014
0.0506145
0.0490209
0.0213415
0.0385864
0.919889
0.372428
0.320893
0.0224649
0.123249
0.035726
0.394084
0.389382
0.0916875
0.0612201
0.0709169
0.0392774
0.777684
0.368796
0.710394
0.029069
0.113156
0.281677
0.115912
0.746709
0.0569595
0.112804
0.252366
0.100172
0.0170594
0.0691872
0.147712
0.14263
0.0593263
0.338628
0.0268078
0.0183366
0.830858
0.415973
0.0426647
0.0465762
0.0455337
0.0216685
0.0449043
0.0314173
0.212441
0.220345
0.0642478
0.0587526
0.11329
0.096473
0.0563418
0.672432
0.744269
0.306607
0.842524
0.0635131
0.0519803
0.17755
0.0721286
0.258783
0.857222
0.124966
0.288403
0.276284
0.0608268
0.120301
0.0784291
0.234245
0.347459
0.0648175
0.0254078
0.0896415
0.0438748
0.128329
0.0599021
0.0499559
0.0910228
0.0677257
0.0219459
0.051212
0.333752
0.0512325
0.0307094
0.888713
0.427654
0.448532
0.0260251
0.0524351
0.0617855
0.221466
0.193626
0.114312
0.812334
0.0695387
0.0371952
0.110068
0.0862712
0.0829628
0.0600161
0.0582126
0.99562
0.410959
0.122085
0.572328
0.501573
0.137755
0.0102855
0.184659
0.0161204
0.359836
0.308786
0.0254002
0.0233727
0.370458
0.112195
0.266923
0.189512
0.0150881
0.155548
0.068495
0.100523
0.0218751
0.0241086
0.0301555
0.198561
0.0815884
0.0436097
0.0956855
0.611559
0.0696863
0.0379714
0.119205
0.0598688
0.065124
0.236576
0.0730105
0.0874875
0.0778861
0.197311
0.0252686
0.642407
0.0371476
0.0436658
0.115387
0.0151094
0.0594981
0.0678015
0.0468708
0.0458983
0.157345
0.430101
0.0158138
0.0657261
0.0494145
0.0387367
0.0312903
0.182954
0.0691961
0.0431301
0.267539
0.0313816
0.262982
0.0653351
0.0489553
0.492705
0.229461
0.0961568
0.299009
0.0307565
0.0429897
0.046744
0.0332655
0.113978
0.0342102
0.145029
0.201625
0.122238
0.535642
0.0108478
0.0478589
0.0402536
0.0662984
0.0484568
0.0338349
0.184962
0.0493229
0.292834
0.0679566
0.0297683
0.0403017
0.0482269
0.0443721
0.0936801
0.110249
0.0465157
0.0399231
0.0571116
0.0458192
0.0490614
0.0533336
0.11017
0.0656597
0.442369
0.0997774
0.0281231
0.0634886
0.0334014
0.103002
0.0282934
0.065113
0.0635707
0.669806
0.0495429
0.046859
0.0926619
0.0247317
0.043754
0.0449026
0.0402952
0.0404013
0.0341623
0.105328
0.0992552
0.118243
0.0441633
0.116734
0.0742193
0.900343
0.400018
0.278322
0.0626139
0.0513211
0.0376583
0.0551041
0.130313
0.13517
0.0498389
0.0671006
0.0374852
0.122591
0.0710594
0.0423785
0.0324458
0.0917852
0.0978908
0.148427
0.0289538
0.285046
0.130031
0.125052
0.055344
0.045964
0.108911
0.116732
0.175409
0.0709417
0.0534648
0.0648141
0.0914077
0.113143
0.0239453
0.21001
0.523442
0.563496
0.0346234
0.0404639
0.480997
0.179707
0.606672
0.046176
0.162198
0.140379
0.0533568
0.0532745
0.0352267
)
;

boundaryField
{
    frontAndBack
    {
        type            empty;
    }
    wallOuter
    {
        type            kqRWallFunction;
        value           nonuniform List<scalar> 
102
(
0.0100606
0.0100606
0.0379289
0.0255819
0.0115281
0.0235485
0.0314422
0.0259004
0.00925724
0.00896165
0.0106688
0.0101948
0.0127328
0.012362
0.0227123
0.0751155
0.0419252
0.0294694
0.0237995
0.0267544
0.0267365
0.0167525
0.0391487
0.025022
0.0697755
0.0411227
0.0432454
0.0268435
0.0207337
0.0464934
0.0173041
0.0166809
0.0184712
0.0214661
0.0202716
0.0757608
0.0722914
0.078517
0.0809577
0.0148087
0.0797281
0.0794874
0.0132625
0.0128248
0.0137751
0.0151993
0.0167951
0.0312844
0.0806834
0.0490053
0.023389
0.0431807
0.0816469
0.0561408
0.0794162
0.0166556
0.0639032
0.0735281
0.0283498
0.0203793
0.036274
0.024026
0.0211695
0.0109771
0.0178528
0.0167315
0.0381474
0.0498746
0.035011
0.021658
0.0210486
0.0364782
0.0150101
0.0320499
0.0385177
0.0228087
0.0289044
0.0363606
0.0359919
0.01989
0.0333357
0.0126267
0.0487308
0.0503748
0.0371983
0.0167792
0.0259524
0.0457238
0.0213415
0.0183366
0.0677257
0.0219459
0.0102855
0.0254002
0.0150881
0.0241086
0.0151094
0.0158138
0.0387367
0.0108478
0.0338349
0.0493229
)
;
    }
    inlet
    {
        type            fixedValue;
        value           nonuniform 0();
    }
    outlet
    {
        type            zeroGradient;
    }
    wallInner
    {
        type            kqRWallFunction;
        value           nonuniform List<scalar> 
138
(
0.223284
0.0945135
0.0398963
0.0560121
0.0241266
0.0896669
0.366973
0.0408494
0.0486229
0.0451147
0.0485151
0.0684967
0.0219233
0.0271639
0.0439116
0.032468
0.0536253
0.0167868
0.0874929
0.0637604
0.0293395
0.0136054
0.0463784
0.0300388
0.212654
0.0416212
0.0183485
0.0349157
0.537588
0.0242386
0.0387287
0.0491911
0.0398765
0.0237013
0.0493417
0.0937641
0.058224
0.13623
0.111285
0.032844
0.0353913
0.103326
0.0701461
0.0270224
0.0388324
0.0120181
0.256408
0.0280571
0.127538
0.0370226
0.0353679
0.0382182
0.0811157
0.0546462
0.178601
0.0329689
0.0268077
0.0544715
0.0541089
0.0263155
0.0597311
0.0868081
0.119364
0.0325848
0.0352706
0.15093
0.0204387
0.0319344
0.0368663
0.0876096
0.0300186
0.0440926
0.0240549
0.0152154
0.0243468
0.0289596
0.0351408
0.0305732
0.684554
0.185233
0.325067
0.314001
0.191151
0.256938
0.218617
0.0424544
0.257176
0.216757
0.0277134
0.58189
0.465903
0.0238616
0.0764714
0.109416
0.0166927
0.0378643
0.12842
0.0259196
0.118085
0.0192369
0.0396103
0.0624911
0.0309671
0.305707
0.0383185
0.113844
0.0261141
0.062252
0.02253
0.0665491
0.174768
0.0353101
0.0278786
0.056326
0.0430793
0.0439136
0.0129429
0.0179579
0.0700426
0.0261539
0.347007
0.0920053
0.0248054
0.363133
0.0204377
0.0716679
0.0496246
0.0234414
0.024551
0.0539825
0.0170594
0.043754
0.606672
0.046176
0.140379
0.0533568
0.0532745
0.0352267
)
;
    }
    procBoundary2to0
    {
        type            processor;
        value           nonuniform List<scalar> 
42
(
1.01605
1.01605
0.0917388
0.0884715
0.0609494
1.2313
0.0942217
0.0942217
0.0566201
0.0581591
0.155945
0.155945
0.0939612
0.247869
0.359045
1.14076
0.54763
0.0549925
0.0579271
0.158669
0.134674
0.0484452
0.0484452
0.336937
0.134674
0.0388857
0.651202
0.037761
0.651202
0.8924
0.669389
0.0426669
0.0485912
0.0511215
0.0525216
0.0884715
0.54763
0.0636033
0.94164
0.0810648
0.0810648
0.0595118
)
;
    }
    procBoundary2to1
    {
        type            processor;
        value           uniform 0.219396;
    }
    procBoundary2to3
    {
        type            processor;
        value           nonuniform List<scalar> 
29
(
0.0773295
0.0824945
0.0302974
0.0341476
0.313093
0.0681661
0.0258089
0.0861988
0.0940589
0.0868031
0.0855722
0.298541
0.0580057
0.0652757
0.0629112
0.052027
0.0924319
0.0924319
0.0824945
0.0652757
0.0666335
0.0872088
0.0345902
0.0939986
0.0527769
0.0694765
0.0940589
0.265465
0.298541
)
;
    }
}


// ************************************************************************* //
