/*--------------------------------*- C++ -*----------------------------------*\
| =========                 |                                                 |
| \\      /  F ield         | OpenFOAM: The Open Source CFD Toolbox           |
|  \\    /   O peration     | Version:  v1912                                 |
|   \\  /    A nd           | Website:  www.openfoam.com                      |
|    \\/     M anipulation  |                                                 |
\*---------------------------------------------------------------------------*/
FoamFile
{
    version     2.0;
    format      ascii;
    class       volVectorField;
    location    "0.31";
    object      U;
}
// * * * * * * * * * * * * * * * * * * * * * * * * * * * * * * * * * * * * * //

dimensions      [0 1 -1 0 0 0 0];


internalField   nonuniform List<vector> 
5794
(
(-0.535664 -0.0406299 -2.65843e-17)
(0.143213 2.30027 0)
(0.889381 -0.116975 -1.45734e-16)
(0.546916 1.04252 1.25271e-16)
(2.5393 0.835167 3.01442e-17)
(-0.0762665 2.89458 -8.54211e-17)
(3.64093 -0.0710518 -1.33689e-16)
(-4.43491 0.0340484 0)
(5.8387 1.03755 9.07552e-17)
(-1.24441 0.0874959 1.82215e-16)
(4.79558 -0.102847 -1.62018e-19)
(-0.929172 -0.399919 0)
(-1.73445 -0.52136 4.82447e-16)
(-0.14171 2.01322 2.88274e-16)
(1.40217 0.329815 4.06731e-16)
(0.656634 -0.102396 -1.41721e-16)
(1.89054 0.317932 5.53823e-17)
(-0.210561 1.66757 2.16004e-16)
(2.00765 0.0208267 3.62296e-16)
(0.0172282 1.89129 1.21089e-16)
(-2.9162 1.63275 -3.95935e-17)
(-0.0548327 1.57026 -1.1757e-16)
(3.56076 0.303156 1.94356e-16)
(-1.12006 -0.217062 -5.74043e-16)
(-3.57328 -0.271358 -2.6049e-16)
(2.92959 10.0199 2.00315e-17)
(7.03075 0.0120641 0)
(-2.55219 6.45688 -1.07282e-16)
(0.323711 10.2033 -3.03907e-17)
(-0.160881 -0.143296 2.9239e-16)
(1.42316 -1.08228 -4.89253e-16)
(-1.02681 0.0384657 -5.32014e-16)
(-2.62847 0.236879 -7.82307e-16)
(-1.00216 -1.00958 3.85051e-16)
(0.541663 0.226192 -1.62997e-16)
(1.91671 -0.71997 1.52836e-16)
(9.72212 0.554419 -1.98083e-16)
(0.257448 -0.282843 0)
(2.90295 -0.703652 1.19495e-16)
(1.56753 2.97179 0)
(-3.01159 -1.68119 -8.87785e-17)
(-1.65264 -0.795578 1.26937e-16)
(7.38494 0.111469 -8.75969e-19)
(0.313418 -2.38307 0)
(1.31005 -0.0141345 -3.58707e-16)
(5.3255 -0.0888506 1.14226e-16)
(2.6751 0.00426219 -2.56582e-16)
(-2.95001 -0.154242 0)
(-0.751808 0.208608 6.96772e-16)
(0.0350288 -0.340445 6.50392e-17)
(0.456699 -0.258303 -1.57226e-16)
(6.42978 -0.147272 -1.55014e-16)
(1.36794 0.0102239 0)
(1.85364 2.32097 1.07348e-16)
(-0.0962912 -0.075106 9.71421e-18)
(5.73859 -0.541841 0)
(2.98354 -0.0820864 -2.04295e-16)
(-2.03008 0.59594 1.18541e-16)
(8.32992 0.0611266 0)
(4.29943 9.35699 -6.77182e-19)
(9.21614 0.433499 1.72819e-18)
(0.683871 1.70269 -9.79208e-17)
(1.09188 -1.81733 -1.10704e-16)
(-0.373103 0.0326211 2.23861e-16)
(-1.60467 0.521869 0)
(1.76701 0.337272 -2.10349e-18)
(0.230774 0.261568 -2.48366e-16)
(0.349228 0.6112 0)
(-0.259621 1.3878 -2.2306e-16)
(0.0428527 0.964417 -8.52196e-21)
(5.19589 -0.405987 1.18871e-16)
(0.333493 1.30643 -3.26653e-16)
(12.1061 2.04554 -3.52538e-18)
(-1.60315 0.159599 0)
(-0.283561 1.48479 2.16036e-16)
(-2.03895 5.38306 4.06477e-20)
(-1.67764 0.245306 1.06126e-16)
(1.67298 9.77651 -2.07825e-17)
(0.0940098 -2.36959 3.55557e-17)
(0.681522 -0.0302502 6.44101e-17)
(-0.168681 0.0827541 -1.96101e-17)
(0.0137342 1.88189 -1.18619e-16)
(-3.38783 -2.52289 8.95336e-19)
(1.43048 -1.6638 -8.29801e-17)
(-0.798088 -0.86521 -3.46424e-16)
(-0.111004 5.40742 -3.59601e-17)
(0.225325 4.30584 3.30796e-17)
(-0.0207428 4.65087 -2.47473e-17)
(-0.627203 -0.385808 -1.64912e-16)
(2.91875 0.942762 -3.75507e-17)
(1.01863 5.80179 -7.1411e-17)
(0.0228189 5.00363 -8.87179e-17)
(-0.130805 7.98693 1.12691e-16)
(0.265711 7.61308 5.34492e-17)
(-0.176883 6.8777 2.80585e-17)
(-2.09655 0.0314035 4.74102e-18)
(-0.00585527 6.42828 -4.92337e-17)
(-0.168531 7.70689 -1.22256e-17)
(0.0518519 4.9088 0)
(8.9668 0.480352 -2.7964e-17)
(1.7955 3.34204 -1.0526e-16)
(-0.793238 0.00721717 -4.06762e-16)
(8.25052 0.141549 6.7605e-17)
(0.425928 3.39395 -3.07998e-16)
(0.695918 -0.284503 0)
(-2.18034 7.69398 0)
(0.0762096 1.71769 0)
(-0.700873 0.0987059 -2.42188e-16)
(-1.2848 0.531093 -1.09321e-16)
(-0.0796841 -2.32142 -9.61804e-17)
(0.948261 0.0790598 -9.37904e-19)
(-0.853887 -1.07681 0)
(-1.28762 4.81589 9.5245e-17)
(0.0597632 -0.484583 1.40807e-16)
(-0.246665 6.21128 0)
(-0.0167186 8.03884 0)
(0.672235 0.364717 -3.25311e-16)
(-1.75244 8.07011 -1.92158e-18)
(9.44104 0.388693 -2.42897e-20)
(10.8224 0.639639 5.29872e-18)
(-2.09048 8.91483 8.87201e-17)
(2.27068 0.0892669 0)
(-1.10494 -0.388781 0)
(-2.36168 5.73802 -1.31421e-16)
(-1.16033 -0.612358 1.68815e-16)
(4.90087 2.47427 4.64148e-17)
(-0.345589 0.926876 0)
(0.0827267 2.98052 5.18988e-17)
(6.83281 -0.462351 1.01316e-16)
(-0.52707 -0.0224759 1.51827e-16)
(0.777369 -0.619466 2.95913e-16)
(0.641465 -0.893548 1.80976e-16)
(0.235204 0.105442 2.72471e-17)
(1.22023 9.34216 -6.41374e-17)
(-1.39783 7.92809 1.07448e-16)
(0.618039 0.651557 0)
(4.72804 -0.189788 8.29665e-17)
(0.8275 1.65266 -1.47176e-16)
(0.1099 -0.210733 1.88915e-16)
(0.296646 -0.790481 0)
(-2.14934 -1.69124 -3.50461e-16)
(2.00994 5.3984 0)
(-1.14717 -1.4205 0)
(1.39098 5.84984 2.3111e-16)
(0.11277 -0.116602 2.11615e-16)
(2.04454 0.059188 1.71292e-17)
(-0.430356 0.293448 2.2816e-16)
(8.02788 0.271012 2.11925e-16)
(3.12157 0.531436 -1.89473e-18)
(0.233543 5.19887 2.73039e-16)
(7.24223 -0.171868 -1.61154e-16)
(1.3501 0.524896 2.43505e-16)
(-1.76848 7.689 0)
(-0.781749 0.301444 1.8643e-16)
(4.81955 -0.265729 0)
(2.55519 0.0155208 0)
(1.5546 -0.783851 -2.33975e-16)
(-0.00194414 -0.29971 3.94614e-16)
(5.20767 0.214192 -2.42899e-16)
(-0.130786 -0.176568 -1.37017e-16)
(-1.26811 0.344025 3.43654e-16)
(1.42236 0.0594201 -2.91472e-16)
(0.0780474 -0.165063 0)
(0.209146 -0.145323 -1.31499e-16)
(-2.9396 0.0251693 -2.67758e-16)
(-3.07323 -0.0552859 1.45966e-16)
(0.989524 -0.141716 1.1338e-18)
(1.26095 0.0156529 -3.11003e-18)
(0.920528 -0.0176222 0)
(-0.903997 -0.352064 8.10661e-19)
(0.0700539 -0.0753324 0)
(-1.87912 0.424388 -1.02298e-16)
(-0.897715 -0.726565 0)
(2.17268 -0.0289284 7.50427e-17)
(-1.52684 -0.381327 3.6821e-16)
(3.43176 0.0401492 0)
(1.60672 0.134496 -2.02407e-16)
(-3.67945 -0.321192 -1.58255e-16)
(-1.3929 -0.22052 -7.88567e-17)
(6.33476 0.17285 6.06166e-18)
(1.23969 -0.0156262 -4.74337e-18)
(-0.739908 -0.245585 0)
(2.8112 0.413135 0)
(-2.64933 -0.407012 1.06161e-16)
(1.98417 -0.25161 0)
(-0.00219592 -0.584385 7.21025e-17)
(-0.793969 0.0648395 -1.44619e-16)
(-0.966256 0.395733 -9.42293e-17)
(-1.2077 0.138054 1.15167e-16)
(-0.786431 -0.0526953 3.20044e-16)
(4.70849 -0.0615332 -3.16554e-16)
(-1.14951 -0.0465297 3.78299e-16)
(-2.95233 -0.11123 5.1753e-16)
(2.44469 -0.539034 4.6222e-16)
(0.19637 -0.214026 -9.4155e-17)
(0.185672 -0.24552 -5.06115e-16)
(-4.18288 -0.305576 -1.34259e-17)
(-3.38542 -0.528333 -1.29691e-16)
(1.95739 -0.211037 -2.46268e-16)
(6.41767 -0.0443498 1.12223e-16)
(3.55927 -0.0655477 -1.51062e-17)
(6.1975 0.0626285 0)
(-2.26057 -0.507327 0)
(-0.334936 -0.469527 9.69503e-18)
(2.52911 0.0700693 -5.99345e-17)
(5.16593 0.109123 0)
(-1.36156 -0.635273 9.08212e-18)
(0.308804 -0.250159 2.04814e-19)
(5.70997 0.584049 -6.41134e-18)
(2.10083 8.08037 1.1776e-16)
(-0.401282 -1.58659 9.0639e-17)
(9.67143 -0.0168032 0)
(1.18571 -0.471188 -9.26668e-17)
(0.983102 0.0986619 1.35568e-16)
(-1.25979 -0.742418 0)
(-4.26213 -0.612279 4.18893e-16)
(4.28286 0.344855 -9.87582e-17)
(1.00768 0.180692 1.06286e-16)
(4.15402 -0.171238 1.22209e-16)
(1.33596 5.75312 -1.5754e-16)
(9.58966 -0.0112417 0)
(2.56945 0.355854 1.66314e-16)
(-0.790949 1.69293 0)
(-0.0296111 5.30657 2.36032e-17)
(5.57693 0.115131 1.16828e-16)
(11.6883 0.74628 2.03764e-18)
(0.334616 0.0678624 -7.3477e-17)
(-0.26605 -0.193937 -1.06888e-16)
(3.47741 -0.042134 0)
(0.306084 0.519992 -2.96658e-16)
(0.325143 0.364074 0)
(0.943431 -0.500152 -5.15017e-17)
(-1.89764 -0.575479 -8.47664e-17)
(-0.982292 0.666996 1.36696e-16)
(0.562244 -0.00498237 1.92846e-16)
(9.06306 0.204083 6.77472e-18)
(7.35844 0.550366 2.30032e-18)
(7.54735 0.571641 2.62722e-17)
(-2.3215 -0.122841 -1.32195e-16)
(-1.17531 0.214328 -3.67044e-16)
(0.368912 1.78271 0)
(1.35141 0.620519 1.05573e-15)
(1.24001 4.13696 2.05571e-16)
(-0.759515 0.654206 -2.66789e-16)
(-1.18184 0.6373 2.55663e-16)
(0.81568 0.313523 2.76833e-16)
(0.698128 -0.487517 -1.26847e-16)
(3.715 0.433686 8.17597e-18)
(-0.164828 6.20125 0)
(-0.0498809 6.06666 0)
(0.0418199 3.32159 0)
(1.27182 0.324368 2.31929e-17)
(3.41365 -0.162905 -7.61081e-17)
(-0.675199 0.254053 -1.61977e-19)
(7.33622 1.15416 -5.27503e-17)
(4.87968 1.25162 -1.28169e-17)
(8.16951 0.220324 -1.38787e-16)
(8.98757 0.478634 1.46522e-16)
(-0.0576102 -0.744329 2.5542e-16)
(-1.63258 -0.143335 0)
(6.41039 -0.0347152 -1.00746e-16)
(1.28177 -0.327076 7.98499e-17)
(0.897608 0.070868 -7.88943e-17)
(1.21367 -0.207503 0)
(-1.82581 -0.028564 0)
(-3.62344 -0.0121284 -4.37899e-19)
(0.634129 7.10864 9.9134e-17)
(3.9652 0.855897 0)
(-1.80734 0.184691 -5.5334e-16)
(4.47874 0.18486 -1.10417e-16)
(2.41815 0.0677078 0)
(-1.98756 -1.20221 -2.09604e-16)
(-3.39621 -0.988169 -3.31023e-16)
(5.38384 -0.248367 -1.43071e-16)
(9.42248 0.0881852 3.31145e-17)
(1.02773 0.293881 2.7566e-16)
(2.15952 2.0359 -1.20926e-16)
(-1.88311 -0.163495 -7.06375e-17)
(0.50019 0.239666 -1.80567e-16)
(-1.25964 0.757368 -2.22485e-16)
(-4.39021 -0.269069 2.10258e-16)
(0.884243 3.05357 2.36256e-16)
(-2.8548 -1.43596 9.49462e-17)
(-1.59174 -0.887979 -3.51264e-16)
(2.00003 3.19566 4.98895e-17)
(-0.138763 5.16981 1.00479e-16)
(-0.0679537 6.48949 1.09846e-17)
(-0.0750271 6.2967 0)
(1.07227 5.84718 3.69017e-17)
(-1.4563 8.98223 0)
(2.59549 0.313178 -1.0704e-17)
(-0.243939 -0.213159 -1.02927e-16)
(-1.17925 -0.887794 2.03292e-18)
(2.54258 1.01449 0)
(8.10585 1.62833 0)
(1.45543 7.05721 6.7012e-18)
(-0.889419 -0.495108 5.9366e-17)
(-1.98483 -1.00578 4.24934e-19)
(2.75039 4.25972 -1.50248e-16)
(1.22275 -0.370951 -1.51507e-16)
(-0.00706234 1.61311 8.54932e-17)
(-0.401825 6.50625 0)
(0.0246709 -0.290509 -7.95189e-16)
(0.504509 1.56621 0)
(-1.20556 -1.22381 -1.32661e-16)
(3.80339 0.312305 1.4948e-18)
(0.413824 0.168561 -2.59474e-16)
(-0.238965 1.19011 3.67537e-16)
(5.06269 0.223821 2.2344e-16)
(2.56995 0.0514264 0)
(-0.522054 -0.595484 -5.67384e-16)
(-0.185642 0.0909556 -2.90695e-16)
(1.34961 6.88884 -1.32014e-16)
(0.228672 -0.476408 -7.94299e-17)
(10.5674 0.119565 0)
(10.0116 0.284351 -1.64704e-17)
(-0.3274 0.15069 -8.79515e-17)
(-2.35445 6.58076 -2.20945e-16)
(-2.0102 0.349477 -1.95186e-16)
(0.433593 8.10939 -3.35195e-17)
(-3.43839 0.425318 2.56388e-16)
(3.06946 -0.089178 -1.36411e-16)
(-1.1525 5.77292 -8.84069e-17)
(3.25047 0.657838 -9.03343e-19)
(-0.169899 -0.335785 0)
(1.77455 -1.05987 0)
(-1.6132 0.137184 0)
(-0.547426 -0.29919 6.73444e-17)
(-1.0089 -0.312241 -3.22323e-16)
(4.6022 -0.122048 2.77041e-16)
(6.51393 0.0187692 -6.24642e-18)
(6.58148 -0.12264 2.8112e-16)
(0.800823 -0.38881 8.21818e-17)
(-1.95475 0.405567 4.46939e-16)
(-0.982293 0.0750891 0)
(-1.40948 0.116399 -2.06792e-16)
(-1.36389 -0.114408 0)
(0.661039 -0.155411 0)
(-0.932352 0.0826557 -2.81347e-16)
(-0.213626 -0.0702224 0)
(-0.892692 -0.147042 3.93767e-16)
(-2.54901 0.0124487 2.93472e-16)
(6.31351 0.48373 0)
(3.35237 0.0672329 0)
(1.21413 0.223033 3.57036e-16)
(1.63158 0.147383 3.00554e-16)
(-1.61256 -0.721652 2.75772e-16)
(0.0778687 -0.226864 -2.32871e-17)
(-3.03295 -0.0879134 -1.08781e-16)
(0.486852 -0.0897561 8.00627e-17)
(3.59504 -0.0802415 5.26955e-17)
(0.390561 0.159438 2.43774e-16)
(-3.21812 -0.178176 -1.91696e-17)
(-1.14152 -0.145021 1.5065e-16)
(3.05395 -0.028298 0)
(-0.567543 -0.111912 0)
(1.37598 -0.320179 1.52812e-16)
(5.76606 -0.376345 1.48571e-16)
(3.32128 -0.0093144 5.27648e-17)
(-4.34346 -0.172838 0)
(0.0799592 -0.146191 -2.58367e-16)
(0.240168 -0.474202 5.28899e-16)
(5.13849 -0.073658 3.28925e-17)
(3.53754 -0.141769 -2.41935e-17)
(-3.79477 0.194357 -1.45629e-16)
(3.58811 0.050985 3.25344e-16)
(-3.1835 0.0104679 -3.3748e-17)
(4.80089 -0.340304 0)
(2.46824 -0.117141 3.35433e-16)
(-2.57539 0.193481 -7.0398e-17)
(0.310128 1.00743 -1.12011e-16)
(1.56491 -0.300294 0)
(3.293 0.0509303 -7.75538e-17)
(0.589025 -0.481852 2.87909e-16)
(0.521149 0.21258 8.01292e-17)
(-2.75637 0.156897 1.24519e-16)
(4.35235 -0.0604514 0)
(2.46492 0.250812 8.71189e-17)
(-1.72151 0.689693 0)
(0.564246 0.0763193 1.40164e-17)
(-2.6002 -1.33314 1.0708e-16)
(0.164789 0.632188 0)
(10.748 0.0816295 0)
(1.00877 -0.83881 1.22116e-16)
(1.27106 0.326458 -4.76434e-16)
(-0.720779 -0.846814 -3.147e-16)
(0.0505845 9.63925 -2.45614e-17)
(1.90585 -0.301727 2.04751e-16)
(-0.266745 0.330926 -7.94767e-16)
(1.23762 -0.183757 0)
(1.14196 0.0732106 -5.74812e-16)
(-1.21693 1.13228 -9.49206e-19)
(0.0136385 1.05579 -2.17797e-18)
(-2.97006 -0.0576208 1.03994e-16)
(-1.82742 -0.233169 6.61291e-17)
(2.11616 -0.239018 -7.0287e-17)
(-2.25836 -0.335105 8.8004e-17)
(0.650333 -1.89721 0)
(-1.58839 0.701347 0)
(3.86567 0.13613 -1.99023e-16)
(-1.3291 -0.298614 1.23312e-16)
(-4.96155 -0.592476 -2.27891e-16)
(10.0135 0.128147 3.40086e-17)
(0.861013 0.204111 1.80678e-16)
(0.115706 -0.973691 0)
(6.70925 1.04984 4.21072e-17)
(1.57343 -1.33028 4.33643e-19)
(-0.241581 2.12262 1.49989e-16)
(0.208203 1.70703 -2.9284e-17)
(-0.473588 5.89657 -5.6302e-17)
(-0.109704 7.46741 1.94322e-17)
(0.200235 5.00382 0)
(0.824927 0.43958 1.6415e-16)
(-0.977456 0.355468 2.47472e-16)
(5.30647 0.0712993 1.79849e-17)
(2.55454 0.0122714 7.53914e-17)
(-0.804745 -0.296123 0)
(-0.0939061 1.06115 2.43193e-16)
(-2.4265 0.16587 0)
(-0.229952 6.57741 3.40095e-17)
(0.066628 4.8481 -6.95318e-17)
(-0.198426 7.74325 2.56414e-17)
(-0.130619 0.0492639 -1.43067e-17)
(0.530847 1.41466 -3.20778e-17)
(-0.869937 -0.502155 0)
(1.58339 0.226051 0)
(-0.694267 -0.286345 -1.83863e-16)
(-0.103054 -0.432897 -1.8058e-16)
(-0.0359661 1.90873 -1.08871e-17)
(-0.325717 1.30984 4.35379e-17)
(4.46275 0.999749 2.65175e-16)
(9.96676 0.147487 1.17308e-17)
(0.827606 6.73346 -2.06175e-16)
(1.07576 -3.01404 -1.81189e-17)
(1.8269 -0.359236 2.53543e-16)
(0.626523 0.430973 0)
(-0.570491 -0.329768 1.49321e-16)
(0.372176 -0.451087 -9.20291e-18)
(0.0287316 -0.608759 -9.01677e-17)
(1.43899 0.222933 1.55059e-16)
(-0.221352 -0.553504 2.39915e-16)
(9.92015 0.0998679 -2.28775e-16)
(1.45022 -0.492804 0)
(1.04601 -0.217272 6.78212e-17)
(-1.6856 0.405696 -1.76743e-18)
(0.0629142 7.97492 -4.92987e-17)
(-0.20367 6.46928 8.00905e-20)
(0.239218 -0.233193 0)
(1.24454 -1.95293 1.53332e-16)
(0.921632 0.193386 -7.81957e-17)
(-1.18787 -0.157381 -1.96554e-16)
(-0.0124834 2.02138 -5.00308e-17)
(-2.60221 1.22578 4.04908e-17)
(-0.0324068 1.08399 -4.43208e-16)
(-0.151868 6.79106 -2.32106e-17)
(0.885901 -0.0805094 -4.83518e-16)
(0.397253 5.26064 -1.99259e-18)
(-1.66463 -0.312113 -1.87703e-16)
(-0.133022 6.90833 -2.71643e-17)
(1.32667 6.57774 7.94925e-17)
(-0.32943 0.522723 -1.04135e-16)
(0.106354 1.98241 -1.69721e-16)
(-0.440527 1.33921 1.52211e-16)
(0.527798 0.451871 -3.59415e-16)
(8.6511 0.523499 8.39128e-17)
(-0.516461 -0.0129325 -2.63279e-16)
(10.5456 0.514536 -2.11751e-18)
(3.22627 2.15502 6.87384e-17)
(0.54879 0.104085 -4.16142e-16)
(-0.373514 -1.98159 -4.44633e-17)
(0.302436 0.0925393 3.82317e-17)
(6.52552 0.615521 -5.44048e-18)
(1.54563 0.706152 -6.45467e-17)
(3.05318 -0.159346 1.98427e-17)
(0.820391 0.248137 -1.73746e-16)
(-0.901494 -1.2227 1.06833e-15)
(7.7648 1.48361 -3.45565e-18)
(-2.82585 6.67149 1.2279e-16)
(-1.4671 -0.00554967 1.60967e-16)
(0.0572296 1.93292 4.19095e-17)
(-1.42867 1.38185 2.18549e-16)
(-0.282095 0.252632 0)
(3.8563 0.0204584 -1.10235e-16)
(3.62569 -0.114534 8.22395e-18)
(-0.169872 0.154974 1.61707e-16)
(3.41752 -0.109506 -4.61134e-20)
(9.73296 0.021712 0)
(-1.03191 0.310528 1.95497e-18)
(0.624368 0.0103955 -4.8972e-17)
(-0.163022 0.437036 2.88621e-20)
(-0.0342684 1.96621 1.49083e-16)
(-0.0147369 2.27444 -1.58709e-16)
(-0.644124 4.19951 4.67271e-16)
(3.84153 0.527147 7.87097e-18)
(1.57096 -0.616424 -2.08371e-19)
(0.923092 -0.384101 2.21464e-16)
(-0.20047 0.0850242 0)
(0.0541548 0.742719 0)
(0.586751 -0.348804 -3.15097e-17)
(7.14585 0.904659 -1.41028e-19)
(4.09401 1.05749 2.76138e-17)
(7.85883 0.850379 -7.39107e-18)
(10.3446 0.484752 2.99066e-18)
(0.654635 -0.646965 0)
(0.762791 5.85587 0)
(0.206233 1.77317 1.71044e-16)
(-0.50026 0.512121 2.11826e-16)
(9.06229 0.454914 -4.09089e-16)
(1.56709 0.678193 0)
(1.76246 -0.0886274 0)
(-2.03136 0.126905 1.84643e-16)
(0.36966 0.102478 1.64172e-18)
(-2.99647 -1.88366 -1.12434e-16)
(0.831189 -0.0425133 1.7813e-16)
(0.472074 -0.355429 -8.92778e-17)
(-0.239981 5.59848 -2.84924e-17)
(-0.214424 8.04336 -1.17113e-17)
(0.789118 -0.0420456 -2.36781e-16)
(9.84587 0.151461 -6.08665e-17)
(10.0361 0.331034 3.5645e-18)
(-0.45365 1.30155 1.23393e-16)
(0.340976 1.83252 -3.19181e-17)
(2.79202 1.09275 -1.22452e-17)
(-1.35892 9.55643 -1.07045e-16)
(-0.212873 0.0583396 1.00703e-15)
(0.281998 2.19011 5.0493e-18)
(-1.04516 -0.406828 0)
(5.57157 3.88889 5.84117e-17)
(0.124758 2.01122 8.71373e-17)
(-0.125153 1.58283 -3.72744e-20)
(-0.488644 2.20341 1.57467e-16)
(-0.00215931 -0.147641 0)
(10.552 0.325652 0)
(-0.145073 0.435023 -6.12428e-17)
(3.4088 -0.0335369 0)
(3.06623 0.184883 5.81217e-17)
(9.99702 0.0587786 -9.56391e-17)
(5.2796 -0.0171813 6.77618e-17)
(-0.497918 0.0486415 1.16951e-16)
(7.39142 0.0449819 8.63069e-17)
(-0.111821 1.54604 6.39982e-17)
(-0.551734 -2.6394 1.51764e-16)
(-0.0068987 1.86773 1.62325e-16)
(-0.279019 1.43239 -1.68974e-16)
(-1.40422 0.0730806 -6.33687e-17)
(-0.437723 -0.257429 0)
(9.66569 0.763733 0)
(1.72575 5.73978 -2.40649e-16)
(0.0307498 -0.301856 -1.96047e-16)
(0.0451146 1.80923 5.17689e-16)
(0.901735 3.81504 -3.4726e-17)
(0.683782 0.133104 0)
(1.72559 0.0805358 -3.71735e-16)
(-1.04077 -1.15708 -1.33954e-16)
(0.0997672 1.95999 1.23618e-16)
(-1.08179 -1.61354 0)
(0.480094 2.1837 0)
(-0.0997358 1.84312 0)
(0.171642 1.92248 -1.37504e-16)
(1.35488 2.70381 7.20297e-18)
(10.5653 2.62259 -2.52268e-18)
(-0.0703866 0.0211189 0)
(5.5958 1.40525 0)
(1.43494 0.811148 -7.43304e-17)
(0.141273 1.91968 1.141e-16)
(-1.39049 0.152039 0)
(0.777043 -0.00833147 3.62296e-16)
(0.174358 -0.460786 -6.6815e-19)
(-0.104572 0.893344 -1.42699e-16)
(1.6559 -0.505469 0)
(8.24852 0.54646 -5.74384e-17)
(-1.56356 0.671388 -1.36772e-16)
(0.574633 2.1909 7.05049e-17)
(0.0421861 4.42264 0)
(0.874438 3.12887 -1.01958e-17)
(9.85003 0.238107 -1.8362e-17)
(3.27617 1.48641 -4.68498e-18)
(2.14946 3.75967 -1.20946e-16)
(-2.43742 -1.06824 -1.884e-16)
(-1.22857 -0.424731 -4.26831e-16)
(-0.202691 7.09814 7.59285e-19)
(-0.350601 6.32601 4.28512e-17)
(2.85118 2.61797 0)
(10.0862 -0.0606353 2.25628e-17)
(-2.73664 -0.152948 1.21053e-16)
(9.09729 0.762484 -1.07099e-16)
(-0.243247 -0.310975 1.64783e-16)
(-0.147922 6.90857 0)
(0.0250525 5.85501 -5.15359e-17)
(-0.276537 4.93905 1.67289e-16)
(1.73395 -0.282581 -5.88508e-18)
(0.167892 2.63861 3.93361e-17)
(1.15836 1.28515 5.13952e-18)
(-0.110428 6.76994 -2.42539e-17)
(-0.463777 6.66531 -2.61267e-17)
(1.95983 8.96229 5.11681e-17)
(0.517353 0.0376395 1.91191e-17)
(10.1077 0.175207 0)
(0.180176 -0.259221 4.86531e-16)
(0.825996 0.740689 -8.29329e-17)
(-0.867855 0.462091 -2.94877e-16)
(7.77136 0.54375 1.51163e-17)
(-0.35335 6.91313 -3.8786e-17)
(-0.00198616 6.96489 1.65073e-16)
(1.15018 -0.186274 -6.08106e-20)
(-0.404331 0.0452451 -1.13257e-16)
(1.1841 6.00986 0)
(-1.49442 0.00854158 0)
(-0.0948828 -0.198274 -1.93217e-17)
(-0.0492244 -1.72415 0)
(4.04232 2.89527 -6.37365e-17)
(4.78563 1.767 0)
(2.75734 3.65695 -1.81141e-16)
(2.1462 -1.58766 4.58441e-17)
(1.45377 0.206321 3.01329e-16)
(2.32102 0.0573848 3.17769e-17)
(7.45122 0.737961 -1.36492e-17)
(4.11151 0.00135639 -2.11786e-16)
(7.69648 0.14919 -2.6665e-16)
(1.1078 -0.234302 0)
(0.306682 1.71052 -6.82356e-17)
(5.22269 3.04524 1.49166e-16)
(3.73572 1.735 -6.79684e-17)
(-0.125138 -0.0537705 -3.49094e-16)
(0.447051 1.79427 4.72717e-16)
(0.21428 2.1637 2.53503e-17)
(0.603647 -0.341996 -4.31788e-16)
(1.12752 1.16643 -7.56555e-19)
(1.03911 0.927801 -2.27552e-16)
(-0.396339 -0.277614 1.73785e-16)
(-0.79295 0.534981 7.67691e-17)
(0.1927 2.20307 0)
(0.16264 0.692287 -7.01159e-17)
(-0.510165 1.21723 -6.46735e-17)
(0.341597 1.61865 2.55021e-16)
(3.84471 0.0279315 -6.27989e-17)
(1.56952 8.03136 -3.49584e-17)
(10.6276 0.426208 -6.61176e-17)
(3.42323 -0.0399219 7.09305e-17)
(-1.71311 6.28392 -4.181e-17)
(-1.16628 0.0240383 -1.20418e-16)
(8.58058 0.170748 3.30248e-16)
(3.99759 -0.0978682 -2.21056e-17)
(-0.0210009 6.08573 3.33016e-18)
(4.70944 -0.140237 2.21719e-16)
(0.0236574 4.3793 -1.60734e-16)
(-0.287203 6.46916 7.28334e-17)
(7.14041 0.359369 0)
(-0.21926 -0.603625 -1.10674e-16)
(0.0311128 0.0746987 2.72272e-17)
(-0.0745464 0.900362 0)
(-1.09307 -0.574752 -1.49679e-16)
(-0.158962 0.0514991 6.20146e-17)
(1.6935 0.566936 2.16013e-16)
(1.11971 0.0665097 2.44376e-16)
(4.12135 0.228755 -3.78121e-17)
(9.84829 0.698548 -1.1282e-18)
(0.77683 0.0136917 -1.80401e-16)
(0.232059 0.111146 3.60836e-16)
(0.871874 1.17591 -2.55096e-16)
(0.350705 -0.0393538 1.20877e-16)
(3.62014 -0.0481773 0)
(-0.150114 0.0500681 -1.10061e-17)
(-2.07069 1.58819 -2.3335e-16)
(-0.0134683 1.91996 -1.77872e-20)
(-0.146358 6.38182 2.2941e-17)
(0.583183 5.51644 -2.43484e-18)
(-0.168685 5.0704 -9.93009e-17)
(-0.0623224 6.43452 2.75315e-17)
(2.03301 4.49334 -1.29288e-16)
(7.41947 0.394775 6.46205e-17)
(0.270199 -1.81689 0)
(10.9857 1.08098 0)
(-1.60326 0.189538 3.20239e-16)
(-2.61759 0.537405 3.83435e-16)
(-0.269531 6.96796 1.20977e-16)
(0.0670231 7.10834 -1.11882e-16)
(-1.50996 0.130797 1.03574e-16)
(3.05449 3.82185 -4.37025e-17)
(-1.28387 0.0298501 4.06376e-17)
(0.447437 1.31769 1.94772e-17)
(0.392619 -0.420759 3.09148e-19)
(0.820366 1.86585 -4.84192e-17)
(-0.153761 -0.388952 -9.99919e-18)
(1.73508 3.78595 -4.87394e-17)
(3.9182 -0.0672543 -3.58691e-16)
(0.857329 4.80757 5.56669e-18)
(-0.0469225 0.825574 1.42662e-16)
(0.616806 0.317448 0)
(0.753354 -0.0931643 0)
(0.664532 1.13668 0)
(0.917187 5.96467 2.20854e-16)
(1.33387 7.71495 2.36771e-16)
(-0.187759 7.39492 1.88972e-16)
(2.99789 0.590536 2.5574e-17)
(5.96122 3.3977 -3.40442e-17)
(0.244156 0.0999031 0)
(0.030572 1.23784 8.05264e-17)
(-0.61436 -0.16864 3.23668e-17)
(10.511 0.0556963 -6.89475e-18)
(-0.670924 0.271454 -9.48298e-17)
(-1.61863 0.044467 2.82972e-18)
(-0.233798 -0.172312 -1.5745e-16)
(8.99726 0.345477 -1.88481e-17)
(0.861081 1.96897 0)
(3.31835 1.09678 -3.35175e-16)
(2.99837 -0.0182449 2.1821e-16)
(3.73352 -0.0538179 0)
(-0.155318 -0.251477 7.11523e-17)
(1.45099 2.20155 -2.37691e-16)
(8.75565 0.152736 0)
(2.12441 5.83521 -4.38106e-16)
(-0.12174 6.59887 -1.06408e-16)
(0.65363 3.63858 0)
(1.15011 0.532697 0)
(11.3694 0.285831 3.98378e-17)
(10.3328 0.324401 3.09764e-17)
(9.85782 1.29353 1.94343e-18)
(5.54343 2.28975 -1.99881e-21)
(0.727648 3.32692 0)
(1.51465 0.508846 1.83339e-16)
(2.4232 6.84757 -2.816e-17)
(5.08024 -0.0431018 0)
(-0.0428462 1.12903 -3.90195e-16)
(4.48095 1.12064 2.83818e-17)
(-0.0403907 -1.84125 -1.02419e-16)
(9.32162 0.8433 -4.85153e-17)
(10.844 0.0430584 7.1843e-17)
(1.84884 1.74376 -1.72307e-16)
(9.93335 0.397709 -1.42877e-17)
(-0.0755749 7.04464 1.32907e-16)
(0.912831 7.7427 4.13439e-17)
(0.732814 6.63529 -9.7179e-17)
(6.83321 3.71072 0)
(2.79123 0.766555 1.02463e-16)
(2.19816 0.572936 -1.29913e-16)
(3.52984 0.554932 3.20459e-17)
(-0.0662265 0.115455 1.2858e-16)
(0.0473241 5.00872 -3.60546e-21)
(-0.108311 7.85945 3.12279e-19)
(0.61057 6.22857 6.60968e-17)
(0.543753 0.655538 0)
(-0.692441 0.425357 0)
(1.17681 -1.0082 8.08424e-17)
(-1.2602 -0.362185 1.42219e-16)
(-0.100932 5.2991 -9.37588e-17)
(-0.0497758 6.48322 -3.06401e-18)
(-0.283034 2.15091 0)
(2.39856 -1.27008 -2.86638e-17)
(10.0679 0.112788 7.89737e-17)
(0.00118281 1.22823 0)
(-1.16528 -0.649192 -3.45376e-16)
(0.627337 2.21008 5.54519e-17)
(0.853437 -0.0542433 2.32138e-16)
(-0.366617 6.62075 5.50713e-17)
(-0.0894272 7.50387 1.1918e-16)
(9.56321 0.861381 0)
(0.412613 7.32997 -3.26701e-17)
(-0.148046 6.96366 -2.70204e-17)
(9.44199 1.04636 -8.94761e-17)
(-1.66688 0.194321 -1.29408e-20)
(6.94061 1.00169 8.42271e-18)
(-0.21134 6.78582 1.54128e-19)
(-0.194745 6.56435 0)
(0.203536 5.48508 2.63174e-18)
(-0.191862 4.90112 -8.66535e-17)
(-0.115145 6.36861 -3.37974e-17)
(3.8629 4.1508 1.29919e-16)
(0.0547299 -2.16869 3.26112e-17)
(-0.166142 7.31455 1.78117e-16)
(0.108331 5.54251 0)
(-0.414145 5.55516 -1.26488e-16)
(0.432788 0.680184 3.48354e-17)
(-0.171792 -0.289385 -1.41174e-16)
(2.76175 -0.0532681 5.95748e-17)
(0.176784 0.289186 4.05214e-18)
(0.345116 2.13875 9.58173e-17)
(-1.06221 -0.186525 0)
(2.86503 3.90217 1.26942e-17)
(0.00217424 2.18302 -1.65903e-17)
(0.565375 0.150503 -1.13376e-16)
(9.81052 0.958312 -7.52646e-19)
(1.01376 1.30814 -3.16734e-17)
(-0.281975 1.17606 -1.93666e-16)
(0.190609 2.07601 -1.37196e-16)
(-0.170356 6.54644 -1.82134e-16)
(-0.257489 6.4553 0)
(0.579348 0.103627 2.27536e-16)
(-0.152869 6.62486 7.78358e-17)
(-0.402643 6.54794 2.14147e-17)
(0.257522 -0.209348 -8.28321e-17)
(3.83717 3.6412 -1.35705e-16)
(-1.50505 -1.90188 4.1282e-16)
(-0.549079 -0.87012 5.65752e-16)
(0.937023 1.19116 -2.13597e-16)
(-0.321161 6.47201 2.11226e-16)
(-0.0340911 2.01101 -2.88354e-16)
(-0.647123 -0.544649 -1.63636e-16)
(-0.137281 1.10523 -1.05578e-16)
(1.40038 8.43649 0)
(9.78675 0.090369 0)
(-0.185032 0.0856103 -2.75833e-16)
(-0.0242725 1.23437 1.62998e-16)
(0.00905359 -0.593209 -6.93227e-17)
(0.100185 1.41984 0)
(1.72813 0.819718 8.44961e-17)
(0.544312 0.107115 -8.66843e-21)
(0.7938 0.0856016 -5.55883e-16)
(4.45195 0.125118 2.00984e-16)
(1.11636 4.78322 1.13235e-16)
(-0.200708 7.03754 -2.38975e-16)
(-2.08906 -0.85106 3.02224e-16)
(-0.843863 -0.83517 -1.3459e-16)
(9.84278 0.831033 -1.24006e-17)
(0.377852 3.17725 1.87872e-16)
(0.686063 -0.179145 1.6922e-16)
(0.112264 -0.303502 0)
(-1.00696 0.962889 5.04444e-17)
(2.29005 1.29244 -6.56319e-16)
(0.224799 1.78132 -2.02524e-17)
(-0.0693141 2.07978 2.1501e-16)
(1.03966 0.850965 2.72787e-17)
(8.80806 0.526743 -1.04797e-16)
(9.39191 0.456136 -3.10472e-19)
(-0.182112 -0.309495 1.7437e-16)
(11.0383 0.0447637 0)
(1.12474 0.737106 -4.05735e-18)
(3.11002 -0.153717 1.90678e-18)
(3.45045 0.2622 -1.15399e-17)
(0.0064688 6.00037 3.88592e-17)
(-0.147897 6.81584 3.39963e-17)
(0.0212719 5.05283 1.596e-17)
(10.4943 0.0354781 1.30797e-17)
(-0.118523 0.889984 -4.87945e-19)
(-2.31003 6.89976 -4.13551e-17)
(3.16869 -0.129319 -3.97261e-20)
(0.250687 0.178364 0)
(9.97705 1.70962 -4.63146e-18)
(-0.981697 0.0614136 0)
(0.607271 0.581561 8.46644e-17)
(-0.646299 0.176433 7.53937e-17)
(0.114244 1.50956 3.96781e-18)
(0.563591 0.23686 2.31351e-16)
(0.0769715 0.0917127 3.54027e-16)
(9.2761 0.690086 -1.62089e-17)
(0.365636 -0.24508 2.47528e-16)
(-1.88478 -2.25444 2.06725e-16)
(9.47638 0.987916 9.12535e-17)
(9.71811 0.333259 3.7457e-17)
(5.94006 1.61083 3.36637e-17)
(-0.292939 6.94148 -3.97564e-17)
(0.080255 6.68343 2.10508e-17)
(-0.0937744 3.33813 9.93175e-17)
(0.499406 1.70985 0)
(4.39779 0.804848 4.30061e-17)
(5.81244 3.20651 7.90803e-17)
(10.0229 0.159682 -2.07463e-17)
(0.13085 0.156905 1.14037e-16)
(0.540967 -0.315586 2.33498e-16)
(0.153854 0.183973 0)
(8.8797 1.59627 0)
(1.66704 3.31965 0)
(-0.703185 -1.56051 2.6137e-16)
(3.45086 -0.0891313 6.42548e-17)
(2.76116 4.2224 1.95791e-16)
(-0.0345655 5.74255 2.38271e-17)
(1.58528 6.94752 -5.49609e-17)
(0.104211 0.155803 0)
(0.290382 2.35663 6.76673e-17)
(-0.186261 2.73762 -1.83499e-16)
(0.0431628 -0.163568 -7.95315e-16)
(11.2343 0.118404 8.75539e-17)
(6.03107 1.29659 0)
(-0.187851 2.19841 1.36016e-16)
(1.0674 4.90665 0)
(0.864315 0.626706 1.3923e-16)
(-0.0164615 0.351168 -2.21669e-17)
(1.0724 8.85921 6.07048e-17)
(9.89573 0.991916 -1.24503e-17)
(9.81026 0.636809 9.38794e-17)
(-0.733619 0.0791419 0)
(0.0953393 0.883866 -6.67995e-17)
(-0.508465 -0.0194088 0)
(8.55666 0.344381 0)
(1.68435 0.524264 -1.09762e-16)
(-0.0959102 0.399476 2.14484e-17)
(-2.72903 4.94255 -1.14877e-16)
(3.00384 0.85593 -1.13831e-16)
(-0.200387 -2.20214 1.30815e-16)
(10.2571 0.108617 -2.38728e-21)
(6.04156 3.66221 -7.19611e-17)
(-0.589485 -1.07141 -7.60192e-19)
(-0.23681 6.85776 4.69471e-17)
(0.080742 6.2308 -4.77602e-17)
(0.441003 1.59964 -1.16375e-16)
(1.13986 6.18731 -2.26134e-16)
(2.33608 0.643056 -1.39247e-17)
(-0.369122 0.842042 -3.1579e-16)
(-0.00987199 2.0382 -1.57546e-16)
(0.35915 0.216943 6.78486e-17)
(1.35521 -0.570093 1.72354e-16)
(0.284957 -0.099155 -3.06616e-16)
(0.257197 1.76816 -4.27967e-16)
(-0.362699 1.70775 -2.93781e-16)
(6.97466 4.29868 3.43325e-18)
(0.629412 1.68093 4.67804e-16)
(10.0426 0.0405769 -5.7776e-17)
(1.336 -0.326049 0)
(0.863064 2.75597 -1.39573e-19)
(4.61665 -0.304531 -7.99029e-17)
(0.385562 -0.601401 0)
(9.99464 0.384191 3.65208e-17)
(-0.497556 0.071648 2.8989e-16)
(0.403013 0.0644682 -2.57271e-16)
(8.34123 1.31895 0)
(-0.19831 5.3163 1.85899e-20)
(-0.298609 8.2339 0)
(9.99772 0.0764046 0)
(1.28663 0.102921 -4.42192e-17)
(8.93432 1.10068 -6.61288e-17)
(8.9848 4.05575 -1.66069e-16)
(1.34912 6.22918 2.21104e-17)
(7.40746 2.04543 -9.75527e-17)
(-0.0450603 3.52813 -6.63863e-17)
(-0.0401562 5.57723 -1.2785e-20)
(-0.111326 4.83149 -5.97974e-17)
(-0.0542829 0.895168 0)
(-0.246824 1.68362 1.11763e-16)
(0.10809 -0.749875 0)
(-0.610378 -1.27729 0)
(-0.110827 -0.801011 0)
(0.361442 -1.29681 -1.5572e-16)
(-0.28974 1.22978 0)
(0.107636 1.14333 1.09331e-16)
(2.86883 2.76358 -2.53483e-16)
(0.552276 5.09224 0)
(-3.33667 7.82726 1.36146e-16)
(-0.310065 6.69928 -2.14486e-17)
(0.0953662 4.64453 9.10606e-17)
(-0.173355 7.67192 -3.26813e-17)
(1.14229 4.46879 2.04944e-16)
(9.3153 0.936874 -2.53075e-17)
(0.242778 1.8071 1.7653e-17)
(-0.22417 2.00629 -5.89162e-17)
(3.04328 0.270024 0)
(1.37433 -0.552116 3.09687e-19)
(5.51444 0.947288 0)
(0.574694 0.0251078 1.2214e-20)
(4.19691 0.128756 -4.01214e-16)
(10.0171 0.0481189 3.17679e-17)
(-2.41172 7.74733 1.1349e-16)
(-2.20097 2.47688 -2.5377e-16)
(-0.0359088 2.03565 0)
(-0.058046 0.599813 8.55752e-16)
(5.33904 1.43285 -4.12409e-17)
(11.2357 0.511935 0)
(9.76606 0.235878 2.25403e-17)
(1.04061 -2.096 1.10963e-17)
(9.15652 0.287245 0)
(4.3642 3.9807 9.04628e-18)
(3.18715 0.464716 -3.24141e-17)
(2.05378 1.198 -3.15619e-17)
(1.33412 0.978021 -1.06255e-17)
(1.83009 0.154517 -2.36305e-16)