/*--------------------------------*- C++ -*----------------------------------*\
| =========                 |                                                 |
| \\      /  F ield         | OpenFOAM: The Open Source CFD Toolbox           |
|  \\    /   O peration     | Version:  v1912                                 |
|   \\  /    A nd           | Website:  www.openfoam.com                      |
|    \\/     M anipulation  |                                                 |
\*---------------------------------------------------------------------------*/
FoamFile
{
    version     2.0;
    format      ascii;
    class       volScalarField;
    location    "0.11";
    object      epsilon;
}
// * * * * * * * * * * * * * * * * * * * * * * * * * * * * * * * * * * * * * //

dimensions      [0 2 -3 0 0 0 0];


internalField   nonuniform List<scalar> 
5794
(
7.49894
2.95032
30.2324
3.42204
1.24291
4.89237
1.66811
0.670612
16.9686
2.48741
1.30783
1.36445
0.749902
1.22507
2.20968
1.28222
136.82
1.25907
2.2231
1.87084
70.2399
5.20007
3.71674
3.27046
3.3528
53.0374
126.724
3.88897
3.01998
9.03772
0.660979
4.82834
0.682384
1.93994
1.71331
1.15358
4.53804
3.11856
0.983358
51.2231
4.47563
0.932812
15.7603
5.65585
1.86029
0.621741
4.79986
0.601937
3.18495
6.8172
0.993427
1.08587
3.98285
2.66236
0.4036
0.815827
4.44265
1.03994
12.8175
132.919
85.9808
0.81973
0.618288
7.7475
0.634878
0.615446
25.9974
21.5161
1.76825
0.881359
0.995736
31.0171
67.802
1.69528
1.57953
2.79284
1.69033
33.3059
5.24227
0.955103
4.86648
2.23914
3.20101
0.658185
2.02732
3.2223
8.25159
2.52067
3.92343
5.68421
3.35691
3.4461
1.6935
1.31354
2.13387
1.03641
2.56867
1.41988
3.25635
102.861
54.9108
4.36976
14.3435
1.86639
1.01441
0.70316
1.11483
0.712367
6.14208
5.50108
0.741581
1.59164
63.8066
0.57166
1.82139
1.56307
3.11468
1.51614
72.3334
21.9831
1.02113
2.51696
1.05502
4.52543
2.19039
7.45143
2.83483
5.33601
4.16258
0.913498
0.749942
0.607009
5.88277
27.776
0.767672
2.19337
118.204
0.842943
0.638039
1.0615
7.87957
1.30735
1.7014
2.331
0.991615
152.361
1.79242
126.202
0.91711
1.1165
16.253
1.27286
0.720294
1.87586
159
6.09573
0.776992
1.01314
0.954885
2.37023
2.60611
0.890034
1.25104
0.886695
1.56324
1.02939
0.948598
0.772581
0.884511
2.02277
2.86616
4.17328
2.26118
2.1475
2.42599
1.14415
3.49217
1.9566
2.52584
4.042
0.765444
3.53363
0.711558
0.684134
0.70038
97.7384
4.7741
1.00095
1.91283
3.95712
1.87702
4.82178
0.738858
0.721585
0.793772
0.963612
0.843044
1.16838
1.64059
11.5649
0.979282
1.07346
0.673619
0.709912
5.18589
0.721312
1.05851
0.947173
2.06936
42.0394
8.20993
10.7454
0.676389
0.874367
1.79098
2.06067
2.40399
4.51246
0.729743
7.35829
10.3315
1.97416
2.50527
3.76649
155.852
24.2604
61.0817
2.62907
1.64568
2.57972
1.7908
1.29816
1.46846
5.16441
2.23389
9.36521
5.47799
33.7286
0.98349
2.66047
2.28352
1.48925
30.2702
3.30268
1.72378
0.696714
1.60322
0.888046
3.93149
2.83225
6.33844
0.659497
160.639
0.72474
6.55717
3.53344
12.2748
58.2198
0.930577
2.65299
141.733
0.657761
0.704083
0.548865
1.16551
0.852689
1.79751
20.4959
3.10434
0.627345
4.96691
0.632588
2.50815
1.64285
17.0588
2.78072
2.64799
3.19934
1.21206
0.925249
0.90955
3.33576
4.09405
1.45792
7.8027
3.53024
8.06675
3.68286
3.00906
0.960558
1.86158
1.40218
1.72692
1.54689
5.54239
36.4583
4.61168
2.60294
1.94329
0.562068
3.45537
59.0705
5.85521
32.2567
5.43646
34.8929
1.22358
1.98864
0.712991
5.35536
0.737126
1.80297
31.6173
0.568706
9.8185
37.9669
0.637178
2.90419
4.50182
2.79988
1.12846
3.14608
1.83646
0.994494
0.835601
1.25046
0.738722
1.10595
0.740941
1.0733
1.46432
14.5547
0.84641
0.858082
5.32295
1.98133
2.09343
1.06372
2.60756
1.0867
3.7596
3.32103
10.6092
2.08656
3.49147
0.74598
0.715603
2.36457
1.25161
3.79466
1.62054
60.1231
0.724623
4.76415
0.712074
69.5122
1.64153
1.57604
1.08625
0.761286
0.827412
1.98436
106.163
1.28429
0.62565
1.09659
1.21226
0.833664
5.59755
0.703014
0.822377
0.524039
0.880266
3.00962
0.601699
2.26443
1.58018
5.02231
1.82083
0.888353
4.98975
0.814092
12.5755
0.91464
1.42358
1.83177
2.23716
0.960246
0.600154
1.06819
0.779234
1.15732
1.03452
0.763018
2.34016
1.81208
1.90703
15.9446
3.79375
2.46834
2.87644
2.87324
31.0725
0.943407
1.33179
25.8126
7.885
3.65982
1.39341
2.12512
1.72169
4.01452
5.61596
4.90119
0.800363
6.43359
0.761395
2.62483
3.62172
2.49194
3.30444
1.42406
0.583273
0.901059
1.3419
1.6352
2.23869
0.578497
2.19962
6.01939
10.2531
5.76105
2.76272
88.0076
1.53473
3.15356
1.61806
0.718649
0.855707
1.16839
1.75206
8.10863
0.703948
0.77002
1.55589
1.4767
1.96727
0.580239
17.7334
54.9477
1.92269
1.78776
109.193
4.93372
1.63072
0.545297
2.89888
4.85974
2.90041
2.56301
5.07081
1.49307
20.025
0.67571
123.91
1.08672
18.9841
4.61503
2.08215
5.97117
0.756227
3.70552
7.3669
0.975884
3.01005
4.85852
18.7772
2.47246
1.9808
1.61622
39.8248
5.39374
1.65078
1.13774
0.594464
1.00401
10.5075
0.94061
79.0331
4.81053
1.9524
2.49516
2.26359
0.902477
7.52034
0.907953
3.01734
0.777267
0.612152
27.8421
1.86827
12.2808
10.1189
1.30944
5.62032
1.55762
4.76975
98.9554
4.31952
0.577778
1.46874
1.2151
5.40454
0.551631
0.5679
2.2239
1.69808
0.551949
5.61237
27.6211
3.28104
1.28949
1.79677
1.267
1.86805
2.54534
2.92983
11.8127
1.59927
4.58882
22.3369
0.753623
18.1731
0.826436
0.90267
2.06008
6.60058
129.669
1.3407
136.998
5.70585
105.218
2.07121
1.50587
0.713274
0.801073
5.5894
1.96898
0.565879
3.22529
3.04213
1.03761
2.89881
5.08737
3.20879
1.4462
17.6144
4.68704
1.66221
5.90288
176.603
2.93419
19.009
1.40328
1.44166
2.5764
1.85496
24.8603
4.47957
0.559495
149.278
4.39397
4.58282
7.19337
21.8595
9.10313
2.9125
6.38885
1.74433
5.16309
1.80145
4.85001
3.02008
15.5798
4.39872
137.886
0.592075
1.55458
5.74764
2.3689
0.568546
2.49637
0.879134
2.08269
4.17684
6.64256
0.742439
9.33278
0.580611
5.05589
0.815918
176.672
2.52957
2.0048
0.553361
6.68328
83.307
2.41885
0.484836
1.11075
6.88769
5.67469
2.88833
10.4326
0.658962
0.596528
30.3292
1.1597
12.4034
3.55662
1.12645
7.08469
7.97353
0.75271
0.898244
2.79733
1.68362
2.11128
1.72017
0.576084
4.71494
1.91493
0.812924
3.20382
1.47809
1.48717
32.8227
26.4615
1.42817
3.32525
0.834549
18.0806
0.638059
5.80146
123.188
3.5069
4.0359
52.1736
1.40965
0.701972
4.39205
2.78786
0.934503
0.771907
0.819824
45.3873
36.7166
2.59156
38.4418
0.763939
1.24288
2.01318
5.47991
61.1835
1.78958
3.48907
3.02959
3.61152
8.00833
3.25727
40.5772
10.9227
24.0948
2.30504
1.33726
2.39039
2.1391
0.668573
2.99829
1.82184
2.7254
1.10335
1.17732
0.610431
1.57892
113.394
3.54157
0.760955
1.22521
0.567685
10.7426
1.60503
31.1509
2.4406
1.36022
13.1582
0.706168
2.85451
4.96503
9.86396
2.74492
1.28152
0.760142
67.1603
4.64859
7.83766
6.69204
1.28652
1.15243
2.25659
75.4722
2.7308
3.19409
2.01152
6.59528
16.2392
9.17288
57.8706
10.2487
3.58559
1.12727
32.3559
131.075
0.780145
2.28967
9.09914
49.093
28.4091
2.06322
42.9624
2.31902
22.1182
1.38872
8.59767
1.42985
28.7335
99.1541
3.11164
3.37513
1.58688
3.05614
2.82127
4.76049
27.0433
2.35886
3.56346
10.0627
4.45744
7.43187
8.98389
3.77944
2.46496
1.10139
0.548707
2.3596
1.84154
5.22163
1.30212
2.16895
21.2722
1.12978
9.11184
1.79512
3.22239
2.99571
3.5301
7.87537
3.80678
5.37111
1.49761
5.43185
2.23706
1.88668
1.08532
0.911644
0.752834
2.30308
2.82713
2.96302
3.03814
0.583885
44.7581
10.5867
4.46767
1.42763
1.89195
7.06381
0.783562
1.91293
5.00792
0.713026
4.20383
1.04728
4.89062
0.822352
7.80864
1.88946
152.009
5.08404
30.6513
9.88884
0.67754
3.157
1.35326
3.4472
1.41004
0.579295
1.28162
58.9901
1.74726
2.65428
4.85645
5.53245
81.3271
6.50762
0.757129
1.61629
1.18793
1.74988
1.62741
4.33828
12.8252
129.585
20.4917
0.568839
17.5382
1.34919
1.02084
1.1994
5.76986
1.59681
2.61091
9.35649
0.757524
0.963471
1.07112
0.737075
82.4681
4.16633
5.06389
4.61561
1.06696
3.80227
1.65812
26.2256
0.566509
10.5564
11.0465
10.7451
9.95151
2.61967
2.17807
5.08582
3.59548
23.5828
7.75131
27.675
28.9552
0.568495
0.756819
5.23808
2.83162
7.30392
0.954505
3.4115
3.92989
36.3637
6.51324
0.936817
1.16382
0.789971
14.1517
21.1953
3.18483
173.707
1.28492
0.824245
27.2312
45.9422
6.43376
2.13965
2.61882
0.712068
11.9561
0.654162
0.820718
54.3654
15.6542
6.19315
10.0868
7.90789
35.0162
2.85864
2.6379
29.7621
6.77061
1.05031
4.55037
1.66432
1.5462
0.569547
1.35124
1.32528
3.24187
8.60875
0.830806
7.34946
0.583374
65.7623
7.1433
1.32546
8.1699
3.67032
1.60319
21.0196
2.33757
1.78859
6.27887
0.623493
21.9948
8.89542
21.722
7.70842
5.38042
7.44741
4.3317
4.67503
2.90067
2.49353
8.68012
10.2235
15.4088
6.84632
3.10285
78.9925
3.93121
0.724825
2.50247
3.25639
1.43724
1.19057
37.2287
1.49848
3.83336
0.878945
0.565478
3.42096
0.580048
154.665
6.9527
1.02295
81.7737
1.80911
4.95411
6.06327
25.2365
10.0452
8.50656
23.7554
10.3641
1.29358
1.73574
0.784018
0.74847
0.76095
0.835775
0.858967
1.41623
0.650263
0.562988
1.1617
0.813923
7.9551
0.965611
5.35889
1.18175
0.574589
163.053
9.71901
3.02735
3.63272
1.71183
0.710799
1.34922
4.96677
36.3003
0.673192
54.0678
5.22153
0.708033
9.9975
2.67329
0.761495
9.23013
75.0342
21.627
3.63843
30.8734
0.568204
11.068
29.799
2.98445
80.5857
16.3417
2.21229
1.32111
3.03803
5.17133
0.598774
1.08645
29.9001
8.66909
25.8811
5.44326
8.25236
0.809848
2.08346
6.90833
8.3855
2.09212
134.233
0.938554
4.52958
1.54719
42.4226
11.0961
3.76373
4.63136
3.63634
4.45689
4.84116
10.5409
1.01505
1.90201
4.8054
1.00893
2.63488
4.0305
0.935139
8.19808
16.8627
0.56404
1.12668
0.812081
13.1307
0.595943
0.568024
0.917149
0.789173
10.3768
0.632499
0.780801
2.85836
28.4555
0.654694
0.794288
28.2521
0.577219
29.29
5.14856
3.45024
1.31332
5.09416
0.86155
0.592382
10.3693
0.843585
0.907145
1.96057
1.57597
1.34835
8.09453
60.5148
16.5725
2.33449
3.73508
1.08182
0.887023
36.1826
0.857118
3.48437
0.892082
1.29108
17.7086
0.745951
1.57854
1.24673
8.30618
1.23478
9.69073
30.0767
0.854452
39.7551
3.17946
0.704134
22.3177
1.6129
33.797
37.375
0.773892
41.6808
0.870614
0.82315
6.95912
1.41999
4.56472
8.92398
0.748125
0.662586
3.06518
50.4964
1.19893
2.94276
1.47192
4.5228
1.0896
25.7975
0.777601
31.1221
7.58818
14.4021
7.27461
3.03019
0.81939
0.724995
10.7199
1.46329
0.890011
6.92702
7.06656
8.11572
33.8068
72.1787
9.1892
13.6745
11.943
3.47385
0.620545
0.646726
0.572838
593.037
43.9664
0.562683
1.0566
5.63037
4.89096
8.8134
3.08996
1.9495
4.1376
11.1
0.567923
4.64049
1.23393
5.73946
1.01652
74.1219
0.99809
0.59869
11.1576
48.5449
1.8894
34.6841
1.63814
52.8848
4.73279
7.13982
0.632866
0.825223
5.0153
46.2574
9.24877
17.8099
12.15
5.76809
1.4208
25.7281
3.77112
22.167
5.59842
1.68291
4.5536
8.86118
1.80367
17.3139
0.855346
2.41537
7.43999
24.079
17.7612
15.8477
0.913638
0.81331
11.1242
93.7797
0.589365
1.05048
0.740577
184.854
0.557643
0.960247
30.5001
3.1175
2.12188
8.47866
1.20761
15.8035
4.09666
2.2096
3.10953
12.3537
11.9853
1.19692
0.829963
0.645788
0.599428
6.88964
0.588803
23.3893
8.61418
0.877729
1.10593
0.587543
8.65566
0.601851
0.537442
14.2023
38.332
0.915197
0.792285
2.94856
1.40906
35.5695
4.49724
3.25135
0.583648
0.645085
0.853089
7.27423
1.61805
16.5934
0.605653
0.576722
7.97099
9.98728
1.0401
0.598067
13.0924
55.3109
1.65188
0.721612
2.79694
4.17454
2.36637
4.80108
23.6435
3.24274
0.570413
1.06072
7.44168
2.21571
8.61509
14.1553
13.3324
4.47081
1.52853
2.50986
1.20046
2.38149
10.253
2.38262
3.68053
1.34428
4.56755
19.1804
22.0486
3.64292
1.19855
8.25966
0.771316
2.65662
14.9426
1.65697
14.0238
30.1371
1.4624
3.16573
2.48254
1.00152
0.788008
7.38415
3.35569
1.39649
2.98451
173.969
9.35872
5.44933
6.68529
2.05251
0.776938
13.7338
2.26167
7.5542
37.7226
0.610396
0.859517
0.620963
5.22236
1.26765
8.49269
1.89626
5.66709
1.10297
1.1964
1.42648
29.5234
8.74142
26.3795
19.9774
33.3592
8.83549
0.752662
2.71781
0.706975
48.778
1.21635
5.75034
0.776661
10.9423
0.699967
2.55136
9.07487
5.78632
3.53326
10.0255
0.996992
0.639721
1.27994
0.603961
2.1349
1.22866
1.23282
0.603261
1.23865
8.905
0.629828
3.80198
3.11238
0.624585
0.615363
12.0855
1.68769
0.689296
7.59866
2.78809
8.24559
0.696916
0.569943
16.6315
0.641898
1.36842
18.2324
0.733376
36.4327
1.38768
1.57912
3.38865
18.2281
282.682
11.3875
1.79341
7.35346
1.6507
42.657
8.79673
1.4839
0.926501
0.865264
0.738364
0.683876
2.03526
0.983583
0.782093
1.2234
0.738151
0.787185
0.930504
7.81632
0.780953
0.833092
0.683121
6.07268
0.967956
1.58843
15.647
1.08132
2.46183
1.25739
0.99355
0.731231
7.92933
4.83606
1.6494
0.730952
0.65015
4.48007
1.06197
0.704454
1.18987
1.13275
0.761298
0.743126
1.16311
0.775332
0.689518
0.722165
0.799374
2.04625
2.96574
1.78201
0.700644
8.91735
1.7683
2.43895
9.1332
10.6506
3.47596
1.08854
0.582026
13.503
1.0381
54.7953
1.3519
171.944
5.94317
18.1247
41.439
0.988091
1.00327
0.655848
1.77577
5.15484
2.42586
1.1213
31.7192
12.0275
2.58175
3.12444
2.78803
4.04257
4.12324
2.53321
230.637
0.768665
1.4986
0.6409
32.4006
1.56358
22.3956
176.757
1.28891
8.81624
3.37177
31.6636
0.604926
1.41368
11.4985
13.9063
527.061
0.720338
1.71197
2.12185
1.10804
3.34551
2.72457
9.07957
1.35925
0.716601
0.695106
1.14561
1.22778
0.727239
1.04155
0.693768
0.687479
0.636887
0.698485
2.80467
1.38464
0.802747
4.04045
0.855826
12.1665
0.919143
1.0066
1.33649
1.33492
1.05141
1.91388
1.00477
5.95158
31.2003
0.624672
63.285
2.27309
13.9164
1.8164
0.563096
37.4399
1.94646
0.925746
8.83551
4.79398
3.61444
0.967317
5.05657
50.5563
1.18159
13.0565
14.3586
5.40543
0.581686
1.74876
9.22494
1.65155
1.52627
10.6885
7.1319
1.60434
0.653109
0.655914
1.42892
1.14296
1.13486
6.02702
2.00552
14.698
0.643931
13.4186
0.832664
0.590842
0.85864
1.2257
1.21396
1.52482
0.709387
0.777753
10.2576
10.7406
2.37868
14.9697
0.979662
21.3303
9.24407
0.842885
9.15932
8.61156
0.912515
8.48884
6.99255
0.775915
1.0192
32.277
1.88389
10.254
0.720839
0.588158
2.61814
42.1088
0.556833
1.20209
3.58552
0.926724
2.61888
16.2728
7.43153
13.2098
0.874287
7.90231
0.579015
1.93893
7.18616
2.25476
1.98301
3.43184
0.773926
2.28262
0.599595
10.3589
2.21531
1.28824
13.8449
0.785234
0.604728
3.29856
2.37267
0.588149
0.583206
0.824041
36.8694
1.22587
2.06726
2.37594
3.71141
41.614
3.25379
61.3982
9.6032
10.7309
5.41671
1.25417
4.2299
8.88904
2.21647
7.49391
6.89313
17.6601
1.02303
71.1921
8.62218
72.5241
0.659565
2.16204
0.709195
41.2964
1.16754
0.866298
6.26159
15.8475
0.772644
2.65723
44.7465
24.6189
7.70609
1.78332
0.658311
0.725471
6.14459
8.54509
0.669969
0.577674
15.4161
1.16448
0.927039
1.21586
1.22412
0.835087
1.08531
0.804251
1.03288
0.814208
0.901364
0.986207
1.03203
1.01951
1.10879
0.863347
0.994301
0.880662
0.589659
0.581714
1.44417
30.7421
0.579217
0.933097
0.728608
0.600765
1.08435
3.1216
4.36366
2.45268
0.79322
1.43439
0.82464
1.99031
2.27579
2.75189
6.23316
0.70564
0.708577
0.647269
20.7257
8.58288
34.7163
14.0229
17.7361
23.8418
0.870223
34.3781
1.62918
3.36668
1.74666
7.35164
0.931276
1.16658
27.9112
1.0534
0.68353
0.810961
0.657795
2.80925
9.04983
2.90664
4.60647
6.36384
1.12713
7.08316
0.968096
2.32432
9.71706
1.63538
5.33208
1.73158
1.59397
2.71065
2.35293
1.02711
9.63061
2.25917
1.2158
6.79908
1.55521
4.27529
3.22661
2.72016
2.29335
7.33511
0.949643
111.983
2.68364
1.44139
1.31753
4.13763
7.56939
1.60848
0.969082
2.49499
0.783227
0.673648
107.469
4.25074
2.63541
2.52512
5.70207
1.70409
0.765053
1.709
9.87884
0.834695
105.631
0.771357
1.58452
1.75596
6.36245
104.797
2.07607
20.0025
6.29678
21.2233
1.00113
1.9642
1.89961
0.593171
0.597613
7.32186
7.33157
33.0796
25.6885
30.5611
4.92836
38.5202
5.14939
29.641
1.8123
0.790275
19.8035
0.740361
11.8208
0.581334
0.780786
11.5867
22.2728
24.3085
0.776279
28.1878
0.96738
2.74082
3.76792
35.8183
0.641628
1.84116
0.969481
1.61111
1.6597
1.61465
1.57839
13.2309
28.6908
31.9642
2.37933
1.61253
42.7513
11.4579
6.12278
27.635
1.27443
0.581856
9.32915
0.597393
3.3501
1.34778
0.700103
27.8192
2.41542
1.63495
33.271
1.043
1.09987
0.913727
55.8409
27.1028
1.5532
35.475
1.04386
1.80924
0.854719
2.67481
27.0966
9.58988
2.1542
0.876234
1.25426
2.65834
0.94568
1.01236
29.5984
6.78348
3.17969
16.9924
1.34275
1.37295
1.00561
0.964701
5.18017
7.11555
10.5451
1.103
1.1196
3.67237
2.41998
5.56991
0.688455
1.75331
0.577953
11.0156
0.626369
1.37075
6.65967
0.582488
0.59781
0.933316
0.647137
2.54087
2.39129
1.40813
0.677691
5.56476
0.93008
0.620069
2.69027
5.99676
1.58136
1.76953
2.46751
1.87529
0.671667
1.18941
44.1953
81.3551
2.02616
1.96856
4.31411
1.29568
7.61972
0.590783
0.582163
0.645664
1.29336
0.605773
1.55981
0.658525
4.81677
0.589989
0.597721
0.625295
6.8098
0.643506
0.604747
20.2035
1.90115
0.639835
7.33592
50.3646
31.4148
1.75619
2.95339
3.38783
2.67291
1.21471
2.59024
4.63427
1.27172
1.11904
0.828901
4.79574
0.612871
0.620566
1.33333
4.31092
3.12005
0.607233
55.9399
0.716683
48.2659
26.5484
0.698114
14.8051
0.579642
0.807448
4.54164
1.46434
1.10781
1.11916
1.74086
1.08812
0.665634
1.73269
8.11686
0.886294
0.927799
43.7507
1.85658
0.64369
4.31041
2.27772
1.65936
1.35897
5.14792
5.068
1.42172
2.06596
2.55467
5.83963
4.50614
1.33808
0.693039
4.9417
0.685187
0.671341
7.26215
0.96084
0.792386
0.587713
64.0202
55.5281
29.6197
2.1792
0.666104
15.0304
14.7268
0.625065
30.6663
0.766425
44.5646
4.17638
4.88856
33.2499
5.72381
2.64639
2.17244
1.91253
2.08704
3.0489
15.5092
5.38442
5.58521
1.0847
2.11998
8.44852
1.21799
1.72741
11.5571
51.8364
47.5632
7.55522
3.2758
4.41464
0.945078
7.83852
1.01772
0.748352
2.60201
2.05672
1.36832
2.68108
5.3056
5.65841
8.82111
1.03434
61.1402
3.13257
0.871111
10.182
0.590378
44.0177
0.954632
0.781776
1.83085
6.72504
7.81188
24.7371
36.3796
5.82499
1.64486
1.80179
1.76959
0.636111
3.00145
11.3725
1.74757
0.848223
1.6859
0.988682
1.32805
4.294
34.3728
2.67142
2.33818
1.38153
2.07558
0.736336
0.987896
1.07838
1.2062
6.29163
1.84288
2.95718
92.452
1.65544
0.901881
0.924455
1.43859
2.15387
26.4084
18.9816
22.1886
44.0586
1.26053
6.35886
0.914675
0.755846
1.03087
1.29645
1.21978
8.98718
1.83532
1.46639
0.902146
0.82816
12.1817
3.55541
7.3751
10.4976
3.67651
7.92274
4.2703
38.0613
6.26261
2.32975
53.9696
11.3224
1.36672
7.68511
3.64136
3.54166
5.39176
0.595138
43.042
3.24601
1.14044
3.58563
59.8832
10.486
7.0015
0.890775
0.589902
49.5406
36.1275
0.914826
41.8253
0.594365
0.591838
1.36298
0.826258
20.2181
5.33931
0.72711
5.80951
1.29834
1.029
38.3034
2.89701
8.15326
0.997184
2.56279
2.59092
0.739558
1.91554
1.53613
9.07883
36.1871
2.56521
3.37004
30.1518
0.567797
34.7346
16.3257
2.28421
37.263
2.59724
39.2773
26.8059
1.21262
13.3718
1.18682
12.6675
39.81
26.0174
1.66637
0.797404
2.63223
28.4465
29.2671
2.43194
1.27614
0.848815
2.3465
3.35437
35.2524
19.3216
4.59978
8.96102
30.7654
3.66124
1.86609
26.4399
2.73754
1.01302
0.866269
4.82028
0.838551
14.7113
27.1981
2.08784
3.17017
5.34802
7.45353
1.09214
2.52768
4.82043
0.969759
13.1171
8.46914
1.46008
0.865963
4.41044
6.72393
2.0705
32.5773
0.542634
4.72441
13.2311
15.1203
9.38299
2.06519
0.747686
2.66437
1.32463
34.6917
15.625
1.58347
1.34644
0.939147
0.946892
3.35629
8.88306
2.25758
8.39933
8.81549
3.31577
1.13348
2.44443
42.5511
1.49115
26.8971
2.65806
28.6666
9.31125
7.79321
2.07913
2.15974
0.762989
1.07682
2.39253
2.07147
1.27235
9.43038
2.1296
35.5703
4.77724
9.11645
4.71746
3.92827
28.9416
30.4055
0.859236
0.582598
0.590446
5.99752
32.3507
5.32345
35.3142
216.203
0.829027
3.73834
2.13752
0.960112
1.53873
11.0958
4.44696
0.681645
0.573659
28.8525
2.25375
0.831035
0.820902
0.754659
0.903794
1.72056
31.3107
22.2208
0.832397
9.07509
4.07732
10.5332
1.83093
398.886
6.58227
1.99238
1.66014
12.8934
2.22594
0.623976
43.0831
22.0586
0.856063
8.80254
1.20913
1.93913
3.7932
0.570021
20.6107
0.854951
0.839531
1.05326
40.1931
0.922208
17.7
27.8048
2.5166
1.31779
33.4684
0.557308
3.97481
2.26645
0.908319
1.59696
1.78499
1.71841
9.00268
2.72673
0.749133
27.2617
1.29932
3.44252
19.7531
4.48558
0.774073
33.1596
2.6942
0.579571
12.9515
5.7629
1.0719
0.797217
1.05172
1.11264
16.121
1.80183
1.29221
5.25528
5.62721
3.68059
45.4345
2.03964
1.75504
1.54518
9.74488
0.73484
18.8892
0.927138
7.06964
28.7981
27.2652
5.37856
31.7652
0.623957
0.723687
0.773293
0.73942
4.79143
11.9545
0.75516
2.20559
1.35529
2.87456
0.558104
2.77971
23.3235
1.03985
1.36732
2.36304
3.74824
1.95719
2.64299
13.7257
10.3605
8.97028
29.5697
1.11668
0.846887
7.81015
4.92964
1.09822
0.882234
2.60519
9.5038
1.36313
2.10197
39.9796
6.74456
3.70478
0.953842
23.4692
4.05878
2.35417
3.86951
9.68534
4.6523
30.4461
27.7903
5.03411
0.779628
1.81143
2.46874
2.16513
1.71392
6.01179
3.71495
1.60162
1.12625
1.69731
7.52554
1.28467
0.86008
1.79154
0.826786
25.1859
7.52838
1.0477
2.60839
24.6563
0.887335
18.6138
5.22806
6.03066
5.62835
0.74542
1.21546
4.4638
1.40119
1.38467
7.96031
1.79901
0.983546
8.17227
8.52492
16.3362
81.3969
8.30155
9.02417
2.02275
3.13534
1.42289
1.1195
10.3638
0.591875
1.70328
43.592
1.07064
26.0463
0.771028
0.639696
7.19966
0.658827
0.578681
0.723062
3.6182
1.00559
0.753502
27.8098
1.03404
3.29228
31.3706
9.30696
0.912583
4.561
60.4151
2.5813
1.80586
1.67865
6.19624
1.029
9.6786
155.512
2.03531
9.87588
0.940236
1.50579
0.718413
28.0362
16.7443
6.13248
8.67214
0.579967
0.777056
3.10708
7.81587
0.856021
20.246
3.7207
1.58948
6.46432
9.44249
3.10947
2.12425
1.51645
1.11688
6.20408
40.8734
45.5781
0.570441
15.7184
6.19375
4.10237
1.06737
1.70094
10.45
3.09726
5.2256
1.31418
0.900601
0.787816
9.352
0.648911
0.598383
0.821431
1.46766
0.744125
0.573874
1.25453
24.7363
5.90431
1.31942
8.51074
0.897091
1.51209
0.914173
19.0449
1.56248
1.44538
4.22394
3.13789
0.75595
5.04515
0.911942
1.42302
1.88572
77.1621
0.930273
0.720595
6.34124
15.4298
26.7137
17.3752
1.20221
7.25717
1.55167
0.940977
7.33041
0.579912
0.809665
5.40984
0.939394
2.61974
0.527394
2.14225
0.609197
24.0141
1.3951
7.49365
4.07976
3.34634
12.2409
1.18217
1.73872
23.4261
0.694044
2.17547
5.67636
0.931513
10.9569
0.59148
6.80757
0.68432
1.19474
24.5683
9.08784
13.8316
49.1879
0.954817
1.27972
1.59893
1.25212
24.0356
1.19615
3.58922
2.89612
3.16299
8.02216
1.88288
21.5587
6.44168
1.20919
3.07742
0.964177
2.56898
1.02183
0.771639
8.99692
0.611943
1.33884
1.22627
0.839518
1.58272
1.36986
22.0402
1.01299
4.58785
1.59999
2.69001
5.91588
8.03905
35.5884
3.51601
2.70047
5.93747
1.04308
1.43212
21.4948
7.22703
11.8079
0.701085
31.8886
1.24691
0.914777
1.08579
22.6025
1.24385
19.3792
0.643161
1.51469
1.17921
0.635813
2.2623
1.03651
2.05255
2.16412
8.69265
20.9268
3.8491
1.94121
1.14612
2.87577
13.6867
11.7296
1.26137
20.0415
1.12501
4.31226
4.51079
3.45855
137.915
0.952907
2.57222
2.2531
3.54751
37.7096
1.29901
0.890404
1.75652
1.30801
0.983512
7.64473
2.51005
10.7424
0.7431
1.28914
2.20813
21.8566
35.7282
1.38888
1.09759
0.574162
7.37573
34.9666
1.91725
2.73691
3.19664
3.81586
0.666886
19.4104
1.05017
0.600542
8.40176
10.8217
1.07206
29.9798
1.89269
1.25583
1.22835
8.33524
4.29271
1.38136
0.805214
0.683875
29.0607
31.6351
21.2894
2.24473
1.55276
2.95764
4.50393
6.99863
0.779
1.0432
0.631668
22.1777
34.0874
0.963901
1.89736
2.59973
1.44847
136.967
20.2134
1.88523
2.47691
65.9995
7.46794
9.559
1.13411
20.6514
5.5232
3.87599
1.02535
1.28433
0.821854
0.94748
0.746598
1.80049
1.39877
19.6619
4.86338
4.43759
1.96717
5.31506
7.64241
0.693456
0.594549
0.947065
1.36268
27.0023
6.79859
0.951743
1.60304
6.01112
1.51744
0.968464
1.26075
1.97555
1.11255
1.43439
1.2214
3.72526
1.12546
3.3951
3.3676
11.6407
8.10521
9.14665
4.45024
22.6452
0.906577
15.628
8.91963
5.23259
6.95988
1.80437
1.06604
1.16912
4.93201
5.06383
5.35453
2.1327
0.896225
3.26439
75.5413
31.9993
10.5643
8.74943
5.97277
8.96079
29.8218
23.6776
1.0349
13.9348
1.98627
2.52488
206.134
4.59877
0.730958
1.20481
0.795727
3.91451
11.3821
1.67025
6.77789
2.21785
1.96121
3.44527
1.71448
0.847627
0.848058
5.96925
0.758043
0.953833
9.25362
0.748076
28.9015
0.981009
0.596893
2.47558
0.965917
25.1424
35.4375
2.62978
0.572732
0.776154
0.892763
0.924411
3.21444
3.97316
25.4903
1.27754
0.713383
82.2927
6.07079
11.31
0.896666
2.25261
0.869167
2.60423
2.13109
1.44155
23.8875
36.8261
0.600138
7.46608
0.616491
2.12652
1.35467
9.62919
5.35035
1.32439
65.8032
1.15381
3.05332
0.717194
1.07879
4.21768
0.956579
26.2557
34.5709
4.96908
0.718413
46.4831
1.55746
1.03386
0.723003
1.19793
47.3719
7.23787
0.815807
0.935455
9.46685
2.33194
2.52796
2.16261
4.26416
3.32095
3.23792
1.32812
0.878013
1.54883
5.66859
38.5739
2.03441
31.3869
0.584976
1.1744
2.47372
48.3545
0.764185
0.831618
0.935691
4.87164
3.23123
12.9008
3.62819
1.68867
1.64832
1.73876
29.881
3.90649
25.7701
2.41276
2.8221
16.9199
2.47601
7.20222
2.37234
0.756146
3.41325
1.22002
5.77685
0.954214
1.83546
4.28127
2.61161
2.14262
0.719463
1.26482
0.828961
3.25276
12.8189
20.6216
2.43521
2.9356
1.91888
0.751768
25.7115
3.58843
17.474
7.94573
1.71805
10.5053
0.698738
8.95811
9.2528
1.86737
4.65672
2.58238
2.34309
2.40359
2.71541
1.96049
39.5404
3.89385
7.93886
4.90483
22.2163
38.2517
1.4371
8.7564
3.50743
5.3673
1.26141
36.5522
4.8521
5.72608
2.1655
3.14553
107.568
5.14988
24.5647
2.25541
2.00563
7.18257
0.99934
5.11406
6.18765
27.4973
27.6923
2.01187
0.994814
1.9369
0.639245
1.09888
1.12882
1.05648
13.0557
1.09674
29.8261
19.009
1.32522
199.471
3.7748
4.71524
6.74352
1.45613
0.702519
49.9513
3.27252
1.89081
32.0923
33.4777
8.23044
1.13611
1.18231
0.799278
1.09896
0.697837
2.0732
10.3983
1.21447
1.95386
3.76248
1.69707
16.634
2.2949
0.782655
3.85646
3.18841
2.14811
2.2757
52.7647
7.68077
3.24526
2.0505
3.66422
3.47248
2.22739
44.2522
43.1297
1.43423
0.601284
0.884283
2.18844
26.5861
23.62
2.02129
1.97686
1.06618
19.3776
5.76822
1.73411
20.0953
12.881
1.18556
68.5352
0.971423
4.27895
0.841384
10.9554
3.0284
138.462
0.565415
1.94943
1.15535
73.0114
2.04191
0.83542
1.05542
36.0826
15.0202
3.54018
4.66079
2.32533
1.73554
36.0158
3.96513
4.99947
28.6265
83.327
31.4043
0.85437
0.863508
2.25488
1.41651
1.5958
9.31783
1.85362
3.68335
22.2714
1.58102
2.1491
1.01307
2.03352
3.87441
0.695433
5.61278
3.33697
4.19268
0.756528
29.8324
1.37144
13.5689
1.84143
1.11275
3.37432
12.4887
3.6565
1.58336
3.77904
33.9374
0.802706
0.577503
51.9495
2.60307
2.97315
1.18576
1.3532
4.69179
3.90268
2.90154
1.53509
1.17509
0.768408
4.13294
0.781277
3.37817
0.755905
0.688102
0.950989
3.07401
208.493
1.5241
1.05794
4.42185
1.64608
1.79381
0.701751
1.78189
0.660234
5.66053
0.765924
0.887654
1.79792
3.10552
0.952179
2.14035
1.35653
4.72342
1.09037
59.9743
14.3962
34.5225
2.89754
0.901985
1.10283
2.995
1.19311
2.52815
23.5609
1.50442
13.9621
116.641
10.342
2.28963
1.69805
0.541281
1.12887
0.88949
4.17159
0.956596
45.272
7.57135
1.37526
2.15895
5.94655
29.7836
0.706693
24.2406
14.1739
1.36174
1.1342
4.5062
1.24223
1.00263
0.590575
2.39554
1.20394
20.8115
1.85608
122.157
4.82518
12.4974
4.86443
3.79213
36.9729
1.24598
1.86257
3.80206
3.13736
1.86919
2.0826
0.9743
1.55483
2.11249
2.34712
0.79452
2.1005
2.19153
16.9692
2.41428
6.3444
1.24648
3.70585
8.55252
4.23177
4.38718
6.20224
3.50613
8.99776
1.66032
1.37283
10.0798
1.14826
1.3403
2.69226
2.79686
1.33058
0.74844
1.22773
0.896418
4.9143
0.732877
2.512
1.12014
87.5556
31.0539
36.7705
0.754634
39.8689
0.766989
46.4749
34.9477
27.7225
31.7654
4.77693
0.99975
1.57064
4.23483
2.98596
32.6997
0.578479
0.74449
0.608732
30.8116
37.6283
17.2114
2.92572
1.82757
15.8948
2.5655
0.868687
25.3155
0.713766
1.61067
6.20504
25.7436
3.72217
1.17525
0.762827
1.99847
0.767614
0.655153
1.03948
0.674163
1.82782
2.69406
1.16121
8.61647
1.9828
1.34782
29.9462
1.63783
34.7363
33.6068
9.31391
30.6422
1.83427
1.67235
2.1142
0.759723
1.68651
7.9126
1.72186
9.18279
1.53836
4.1153
1.05907
0.67938
3.23522
3.01674
1.8628
4.61079
5.25967
24.1425
1.99451
0.614434
0.744506
1.0478
0.731893
5.04497
0.613919
9.31626
2.92208
4.41754
2.68475
34.588
1.65048
75.2125
6.17355
13.8831
1.92642
1.16645
0.906048
0.981187
18.0951
3.29012
0.705494
3.28383
1.53769
13.211
3.64939
3.92731
1.13241
1.71112
4.02448
1.48059
1.88624
14.7419
27.4541
11.5797
0.690725
7.68122
0.652214
1.83129
0.77257
1.44703
0.708021
1.54218
7.24887
1.41218
1.39102
1.35537
23.7671
1.76247
0.729481
6.19009
25.4052
529.302
6.43922
34.6143
2.77027
5.64439
26.3651
0.618989
7.77143
2.1096
0.751619
0.78236
1.08843
3.2873
44.3624
1.65996
1.25458
1.84973
1.59084
1.7215
1.47035
3.28335
2.39632
388.756
13.3227
11.0467
0.614022
2.85525
3.16598
5.63748
0.858461
1.36443
3.0847
12.9891
5.65801
1.80736
3.83575
21.4745
1.12802
8.55525
2.0376
4.16692
3.62189
0.701911
0.714605
11.8895
122.319
2.72101
8.52329
0.78716
2.62731
6.70884
1.61316
0.603159
0.616762
5.26906
5.3172
14.5913
0.706481
1.82932
0.647789
0.621629
27.5904
0.807013
0.88695
22.8587
4.06524
2.73179
2.60185
1.13957
2.51504
0.760613
1.21812
34.3763
2.73107
39.1272
2.31103
3.74098
2.92439
0.87065
4.63823
27.3295
1.92415
1.65924
4.51908
0.615585
0.631957
0.895396
0.958625
1.38877
0.632702
1.30868
0.807661
4.27174
34.4136
7.09057
18.6934
2.32644
2.22467
1.32312
1.50478
1.72622
2.02464
0.997229
0.571086
1.3691
3.7513
0.609509
2.04794
3.81082
4.66444
0.788777
161.255
8.50632
5.88354
4.61745
0.721986
2.52707
1.16914
6.77476
2.04782
1.47829
3.16733
3.59356
0.983348
0.910032
3.74411
9.20229
0.859542
3.15423
0.578226
0.598772
1.04569
0.648109
0.652633
0.697381
4.04251
6.00809
3.56512
10.5719
7.37588
2.84726
12.4744
11.0127
0.696505
223.449
0.984937
1.4849
5.55134
5.27902
3.23365
3.61977
15.5541
1.5743
16.926
1.70301
5.78656
1.78047
17.8506
16.8213
1.76251
0.727842
6.51348
18.1172
3.90956
0.997366
0.820318
1.46491
2.04868
1.75576
1.09811
21.2528
78.3777
2.37018
4.87385
7.9285
1.52378
0.570734
0.996776
0.790995
7.11804
2.80616
5.67692
4.21069
3.10913
4.75253
1.67573
3.45849
7.86538
0.738508
0.662782
1.81401
0.682063
0.662721
0.929034
0.907701
15.7255
1.4543
4.95026
11.6128
4.43979
2.78221
4.12206
11.9589
0.59794
7.73795
6.43534
0.656957
44.6348
17.3702
1.97897
1.25307
45.343
0.80558
26.7761
2.06877
5.68464
0.606675
0.619979
0.817921
2.10202
3.00256
2.89106
0.826287
0.810596
2.1093
3.00512
0.570924
2.09909
0.550866
7.60424
1.17935
6.49228
2.47195
1.5625
5.57648
41.8388
112.225
3.56851
2.39382
1.96739
2.14099
1.82248
1.1779
1.96877
1.29499
0.859563
5.18463
0.58049
18.6177
25.5004
2.36336
0.848837
1.24424
1.07274
22.7838
43.0308
478.157
13.9071
0.895021
1.58697
0.889157
2.64667
1.28877
3.74178
7.37924
0.769709
5.72216
2.55224
1.41549
28.8422
0.863041
5.53974
0.720622
0.896983
5.63102
3.11986
1.32319
1.06185
1.48614
1.10004
5.20477
1.175
6.00778
5.74932
6.66461
0.722392
5.0794
18.8155
0.594444
2.39281