/*--------------------------------*- C++ -*----------------------------------*\
| =========                 |                                                 |
| \\      /  F ield         | OpenFOAM: The Open Source CFD Toolbox           |
|  \\    /   O peration     | Version:  v1912                                 |
|   \\  /    A nd           | Website:  www.openfoam.com                      |
|    \\/     M anipulation  |                                                 |
\*---------------------------------------------------------------------------*/
FoamFile
{
    version     2.0;
    format      ascii;
    class       volScalarField;
    location    "0.11";
    object      nut;
}
// * * * * * * * * * * * * * * * * * * * * * * * * * * * * * * * * * * * * * //

dimensions      [0 2 -1 0 0 0 0];


internalField   nonuniform List<scalar> 
5794
(
0.00123803
0.000802509
0.00338915
0.00104765
0.000936091
0.000765577
0.000638184
0.000558504
0.00117062
0.000920625
0.00068215
0.000954759
0.000719705
0.000958592
0.000816338
0.000853607
0.0036602
0.000788642
0.000633511
0.000700621
0.00172488
0.00113505
0.000767445
0.000790759
0.000627631
0.00252903
0.00350448
0.00134814
0.000869463
0.00110143
0.000787514
0.00122148
0.000728475
0.00112307
0.00113488
0.00098114
0.000782542
0.000809112
0.000667092
0.00180548
0.00103279
0.000872185
0.000900971
0.00066085
0.000771363
0.000619917
0.00093716
0.000642923
0.000878886
0.000849316
0.00033423
0.000589117
0.00121471
0.00121001
0.000158813
0.000815041
0.00085881
0.000711457
0.00098426
0.00306669
0.00151921
0.000524716
0.000870125
0.00190761
0.000862201
0.000830949
0.00194312
0.000623838
0.000825109
0.000573083
0.000784153
0.00176662
0.00290027
0.000740033
0.000768635
0.00116127
0.000247892
0.00238833
0.000729947
0.000178284
0.00123925
0.000781722
0.000920504
0.000732675
0.000834443
0.000320171
0.000474233
0.000316964
0.00116153
0.00103992
0.00120033
0.00106156
0.0006872
0.000742515
0.000756648
0.000987852
0.000960444
0.000692174
0.000990892
0.00168084
0.00153451
0.00093413
0.00100589
0.001156
0.000713745
0.000879328
0.000529963
0.000463849
0.00148061
0.000881706
0.000641994
0.000736906
0.00156996
0.000827791
0.000763863
0.00067806
0.00110268
0.000718082
0.00137933
0.00100494
0.000757203
0.000352963
0.000563447
0.00140191
0.00113787
0.00109175
0.000628503
0.000860707
0.000879547
0.00065287
0.00079537
0.000654737
0.000833375
0.00231921
0.000846728
0.000949881
0.0041197
0.000597075
0.000879143
0.000981806
0.00174277
0.00100112
0.00103248
0.00112885
0.00104426
0.00505795
0.000694285
0.00327563
0.00085567
0.000781147
0.000794229
0.00115192
0.000871667
0.00055848
0.00457514
0.000878804
0.000492578
0.000468019
0.000481308
0.000777187
0.00078355
0.000503498
0.000499059
0.000504971
0.000558968
0.000440672
0.000446162
0.000397382
0.000504862
0.000439326
0.000556188
0.000988218
0.000492731
0.000490124
0.000516418
0.000479497
0.000522766
0.000582318
0.000652704
0.000677388
0.000404161
0.000681118
0.000359516
0.00035712
0.00037982
0.00250847
0.000859884
0.000431151
0.000562704
0.000691276
0.000617564
0.000972913
0.000490437
0.000477083
0.000362294
0.000407169
0.000393401
0.00049195
0.000696602
0.00121922
0.000444507
0.000521152
0.000425885
0.000398408
0.000911327
0.000448983
0.00044427
0.000827489
0.000915382
0.00152164
0.00146367
0.000861736
0.000858852
0.000945828
0.000853905
0.000887931
0.000903877
0.00075711
0.000771409
0.00149048
0.000860979
0.000931666
0.000976679
0.00107618
0.00348413
0.00165579
0.0012143
0.00116815
0.000514091
0.00105213
0.000998874
0.000817971
0.000800839
0.00133913
0.000932402
0.0017205
0.0013077
0.00197882
0.000537928
0.00120583
0.000852406
0.000976349
0.00164649
0.0007212
0.000903721
0.000713253
0.000855536
0.000710519
0.000364119
0.000303347
0.000394126
0.00086714
0.00464274
0.000695113
0.000800074
0.0012403
0.00116005
0.00185339
0.000734357
0.00124165
0.00454529
0.000839843
0.000867407
0.000726911
0.000435501
0.000468989
0.000919976
0.00162693
0.00129122
0.000661505
0.000948594
0.000624577
0.000890433
0.000794652
0.000874542
0.000851486
0.00124058
0.00129745
0.00112567
0.000930336
0.00052778
0.000888816
0.000968967
0.000708472
0.000923416
0.00116721
0.00134825
0.000994996
0.000870491
0.000792337
0.00112853
0.00101783
0.00100641
0.00124813
0.000741496
0.00191959
0.00090494
0.000645456
0.000989873
0.000821126
0.000516258
0.00103712
0.000812342
0.00206667
0.000785779
0.00203296
0.00111555
0.000833288
0.000588012
0.000931821
0.000545411
0.000867979
0.00149121
0.000827693
0.000781736
0.000929958
0.000557998
0.00121295
0.00141603
0.000985761
0.0010075
0.00143342
0.000768958
0.000884996
0.000947366
0.000939414
0.000903599
0.000606537
0.000485771
0.000610267
0.000466729
0.000981503
0.000440421
0.000494311
0.000953693
0.000667829
0.000563732
0.000415172
0.000535535
0.000414508
0.000586861
0.000514776
0.001167
0.000445297
0.000619049
0.000350586
0.000349811
0.000593844
0.00055288
0.000747934
0.000607964
0.00137866
0.000385905
0.000773445
0.00037905
0.00166267
0.000544613
0.000544939
0.000574403
0.000451044
0.000758849
0.000990309
0.00383949
0.000707895
0.000764916
0.000598621
0.00044455
0.000363337
0.000732332
0.000344357
0.000968151
0.000528433
0.000762068
0.00107951
0.000783144
0.000982131
0.000860933
0.000719818
0.000767551
0.000814173
0.00135305
0.000946264
0.000748566
0.000820838
0.00108748
0.00116357
0.000809915
0.000957197
0.00086879
0.000487154
0.000408706
0.000721391
0.00056954
0.000762059
0.000541592
0.000474603
0.000511481
0.0015359
0.00136458
0.000757371
0.000792264
0.000634676
0.00226556
0.000384537
0.00054265
0.00178741
0.000989636
0.00100831
0.000630743
0.00080212
0.000763472
0.00112131
0.000962809
0.000645555
0.000366195
0.000770396
0.000329609
0.000965295
0.000776129
0.000838269
0.000925354
0.000659247
0.00067226
0.00101467
0.000494981
0.000553932
0.000600081
0.00082933
0.000729647
0.00124162
0.00114188
0.000779084
0.00113541
0.00227858
0.000734562
0.00094838
0.000562625
0.000414355
0.000625196
0.000893079
0.00102711
0.000804582
0.000456305
0.000481655
0.00100056
0.0007501
0.000777341
0.000831539
0.00109181
0.00256166
0.000594764
0.000672841
0.00238759
0.00118261
0.000903646
0.000611256
0.00108811
0.00172126
0.00103781
0.00104832
0.00109864
0.000620673
0.000867725
0.000872795
0.00186998
0.000675338
0.00197078
0.00136791
0.000940032
0.0012264
0.000195645
0.00111334
0.00103084
0.00092707
0.00112443
0.00102154
0.00234487
0.00118925
0.000960599
0.000606032
0.000993801
0.00108247
0.000657827
0.00070115
0.00063101
0.000821263
0.000864942
0.00072257
0.00191082
0.0012526
0.000656926
0.000904433
0.000805396
0.000743651
0.00100241
0.000926336
0.000795439
0.000938609
0.000625633
0.00183861
0.00102485
0.00195469
0.000723582
0.0010217
0.00154825
0.000555332
0.000937621
0.00255088
0.000930913
0.000817583
0.00110233
0.00109848
0.00129194
0.000689819
0.000830966
0.000890028
0.000676423
0.000691952
0.000803272
0.00226284
0.00097889
0.000692146
0.000989034
0.000762172
0.000806439
0.00077668
0.00117908
0.00103731
0.000639175
0.00110698
0.0011725
0.00030228
0.00193076
0.000950588
0.000729299
0.00104463
0.000782462
0.00399148
0.000703635
0.00440894
0.00112389
0.0026229
0.000711002
0.000897621
0.000895167
0.000952304
0.000751588
0.00111048
0.000711247
0.000892153
0.00131327
0.000887223
0.00052746
0.00107762
0.000796424
0.000906318
0.00107814
0.00110611
0.000612188
0.00124743
0.0048143
0.000650928
0.00157263
0.00121592
0.000927396
0.000697856
0.000950025
0.00282968
0.000585399
0.000803197
0.00209477
0.00123637
0.000511343
0.00056404
0.000842986
0.000856092
0.00113505
0.000810895
0.000660751
0.00104347
0.000835376
0.00137046
0.00136235
0.00171677
0.00141666
0.00239721
0.000832151
0.00087997
0.00147923
0.000981642
0.000811991
0.000823337
0.000800947
0.000908498
0.00119421
0.0014381
0.000725007
0.000830854
0.000706863
0.00138789
0.000684521
0.00236106
0.000940436
0.00090379
0.000765771
0.00100626
0.00229136
0.00059878
0.00018888
0.000797018
0.00168661
0.00151098
0.00125751
0.0013954
0.000519099
0.000608882
0.0018985
0.000347738
0.00106137
0.000738824
0.000322928
0.00113098
0.0010926
0.000675167
0.000421937
0.000786568
0.00106259
0.000932612
0.000805946
0.000712307
0.00138156
0.000782768
0.000325012
0.000993143
0.000794073
0.000703049
0.00258114
0.000809511
0.000529394
0.0013537
0.000833052
0.00125673
0.000784475
0.00151976
0.00415026
0.00101649
0.00099799
0.00101541
0.00108291
0.000667176
0.000541581
0.00112246
0.000977164
0.000611578
0.000531055
0.00231289
0.00250501
0.00104551
0.00122555
0.000899592
0.00106706
0.000559729
0.00107517
0.00105229
0.000600604
0.000995462
0.000912432
0.00120747
0.00133654
0.000896622
0.00217736
0.00140539
0.00214544
0.000819307
0.000710936
0.000917419
0.000930455
0.000868835
0.00129164
0.00112215
0.000793059
0.000825417
0.00110931
0.000860799
0.000716394
0.00383916
0.00114664
0.000936
0.00113913
0.000764465
0.00149642
0.000864121
0.0026419
0.00090541
0.00117873
0.00105905
0.00072506
0.000442575
0.00054051
0.000767398
0.000589409
0.000343022
0.000294199
0.0022348
0.00100137
0.00129123
0.000871742
0.000716356
0.00103091
0.00104245
0.00279178
0.00108759
0.00108774
0.00100415
0.000994776
0.000774928
0.000727785
0.00303883
0.00121208
0.00132342
0.00101164
0.00237588
0.00410689
0.000933742
0.00109444
0.00137015
0.0014813
0.000819771
0.00108991
0.000994658
0.000791464
0.00219122
0.000736644
0.00118231
0.00120187
0.002213
0.00229013
0.000885942
0.00106473
0.000696276
0.0011433
0.000428907
0.000512449
0.000667359
0.000369881
0.0010619
0.00156374
0.00106098
0.00136371
0.000802113
0.000678883
0.00102402
0.00108661
0.000646872
0.000920652
0.000846267
0.000750805
0.000761145
0.000778451
0.000862369
0.000784765
0.00170206
0.000866923
0.000992512
0.000958391
0.00126546
0.00155412
0.00108999
0.000977937
0.000838872
0.00140427
0.000912645
0.000870419
0.00101116
0.000917072
0.000759189
0.000771863
0.00119478
0.00117466
0.000971277
0.000792217
0.00271792
0.00095404
0.00108312
0.000626752
0.000885557
0.00161909
0.000809413
0.000887197
0.00136361
0.000912409
0.0013726
0.000786227
0.00160633
0.000879981
0.00172034
0.000684255
0.00325357
0.00122409
0.00236851
0.000863587
0.000615854
0.00129316
0.00112609
0.000713261
0.00122054
0.000793727
0.000748732
0.00271277
0.000890474
0.000958802
0.0014851
0.00133177
0.00161426
0.00140022
0.000893688
0.000985186
0.000965948
0.00117257
0.000605548
0.0010648
0.000916967
0.0028294
0.00220645
0.000709413
0.000769033
0.00119398
0.000940803
0.00108103
0.00151586
0.000904652
0.0010473
0.000768792
0.000934371
0.000766931
0.00095581
0.000907117
0.00352175
0.00048502
0.000462465
0.00054671
0.000682412
0.000917853
0.0011846
0.000877627
0.000732832
0.00192218
0.000708157
0.000839372
0.00181123
0.000934182
0.000935927
0.00105266
0.000914202
0.00174468
0.00114364
0.00222049
0.00251474
0.000832076
0.000671831
0.000738934
0.000883219
0.00139409
0.000707099
0.0012045
0.00122305
0.00289668
0.00102978
0.00103008
0.000916119
0.000942387
0.000772527
0.0016483
0.000975562
0.00304175
0.00116718
0.000938425
0.00233287
0.00122617
0.00074994
0.000386957
0.000957383
0.000620726
0.00115137
0.000841777
0.000946776
0.00127071
0.00143196
0.0010612
0.000798542
0.00118786
0.00306029
0.000969897
0.000949582
0.00188407
0.00148751
0.000919536
0.00137656
0.00076667
0.000893047
0.00084183
0.00106601
0.000727746
0.000993446
0.00120993
0.000452389
0.00078845
0.000851668
0.00206146
0.001626
0.000797544
0.000840177
0.000850327
0.000882582
0.00241425
0.000872193
0.000623712
0.000781357
0.000863308
0.0023855
0.00102093
0.00240522
0.000828816
0.000510692
0.000534904
0.000643937
0.000498225
0.000575145
0.000400722
0.000607113
0.000600571
0.00071899
0.000449215
0.000353722
0.000667547
0.00146616
0.000892368
0.000769314
0.000922031
0.000648953
0.000962986
0.00120464
0.000624998
0.00102382
0.000814462
0.000832738
0.00118149
0.000806605
0.00296486
0.000783249
0.000758907
0.00207181
0.000651011
0.00119938
0.0015085
0.00156964
0.000834282
0.000984555
0.000882099
0.00107266
0.00114596
0.000949688
0.000864688
0.000293987
0.000308625
0.000833026
0.000707453
0.00112322
0.000905979
0.000807817
0.000683818
0.000762633
0.000787942
0.000851887
0.00077628
0.00109128
0.000846883
0.00291387
0.000831621
0.000708143
0.000662783
0.0010255
0.000867181
0.000304129
0.000747912
0.00338652
0.000508702
0.00228833
0.000942991
0.000818946
0.000833506
0.00126273
0.000955128
0.000830174
0.0024736
0.000777269
0.00127384
0.00128275
0.00083585
0.000825047
0.000875931
0.00126866
0.00187291
0.00196358
0.000700614
0.000635266
0.000792988
0.00120977
0.000857449
0.000865338
0.000961359
0.00111222
0.000997627
0.000582069
0.000630848
0.000279642
0.0011672
0.000550793
0.000553304
0.00036959
0.00374444
0.000483538
0.00116527
0.000664106
0.00127723
0.000744574
0.00132014
0.000796221
0.00116645
0.000788436
0.000778702
0.000732795
0.000371008
0.000799539
0.00136481
0.00090863
0.00134218
0.000930458
0.000608589
0.000826399
0.00209277
0.000829182
0.000971797
0.000981942
0.00193736
0.000614091
0.000843812
0.000884534
0.000588608
0.000841885
0.000710708
0.00056766
0.00109881
0.00100513
0.000743312
0.000897345
0.00155134
0.00083409
0.00171123
0.00119639
0.00096979
0.000616448
0.0010589
0.000967451
0.000823635
0.000829813
0.000815903
0.000984886
0.000837904
0.000854889
0.000723782
0.00125777
0.00135759
0.000787868
0.000943534
0.0010936
0.00101995
0.00069038
0.00160952
0.000885813
0.000941465
0.000790436
0.00104523
0.000983673
0.000320212
0.000970245
0.0011505
0.00107746
0.00113852
0.00199006
0.00163384
0.000289974
0.00110917
0.000617125
0.000350376
0.00183409
0.000460958
0.00115347
0.00112374
0.000289141
0.0010943
0.000288659
0.000287563
0.000933466
0.000584508
0.000981166
0.00137225
0.000914725
0.000814834
0.000640001
0.00112726
0.00108008
0.000963077
0.00072801
0.000787087
0.00083411
0.000900929
0.000929679
0.00105426
0.000731712
0.000830806
0.00170801
0.00127336
0.000749201
0.000909649
0.00132427
0.00078181
0.000833295
0.000731934
0.00135726
0.00111264
0.00205983
0.00196682
0.00167242
0.000753837
0.000735821
0.00110718
0.000880677
0.000891384
0.00084561
0.00735324
0.00108045
0.000816573
0.000918639
0.000971023
0.000963498
0.00076006
0.000727148
0.00111494
0.000587272
0.00195036
0.000661257
0.00133193
0.00096902
0.00114556
0.000857008
0.00208033
0.00102315
0.000874312
0.00213829
0.00186934
0.00107486
0.00105268
0.000663252
0.00140641
0.00116752
0.00170312
0.000489794
0.000484975
0.00072885
0.00117825
0.000832339
0.000776016
0.000875978
0.000713176
0.000924833
0.00273769
0.00114932
0.000862286
0.000735435
0.000776914
0.00139172
0.00117117
0.00108506
0.00143425
0.00040656
0.00069399
0.000734924
0.0019925
0.00120795
0.000768799
0.000367201
0.000265354
0.000844147
0.00216172
0.000846507
0.000783324
0.000630976
0.00693157
0.000792002
0.000998877
0.00173049
0.000993844
0.000925907
0.00123513
0.00101532
0.00100601
0.000618547
0.000861024
0.000464318
0.000622168
0.000615575
0.00111211
0.000847887
0.000818148
0.000776106
0.00102565
0.000797556
0.00218359
0.000828193
0.000291804
0.000785423
0.00086322
0.00189285
0.000857529
0.00021226
0.00114567
0.00111932
0.00091356
0.000287911
0.0013418
0.000698946
0.00113377
0.00143558
0.00134465
0.000845304
0.000588436
0.000810818
0.0015364
0.00105007
0.000743713
0.000877547
0.000853114
0.00165198
0.000836048
0.000387318
0.000795808
0.000783014
0.00321702
0.000995907
0.000370607
0.00111999
0.000705068
0.000490976
0.000848578
0.00241454
0.00133376
0.000849849
0.00084022
0.00128324
0.000846248
0.00188688
0.00223146
0.00132063
0.000794296
0.000763719
0.00107111
0.000827118
0.000923465
0.00165829
0.000871672
0.00119686
0.000915571
0.00127464
0.00228112
0.00211352
0.00110114
0.00104134
0.00189467
0.000918307
0.00111896
0.00168272
0.000853808
0.00233159
0.00187077
0.000821509
0.0011698
0.001286
0.00100905
0.000393682
0.000805634
0.00119235
0.000772657
0.00121663
0.00328487
0.000830928
0.00108194
0.00116073
0.00105125
0.000475152
0.00158113
0.00106982
0.00130732
0.00298843
0.000860895
0.000843487
0.000760391
0.00136984
0.000887638
0.00185081
0.000823622
0.00158567
0.00104665
0.000857076
0.000539218
0.00193749
0.0019018
0.00109809
0.00205425
0.00296938
0.000784782
0.00019422
0.000874926
0.000900096
0.00205514
0.000735113
0.00150048
0.0008652
0.00197007
0.000913601
0.000406767
0.000588723
0.000563435
0.000499018
0.000579404
0.000904647
0.000890397
0.00104957
0.000795104
0.001205
0.000806797
0.00107583
0.000862961
0.00106392
0.00120742
0.000766308
0.0012442
0.0011933
0.0008113
0.000828296
0.000628899
0.00120207
0.000657085
0.000822134
0.00112204
0.00144166
0.000775512
0.000851883
0.00154184
0.000847903
0.000754362
0.000932398
0.000934932
0.00131061
0.00104151
0.000344319
0.000421673
0.000733371
0.00560921
0.000825801
0.000659517
0.00137351
0.000630678
0.00229875
0.00118237
0.000366362
0.000318087
0.00031322
0.000318029
0.000291601
0.000527962
0.000260912
0.000322151
0.000368545
0.000324736
0.000367192
0.000354335
0.000619321
0.000259421
0.000271236
0.000311164
0.000817533
0.00030313
0.000475606
0.000700117
0.000335183
0.000369963
0.000309892
0.000221804
0.000403653
0.000434963
0.000729217
0.000294726
0.000330664
0.000335816
0.000718755
0.000387395
0.000346641
0.000326112
0.000326012
0.000380562
0.000287503
0.00033385
0.000384886
0.000341916
0.000295227
0.000300582
0.000522519
0.000495565
0.00118697
0.000905419
0.00165351
0.00081028
0.00111057
0.00145439
0.00117598
0.00114627
0.00102646
0.000854426
0.000929675
0.00103002
0.00307173
0.000770535
0.00550283
0.00156395
0.00137861
0.00272685
0.00102486
0.00102624
0.000900179
0.00118543
0.000560929
0.000835639
0.000935746
0.00314013
0.00176663
0.00111898
0.000942296
0.000505438
0.00114891
0.0015261
0.00126961
0.00630907
0.00094926
0.000895227
0.00080952
0.00100995
0.00108257
0.00278813
0.00266224
0.000971052
0.00117436
0.000658305
0.00302997
0.000739798
0.000754443
0.000842104
0.000848861
0.0076019
0.000927899
0.000404784
0.000541105
0.00086347
0.00136722
0.000413095
0.00172706
0.00085704
0.000391984
0.000282142
0.000272449
0.00035132
0.000394936
0.000332885
0.000321804
0.000367894
0.000358325
0.000330592
0.000660205
0.000443574
0.000299239
0.000514845
0.000319736
0.000657636
0.00033851
0.000281118
0.000310096
0.000293207
0.000316
0.000400331
0.000316481
0.00142233
0.00148045
0.000193883
0.00152482
0.0010522
0.000848695
0.00107821
0.000798622
0.00214955
0.0010015
0.00091917
0.00162467
0.00149733
0.0011949
0.000286067
0.00152834
0.00246687
0.000987116
0.00202722
0.00122582
0.00146342
0.00077473
0.00103611
0.00100972
0.00111124
0.000999217
0.000962481
0.000942528
0.00100591
0.000656959
0.000795335
0.000728675
0.00100729
0.000939076
0.00169433
0.00097307
0.00148551
0.000448974
0.00190744
0.000976907
0.000865123
0.00095925
0.000778428
0.000700361
0.00106093
0.000911924
0.000965539
0.00122768
0.000834577
0.000753482
0.000606192
0.00088409
0.00190488
0.00187261
0.000199357
0.000768612
0.00108897
0.000775252
0.0016495
0.000503571
0.000858857
0.000840275
0.00295997
0.00107779
0.000832562
0.000934441
0.000745185
0.00104433
0.00294435
0.000795782
0.000928899
0.000417205
0.000258495
0.000409301
0.00193032
0.00110753
0.000755595
0.000793732
0.00131575
0.000766204
0.00110557
0.00176999
0.00116424
0.0011333
0.00146162
0.000961813
0.00114454
0.000867387
0.00187402
0.00108993
0.000865284
0.000887883
0.00074305
0.000760507
0.00138815
0.000365239
0.000863916
0.000855292
0.000926062
0.00289042
0.00099781
0.00117089
0.000987257
0.0011162
0.00083212
0.00130465
0.000905139
0.00118639
0.00121553
0.000522709
0.000876966
0.00147144
0.00148317
0.00122121
0.00164411
0.00113468
0.000845113
0.000857402
0.00189191
0.00160508
0.00254725
0.000897061
0.00110867
0.000901176
0.00105086
0.000962072
0.000965959
0.00121418
0.000815641
0.000964489
0.00135045
0.00253079
0.00304427
0.00113923
0.000785826
0.000850597
0.000838332
0.001281
0.00110305
0.000913962
0.000855369
0.00242838
0.000986551
0.000975435
0.000999915
0.00100915
0.000949207
0.000969286
0.000955505
0.00101053
0.000942974
0.000940687
0.000950311
0.000979096
0.00096224
0.000989084
0.000930891
0.000960675
0.000939638
0.000843082
0.000859596
0.000963483
0.00218517
0.000860371
0.000912217
0.000893808
0.000873742
0.000273433
0.000409621
0.00124428
0.00127133
0.000907014
0.00107812
0.000918909
0.0011145
0.00127972
0.00129989
0.00165076
0.000837716
0.000910031
0.000882309
0.00233934
0.00139403
0.00359219
0.000817365
0.00223846
0.00308808
0.00093079
0.00374014
0.00115151
0.00138706
0.00115542
0.00068676
0.000945722
0.000381926
0.00216043
0.000981498
0.000930883
0.000925644
0.000910006
0.00115926
0.00127895
0.000820063
0.000886318
0.00139334
0.00104321
0.00122188
0.00100345
0.00089273
0.0012375
0.000979526
0.00110538
0.000983115
0.00110145
0.00108387
0.00109906
0.000986238
0.00130399
0.000707347
0.00102332
0.00107161
0.00106423
0.00121861
0.0010925
0.000989956
0.00102356
0.00164479
0.00100018
0.00405668
0.0010134
0.000980546
0.000863872
0.000792493
0.00163636
0.000945104
0.00102442
0.00103537
0.000930665
0.000846193
0.00383717
0.00128192
0.00112901
0.00119436
0.000830745
0.000954218
0.000862532
0.000978072
0.00108997
0.000933101
0.00366116
0.000919624
0.00104505
0.0010593
0.00138718
0.00350024
0.00105441
0.000907772
0.00135991
0.00307144
0.00098259
0.00110682
0.00105684
0.000857882
0.000866445
0.00155773
0.00121403
0.00227215
0.00216332
0.00311376
0.00161185
0.000945703
0.000633277
0.0023252
0.00107828
0.000883434
0.000841
0.00092921
0.00221969
0.000859118
0.000833444
0.000744976
0.00314158
0.00240017
0.000898835
0.00237346
0.000919287
0.00124503
0.000568742
0.00372572
0.000884647
0.00106362
0.000952877
0.000969808
0.00107623
0.00103973
0.000925392
0.000625118
0.00250477
0.00274923
0.00130008
0.00103254
0.00111872
0.00101282
0.000522037
0.00201556
0.000838399
0.000862741
0.00177214
0.000867834
0.00139819
0.00103659
0.00093028
0.00190108
0.00120818
0.00107305
0.00336189
0.000973228
0.000915903
0.000907966
0.00123945
0.00199613
0.000902097
0.00228454
0.000971655
0.000889601
0.000929311
0.000940341
0.00210879
0.00150204
0.000370083
0.000928155
0.00101949
0.00125415
0.00091424
0.00095294
0.00191851
0.00125812
0.000402783
0.00214508
0.00104088
0.00104864
0.000912591
0.000919451
0.00114667
0.00134078
0.00160984
0.000795522
0.000986588
0.00139851
0.000424866
0.00120747
0.000837229
0.00107065
0.000851148
0.0020629
0.000876822
0.000289358
0.00149738
0.000860064
0.000869558
0.000802057
0.000797074
0.00124121
0.00127949
0.001043
0.00083012
0.00134408
0.000913136
0.000855593
0.00104764
0.000558082
0.000951085
0.000914606
0.000981849
0.000345529
0.000797829
0.000295314
0.00237529
0.00306985
0.000809459
0.000832022
0.00105172
0.000873018
0.00167997
0.000852423
0.000849124
0.000819077
0.00103045
0.000853501
0.000862026
0.000890959
0.00138413
0.000860747
0.000861264
0.000880001
0.0013115
0.000880939
0.000824073
0.00122394
0.00117754
0.000857326
0.000622429
0.00240661
0.00164611
0.00081864
0.000993892
0.00140523
0.000429661
0.000891935
0.000848056
0.00143289
0.0010114
0.000929694
0.000916941
0.00129229
0.000842838
0.000860466
0.000916308
0.000506124
0.000405465
0.000826431
0.00178313
0.000870708
0.00231085
0.0021574
0.000874531
0.00101665
0.000837536
0.000933496
0.00136765
0.000858803
0.000855045
0.000874637
0.000900156
0.000980732
0.000896402
0.000886788
0.00163638
0.0009498
0.000981652
0.00109025
0.00117876
0.000904189
0.00038438
0.00109592
0.00115691
0.00106913
0.00153769
0.00166557
0.00106916
0.000831016
0.000996148
0.00167632
0.00153566
0.00100297
0.000919451
0.00130535
0.000880009
0.000887409
0.00182788
0.000893593
0.000949843
0.000824853
0.00200588
0.00180696
0.00165867
0.0011617
0.000916462
0.000829292
0.00205156
0.000854974
0.00214923
0.000886101
0.00108853
0.0013789
0.000799309
0.00163095
0.00142317
0.000531573
0.000741585
0.000871681
0.000800052
0.00101528
0.00177831
0.000723335
0.00137294
0.000883553
0.000863372
0.00156085
0.000998777
0.00112267
0.00174055
0.00118509
0.0011582
0.00064792
0.000454807
0.000491383
0.000999302
0.00143955
0.000876494
0.000880384
0.000830312
0.000718964
0.00103817
0.000442648
0.00144047
0.00139184
0.00126622
0.000985946
0.00207828
0.00133977
0.000998306
0.00072772
0.000853403
0.00221574
0.000925179
0.000961705
0.00112376
0.001218
0.00141302
0.000818733
0.00324831
0.00133141
0.000658667
0.000758999
0.000919338
0.00085002
0.000409024
0.000837148
0.00113206
0.000909171
0.00111443
0.000904595
0.00107843
0.00139145
0.00334109
0.000694157
0.000987674
0.00110915
0.000960739
0.000926392
0.000977906
0.000905417
0.000950389
0.001222
0.0011239
0.000932369
0.0013915
0.0010485
0.00093623
0.000907314
0.000930647
0.00116859
0.00220748
0.00280519
0.00313733
0.00363841
0.000981533
0.00138342
0.000926332
0.000908593
0.000952431
0.00099882
0.000944025
0.00207563
0.000889795
0.00103774
0.000947663
0.000900071
0.00162131
0.00125968
0.00155121
0.000629181
0.000568987
0.000580573
0.000470243
0.00346048
0.000733241
0.00114274
0.00279011
0.0007917
0.000760609
0.00169038
0.0013602
0.001172
0.00136246
0.000837148
0.00174722
0.00142122
0.00109817
0.0010037
0.00114261
0.00177839
0.00151714
0.000348381
0.000863476
0.00380745
0.0037043
0.000987894
0.00363064
0.000859841
0.000846151
0.000960442
0.000917679
0.00223211
0.0014255
0.000928501
0.000560812
0.00102952
0.000959852
0.00239906
0.00123689
0.00063889
0.00101661
0.00114411
0.001263
0.000930509
0.0010889
0.00123066
0.00165113
0.00363787
0.00127629
0.00148887
0.00282679
0.00082905
0.00158056
0.000976259
0.000718272
0.00367144
0.00128421
0.0036515
0.00153729
0.000998582
0.00179183
0.000926244
0.00188954
0.00210461
0.0020504
0.00110276
0.000773746
0.000883838
0.00294259
0.00203031
0.00119472
0.00100755
0.000934729
0.000488966
0.00144797
0.00163808
0.0027231
0.00141073
0.00140869
0.00193224
0.000965388
0.00087092
0.0030149
0.000829102
0.000303862
0.000308829
0.00142067
0.000871886
0.00170353
0.00249556
0.00123177
0.00142537
0.000793489
0.000999166
0.000914897
0.000819229
0.00118985
0.000940099
0.00171846
0.00153411
0.000891211
0.000896339
0.00116383
0.000561048
0.00125128
0.00342637
0.000709369
0.00142045
0.00227367
0.000785605
0.00121731
0.00110431
0.000907395
0.00128939
0.000547309
0.00110451
0.00199178
0.0010655
0.00110479
0.00098346
0.000956407
0.00147386
0.00123039
0.000405978
0.00172949
0.00193004
0.00146375
0.000786165
0.00128209
0.00275031
0.00109806
0.00190467
0.000734692
0.00304573
0.00133009
0.001786
0.000740213
0.000927121
0.000933313
0.000930079
0.00117459
0.00127298
0.00102203
0.00142265
0.00128489
0.00106581
0.000742225
0.00123035
0.00137
0.00129295
0.0020014
0.00356284
0.000926909
0.000838407
0.000832272
0.000552213
0.00182296
0.00149692
0.0017415
0.00370482
0.000914675
0.00143341
0.00125459
0.000980362
0.000988029
0.00071705
0.00114516
0.000798472
0.000702851
0.0022119
0.00100446
0.00094652
0.000960168
0.000906173
0.00098722
0.00107404
0.00221276
0.00115936
0.000851454
0.00122643
0.00136977
0.00204636
0.000929333
0.0049989
0.000707795
0.00110963
0.00060696
0.00158638
0.000632521
0.000822846
0.00233458
0.00307578
0.0009381
0.0015594
0.000708616
0.000408254
0.0015386
0.000851868
0.00184431
0.000727895
0.000792154
0.000950123
0.0019557
0.000860863
0.00179523
0.0016942
0.00122638
0.00109199
0.00156871
0.000461246
0.00134809
0.00113998
0.000911919
0.0012641
0.000858077
0.00101008
0.00175278
0.00134469
0.000883254
0.00247996
0.000814381
0.0012753
0.002536
0.000933397
0.000892481
0.00361133
0.000611898
0.000856769
0.00196836
0.00105177
0.000940262
0.000893007
0.000979425
0.000882319
0.000840565
0.000345902
0.000998368
0.00145899
0.000795861
0.000861311
0.00238601
0.00112559
0.00101407
0.00106675
0.000949857
0.00090331
0.00281122
0.000986538
0.00118973
0.00167579
0.00308317
0.00141847
0.00280163
0.00052616
0.000879559
0.000929621
0.00094024
0.000513895
0.000748727
0.000929128
0.00113632
0.00103686
0.00122886
0.000802145
0.000920971
0.000859214
0.00100887
0.00101614
0.000661011
0.000864145
0.00101366
0.00131512
0.000848221
0.000736713
0.000728557
0.00335962
0.00100121
0.000931991
0.00163264
0.00142667
0.000865091
0.000891367
0.000820813
0.00109691
0.00110311
0.00116248
0.00321478
0.000706998
0.000641681
0.00079084
0.000739951
0.000493165
0.000427664
0.00148098
0.0014012
0.00157242
0.002883
0.00293009
0.00150443
0.000931358
0.00122608
0.000980012
0.00100121
0.00087947
0.00149438
0.00120305
0.0010024
0.000949668
0.000346028
0.00149894
0.000959166
0.000919702
0.000888639
0.000986272
0.00261356
0.00108321
0.000973765
0.00128299
0.0023226
0.000891943
0.00187232
0.000465304
0.000944579
0.00143294
0.000934027
0.00100786
0.00118899
0.000878336
0.000875259
0.00160436
0.000887496
0.000902227
0.00162589
0.00110766
0.00168226
0.00178684
0.00101108
0.00158698
0.000959204
0.001061
0.00100883
0.000905864
0.00182797
0.000836157
0.000860732
0.0013014
0.000920517
0.00205401
0.000923996
0.000898658
0.00177238
0.000860256
0.000829235
0.00092294
0.00141731
0.000919748
0.000902059
0.0019722
0.000824268
0.00121139
0.00236065
0.000643042
0.000961766
0.00143031
0.0015385
0.000917545
0.00116912
0.00108329
0.000716289
0.000832854
0.00137467
0.00258961
0.000686712
0.00145914
0.000875904
0.000795543
0.000495142
0.00196815
0.00189308
0.00145487
0.00108835
0.000862797
0.000881272
0.000731358
0.00124839
0.000527339
0.00242244
0.00140198
0.000960519
0.00105731
0.00147885
0.00108725
0.000809514
0.000921272
0.000808033
0.00175633
0.00346249
0.00125061
0.000851426
0.00138538
0.0017171
0.000475536
0.000975642
0.000843054
0.000950893
0.000840768
0.00143224
0.00101866
0.000905581
0.000904357
0.00156023
0.000880638
0.000860726
0.000931868
0.00105356
0.00082734
0.000855364
0.000943205
0.0022563
0.000803201
0.000907474
0.00109561
0.000907969
0.000684853
0.000837902
0.00172512
0.000917859
0.00103334
0.000469823
0.000595819
0.000955476
0.00152629
0.000942389
0.00106288
0.000840343
0.00312792
0.000825809
0.00093712
0.00080412
0.00207921
0.00144206
0.00201178
0.000977528
0.00155481
0.000963673
0.000902018
0.000691394
0.000858384
0.000933211
0.000516766
0.000916869
0.00125613
0.000511233
0.00116058
0.000776446
0.00094425
0.00118687
0.00174819
0.00154065
0.00133964
0.00185037
0.000987168
0.000976455
0.00276247
0.000896118
0.00105916
0.00131301
0.000831336