/*--------------------------------*- C++ -*----------------------------------*\
| =========                 |                                                 |
| \\      /  F ield         | OpenFOAM: The Open Source CFD Toolbox           |
|  \\    /   O peration     | Version:  v1912                                 |
|   \\  /    A nd           | Website:  www.openfoam.com                      |
|    \\/     M anipulation  |                                                 |
\*---------------------------------------------------------------------------*/
FoamFile
{
    version     2.0;
    format      ascii;
    class       volVectorField;
    location    "0.11";
    object      U;
}
// * * * * * * * * * * * * * * * * * * * * * * * * * * * * * * * * * * * * * //

dimensions      [0 1 -1 0 0 0 0];


internalField   nonuniform List<vector> 
5794
(
(-0.234838 1.64805 -2.56985e-17)
(0.14469 2.54978 0)
(1.85775 -2.00503 -8.52266e-17)
(0.409908 1.20314 1.57809e-16)
(3.36396 0.827613 3.31505e-17)
(0.109837 2.73194 -1.04323e-16)
(-1.70259 -0.146118 -2.23241e-16)
(0.179305 0.0337647 0)
(1.68803 -0.0418762 1.62728e-16)
(1.1298 -0.176866 2.04579e-16)
(1.58759 0.0599175 1.77385e-18)
(-0.805339 -0.268067 0)
(-0.467704 -0.117536 7.27641e-16)
(1.35458 4.14469 2.53933e-16)
(3.12229 -0.411159 3.7715e-16)
(0.503963 -0.582229 -1.61166e-16)
(1.0306 0.325355 5.96073e-17)
(0.545539 3.48976 2.01671e-16)
(2.46486 -0.214418 3.82666e-16)
(-0.0365246 2.04025 1.33072e-16)
(-2.73552 1.45298 -4.18806e-17)
(-0.0851888 1.88047 -1.28514e-16)
(-0.52049 -0.460549 4.09206e-16)
(2.25596 -0.222103 -5.10171e-16)
(1.83915 -0.263524 -4.48212e-16)
(2.61984 10.3788 2.00557e-17)
(6.52551 0.0551575 0)
(0.43572 1.87251 -2.07366e-16)
(0.109224 2.68047 -7.27091e-17)
(-0.586711 0.0414359 2.81358e-16)
(-0.110189 -0.086864 -7.62043e-16)
(-2.03589 0.109748 -5.02338e-16)
(-0.374444 -0.0823429 -1.13453e-15)
(-0.282179 -0.618489 4.46543e-16)
(-0.658226 -0.571354 -2.34253e-16)
(-1.64202 -0.410432 1.99725e-16)
(9.82582 0.877518 -1.99983e-16)
(1.78211 -0.461675 0)
(0.120003 -0.170699 2.11714e-16)
(-2.34985 2.42058 0)
(0.669774 2.69404 -1.19457e-16)
(0.380792 2.98914 1.29801e-16)
(8.16959 0.0196235 -1.22841e-18)
(0.537742 -0.443399 0)
(2.63387 -0.390555 -3.50578e-16)
(-0.0579527 0.00187984 2.41739e-16)
(4.55454 -0.475278 -2.35878e-16)
(0.0505467 -0.0208931 0)
(0.910474 0.0542065 7.35778e-16)
(1.23317 -0.210479 7.0071e-17)
(0.0134747 0.0204321 -1.92284e-16)
(-0.758985 -0.0888005 -3.41876e-16)
(0.111362 0.323109 0)
(2.94347 1.65118 1.19685e-16)
(0.00803312 0.0139452 1.12925e-17)
(0.012581 0.0559953 0)
(4.66554 -0.106324 -1.95132e-16)
(-0.134358 -0.129397 2.16446e-16)
(9.95145 -0.279352 0)
(3.97234 9.80903 -7.14123e-19)
(7.99399 0.761563 1.89563e-18)
(0.660118 1.01815 -1.2864e-16)
(-0.00509676 -0.136317 -2.04523e-16)
(-0.606008 -0.285651 2.36596e-16)
(-0.243293 -0.152808 0)
(0.759224 -0.0287482 -2.8623e-18)
(-1.38386 6.78128 -1.15761e-16)
(0.114218 2.01564 0)
(0.569884 2.92999 -2.14013e-16)
(-0.0376538 1.17628 -5.21029e-21)
(-0.575944 -0.153734 2.75413e-16)
(-1.96147 8.36224 -1.48254e-16)
(12.669 2.06196 -3.61123e-18)
(-1.02195 -0.566923 0)
(0.536385 3.38414 1.98708e-16)
(0.306571 0.526498 -1.90816e-19)
(-0.443774 -0.298594 1.55351e-16)
(1.48706 10.1427 -2.05678e-17)
(0.358257 -0.692732 5.18591e-17)
(0.463689 -0.0131046 7.50056e-17)
(0.0435816 1.64591 -1.67438e-17)
(0.0525023 2.41223 -1.25154e-16)
(0.520538 3.10808 7.55629e-19)
(-0.0621109 -0.143674 -1.3968e-16)
(1.13986 -0.718904 -4.23359e-16)
(-0.0604839 2.66099 -6.21557e-17)
(0.289237 5.14498 3.43456e-17)
(-0.01424 2.36481 -3.40997e-17)
(1.98275 0.78135 -1.58623e-16)
(0.487718 -0.640787 -4.80602e-17)
(0.293592 3.94049 -1.024e-16)
(0.127878 4.47922 -1.11457e-16)
(0.0445773 3.17765 2.34499e-16)
(0.0583883 3.53043 1.06663e-16)
(-0.030484 3.38897 5.23057e-17)
(-0.0293301 -0.280565 8.66782e-18)
(-0.149611 4.11052 -7.03002e-17)
(0.0634578 3.13527 -2.52673e-17)
(-0.00752669 4.57491 0)
(7.46658 0.789028 -3.10486e-17)
(1.73639 3.28896 -1.09084e-16)
(-1.14061 0.255997 -4.17753e-16)
(9.20846 -0.145544 5.92266e-17)
(1.46229 3.59694 -3.76357e-16)
(2.28335 0.271913 0)
(0.159994 3.05194 0)
(-0.0417066 1.44326 0)
(1.17317 0.215133 -2.63676e-16)
(-0.881081 -1.01731 -1.56928e-16)
(0.118353 -0.799876 -1.4792e-16)
(0.293103 -0.0406235 -2.84143e-19)
(0.762325 -0.140976 0)
(-1.3105 4.70641 9.95216e-17)
(0.58821 -0.0273891 1.6085e-16)
(0.111581 3.31133 0)
(-0.131176 3.5541 0)
(2.84742 0.412024 -2.59618e-16)
(0.158715 3.18002 5.9801e-20)
(8.45513 0.712379 -9.06306e-21)
(10.8185 0.650421 5.40883e-18)
(0.0985936 3.16379 2.006e-16)
(3.03536 -0.0240599 0)
(-0.653063 0.0478431 0)
(0.246345 1.34702 -2.81465e-16)
(1.40704 -0.452952 2.01764e-16)
(4.69886 1.71625 5.23292e-17)
(1.78741 4.67564 0)
(-0.012055 2.45673 6.39918e-17)
(-1.15274 -0.311802 2.37562e-16)
(1.51004 -0.0970041 1.62389e-16)
(-0.0766154 -0.163535 4.00739e-16)
(-0.219712 -0.0581032 2.64735e-16)
(1.92462 2.18766 1.97535e-17)
(1.12143 9.71274 -6.38507e-17)
(0.0481537 3.02284 2.55403e-16)
(2.92335 -0.45557 0)
(1.96772 -0.164112 9.45286e-17)
(0.723033 0.84942 -1.85809e-16)
(0.0845925 -0.0971131 2.17659e-16)
(0.492228 -0.326865 0)
(-1.84922 -0.0131801 -4.7311e-16)
(1.68755 1.48146 0)
(1.48749 -0.294165 0)
(1.26891 1.22389 4.47559e-16)
(0.0597274 -0.0793934 2.42338e-16)
(1.11786 0.197173 1.85645e-17)
(-0.486236 0.444828 2.94772e-16)
(4.87092 0.331754 2.533e-16)
(3.48765 0.53217 -2.1121e-18)
(1.14045 0.379298 5.14366e-16)
(8.05887 -0.228667 -1.41535e-16)
(2.44353 0.453352 2.57072e-16)
(0.125137 3.03311 0)
(-0.862903 0.156914 2.17272e-16)
(3.9758 -0.118339 0)
(5.11309 0.0943285 0)
(-0.00238463 -0.096378 -3.56076e-16)
(0.298681 -0.0321459 4.82512e-16)
(0.260817 -0.0172711 -3.96577e-16)
(1.11616 -0.400701 -1.48935e-16)
(-0.558334 -0.466267 4.02363e-16)
(-0.276064 0.0287019 -4.47699e-16)
(-0.293375 -0.0264092 0)
(-1.40308 0.0761158 -1.50679e-16)
(-0.42841 -0.121504 -4.3498e-16)
(0.147243 -0.148259 2.28185e-16)
(-1.14034 -0.227186 1.39764e-18)
(-0.0612648 -0.0469584 -4.91721e-18)
(0.221455 -0.0754591 0)
(0.283996 -0.0959564 1.00658e-18)
(-1.56266 0.0875935 0)
(-1.54679 0.0142987 -1.29607e-16)
(-1.91662 -0.290926 0)
(-1.07353 -0.171395 1.0816e-16)
(-1.22945 -0.196664 4.26714e-16)
(-1.12306 -0.0620832 0)
(2.31725 -0.0596721 -1.99248e-16)
(0.739115 -0.243224 -2.82568e-16)
(1.39368 -0.217743 -8.77131e-17)
(-0.258457 -0.280827 1.15052e-17)
(0.0715889 -0.0231557 -6.62721e-18)
(-1.00613 -0.283836 0)
(0.0911938 -0.0227495 0)
(-0.174367 -0.0372398 1.4502e-16)
(-0.0798177 -0.0349518 0)
(-1.1282 -0.425313 6.60355e-17)
(-1.50535 0.146392 -1.45332e-16)
(-0.708076 -0.103723 -1.04143e-16)
(0.566534 0.0748331 1.33475e-16)
(-1.17959 0.273102 3.46851e-16)
(1.24053 0.0455533 -4.42764e-16)
(-2.0104 -0.0447907 3.68235e-16)
(-0.242368 0.0462112 7.15293e-16)
(-0.0372966 -0.00496741 7.20055e-16)
(-0.245681 -0.058832 -1.21393e-16)
(-0.20769 -0.136409 -6.09601e-16)
(0.228813 -0.0465689 -2.63241e-17)
(0.744587 -0.05049 -1.90193e-16)
(1.8765 -0.17608 -2.70331e-16)
(6.6854 -0.171563 1.02679e-16)
(-1.32959 0.107547 -2.24808e-17)
(-0.617405 -0.064682 0)
(0.080211 -0.00820824 0)
(-0.173257 0.0107278 1.27348e-17)
(4.41798 -0.282873 -5.61273e-17)
(-0.00987773 0.0264271 0)
(0.357227 0.015778 1.29962e-17)
(0.633769 0.821296 7.17973e-21)
(5.69326 0.597403 -7.0704e-18)
(0.586449 8.95401 1.2176e-16)
(-0.558772 -0.0755486 1.28706e-16)
(9.79601 0.0458188 0)
(-1.32774 -0.192154 -1.20193e-16)
(-0.0960823 -0.240514 2.2264e-16)
(1.36918 -0.661043 0)
(1.03666 -0.739649 8.49114e-16)
(-1.01465 -0.831132 -1.73254e-16)
(3.01788 2.60635 8.66426e-17)
(1.72585 0.0612331 1.7726e-16)
(-0.278011 6.85568 -1.60427e-16)
(9.70565 0.0378225 0)
(0.535304 -0.220479 3.02062e-16)
(-0.474919 2.64666 0)
(0.123733 2.35731 4.41264e-17)
(2.52938 0.0824409 1.4871e-16)
(12.1926 0.707351 1.96812e-18)
(-0.914447 -1.07713 -5.55411e-17)
(2.05399 -0.19496 -1.02674e-16)
(3.29747 0.00856715 0)
(3.26033 -0.0485018 -2.30078e-16)
(-2.43008 -0.388638 0)
(-1.31383 0.238802 -7.20753e-17)
(-1.18256 0.400594 -1.05212e-16)
(-1.29105 -0.420836 1.7268e-16)
(1.88699 0.316476 1.90023e-16)
(9.40084 0.230937 6.79843e-18)
(7.51393 0.599141 2.46209e-18)
(6.8901 -0.296364 2.44341e-17)
(-0.842974 0.0418797 -1.99039e-16)
(-0.283709 1.38159 -3.64469e-16)
(0.473343 2.33761 0)
(0.708764 1.60995 1.21991e-15)
(2.30566 6.52064 1.70019e-16)
(-0.399006 0.625353 -3.01633e-16)
(-0.600632 0.556929 3.17631e-16)
(0.386376 0.0370707 3.37351e-16)
(2.34637 -0.33926 -1.21961e-16)
(3.70939 0.414386 9.15759e-18)
(-0.191287 3.43444 0)
(0.043477 2.58407 0)
(-0.0367671 4.0122 0)
(0.779745 -0.0700446 2.94279e-17)
(2.35252 -0.00924467 -8.12303e-17)
(0.265039 -0.212445 1.5716e-19)
(7.82413 1.07068 -4.91906e-17)
(5.08335 1.29395 -1.48049e-17)
(8.45992 -0.141659 -1.2846e-16)
(8.55887 0.777499 1.39329e-16)
(0.416591 0.688351 3.00142e-16)
(0.932987 -0.502994 0)
(3.46784 -0.178132 -1.12268e-16)
(-1.26246 -0.11924 1.04629e-16)
(0.0263076 -0.149676 -1.26e-16)
(0.622758 -0.00834806 0)
(-0.244275 0.013993 0)
(0.639765 0.040219 -6.94946e-19)
(0.699379 0.314095 2.09629e-16)
(4.6066 0.455003 0)
(0.077602 -0.433087 -7.31577e-16)
(0.0711481 -0.0781575 -1.99611e-16)
(5.29549 -0.270989 0)
(0.178368 -0.0876246 -3.61087e-16)
(1.14595 1.31352 -5.54042e-16)
(-0.745811 -0.293403 -3.72279e-16)
(9.47284 0.104922 3.37173e-17)
(3.12604 -0.198457 2.44934e-16)
(3.29058 1.26022 -1.29364e-16)
(-1.70175 -0.274744 -8.64075e-17)
(1.38968 0.715015 -1.76165e-16)
(-0.668297 0.0145788 -3.27171e-16)
(0.729021 -0.0201147 3.83782e-16)
(0.418449 3.6556 2.77028e-16)
(0.376886 2.55708 1.22979e-16)
(0.400705 3.24176 -3.27898e-16)
(-2.38657 1.46796 6.4678e-17)
(0.00168536 2.6879 1.80907e-16)
(0.16102 3.26823 1.75003e-17)
(-0.0124412 2.88356 0)
(0.240416 3.34073 6.75654e-17)
(-0.0139656 3.0796 0)
(-1.99398 -0.694435 -1.52664e-17)
(-0.843865 -0.360512 -1.49046e-16)
(-0.317269 -0.271099 2.65821e-18)
(3.11749 0.508433 0)
(8.24448 1.82973 0)
(1.74616 7.30194 6.3022e-18)
(-0.0738756 1.62661 7.81759e-17)
(0.24533 2.83632 -2.86919e-19)
(-2.44922 0.725597 -2.54221e-16)
(0.618445 -0.0129671 -1.87989e-16)
(-0.00934499 2.16604 8.81715e-17)
(-0.42545 6.40197 0)
(0.101673 1.22338 -7.00269e-16)
(1.76477 4.2956 0)
(-1.10592 -0.745574 -1.70618e-16)
(3.72326 -0.107787 1.4828e-18)
(1.18303 0.777994 -2.4834e-16)
(0.650849 2.25899 3.73323e-16)
(0.0886753 -0.0691915 4.57308e-16)
(5.47283 0.030778 0)
(0.231203 -0.0472701 -7.70177e-16)
(-0.620118 0.255278 -3.06659e-16)
(0.760461 9.12325 -1.22581e-16)
(0.594669 -0.01484 -9.0658e-17)
(10.537 0.143899 0)
(9.66596 0.424044 -1.7615e-17)
(1.2957 0.243395 -9.63448e-17)
(0.589686 2.4655 -3.87027e-16)
(-0.798843 -0.637346 -3.11107e-16)
(0.1174 1.83299 -7.47033e-17)
(0.12955 0.0137163 5.9779e-16)
(-1.69407 0.388348 -2.05256e-16)
(0.172967 2.77982 -1.5538e-16)
(3.61852 0.659603 -1.01045e-18)
(-0.0106763 -0.390673 0)
(0.127294 -0.389012 0)
(-1.1914 -0.2567 0)
(-0.530254 -0.091391 8.07541e-17)
(-0.336604 -0.0123732 -4.40486e-16)
(1.44739 0.0513132 3.73077e-16)
(-0.51793 -0.0195843 -1.1733e-17)
(7.05847 -0.262696 2.53989e-16)
(-0.21507 -0.0465589 1.08609e-16)
(-0.457037 -0.115648 5.60045e-16)
(-2.04334 0.250093 0)
(0.704332 -0.14844 -2.35758e-16)
(1.13841 -0.0231443 0)
(0.0859989 -0.0605632 0)
(0.543085 0.129288 -3.21783e-16)
(-0.858547 0.051703 0)
(1.84074 -0.308165 4.02196e-16)
(1.29656 -0.379034 4.64148e-16)
(0.984075 -0.402914 0)
(-0.518782 -0.269843 0)
(2.71593 -0.0471182 3.57077e-16)
(0.143225 -0.0168959 4.56785e-16)
(-0.0941762 -0.0579714 3.8191e-16)
(-0.344875 -0.331237 -2.64552e-17)
(0.706127 0.00870248 -1.64857e-16)
(1.99997 -0.148524 8.03216e-17)
(0.295128 -0.120395 9.32897e-17)
(-0.887203 0.141663 2.28549e-16)
(-0.226649 0.0118507 -2.67525e-17)
(-1.61488 -0.196047 1.54781e-16)
(0.0262777 -0.0171593 0)
(-1.35676 -0.157917 0)
(1.52314 -0.0660103 1.67079e-16)
(-0.834128 0.0215502 2.75248e-16)
(-1.36415 0.0786705 7.93736e-17)
(0.198764 0.0439804 0)
(0.794863 0.634279 -3.03916e-16)
(1.42637 -0.456633 5.39271e-16)
(2.55489 -0.266389 3.55035e-17)
(-1.63993 -0.264731 -3.93716e-17)
(0.210755 -0.0642321 -3.64662e-16)
(3.49829 0.111798 3.63577e-16)
(-0.109624 -0.150639 -5.41226e-17)
(-0.041002 -0.0173928 0)
(3.534 -0.324362 3.31213e-16)
(0.0170975 -0.00731498 -1.19495e-16)
(1.30243 1.66278 -1.16169e-16)
(0.646463 -0.00600894 0)
(3.40257 0.119914 -8.52137e-17)
(0.459171 1.13197 2.90218e-16)
(1.42039 0.303295 8.91002e-17)
(-0.544923 -0.329368 2.20122e-16)
(0.00681764 0.223338 0)
(3.68669 0.446335 8.38407e-17)
(-0.274454 -0.209362 0)
(1.34367 0.225103 1.31443e-17)
(-0.147309 2.96345 1.41261e-16)
(1.13843 1.59289 0)
(10.6998 0.141957 0)
(-1.62467 -0.193549 1.49578e-16)
(-0.54296 -0.463666 -7.40043e-16)
(-0.410446 -0.557198 -3.72655e-16)
(-0.0431943 3.40749 -5.57502e-17)
(-1.15475 -0.360973 3.01298e-16)
(0.132626 -0.039286 -1.35163e-15)
(-0.85878 -0.232818 0)
(0.0451608 -0.0709592 -9.2797e-16)
(-0.794753 0.275905 -6.23158e-20)
(-0.107823 1.1433 -2.4068e-18)
(0.704181 -0.0584026 1.75685e-16)
(-2.38299 -0.237527 7.82374e-17)
(-1.1706 0.0570674 -1.01093e-16)
(-1.20093 0.0893348 1.08179e-16)
(1.03526 -0.948712 0)
(0.425557 -0.634761 0)
(-0.527294 -0.526559 -3.36952e-16)
(2.17045 -0.449823 1.24988e-16)
(1.63857 -0.571148 -4.6019e-16)
(10.8005 0.148173 3.17446e-17)
(0.240436 0.062502 2.21221e-16)
(0.64634 0.0476682 0)
(6.40403 0.269169 4.36502e-17)
(0.913809 0.523961 1.22574e-19)
(0.0115094 2.9215 1.53877e-16)
(0.177477 1.61567 -3.38311e-17)
(-0.29507 3.72108 -7.90042e-17)
(0.0657389 3.26472 3.81706e-17)
(0.236719 4.79933 0)
(3.04488 0.491981 1.48018e-16)
(-0.963442 0.154 3.07046e-16)
(0.0294047 -0.0635338 3.12126e-17)
(5.01521 -0.244381 6.81695e-17)
(0.141096 -0.0452319 0)
(0.564803 2.25457 2.45948e-16)
(-0.892626 -0.252627 0)
(-0.245886 4.10619 4.93381e-17)
(-0.0137638 4.67582 -8.63255e-17)
(0.054375 3.17093 5.37723e-17)
(1.54845 0.101321 -1.49621e-17)
(1.51725 1.76002 -3.40641e-17)
(-1.59212 -0.032642 0)
(-0.710765 -0.191093 0)
(-0.870853 -0.275478 -2.00805e-16)
(0.579572 -0.0503325 -2.0985e-16)
(0.0187076 2.2234 -1.20045e-17)
(0.109631 1.9597 4.69738e-17)
(0.857713 -0.826654 4.96761e-16)
(9.96201 0.294357 1.21876e-17)
(0.869732 0.645871 -4.73636e-16)
(0.968635 -2.88993 -1.8876e-17)
(2.57639 -0.29084 2.65759e-16)
(2.25012 0.474559 0)
(0.517202 -0.166382 1.84446e-16)
(-0.132235 -0.0384934 -1.21874e-17)
(-1.63152 0.00302749 -9.91393e-17)
(-0.466027 -0.234446 2.55026e-16)
(-0.490349 -0.385447 2.61579e-16)
(9.90106 0.121429 -2.34854e-16)
(-0.14669 -0.000977755 0)
(-0.00173333 -0.0133346 9.17008e-17)
(-1.50223 -0.441833 -2.21789e-18)
(-0.0524883 3.59372 -1.03686e-16)
(0.0577541 3.29435 -1.65018e-20)
(0.13974 -0.0708216 0)
(1.5919 -2.70289 1.4349e-16)
(3.04881 1.00339 -5.58317e-17)
(1.28072 -0.103373 -2.07351e-16)
(-0.0583835 2.3386 -5.37527e-17)
(-2.48872 1.091 4.18885e-17)
(-0.0284273 2.0728 -4.24787e-16)
(0.0489765 3.10415 -4.55324e-17)
(0.614497 -0.00338487 -5.78246e-16)
(-0.0811565 4.075 -2.7471e-18)
(1.24202 -1.42393 -2.73924e-16)
(-0.0325646 3.27143 -5.20173e-17)
(0.304152 3.41606 1.58659e-16)
(-0.362742 2.24773 -9.11333e-17)
(0.14569 2.53507 -1.76862e-16)
(-0.14008 0.799366 1.68649e-16)
(0.517507 0.0176607 -4.30682e-16)
(6.82626 0.776154 9.5332e-17)
(1.48795 -0.148092 -2.77869e-16)
(11.2578 0.466671 -2.01415e-18)
(3.23313 1.56402 8.0083e-17)
(2.03766 -0.109775 -4.02276e-16)
(-0.211398 -0.416435 -7.24962e-17)
(0.567214 -0.00891475 4.1043e-17)
(6.58747 0.661785 -5.9431e-18)
(3.58614 0.772979 -5.91884e-17)
(3.27755 -0.0711962 2.25304e-17)
(3.08157 0.0332974 -1.55876e-16)
(-0.907797 -0.213541 1.11392e-15)
(8.09507 1.64707 -3.63745e-18)
(0.452896 2.48087 2.32227e-16)
(-1.21518 -0.175179 1.96883e-16)
(0.0288972 2.54498 4.38336e-17)
(-0.959751 0.975988 2.4255e-16)
(-0.316044 2.01504 0)
(3.86048 -0.0984143 -1.26424e-16)
(3.57874 -0.0777666 9.37098e-18)
(1.37902 0.221894 1.79823e-16)
(1.72037 0.0639209 6.12065e-19)
(9.86829 0.101371 0)
(-1.45286 -0.170112 2.2874e-18)
(-0.79217 -0.192911 -4.66893e-17)
(0.0693182 1.92344 -5.07684e-19)
(-0.0187071 2.48016 1.57232e-16)
(0.209873 1.72658 -2.16493e-16)
(0.0467809 2.20418 7.34636e-16)
(3.84021 0.497923 8.84259e-18)
(0.786702 0.628748 -2.52083e-19)
(0.366043 -0.165777 2.67939e-16)
(-1.16351 0.251089 0)
(1.02121 1.70467 0)
(0.235246 -0.0740341 -3.8864e-17)
(6.70107 0.0820195 -2.56703e-19)
(4.35806 1.08693 3.16112e-17)
(8.14284 0.927514 -7.84549e-18)
(10.4079 0.871295 2.99895e-18)
(0.0329669 -0.519366 0)
(0.691136 1.18398 0)
(0.403262 2.29148 1.76963e-16)
(-0.437673 1.96908 1.84009e-16)
(6.82293 0.606318 -4.31247e-16)
(3.22132 0.665905 0)
(0.689109 -0.0452841 0)
(-0.175788 -0.295867 3.59484e-16)
(1.02202 0.774611 1.50036e-18)
(-0.0180556 3.16398 -1.52798e-16)
(0.620848 -0.000792234 2.06604e-16)
(0.601621 -0.00416759 -1.02405e-16)
(0.264284 3.65228 -4.43227e-17)
(-0.149372 3.32328 -2.47212e-17)
(0.629526 -0.000834592 -2.74642e-16)
(9.98181 0.262266 -6.11842e-17)
(10.8484 0.278274 3.31644e-18)
(-0.0907981 2.69844 1.20629e-16)
(0.452302 1.87996 -3.66485e-17)
(3.53685 1.04105 -1.34858e-17)
(-0.0507399 3.05654 -2.60003e-16)
(1.59256 -0.242804 1.01007e-15)
(0.0177328 2.84775 5.47134e-18)
(-1.32359 1.0115 0)
(4.50395 4.55889 6.32958e-17)
(0.140178 2.21644 9.55062e-17)
(-0.232504 2.37451 -4.78252e-20)
(-0.528581 1.76943 1.71892e-16)
(0.560443 0.0127041 0)
(11.2446 0.288207 0)
(0.773148 1.77394 -5.97887e-17)
(3.4385 0.0434675 0)
(0.379718 -0.0599675 8.14101e-17)
(9.97571 0.126468 -9.84567e-17)
(2.25765 0.116351 7.94525e-17)
(1.46082 -0.19601 1.19355e-16)
(4.21048 -0.0313516 9.33415e-17)
(0.0886526 1.85099 7.02185e-17)
(-0.624488 -2.5526 1.59024e-16)
(-0.0283623 2.03315 1.79829e-16)
(1.55368 4.37399 -1.35448e-16)
(-1.22122 -0.2143 -7.66117e-17)
(-0.13554 -0.30767 0)
(9.78277 1.14775 0)
(1.36642 1.33494 -3.78772e-16)
(0.585296 -0.0176813 -2.19085e-16)
(-0.0273882 2.6625 5.47788e-16)
(1.59172 3.28846 -4.17238e-17)
(1.6874 0.272299 0)
(1.91525 -0.0893493 -3.95582e-16)
(-1.39061 -0.304791 -1.74721e-16)
(-0.212112 2.69061 1.31002e-16)
(1.25739 -0.157312 0)
(0.0257411 1.82619 0)
(-0.185657 2.42476 0)
(0.212229 2.06438 -1.51785e-16)
(0.296964 0.774679 1.1214e-17)
(10.9494 2.5647 -2.78608e-18)
(-1.01868 0.309666 0)
(5.74386 0.746705 0)
(2.46577 0.71397 -8.15355e-17)
(1.75807 4.11066 9.97977e-17)
(-0.866616 -0.76948 0)
(0.91067 -0.545141 3.94912e-16)
(0.839001 4.03628 4.83897e-18)
(-0.0208505 2.01821 -1.45127e-16)
(0.636338 -0.0287841 0)
(6.06452 0.704968 -6.742e-17)
(-1.75656 0.134702 -1.62675e-16)
(0.245863 2.10276 9.45297e-17)
(0.0110142 1.879 0)
(0.888866 2.42177 -1.02774e-17)
(10.0778 0.373466 -1.8319e-17)
(3.73317 1.36301 -5.22031e-18)
(-2.45038 0.883833 -1.50591e-16)
(0.310078 3.26855 -2.30679e-16)
(0.292267 2.0947 -5.60403e-16)
(-0.14071 3.20276 1.17743e-19)
(0.434055 3.52472 7.29637e-17)
(1.1903 2.48527 0)
(10.5704 -0.067978 2.16894e-17)
(1.18418 -0.772427 1.82476e-16)
(6.56241 0.840733 -1.22628e-16)
(0.570497 -0.0886424 1.89989e-16)
(0.096007 3.09237 0)
(0.0343133 4.09771 -7.28164e-17)
(-0.365472 3.86988 2.1982e-16)
(0.66354 -0.041705 -8.10389e-18)
(-0.155633 2.93308 4.4526e-17)
(0.761338 0.372759 7.0059e-18)
(-0.225321 3.25812 -4.85838e-17)
(0.313388 3.23689 -4.49307e-17)
(-0.284227 6.27636 6.40257e-17)
(1.06313 0.174391 1.85861e-17)
(10.0927 0.187058 0)
(0.462324 -0.0205314 5.21328e-16)
(2.37909 0.429388 -6.59372e-17)
(-0.523785 -0.155617 -3.84768e-16)
(5.22598 0.585631 1.82448e-17)
(0.123708 3.26586 -7.29913e-17)
(-0.161147 3.45382 3.20904e-16)
(0.620319 -0.00800826 9.94264e-21)
(1.14421 -0.177709 -1.10308e-16)
(1.25772 6.11579 0)
(0.905422 -0.0158427 0)
(0.0229509 0.0473788 -2.27019e-17)
(0.264445 2.83753 0)
(3.53783 2.3069 -7.52304e-17)
(4.94245 1.70642 0)
(1.62342 3.72329 -2.43447e-16)
(1.16946 -0.312219 6.19822e-17)
(0.0863105 -2.74126e-05 4.86032e-16)
(-0.0224635 -0.073426 6.39921e-17)
(6.90404 -0.117913 -1.38648e-17)
(1.83886 -0.000895404 -2.7466e-16)
(7.51219 -0.114164 -2.55865e-16)
(1.11622 -0.0800118 0)
(0.274044 1.23624 -8.33547e-17)
(4.15641 2.20378 1.85715e-16)
(4.54528 1.29622 -6.99212e-17)
(0.91598 0.498149 -4.18943e-16)
(0.398266 1.28903 5.86193e-16)
(-0.11743 2.82959 2.77722e-17)
(0.51693 1.98192 -3.79857e-16)
(2.44503 0.684515 -1.13327e-18)
(0.454273 2.09622 -2.49219e-16)
(0.559965 -0.0374104 2.0562e-16)
(-0.115469 1.98653 7.58614e-17)
(0.299079 2.61764 0)
(0.152048 0.456705 -8.06077e-17)
(0.0630168 2.40952 -6.22979e-17)
(0.383773 1.59036 2.9379e-16)
(3.80379 -0.0796377 -7.24771e-17)
(1.73898 7.90299 -3.87651e-17)
(10.6103 0.430489 -6.76568e-17)
(3.29086 0.0311161 7.81528e-17)
(0.662139 1.94616 -7.53285e-17)
(-1.35381 -0.154149 -1.35469e-16)
(9.57877 -0.489553 2.91666e-16)
(1.7348 0.0918418 -3.36064e-17)
(0.0498655 3.97731 4.80276e-18)
(1.90131 -0.0350198 2.49229e-16)
(-0.148714 2.84936 -2.61622e-16)
(0.029726 2.67714 1.29279e-16)
(7.14138 0.345305 0)
(0.4469 1.19562 -1.13736e-16)
(0.212923 0.264034 2.96087e-17)
(-0.114561 1.60146 0)
(-1.59911 0.612949 -1.67205e-16)
(0.688131 1.68335 5.83049e-17)
(0.182167 -0.0864742 3.43851e-16)
(0.165362 -0.0407998 3.43676e-16)
(3.49112 -0.225679 -3.62676e-17)
(10.5959 0.586012 -1.09386e-18)
(0.768361 0.555043 -2.08604e-16)
(-0.318775 0.315018 3.5133e-16)
(0.427421 2.72551 -2.62754e-16)
(0.68304 0.648041 1.15669e-16)
(3.66737 -0.137449 0)
(-0.217806 1.89502 -9.82849e-18)
(-1.88835 1.5969 -2.48249e-16)
(-0.0751212 2.52997 -1.56139e-21)
(-0.0387911 2.91588 4.20032e-17)
(0.105446 3.25845 -5.16922e-18)
(0.0040724 2.65679 -1.8098e-16)
(0.455741 3.27046 4.42795e-17)
(1.029 3.93353 -1.61987e-16)
(6.52214 -0.46777 6.12092e-17)
(0.662659 -0.736602 0)
(11.6146 1.02839 0)
(-0.547638 -0.165388 4.95138e-16)
(0.625135 0.30812 6.06817e-16)
(0.0438577 3.28884 2.22886e-16)
(-0.0533001 3.56416 -2.22628e-16)
(-1.06233 -0.239749 1.30891e-16)
(1.64708 3.95635 -5.75588e-17)
(-0.776567 0.975123 4.35766e-17)
(0.547923 1.73634 2.10569e-17)
(0.497157 1.05613 -7.54401e-19)
(1.78647 1.90015 -5.22797e-17)
(0.0190774 -0.133975 -1.20342e-17)
(1.62875 1.75675 -6.58858e-17)
(1.27803 0.0788322 -4.56974e-16)
(0.287487 0.984627 1.03184e-17)
(0.913722 1.77777 1.43046e-16)
(1.60727 0.683398 0)
(0.63041 0.0236483 0)
(0.644889 0.921212 0)
(0.165336 3.3537 3.96307e-16)
(1.40157 7.4456 2.66655e-16)
(-0.063003 3.54359 3.68352e-16)
(3.34812 0.223442 2.84849e-17)
(4.80252 3.80681 -3.88194e-17)
(1.07262 0.523895 0)
(-0.0107327 1.63138 8.52909e-17)
(-0.299759 0.826788 3.36988e-17)
(10.4795 0.089862 -7.09362e-18)
(0.227067 0.0439086 -1.02628e-16)
(-0.635047 -0.073134 4.16901e-18)
(0.555119 0.00963233 -1.75557e-16)
(7.93911 0.551552 -1.79662e-17)
(0.575062 0.209994 0)
(0.897434 -0.0815233 -4.98786e-16)
(3.44678 1.00882 2.28299e-16)
(3.66872 -0.0910475 0)
(0.533256 1.61361 6.80111e-17)
(0.58147 2.6635 -3.12674e-16)
(7.32273 0.0392832 0)
(0.470096 3.25393 -7.92879e-16)
(-0.0172458 3.0819 -2.12701e-16)
(0.0735416 0.667273 0)
(3.29719 0.610071 0)
(11.3469 0.294768 4.09374e-17)
(10.3396 0.579372 3.22737e-17)
(10.4854 1.16479 2.02023e-18)
(5.51399 1.52332 -2.89945e-19)
(-1.65613 3.8308 0)
(0.962251 1.26441 2.36892e-16)
(3.14184 6.70028 -2.98844e-17)
(2.04192 0.139634 0)
(0.826379 1.97661 -4.07244e-16)
(4.70969 1.17162 3.31474e-17)
(0.464824 -0.605167 -1.31005e-16)
(9.09416 1.28436 -4.58798e-17)
(10.8036 0.0570668 7.38802e-17)
(0.786064 2.27933 -2.03025e-16)
(9.50786 0.573856 -1.52334e-17)
(-0.0212426 3.44588 2.61464e-16)
(0.928722 8.02574 4.4608e-17)
(0.18586 3.3646 -1.91392e-16)
(5.27563 2.73852 0)
(3.25079 0.337203 1.09976e-16)
(1.46888 -4.95456 -8.43788e-17)
(2.63596 0.0445881 3.33818e-17)
(1.80797 -0.219558 1.20698e-16)
(0.077177 4.50347 8.33787e-21)
(0.0658328 3.17119 3.17832e-21)
(0.111061 4.09121 9.76466e-17)
(0.409325 0.518863 0)
(0.593473 0.953135 0)
(2.50021 -1.95396 6.86495e-17)
(-1.46533 -0.143544 1.62581e-16)
(0.0565382 2.67451 -1.6563e-16)
(0.00121709 3.05913 -4.89749e-18)
(-0.223213 3.25146 0)
(1.13028 -0.103771 -3.81339e-17)
(10.0472 0.131347 8.10733e-17)
(-0.160703 1.70221 0)
(-1.81279 0.24455 -3.96228e-16)
(1.56582 2.14757 5.90939e-17)
(0.616627 -0.00323066 2.72421e-16)
(0.190001 3.37774 1.03161e-16)
(-0.183404 3.50066 2.57208e-16)
(9.68927 1.27702 0)
(0.0977693 3.47006 -6.50422e-17)
(-0.0395412 3.42452 -4.99968e-17)
(9.96559 1.77546 -8.34027e-17)
(-1.11788 -0.265445 -2.25294e-20)
(7.12346 1.10301 9.16363e-18)
(-0.0368848 3.13179 1.49703e-19)
(-0.0358432 2.97122 0)
(0.0471199 3.25141 4.60126e-18)
(-0.0369387 2.58311 -1.6169e-16)
(0.791495 2.96853 -5.57056e-17)
(1.79324 3.44201 1.67089e-16)
(0.47966 -0.262442 4.78997e-17)
(0.0851103 3.18994 3.79924e-16)
(0.126104 4.36551 0)
(-0.368403 3.89137 -1.80732e-16)
(2.30799 0.396805 3.31859e-17)
(0.597539 1.51122 -1.39136e-16)
(3.20799 0.0603947 6.4492e-17)
(0.34756 0.267546 4.64126e-18)
(0.1949 2.79214 1.03487e-16)
(-1.01834 1.30995 0)
(1.63168 1.98993 1.87641e-17)
(0.0637155 2.83903 -1.78165e-17)
(1.49266 0.220937 -1.25983e-16)
(10.5036 0.827939 -7.27552e-19)
(0.252576 0.847333 -4.00854e-17)
(-0.304868 2.66565 -1.7174e-16)
(0.29409 2.35822 -1.46515e-16)
(-0.0899215 3.1095 -3.90816e-16)
(0.525679 3.52534 0)
(0.975645 0.704999 2.89423e-16)
(-0.174289 3.16792 1.48127e-16)
(0.46445 3.2335 3.37646e-17)
(0.158388 -0.042347 -9.72138e-17)
(1.57162 3.03842 -1.87378e-16)
(-0.218941 -0.16095 6.82575e-16)
(0.425539 -0.272794 7.08242e-16)
(0.23179 -0.0354523 -3.209e-16)
(0.589414 3.0839 3.71278e-16)
(-0.0344347 2.36399 -3.10736e-16)
(-0.676747 -0.514303 -1.67499e-16)
(0.0622865 2.04377 -1.03544e-16)
(1.50934 8.61217 0)
(9.95476 0.19154 0)
(1.13627 0.372094 -3.05177e-16)
(-0.146016 1.85849 1.84922e-16)
(0.238562 0.341156 -8.07198e-17)
(-0.0941375 1.87832 0)
(2.68644 0.60428 9.35851e-17)
(1.55455 0.177506 3.66502e-20)
(0.421903 1.42982 -6.19638e-16)
(3.25068 -0.348906 2.16092e-16)
(0.197278 3.11346 1.702e-16)
(-0.0464075 3.29755 -4.64805e-16)
(-1.77015 -0.127534 3.92227e-16)
(-1.18421 0.628173 -1.61361e-16)
(8.42916 1.21984 -1.32567e-17)
(-1.12319 6.69438 1.65938e-16)
(0.468652 -0.0773937 2.02399e-16)
(0.716708 -0.165312 0)
(-0.662783 -0.317504 5.9004e-17)
(1.13553 1.74136 -8.39453e-16)
(0.278893 1.82467 -2.3037e-17)
(-0.0804502 2.6947 2.2772e-16)
(0.510841 1.66506 2.62384e-17)
(6.03401 0.494208 -1.23517e-16)
(9.92053 0.516571 -3.87327e-19)
(0.575469 -0.02337 2.0038e-16)
(10.9878 0.0909315 0)
(2.20103 0.792913 -4.29281e-18)
(3.30654 -0.0964289 2.17001e-18)
(3.48633 -0.00907843 -1.36648e-17)
(0.0433786 3.99149 5.55977e-17)
(0.0696484 3.08357 6.68358e-17)
(-0.237249 3.98294 2.07784e-17)
(10.4604 0.0766675 1.35077e-17)
(0.834325 1.82285 1.6903e-19)
(0.206612 3.14761 -8.25659e-17)
(3.33992 -0.117403 5.78514e-21)
(0.52978 2.71376 0)
(10.5305 1.60203 -4.87249e-18)
(0.370274 0.50145 0)
(0.87841 0.766099 9.30349e-17)
(0.763572 0.222766 8.65368e-17)
(-0.0543671 1.37283 4.65478e-18)
(2.597 0.220551 2.1006e-16)
(-0.00168872 0.118745 4.0678e-16)
(9.29733 0.689645 -1.64574e-17)
(0.598189 -0.0128456 2.7531e-16)
(-2.06733 0.227635 2.90457e-16)
(9.96335 1.66384 8.71387e-17)
(9.71756 0.342628 3.81434e-17)
(6.04744 1.70346 3.74243e-17)
(0.0981239 3.2025 -6.95651e-17)
(-0.11066 3.43423 3.97441e-17)
(-0.0727523 0.92895 1.76105e-16)
(-0.144672 1.04532 0)
(4.80195 0.329392 4.30849e-17)
(4.71671 2.29402 9.68853e-17)
(10.8106 0.139042 -1.93862e-17)
(1.17757 4.17353 6.85818e-17)
(0.597574 -0.00415844 2.66492e-16)
(0.228857 0.384763 0)
(8.93001 2.02285 0)
(1.00432 1.44951 0)
(-0.760681 -0.302427 3.7881e-16)
(3.46768 -0.00227456 7.13176e-17)
(0.573023 2.79113 3.47512e-16)
(0.0465782 2.58743 4.41796e-17)
(1.91682 6.35321 -6.31294e-17)
(2.21449 0.087659 0)
(1.04602 2.21681 7.43445e-17)
(0.69717 3.37586 -2.07631e-16)
(0.0422921 -0.0902949 -9.11586e-16)
(11.2098 0.130159 8.98127e-17)
(6.01085 0.587949 0)
(0.140915 2.84785 1.49716e-16)
(0.922556 5.04973 0)
(1.93585 0.836392 1.43618e-16)
(0.920897 1.62499 -2.11158e-17)
(1.0514 9.18496 6.04519e-17)
(9.45622 1.5751 -1.23713e-17)
(9.94514 0.989375 9.46667e-17)
(-0.759889 -0.0562671 0)
(0.991382 1.82704 -6.77066e-17)
(1.56048 -0.015886 0)
(8.80702 -0.126644 0)
(0.785251 -0.000839968 -1.44232e-16)
(0.836787 1.70146 2.06924e-17)
(-2.54338 4.77299 -1.19846e-16)
(4.18222 0.63598 -1.13043e-16)
(-0.156677 -0.804975 2.01593e-16)
(10.2355 0.124089 4.71646e-20)
(4.39039 2.72104 -9.26263e-17)
(-2.67634 1.74376 -6.59364e-18)
(-0.0109801 3.14446 9.4812e-17)
(0.0154897 3.44567 -9.29241e-17)
(-0.0720354 6.79797 -6.73646e-17)
(-0.622217 6.53582 -2.4164e-16)
(3.23726 0.650559 -1.53858e-17)
(0.0764836 2.02128 -3.00103e-16)
(0.0480309 2.50505 -1.69622e-16)
(2.48123 0.214528 6.11814e-17)
(0.626561 -0.0344577 2.30627e-16)
(0.656538 0.803939 -2.91399e-16)
(0.192781 1.65077 -4.96221e-16)
(0.0977684 2.81696 -2.95775e-16)
(4.8311 3.27274 3.59003e-18)
(0.677054 1.11615 5.76803e-16)
(10.0194 0.0792667 -5.95844e-17)
(0.65265 -0.0610984 0)
(-4.21628 7.48261 -1.5625e-19)
(-2.63189 -0.647207 -1.10479e-16)
(0.324859 2.79754 0)
(10.2378 0.603763 3.5764e-17)
(1.15728 -0.270583 2.88253e-16)
(1.88017 -0.121807 -2.49427e-16)
(8.77088 1.46796 0)
(0.245024 3.84908 -4.15808e-20)
(-0.127871 3.25374 0)
(9.97967 0.165384 0)
(0.725907 -0.0813688 -5.51042e-17)
(9.46739 1.23534 -6.61854e-17)
(6.80303 3.65293 -2.0223e-16)
(1.50671 4.88427 2.59931e-17)
(7.30198 1.88873 -1.03118e-16)
(0.116103 1.79229 -1.019e-16)
(0.0115033 1.41321 1.98599e-20)
(-0.0173579 2.04591 -1.01238e-16)
(-0.0877061 1.85996 0)
(-0.0290638 1.80773 1.41362e-16)
(-0.296053 0.896627 0)
(-0.219079 -1.11078 0)
(0.195131 -1.246 0)
(0.210008 -2.45277 -1.44268e-16)
(0.0672291 1.72551 0)
(0.00296974 1.05606 1.2513e-16)
(2.83937 2.73287 -2.57606e-16)
(0.881146 2.00375 0)
(0.204954 3.0533 2.99067e-16)
(-0.258291 4.0214 -3.31712e-17)
(0.0220081 4.73055 1.13277e-16)
(0.0389826 3.17924 -7.24567e-17)
(1.89351 1.12517 2.83097e-16)
(9.51216 1.53566 -2.38555e-17)
(0.265357 1.77856 2.02587e-17)
(-0.032067 2.8696 -6.35962e-17)
(3.35661 0.295208 0)
(0.621018 -0.0233932 -2.70964e-20)
(5.60453 1.00542 0)
(1.5649 0.107157 3.1726e-20)
(1.69585 0.0479285 -5.54264e-16)
(9.99543 0.10026 3.26685e-17)
(0.210125 3.16559 1.95973e-16)
(-2.14744 2.34587 -2.63105e-16)
(-0.0603267 2.51059 0)
(-0.0273532 2.0903 7.74725e-16)
(5.48881 1.47436 -4.68016e-17)
(11.7654 0.456611 0)
(9.7628 0.246236 2.29905e-17)
(1.13158 0.0569956 1.55326e-17)
(9.18878 0.291987 0)
(3.7143 5.11246 9.56426e-18)