/*--------------------------------*- C++ -*----------------------------------*\
| =========                 |                                                 |
| \\      /  F ield         | OpenFOAM: The Open Source CFD Toolbox           |
|  \\    /   O peration     | Version:  v1912                                 |
|   \\  /    A nd           | Website:  www.openfoam.com                      |
|    \\/     M anipulation  |                                                 |
\*---------------------------------------------------------------------------*/
FoamFile
{
    version     2.0;
    format      ascii;
    class       volScalarField;
    location    "0.3";
    object      nut;
}
// * * * * * * * * * * * * * * * * * * * * * * * * * * * * * * * * * * * * * //

dimensions      [0 2 -1 0 0 0 0];


internalField   nonuniform List<scalar> 
1431
(
0.00245851
0.00285969
0.00271845
0.00165945
0.00165266
0.00190502
0.00371444
0.000786717
0.00261601
0.00421106
0.0016177
0.00100075
0.00137255
0.00130426
0.00401706
0.000552548
0.00448426
0.00194692
0.000631786
0.00192154
0.000843672
0.00273004
0.00331312
0.00139539
0.00146813
0.00210803
0.00149368
0.00121918
0.00100662
0.00185748
0.00131246
0.000723364
0.0020696
0.000886467
0.00126075
0.00255842
0.00253918
0.000859971
0.00197232
0.000858781
0.00217012
0.000471116
0.0014648
0.00477328
0.00386967
0.00176081
0.00305615
0.000802584
0.000836374
0.000870778
0.00176785
0.00426775
0.00258827
0.00156722
0.00517988
0.000766896
0.00564872
0.00246016
0.00101347
0.000647182
0.00434194
0.00132421
0.00304516
0.000783134
0.000900919
0.00291941
0.00259132
0.00107279
0.00314987
0.000750431
0.000817313
0.00144304
0.00180213
0.00185335
0.0014543
0.00126027
0.00138555
0.00339137
0.000785012
0.00214132
0.000805688
0.00192682
0.000977156
0.00350065
0.00226584
0.00187958
0.0017192
0.000966799
0.00149248
0.00267465
0.00230069
0.000911417
0.00156203
0.000863569
0.00173058
0.00139778
0.00161433
0.000730144
0.00124027
0.00101571
0.00310661
0.000806054
0.00318227
0.0017898
0.00121104
0.00273142
0.000785899
0.00272451
0.00180459
0.00139679
0.00250531
0.00285773
0.000754942
0.00293247
0.00110128
0.00169538
0.00171268
0.00369477
0.00159761
0.00310073
0.000862096
0.00254399
0.00571769
0.00128224
0.000831233
0.00290722
0.0017174
0.00157073
0.0021783
0.000809833
0.00212931
0.0025831
0.00101192
0.00322333
0.00164409
0.000922279
0.00181973
0.00304075
0.00227126
0.00256108
0.00246405
0.000505755
0.000769921
0.000878068
0.000996594
0.000775482
0.00073442
0.00282343
0.00177395
0.000772903
0.000819178
0.000950715
0.00242989
0.000495319
0.000508051
0.00165429
0.000803129
0.00303104
0.00075572
0.000709232
0.00195117
0.0023436
0.00297667
0.00112604
0.00194059
0.00311239
0.00158475
0.000865649
0.00169782
0.00344126
0.00102356
0.00110067
0.00124765
0.000768925
0.000771739
0.000498098
0.00059046
0.000876481
0.00167677
0.000719141
0.000839549
0.00481607
0.000750187
0.00320256
0.000773249
0.00078726
0.000752992
0.00120478
0.00222343
0.000799475
0.0037269
0.00522994
0.00120256
0.000790507
0.00305891
0.000849068
0.000785382
0.000839312
0.000654985
0.000559894
0.000599273
0.000663291
0.000735895
0.00215911
0.000786133
0.00193593
0.00188827
0.000834355
0.00161626
0.000880396
0.000789674
0.000783584
0.00151434
0.000831691
0.00556361
0.00134111
0.000756637
0.00384427
0.00196382
0.000833753
0.000830363
0.00229337
0.000777194
0.00235245
0.00082547
0.000875615
0.000912918
0.00335976
0.000817763
0.00141007
0.00207256
0.00116344
0.00074719
0.000796644
0.00079048
0.000784063
0.000737098
0.00282194
0.000826965
0.00262818
0.000842578
0.000717658
0.00394366
0.0046845
0.00162046
0.00133667
0.000830237
0.00201892
0.00183582
0.000939473
0.000723694
0.00315771
0.00339898
0.00128908
0.00341323
0.00109302
0.000531168
0.00260984
0.00112874
0.00110245
0.00108122
0.00121641
0.00155095
0.00335889
0.000790219
0.000801425
0.00102976
0.000745882
0.00107524
0.0041219
0.000743669
0.000884376
0.000727615
0.000727981
0.00107057
0.00076627
0.00290428
0.00398142
0.00364684
0.00534929
0.00262619
0.00260962
0.00204783
0.00293429
0.00102641
0.00131039
0.0020431
0.000756523
0.000882123
0.000832766
0.000776554
0.000870739
0.000752649
0.00298697
0.000727843
0.000742618
0.00118195
0.000772861
0.002662
0.000709379
0.000844511
0.000940312
0.00106142
0.000729344
0.00240985
0.00266615
0.000828664
0.00110037
0.00111064
0.00087645
0.000836347
0.000783665
0.00345604
0.000740132
0.00116519
0.00266727
0.00434217
0.00271228
0.0007953
0.00229078
0.00267046
0.00208635
0.00234105
0.00271706
0.00352484
0.0024284
0.000806817
0.0027373
0.00160595
0.000831065
0.0033815
0.00171475
0.0026127
0.00348413
0.000786299
0.00406701
0.00118315
0.00169247
0.00140171
0.00186578
0.000552911
0.000822655
0.00245167
0.000933945
0.00222491
0.000552471
0.000826082
0.000874035
0.000281668
0.000238462
0.00101958
0.000505736
0.000768604
0.000543084
0.000709651
0.000927315
0.000602857
0.000601225
0.000509991
0.000660209
0.000510867
0.000954311
0.000553671
0.000242288
0.000348354
0.000846998
0.00055198
0.000878402
0.002737
0.00353278
0.00267198
0.00260395
0.00246631
0.000748481
0.00323065
0.00183848
0.00358242
0.000842167
0.000848854
0.000568154
0.000540323
0.000852559
0.000323229
0.00068616
0.00106453
0.000559245
0.000912277
0.000642343
0.00052843
0.000259044
0.000909868
0.00339416
0.000846608
0.000848693
0.00268625
0.00188553
0.00129358
0.000834643
0.00288897
0.000772371
0.000722213
0.00316076
0.000832695
0.00159416
0.00275907
0.000794558
0.00270356
0.000712428
0.000838598
0.00380771
0.000830951
0.000619543
0.00312339
0.00256579
0.000929363
0.00109741
0.00341267
0.00426069
0.0026322
0.00101116
0.00271488
0.00209792
0.00359592
0.00161541
0.00199466
0.00346316
0.00172459
0.00257523
0.00609056
0.00286089
0.00478613
0.00128519
0.000530217
0.00358646
0.00256439
0.00326795
0.00219066
0.00292783
0.00165064
0.00174448
0.00521015
0.000742144
0.00346187
0.00320287
0.000540629
0.00338779
0.00421048
0.00128973
0.000871735
0.00330501
0.00385343
0.00355169
0.0044448
0.00321397
0.00237944
0.0027354
0.00312082
0.00353467
0.00300171
0.00248144
0.00366879
0.00090761
0.00180046
0.00271517
0.00235029
0.00224477
0.000894149
0.00325761
0.001995
0.00232251
0.00286969
0.00244464
0.000728268
0.00114497
0.00189996
0.00207742
0.00337733
0.00358403
0.00520515
0.000743223
0.00217871
0.00246336
0.00115851
0.000800366
0.000789148
0.00482471
0.0026701
0.00354187
0.00331105
0.000710347
0.00058063
0.000880507
0.00249799
0.00440149
0.000814961
0.00247883
0.00131029
0.00278043
0.000837177
0.00214822
0.00214364
0.00160369
0.002181
0.00267402
0.00236347
0.00146433
0.00200435
0.00372097
0.00283459
0.000682177
0.000615462
0.00137745
0.000742074
0.00238876
0.000792477
0.00309217
0.00486112
0.00144509
0.00247843
0.00270834
0.00193813
0.00153466
0.00257908
0.000747075
0.00310825
0.0025547
0.00257207
0.00314587
0.00173243
0.00263545
0.000777368
0.000731565
0.00164017
0.00195325
0.00345732
0.00277836
0.00192319
0.00209862
0.00389982
0.00277687
0.00215913
0.0047995
0.00336854
0.00408637
0.000559875
0.00371681
0.00239923
0.000796324
0.00356897
0.00232304
0.00182732
0.00075008
0.00107764
0.00298345
0.00262045
0.00260644
0.00229601
0.00361944
0.00103846
0.000758209
0.00426555
0.00165393
0.00291433
0.00507224
0.00265185
0.000597436
0.00292604
0.000745274
0.00348608
0.00182456
0.000870855
0.0028709
0.00326367
0.0032959
0.00407574
0.00273134
0.00221201
0.002918
0.00173901
0.00108263
0.00247468
0.000798269
0.00243549
0.00331212
0.00218757
0.00178677
0.00282093
0.000796056
0.00185735
0.000790151
0.00496684
0.00255846
0.000848205
0.000786624
0.000776074
0.00163781
0.000720234
0.00351297
0.000743987
0.000459143
0.00298962
0.00262984
0.00192925
0.00198855
0.00190317
0.00319781
0.00217185
0.00207914
0.00324363
0.00241181
0.00204419
0.00268009
0.00101602
0.00265929
0.00228287
0.000748095
0.00294863
0.00193133
0.0020659
0.00336337
0.0018713
0.00258433
0.00226073
0.00159702
0.00357986
0.000930126
0.00181517
0.000621801
0.00237243
0.000804775
0.00272506
0.00252752
0.000643151
0.000805588
0.00271414
0.00318308
0.00181209
0.000738346
0.00115562
0.00271989
0.00173836
0.00346408
0.000806693
0.00248877
0.00343347
0.00191652
0.00165956
0.00309639
0.00356133
0.00286892
0.0034095
0.00250961
0.000771704
0.001171
0.00380253
0.00277706
0.000820569
0.000841131
0.00374485
0.00260932
0.00317105
0.000727685
0.00268935
0.00253445
0.000827691
0.000481629
0.000848146
0.0039918
0.00300461
0.00384327
0.000564842
0.000822107
0.00251953
0.00365069
0.000769965
0.000740081
0.00167756
0.00545342
0.00157936
0.00112196
0.00461158
0.000796055
0.00117761
0.00283599
0.00369696
0.00206008
0.00202426
0.00208855
0.00407964
0.00144883
0.00169307
0.00336368
0.00180953
0.00314893
0.00237545
0.00168673
0.000231806
0.000933481
0.000824607
0.000728856
0.00176002
0.00181495
0.000766153
0.00159793
0.00163635
0.00150546
0.00117396
0.0026506
0.000850412
0.00226193
0.00257938
0.00080807
0.00194173
0.0039746
0.00231484
0.000635444
0.00309589
0.00268198
0.000722132
0.00254778
0.000644447
0.000839503
0.000803861
0.0038553
0.00206243
0.000626216
0.00321906
0.00333349
0.00068382
0.00054164
0.00250745
0.000619843
0.00070526
0.000723882
0.00476482
0.000768297
0.00259283
0.00307283
0.00286865
0.00265546
0.00249618
0.00450374
0.000693797
0.00164
0.000785236
0.0006635
0.000745639
0.000843736
0.00113225
0.00112302
0.00409387
0.00075496
0.000744389
0.000764891
0.00264662
0.00231882
0.000845059
0.000840946
0.000874339
0.00185518
0.000888225
0.00120488
0.00205674
0.00234358
0.000855273
0.00336756
0.000497019
0.00220632
0.000792887
0.000758481
0.00401607
0.00489849
0.000715811
0.00234779
0.000515428
0.000777657
0.000763638
0.00370505
0.00383304
0.00147244
0.00132596
0.000571467
0.000771816
0.00317471
0.000883513
0.00482865
0.000787593
0.00245524
0.001984
0.00202039
0.00269848
0.000773123
0.000870523
0.000990072
0.000847839
0.000834536
0.000649888
0.00224936
0.0051562
0.000808013
0.00350818
0.00292761
0.000717137
0.00178776
0.000231089
0.00259041
0.00260211
0.0019356
0.00293435
0.00148611
0.000828991
0.000809808
0.00348424
0.000579744
0.00181666
0.000833503
0.000673554
0.000597275
0.000538506
0.000648796
0.000837236
0.000732131
0.000775619
0.00221294
0.00140322
0.000776637
0.00172519
0.00257754
0.00186974
0.000655209
0.000861309
0.000758502
0.00287739
0.000668382
0.00207319
0.00105602
0.00377644
0.00112483
0.000813502
0.00336524
0.000779268
0.00071909
0.00073295
0.000663721
0.00248776
0.000713996
0.00202167
0.0026821
0.00218851
0.000819883
0.00309438
0.00267311
0.00259014
0.000204609
0.00202398
0.00215831
0.00394929
0.0028686
0.000837753
0.000868315
0.00080606
0.00273486
0.0020339
0.00302879
0.00266765
0.00173674
0.000803489
0.000756949
0.000647467
0.0024554
0.000756374
0.00241825
0.00188858
0.00300737
0.000786945
0.000780407
0.00144422
0.00526723
0.00376165
0.000818078
0.000853213
0.0015394
0.00282985
0.000734456
0.000746284
0.00229662
0.00215597
0.00344159
0.00396074
0.000704735
0.000878251
0.00326882
0.00246387
0.000825451
0.00330974
0.00391746
0.000839566
0.00258791
0.00248605
0.00145344
0.00234748
0.0023876
0.00324233
0.00333571
0.000954531
0.000933939
0.000843721
0.00329204
0.000800754
0.000573611
0.0022927
0.000805703
0.00342867
0.00171052
0.00290911
0.00373574
0.00301006
0.000865238
0.00144107
0.00157847
0.00318513
0.000784233
0.00251918
0.000814181
0.0007945
0.00106242
0.00145964
0.000729755
0.00453387
0.000679887
0.00211776
0.000752055
0.00180599
0.000478801
0.000535263
0.000512655
0.000440024
0.000544375
0.00053493
0.00206416
0.00023942
0.000734992
0.000819199
0.000505843
0.00207874
0.000554735
0.00253469
0.00136856
0.00195361
0.000496926
0.00380347
0.000578126
0.000654251
0.00404557
0.00514374
0.00236673
0.00047653
0.00244068
0.0039911
0.00289663
0.00380333
0.00413681
0.00307741
0.00195448
0.00226388
0.000490459
0.000486011
0.000936113
0.000474984
0.0031098
0.00363891
0.00268751
0.00232838
0.000982579
0.0027145
0.00216907
0.00081611
0.000485143
0.000500197
0.00176791
0.0031362
0.00077743
0.00386224
0.00268555
0.00317517
0.000772496
0.000393852
0.00429245
0.000517135
0.00105921
0.000653984
0.00082397
0.00271784
0.00279384
0.000830115
0.00269088
0.00257616
0.000895059
0.00250827
0.00141774
0.00055283
0.00106314
0.000809424
0.00146968
0.00553637
0.000777444
0.0016995
0.00501747
0.000846019
0.00253434
0.00333636
0.00321417
0.000812569
0.0007288
0.000974879
0.00316146
0.00304928
0.00191952
0.00169823
0.00249703
0.00355479
0.00341805
0.00259724
0.00300257
0.0010659
0.00290778
0.00254306
0.00322452
0.000446949
0.0023825
0.00452659
0.00270408
0.00227666
0.00340714
0.000870352
0.00215356
0.00339253
0.000837568
0.00250145
0.00319562
0.00133194
0.0017449
0.000640167
0.00271643
0.00261898
0.00254697
0.00327291
0.00280462
0.000753567
0.00382657
0.0030385
0.000624228
0.00313656
0.00456803
0.00165854
0.00409598
0.00200165
0.00078174
0.000722521
0.000755114
0.0022145
0.00453434
0.000846416
0.000788409
0.000768785
0.00218498
0.00117563
0.000777186
0.000840548
0.00238248
0.00279008
0.000797767
0.000781011
0.00262196
0.000821517
0.00352397
0.000345303
0.000782915
0.000791256
0.000802676
0.000586675
0.00086469
0.00310954
0.000559145
0.00073843
0.000683507
0.00101689
0.00101268
0.000792981
0.00327495
0.00197817
0.000743931
0.00242514
0.000768146
0.000534311
0.000477441
0.00225589
0.000833479
0.00253025
0.00305794
0.00219076
0.000524109
0.00129898
0.000907337
0.000616501
0.000866758
0.00358243
0.000625026
0.00212922
0.000807961
0.00237108
0.00407192
0.0021739
0.000688399
0.00255715
0.000898996
0.00275741
0.0026679
0.00120921
0.000800288
0.00259368
0.0024399
0.000790574
0.000476316
0.000939546
0.000517752
0.00381805
0.00199931
0.00166307
0.00497335
0.000788413
0.000400593
0.00250785
0.00235829
0.000479237
0.00236796
0.00176794
0.00106518
0.0024564
0.000749742
0.00283357
0.00282912
0.00249478
0.0049252
0.00267836
0.000799858
0.000822967
0.000482877
0.00190395
0.000822073
0.00342992
0.00065884
0.00274381
0.00354719
0.00285857
0.00174434
0.00295537
0.00113908
0.000506134
0.00083599
0.00135737
0.000407974
0.00071348
0.00289378
0.00375386
0.00141679
0.000758982
0.000701981
0.00278621
0.000515552
0.000840552
0.00209956
0.00347647
0.000829981
0.000839029
0.000839721
0.000780556
0.000244482
0.000644859
0.00340465
0.000611578
0.00380758
0.000751555
0.00147198
0.00300382
0.000827876
0.00421739
0.00213464
0.000591936
0.000857736
0.00216854
0.00274589
0.000870136
0.000516666
0.00427968
0.00426407
0.000889148
0.00273564
0.00161561
0.000739493
0.00360262
0.00505503
0.00257005
0.00315961
0.00383641
0.000878769
0.000851705
0.00150413
0.0026594
0.000842418
0.000819714
0.00195597
0.00251426
0.00243876
0.00321114
0.000782754
0.00307506
0.00172426
0.00263528
0.00169953
0.00346173
0.00300413
0.000473558
0.000380354
0.00483592
0.000751965
0.00189945
0.000730955
0.000772992
0.00084441
0.000905775
0.00219611
0.00151582
0.000929056
0.000435659
0.00453576
0.00113122
0.00181315
0.00288172
0.00160958
0.00194132
0.00373207
0.0018692
0.00128019
0.00529914
0.00243005
0.000943036
0.00140952
0.00332984
0.000718057
0.00188412
0.00111425
0.000791162
0.0016622
0.00382829
0.00271592
0.00248159
0.000622037
0.00334581
0.00247004
0.00151494
0.00257627
0.00480352
0.00369616
0.000769638
0.000844228
0.00368151
0.0027644
0.00247734
0.00390161
0.00328761
0.00369831
0.000618239
0.000828987
0.00132822
0.0008147
0.000879581
0.0028853
0.000839394
0.00100425
0.000398307
0.00183874
0.000802377
0.000946612
0.00231069
0.00319221
0.00466916
0.00327337
0.00328207
0.00296366
0.00304741
0.00125676
0.00292441
0.00162268
0.00224427
0.000845902
0.00161695
0.00405215
0.00162868
0.000657341
0.00465348
0.00078532
0.00443289
0.0026275
0.0038839
0.00404694
0.0026993
0.000774714
0.00262582
0.00423766
0.00084551
0.000780662
0.000615933
0.00286467
0.00254339
0.000746681
0.00354632
0.00226992
0.000941699
0.00376935
0.000910603
0.000516853
0.00274512
0.00433208
0.00263582
0.00300541
0.00104026
0.000855109
0.00253884
0.00251178
0.00190534
0.00262071
0.0019305
0.00275581
0.000760058
0.00203606
0.00204507
0.000818821
0.00123751
0.00196212
0.000713424
0.00174556
0.00303004
0.000829273
0.000416146
0.00263648
0.0016161
0.000801841
0.00131533
0.00186582
0.00224003
0.000683179
0.00143041
0.0026846
0.00318719
0.00287683
0.00157684
0.000854608
0.00240099
0.00229632
0.00292653
0.00286113
0.00071099
0.00254057
0.00385078
0.00258927
0.00229626
0.000755733
0.00129666
0.00069642
0.000944598
0.00232631
0.00144205
0.00112063
0.00274018
0.00151713
0.00375601
0.00138526
0.000779686
0.00441328
0.00115165
0.00253675
0.00279429
0.00253757
0.000811882
0.00102419
0.00204383
0.000843013
0.00094044
0.00168238
0.00103264
0.00315108
0.00137169
0.0013855
0.00447307
0.00151041
0.00119014
0.00150294
0.00126244
0.00109576
0.00221217
0.000837223
0.000832545
0.00134624
0.00301332
0.00175028
0.000877156
0.000908952
0.000912662
0.000792698
0.00240117
0.00241483
0.0026508
0.00393591
0.000741354
0.000669835
0.00235441
0.00455179
0.00266474
0.00407743
0.00369977
0.000802065
0.000761119
0.0012336
0.000749462
0.000840521
0.00115537
0.00182072
0.0016408
0.00279199
0.000869924
)
;

boundaryField
{
    frontAndBack
    {
        type            empty;
    }
    wallOuter
    {
        type            nutkWallFunction;
        Cmu             0.09;
        kappa           0.41;
        E               9.8;
        value           nonuniform List<scalar> 
90
(
6.62988e-05
7.6743e-05
7.78027e-05
7.56554e-05
8.24526e-05
8.49746e-05
8.71488e-05
9.4196e-05
8.00407e-05
8.95267e-05
9.1885e-05
9.50681e-05
9.11519e-05
9.33316e-05
9.26756e-05
0.000103972
9.97209e-05
8.12272e-05
7.22364e-05
6.52103e-05
7.83171e-05
0.000100143
8.80452e-05
9.31055e-05
8.00672e-05
0.00011356
0.000111189
8.77744e-05
8.19427e-05
5.9055e-05
6.6092e-05
6.32793e-05
5.41652e-05
6.72412e-05
6.61133e-05
6.26049e-05
6.23628e-05
7.12583e-05
7.84725e-05
5.90816e-05
6.14357e-05
6.03855e-05
0.000111026
5.95262e-05
6.05718e-05
6.22615e-05
6.52664e-05
0.000124824
8.11831e-05
0.000106717
0.000115831
5.36773e-05
7.54163e-05
9.44736e-05
9.3316e-05
7.26826e-05
8.45578e-05
0.000120084
0.000120003
8.94116e-05
6.47027e-05
6.00065e-05
6.61249e-05
0.000107908
9.67918e-05
8.30403e-05
0.000107263
6.00955e-05
0.000111503
6.5172e-05
6.13029e-05
5.13442e-05
9.11969e-05
6.51289e-05
9.9037e-05
7.39209e-05
7.15961e-05
0.000103895
6.51698e-05
0.000105879
5.7351e-05
0.000110336
5.49266e-05
7.51589e-05
4.87592e-05
6.52752e-05
9.89813e-05
5.22808e-05
8.235e-05
8.38908e-05
)
;
    }
    inlet
    {
        type            calculated;
        value           uniform 0.000851986;
    }
    outlet
    {
        type            calculated;
        value           nonuniform 0();
    }
    wallInner
    {
        type            nutkWallFunction;
        Cmu             0.09;
        kappa           0.41;
        E               9.8;
        value           nonuniform List<scalar> 
138
(
0.000118482
6.51711e-05
0.000234201
0.000102987
0.00014871
5.59803e-05
0.000289336
0.000120876
9.65528e-05
0.000168284
0.00014792
0.00011999
6.07463e-05
6.25827e-05
6.22998e-05
7.06506e-05
8.07478e-05
6.93647e-05
7.37505e-05
8.00565e-05
0.000264188
0.00012902
6.30662e-05
0.000132961
0.000130057
0.000127714
0.000121946
0.000126533
0.000121572
0.000129831
0.00013096
6.83848e-05
6.82856e-05
0.000103817
3.26682e-05
2.82933e-05
0.000118841
6.18659e-05
9.18468e-05
6.55482e-05
8.62518e-05
0.000108093
7.33113e-05
7.41776e-05
6.23107e-05
7.96848e-05
6.39283e-05
0.000113861
6.62803e-05
2.75026e-05
4.18377e-05
0.000100313
6.4761e-05
0.000104654
6.94307e-05
6.64085e-05
0.000100392
3.93304e-05
8.28109e-05
0.000126129
6.62208e-05
0.000107575
7.88007e-05
6.42039e-05
2.95195e-05
0.000108077
8.62444e-05
7.56905e-05
0.000130124
6.51217e-05
8.36839e-05
6.62433e-05
0.000104055
9.61513e-05
0.000135397
7.81778e-05
0.00013693
8.63549e-05
7.19179e-05
9.20857e-05
8.4971e-05
0.000150401
0.000183795
7.6411e-05
7.03362e-05
0.000165893
6.90289e-05
9.04475e-05
0.000127287
0.000122918
0.000103424
5.61457e-05
7.96411e-05
5.94692e-05
9.61672e-05
2.64208e-05
0.000110689
6.96298e-05
7.61844e-05
8.36893e-05
0.000101864
5.86314e-05
6.29224e-05
7.03089e-05
0.000118123
2.65943e-05
0.000102383
0.000132524
9.64308e-05
2.32014e-05
5.5244e-05
0.00012563
2.79683e-05
8.78062e-05
6.75092e-05
0.000116786
9.25966e-05
4.86201e-05
6.71248e-05
0.000123045
8.31241e-05
4.25112e-05
9.39605e-05
7.5319e-05
3.70422e-05
5.62389e-05
9.8484e-05
5.95415e-05
2.47657e-05
7.57033e-05
4.74394e-05
8.08766e-05
0.000145209
9.01859e-05
0.000101903
0.000208516
0.000191223
0.000100156
)
;
    }
    procBoundary0to1
    {
        type            processor;
        value           nonuniform List<scalar> 
29
(
0.00258944
0.00525174
0.00221321
0.00221321
0.00530075
0.00530075
0.00270048
0.0011857
0.0021046
0.0019877
0.00181736
0.00206833
0.000968587
0.00134317
0.00195542
0.00114298
0.00764095
0.00513958
0.00191297
0.00548063
0.000818741
0.000716819
0.00328819
0.000734413
0.000727341
0.00513958
0.000717166
0.000906571
0.000734413
)
;
    }
    procBoundary0to2
    {
        type            processor;
        value           nonuniform List<scalar> 
42
(
0.00277965
0.00240921
0.00184125
0.00165435
0.00165684
0.00277965
0.00184125
0.00109895
0.00142355
0.00106667
0.00204798
0.00210754
0.00204798
0.00224072
0.00221539
0.00280504
0.00221539
0.000994772
0.00121423
0.00444967
0.00444967
0.000994772
0.00099854
0.00432989
0.00432989
0.000931631
0.00353018
0.000843839
0.00333725
0.00239209
0.00239209
0.000744207
0.000621473
0.000532371
0.000527516
0.00184125
0.00201139
0.000624609
0.00333725
0.00109895
0.00073399
0.000625837
)
;
    }
}


// ************************************************************************* //
