/*--------------------------------*- C++ -*----------------------------------*\
| =========                 |                                                 |
| \\      /  F ield         | OpenFOAM: The Open Source CFD Toolbox           |
|  \\    /   O peration     | Version:  v1912                                 |
|   \\  /    A nd           | Website:  www.openfoam.com                      |
|    \\/     M anipulation  |                                                 |
\*---------------------------------------------------------------------------*/
FoamFile
{
    version     2.0;
    format      ascii;
    class       volScalarField;
    location    "0.3";
    object      p;
}
// * * * * * * * * * * * * * * * * * * * * * * * * * * * * * * * * * * * * * //

dimensions      [0 2 -2 0 0 0 0];


internalField   nonuniform List<scalar> 
1431
(
89.0245
85.8336
85.748
83.8398
87.6197
79.0473
74.6117
91.4615
82.6996
80.322
86.3701
86.5951
81.7734
96.7678
87.6559
88.7857
87.8654
86.3436
88.0207
86.0188
87.2495
81.6591
80.9828
97.6858
72.8401
86.0666
65.0196
95.9146
83.8846
83.7554
107.645
114.242
76.0548
73.0006
75.2903
83.751
87.5007
90.4538
77.7149
90.511
104.353
84.9836
70.8533
75.3555
75.208
87.9053
86.7992
112.088
108.663
91.6998
83.2846
80.0056
82.1124
73.3637
74.9658
105.094
79.5934
78.3201
72.2131
87.176
86.0499
85.0131
86.7211
91.1407
93.1231
85.8812
83.9617
79.0334
87.6368
91.5821
71.4166
75.6117
85.3588
78.1967
88.1055
76.2784
87.6137
77.5543
91.6439
67.1298
91.165
84.3443
83.7605
85.685
72.7051
87.4884
87.517
81.5287
98.6459
86.1702
87.1163
81.8928
87.5856
90.2306
85.1258
87.229
88.2875
93.3913
87.3418
107.605
86.5483
90.401
87.9176
87.3551
84.9399
84.2489
91.3384
108.005
109.553
87.4908
67.4624
85.9126
92.0198
86.2817
86.0656
87.3629
86.5213
86.7974
99.5853
76.5049
88.9934
80.5649
79.3418
102.544
90.7918
84.5842
100.466
86.514
88.4809
90.8931
86.0801
108.795
98.3022
87.4999
87.6311
83.5016
85.156
85.6456
87.7597
108.374
81.6601
87.4343
90.2973
108.744
109.967
89.0832
92.8677
108.412
84.9329
106.9
91.8206
94.2216
85.4309
81.1993
85.9754
86.3175
91.1558
86.9648
92.8109
101.749
86.1234
85.5743
88.1356
84.3309
87.3519
64.3824
87.3851
89.6924
82.9964
87.7626
100.347
88.7076
106.423
92.0692
90.8164
87.3166
81.8504
92.5519
83.642
98.4584
90.9606
86.7148
98.581
86.4875
90.5121
101.432
90.523
78.3929
86.3887
91.1102
84.0488
87.1168
87.3272
91.0046
84.497
88.7744
91.358
110.335
83.5803
84.2068
84.5481
110.495
105.31
103.014
91.2491
67.549
87.3586
91.441
86.7201
95.1788
90.9889
91.9534
103.291
91.3772
78.8776
73.7272
93.7237
84.37
84.6632
91.0908
91.1116
62.6164
90.4482
98.2284
91.7604
85.602
104.302
87.1108
96.0649
108.048
87.6034
83.3751
91.478
89.9107
91.1163
91.713
92.6295
88.588
91.0875
85.0849
92.9264
103.592
83.5575
86.7477
85.8041
84.2663
90.3675
74.8458
73.7308
99.209
97.135
83.2368
81.1265
110.296
86.4804
92.0901
83.0352
85.2572
91.0149
91.4826
91.901
82.5523
87.2425
82.4749
91.2936
95.1727
86.7649
90.4363
97.0273
83.0603
91.6541
107.448
96.1166
95.1284
91.5637
88.6232
87.598
86.1155
85.3954
79.7805
81.9241
84.992
84.9776
87.2626
88.5889
80.6132
87.7041
97.1335
98.0188
92.2637
88.9637
91.1801
97.0066
84.7836
98.6274
94.031
87.5888
96.5662
85.2223
100.018
91.0952
105.949
82.849
110.359
86.3917
85.3805
91.2316
91.8242
91.2116
86.9263
91.9833
90.5459
85.3994
87.4676
81.1734
85.4083
79.7713
84.5958
90.721
85.4508
85.1082
86.8788
82.1571
84.9564
83.9457
84.707
91.0752
85.3883
104.905
91.7166
85.6718
82.1648
85.0856
84.5414
90.9103
83.886
81.98
87.1178
82.4875
81.4436
84.7171
91.1437
83.8128
82.3251
95.7484
81.7994
91.6846
84.845
87.158
87.0625
84.8286
85.6686
86.0369
85.6606
81.2068
84.7982
85.736
81.5025
86.288
85.8547
82.1631
81.5591
85.2141
87.2646
87.027
84.8423
83.8952
83.5252
85.1061
85.6823
85.7487
85.1874
86.5736
100.021
84.9618
84.5658
85.7288
90.2594
89.4274
86.5017
85.8039
84.7716
86.9735
85.8753
82.2333
84.6299
84.5734
81.2036
86.0096
87.2429
84.5732
85.3727
102.932
90.2339
86.0749
85.8024
87.1685
91.3569
83.2085
91.2611
85.7621
85.553
91.3208
83.2057
85.3732
88.4537
84.1749
110.108
86.7376
85.7011
88.3806
84.8577
85.6648
81.9208
109.344
122.761
85.8
83.3075
80.8916
87.0864
84.8258
84.7011
82.8617
85.6128
84.2708
86.0949
85.6278
83.1523
75.0127
86.6372
75.4483
85.5799
84.9949
83.3154
84.8094
86.603
84.831
83.1576
85.501
75.3209
74.7829
83.4215
83.2978
83.2965
85.0862
84.8737
84.5489
85.5452
84.6651
83.3166
83.6952
84.2842
84.5435
82.8512
85.3994
82.8776
84.7843
85.5862
84.1394
84.3491
79.4868
89.9686
76.4465
80.0018
83.6504
83.1418
86.5356
80.2069
77.3846
81.9045
80.8104
85.6107
110.124
106.241
77.1158
81.8227
85.4211
85.5458
87.3913
85.0569
85.4566
85.3502
93.3119
89.7827
110.107
77.6244
80.3283
82.6369
86.5214
84.8411
85.2289
88.8064
80.7746
89.872
87.0023
85.0673
81.6702
83.8169
91.3895
84.3687
79.5014
80.8799
83.6414
86.8094
86.5062
84.9723
81.5763
82.6621
88.1695
81.9316
80.6575
85.4158
92.6912
84.8139
91.1674
88.8474
87.9839
80.5229
86.7955
83.9973
84.6147
85.4039
84.1893
86.776
85.3184
85.1502
85.1183
87.3748
85.2511
83.5901
110.062
110.822
85.254
84.7107
85.3911
86.3654
84.5224
84.1815
84.7385
89.9088
86.5039
86.1238
85.6192
79.0897
85.8199
81.5285
83.5407
91.1668
84.0489
80.9468
84.9776
86.2385
90.6312
85.7579
84.8577
85.2201
85.6871
85.8799
89.6857
95.0506
84.3149
85.4936
85.804
88.3646
75.4563
87.4497
84.9683
96.2994
85.8168
86.0987
83.1291
82.5916
86.6321
81.9649
86.1944
86.8307
84.8279
84.7363
85.8494
93.1918
84.7702
91.2126
85.0605
86.856
84.8493
84.8013
85.2471
89.9207
83.8208
94.3236
78.9341
80.046
88.3412
90.5084
91.4703
85.2589
87.0149
83.5361
95.2819
82.0238
85.3735
85.217
81.7049
84.1677
84.3023
82.8573
85.77
81.4384
81.2194
85.7883
89.4294
84.5678
87.35
83.2688
87.5331
94.322
83.4101
80.2454
83.793
83.8617
83.0656
84.8371
86.3937
82.2304
83.9331
115.914
83.0173
87.1005
84.5867
91.0617
82.1418
86.268
87.1136
91.0336
85.0751
84.9562
82.0423
98.5843
88.3569
86.3629
84.8202
79.8065
91.0602
84.204
84.6839
85.3923
85.4476
82.6821
80.6228
86.2135
85.7775
85.1242
93.6634
88.9446
83.0198
84.641
91.3132
90.7077
83.5391
83.994
87.1957
87.2319
86.6019
86.8635
91.5227
81.8996
86.7627
81.4202
83.8248
85.6439
87.0996
91.1872
86.517
87.4896
109.927
109.153
77.0193
78.207
82.323
90.5088
86.7029
86.1936
85.9452
85.617
84.7834
85.5921
84.6516
86.2514
85.8369
87.4535
108.386
87.1682
85.8067
88.5417
84.8075
82.2699
87.2673
83.9604
91.2778
100.09
85.0513
81.8991
95.4178
82.2941
87.2909
121.49
88.0568
83.5014
84.7759
103.1
84.3143
86.7915
82.9489
81.6217
83.3707
91.7437
85.6721
83.564
102.12
88.1766
91.5532
92.7622
91.0197
86.5445
82.0293
92.1969
81.2565
83.7257
101.339
81.5866
87.6002
87.0643
100.752
100.079
87.5152
94.4635
86.7227
85.3553
84.3163
86.6486
86.9464
83.6856
111.39
87.2245
93.4298
92.1911
96.1363
96.9883
101.431
82.2112
82.7624
97.6726
99.3563
97.7006
86.964
86.2294
90.7449
91.3645
91.7363
101.279
80.8501
99.3844
103.37
95.6568
90.8994
82.0382
84.9737
101.84
93.0058
98.5515
85.4457
92.5106
87.1257
83.9742
84.9913
94.8516
87.2704
85.5545
83.6529
82.3885
84.4569
85.9266
96.8545
82.6078
87.6346
99.5004
86.9635
84.0387
85.9328
102.034
87.3554
93.5412
104.423
133.286
90.0883
91.249
87.1842
83.742
88.754
90.7422
84.8452
87.176
104.306
82.6689
87.2924
84.9777
88.2308
85.8426
81.3723
88.0466
91.8097
90.8217
82.3825
87.1022
72.3384
92.5456
92.3108
89.7288
89.8846
90.0068
93.2372
91.3806
95.9959
85.1039
84.8971
91.9014
85.4482
86.5968
82.3713
87.1972
86.2363
86.9293
84.6059
87.3585
81.5792
86.0085
84.0898
90.9497
85.6284
84.7444
92.724
108.205
93.0547
89.7111
79.397
106.393
82.9161
85.5975
85.217
91.1439
85.4631
85.9681
85.3764
87.2016
113.656
86.4071
79.408
81.5282
90.9949
91.3842
91.058
87.0849
81.7737
85.509
84.5388
88.5166
89.9855
101.61
87.2719
82.4353
109.806
92.186
86.9366
86.342
86.7863
100.195
72.4579
75.6638
85.6046
91.2562
87.1873
81.7556
86.073
86.9893
91.5948
89.0039
86.3821
77.5034
76.2942
108.736
93.0888
85
79.3756
91.436
87.3008
84.2322
86.7789
84.0814
84.3244
84.0367
84.1505
84.1939
86.0279
87.8454
105.722
108.091
93.1558
88.314
86.5876
87.7544
86.7361
91.0027
84.0068
83.9589
85.1427
86.5332
85.5217
91.6606
87.6579
84.0261
84.7151
91.7928
86.3637
91.1087
91.1994
93.1877
83.0744
91.4595
79.5003
102.203
83.9175
102.112
84.9079
88.1753
87.0621
87.6362
88.5757
86.5883
86.4062
85.0116
87.3451
82.4242
91.4212
86.6131
88.8503
86.1985
65.4509
87.5868
85.2128
88.9754
80.6309
87.3351
88.323
83.9798
100.889
81.1482
87.0158
85.8502
84.5848
86.0637
82.8148
84.0693
81.5849
84.8103
85.2819
88.6963
87.417
88.9755
87.5978
85.3287
84.459
84.4699
85.2538
81.04
79.9844
81.837
91.2068
88.2993
87.8506
85.7078
85.984
94.0663
84.3998
81.355
80.0922
79.6684
87.0813
92.6561
89.3608
89.0628
87.4712
91.5476
84.9134
85.9419
91.7896
80.584
84.7515
97.2463
71.5015
87.579
80.2058
80.1885
91.9685
73.2299
76.4412
91.8643
79.4646
87.5516
89.0828
87.2332
83.5672
81.8
91.0525
94.1923
106.791
84.377
86.9661
81.0759
85.5286
81.6613
86.7348
82.5146
84.0771
76.8756
94.0113
80.556
85.0349
85.0044
88.9185
105.651
84.13
81.5615
85.8653
85.8131
85.2943
80.6825
86.1569
90.8704
84.5703
85.5103
85.8266
87.6406
87.2424
83.3423
84.7615
82.0423
77.2867
82.593
99.5995
87.7387
80.8406
90.1095
82.5069
86.0467
72.4905
74.3822
86.6232
93.9222
79.482
110.192
84.7066
87.7833
86.962
74.6045
112.67
87.4165
88.8713
91.3922
90.4273
81.4947
86.387
90.6825
87.7821
90.274
91.3091
85.2753
87.2259
88.8586
91.9309
91.8697
87.5285
82.9068
85.0494
87.2496
111.341
87.5047
87.9229
107.565
91.2744
86.8018
87.5171
95.1018
84.4108
111.73
88.7669
89.2367
84.8419
91.9805
88.5759
88.1673
85.9618
88.5314
89.0476
71.0977
86.0636
91.8185
87.1183
87.1866
83.2723
95.0429
85.0824
87.7032
84.3674
107.976
85.6343
108.92
86.3034
85.4091
102.092
104.674
85.5852
84.4631
91.9001
87.9437
72.9322
89.3417
85.5692
87.9004
75.0486
75.9091
91.9524
87.5649
88.9375
83.8922
84.7542
85.6272
84.9804
87.139
85.5347
87.0853
84.6054
86.2293
83.0467
79.5415
87.7738
90.8145
73.566
87.1528
85.5659
91.3876
76.8058
87.2367
84.1263
87.4527
84.4283
84.6089
82.76
94.9323
102.299
91.9084
75.4256
87.7123
86.8882
84.5077
80.0185
106.187
108.534
87.2004
84.504
89.2234
91.2834
77.981
85.661
85.3201
89.5954
89.5709
108.817
87.3748
84.7871
87.0847
103.222
77.878
104.862
88.0885
86.5187
86.9435
93.5239
84.7168
92.4002
86.5548
83.086
89.6705
93.7543
88.1457
86.9172
83.5873
73.9777
84.197
85.9438
91.7558
87.3752
80.0719
79.0578
84.9987
86.8522
92.7184
86.4545
82.5178
82.9705
91.2906
91.0271
92.5058
80.5088
85.7018
84.9319
87.1925
79.3329
84.8886
84.7777
84.9449
85.4336
80.6998
89.6687
87.2094
87.6089
107.576
86.1754
110.544
90.2352
90.2037
92.9283
79.1819
87.5489
70.2999
87.8042
84.4806
73.3911
87.5758
84.0569
87.564
85.5507
85.4109
87.2206
69.5331
76.7994
81.8205
87.4228
81.2285
85.6257
109.397
87.4318
82.6773
91.2035
85.8561
85.8424
83.6568
85.6641
86.2901
83.4132
86.086
82.5125
85.3312
90.704
82.9242
91.1548
88.8605
86.1475
76.595
84.7599
85.4117
86.254
85.9847
87.0519
91.603
87.0015
90.8529
88.5449
86.6996
91.5435
93.9259
88.7888
85.0474
114.384
119.896
85.6548
85.6376
84.3442
83.5676
81.1335
85.6945
89.7227
86.7387
83.2581
82.0449
88.644
89.8674
86.1257
87.8916
82.0512
87.1406
84.0654
91.5885
87.2044
83.3688
81.2222
83.9991
82.0267
91.2021
85.5299
80.3673
89.5969
93.5554
87.5084
87.2448
85.4903
87.3237
86.4065
83.4442
86.6773
85.4329
87.7458
88.9375
85.2847
80.3185
85.3581
87.0306
79.8034
84.9143
82.9323
87.4824
85.5013
85.6466
88.2531
83.8835
92.4083
80.971
66.2111
90.9934
83.7137
87.4942
110.988
85.1504
84.8674
78.9651
87.6324
80.5885
83.2292
90.9625
85.7177
81.6046
80.5395
89.5226
83.8584
85.3715
85.1497
82.8571
86.3302
91.0655
87.0558
86.1822
85.7675
85.0081
110.805
82.9964
88.3157
88.4563
86.7523
93.4434
82.1869
93.6414
92.5354
88.0139
87.458
81.5415
85.5429
86.8246
87.2934
82.7338
115.235
79.6922
87.7558
94.9051
83.0281
107.247
90.7131
94.5619
85.9368
90.0363
85.0327
87.2286
87.5293
87.9698
75.807
87.7749
84.106
82.9432
88.5589
82.556
88.8838
88.4431
88.3395
92.0166
91.5832
90.824
88.2075
79.4514
89.5801
90.872
91.713
91.2031
85.3784
83.1504
83.4051
80.5067
92.0973
107.649
83.4025
79.7216
83.2095
80.2875
87.1676
91.1233
92.8183
72.8872
117.441
69.6233
73.4784
106.119
75.5769
78.6904
83.3951
)
;

boundaryField
{
    frontAndBack
    {
        type            empty;
    }
    wallOuter
    {
        type            zeroGradient;
    }
    inlet
    {
        type            zeroGradient;
    }
    outlet
    {
        type            fixedValue;
        value           nonuniform 0();
    }
    wallInner
    {
        type            zeroGradient;
    }
    procBoundary0to1
    {
        type            processor;
        value           nonuniform List<scalar> 
29
(
74.3599
74.5563
74.7767
74.7767
74.7668
74.7668
109.77
77.4488
79.884
76.7663
77.3469
74.9379
75.8944
74.4197
110.123
110.378
74.3423
75.2766
76.043
74.7617
110.226
110.071
76.8832
110.337
110.503
75.2766
111.138
109.643
110.337
)
;
    }
    procBoundary0to2
    {
        type            processor;
        value           nonuniform List<scalar> 
42
(
82.1418
81.6036
87.1496
86.9757
86.8056
82.1418
87.1496
87.1105
87.0092
86.8786
86.0638
84.463
86.0638
83.5691
82.432
82.3501
82.432
86.721
86.9985
75.9821
75.9821
86.721
86.4651
77.0882
77.0882
86.4667
79.1412
86.6816
80.7511
81.2942
81.2942
86.9225
87.0134
86.9943
86.97
87.1496
81.158
87.2399
80.7511
87.1105
87.0054
86.9802
)
;
    }
}


// ************************************************************************* //
