/*--------------------------------*- C++ -*----------------------------------*\
| =========                 |                                                 |
| \\      /  F ield         | OpenFOAM: The Open Source CFD Toolbox           |
|  \\    /   O peration     | Version:  v1912                                 |
|   \\  /    A nd           | Website:  www.openfoam.com                      |
|    \\/     M anipulation  |                                                 |
\*---------------------------------------------------------------------------*/
FoamFile
{
    version     2.0;
    format      ascii;
    class       volScalarField;
    location    "0.64";
    object      nut;
}
// * * * * * * * * * * * * * * * * * * * * * * * * * * * * * * * * * * * * * //

dimensions      [0 2 -1 0 0 0 0];


internalField   nonuniform List<scalar> 
5794
(
0.000695004
0.00083244
0.00503544
0.00431248
0.0114521
0.000873751
0.00097495
0.000952053
0.00219891
0.00137138
0.00204205
0.00161316
0.0013751
0.00933807
0.00168178
0.000471334
0.00945577
0.00808924
0.000832658
0.000534922
0.00140576
0.000662399
0.00143954
0.00129615
0.00121383
0.00432583
0.0121814
0.0140567
0.00362738
0.000870514
0.00133971
0.00207536
0.00234953
0.00159507
0.00246945
0.00290766
0.000785831
0.00191475
0.00174519
0.0049542
0.00457592
0.00525513
0.00074671
0.000635079
0.00128573
0.00230469
0.00200566
0.00108417
0.00164874
0.000568618
0.000519082
0.00298594
0.000817214
0.00213875
0.000118899
0.00228875
0.0019933
0.0015573
0.000738402
0.00569258
0.00133804
0.000573009
0.00165354
0.0047392
0.00554298
0.000780976
0.00337557
0.000659248
0.00628187
0.000720166
0.0061289
0.00342139
0.0153666
0.000827553
0.00661323
0.00909637
0.0004611
0.00384942
0.000630151
0.000193588
0.000400737
0.000647375
0.00730007
0.00164901
0.00189649
0.000846493
0.000733636
0.00100526
0.00225347
0.00205816
0.00496459
0.00202343
0.00325728
0.0053959
0.00247835
0.00811014
0.00391359
0.0030376
0.00187525
0.00144025
0.00141675
0.00116208
0.000765381
0.0120663
0.00103099
0.0122932
0.000493771
0.00410301
0.00511804
0.000645889
0.000666461
0.000446561
0.00131671
0.00153319
0.00222139
0.00399598
0.00278833
0.00570178
0.00124426
0.0010114
0.00766783
0.000244314
0.0008596
0.0124423
0.000854401
0.00383057
0.00374693
0.000777779
0.00349303
0.00385917
0.00192075
0.00171426
0.00331256
0.00365552
0.0101123
0.00207936
0.00305559
0.000633376
0.00153899
0.00130498
0.00126289
0.00888924
0.00078178
0.00999851
0.00181689
0.0132339
0.00189687
0.00154978
0.0105596
0.00455591
0.00072592
0.0018144
0.011589
0.000989133
0.0137426
0.00181598
0.00151039
0.00114217
0.00214326
0.00173911
0.000535325
0.00101193
0.000509441
0.00102128
0.00195252
0.00188884
0.00093427
0.000833752
0.000481373
0.000284069
0.000535373
0.00193777
0.00076105
0.000751535
0.000560727
0.000967768
0.000401048
0.00101233
0.000526399
0.00187997
0.000991404
0.00127309
0.000723559
0.00150577
0.000750324
0.00395434
0.00113192
0.00108637
0.00072613
0.000812665
0.00167225
0.00148596
0.00166893
0.00100164
0.000827947
0.00110134
0.00080552
0.000397889
0.000550036
0.00101486
0.000775344
0.00209751
0.000879643
0.000914221
0.00174896
0.00200662
0.000864398
0.00574328
0.0120322
0.00179613
0.000729084
0.000857631
0.00322825
0.00253137
0.0017289
0.00276639
0.00351836
0.00385979
0.00349352
0.00548519
0.000856331
0.00191131
0.00824913
0.00349791
0.0024383
0.00627173
0.000585585
0.00362019
0.00282408
0.00258993
0.00118673
0.00111006
0.00131293
0.00360897
0.00358587
0.00987395
0.0124988
0.00222342
0.000933476
0.000912481
0.000816019
0.00753235
0.00196729
0.00176203
0.0015728
0.00079825
0.00119885
0.00986399
0.00112266
0.000905207
0.000682643
0.000811688
0.0120977
0.000533943
0.00080915
0.0183497
0.000920309
0.000916691
0.00382951
0.000804516
0.0026917
0.0030548
0.00240186
0.000575247
0.00131096
0.000902092
0.00677016
0.00383919
0.000656098
0.00287522
0.00256251
0.00115109
0.00256291
0.00512001
0.000868398
0.00201368
0.00210617
0.00139195
0.00268849
0.00127789
0.000547038
0.00320511
0.00334383
0.00447872
0.00324034
0.00514425
0.00231081
0.00285193
0.00524771
0.00758553
0.00239873
0.00191665
0.00162737
0.0017916
0.000769514
0.00345348
0.00213243
0.00300432
0.00211428
0.000900964
0.00042901
0.000984786
0.000318471
0.00250208
0.00065248
0.00321466
0.00276201
0.00481086
0.00249958
0.00222874
0.0011868
0.00273497
0.00202439
0.00143286
0.000782793
0.000905229
0.00504238
0.0151479
0.00459015
0.00392551
0.00372317
0.00347743
0.00483129
0.0119471
0.000545085
0.00175841
0.00122307
0.00139834
0.001085
0.00187522
0.00178863
0.000825244
0.000909779
0.00146124
0.00135622
0.000846182
0.000737645
0.000404436
0.000635988
0.000891378
0.00053019
0.00083825
0.00229222
0.000838613
0.000557053
0.000647036
0.0016757
0.00136237
0.0022079
0.00181125
0.00180725
0.0022991
0.00144741
0.0012634
0.000818652
0.00271213
0.000411448
0.00189715
0.000830898
0.000819151
0.00572325
0.0031027
0.00309911
0.00218225
0.00126393
0.005392
0.0017459
0.00155045
0.00135205
0.000957286
0.00284087
0.000548418
0.00623471
0.00124222
0.00643829
0.00301375
0.0016562
0.00149461
0.00179552
0.00145937
0.00682796
0.00313495
0.000749908
0.00229354
0.00198484
0.0015092
0.00588965
0.00286935
0.0020012
0.00106166
0.000846836
0.00153437
0.00068205
0.00114359
0.000716303
0.000689248
0.000548638
0.00102017
0.00103721
0.00200631
0.00125528
0.00170396
0.0125486
0.000365862
0.00036651
0.00280331
0.000746529
0.00113308
0.000583844
0.00402404
0.00320506
0.00193399
0.00449059
0.00117199
0.00174937
0.0015201
0.000814181
0.00611651
0.00194189
0.00344481
0.00174262
0.00280633
0.00522117
0.0025597
0.000933459
0.000935804
0.000546611
0.00150791
0.000734702
0.000649558
0.00284056
0.000783797
0.00836363
0.00200927
0.00104568
0.00224026
0.00127828
0.00101949
0.00144913
0.0013695
0.00115226
0.000805322
0.000953282
0.0012603
0.0013992
0.00456871
0.0023553
0.00113054
0.000857009
0.00208495
0.000791495
0.000629202
0.00185704
0.000771177
0.00469382
0.000414945
0.00447546
0.00815724
0.00321093
0.00712223
0.000940137
0.000634016
0.000565027
0.00119587
0.00155142
0.00389929
0.00950256
0.0138865
0.00530087
0.00070412
0.000168713
0.0127941
0.00455335
0.00549791
0.00285762
0.0030552
0.016208
0.0156058
0.000881727
0.00067146
0.000689188
0.000885858
0.00176357
0.00431057
0.00533854
0.0034207
0.000861144
0.000993958
0.00286099
0.000655808
0.000727791
0.00418611
0.00408317
0.0110937
0.00070022
0.00115169
0.000951578
0.0027758
0.000535858
0.00256683
0.0163188
0.0163841
0.000727799
0.00167567
0.00957631
0.000526544
0.00114335
0.0011594
0.00495629
0.000953613
0.00810121
0.00275012
0.00789174
0.000478205
0.00111087
0.00213546
0.00363738
0.000516871
0.000804745
0.0128708
0.00143811
0.000540477
0.0130414
0.00577278
0.00447878
0.000786965
0.000913515
0.00212636
0.000498037
0.000677049
0.000873106
0.000320994
0.00887873
0.00244803
0.00557187
0.00245043
0.000785111
0.00309566
0.00389246
0.00223636
0.000626373
0.00223338
0.000569426
0.00650837
0.00118446
0.000620026
0.000754661
0.0101695
0.00118402
0.000876616
0.0120716
0.00140203
0.000420704
0.000716696
0.000869316
0.000664624
0.000858159
0.000623746
0.000465523
0.0053082
0.0188324
0.000714315
0.00353958
0.00214907
0.00701202
0.000858679
0.000620986
0.00355504
0.000281173
0.0010322
0.00167416
0.00278947
0.0014533
0.00126896
0.00156374
0.000858339
0.014758
0.00277755
0.00390176
0.00298305
0.00466969
0.00244611
0.00772994
0.00698261
0.00331599
0.00142417
0.00127391
0.00421103
0.00236981
0.00479884
0.00101784
0.00103802
0.000688592
0.00519997
0.00242098
0.00321509
0.0014121
0.000831111
0.000756058
0.00245814
0.000810071
0.0018159
0.00249357
0.00548593
0.000563864
0.00280849
0.00381859
0.000753812
0.000139072
0.00560041
0.0149633
0.0181556
0.0107187
0.000771638
0.00124645
0.000772899
0.00236384
0.00102961
0.000875892
0.00159328
0.000288163
0.00352207
0.00428933
0.00550551
0.000429543
0.000818659
0.00145537
0.00812672
0.00607488
0.00114563
0.000826235
0.000946596
0.00025917
0.00133313
0.000581546
0.00259157
0.00440924
0.000808916
0.00341172
0.0135729
0.00096227
0.000870819
0.00390991
0.0024777
0.0029365
0.00530881
0.00226528
0.00101285
0.00293205
0.000676247
0.000418084
0.000859439
0.00289825
0.000592786
0.000756712
0.00314192
0.014389
0.00229148
0.00202566
0.00278591
0.00236355
0.000979688
0.000671998
0.000852662
0.000683163
0.0028318
0.00553992
0.00536884
0.00232326
0.00274615
0.00220323
0.000961588
0.0118231
0.00156258
0.00150853
0.00265572
0.0057855
0.000902025
0.010898
0.000984636
0.000663735
0.00506528
0.0023242
0.000706815
0.00551147
0.0028775
0.00355641
0.0023369
0.00258419
0.00058269
0.00411709
0.00812049
0.00427221
0.00303446
0.00154063
0.00192832
0.00621373
0.000320101
0.000439569
0.000769403
0.000601824
0.000663409
0.00031075
0.000985509
0.00541838
0.00329732
0.00266963
0.00365068
0.00309179
0.00685554
0.00117435
0.00767039
0.00333834
0.00273841
0.00450544
0.00077513
0.000732853
0.0164809
0.00330348
0.00524114
0.00757436
0.00464432
0.0032019
0.00175813
0.0174242
0.000876059
0.000821754
0.000818475
0.00798848
0.000957732
0.0026875
0.00320706
0.00637435
0.00241117
0.00169214
0.00324338
0.00593842
0.00446581
0.00201575
0.00323532
0.00455717
0.00029792
0.000242441
0.000444456
0.00047638
0.00469895
0.00247053
0.00455311
0.000714114
0.000802795
0.000623212
0.000735211
0.00169961
0.000431743
0.00242043
0.00506808
0.000755512
0.00589609
0.00258866
0.00071023
0.000865176
0.017741
0.00470407
0.00282389
0.00580106
0.00577573
0.00262932
0.00343232
0.000695664
0.00385152
0.00226062
0.00453023
0.00568848
0.00311689
0.0058377
0.000799655
0.000766168
0.000900965
0.0102731
0.000892389
0.0063458
0.0153804
0.000602769
0.000905224
0.000543652
0.00486602
0.0026104
0.00661436
0.00506384
0.00248011
0.00110685
0.00569422
0.00677602
0.00422439
0.00109972
0.00272422
0.000694051
0.0026382
0.000713295
0.00413601
0.000862575
0.00552764
0.00550766
0.00132007
0.000631188
0.00193973
0.00629432
0.0055697
0.00320156
0.0087063
0.00319397
0.00123279
0.000926145
0.00109933
0.00955197
0.00119355
0.00290513
0.00296668
0.00802868
0.000494314
0.00079872
0.000851967
0.0014273
0.0127166
0.00120427
0.000768557
0.00238715
0.00533936
0.00170271
0.00244897
0.00453561
0.00471714
0.000771151
0.00197216
0.00772299
0.00509599
0.00327102
0.0174851
0.000384981
0.000231011
0.0003616
0.00066989
0.00461397
0.00193969
0.000875329
0.00107097
0.00110497
0.00070927
0.000839157
0.018716
0.00253352
0.00570925
0.00161627
0.00236975
0.00371375
0.00316728
0.0123996
0.00304068
0.000984902
0.000669124
0.000752242
0.0052388
0.000789991
0.00514475
0.00748096
0.0035598
0.00507778
0.00395248
0.0012804
0.012465
0.00168905
0.000772968
0.00328794
0.0010529
0.00465721
0.00261961
0.00313526
0.00360686
0.000826471
0.000752344
0.000678165
0.00507132
0.00379739
0.000912647
0.000735118
0.00278971
0.00108655
0.00405575
0.00067266
0.00079919
0.00290842
0.00408404
0.0028059
0.00587501
0.00329216
0.00595403
0.0100814
0.000607624
0.000815202
0.00432169
0.00116759
0.00247926
0.000586568
0.00131611
0.00225442
0.000436898
0.000789956
0.00111323
0.00574948
0.00337036
0.00461902
0.000844905
0.00301155
0.00555299
0.0149296
0.00198908
0.00315143
0.000784472
0.000919561
0.0141028
0.00109989
0.00364108
0.0008319
0.00133005
0.000954112
0.00144224
0.000256827
0.00193579
0.00124021
0.00056217
0.000515917
0.0004989
0.000215368
0.000252158
0.000660796
0.0111508
0.0137314
0.0031838
0.00172749
0.00269409
0.00583394
0.000763768
0.000558201
0.00105199
0.00801622
0.00110077
0.0175681
0.00609665
0.0023491
0.00078546
0.00746795
0.00159177
0.000691757
0.000754887
0.0189109
0.00545001
0.000834149
0.000797102
0.000878179
0.00342707
0.00148675
0.0106012
0.000741875
0.000529835
0.000652966
0.000645528
0.000599229
0.00258505
0.00103063
0.00104553
0.000644246
0.000788833
0.000789206
0.0107353
0.000782098
0.00301561
0.00116739
0.00170498
0.000831587
0.00117844
0.00115751
0.00118222
0.000715924
0.000935422
0.000756267
0.00252553
0.000762662
0.00102417
0.00483817
0.00085128
0.00083368
0.00335069
0.000923175
0.000830209
0.00206235
0.000776665
0.0174586
0.00207151
0.000609339
0.000825741
0.000875344
0.0090466
0.00100592
0.00279978
0.00248293
0.00530617
0.000844994
0.000840885
0.00102412
0.000595418
0.000836631
0.00128823
0.00188424
0.00165748
0.00142818
0.000203418
0.00174778
0.00141001
0.000998745
0.00106811
0.00170316
0.000480664
0.000834832
0.000622654
0.000962955
0.000746573
0.00971152
0.000796229
0.00325664
0.000789865
0.000782902
0.000735988
0.000327567
0.000933984
0.000821517
0.00870544
0.0102456
0.00425663
0.000642452
0.000826659
0.00348479
0.000834177
0.00473127
0.00116662
0.00335894
0.00507714
0.000821839
0.00684262
0.000507735
0.000841384
0.00608017
0.00075207
0.0122047
0.000729742
0.000551679
0.00458381
0.00625594
0.000652431
0.00287138
0.000670569
0.00140742
0.000529821
0.000647562
0.00198263
0.000865115
0.000830368
0.000816207
0.00190412
0.00115717
0.00120736
0.00128797
0.0040715
0.000994091
0.000723883
0.00535655
0.00240181
0.00189465
0.000713883
0.00563869
0.00514344
0.00519243
0.0088877
0.00190754
0.00107704
0.000336179
0.0149723
0.00242413
0.0044269
0.0028194
0.014856
0.00218854
0.000246303
0.00109566
0.000392896
0.000315427
0.00296238
0.000349688
0.00113156
0.00110526
0.000298211
0.00108368
0.000179359
0.000269693
0.00061606
0.000528049
0.00114899
0.00404337
0.00283083
0.00593618
0.000498081
0.00139887
0.00297095
0.00141688
0.000552505
0.000789399
0.00970303
0.000814499
0.00289675
0.00103235
0.00074318
0.000934812
0.0173593
0.0109121
0.000579322
0.0028311
0.00557903
0.0048757
0.00923883
0.000741792
0.00607409
0.00481683
0.00329638
0.000975765
0.0085682
0.000726134
0.000725815
0.00257753
0.00183833
0.00129206
0.000648043
0.014383
0.00107275
0.000584663
0.00321219
0.00484797
0.00494433
0.000764168
0.000626979
0.000869598
0.000945503
0.00167459
0.000750014
0.0114763
0.00171647
0.00403814
0.00504968
0.0042273
0.00160353
0.0010916
0.00352177
0.00118251
0.000778315
0.00102935
0.000627393
0.00115356
0.000779303
0.0162931
0.000980294
0.000827
0.000753398
0.000921113
0.000832229
0.000776225
0.000868289
0.000745691
0.00264491
0.0019441
0.00614703
0.000734535
0.000743302
0.000868682
0.000587871
0.00185227
0.0100634
0.00186853
0.000603539
0.000685366
0.000758398
0.00377454
0.000803764
0.000703482
0.000587654
0.000856423
0.000843624
0.00105386
0.000693905
0.00832878
0.000528534
0.0145922
0.000564119
0.00207424
0.000974077
0.00108038
0.000641908
0.00322096
0.0020403
0.000744375
0.000588282
0.000621518
0.00102397
0.00157594
0.0011189
0.00294824
0.000781393
0.00222725
0.00140545
0.00458324
0.00597946
0.00440085
0.00082841
0.000205483
0.00877349
0.00150166
0.00550349
0.00645145
0.000480385
0.000891815
0.00110313
0.00571268
0.000286671
0.0110029
0.00569615
0.00111344
0.0112826
0.00858108
0.00123469
0.000523054
0.00799478
0.0179895
0.00965499
0.001347
0.00149113
0.00148629
0.0029796
0.000835861
0.000340488
0.000805111
0.000783518
0.00183671
0.00131665
0.000383599
0.00287981
0.000959961
0.000430378
0.000694
0.00459755
0.0117015
0.00078042
0.00479431
0.00374426
0.00800189
0.0124332
0.00330744
0.00240446
0.000794795
0.00538792
0.00155356
0.00867307
0.00549426
0.00251954
0.00377834
0.00560916
0.00945574
0.00469613
0.0139621
0.00431615
0.002583
0.00298959
0.0138399
0.00116808
0.0043058
0.00332483
0.00396671
0.00395076
0.00850513
0.00725368
0.00659744
0.00958286
0.00100828
0.000327137
0.000806414
0.00735623
0.000483182
0.00452391
0.00184189
0.000830828
0.00447025
0.00374058
0.00652454
0.000500341
0.00913911
0.00161898
0.0030056
0.00161215
0.00128681
0.00189608
0.000801017
0.00672508
0.000691368
0.000712855
0.000916373
0.0124022
0.0022928
0.00190281
0.00283569
0.00631643
0.00286773
0.00188399
0.0111421
0.00343408
0.000785913
0.000157117
0.00584235
0.00496305
0.00785464
0.00660874
0.000906437
0.000645354
0.00493641
0.00568131
0.00094087
0.00148925
0.00126308
0.00149853
0.00104896
0.00736752
0.00116993
0.00281165
0.00570618
0.00130724
0.00577593
0.00275981
0.000903886
0.00133266
0.0016311
0.00140016
0.00102877
0.000981327
0.00195436
0.00135276
0.000498996
0.00181124
0.000679398
0.000822358
0.00760103
0.00298993
0.00540102
0.000990261
0.00412917
0.00513771
0.00744763
0.000936474
0.00191672
0.001582
0.00243637
0.000269286
0.000224822
0.000347949
0.0184832
0.000826288
0.00254414
0.00207362
0.00388062
0.00416152
0.00173075
0.000399172
0.000307286
0.000244107
0.000441282
0.00018257
0.000526189
0.000272063
0.000316241
0.000418958
0.000273748
0.00020902
0.000366551
0.00028984
0.000256059
0.000259391
0.000183919
0.000515858
0.000336281
0.000232494
0.000259448
0.000405104
0.000228756
0.000259274
0.000193522
0.000389896
0.000363485
0.000399652
0.000177018
0.000203698
0.000343949
0.000447494
0.000365879
0.000337213
0.000179583
0.000167559
0.000430393
0.000213467
0.000398992
0.000326304
0.000272382
0.000276837
0.000283337
0.000385852
0.000480578
0.00262249
0.00174549
0.0111673
0.000829293
0.00349222
0.00291614
0.00522493
0.00898819
0.00320861
0.000681951
0.000857517
0.00321618
0.00148005
0.00570612
0.0191979
0.0129277
0.00542887
0.00162319
0.00226075
0.0022676
0.000872878
0.00191482
0.000261999
0.00434839
0.00127068
0.00495062
0.0026053
0.00246317
0.00481514
0.00197438
0.0052619
0.0122737
0.00954292
0.0195679
0.00238484
0.00429606
0.00273144
0.000768871
0.0162893
0.0016246
0.00115523
0.00881579
0.00254879
0.00151183
0.00245294
0.00150614
0.00180559
0.000841888
0.000848841
0.0177689
0.00161796
0.000474404
0.000250105
0.00953735
0.0115338
0.000273381
0.0038382
0.00822912
0.000360275
0.000196273
0.00022987
0.000423594
0.000485216
0.000379026
0.000207408
0.0003512
0.000349317
0.000230797
0.000547533
0.000375473
0.000272173
0.000502662
0.000263289
0.000243005
0.000382473
0.000252807
0.00016851
0.000236358
0.000233
0.000420537
0.000202076
0.00348294
0.00255396
0.00043467
0.000910676
0.0077841
0.000848691
0.00952347
0.000597583
0.00313587
0.00947263
0.00602969
0.00304924
0.0116082
0.0062313
0.000257631
0.0115169
0.00226768
0.00420915
0.0181796
0.0048321
0.00809019
0.000603904
0.0148898
0.00172535
0.000896191
0.0148263
0.000926914
0.00333668
0.00233848
0.000660032
0.000641896
0.00681932
0.000857555
0.0107891
0.0130534
0.0013752
0.00710564
0.000815968
0.00977174
0.00182007
0.00124182
0.00147931
0.00587716
0.00186639
0.0025694
0.00269825
0.00101826
0.00697908
0.000834635
0.00295208
0.000638145
0.00743833
0.00884529
0.0182885
0.000172502
0.000771643
0.00106714
0.00790312
0.00302916
0.000358027
0.000657298
0.00282644
0.00249397
0.0141553
0.000832664
0.00125229
0.00121874
0.00116907
0.00197961
0.000989955
0.00884017
0.000465207
0.000196073
0.00030116
0.00910743
0.00627237
0.000777913
0.00701786
0.00483832
0.000618136
0.0140546
0.0138506
0.0108171
0.0138577
0.0144623
0.000887089
0.00737544
0.000729831
0.00312393
0.00227722
0.00824565
0.000728259
0.00147279
0.0012516
0.0118116
0.000383456
0.00156748
0.0015902
0.00226408
0.00169587
0.0105256
0.0136004
0.0093268
0.00354583
0.000830526
0.0147193
0.000454884
0.00227531
0.002189
0.0011733
0.0061092
0.0120643
0.00320027
0.0133251
0.00293777
0.00764028
0.00147823
0.001375
0.00198514
0.00279764
0.00106863
0.00164971
0.0026204
0.0131643
0.00100916
0.00217182
0.00377962
0.00340993
0.00147488
0.00306262
0.0034518
0.0141917
0.00391576
0.00483073
0.00424419
0.00131623
0.00130931
0.00237543
0.00347992
0.00144558
0.00135172
0.00360371
0.0162657
0.0160252
0.0109641
0.0122774
0.0157379
0.0113788
0.015811
0.000681005
0.0156943
0.015901
0.0118824
0.0135967
0.0162961
0.0128959
0.0155442
0.016331
0.015848
0.00152545
0.00150031
0.00219156
0.0121911
0.00122762
0.00202951
0.00196918
0.00123903
0.000228567
0.000338862
0.00844015
0.0152168
0.00656375
0.00312394
0.00251119
0.0082396
0.0150559
0.00845545
0.00367469
0.00168816
0.00133068
0.00172825
0.00468715
0.00937269
0.00343097
0.00151493
0.002907
0.0042849
0.00181825
0.00459511
0.00242667
0.00740407
0.00287076
0.000792974
0.00191878
0.000401732
0.00744896
0.00141593
0.00138868
0.00125193
0.00165414
0.00316011
0.00281258
0.0026197
0.00402603
0.00380758
0.0017633
0.00295854
0.0113464
0.0030414
0.00275674
0.00298753
0.00345826
0.00946909
0.00139562
0.00195225
0.00950547
0.00474801
0.00305734
0.00288026
0.00207186
0.00316306
0.010645
0.00332466
0.00192857
0.00245676
0.00188081
0.00488205
0.00178922
0.0163003
0.00288236
0.00204224
0.00250221
0.0023291
0.00428662
0.00137049
0.00159856
0.0030233
0.00556926
0.00393114
0.0154752
0.00958356
0.001634
0.0104337
0.0020841
0.00313637
0.00439726
0.00145073
0.00292503
0.00168534
0.0147559
0.00453485
0.00330669
0.00145505
0.0078245
0.0139472
0.00111129
0.00151493
0.00601389
0.00594609
0.00413449
0.00332717
0.000969418
0.00137881
0.00649677
0.00569153
0.005118
0.012478
0.0122343
0.00199495
0.00561511
0.00046091
0.00163924
0.00692143
0.00151163
0.00131496
0.00171898
0.00116952
0.00347203
0.00120023
0.00481766
0.00064801
0.00539204
0.00642715
0.00148861
0.00663614
0.00290407
0.00612114
0.00118958
0.00372225
0.00133825
0.00707208
0.00617674
0.00161313
0.00342379
0.00285484
0.00102128
0.00106545
0.00620523
0.00559655
0.00161633
0.00187937
0.00045637
0.000819236
0.000661335
0.00820927
0.0016953
0.00139408
0.00586707
0.00678009
0.0044841
0.00176753
0.00124438
0.00871088
0.00118293
0.00160691
0.00181459
0.00542926
0.00264577
0.00319315
0.000498613
0.0078017
0.00824555
0.0123894
0.00156535
0.00830862
0.00568764
0.000807212
0.00758163
0.00929167
0.00104378
0.00239996
0.00569796
0.00135416
0.00370005
0.00481279
0.00849369
0.00934309
0.000316871
0.005559
0.00137382
0.00500687
0.00288727
0.00259588
0.00919599
0.0090455
0.00878234
0.000994784
0.00162757
0.00432698
0.000599332
0.00921164
0.00100723
0.00688582
0.0013307
0.00333232
0.00133114
0.00020894
0.00556005
0.00138442
0.00641329
0.00158418
0.00110881
0.00598522
0.00136544
0.00140498
0.00553763
0.00281733
0.00288682
0.00151776
0.000963111
0.000721191
0.00288622
0.00175633
0.00352966
0.000273517
0.00121051
0.000235089
0.0120215
0.00138517
0.0023547
0.00221107
0.00226351
0.000984468
0.00316929
0.00149028
0.00146273
0.0051665
0.0021592
0.00144214
0.00247825
0.0014355
0.00294651
0.00155511
0.00153982
0.00523052
0.00453463
0.00169174
0.00539356
0.00280209
0.00197048
0.00146268
0.00115995
0.0112903
0.000905061
0.00214165
0.00261417
0.012767
0.0010943
0.000988686
0.00249503
0.00929564
0.00155284
0.00142904
0.00379913
0.00276797
0.00147108
0.00139066
0.00152473
0.00110198
0.00118257
0.00577418
0.00242876
0.000561944
0.0107883
0.0122825
0.00126682
0.000745811
0.00143438
0.0022806
0.00822868
0.00198526
0.00121055
0.00139367
0.00219344
0.0013666
0.0016616
0.00196351
0.00464687
0.00516059
0.00176809
0.00104962
0.00290623
0.00203239
0.00108402
0.00296546
0.00197987
0.0141687
0.00795056
0.00787966
0.0134614
0.00224855
0.00184671
0.0076685
0.00959403
0.00148142
0.00190456
0.0025152
0.00128763
0.00142549
0.00506092
0.00627453
0.00149256
0.00617878
0.00237867
0.00230461
0.00324976
0.00387558
0.00267054
0.000591992
0.00325396
0.000722095
0.0118095
0.0013319
0.00105788
0.00721534
0.000799662
0.000853856
0.0105976
0.000513687
0.00266789
0.00162528
0.00196024
0.00174648
0.00921565
0.00388756
0.00579356
0.00226757
0.00335668
0.00313751
0.00352784
0.00514875
0.00788415
0.000463466
0.000442474
0.000692239
0.000613947
0.000644223
0.00444267
0.00196473
0.00111199
0.00126455
0.00349085
0.00462303
0.00521596
0.000331571
0.0101072
0.00861091
0.00213596
0.000721607
0.00273612
0.00529628
0.00508897
0.000644347
0.000910195
0.00976256
0.00137762
0.00148353
0.00221568
0.00856257
0.00521629
0.00118991
0.00417283
0.00950344
0.00380266
0.00217593
0.0020303
0.00165179
0.000516508
0.000837183
0.00131187
0.00172087
0.00142319
0.00236207
0.0148413
0.00458201
0.00409474
0.00258106
0.00162641
0.0160214
0.00956068
0.0148227
0.0143738
0.00638949
0.00193718
0.00394209
0.0012548
0.000772243
0.00142845
0.00883393
0.0124134
0.0112519
0.00205672
0.00847835
0.00730465
0.00616297
0.00607945
0.00129511
0.0016288
0.00213584
0.00108938
0.00124875
0.00206833
0.00172609
0.00220049
0.00606012
0.00747737
0.00142608
0.0151548
0.00691676
0.00934603
0.00375386
0.00383838
0.00102697
0.00110978
0.000936334
0.000851345
0.00144393
0.000741384
0.00860821
0.00127017
0.000792276
0.0019614
0.00353546
0.0040877
0.00342569
0.0040106
0.00611052
0.00295938
0.0054285
0.00573591
0.00205737
0.00131347
0.0036337
0.0028702
0.000355848
0.000831676
0.00136562
0.00293094
0.0159675
0.00252637
0.00158567
0.0015317
0.00578445
0.00129985
0.00716011
0.00780569
0.00145335
0.00176173
0.00139627
0.001533
0.00234728
0.00626161
0.00165475
0.0039311
0.00110104
0.00450309
0.0152174
0.00816252
0.00223931
0.00646888
0.00267796
0.00560815
0.0119721
0.00546868
0.00127107
0.000832505
0.000744239
0.00126051
0.00421608
0.00501774
0.00251217
0.000891694
0.00626849
0.00878386
0.00317398
0.00613583
0.0014159
0.00740814
0.00572573
0.0017097
0.0021182
0.00540766
0.00792703
0.0144518
0.00146639
0.0133033
0.0015067
0.00927583
0.00186086
0.00641263
0.0102679
0.00245641
0.00285395
0.000788884
0.00520623
0.00337185
0.00187324
0.000255574
0.000228208
0.00729915
0.0070449
0.00888593
0.0065435
0.0131117
0.0108728
0.000795534
0.00456979
0.00412987
0.00396623
0.00270126
0.00667503
0.00929559
0.0015261
0.000975746
0.0011942
0.00727255
0.00159426
0.0137644
0.00413977
0.000891212
0.0097207
0.00144673
0.00171683
0.00875115
0.0147813
0.0142853
0.011408
0.000421077
0.00108065
0.00763028
0.00635438
0.0157921
0.015505
0.00272607
0.0114454
0.00245094
0.00125415
0.00373427
0.00304591
0.0124297
0.00601881
0.0126386
0.00219641
0.00121496
0.00676884
0.00396217
0.0029959
0.00200637
0.00417045
0.0079713
0.00131772
0.00174149
0.00399629
0.00717046
0.0143263
0.00553269
0.00252287
0.0147722
0.00104162
0.000757071
0.00185788
0.00936181
0.00865423
0.00790058
0.0048747
0.000957538
0.000980031
0.00648489
0.00165643
0.00619744
0.00815901
0.00329592
0.00664193
0.00272514
0.00721486
0.00855185
0.0150309
0.00238447
0.00169886
0.00248608
0.0018286
0.00115802
0.00722948
0.000996016
0.00221323
0.0158459
0.0143919
0.0161098
0.00905207
0.00987646
0.00196509
0.00669394
0.00158934
0.00954222
0.0160043
0.006288
0.00943913
0.000737707
0.00228029
0.00311209
0.0101548
0.00279757
0.00587474
0.00204269
0.0061399
0.00336453
0.00301552
0.00401179
0.000421427
0.013785
0.00111612
0.00870132
0.000791495
0.00836979
0.00157196
0.0020858
0.00708403
0.00877849
0.00124919
0.00801253
0.0153991
0.0025326
0.000568601
0.0102378
0.00220587
0.00174533
0.00189252
0.000517781
0.000677226
0.00385995
0.0126742
0.0114275
0.00601884
0.00601197
0.010209
0.00132789
0.00461945
0.00195666
0.00541976
0.0006719
0.00106674
0.00948395
0.0043459
0.00170872
0.00199178
0.0165619
0.00204131
0.000947101
0.00056783
0.00146295
0.00264166
0.00079755
0.00581049
0.00187307
0.00948129
0.00158006
0.0041449
0.000951779
0.0129986
0.00558618
0.015798
0.00400891
0.00179418
0.00536279
0.00488652
0.00308877
0.000753327
0.0113559
0.00229812
0.0012339
0.00173799
0.000776529
0.0147578
0.00144612
0.0166062
0.00803097
0.000930297
0.00852836
0.000799177
0.0162432
0.00990108
0.00336475
0.00204935
0.00219476
0.01306
0.000848173
0.000766946
0.000757842
0.0052593
0.000869737
0.000947605
0.00790573
0.00445136
0.00755097
0.0025185
0.00586349
0.00108617
0.0161613
0.00885416
0.00445738
0.000736503
0.00413343
0.00750366
0.000444655
0.000232616
0.000301272
0.0119361
0.00218611
0.0124253
0.00309469
0.00374884
0.00885615
0.0144787
0.00184771
0.00304724
0.0065474
0.00475359
0.00249014
0.00456031
0.000628513
0.00561266
0.000688819
0.0016599
0.0009383
0.00114385
0.0032033
0.00202666
0.00644363
0.00301142
0.00318246
0.0158097
0.00712525
0.00721794
0.00902743
0.00158473
0.000741071
0.00294477
0.00140879
0.00863463
0.00545796
0.00843677
0.00803334
0.000995824
0.000902856
0.00109191
0.00372999
0.00136378
0.00816377
0.00182106
0.00119625
0.0026425
0.00944689
0.00342164
0.0154152
0.000646481
0.00911627
0.0014029
0.00301766
0.00151377
0.00589841
0.00839086
0.0025419
0.00158669
0.00479766
0.00591966
0.00130573
0.00205906
0.0116738
0.0108969
0.00632673
0.00793596
0.00656603
0.0163647
0.0135578
0.00166787
0.00313046
0.00301012
0.00169858
0.00355587
0.00764125
0.0132917
0.000742063
0.00517463
0.00198852
0.00222785
0.00275063
0.00286722
0.00265639
0.00433759
0.000442732
0.00770319
0.00915015
0.001286
0.00228991
0.00116766
0.00690162
0.00352368
0.00286086
0.000592048
0.00312247
0.0104536
0.00780123
0.00415404
0.00237446
0.00261653
0.000793273
0.000989127
0.000763398
0.000745391
0.00269106
0.00185722
0.00123549
0.00199458
0.0128829
0.000455437
0.00323871
0.00191245
0.000923964
0.00581997
0.00100404
0.000819147
0.00090378
0.00192381
0.00250553
0.00209979
0.00128219
0.00193352
0.00475669
0.000871643
0.00133979
0.00741688
0.00794147
0.000804225
0.00593094
0.00147601
0.00312453
0.00432729
0.00663288
0.00817744
0.000790275
0.000633838
0.000214371
0.000562779
0.00158356
0.0113234
0.0033255
0.016623
0.00569279
0.00199385
0.00809383
0.00138469
0.000805079
0.00416952
0.00467465
0.00861052
0.00673489
0.00112995
0.000868956
0.00108132
0.00072926
0.00131849
0.013994
0.00176669
0.00561198
0.00408952
0.000583932
0.00196057
0.000669449
0.00102837
0.00247858
0.00937577
0.0133236
0.0120323
0.0100096
0.000660668
0.000707834
0.00631853
0.013057
0.00308786
0.00715955
0.00544565
0.00555146
0.00120613
0.000806231
0.00077455
0.0078947
0.00869425
0.00202636
0.00208381
0.00185391
0.0033771
0.00456514
0.00124647
0.00292889
0.00704652
0.0134528
0.0100006
0.00055369
0.0121117
0.00126487
0.00684324
0.00615315
0.00380513
0.00467282
0.00381004
0.00161672
0.0064286
0.0149023
0.0126077
0.00132333
0.00106513
0.000818623
0.00062076
0.000712775
0.00155122
0.00247744
0.00434266
0.00705629
0.00581393
0.00204354
0.000587726
0.0114634
0.000755164
0.001077
0.00376749
0.0102182
0.0042674
0.0042717
0.00694182
0.00829683
0.000820253
0.00084107
0.00272168
0.0050322
0.00781789
0.00115705
0.00757766
0.0086911
0.00288268
0.00569828
0.000950381
0.00117739
0.000640437
0.00124427
0.000326134
0.000632625
0.000657838
0.000738783
0.000827446
0.000407262
0.000226094
0.000283582
0.0166938
0.0123582
0.000848067
0.00897026
0.00200353
0.00892202
0.00719929
0.00591262
0.00493946
0.0113307
0.00978001
0.00646282
0.00464828
0.00364023
0.0089118
0.00191913
0.00092484
0.000889271
0.00185625
0.0010796