/*--------------------------------*- C++ -*----------------------------------*\
| =========                 |                                                 |
| \\      /  F ield         | OpenFOAM: The Open Source CFD Toolbox           |
|  \\    /   O peration     | Version:  v1912                                 |
|   \\  /    A nd           | Website:  www.openfoam.com                      |
|    \\/     M anipulation  |                                                 |
\*---------------------------------------------------------------------------*/
FoamFile
{
    version     2.0;
    format      ascii;
    class       surfaceScalarField;
    location    "0.64";
    object      phi;
}
// * * * * * * * * * * * * * * * * * * * * * * * * * * * * * * * * * * * * * //

dimensions      [0 3 -1 0 0 0 0];
oriented        oriented;


internalField   nonuniform List<scalar> 
11117
(
-2.69139e-06
-3.36771e-05
7.56117e-07
3.56124e-05
-1.08116e-05
0.000126886
4.5943e-06
-0.000120668
-4.0421e-05
5.92724e-05
-0.000103682
8.48302e-05
-0.000406019
-1.7705e-05
0.000195079
0.000228645
0.000191834
0.000185738
-0.000135088
-0.000242484
-1.99942e-05
6.01035e-06
-3.43895e-05
4.83733e-05
-0.000180459
9.33974e-06
9.95849e-05
7.15342e-05
-7.18115e-05
3.12852e-05
-1.35927e-05
5.4119e-05
0.00129488
0.000250116
-0.000948733
-0.000596266
-0.000202427
0.000209731
-4.89357e-05
4.16316e-05
-0.000852855
0.00092106
0.000296457
-0.000364661
-0.000578454
-0.000173544
0.000406365
0.000345633
-0.000323817
-0.000227678
0.000210387
0.000341107
0.000811581
-0.000957558
0.000424727
-0.00027875
0.000122364
-0.000116124
6.78681e-05
-7.41072e-05
3.39041e-05
5.20871e-05
-3.07941e-05
-5.51971e-05
-9.32669e-05
8.87333e-05
-2.62628e-05
3.07963e-05
-0.000573654
0.000591109
0.000687608
-0.000705063
5.70199e-05
0.000179122
-0.000113779
-1.85502e-05
1.00326e-05
0.000147225
-0.000138708
-0.000324072
0.000183187
7.10885e-05
6.97963e-05
-1.35604e-05
7.43512e-06
1.35096e-05
-7.38432e-06
0.000232075
0.000163332
-0.000124435
-0.000270972
0.000127562
0.00012411
-9.43227e-05
-0.000157349
0.000322129
0.000192803
-0.00034498
-0.000169951
0.000969068
-0.00100294
0.000278615
-0.000244745
0.000243238
-0.000342415
0.000689363
-0.000590186
-0.000153711
0.000225255
-0.000215084
0.00014354
8.00059e-05
3.19372e-06
0.000995458
-0.00107866
0.000134743
-9.0386e-05
0.000102793
-0.00014715
-0.000238993
-0.000275588
0.000412782
0.000101799
-0.000110695
-0.000409593
0.000363345
0.000156943
-0.000116912
-0.000441093
0.000371871
0.000186134
8.58116e-05
2.68485e-05
1.47155e-06
-0.000114132
-0.000240396
0.000112489
-7.5859e-05
0.000203766
-0.000180416
0.000105043
-6.28185e-05
0.000138191
0.000606111
-0.000825766
0.00100633
-0.00078667
0.000555021
-0.000657027
-0.000214903
0.000316909
0.00031836
-5.57341e-05
-0.000507811
0.000245185
0.000157312
0.000450482
-0.000526743
-8.10504e-05
0.000141248
0.000449562
-0.000474707
-0.000116103
7.01479e-05
0.000140488
-0.000185034
-2.56023e-05
0.00101244
0.000891259
-0.000895496
-0.00100821
0.000244464
8.33671e-05
-5.46218e-05
-0.000273209
0.000160272
4.5581e-05
-0.000148833
-0.00094316
0.000748896
-0.000227818
0.000422081
-0.000853451
0.000677784
-0.000209505
0.000385171
1.03377e-06
-0.000148506
0.0001401
7.3722e-06
7.76131e-05
-4.19649e-05
2.41313e-05
-5.97796e-05
-8.97747e-05
0.000109964
-2.01894e-05
-6.99494e-05
-1.01134e-05
8.00628e-05
-0.000359073
-0.00119638
0.000539799
0.00101566
0.000114079
-9.04708e-05
9.82922e-05
-0.0001219
-3.90687e-05
4.45626e-05
-2.44761e-05
1.89822e-05
1.12464e-05
-1.12464e-05
0.000425473
0.000175116
-0.000555682
-4.49076e-05
0.000388434
0.000153193
-0.000503222
-3.84048e-05
-0.000181705
7.14809e-06
0.000210988
-3.64314e-05
0.000893278
0.000115356
-0.00137835
0.00036972
-0.000382548
0.000822411
0.000529205
0.00084336
-0.00085966
4.51973e-05
-2.88966e-05
0.000142128
-5.59148e-05
-7.40013e-05
-1.22122e-05
-0.000159116
-2.54658e-05
-5.44109e-05
8.23073e-05
-3.00035e-05
-0.000162999
0.000114583
-3.7691e-05
-0.000193804
-3.17151e-05
-0.000104597
8.44579e-05
5.1854e-05
0.000132609
-0.000116811
4.85165e-05
-6.43144e-05
2.06284e-06
-0.000339681
0.000337618
-0.000689344
-0.000338733
0.000564601
0.000463476
-2.22233e-06
4.81491e-05
1.82381e-06
-4.77506e-05
0.000496426
-0.000150145
-0.000705354
-0.000197815
0.000189351
0.000141072
-0.000271167
-0.00126636
0.00130378
0.00023375
-7.9864e-05
0.000203458
-0.000152073
2.84792e-05
-0.000736122
-0.000526876
-6.3576e-05
-2.04255e-06
0.000143244
-7.76254e-05
-3.37898e-05
-3.17474e-05
6.55372e-05
-0.000978773
-0.000156032
0.000131867
0.000195699
0.000103277
-5.45113e-05
3.3094e-05
-1.14759e-05
-2.16181e-05
-2.45512e-05
7.01737e-06
-3.76993e-06
2.13038e-05
8.03103e-05
4.49222e-05
-5.738e-06
-0.000119494
0.000144587
-0.000113034
0.00031634
-0.000347892
-0.000216605
8.33575e-05
0.000252424
-0.000119177
-0.000302162
0.000283879
0.000306732
-0.00028845
5.4134e-05
-0.000431421
0.000377287
-1.84618e-05
-0.00057938
0.000597842
3.00424e-05
-0.000476376
0.000446333
2.23497e-05
1.97354e-05
8.92185e-05
-0.000131304
-7.16739e-05
3.72829e-05
0.000110048
-7.56569e-05
0.000518367
-0.000153211
7.74977e-05
-0.000442654
0.000670353
5.7829e-05
-6.33431e-05
-0.000664839
0.000681382
-3.59014e-05
4.75433e-05
-0.000693024
-0.000695712
3.80869e-05
-2.72992e-05
0.000684925
-0.00054499
4.32243e-05
-1.80005e-05
0.000519766
-7.2299e-07
0.000222804
-0.000323587
0.000101506
0.000579516
2.25252e-05
-2.24582e-05
-0.000579583
0.000639538
4.65695e-05
-2.86285e-05
-0.000657479
0.000648824
4.75424e-05
-2.93134e-05
-0.000667053
0.00081175
6.27016e-05
-3.10925e-05
0.000368597
8.06714e-05
-0.000402059
-4.72095e-05
-0.000226904
0.000168891
6.49248e-05
-6.91222e-06
0.000310421
-0.000385462
-0.00118015
0.00125519
0.000696663
0.000278668
-0.000732341
-0.000242991
-9.52049e-05
0.000181784
-0.000123051
3.64717e-05
-0.000902866
0.000209077
0.000807822
-0.000114033
4.10005e-05
-3.91041e-05
0.000126815
-0.000128711
1.3818e-05
3.79273e-06
2.09523e-05
-3.8563e-05
-0.00023984
7.15477e-06
9.80938e-05
0.000134591
0.000133006
-4.17584e-05
0.000104451
-7.72546e-05
5.75047e-05
5.79783e-05
-3.82284e-05
-8.48376e-05
8.85778e-05
6.7334e-05
-7.10742e-05
-0.000416296
0.000351165
-0.000145267
0.000210399
-9.51026e-06
1.1047e-05
1.04136e-05
-1.19503e-05
7.56338e-05
0.000491557
-0.000554558
-1.26325e-05
0.000129173
0.000639043
-0.000724894
-4.33219e-05
-1.01126e-05
-7.02187e-05
5.93912e-05
2.09401e-05
-0.00049929
0.000433296
0.000880517
-0.000814522
3.79572e-05
-2.13534e-05
-0.000876264
-0.00103838
8.20423e-05
0.000958677
-2.33759e-06
0.00102303
-0.000708804
-0.000813515
6.21793e-05
-6.17252e-05
-4.54108e-07
0.000129135
-7.9967e-05
0.000138599
-0.000187767
-0.000119729
-9.75572e-05
-8.86757e-05
-3.91924e-05
5.7711e-05
7.01571e-05
-0.000343769
0.000397191
0.000607705
-0.000661127
-0.000519501
0.000731802
-0.000592599
0.000380299
7.67044e-06
5.53074e-05
-4.82558e-05
-1.4722e-05
0.000584249
-0.000875039
-0.000114463
0.000405253
4.03558e-05
-5.52621e-06
4.83267e-06
-3.96623e-05
0.000315049
-0.000203779
-0.000227803
0.000116533
5.37902e-05
0.000106279
-0.000134124
-2.59451e-05
0.000187192
-0.000135667
-7.45452e-05
2.30197e-05
-0.000929048
0.000106371
-0.000156096
-0.000370722
0.00033691
-0.000698708
0.000732519
5.75171e-05
-6.46064e-05
-0.000109035
-0.000398052
3.49569e-05
9.40025e-06
0.000353695
7.54795e-05
9.9181e-05
-3.25322e-05
-3.2503e-05
2.21867e-05
5.49071e-05
-4.45908e-05
5.59573e-05
9.28005e-05
-7.42326e-05
-7.45251e-05
-0.000209392
4.27125e-05
0.000121925
4.47546e-05
-1.53661e-05
-0.00032241
0.0003743
-3.65246e-05
8.75949e-05
-8.52768e-05
-8.35131e-05
8.1195e-05
0.000413934
-0.000249235
-0.000197676
3.2977e-05
-2.18373e-05
7.54708e-05
-4.98363e-05
-3.79718e-06
3.5468e-06
0.000222862
-0.0001423
-8.41087e-05
0.000235618
-0.00010411
-2.37269e-06
-0.000427422
0.000954552
-0.000546296
1.91657e-05
0.000113933
0.000113301
-0.000154568
-7.2666e-05
-3.58386e-05
0.000126187
-3.58608e-05
-5.44877e-05
0.000932032
0.000451576
-0.000616403
-0.000767205
1.96023e-05
-1.03843e-05
-6.36496e-05
5.44316e-05
-0.000480305
-2.83244e-05
-0.000394237
0.000116921
-0.000185052
-6.22463e-05
0.000130378
-0.000315083
-0.000357511
0.000426332
0.000246262
0.000865098
-0.000204803
-0.000660295
0.000101755
0.000373084
-3.31931e-05
-0.00033989
0.0009617
-0.0002319
-0.000729799
0.000252859
0.000130975
-3.11177e-05
-9.98576e-05
-0.000103301
0.000412603
-0.000309302
3.57029e-05
-3.68936e-05
1.19071e-06
-7.00415e-05
0.000335117
-0.000265076
-0.000479942
0.000543964
-6.40219e-05
-0.000488051
0.000480665
7.38576e-06
-0.000160763
-5.2329e-05
0.000213092
-0.000126906
-8.99753e-05
0.000216881
-4.67531e-05
-3.05015e-05
-4.87557e-05
-3.60819e-05
-0.000115395
0.00010024
1.51546e-05
0.000209256
0.000193106
-0.000402362
0.000156528
-0.000201985
4.54564e-05
0.000163387
-0.000233232
6.98452e-05
0.00011602
-8.11922e-05
-3.48282e-05
-0.000254402
0.000306789
-5.23866e-05
-7.85174e-05
5.43583e-05
2.41591e-05
-0.000363137
0.00043785
-7.47137e-05
-0.000122016
0.000131201
-9.18417e-06
0.000971138
-0.00106109
8.99515e-05
4.36469e-05
7.42158e-05
-0.000117863
-0.00019357
0.000259898
-6.63285e-05
0.000121442
-2.42619e-05
-9.71804e-05
-0.000268911
0.000311356
-4.2445e-05
-0.000166628
0.000210767
-4.41388e-05
-0.000113605
0.000265176
-0.000151571
-0.000250588
2.36842e-05
-0.000226948
0.000147926
7.90224e-05
0.000152443
-0.000108676
-4.37671e-05
2.28074e-05
0.000146084
-0.000206556
-0.000646299
-0.00032067
-8.89226e-05
-0.000355892
-8.52005e-05
-0.00010459
-0.000170998
0.000144173
-9.03828e-05
0.000410373
-9.53236e-05
0.000141843
8.79349e-05
-0.000229778
9.61811e-05
-1.39941e-05
-8.2187e-05
0.000151426
2.76964e-05
-0.00109328
0.0014037
0.000197095
1.90242e-05
-0.000216119
-0.000989285
-0.0002071
-0.000105951
0.000106984
1.56858e-05
-0.000118301
0.000102615
-0.000720734
-0.000132717
-0.00079804
-0.00014512
-5.86979e-05
-2.36591e-05
8.2357e-05
2.48483e-05
-1.90045e-05
2.03394e-05
-2.61832e-05
-0.000175475
8.79937e-05
0.000479529
-0.000392047
-0.000900441
0.000905775
0.000668236
-0.00067357
5.46893e-05
-7.28699e-06
-5.27327e-05
5.33038e-06
-0.00118943
0.00114604
-5.18753e-05
9.52674e-05
-0.000182971
0.000163163
-5.0233e-05
-0.000196604
0.000191491
-9.81877e-05
8.30258e-06
-6.00137e-05
-0.0001533
0.000205011
0.000125538
-0.00013376
-0.000111402
0.000119625
4.6642e-05
-4.51466e-05
-6.1196e-05
5.97007e-05
-0.000254115
0.000213136
0.000228172
-0.000200653
4.92118e-05
0.000581734
-0.000430293
0.000784741
-0.000680523
-0.000183015
7.87973e-05
-0.00140434
-3.4852e-05
0.000249769
0.000174992
-0.000207441
4.52631e-05
-1.28148e-05
0.000251577
3.67647e-06
-4.39401e-05
-0.000211314
0.000677395
-0.00018169
-6.04003e-05
-0.000435304
-0.000338982
-0.000245957
3.94378e-05
0.000545501
-7.45051e-05
5.36457e-05
0.00124928
-0.00122842
-2.65998e-05
-1.9013e-05
4.56128e-05
8.15691e-06
0.00014138
-7.66128e-06
-0.000141876
-0.000106434
6.70143e-06
-8.19693e-06
0.00010793
7.41058e-05
-8.35785e-05
-8.56315e-05
9.51042e-05
-6.29133e-05
8.91032e-05
-0.000197697
0.000171507
-8.27398e-05
0.000128775
-0.000220746
0.000174711
9.63064e-06
1.12821e-05
1.0648e-05
-3.15607e-05
0.00013611
-4.35342e-05
-0.000218897
0.000126321
0.000229619
-0.000260392
1.47901e-05
1.5982e-05
2.28758e-05
2.91769e-05
-0.0010528
0.00100075
-0.000138483
5.45717e-05
-0.000749415
0.000833326
0.000852536
-0.000854395
6.88931e-05
-6.70336e-05
0.000178193
-0.000275596
-0.000155464
0.000252868
-7.05652e-06
-1.63556e-07
-4.2796e-06
1.14997e-05
-0.000119357
-5.82733e-05
9.27449e-05
8.48858e-05
0.000161847
-0.000144203
-9.40853e-06
-8.23532e-06
4.95499e-05
0.000695963
-0.000384936
-0.000360577
1.00682e-05
0.00020587
-9.90173e-05
0.000240295
-0.000263783
3.35565e-05
-2.40492e-06
-1.76192e-05
7.75289e-05
-2.2058e-05
6.91532e-05
-0.000154878
0.000107783
7.26306e-05
-3.11132e-05
7.24156e-05
5.27382e-05
-0.000536432
0.000483694
4.75704e-05
-0.000483048
0.000435478
4.04469e-05
-0.000517462
0.000477015
6.993e-05
-7.42889e-05
-2.73563e-05
-0.000185451
5.67016e-06
6.72719e-06
-5.65009e-06
-6.74725e-06
-1.92674e-05
2.81896e-05
-0.000955166
0.000946244
-0.000303774
-0.000369613
0.000439018
0.000234368
0.00106476
-0.000455239
-0.000813518
0.000203999
-0.000655771
0.00116329
-0.000874944
0.00036743
8.32355e-06
-2.5157e-05
4.16817e-05
-9.34881e-05
-6.67209e-05
7.15334e-05
-0.000607542
-6.77777e-05
0.000292388
0.000382931
-6.06207e-05
-0.000174335
5.19841e-05
-0.000133117
-0.000155908
9.24209e-05
8.53279e-06
0.000119944
-5.33197e-05
-7.5157e-05
-0.000317719
0.000201234
0.000116485
-8.3899e-05
8.63933e-05
-2.49423e-06
0.000279958
-0.00016539
-0.000150407
0.000102159
-0.000378269
0.000332851
-5.67408e-05
9.77344e-05
-6.02472e-05
-0.000595662
3.29547e-05
-5.62973e-05
0.000619004
-0.000540372
3.0374e-05
-5.74687e-05
0.000567467
-0.00020315
-7.38395e-05
0.000108249
0.00016874
-2.83912e-05
0.000167039
-0.000193081
5.44326e-05
-0.000308165
0.000498196
0.000349767
2.9889e-05
-0.00108577
0.00111218
-5.6299e-05
2.23526e-05
8.87196e-05
-3.69664e-05
2.243e-05
-3.56281e-05
-2.58706e-05
0.0001872
-2.57043e-05
-0.000186289
2.47933e-05
-5.45416e-05
6.92187e-05
1.13412e-05
-2.60183e-05
4.92999e-05
0.000228048
-2.9444e-05
-0.000247904
7.46139e-05
5.59706e-05
-3.44035e-05
-0.000338414
-6.30513e-05
0.000296248
0.000105217
-0.000475902
0.000345092
0.000272058
-0.000184466
0.000103706
0.000150907
-0.000649428
0.0004155
0.000391239
-0.000533612
1.99147e-05
0.000530843
-1.7146e-05
-0.000583512
-1.09678e-05
0.000592347
2.13375e-06
4.91605e-06
0.000572021
-0.000556013
-2.09237e-05
-3.82924e-05
0.000592722
-0.000580514
2.60844e-05
-0.000648217
0.00105373
-0.000776239
-0.000102223
9.65741e-05
-8.18241e-05
8.74735e-05
-0.000103015
0.000105763
-0.000139278
0.000136531
0.000115591
-9.07117e-05
3.98339e-05
-6.47129e-05
8.81185e-06
-1.47654e-05
-2.45226e-05
3.04761e-05
-0.000968567
0.000116725
0.000951417
-9.95754e-05
-0.00012061
0.000699046
-0.000749982
0.000171546
4.75872e-06
-8.8467e-05
0.000276369
-0.000192661
-0.000101894
4.74417e-05
0.000246661
-0.000192209
-4.02608e-05
-9.96229e-05
0.000475575
-0.000335691
7.57433e-07
0.00010838
3.51808e-05
-0.000144318
4.56224e-05
-6.64771e-05
0.000101165
-0.000562086
0.000514387
-7.81205e-06
3.28958e-05
-4.9635e-05
0.000328464
-0.000271341
-7.57301e-06
0.000203019
0.000169445
-0.000188868
-0.000183596
3.78249e-05
-1.53146e-05
0.000316368
-0.000338878
-4.63045e-05
-1.33624e-08
-8.2238e-06
0.000539616
-0.000303751
-0.000574598
0.000765085
-0.000399047
0.00069036
-0.000365634
0.00017979
-9.85633e-06
2.68364e-05
2.58166e-05
7.65341e-05
-0.000129187
0.000453643
-0.000763069
-0.000591015
2.54288e-05
-3.99924e-06
-3.09398e-05
-0.000427124
0.000472501
0.00101279
-0.00105817
0.000846838
-0.000171501
-4.67816e-05
-0.000628555
1.66889e-07
1.12655e-05
2.38563e-06
-0.000323044
0.00018048
0.00036782
-0.000236859
6.34893e-05
-6.64701e-05
0.000174158
-0.000733544
0.000639392
7.18066e-05
5.26615e-06
-4.91904e-06
-7.21538e-05
0.000139725
5.51499e-05
-7.06929e-05
-0.000124182
-0.000617172
0.000565716
0.000484752
0.000136981
0.000168154
5.97265e-05
-6.81413e-05
7.52998e-05
-6.6885e-05
-1.35898e-05
-0.000197251
0.000155106
4.42459e-05
-3.91825e-05
-9.4144e-05
8.90805e-05
-0.000168081
-0.000179644
0.000785552
0.000135508
-1.81464e-05
-8.08323e-05
0.000319139
9.36432e-05
0.000144922
0.000112757
-4.99836e-05
0.000216939
-0.000208782
-1.10502e-05
-3.10627e-05
2.20697e-05
0.000125856
5.5454e-06
-4.10081e-05
0.000233793
-2.23275e-05
-5.61647e-05
-3.72693e-05
0.000158712
-3.90583e-05
-0.000229853
-5.29743e-05
-0.000140596
-0.000520472
3.24206e-05
-0.000129485
-0.000527542
-4.50291e-05
-0.000462782
-3.79505e-06
7.34187e-06
-4.45366e-05
-6.07714e-05
-0.000128852
-3.94995e-05
0.000304676
0.000151303
1.22887e-07
0.000386067
0.000629592
1.66362e-05
7.00317e-05
-1.23463e-05
-1.86691e-05
1.20109e-05
-0.000157004
-0.000241408
0.000183509
0.00049901
-0.000523951
2.40025e-05
9.38741e-07
7.48513e-05
-0.000132179
6.66671e-05
0.000134715
-0.000176998
7.35678e-05
-4.46059e-06
-4.86037e-05
-1.2449e-06
5.43092e-05
0.000275019
0.000473877
0.000247684
0.0004301
2.3808e-05
-0.000172314
2.17232e-05
-3.12047e-05
2.84079e-05
-1.89264e-05
-0.000105132
4.06545e-06
0.000103779
-2.71202e-06
5.11899e-05
-3.50367e-05
-2.06137e-05
-3.98466e-05
4.0484e-05
1.56729e-05
-1.63103e-05
-8.79864e-06
-8.61643e-05
3.18262e-05
6.31367e-05
0.000423178
-0.000116073
0.000135326
-0.000428969
0.000719117
9.11439e-05
-0.000391696
0.000688986
-0.000114607
0.000208745
-0.000275844
-1.51171e-05
5.96617e-05
-5.30962e-05
8.55158e-06
-2.2596e-05
0.000150087
-8.5727e-05
-4.17636e-05
2.51431e-05
9.88428e-06
-1.33042e-05
-0.000625097
0.00103062
-0.000735063
0.000329543
5.768e-05
-0.000157615
-8.04809e-05
7.03462e-05
-0.000203016
-0.000107727
2.23468e-05
5.54693e-05
7.99543e-06
-0.00107673
0.00096892
0.000111009
5.70051e-05
7.41814e-05
-0.000135039
3.8524e-06
-3.99903e-05
8.81879e-05
-9.47723e-05
4.65747e-05
-3.16368e-05
-0.000129126
-5.07224e-05
-7.61833e-05
0.000358957
-0.000131464
-6.78433e-06
3.36188e-06
4.64257e-05
-4.30033e-05
-4.37904e-05
4.6919e-05
-8.99412e-05
8.68125e-05
9.36151e-05
8.06472e-05
0.000125651
0.000109018
1.84821e-05
-9.2213e-05
-3.52876e-05
0.000136834
-3.514e-05
-0.000132812
0.000187646
0.000137958
0.000277332
0.00121396
0.000133132
-0.00117464
-0.000172454
5.55734e-05
3.10915e-05
5.74863e-05
-0.000664217
0.000171483
0.000590428
-9.76947e-05
-0.000164526
1.82841e-05
-1.53349e-05
0.000161577
8.18862e-08
-2.68653e-05
1.75575e-05
9.22592e-06
6.83376e-05
-0.00012617
6.18065e-05
-3.97384e-06
-0.000209485
0.00070429
4.47585e-05
-0.000539563
-0.000287918
0.000822882
5.36388e-05
-0.000588603
0.000643224
3.03637e-05
7.92451e-05
-0.000752833
-6.20106e-05
5.5367e-06
8.4206e-05
-2.77321e-05
6.3706e-05
0.00014555
-0.000149539
0.000338673
0.000375467
0.000486668
0.000110022
0.000522232
0.000112249
0.000577022
0.00012475
0.000562358
-7.45526e-06
6.64781e-07
4.28987e-06
2.50061e-06
-4.10753e-05
3.39022e-05
-2.40316e-05
-0.000273326
0.000331006
-0.000340576
0.000410922
-1.63432e-05
3.869e-05
9.64018e-06
-6.258e-06
7.66483e-06
-2.20217e-05
-0.000156957
0.000184576
-5.59709e-06
-1.79995e-05
6.81306e-06
2.79886e-06
8.38755e-06
2.70677e-05
0.000686789
-0.00046374
0.000968808
6.17718e-05
-0.00101668
-1.39e-05
-0.000216023
0.00027693
0.000219051
0.000136996
-0.00026337
-6.66219e-05
0.000192997
0.00016591
-4.93657e-05
9.21197e-06
3.00411e-05
0.000194161
0.000117441
-9.58234e-05
-0.000130988
2.23254e-06
-0.000954538
0.000927069
-0.000399654
-6.03491e-05
-0.000160132
-2.70598e-05
0.000182702
2.00309e-05
-0.000175674
-7.90681e-05
0.000719179
1.74567e-05
-0.000657567
-7.92834e-05
0.000543469
2.29082e-05
-0.000487094
8.68326e-06
-1.23011e-06
7.46596e-05
-8.21127e-05
9.02009e-05
-6.02677e-05
-1.52734e-05
-1.46599e-05
4.25601e-05
-0.000138607
0.000187192
-9.11452e-05
-2.20639e-05
0.000239003
-0.000133782
0.0001702
-6.87271e-05
3.23086e-05
-0.000283889
-6.01698e-05
0.000201045
0.000143014
1.11012e-06
-9.88842e-06
3.6052e-06
5.17311e-06
0.000633516
2.45434e-05
-1.89031e-05
-0.000639156
-1.48356e-05
9.78294e-05
-7.4461e-05
0.000508608
-2.56436e-05
3.10104e-05
-0.000513975
0.000221483
-0.000144676
-0.00013827
6.14626e-05
-0.000497507
-6.23834e-06
-6.20178e-05
0.000565763
-0.000560196
-9.47003e-05
1.86533e-05
0.000636243
8.54767e-06
-1.75573e-05
1.79827e-06
7.21138e-06
-0.000152446
6.64992e-05
0.000151214
-6.52672e-05
-0.000108731
-6.91313e-05
0.000127121
5.07414e-05
-0.000146738
0.000118131
1.09875e-05
0.000769256
8.19126e-05
-3.94183e-05
4.52242e-05
4.32681e-06
-9.19518e-06
-0.00123399
-0.000114518
0.00118629
0.000162218
0.000506638
0.00030597
-0.000268911
-0.000543697
8.90983e-05
-4.64623e-05
-3.60265e-05
-6.60957e-06
-8.62954e-05
0.000152766
-0.000184677
0.000118206
3.87004e-05
-5.35359e-05
-0.000173111
9.02379e-05
-0.000584859
0.000667732
0.000134307
-0.00011218
2.92784e-05
-5.14048e-05
3.05919e-05
-2.71528e-05
-1.07533e-06
-2.36375e-06
8.62504e-05
2.07835e-05
-4.36136e-05
-6.34204e-05
0.000177658
-0.000141088
-9.73335e-06
0.00108169
-0.000926527
0.000241863
-0.000397027
-0.000269642
-0.000178834
0.000233393
3.39245e-05
0.000177913
-0.000166692
-4.51453e-05
-0.000146061
-3.36199e-05
2.72343e-05
-0.000209659
0.000184761
-8.38326e-05
2.1552e-05
1.62669e-05
-2.92712e-05
-6.77305e-05
4.39052e-05
7.85486e-05
-5.47233e-05
7.36237e-06
7.18154e-05
-7.03621e-05
-8.81568e-06
-2.98082e-06
-5.65093e-06
0.000225945
-0.000414348
0.00048486
0.00113333
-1.69446e-05
2.96478e-05
4.91383e-06
-6.86947e-06
-0.00016753
0.000169486
-6.47668e-05
6.09718e-05
1.01421e-06
2.1145e-05
-2.99713e-05
9.27407e-05
-0.00016336
0.000116242
-0.000656257
0.000327385
-7.71476e-05
-0.000798865
-0.000474564
0.000121825
8.77865e-05
8.10334e-06
-0.000166249
-6.38052e-06
0.00010438
-7.89244e-05
-0.000172202
-8.89593e-05
0.000145767
3.84583e-05
2.89477e-05
-4.22628e-05
-9.70806e-06
1.5698e-05
7.04106e-05
-7.64006e-05
-0.000796
-8.79205e-05
0.000219704
0.000354835
-0.000322717
-0.000202297
0.000170179
-0.000160996
-0.000949777
7.50415e-05
0.00103573
-6.9277e-05
-0.00100434
0.00103278
4.08421e-05
4.95976e-05
-6.08778e-05
-2.30954e-06
-0.000236765
-0.000343285
0.000364028
0.000111455
0.000104496
-0.000122879
-9.30718e-05
-5.9086e-06
-1.53447e-05
1.5145e-05
6.1083e-06
-0.00080157
-0.000281623
-0.000174493
-4.41595e-05
-1.87732e-05
0.000237425
8.83434e-05
-3.19128e-05
-8.26128e-05
2.61822e-05
0.000232801
-7.40187e-05
-1.46229e-05
-3.08835e-05
-7.98079e-07
6.47528e-05
-3.36327e-05
-5.37161e-05
9.03324e-05
-0.000100413
1.34118e-05
-3.33166e-06
5.16028e-05
1.86464e-05
-7.44931e-06
-6.27998e-05
1.24847e-05
0.000606587
-1.2172e-05
-0.0006069
0.000104922
0.000661257
-6.09616e-05
-0.000705217
5.41079e-05
3.40395e-05
2.18498e-06
3.12448e-05
-0.00108977
0.00108998
-3.1449e-05
0.000257412
-0.00152229
5.2168e-05
0.00121271
-4.01938e-06
8.53009e-06
-1.57095e-06
-2.93976e-06
0.000196636
-3.40638e-06
-2.18676e-05
-0.000171362
0.00029456
-0.00034436
0.000235538
0.000695258
-0.000597115
-0.000746361
4.26552e-06
1.27432e-05
5.96354e-06
-2.29723e-05
-7.14217e-05
8.6964e-05
-4.94887e-05
3.39465e-05
-9.40465e-05
5.17242e-05
0.000107975
-6.5653e-05
-0.000741076
0.00023737
0.000482051
2.16553e-05
0.000144141
-4.66012e-05
7.3459e-05
-0.000170999
2.50597e-05
-2.56144e-06
1.83927e-07
-2.26822e-05
0.000225878
2.20183e-05
5.09787e-06
-0.000252994
-1.65382e-05
8.09925e-05
-6.44543e-05
0.000316894
-0.00129347
3.57851e-05
-5.01952e-05
-5.37348e-05
6.81449e-05
-1.81519e-05
5.59921e-05
1.33496e-05
2.11887e-05
-4.03452e-06
1.24251e-05
-2.95792e-05
0.00104125
-0.00146585
0.000183638
0.000240961
0.000451042
7.90641e-06
1.31642e-05
-0.000472112
-5.70842e-06
-2.65826e-06
5.35909e-05
8.63569e-05
8.59542e-05
-0.000927826
0.000755515
-6.9521e-06
-3.67064e-06
6.63314e-06
3.9896e-06
-1.64447e-05
0.000167932
-0.000206865
5.53779e-05
-3.62447e-05
-0.00011309
0.000164488
-1.51534e-05
0.000955653
-0.000663573
4.04275e-05
-4.4813e-05
4.86314e-05
4.55824e-05
9.08754e-05
-7.67313e-05
0.000846206
-0.000579254
5.19891e-05
-0.000318942
2.68287e-05
0.000392761
-5.65556e-06
4.99869e-05
-4.10963e-05
-1.1072e-06
-1.84411e-05
1.33995e-05
6.14887e-06
0.000543049
-7.63269e-05
-0.000414945
-5.17767e-05
3.24206e-06
-5.00661e-06
-6.60048e-05
6.77693e-05
-5.94206e-05
-0.000197702
0.000172717
0.000228004
2.66518e-05
3.19034e-05
-4.99087e-05
-8.64653e-06
7.29242e-05
8.20047e-05
-8.79482e-06
1.32114e-06
0.000233351
1.20246e-06
-2.16814e-06
2.60253e-05
4.17962e-05
-2.77119e-05
0.000130057
0.000234092
-0.000272116
0.000132116
-9.40919e-05
0.00114125
-0.00111469
-0.000297728
-3.74592e-05
-0.000607628
0.000185018
0.000524769
4.17714e-05
-4.77116e-05
2.55424e-05
0.000522328
-0.000104623
0.000537949
-0.00015754
-5.08318e-05
0.000128508
1.3314e-05
1.26957e-05
-1.27643e-05
-1.32454e-05
4.37381e-05
-1.80126e-05
-4.77293e-05
2.20038e-05
-3.94837e-05
3.83765e-05
1.82377e-05
-9.50696e-05
8.73864e-05
-1.05544e-05
0.00071256
0.000102721
-4.60252e-05
0.000162759
0.000166457
-0.000269139
0.000230847
-0.000434307
0.000439223
-0.000333346
0.000212736
-0.00114238
0.00114481
9.70999e-05
-9.95375e-05
0.000252138
0.000549061
-0.000254934
-0.000434755
-0.000145327
-0.000141033
-0.000186816
-0.000284327
0.000497627
-0.000724945
-0.000164853
0.000392171
-0.00075839
0.0003056
-8.0635e-05
0.000533425
-4.0963e-05
0.000117885
-0.000342961
0.000266038
-2.41615e-05
-5.91259e-05
-0.00113209
0.00121538
9.03874e-05
-0.000389376
0.000758165
0.000182063
-0.000812034
-0.000128194
-2.48358e-05
2.81803e-05
6.29568e-06
0.000690703
-0.000646615
8.06614e-05
0.000632478
-0.000681823
0.000161594
0.000544228
-0.000507458
7.32522e-05
-2.10471e-05
9.35774e-05
1.58131e-05
-4.69934e-05
1.66316e-05
5.70137e-05
7.54532e-05
-8.23144e-05
6.41612e-05
-5.73e-05
0.00063615
-0.000536858
-7.81899e-05
-2.11021e-05
0.00061737
-0.000528117
6.52443e-06
-9.5778e-05
9.94923e-05
0.00153858
-0.00121029
-0.000427783
-1.65294e-05
9.81584e-06
-3.95917e-05
4.63052e-05
-0.000994169
-0.000637535
0.0010557
0.000576008
1.57664e-05
-6.13569e-05
-8.98361e-05
0.000135427
1.84702e-05
1.13729e-05
3.43566e-05
-6.41997e-05
-5.66347e-06
-1.8874e-06
-3.00397e-05
3.75906e-05
0.000119836
-4.45496e-05
0.000637273
0.000530788
-0.000741123
0.000285969
0.000594065
-0.00082554
0.000360648
-6.6814e-06
0.000127383
-6.31592e-06
1.24162e-05
3.35062e-05
-3.96066e-05
0.000626183
-6.40368e-05
0.000136899
9.48737e-07
1.9556e-05
-8.30954e-06
-0.000157516
-0.000222927
7.00593e-05
0.000310383
0.000151205
0.000832643
-0.000677878
-0.000285746
-0.000364707
0.000346679
0.000676877
-0.000636034
-0.000148368
0.000107525
-0.000117212
5.96746e-05
7.58217e-05
8.71396e-05
-4.61283e-05
3.32045e-05
0.000155637
-1.42005e-05
6.93301e-05
-3.49315e-05
9.14671e-05
0.000518636
-0.000625008
0.000106373
-0.000406714
0.000291299
-0.00128172
0.00139714
-0.000176743
9.77805e-05
0.000244681
-0.000165719
0.000139212
5.42193e-05
-7.84085e-05
-0.000115022
-0.000432415
-3.01e-05
0.000591248
-0.000128734
0.000217634
-0.000181822
-0.000379581
-7.95115e-06
-2.27451e-06
-2.12064e-06
0.000159209
-0.000107651
8.7653e-05
-4.92876e-05
-5.43306e-05
3.21965e-05
9.53895e-06
4.71981e-05
-2.33606e-05
-3.33764e-05
0.000202853
-0.000227847
0.000154561
-0.000129567
5.01495e-05
2.08963e-05
9.08013e-05
-5.29154e-05
-4.36431e-06
5.10217e-05
1.0849e-05
1.39643e-05
-1.78474e-05
-6.96583e-06
9.2501e-06
-8.35062e-05
0.000110128
-3.58723e-05
7.75348e-05
-2.33155e-05
2.1722e-05
-1.9668e-05
-6.07335e-06
6.56276e-05
-1.94256e-05
0.000150434
5.08812e-05
-7.21829e-05
-4.64288e-05
-0.000658626
-0.00040987
0.00080562
0.000262876
0.000822881
-0.00104163
0.000356901
-0.000138153
-1.3924e-06
-0.000100596
0.00010365
-1.66171e-06
-4.79624e-05
0.000243468
-0.000280835
8.53298e-05
-4.53443e-06
1.32947e-05
-4.83861e-05
3.96258e-05
-0.00134435
0.00117835
-0.000248714
0.000414717
0.000372474
-0.000318061
-0.000127889
7.3476e-05
7.21333e-06
0.0006731
-0.000669993
-1.03204e-05
-0.000331
1.93043e-05
0.000130943
-0.000560326
0.000542186
-0.000112803
0.000166111
-0.000577989
0.000574611
-0.000162733
-0.000101422
-0.000759582
0.000861004
2.42845e-05
-8.91414e-06
1.53356e-05
-3.0706e-05
4.34782e-06
-4.81766e-06
1.66319e-07
3.03521e-07
4.24679e-05
-5.39066e-06
2.71574e-05
-6.42347e-05
-0.000147943
-0.000133803
0.0001877
1.83132e-05
-5.10107e-05
6.84826e-05
-0.000168792
8.00159e-06
0.00010628
5.45101e-05
-0.000112284
-1.02641e-05
8.96026e-05
3.29459e-05
-2.6919e-05
1.18824e-06
0.00034621
-0.000320479
0.00108418
-0.00111637
-4.08983e-05
7.30895e-05
-0.00017537
-1.9078e-05
0.000224605
-3.72519e-06
-0.00022088
-2.01744e-05
4.4314e-05
2.13054e-05
-4.5445e-05
-4.90797e-05
-4.10876e-05
5.03979e-05
3.97695e-05
-4.95902e-06
-3.5436e-05
8.43003e-05
-4.12299e-05
2.2796e-05
3.99859e-05
-4.66072e-05
6.10517e-05
-0.000224104
3.95802e-06
2.54553e-06
-0.000152564
0.000588148
4.28637e-05
-5.89904e-05
0.00060559
3.14378e-05
-4.43053e-05
-0.000525195
3.52684e-05
-4.36853e-05
-0.000513294
-6.36308e-05
-6.58802e-06
-0.000361404
-0.000188636
0.000211627
-0.000959835
-0.00017028
0.00027572
0.00013331
4.76013e-05
-7.18933e-05
-8.69327e-05
-0.00117863
0.00119106
-9.14753e-05
4.01305e-05
-0.000266374
-7.8854e-05
-4.51751e-05
4.01301e-05
0.000595933
-0.000182631
-0.000492585
0.000691625
-0.000179564
-0.000591129
3.12149e-05
-3.7746e-05
6.04841e-05
-5.39529e-05
1.81587e-08
0.00068591
-9.05098e-06
-1.73744e-05
3.89601e-05
-7.66978e-05
5.51121e-05
5.59377e-05
-4.29247e-05
-8.89957e-05
7.59827e-05
3.29788e-05
-2.43642e-05
1.17249e-05
4.44659e-05
-2.79908e-05
-5.75504e-05
-2.69045e-05
-5.94773e-05
2.0711e-05
6.56708e-05
0.000299118
-0.000107765
0.000115615
-0.000306968
-0.000314452
-7.39148e-05
5.7367e-05
-0.000358996
0.000225451
0.000307703
4.97401e-05
4.35092e-05
-5.4791e-05
5.62352e-05
1.94247e-05
-6.44114e-06
4.8054e-05
-6.21082e-05
4.15686e-05
-2.75145e-05
-0.00052766
9.18645e-06
0.000482996
3.54768e-05
0.000300144
0.000363523
-0.00058716
-7.65075e-05
0.000234783
-0.000604471
-0.000288939
0.00042278
0.000289314
-0.00057746
-0.000134635
-1.48779e-06
-1.35131e-05
4.84372e-05
-3.34363e-05
0.000116135
0.000163297
-0.00102051
3.87064e-05
-1.81669e-05
-2.84907e-05
9.82405e-05
-1.96451e-05
-7.46374e-05
-3.55901e-05
-5.76737e-05
5.20339e-05
0.000899881
-2.31791e-05
-0.000766872
-0.00010983
-1.50959e-05
-2.68689e-05
-0.000101128
-0.000174469
-7.4851e-06
8.84776e-05
-0.000103809
0.00110968
0.000157416
-9.00745e-05
0.000202583
0.000121583
-0.000408442
0.000328359
0.000525179
-0.000445097
0.000303817
-0.000307711
0.000487689
-0.000483795
2.04082e-05
-7.38666e-05
-1.99991e-05
7.34575e-05
-6.29673e-05
6.47795e-05
1.64936e-05
-1.83058e-05
-0.000250423
4.32996e-05
4.84667e-05
0.000158656
-0.00110427
0.00109698
9.3239e-05
-0.000729422
0.00046937
-0.000583192
0.000508465
-0.000345307
-0.000130127
0.000116438
0.000109379
-3.70831e-05
0.00086049
-0.00102847
-0.000263111
0.000431092
-0.000225307
-0.000989658
0.00119134
2.36255e-05
-0.00106222
0.00108085
-0.000105563
-0.000484852
0.000428587
0.000351817
-0.000295552
-0.000302476
0.000309951
2.2044e-05
-2.95189e-05
-0.000130156
-3.74547e-05
2.34073e-05
-0.000613549
0.000746461
-0.000542782
0.0001474
-1.08107e-05
6.9308e-06
8.85032e-05
-2.37046e-05
-7.17295e-05
-0.000202821
0.000188043
-0.000109642
7.16009e-05
0.000171351
-0.000920527
0.000882145
-0.000277982
0.000316364