/*--------------------------------*- C++ -*----------------------------------*\
| =========                 |                                                 |
| \\      /  F ield         | OpenFOAM: The Open Source CFD Toolbox           |
|  \\    /   O peration     | Version:  v1912                                 |
|   \\  /    A nd           | Website:  www.openfoam.com                      |
|    \\/     M anipulation  |                                                 |
\*---------------------------------------------------------------------------*/
FoamFile
{
    version     2.0;
    format      ascii;
    class       volVectorField;
    location    "0.38";
    object      U;
}
// * * * * * * * * * * * * * * * * * * * * * * * * * * * * * * * * * * * * * //

dimensions      [0 1 -1 0 0 0 0];


internalField   nonuniform List<vector> 
1431
(
(0.0450246 3.37655 9.27709e-17)
(2.69706 2.65474 2.77602e-17)
(-1.34832 0.176746 0)
(-2.07211 -0.0225328 1.88354e-16)
(-0.577224 -0.532249 0)
(0.0617227 4.18461 2.26823e-16)
(0.649478 -0.126686 5.14185e-16)
(2.73176 0.00795838 6.78318e-17)
(-0.758846 6.69791 1.12697e-16)
(0.766487 -0.276173 4.83119e-16)
(3.02774 9.75649 2.19694e-17)
(6.91764 -0.0693434 0)
(-0.572644 3.7828 -1.1858e-16)
(-0.965143 0.0781104 -5.82583e-16)
(0.519963 -0.350321 0)
(0.53546 -0.740743 -4.55126e-16)
(2.08794 -0.194365 -2.95036e-16)
(-2.40074 -0.291962 0)
(1.90326 -0.332072 -2.43658e-16)
(-2.24714 0.138378 1.27466e-16)
(4.54856 9.21183 -7.18529e-19)
(-0.36403 0.0558095 2.43777e-16)
(-0.115132 3.96431 -1.46582e-16)
(11.7714 2.1719 -3.79707e-18)
(-0.434798 5.69483 1.19772e-16)
(-0.313419 2.35184 -2.29306e-19)
(1.62434 9.51453 -2.30645e-17)
(-0.456444 -1.01658 -3.72803e-16)
(-0.154495 5.62481 -3.54037e-17)
(0.154986 5.82878 2.84762e-17)
(0.0320249 6.87733 -7.51411e-17)
(-0.032939 6.9409 2.83236e-17)
(-0.0218427 6.82584 0)
(-0.248216 0.130654 -4.97179e-16)
(-0.331006 5.47292 -2.48519e-16)
(-0.931027 0.162065 0)
(-0.272744 6.51992 0)
(1.18359 0.271379 -7.30076e-19)
(-0.0221652 -0.773926 0)
(-0.0169152 6.75262 0)
(-0.454766 9.02085 6.91461e-20)
(-0.493803 8.26095 8.82742e-17)
(-0.397172 3.01882 -1.57413e-16)
(-0.274777 -1.09607 1.95816e-16)
(0.60725 2.42836 0)
(1.19517 -0.513172 2.90992e-16)
(0.439283 0.685794 2.7136e-17)
(1.04355 9.16689 -6.97754e-17)
(0.295858 0.272548 0)
(0.574982 0.734314 0)
(0.164207 6.02761 0)
(0.102722 -1.40743 0)
(-0.433616 6.23774 2.10124e-16)
(2.8122 0.144437 2.08955e-17)
(1.63162 1.47023 -2.11265e-18)
(-0.327395 3.87615 2.92924e-16)
(-1.15632 0.0396114 1.89788e-16)
(5.33185 -0.232261 0)
(2.27382 0.0784784 0)
(-0.206542 -0.162815 4.48881e-16)
(0.25692 -0.194838 -1.52315e-16)
(-1.29845 0.20781 3.91778e-16)
(2.67438 0.187473 0)
(1.47653 0.237291 0)
(-0.577487 -0.346143 9.93091e-19)
(0.749298 0.0987794 -2.52542e-16)
(-0.667058 -0.354701 -2.45747e-16)
(-2.015 -0.540045 -7.0696e-17)
(1.77703 0.0481131 -4.92314e-18)
(-0.637471 -0.251204 0)
(0.933672 -0.295075 9.24706e-17)
(-0.459036 0.138 -1.66317e-16)
(-1.9645 0.174838 1.27466e-16)
(-0.339981 0.0282489 3.92366e-16)
(-1.08868 -0.0801824 4.1742e-16)
(0.753597 -0.090364 -5.34691e-16)
(-1.61756 -0.143425 -1.95872e-17)
(-3.48525 -0.206193 -1.23855e-16)
(0.195553 -0.417256 -3.22047e-16)
(-1.59141 -0.454171 0)
(2.10668 -0.0397856 -6.71588e-17)
(-1.43661 -0.447419 1.02153e-17)
(5.52253 0.804018 -6.58108e-18)
(0.659389 0.784298 1.17824e-16)
(11.0825 0.807781 2.3467e-18)
(-1.31581 -0.376961 -1.09984e-16)
(1.14527 -0.116558 0)
(1.05337 -0.123151 1.87848e-16)
(8.81712 0.0873066 7.67585e-18)
(7.55559 0.524862 2.37032e-18)
(-0.676408 0.292755 -2.6482e-16)
(-0.698465 0.0708773 2.93526e-16)
(0.932901 0.339398 2.65742e-16)
(0.366191 -1.32134 -1.43499e-16)
(1.53971 0.890258 1.0022e-17)
(-0.00752135 5.16167 0)
(4.13467 -0.223683 -9.31407e-17)
(5.64102 2.05694 -1.18922e-17)
(-0.813151 -0.576099 0)
(-2.12507 0.118669 -5.43938e-19)
(-0.536616 4.73947 1.10287e-16)
(-1.47321 -0.0605745 -6.50329e-16)
(2.0492 0.00509262 0)
(-1.19312 -0.932523 -2.54923e-16)
(-3.521 0.0851457 2.07921e-16)
(0.0263299 5.96992 1.13475e-17)
(-0.00641908 6.15892 0)
(0.941361 6.89232 8.0707e-18)
(0.141404 2.2787 2.99569e-16)
(2.26372 0.0800382 0)
(-0.183053 -0.414268 -6.80494e-16)
(-0.715618 4.59897 -2.21143e-16)
(0.0332755 0.653816 4.2058e-16)
(-0.397002 8.17043 -6.31446e-17)
(2.30097 1.78696 -9.39052e-19)
(-0.126567 -0.27412 7.69738e-17)
(-0.821207 0.172655 0)
(-2.15967 0.087598 -2.27532e-16)
(-1.73731 -0.227073 0)
(2.05915 0.297783 0)
(0.0669967 -0.202123 -2.62513e-17)
(0.879285 -0.146128 8.46958e-17)
(1.40328 0.103196 2.93747e-16)
(-1.02795 -0.172488 1.66786e-16)
(0.722116 0.21944 0)
(-1.01284 -0.327323 1.84152e-16)
(-1.62036 0.0161961 0)
(0.46943 -0.581326 5.71357e-16)
(-0.612207 0.310552 -2.43065e-16)
(0.811439 0.13975 5.16427e-16)
(1.59838 -0.224378 3.92232e-16)
(-2.3722 0.0803052 -7.92638e-17)
(0.434438 0.0676892 -1.25122e-16)
(1.242 0.0585674 1.10713e-16)
(-2.10902 0.570692 0)
(1.45484 -0.605097 -2.64136e-16)
(-2.05346 0.46846 1.10143e-16)
(-1.45781 0.408883 0)
(9.0562 0.0778205 4.22013e-17)
(0.912637 0.198775 1.82814e-16)
(0.336883 -0.509589 0)
(0.120041 6.91134 0)
(2.30198 -0.0438251 8.29778e-17)
(-0.453485 -0.272108 0)
(0.141966 2.43554 1.8812e-16)
(-0.0269269 6.85495 -5.73911e-17)
(2.83669 -0.0793036 -1.5004e-16)
(-0.671821 5.55026 -2.13492e-16)
(0.349436 -0.97952 3.25364e-16)
(-0.531744 -0.479674 1.66826e-16)
(2.76616 -0.0458371 1.49393e-16)
(1.71702 -0.125125 7.00373e-17)
(0.00289983 6.79589 2.22896e-20)
(-1.23946 -0.391734 -2.2814e-16)
(-0.0912128 6.80137 -2.77385e-17)
(0.542196 0.736079 -3.34339e-16)
(9.78024 0.575879 -2.51231e-18)
(4.5003 3.92196 5.96434e-17)
(6.66518 0.704709 -5.5453e-18)
(0.561039 -0.38238 2.87995e-17)
(8.20771 1.249 -3.59485e-18)
(-0.580175 4.35575 1.28633e-16)
(1.79679 -0.113558 -1.64467e-16)
(1.15992 -0.265457 1.21247e-17)
(1.53731 0.0566417 -5.93435e-17)
(-0.202073 4.97403 -1.20608e-16)
(-0.307288 6.74226 3.5233e-16)
(2.06161 1.09779 9.05758e-18)
(1.85531 0.710446 1.88757e-16)
(4.43559 2.1312 2.58949e-17)
(8.23892 0.718382 -7.76026e-18)
(-0.937818 5.97766 0)
(-0.0320487 6.72687 -2.62298e-17)
(9.19065 0.388333 4.34329e-18)
(3.45312 2.93283 -1.07875e-17)
(9.78335 0.359348 0)
(0.604129 -0.0507403 0)
(0.341805 3.37765 -1.40541e-16)
(-0.21749 6.23618 -1.96674e-16)
(-0.205449 5.49264 -2.73896e-17)
(0.769919 0.0772669 -4.77138e-16)
(0.244265 -1.05169 0)
(1.47513 4.89731 5.88118e-18)
(10.5213 2.86521 -2.60845e-18)
(0.394988 3.30431 1.03548e-16)
(0.00845423 4.40691 0)
(0.674938 3.75649 -1.14847e-17)
(4.29587 3.15087 -4.20919e-18)
(0.0132578 6.71149 4.14096e-17)
(9.53685 -0.12141 2.68514e-17)
(-0.0185115 6.87173 -4.64147e-17)
(-0.0429225 6.65542 -2.61436e-17)
(-0.0287519 6.81697 -3.98503e-17)
(0.997208 6.26119 0)
(-2.03644 -0.0632195 0)
(4.9222 4.08054 -5.78465e-17)
(5.88827 2.64351 0)
(1.06132 4.09592 -1.94997e-16)
(1.82747 0.2912 2.90518e-16)
(1.87438 0.0729564 0)
(2.15703 3.70429 2.94647e-19)
(1.66238 -0.150996 -9.67564e-17)
(0.924371 8.25982 -3.52016e-17)
(0.958387 -0.0373981 1.1187e-16)
(-0.888228 4.36688 -4.23495e-17)
(-0.0140103 6.80029 3.1077e-18)
(-0.0452991 5.94907 7.74953e-17)
(1.12927 0.426221 2.65138e-16)
(9.19909 0.869888 -1.316e-18)
(0.812927 1.29364 -1.55531e-16)
(0.560432 0.0268311 4.36494e-16)
(1.77732 -0.0999361 0)
(-0.025938 6.21776 2.39813e-17)
(0.132745 5.92566 2.80412e-17)
(10.3867 1.20353 0)
(-1.48375 0.288194 4.84135e-16)
(-0.0189077 6.85014 1.21174e-16)
(1.37507 4.08567 -4.79773e-17)
(0.915638 5.49094 -4.59876e-17)
(0.763739 8.19194 2.30238e-16)
(-0.181397 7.35539 1.89491e-16)
(1.56054 4.41235 0)
(1.39908 0.406129 2.89347e-16)
(1.40515 -0.236545 0)
(-0.173048 6.51683 -1.06788e-16)
(9.44841 1.54366 2.13747e-18)
(1.33685 7.00022 -2.99247e-17)
(5.03193 2.06017 2.59149e-17)
(-0.0515065 7.07863 1.31032e-16)
(0.512285 8.19374 4.04363e-17)
(3.7581 0.456265 3.69269e-17)
(0.0302042 6.86437 1.59434e-21)
(-0.0134023 5.9357 -3.16548e-18)
(-0.0433112 6.885 5.39269e-17)
(-0.0342223 6.99211 -2.73708e-17)
(7.5256 1.05183 8.42084e-18)
(-0.0343909 6.31272 0)
(0.223061 5.81201 -3.39712e-17)
(0.0299738 6.99032 0)
(1.31805 3.08551 2.78166e-17)
(0.0443586 -0.169813 9.22061e-17)
(2.21917 5.5126 1.11644e-17)
(9.278 1.17611 -8.74115e-19)
(0.0596683 6.55036 0)
(0.0331711 6.55632 2.09797e-17)
(0.0675831 -0.781859 6.30394e-16)
(0.0892638 6.13754 2.09637e-16)
(0.901716 8.36476 0)
(-0.263802 7.03696 -2.37575e-16)
(1.03655 0.810531 1.57902e-16)
(0.260314 -0.517748 0)
(8.9953 0.186159 -1.95505e-19)
(0.689807 -0.380245 2.7461e-18)
(1.46463 0.0940697 -1.66886e-17)
(-0.000458895 6.80175 3.59003e-17)
(-0.670759 8.50526 -3.80745e-17)
(0.798024 -0.357785 -8.61867e-20)
(9.70308 1.97735 -5.02857e-18)
(6.89371 1.95508 3.17838e-17)
(0.0112123 6.73605 -4.06178e-17)
(-0.0234667 2.86653 1.10962e-16)
(9.13574 0.167085 -2.55584e-17)
(1.2468 5.25429 0)
(0.733737 -0.163852 9.97295e-17)
(-0.174454 5.75206 2.40499e-17)
(0.901849 7.35872 -5.36531e-17)
(-1.30465 7.52601 -1.0408e-16)
(1.26932 5.3768 0)
(0.765834 8.85459 6.56421e-17)
(-0.919134 -0.0363599 0)
(0.523708 1.27988 -5.97734e-17)
(-0.0339571 6.60337 4.78463e-17)
(1.95887 2.26864 -1.34655e-17)
(0.432213 1.94922 6.47762e-17)
(8.51043 0.971623 0)
(-0.0611032 6.76084 5.10809e-20)
(8.75847 0.673474 -7.47121e-17)
(0.760115 7.07247 2.1101e-17)
(0.00381023 4.20936 2.91426e-20)
(-0.048136 4.71127 -6.44392e-17)
(-1.10547 6.37441 0)
(-0.528885 6.44512 1.29989e-16)
(0.0129192 6.73134 7.35516e-17)
(-0.0741847 5.32569 1.79704e-16)
(0.618762 0.72653 0)
(5.89308 1.39752 0)
(-0.58253 8.51334 9.48635e-17)
(6.28622 2.04582 -3.81566e-17)
(10.548 0.570862 0)
(2.97034 3.46732 -2.68859e-17)
(1.13735 0.366597 -2.20058e-16)
(-1.1361 7.86591 1.03983e-16)
(5.4373 2.68912 -3.07232e-17)
(-1.04173 5.00477 -4.30511e-17)
(0.466808 7.95808 -1.26314e-16)
(-0.0446768 7.1459 -3.09581e-17)
(1.22513 4.57843 0)
(0.0570028 4.37361 0)
(-0.753849 1.51763 1.82414e-16)
(0.0251347 4.16195 7.69302e-18)
(-0.695034 6.12804 -1.3323e-16)
(-2.9659 0.231692 -1.53878e-16)
(1.26561 1.8258 -4.03493e-18)
(-0.955074 3.47992 6.0944e-17)
(0.27355 5.75113 -3.89225e-17)
(0.898237 -0.321052 -6.28969e-17)
(3.6929 3.81358 1.83612e-17)
(-0.0712167 6.53241 -2.26671e-16)
(-0.494123 7.74525 -1.86446e-16)
(3.76252 2.16423 -1.81396e-17)
(4.98541 4.1288 2.04889e-16)
(-1.71636 0.0378265 0)
(-0.668632 0.251811 -9.95479e-17)
(0.457619 1.5236 0)
(-1.02 7.17482 -2.0456e-16)
(5.78386 3.07124 0)
(0.856565 4.36167 -2.22151e-19)
(1.06478 1.11043 1.87602e-17)
(0.88741 0.623509 -2.08478e-17)
(6.60088 5.2825 1.16239e-18)
(3.62366 4.5445 1.6592e-17)
(5.39118 3.54779 0)
(-2.02547 -0.166112 0)
(-0.774151 4.1678 0)
(0.461513 3.78705 3.92716e-16)
(-1.28468 0.135939 -2.08729e-16)
(-2.06386 0.0811538 0)
(-0.94747 8.0948 2.07725e-16)
(3.07235 0.757912 3.48003e-17)
(1.50178 -0.00170935 8.02634e-17)
(0.228515 4.22535 1.81435e-16)
(1.60638 -0.113159 1.50733e-16)
(-0.985317 7.89682 -2.11767e-16)
(-0.144399 -0.16192 -3.95151e-16)
(0.231909 -0.285175 -2.13445e-17)
(-0.82791 3.48054 -2.67645e-17)
(-0.804896 8.30083 0)
(7.06079 1.20509 5.83716e-18)
(0.360901 3.68906 -1.88903e-16)
(0.513223 2.52447 0)
(-3.45019 0.14294 0)
(-0.684926 3.40872 2.16692e-17)
(3.95661 4.56305 8.29232e-17)
(-0.538803 8.488 0)
(-0.743244 6.17828 1.26438e-16)
(0.0619914 6.56619 0)
(2.3391 3.07827 1.80015e-17)
(8.89512 0.428461 6.59902e-17)
(4.20466 4.43351 -1.45093e-16)
(-1.03016 4.39672 0)
(0.629759 2.8992 2.01179e-16)
(-0.991878 -0.873593 -3.07909e-16)
(-0.775531 4.60719 1.39113e-16)
(3.52634 4.86237 -5.98276e-19)
(-0.910264 -1.44251 2.30553e-16)
(0.509899 4.93083 -1.28575e-16)
(7.7587 1.57562 2.47917e-18)
(0.866908 0.408702 -9.65011e-17)
(9.16134 0.115872 -5.68035e-20)
(-0.521445 8.80558 6.23139e-19)
(-0.03819 0.153652 -4.83948e-16)
(-0.0406245 4.49254 -2.71499e-17)
(0.0898348 4.23789 -5.96704e-17)
(0.637499 1.29503 4.35556e-18)
(1.46589 0.522747 -3.45102e-17)
(6.59801 3.60545 2.22373e-17)
(-0.761074 7.14381 1.0865e-16)
(11.5121 3.85355 -3.61372e-19)
(-0.293476 7.56484 2.56844e-17)
(0.289323 7.042 9.72965e-18)
(1.28054 8.30087 -8.94692e-17)
(-0.233677 -1.03108 -1.91862e-16)
(8.5664 0.190227 1.06061e-16)
(2.02146 5.56173 0)
(-0.5679 8.59843 5.3805e-17)
(7.68506 1.65785 -1.2067e-18)
(4.0763 4.56402 -1.76354e-17)
(0.362328 2.25373 -6.92479e-17)
(0.423365 1.61357 0)
(7.75205 2.20832 -2.36805e-18)
(-0.611838 4.93978 2.51567e-16)
(0.328128 3.54966 9.75388e-17)
(0.569396 3.8874 0)
(-1.29213 -1.15871 1.29151e-16)
(9.93549 5.066 -1.105e-17)
(-0.744974 5.98582 3.47313e-17)
(0.352199 5.9024 -3.90923e-16)
(-0.559151 5.22603 2.04715e-18)
(0.754358 3.4082 0)
(1.64048 5.75534 -1.97746e-17)
(-0.0726151 0.0964765 1.835e-16)
(-0.225214 6.11859 -1.18122e-16)
(-0.466951 6.28071 1.23801e-16)
(1.01837 -0.26507 2.12399e-16)
(7.42387 1.73842 -4.37031e-18)
(-0.872513 5.26393 -6.53687e-19)
(-1.05896 6.30298 -3.45167e-19)
(-1.00436 6.47091 -7.02374e-17)
(-0.783464 7.52487 -2.14775e-16)
(-0.394851 5.23489 -4.14474e-17)
(3.52664 4.68584 -7.31827e-17)
(-0.567497 8.61388 1.58968e-17)
(6.44533 2.66691 1.05873e-16)
(-0.701964 8.48503 -1.57304e-17)
(-0.186398 2.94185 -5.84485e-17)
(-1.29342 6.65524 -1.56792e-19)
(-0.0602437 4.24866 8.0801e-17)
(0.193468 1.6837 9.03338e-17)
(0.371479 0.344437 4.62607e-17)
(-1.35483 6.71458 9.2107e-18)
(4.2688 4.5028 0)
(0.535539 4.21774 0)
(-1.40873 6.77364 4.55901e-18)
(-0.423193 3.16757 1.07026e-16)
(-0.500865 5.02224 -1.3488e-17)
(-1.99548 -0.331201 1.60155e-16)
(2.32538 4.99457 -3.88702e-19)
(0.168298 2.20016 0)
(0.109943 4.24186 -1.64273e-16)
(-1.42121 6.79746 0)
(-0.230466 5.8045 -5.66986e-17)
(-0.475426 3.62705 -3.00339e-16)
(0.185071 5.49389 -6.78294e-17)
(2.90583 4.97773 2.99825e-17)
(-1.37911 6.78135 1.0218e-17)
(-0.156859 -1.40328 3.54573e-16)
(-1.24535 0.697616 2.97565e-19)
(1.23815 -0.47772 1.11282e-16)
(0.536818 0.742052 -2.24894e-16)
(11.3056 1.86086 2.28696e-18)
(-0.268169 4.95086 1.00987e-16)
(-0.147619 5.14966 1.5368e-16)
(-0.266288 5.45013 1.48851e-19)
(-0.020127 5.19015 0)
(-0.35972 5.61999 -9.03128e-17)
(-0.438346 5.48574 -6.75625e-17)
(-0.351226 5.12042 -7.19366e-17)
(-0.517156 5.78602 -1.31224e-16)
(-0.465179 5.20856 2.24938e-16)
(-0.542414 5.74421 5.74989e-17)
(-0.0450609 -1.63589 0)
(9.00001 0.175743 7.35033e-19)
(0.163371 -1.26793 -9.36384e-17)
(0.130462 -0.657328 2.88331e-16)
(-1.01469 -0.109288 -3.78115e-16)
(-0.0265558 0.33233 -2.5456e-18)
(0.132137 1.29321 0)
(0.61445 1.13332 -8.51103e-17)
(1.02703 0.596319 5.44415e-17)
(0.467534 0.513546 6.80419e-17)
(0.523086 0.618222 6.37047e-17)
(-0.0655244 0.112586 -2.23495e-16)
(-0.452957 0.56254 -1.89811e-16)
(-0.243146 -1.37641 0)
(-0.719905 0.837486 -9.62254e-17)
(0.00451143 0.115939 3.52104e-16)
(0.427541 0.193129 9.88805e-17)
(7.93758 0.581677 -2.69356e-18)
(0.246719 -1.38007 0)
(0.082323 -0.252198 2.66049e-16)
(0.368617 0.365859 -1.30678e-16)
(-1.82724 0.0409795 1.4707e-16)
(7.96827 0.334791 -3.7471e-17)
(-0.447505 0.00539417 -3.01986e-16)
(0.142683 -0.421461 -1.56875e-16)
(-2.04832 -0.461626 1.66302e-16)
(-0.657827 -1.61676 2.93262e-16)
(7.92999 0.139276 1.26992e-19)
(-0.967703 -0.565845 -2.01326e-16)
(7.99111 0.0289379 -3.26717e-17)
(-0.0618311 -1.08695 -6.89812e-16)
(0.0540312 -1.46783 0)
(-0.755119 -1.44053 -3.20229e-18)
(0.544753 -0.162532 0)
(9.03448 0.101721 4.73441e-17)
(9.19546 0.149326 1.41574e-16)
(-0.920101 -1.10979 1.02396e-16)
(-1.00528 0.655214 -1.00869e-16)
(-0.602223 0.884505 6.04344e-16)
(0.219363 -1.52054 0)
(0.266203 -0.26086 0)
(-0.528898 0.96237 0)
(8.85944 0.102692 3.31333e-17)
(-0.572013 -0.11596 2.32554e-16)
(-1.36747 0.505235 1.49862e-17)
(0.621703 -0.393126 2.66308e-16)
(-0.635136 -0.547 0)
(-1.31655 0.377392 0)
(0.58479 0.473349 1.96573e-17)
(-1.32362 0.761961 1.13806e-16)
(8.46123 0.119127 -9.29141e-17)
(-0.180067 -0.917221 2.24205e-16)
(0.49249 0.559713 1.49748e-16)
(-0.744636 1.02936 2.3856e-16)
(0.981427 -0.588191 -3.23635e-16)
(-0.799959 0.149442 -1.63027e-16)
(0.246965 0.595501 1.33234e-16)
(8.27409 0.232315 2.2333e-17)
(-0.0778103 -0.0197889 -2.87408e-16)
(-0.340138 0.721707 -4.89434e-16)
(-0.243446 1.68086 1.24447e-16)
(-0.166358 1.54913 -3.19071e-16)
(-0.50626 1.13263 8.18163e-16)
(-0.257381 0.796038 -1.75571e-16)
(8.31987 0.362664 -4.48092e-17)
(9.05574 0.235747 -1.16096e-16)
(0.860301 -1.11655 -2.71045e-16)
(-0.350079 1.29795 2.00982e-16)
(-0.0638014 1.20403 1.72101e-16)
(-0.190122 0.0840206 0)
(-0.238318 1.11877 1.9287e-16)
(0.588103 -0.83803 3.03691e-16)
(-0.509301 0.910854 0)
(1.0983 0.75655 0)
(-0.422457 0.470013 2.02325e-16)
(-0.262264 0.304519 -2.26411e-16)
(-0.166328 1.52585 -6.47697e-17)
(-0.708109 1.39006 1.04599e-16)
(0.109133 -1.05549 1.83746e-16)
(8.92596 0.356517 -3.77387e-17)
(0.599944 1.02952 0)
(-0.257897 2.57426 -2.73191e-16)
(0.110284 0.851488 -1.95201e-16)
(1.18283 -0.187121 -8.14104e-17)
(-0.56843 1.9888 -7.85377e-17)
(0.166463 -0.372552 -1.18768e-16)
(8.43942 0.593541 7.46871e-17)
(-0.00553199 6.61976 -2.81037e-19)
(-0.477924 -1.55485 0)
(0.153744 1.20306 2.50662e-17)
(2.7373 3.80432 1.13366e-16)
(-0.407555 4.90062 -1.50783e-16)
(-0.585747 2.74108 0)
(-0.00857248 -0.106838 0)
(-0.765529 6.29776 0)
(0.981106 0.884108 3.33969e-16)
(0.644673 3.48464 2.01616e-18)
(0.330414 2.23314 3.46714e-17)
(-0.969946 2.03706 4.61969e-17)
(-0.0192068 -0.835448 2.29906e-16)
(-1.16454 5.84047 1.07836e-16)
(-0.210331 1.28073 -2.62851e-16)
(-0.524864 7.66435 -3.84993e-17)
(-0.341566 4.07782 3.03748e-16)
(-0.143187 2.34074 3.42949e-16)
(0.606596 2.92473 4.80148e-17)
(1.76542 5.37686 -5.60031e-18)
(0.818684 3.66005 -5.43601e-17)
(-1.10693 6.06455 0)
(-0.689275 6.5422 0)
(1.10775 5.4975 1.83364e-16)
(-0.206359 1.08216 3.16283e-16)
(-0.558419 8.5626 0)
(-1.01598 6.60756 -2.3129e-16)
(2.5926 0.298521 -2.42091e-16)
(0.0792582 0.992686 -6.06144e-16)
(0.10029 -0.429392 2.01066e-17)
(-0.278673 1.87525 -1.18343e-16)
(0.463905 2.82998 5.82325e-18)
(2.99003 6.92729 0)
(-0.612007 6.4236 2.44384e-17)
(8.7517 0.864589 -6.85715e-18)
(5.6846 3.71409 6.23797e-17)
(-0.842254 3.51229 0)
(5.60055 7.51998 0)
(-0.608831 2.55862 6.19245e-17)
(0.769508 4.8199 0)
(1.286 -0.259994 -1.20617e-17)
(-0.359872 2.71114 -7.78825e-17)
(-0.773036 8.3369 9.61733e-17)
(-1.35276 6.34514 -2.18277e-17)
(4.36109 4.64975 -3.58371e-17)
(-0.502403 5.09321 -4.37514e-17)
(-0.373007 2.88988 -8.31296e-17)
(-0.350615 1.6861 7.89688e-17)
(1.01665 3.50345 4.65825e-17)
(0.468903 -0.207375 1.55889e-16)
(-0.153798 2.63614 0)
(-0.421739 4.51754 9.31168e-18)
(-0.00244451 4.82767 2.11445e-19)
(-1.35898 6.24093 0)
(2.35593 4.64497 1.95306e-18)
(0.696829 1.73011 2.11464e-16)
(2.16166 4.64319 -1.09524e-16)
(2.79381 4.70699 1.46846e-16)
(-0.0234172 6.82439 7.85955e-21)
(-0.00303055 6.75602 -9.48873e-17)
(-0.270311 5.01646 -3.61594e-16)
(-0.579446 1.18232 0)
(0.282489 0.0730189 1.38628e-16)
(-0.419043 3.6324 -2.32061e-17)
(-0.741455 5.97417 2.35672e-17)
(-0.148376 5.93869 -8.48024e-19)
(1.01871 5.90099 -9.94482e-17)
(-0.289504 6.51631 -1.16927e-19)
(-0.855717 5.94539 0)
(0.0152199 -0.85518 -2.00831e-16)
(0.658925 5.59117 3.35615e-16)
(4.98516 2.97716 0)
(9.1737 0.621499 2.55586e-18)
(1.17854 5.13811 3.49291e-17)
(-0.813799 2.70504 5.56715e-18)
(-1.29913 6.91057 3.17788e-17)
(-0.386008 4.30322 0)
(2.0694 4.1671 1.13318e-16)
(0.491945 3.00549 -2.62629e-16)
(2.74917 11.2773 5.12467e-18)
(3.30919 4.53594 5.59787e-17)
(-0.672408 0.258048 -5.71192e-17)
(1.08939 -0.167355 -2.42696e-16)
(0.283304 -0.302278 7.86791e-17)
(-0.900296 2.5125 -7.35552e-17)
(-0.695784 6.43511 1.8333e-16)
(-0.470227 4.43595 -1.23805e-17)
(-0.322897 4.06656 -5.94145e-17)
(-0.870541 8.17787 1.01944e-16)
(10.3533 0.185715 -1.16659e-17)
(0.408036 -0.351509 -4.78032e-17)
(0.0689368 2.10191 -9.86011e-17)
(-0.000666418 5.30137 -2.22647e-17)
(3.01659 2.02181 -1.32028e-17)
(3.07997 4.42149 -2.1976e-16)
(-0.280727 2.20644 -7.5016e-17)
(-0.706334 6.36865 1.13128e-16)
(-0.949744 3.34494 6.66581e-17)
(0.903551 3.38645 -8.23045e-17)
(-0.873832 6.46124 -1.15225e-16)
(0.00920571 -0.281545 0)
(2.9452 4.48849 -5.76095e-17)
(0.998751 3.49502 0)
(-0.994872 3.72382 7.92954e-17)
(-0.534324 5.35881 0)
(-1.08093 -0.177167 4.60321e-16)
(-0.539194 4.98373 -1.29175e-16)
(-1.3049 6.39217 2.84367e-17)
(1.85342 4.23803 8.74375e-17)
(6.10871 0.237396 -8.44475e-17)
(0.0879549 0.611545 1.63233e-16)
(-0.320014 4.39816 -1.37663e-16)
(1.95895 3.93334 6.47893e-17)
(-0.779812 7.83184 -1.04561e-16)
(6.21096 3.22111 -1.98709e-16)
(-0.453907 -0.190921 6.8462e-17)
(-1.19163 6.80322 0)
(-0.448954 5.81062 -2.28079e-17)
(-1.00162 2.92344 5.74004e-17)
(1.43633 3.80076 -2.25103e-17)
(0.636863 3.67621 1.33823e-16)
(2.85929 0.805446 1.79576e-16)
(3.30617 4.9931 1.5827e-17)
(-0.290878 2.56619 1.02394e-16)
(-0.609467 7.49575 -3.80256e-18)
(-0.052132 2.44665 1.42631e-16)
(2.5049 4.42773 -9.93538e-17)
(1.49335 -0.668631 5.37309e-17)
(0.511308 3.10992 -8.49877e-17)
(-0.441482 5.31 -1.37766e-16)
(1.42398 3.96921 -5.45708e-17)
(0.762471 1.26495 0)
(8.62409 0.337454 -1.75585e-16)
(7.86545 1.48634 1.17182e-17)
(-0.97193 6.63295 7.49663e-17)
(-0.488818 3.0249 3.77113e-16)
(-1.02689 4.68204 2.23012e-17)
(-0.299206 2.11929 0)
(0.70966 0.00407153 -1.85861e-16)
(-1.18998 1.08273 5.41275e-17)
(0.520882 0.969622 -2.52632e-16)
(-0.47765 5.95499 -1.0029e-19)
(-1.90477 -0.858898 -1.25573e-17)
(-1.27627 6.72771 3.84827e-17)
(2.66635 1.25602 -8.3583e-18)
(9.08356 0.487972 0)
(-0.591756 5.77945 0)
(-0.154255 2.39768 -5.05227e-17)
(0.424807 -0.458362 2.22781e-16)
(9.72395 0.54818 0)
(0.14029 -0.0452569 1.16346e-19)
(0.588035 2.53336 -3.60471e-16)
(0.967825 2.23939 0)
(1.69183 2.81418 0)
(0.196528 4.61888 -8.78501e-17)
(2.83203 5.20486 1.72611e-17)
(8.43929 0.431801 0)
(-3.73706 -0.406086 1.07862e-16)
(-1.38752 -0.294642 -1.10886e-16)
(-0.452626 3.69741 0)
(-0.184346 4.19186 0)
(0.466008 -1.43373 1.536e-16)
(1.9161 0.254116 -7.28396e-18)
(0.198396 2.18184 1.14259e-16)
(-0.234887 3.01701 -2.09123e-16)
(-0.328005 7.6212 3.78056e-17)
(1.52178 0.217946 0)
(0.927016 0.123119 0)
(-0.459613 5.91636 -9.08421e-17)
(4.59859 0.341067 -2.39301e-18)
(0.669561 1.17789 -2.71293e-16)
(0.73225 0.0629106 2.06778e-17)
(4.7198 4.28326 -2.98293e-18)
(3.4358 0.325412 0)
(1.67205 4.58999 0)
(-1.31912 6.08691 -4.57366e-18)
(1.18881 0.176142 0)
(-0.287523 5.32358 0)
(10.6218 0.619626 -1.35646e-18)
(0.0391237 2.32663 -2.91813e-16)
(4.00541 0.335435 0)
(2.33541 5.27629 -2.88769e-18)
(-0.964421 6.50473 2.13317e-17)
(-0.413349 4.30906 6.81203e-17)
(0.415094 4.1351 -1.49485e-16)
(0.423879 6.9039 -2.90859e-18)
(-0.289866 7.24563 2.26072e-17)
(-0.981719 0.258543 -5.89501e-20)
(-0.490378 7.38534 -2.11573e-16)
(-0.394787 2.90312 -3.65581e-19)
(-0.348193 2.18311 1.91957e-16)
(-0.403391 0.71338 -3.0625e-16)
(-0.543454 6.4827 1.15626e-16)
(-0.721447 7.42145 0)
(-0.0146987 6.83025 1.53037e-18)
(9.09153 0.159863 -1.03381e-17)
(-1.19293 5.27481 0)
(-2.72677 0.447541 3.39754e-16)
(2.51799 0.696999 1.69838e-17)
(0.182114 3.66495 0)
(-0.38719 2.97862 2.67678e-16)
(1.16108 7.15957 0)
(2.01233 7.99423 2.80978e-17)
(-0.153709 0.835028 0)
(4.59998 1.40012 1.75813e-17)
(0.366969 2.35897 -2.37097e-16)
(-0.371162 0.322538 -1.2772e-16)
(0.380687 1.25474 -2.03985e-17)
(-0.422891 2.49024 1.76936e-16)
(-0.315784 7.5066 -3.54331e-17)
(5.16399 0.344293 8.5182e-18)
(7.9371 0.371851 0)
(0.0392981 -0.480401 -2.32311e-17)
(-0.00583766 5.42312 0)
(-0.473144 5.01946 0)
(0.131123 1.1899 -1.43124e-16)
(0.67823 1.78815 0)
(-0.251815 4.40444 0)
(0.521377 2.5789 -3.97887e-17)
(1.03396 0.0340749 0)
(-0.892196 -1.41208 1.57165e-16)
(-0.185891 3.83949 5.75956e-17)
(-1.01885 -0.0239641 2.3926e-16)
(-1.29559 1.9533 1.04583e-16)
(1.48335 3.78807 1.37328e-17)
(1.13377 0.670363 -6.61624e-17)
(-0.464253 -0.56083 -4.39271e-16)
(12.8281 2.7518 0)
(-0.0386427 3.61695 0)
(-0.678461 8.35301 -1.03722e-16)
(0.238501 1.22514 -1.30725e-18)
(-0.235235 4.53688 1.21632e-17)
(0.050065 2.56153 1.95882e-17)
(10.0737 2.4777 3.38408e-18)
(0.817726 1.36815 5.08883e-17)
(-0.552189 2.21191 -6.58589e-17)
(-1.06016 0.735931 3.77791e-16)
(-0.488163 -0.772157 -2.84931e-16)
(-0.0274857 6.17966 0)
(0.258167 -1.10729 4.70411e-16)
(0.359138 -0.354427 -2.76544e-16)
(-1.37266 7.04125 -1.96574e-17)
(0.752097 2.7508 -1.5004e-17)
(-0.325348 2.45962 -3.06475e-16)
(-0.0222775 5.95785 -4.76633e-18)
(0.119419 3.46019 1.85647e-16)
(-0.484859 7.43087 5.8555e-17)
(-0.672351 7.89212 0)
(0.586688 5.99058 6.22011e-17)
(0.549144 -0.0268475 8.28466e-17)
(-0.447183 3.27705 0)
(-1.19984 7.50679 -9.19259e-17)
(-0.0134943 1.67663 -5.12775e-16)
(1.84922 4.98813 0)
(-3.01179 0.264021 -1.02994e-16)
(-1.22508 5.51452 0)
(0.389762 -0.602828 3.61054e-18)
(2.37017 0.28646 -3.28601e-18)
(8.49009 1.30114 2.39365e-18)
(0.585876 2.41373 0)
(0.537926 6.09505 1.24014e-16)
(-0.0151151 6.72455 -8.03619e-17)
(1.22638 5.86926 0)
(0.210911 -0.325789 -1.32309e-16)
(-0.631594 1.35813 -1.2099e-16)
(-0.0380478 6.27822 -7.90115e-17)
(-1.09642 7.11152 6.80957e-17)
(-0.0422719 6.01093 1.7694e-16)
(0.605783 0.0122347 -4.44763e-17)
(-0.632488 -0.542148 0)
(0.147966 6.4433 0)
(-0.662796 -0.376915 3.50511e-17)
(-0.987913 4.3184 1.06173e-16)
(-0.00611902 6.75773 -2.78906e-17)
(0.417828 0.0604939 1.37269e-16)
(-0.25928 -0.104466 -2.59144e-16)
(-0.161431 4.61684 0)
(-0.346155 4.53182 7.00655e-17)
(9.95375 7.33476 -1.31327e-18)
(-0.0488716 5.89485 2.44325e-17)
(-0.647286 5.70415 -1.1725e-17)
(-0.456419 2.88275 -6.42459e-17)
(0.515015 2.84298 2.19149e-16)
(5.11553 2.25452 2.7302e-18)
(0.899247 0.00147687 -1.75433e-16)
(2.06421 4.51803 0)
(10.0865 0.95292 2.64136e-18)
(-0.735863 7.83073 3.59671e-17)
(7.83869 0.861117 1.32807e-18)
(-0.3487 3.56561 -8.82283e-17)
(0.137545 -1.48567 -1.44521e-16)
(-0.443847 6.18604 -1.75068e-16)
(-0.495742 6.11551 4.50977e-19)
(1.42989 0.609318 3.33609e-16)
(0.647652 5.9808 -1.07592e-16)
(-1.11537 5.90337 -2.14878e-16)
(-0.737763 5.6807 3.39736e-19)
(2.89377 0.311297 1.27521e-17)
(0.0256573 5.45856 -4.37607e-17)
(-0.725036 8.41427 1.86505e-17)
(0.147725 6.90894 -1.77121e-18)
(0.134048 -1.03852 0)
(0.196569 -0.762992 0)
(-0.511614 5.98204 -4.68822e-17)
(5.74848 0.339975 1.91165e-18)
(7.47611 0.262993 -1.63807e-17)
(-0.0068076 6.64407 1.10331e-16)
(2.62314 5.32581 -2.172e-17)
(3.21071 0.210118 8.41445e-17)
(1.58151 0.320764 9.89798e-18)
(-0.294756 5.86127 3.55335e-17)
(-1.23438 5.89839 -7.17407e-17)
(-0.102784 4.4571 3.03851e-16)
(-1.12282 4.97469 -6.9532e-17)
(0.112987 0.715433 0)
(-0.477658 0.830564 -9.88023e-17)
(-0.100184 4.28628 -8.60861e-17)
(-0.978721 6.57324 0)
(7.91899 0.888869 -1.02568e-17)
(-2.28141 0.435006 5.73941e-17)
(5.65656 0.646894 0)
(-0.413016 3.75806 0)
(6.9795 2.62226 -2.75625e-17)
(-0.261544 7.6107 1.16695e-17)
(0.195785 6.94688 -4.98553e-18)
(-0.942492 2.72015 0)
(1.07894 4.0975 5.54523e-17)
(-1.16194 -0.234101 6.68677e-16)
(-3.02697 -0.371004 -3.72473e-16)
(0.770236 0.267375 -5.4776e-17)
(0.74632 0.795773 8.73586e-17)
(-1.01578 0.15134 1.99901e-16)
(-2.6818 0.222915 0)
(0.985661 4.5406 -5.2947e-17)
(2.33594 5.29886 -1.4261e-18)
(0.579898 1.6342 9.61657e-17)
(1.43379 5.6695 -2.02472e-17)
(-0.528384 4.22674 0)
(-1.29395 7.33395 5.98057e-17)
(-0.509855 4.12417 5.94191e-17)
(-0.777654 -0.850682 0)
(8.93013 0.281666 1.61936e-16)
(-1.21866 6.95705 0)
(-0.617643 5.47566 0)
(4.03625 5.04364 -2.76211e-18)
(-1.0989 7.62067 1.12449e-16)
(0.150307 2.32962 1.60946e-16)
(1.51631 0.18887 -2.4621e-16)
(-0.155877 -0.800475 2.29255e-16)
(0.424656 0.394955 2.84871e-16)
(-0.401942 5.44492 0)
(-1.06377 6.78181 7.35841e-21)
(-0.334473 4.55921 -1.46632e-16)
(7.57166 -0.0730654 -8.30952e-17)
(-1.14821 -0.512966 5.94093e-17)
(-0.531665 6.75815 2.13766e-16)
(1.65917 0.251449 -1.52193e-16)
(2.88386 2.64906 1.55911e-17)
(6.62678 -0.0806638 5.00697e-17)
(4.48396 0.281564 -8.12356e-17)
(0.114283 7.78951 8.7881e-17)
(0.0910272 5.31195 4.17312e-19)
(0.0866297 5.22529 7.55762e-17)
(0.0176608 5.03778 6.88735e-19)
(0.0584767 5.12232 0)
(0.12932 8.42904 -7.77391e-17)
(0.0853367 5.32086 -1.44866e-16)
(-0.0196257 4.95796 -7.21255e-19)
(-0.0473827 5.25417 -1.88466e-17)
(-0.05671 5.00849 0)
(0.0331258 5.05598 4.09929e-17)
(0.116931 7.36506 0)
(0.281196 9.1478 0)
(0.0519898 5.24157 -5.45913e-17)
(0.202806 6.61406 -3.99546e-18)
(0.159715 7.00736 -3.82281e-18)
(0.0519884 5.33642 1.74987e-17)
(0.0614328 5.23904 7.55035e-17)
(0.037845 5.19263 0)
(0.0270712 5.33165 -2.42797e-17)
(0.0339007 5.17836 0)
(0.0390918 5.22845 0)
(-0.00482084 5.27732 1.80906e-17)
(0.046319 5.29267 0)
(-0.481688 3.78507 6.88456e-17)
(5.75055 3.75919 -5.30309e-17)
(-0.869069 0.349439 2.16259e-16)
(0.205419 1.09934 0)
(0.5466 2.43704 -1.36002e-16)
(-0.60971 -0.0847856 1.1235e-16)
(0.180252 0.432082 5.73035e-16)
(7.45347 0.992112 -2.3352e-17)
(-0.265402 7.49153 -1.45336e-17)
(0.394699 7.25097 0)
(-0.409067 0.223654 5.88128e-16)
(1.92319 -0.514345 2.56777e-16)
(-0.547608 2.12025 0)
(5.72383 0.158577 3.95344e-17)
(0.438215 -0.699745 -2.72721e-16)
(-0.150325 0.714162 -1.63925e-16)
(6.61708 3.10311 9.39992e-17)
(0.660634 1.40469 -6.98636e-17)
(-0.504932 4.39042 6.45208e-17)
(0.614549 0.686306 -5.70487e-17)
(1.04602 -0.0834678 -1.13638e-16)
(7.72859 1.20988 -3.27575e-19)
(-0.997086 -0.135139 -2.94221e-16)
(0.0426628 5.37251 0)
(-0.0462304 4.81514 2.86925e-16)
(1.80207 5.60472 7.82119e-19)
(-0.193902 0.798932 7.32346e-17)
(0.017496 1.91467 0)
(9.50038 0.132809 3.53767e-17)
(-0.116077 2.47668 -1.21172e-16)
(1.06294 0.183673 4.38178e-18)
(-0.467376 3.62005 9.37527e-17)
(-0.592699 8.43865 0)
(-0.773569 3.78925 6.15068e-18)
(-1.02616 4.09944 -4.52159e-17)
(7.88408 1.9028 2.67963e-17)
(-1.88022 -1.25515 2.13322e-16)
(-0.258011 -1.09507 -2.75127e-16)
(0.57687 -1.05967 1.82553e-16)
(-1.35504 -0.137575 -6.42327e-17)
(-1.23946 5.74096 2.25614e-17)
(-0.118982 5.97989 1.68145e-21)
(0.125604 5.64678 -1.64997e-17)
(-0.0678196 1.35284 0)
(0.100387 6.1986 7.67525e-19)
(-1.31053 1.2563 4.42871e-17)
(1.01958 0.417064 1.28161e-16)
(0.302328 -1.30809 0)
(-1.6018 1.25217 -2.68873e-16)
(-0.289112 2.86059 0)
(9.89116 0.748785 2.4693e-18)
(-0.925171 5.34864 0)
(-0.231315 6.2827 -4.35616e-17)
(-0.288788 2.02331 1.27854e-16)
(-1.26294 -1.59696 2.23247e-16)
(1.06113 -0.136072 0)
(-0.310768 -0.400414 -3.62772e-17)
(0.0323263 5.29652 3.138e-19)
(-0.0904289 -1.10915 0)
(0.645207 -0.0909066 0)
(-0.623598 6.3454 -1.3015e-16)
(0.0466048 5.93191 -8.981e-18)
(6.93224 0.0813247 0)
(1.15429 0.965868 -1.0409e-16)