/*--------------------------------*- C++ -*----------------------------------*\
| =========                 |                                                 |
| \\      /  F ield         | OpenFOAM: The Open Source CFD Toolbox           |
|  \\    /   O peration     | Version:  v1912                                 |
|   \\  /    A nd           | Website:  www.openfoam.com                      |
|    \\/     M anipulation  |                                                 |
\*---------------------------------------------------------------------------*/
FoamFile
{
    version     2.0;
    format      ascii;
    class       volScalarField;
    location    "0.74";
    object      k;
}
// * * * * * * * * * * * * * * * * * * * * * * * * * * * * * * * * * * * * * //

dimensions      [0 2 -2 0 0 0 0];


internalField   nonuniform List<scalar> 
1431
(
0.0330866
0.484647
1.49786
0.944439
0.0397279
0.494151
0.235722
0.196735
2.35659
1.18511
0.297157
0.0734678
0.0843444
0.932702
1.39666
0.427727
1.5239
0.167807
0.306624
0.270457
0.040725
1.32218
0.773644
1.01865
0.881245
0.253163
0.868722
0.855236
0.499703
0.0865937
0.896638
0.31432
0.830274
0.146302
0.157574
0.971837
0.266035
0.313386
0.361015
0.306309
1.95563
0.245664
0.147454
0.163335
1.18588
0.0423678
0.917201
0.210965
0.423799
0.397785
0.0935689
0.910913
1.65444
0.220606
0.193662
0.203392
0.765841
1.12063
0.763447
0.0422406
1.10342
0.209728
1.07598
0.292258
0.593378
0.156756
1.38835
0.403678
0.680688
0.322707
0.116944
0.12691
0.21091
0.423626
0.221544
0.619532
0.0466712
1.38325
0.224005
1.29117
0.269435
0.104787
0.159274
1.15952
1.26738
0.0514896
0.0533303
0.248422
1.11631
0.242757
0.172359
0.47291
0.0601135
0.312515
0.147977
0.0510036
0.199113
0.264987
0.0523173
0.615078
0.812538
0.223009
0.20202
0.0411487
0.424281
0.121081
0.240092
2.29803
1.22339
0.0465778
1.49854
0.156748
0.215185
0.212729
0.394362
0.0399996
0.171372
0.845123
1.23112
0.939079
0.2928
1.42446
0.89446
0.907841
0.29355
0.190598
1.37156
0.106784
0.0441942
0.486935
0.139429
1.99459
0.737671
0.263374
0.0634452
0.705307
0.24111
0.121774
0.0778407
2.06854
1.52565
0.0660839
0.289759
0.443726
0.512035
0.37357
0.266944
2.33378
0.262955
0.360998
0.506399
0.638628
0.25818
0.0906645
0.166268
0.0898949
0.283073
0.22303
0.207215
0.25806
0.154154
0.286728
0.0975638
0.211329
0.0461645
1.86088
0.0535243
0.304505
0.0886228
0.268998
0.630754
0.372726
0.857208
0.385683
0.282651
0.0318012
0.0794958
0.498374
0.0906679
0.217925
0.316461
1.07018
0.207115
0.23948
0.348329
0.386673
0.231303
0.762074
0.254517
0.299191
0.197599
1.71156
0.0479374
0.254151
2.53278
0.276628
0.234252
0.261638
0.175225
0.13465
0.0908661
0.728912
0.319696
2.03523
0.246266
1.00701
0.0551567
0.305094
0.268185
0.474165
0.264218
0.21571
1.17132
0.299664
0.422045
0.568015
0.200441
0.111455
0.42502
0.304256
0.291791
1.15909
0.430516
1.7948
0.318484
0.531721
0.532629
0.253058
0.415244
0.941776
0.0483485
0.609689
0.302372
0.20102
0.196762
0.20477
0.287038
0.0476363
0.274437
0.205873
0.311143
0.285166
2.4
1.49729
0.0895638
0.100008
0.309228
0.181702
0.180372
0.540913
0.266663
2.45014
1.18076
0.496246
1.07991
0.664149
0.079461
0.201932
0.622071
0.645644
0.677435
0.124146
0.0477498
1.60145
0.198715
0.403524
0.574958
0.250423
0.420475
1.9847
0.239762
0.48885
0.265044
0.263965
0.693645
0.272039
0.225173
0.107917
0.117456
1.18559
2.12678
0.211923
0.315877
0.248147
0.602954
0.752757
0.0512282
0.191112
0.479851
0.292449
0.391514
0.33355
0.193214
0.105564
0.289734
0.214705
0.0456645
0.253007
0.251336
0.237782
0.322621
0.547918
0.0828008
0.229094
0.186282
0.312128
0.281581
0.653607
0.632408
0.0967895
0.30452
0.337369
0.981934
0.0748842
0.120398
0.350769
1.22094
0.207441
0.197843
0.691812
0.289948
0.527082
1.29138
0.253268
1.53877
0.796626
0.25735
0.821685
1.23571
0.29392
0.490755
0.0756166
0.179652
0.157895
0.277832
2.29316
0.0957536
0.361271
0.103655
0.0858285
0.0999093
0.263594
0.916152
0.437901
0.935047
0.0325833
0.323243
0.0551424
0.0497103
0.0985532
0.0503401
0.0431914
0.0560277
0.110265
0.0658333
0.0632802
0.0478484
0.0386229
0.114833
0.100998
0.0688649
0.0853197
0.104272
0.0174565
0.0670682
0.0512563
0.088636
0.110463
0.611462
0.709761
0.432521
0.168398
0.620183
0.333048
0.0890409
0.911731
0.489059
0.327886
0.362147
0.114325
0.0392682
0.0481761
0.0808978
0.0511499
0.110567
0.0965604
0.112869
0.0504567
0.114144
0.0314508
0.0585755
1.34732
0.456554
0.362254
0.707036
0.0894103
0.211088
0.315572
1.08296
0.279537
0.0781777
0.448517
0.307959
0.112981
0.464391
0.327445
0.182988
0.250821
0.0854382
0.564316
0.617702
0.233235
0.106805
1.17049
0.474198
0.68796
0.522445
2.00744
0.159965
0.131721
0.234319
0.409731
1.23932
0.258865
0.30724
0.587339
0.369715
1.04063
1.75303
0.727779
1.80123
0.208072
0.202861
0.639867
0.213777
0.703964
0.498768
0.652761
0.241935
0.284046
0.242492
1.12836
0.510628
0.418811
0.0932007
0.746381
1.05683
0.173038
0.0757193
0.981838
0.782907
1.0692
0.976865
1.25673
0.483861
1.22154
1.02171
0.898231
1.14629
0.203122
1.28529
0.369722
0.305949
0.392273
0.18531
0.163492
0.0739159
1.59775
0.24864
0.168101
1.45069
0.128877
0.223249
0.722616
0.254062
0.151665
1.28559
1.23573
1.7604
0.148001
0.383461
0.121529
0.742719
0.207199
0.312556
0.256601
0.465045
1.1639
0.710451
0.0605914
0.0581237
0.261036
0.146235
1.41424
0.187604
0.114412
1.04738
0.236061
0.325231
0.239325
0.583544
1.36126
1.05927
0.853661
0.68049
0.0957203
0.141529
1.20721
0.438564
0.966836
0.839357
0.130555
0.228036
0.505975
0.315542
0.50124
1.57862
1.20909
0.404863
0.157779
0.0853661
0.178117
0.12068
0.0963575
0.131563
0.588005
0.36583
0.573206
0.146852
0.417004
0.313701
0.235504
0.272135
0.127086
0.865819
0.525194
1.4641
0.426824
0.697864
0.955716
0.9198
1.33999
0.474623
0.481966
0.0401916
1.33703
0.681652
0.21729
1.03919
0.130836
0.253826
0.042575
0.615717
0.653579
0.195987
0.419382
1.74729
0.545497
0.611944
0.193538
0.779986
0.386464
2.1186
1.62399
1.06197
0.237097
0.508713
0.201636
1.00168
0.669221
0.0597342
1.28659
1.07722
1.3093
1.35655
0.197219
0.402742
0.0860458
0.494893
0.445438
0.107962
0.2233
0.370974
0.780835
0.178399
0.435149
0.39824
0.315579
0.0988584
0.399093
0.676335
1.10113
0.359632
0.295651
0.275855
0.428746
0.058117
0.250497
0.204526
0.0656863
0.432918
0.406905
0.129345
0.69787
1.0566
1.11503
0.297603
0.113855
1.50174
1.32366
0.970364
0.790072
0.232193
1.19169
1.16484
0.205228
1.26369
1.07591
1.49278
0.985058
0.112591
0.238201
0.163791
0.0777797
0.122601
0.306715
0.100551
0.0559968
0.664822
0.229882
1.51499
0.148039
0.0518541
0.238347
0.265451
0.809295
0.11482
0.198092
0.539994
0.152797
0.694845
1.57922
0.247102
0.94924
0.0920244
1.3798
0.665427
1.92508
0.908014
0.15401
0.109799
0.313245
0.262009
0.61483
1.99556
0.738041
0.256774
0.33216
0.297677
0.881469
0.911046
0.0693495
0.172517
0.20259
0.282719
0.0415442
0.359069
1.36003
0.923188
0.813429
0.0574724
0.264314
0.167217
1.01551
0.319035
0.312939
0.535194
0.351668
0.0771698
0.490882
1.15095
0.0441657
0.193354
0.101711
0.0969324
0.257428
0.273675
1.26375
0.624183
0.376447
1.17751
1.06613
0.97422
0.0608422
0.582397
0.0991096
0.017042
0.0607124
0.272535
0.202624
1.02339
0.0966984
0.188038
0.0824617
0.0546528
0.662865
0.584808
1.16488
0.362715
2.10436
0.0855274
0.0643999
0.12341
1.38825
1.44605
0.421458
0.5013
2.72626
0.208587
0.060977
0.413648
0.299178
0.218122
1.56381
0.0882394
0.427625
1.40546
2.03185
0.47873
0.0580779
0.582223
0.0674362
0.47224
0.476433
1.5401
0.189923
0.18108
0.0832315
1.07138
0.175807
1.14151
2.24948
0.316424
0.0759242
0.592668
0.404732
0.211163
0.440098
0.745887
0.0703897
1.69252
0.190723
0.487506
0.517098
0.223222
0.164722
0.350117
0.52144
0.421367
1.54521
0.610985
0.793969
0.777745
0.8161
0.306353
0.999664
0.185038
0.875901
0.614315
0.501498
0.096712
1.50178
0.0555735
0.107969
0.249148
0.571816
0.0651224
0.988419
0.410804
0.0658071
0.126642
0.0426227
0.53412
1.36887
0.359022
2.39772
0.0633294
0.11332
0.103304
1.76301
0.230027
0.192114
0.898451
0.607142
0.362676
0.309646
0.0511964
0.101205
1.60828
0.229797
0.488712
1.37761
0.217927
0.0901918
0.0270357
0.274609
0.935567
0.142053
1.08288
0.0425273
0.280635
0.234464
1.41063
0.0628497
1.18885
0.537765
0.527581
0.518755
0.528238
0.503224
0.508795
0.509199
0.552333
0.37476
0.202121
0.384861
0.175805
1.54749
0.0876094
0.0568441
0.0641312
0.0687717
0.0941999
0.0797212
0.0896571
0.577089
0.266262
0.619154
0.0688406
0.301669
0.194316
0.258202
0.263375
0.505864
1.4997
0.232773
0.132503
0.359478
0.372701
0.237081
0.460221
0.453952
0.253122
0.122446
0.864191
0.168879
0.783443
1.44387
0.320633
0.344828
0.225101
0.236989
0.0913918
0.141836
0.168437
0.0388744
0.215709
0.204085
0.0473334
0.0996247
0.316014
0.879471
0.129639
0.596123
0.0895863
0.24806
0.183826
0.176496
0.0994892
0.248243
0.0550296
0.0737435
0.168379
0.118258
0.293113
0.0342648
0.158032
1.33858
1.36449
0.292586
0.447156
1.50035
0.459478
0.269669
0.279959
1.37235
0.0754359
0.116578
0.0875486
0.0708656
0.0915177
0.0964389
0.859917
0.63695
0.803714
0.754999
0.48968
0.145669
0.0809107
0.278926
0.179292
0.223006
2.06833
0.124613
0.944422
0.767515
0.531523
0.356946
0.187794
0.068974
0.1613
0.219577
0.15489
0.233138
0.21154
0.712667
0.0730327
0.530307
1.50969
0.528104
1.98853
0.190054
0.262724
0.34355
0.302861
0.323744
0.36314
0.278824
0.248981
0.334816
0.0450255
0.0553011
0.250563
0.20921
0.0359862
0.0958708
1.53792
0.0484778
0.120707
0.023071
1.49201
0.0235333
0.454999
0.563554
1.96064
0.107254
0.155521
0.13476
0.58431
0.156803
1.30473
1.86375
0.178074
0.111663
0.394559
0.0247924
0.0925081
0.744944
0.0217819
0.74899
1.22908
0.945276
0.379686
0.576783
1.34824
1.14666
0.239891
0.0376748
0.0508365
0.0846159
0.552737
0.403808
0.381626
1.12938
0.916213
0.613371
0.055568
1.40175
0.0198763
0.589555
0.0221048
0.252562
0.331747
0.490041
0.328068
0.125187
2.32122
0.659925
1.65551
0.0459891
0.719644
0.878439
0.4559
0.215901
0.224958
0.198364
0.589512
1.66627
0.350427
0.212801
1.48109
1.36959
0.228222
0.264058
0.781087
1.38975
0.954825
1.19522
0.159238
1.70599
0.739671
1.00825
0.199806
1.00689
0.725899
0.141617
0.298204
0.114434
0.404462
2.11142
1.37312
1.35132
0.406772
1.51485
0.168614
1.44599
1.25947
0.316443
0.114982
0.117036
0.631012
0.0385857
0.0361821
0.0957348
0.192295
0.186243
1.42758
1.7811
0.189683
1.31318
0.162178
0.461062
1.87321
0.87991
0.164095
0.168238
0.173698
0.398388
0.0524576
0.204123
0.244388
1.78783
0.349466
0.575143
0.212833
0.118158
0.37117
0.309254
0.327414
1.75817
0.155379
0.202149
0.486977
0.852597
0.24408
0.0899507
0.0360629
0.773329
0.353087
0.355093
0.0214958
0.109249
0.0920394
0.170975
0.244775
0.022528
0.525923
0.801266
0.448516
1.85515
0.512598
0.385007
0.0883621
0.20648
0.507706
0.0194205
0.151813
0.334496
0.0453241
1.17437
1.29928
0.0235252
0.374674
0.840676
0.0482546
0.375214
0.83049
0.0504754
0.0948529
0.636812
0.137783
1.76258
0.134693
0.682632
0.098301
0.895705
0.591657
0.147839
0.459361
0.249471
0.127512
0.102037
0.366565
0.0274467
0.976294
0.0196499
0.108506
0.579228
0.227513
0.192994
0.355924
0.210731
0.034643
2.45485
0.144505
0.237062
0.317943
0.564784
0.112163
0.0588978
0.097021
0.162467
2.78786
1.45343
0.141125
0.20709
0.718345
0.0459354
1.00872
0.259448
1.36692
0.0421663
0.0972265
1.606
0.128255
0.13693
1.97337
0.785599
0.512625
0.287284
1.29588
0.0253279
0.103092
0.094315
1.59807
1.02977
0.981737
0.0503005
0.0977206
0.0205192
0.336462
0.313375
2.33741
0.87408
0.602795
0.36632
0.204637
0.157237
0.096517
0.760272
0.858938
1.27945
0.192085
0.0446475
0.734157
0.633932
1.53872
1.90394
0.432599
0.0737892
0.142754
1.16426
0.544565
0.0254405
2.00923
2.04208
0.749533
1.06712
0.135861
0.300573
1.2773
0.822157
1.06249
0.0993182
2.07032
0.67655
0.345969
0.0647328
1.56333
0.351685
0.359977
0.875128
1.66456
0.260435
0.106898
0.15754
1.64252
0.274178
0.198079
1.07672
0.117929
1.64978
0.431013
0.0329894
1.6225
0.196068
0.289786
0.265778
0.412089
0.344099
0.610382
1.34864
0.0415336
0.912188
0.026862
1.44345
0.782112
0.0597606
0.205253
0.0452443
0.130953
1.45372
0.82898
0.211424
0.245639
1.23609
0.0615936
0.101803
0.769837
0.269984
0.0486028
0.231181
0.201859
0.169864
1.79013
1.34385
1.0952
0.462276
1.77944
0.139837
0.0638976
0.188294
1.478
1.33094
0.395559
0.340813
0.648903
1.2046
0.125648
2.10139
0.619115
0.109612
0.130405
0.264921
0.323793
0.226126
0.391955
0.258658
0.566482
0.678576
0.38338
0.351531
0.229923
0.391144
0.322924
1.41276
1.64403
2.5179
1.36357
0.150898
1.49001
0.749124
1.34381
0.0661744
0.0471654
0.350865
0.177398
1.52521
0.0735238
0.0665588
2.04515
0.228922
1.32178
1.76818
1.41722
1.10505
1.30838
0.328311
0.313991
1.48124
0.33369
0.41965
0.0331471
0.634177
0.413302
0.0389867
0.665047
1.94899
0.12316
0.114511
0.0407764
0.0217856
0.15405
1.47145
0.137037
1.30982
0.777362
0.355792
1.15097
0.175462
0.207984
0.3577
0.044207
0.191991
0.212928
0.0906755
1.17718
0.231433
0.491645
0.0439599
0.2394
0.378546
0.0860216
0.994087
0.0228901
0.131377
0.106741
0.212573
0.0602325
0.0769155
0.108748
0.522192
0.185651
0.436991
0.122356
0.189225
0.178046
0.536018
0.280881
0.539706
0.138918
0.181544
0.243084
0.191244
1.35854
0.483588
0.258302
0.204612
0.0645934
0.394978
0.625585
0.197437
0.24743
0.0907756
0.453704
0.14368
0.979902
0.0644035
0.243409
1.55219
0.345417
0.98184
0.197171
2.20469
0.234771
0.710469
1.25637
0.336531
0.348247
0.0409385
0.376663
0.257922
0.880869
0.486521
1.78448
0.0621284
0.765717
0.064715
0.0264987
0.361289
0.102551
0.342475
0.275924
0.913684
0.578793
0.906382
0.635259
0.586892
0.648309
0.206332
0.19043
1.04052
2.31388
1.45753
0.312643
0.297425
2.45821
1.50793
2.70353
1.40623
0.967648
0.460468
0.206331
0.752584
0.387411
0.136382
0.649211
1.50369
0.12999
0.539046
0.795816
)
;

boundaryField
{
    frontAndBack
    {
        type            empty;
    }
    wallOuter
    {
        type            kqRWallFunction;
        value           nonuniform List<scalar> 
90
(
0.427727
0.421458
0.413648
0.427625
0.47873
0.47224
0.476433
0.592668
0.404732
0.487506
0.517098
0.614315
0.501498
0.571816
0.53412
0.898451
0.537765
0.527581
0.518755
0.528238
0.503224
0.508795
0.509199
0.552333
0.505864
0.803714
0.754999
0.530307
0.528104
0.34355
0.302861
0.323744
0.36314
0.278824
0.248981
0.20921
0.023071
0.0235333
0.454999
0.155521
0.0247924
0.0925081
0.744944
0.0217819
0.0376748
0.0508365
0.0198763
0.589555
0.0221048
0.659925
0.781087
0.404462
0.461062
0.575143
0.486977
0.0214958
0.022528
0.525923
0.801266
0.385007
0.507706
0.0194205
0.0235252
0.840676
0.636812
0.682632
0.895705
0.0274467
0.976294
0.0196499
0.512625
0.0253279
0.981737
0.0205192
0.87408
0.858938
0.432599
0.544565
0.0254405
0.749533
0.431013
0.912188
0.026862
0.462276
0.38338
0.0217856
0.994087
0.0228901
0.522192
0.394978
)
;
    }
    inlet
    {
        type            fixedValue;
        value           uniform 0.375;
    }
    outlet
    {
        type            zeroGradient;
    }
    wallInner
    {
        type            kqRWallFunction;
        value           nonuniform List<scalar> 
138
(
0.0734678
0.306624
0.830274
0.146302
0.157574
0.245664
1.38835
0.403678
0.116944
0.12691
0.619532
0.737671
0.0906645
0.166268
0.0318012
0.0794958
0.175225
0.13465
0.0908661
0.728912
1.7948
0.664149
0.079461
0.622071
0.645644
0.677435
0.574958
0.693645
0.602954
0.653607
0.632408
0.0999093
0.0325833
0.0551424
0.0497103
0.0985532
0.0503401
0.0431914
0.0560277
0.110265
0.0658333
0.0632802
0.0478484
0.0386229
0.114833
0.100998
0.0688649
0.0853197
0.104272
0.0174565
0.0670682
0.0512563
0.088636
0.110463
0.114325
0.0392682
0.0481761
0.0808978
0.0511499
0.110567
0.0965604
0.112869
0.0504567
0.114144
0.0314508
0.0585755
0.0781777
0.233235
0.68796
0.202861
1.12836
0.0932007
0.0757193
0.369722
0.722616
0.148001
0.742719
0.0605914
0.0581237
0.261036
0.187604
1.04738
1.36126
0.966836
0.839357
1.20909
0.0401916
0.042575
0.615717
0.611944
0.0597342
0.0656863
0.0518541
0.0415442
0.0441657
0.017042
0.0607124
0.0580779
0.0674362
0.316424
0.610985
0.185038
0.249148
0.0426227
0.607142
0.0270357
0.0641312
0.619154
0.0688406
0.122446
0.278926
0.712667
0.0450255
0.0553011
0.0958708
0.576783
0.613371
0.055568
0.719644
0.878439
0.0524576
0.0360629
0.773329
0.0482546
0.210731
0.144505
0.718345
0.0459354
0.157237
0.096517
0.0329894
0.297425
0.752584
0.387411
0.136382
1.50369
0.12999
0.795816
)
;
    }
    procBoundary0to1
    {
        type            processor;
        value           nonuniform List<scalar> 
29
(
0.214927
0.285477
0.272052
0.272052
1.62179
1.62179
2.01499
0.332603
1.2787
0.393059
0.370129
1.11365
0.17488
0.181905
1.31331
0.613694
2.29561
2.14113
0.371416
0.303173
0.329335
0.223628
1.4416
0.293612
0.292312
2.14113
0.258446
0.825187
0.293612
)
;
    }
    procBoundary0to2
    {
        type            processor;
        value           nonuniform List<scalar> 
42
(
1.17408
1.27775
0.0452328
0.0431346
0.342833
1.17408
0.0452328
0.0478587
0.182608
0.0790785
0.573705
0.794039
0.573705
0.88458
1.01773
0.916403
1.01773
0.0735266
0.106026
0.250287
0.250287
0.0735266
0.064859
0.212122
0.212122
0.0700798
0.334602
0.0626284
0.676565
1.29298
1.29298
0.0584658
0.0574139
0.0589555
0.0624997
0.0452328
1.21538
0.0258452
0.676565
0.0478587
0.0552215
0.0608942
)
;
    }
}


// ************************************************************************* //
