/*--------------------------------*- C++ -*----------------------------------*\
| =========                 |                                                 |
| \\      /  F ield         | OpenFOAM: The Open Source CFD Toolbox           |
|  \\    /   O peration     | Version:  v1912                                 |
|   \\  /    A nd           | Website:  www.openfoam.com                      |
|    \\/     M anipulation  |                                                 |
\*---------------------------------------------------------------------------*/
FoamFile
{
    version     2.0;
    format      ascii;
    class       volScalarField;
    location    "0.14";
    object      p;
}
// * * * * * * * * * * * * * * * * * * * * * * * * * * * * * * * * * * * * * //

dimensions      [0 2 -2 0 0 0 0];


internalField   nonuniform List<scalar> 
1466
(
98.9825
121.784
96.8798
95.5865
99.9586
103.195
96.7434
97.0255
107.28
103.046
85.0017
102.865
108.121
100.01
103.118
86.0617
97.3658
102.235
105.971
100.503
100.716
86.7558
102.159
100.499
107.1
121.615
87.5576
99.8188
99.7536
112.628
80.9467
121.321
97.6596
99.9327
108.694
99.7604
99.9336
97.2463
103.547
97.2245
96.8992
87.6649
86.1579
96.4712
98.3459
96.7981
89.1544
100.123
102.361
98.0969
103.505
121.599
103.028
100.019
97.4766
104.748
97.6973
86.2181
98.0032
103.152
121.524
96.7921
97.5334
121.235
83.2605
96.2128
101.358
100.324
107.379
95.9761
119.336
102.695
100.493
105.148
121.88
108.527
96.6377
97.9158
98.8066
110.328
103.271
84.163
95.9444
99.1884
100.785
101.016
99.7809
108.659
103.419
103.338
121.411
88.0755
95.7027
101.437
96.7779
97.1506
121.594
87.7826
109.083
99.9038
103.351
103.56
100.166
101.878
85.5755
96.764
102.745
100.075
83.8742
98.798
121.67
108.686
97.3729
86.8902
102.98
121.021
87.8798
103.327
96.8963
96.3892
95.8402
96.2732
98.6568
96.5179
98.8184
95.7413
108.025
101.568
100.189
114.461
103.29
88.3213
101.964
100.443
121.251
96.9065
96.0484
97.626
96.8681
96.7329
97.8512
99.7286
100.573
101.804
82.6027
101.22
121.064
119.549
113.353
103.752
121.26
121.301
107.479
96.5861
115.689
87.3009
100.287
99.7203
119.893
83.6401
120.643
109.461
100.844
100.613
114.864
84.2177
100.439
101.553
99.9633
92.7824
99.6497
115.74
98.1857
107.379
119.148
102.931
115.458
112.483
121.658
118.542
107.507
120.863
99.1126
98.4824
108.24
100.474
101.132
99.6645
107.901
99.2922
99.4798
121.314
95.6346
101.809
82.9258
121.359
96.2731
103.876
115.491
101.644
95.4437
113.767
110.779
89.4032
120.038
116.84
101.423
110.569
118.078
100.537
103.838
100.419
100.13
99.9111
101.031
100.928
100.016
101.166
105.988
100.407
101.682
121.043
100.809
121.233
100.325
111.85
101.369
100.169
121.495
121.01
120.373
107.927
102.509
78.9659
103.422
118.138
100.493
101.593
116.426
99.4071
98.802
109.863
113.082
102.482
114.971
109.276
121.52
104.404
111.193
113.857
99.6687
84.8712
110.688
72.8842
117.841
120.166
100.485
92.26
100.444
99.6913
99.378
102.05
100.383
121.128
82.2076
98.2544
120.683
114.44
101.46
93.7592
102.181
100.657
98.7924
117.045
121.2
121.038
121.244
84.2997
99.8023
112.755
121.467
69.2484
81.6512
108.34
71.3182
98.2435
114.268
115.849
98.29
105.689
106.448
100.487
108.203
98.5233
87.0751
94.148
101.644
98.0998
113.216
121.181
100.059
102.92
122.12
105.297
99.7715
100.52
99.5511
97.9237
107.18
96.2586
107.528
101.227
100.326
120.997
118.385
117.278
80.1953
119.68
98.2113
103.243
97.2727
101.101
100.224
121.37
98.9041
103.615
98.2094
125.482
121.447
120.078
102.274
104.749
97.0711
92.0398
81.3709
77.9873
80.8502
117.682
101.309
96.3214
99.0401
109.655
97.6515
133.725
93.7596
122.049
108.066
122.44
107.768
81.1219
86.1161
83.3531
94.8654
81.6606
78.9661
80.3914
99.6713
70.1653
94.3813
114.879
80.5939
79.9476
82.6634
95.126
98.2506
102.308
108.239
107.264
75.6363
89.376
101.208
78.3718
135.816
95.8326
97.2349
100.196
102.544
125.084
99.4816
83.535
100.575
101.352
100.64
100.68
101.191
101.3
97.6163
97.6186
97.8736
98.1108
100.598
100.465
96.9784
100.64
96.2311
94.5226
98.3
114.558
94.5202
95.1891
98.372
98.3096
102.568
99.5176
99.1005
86.4597
104.091
103.482
84.5428
87.6714
103.38
104.466
104.16
87.0566
103.314
99.8322
99.7304
103.224
103.314
96.84
87.8498
87.4443
97.0455
104.758
96.8723
96.989
87.2424
140.811
96.7825
96.1471
103.016
93.8062
74.9169
87.9415
121.243
94.2888
98.4431
88.7574
100.08
102.874
98.5049
100.384
102.834
98.5998
121.349
96.7021
109.114
121.261
97.5598
102.686
120.946
99.1228
105.082
108.6
100.904
101.557
96.0286
95.7003
103.332
121.181
97.7879
101.374
95.879
99.4939
102.026
98.0431
101.599
102.491
103.607
101.804
103.447
95.7373
101.603
100.213
121.051
97.5778
99.4592
85.7982
78.6901
74.2646
89.7729
99.4961
99.7142
80.9453
76.1237
111.364
98.1301
99.742
77.4595
82.4657
74.4252
99.9553
97.3458
101.298
85.4145
100.494
100.241
101.015
120.315
97.7903
100.685
99.8901
95.5104
101.014
100.325
94.2553
111.558
120.781
99.3583
100.338
121.047
78.7283
92.5505
94.4548
100.167
96.5582
102.286
109.037
107.586
97.1179
100.6
103.172
85.7118
118.538
82.113
102.284
102.897
75.9257
101.962
83.5806
84.2975
89.8185
78.6684
100.683
100.626
102.769
91.0771
120.534
101.543
99.6566
111.906
100.609
100.464
95.2953
101.472
96.4387
100.983
96.279
89.3085
120.735
75.8362
99.2006
100.18
100.824
93.1309
100.184
100.259
98.4422
75.0721
101.094
86.4228
77.968
121.353
126.454
107.806
95.7369
100.966
87.5627
129.601
99.9954
98.3308
89.5953
115.438
116.531
80.3493
94.8955
87.0454
100.262
100.455
79.4387
77.1081
100.006
100.348
92.0612
99.5643
81.0546
95.7959
101.282
100.393
97.3738
99.8595
102.073
75.9194
100.475
100.699
100.79
104.346
91.0823
76.093
91.1532
128.103
96.4604
88.5396
100.251
102.908
78.9118
121.361
100.167
102.131
99.8556
85.329
95.403
107.725
86.6725
99.7452
116.722
114.807
117.818
107.795
95.9152
106.559
98.1067
120.715
91.4621
108.871
100.574
98.3721
77.0929
76.3786
100.114
72.7676
106.903
107.951
88.6753
100.28
98.8513
94.6865
91.5513
117.649
98.0652
90.4358
102.764
93.5144
121.035
98.9407
94.9544
74.1301
93.5887
91.6327
113.268
100.201
107.518
122.763
97.9473
75.179
98.8373
100.429
99.2832
121.283
99.057
83.9868
108.284
90.725
98.859
73.4592
113.494
95.6067
117.645
102.793
100.981
97.9602
118.432
69.5365
100.1
101.179
100.013
103.071
122.066
97.2216
104.503
99.4166
97.592
121.21
101.248
112.255
81.6242
110.941
114.497
73.0227
113.27
76.6942
104.779
101.391
102.806
111.9
115.396
99.0632
72.2898
110.378
89.2279
97.855
111.469
113.788
121.477
99.7622
98.9109
117.822
92.8342
116.425
99.7091
89.729
102.551
101.425
95.1794
92.1315
99.7308
77.4512
96.6783
74.1171
112.465
108.874
85.2131
100.881
100.469
98.9002
99.4293
98.7305
102.475
100.674
121.946
70.4721
99.7837
74.526
99.9209
102.249
116.583
100.453
92.9936
99.276
88.6945
100.051
103.247
99.8244
99.6948
95.423
96.6677
108.906
122.08
92.918
108.812
99.1655
78.7958
121.406
98.3676
95.4132
103.768
101.617
97.0835
106.28
99.7978
100.53
87.2376
120.801
119.989
80.661
111.953
100.025
103.684
101.75
99.1603
120.812
88.5807
98.3732
96.5073
87.8757
99.3307
123.251
112.569
101.951
105.256
100.513
94.9291
99.6894
80.3238
75.815
99.9927
103.197
100.046
97.6532
91.1748
101.344
73.229
99.8823
89.9078
121.443
105.114
94.9964
88.9328
96.8396
100.448
97.747
76.4865
99.7694
97.4156
81.4405
98.2219
122.207
106.456
87.7164
96.1103
100.192
92.17
101.78
100.177
120.483
97.2968
77.6849
100.067
121.199
93.8917
103.629
95.6001
99.051
112.439
97.5989
96.8372
99.4751
103.806
105.581
102.214
110.871
80.0289
90.7737
85.9669
96.8518
103.274
103.416
112.886
90.9119
92.5061
93.5676
97.1038
89.228
97.2717
77.6874
103.695
108.576
99.8147
121.629
74.8529
79.3585
107.93
95.3718
100.377
98.979
119.409
110.096
119.562
103.472
94.9623
77.6711
99.9787
107.367
101.904
121.912
84.6405
95.4196
97.6049
121.204
100.322
98.4522
121.561
77.0043
119.047
76.894
102.635
91.7135
100.532
100.416
100.62
100.423
100.364
100.542
100.335
101.003
103.372
104.188
101.116
100.785
100.447
101.22
103.094
106.004
101.387
101.297
108.68
111.708
115.856
114.24
100.118
99.8997
99.8111
100.6
108.567
108.58
121.815
73.1667
80.1164
103.524
102.267
100.05
102.947
95.6111
102.075
99.1608
103.294
109.334
101.853
102.367
102.687
77.3791
121.296
95.6698
121.277
100.346
91.6882
85.8676
99.8773
96.2121
98.5662
89.7897
118.469
105.215
98.8327
103.38
76.2965
99.5192
99.4969
96.3685
96.8396
97.4989
115.941
117.532
98.8802
96.8447
97.1291
120.293
102.502
108.113
103.557
119.207
103.463
111.582
87.7921
95.899
70.4715
122.01
103.112
88.2903
129.387
93.4289
104.821
99.9798
108.327
100.356
100.809
98.275
103.015
102.022
77.5405
99.6832
100.831
86.1693
100.378
120.654
121.28
120.715
99.6158
96.5793
121.392
99.7821
100.421
100.967
99.8913
107.984
99.9702
97.6314
121.097
100.575
100.432
121.343
100.124
102.525
104.445
102.131
102.809
111.943
78.7833
99.8173
103.477
100.425
70.4205
73.3167
106.184
120.237
96.8607
96.7204
100.157
102.031
106.838
100.475
100.494
98.4931
121.716
95.6817
98.2061
85.2555
121.022
122.141
94.604
101.791
71.5909
86.9215
103.641
97.5721
102.288
100.223
102.744
100.55
98.0054
96.6565
101.179
120.416
114.803
75.6244
80.4531
119.328
121.903
70.0671
106.215
119.969
108.045
96.4629
98.8634
108.152
97.0056
121.85
121.255
95.7374
94.3683
96.3732
99.0385
121.439
99.6889
108.217
103.379
120.201
114.094
120.724
119.574
81.1126
89.9718
109.834
108.029
121.954
97.0008
119.207
96.8124
98.9292
122.173
71.4305
101.174
121.399
83.7546
121.559
97.2807
95.0352
121.573
121.49
97.1698
99.6056
109.795
100.017
121.45
121.55
121.454
121.504
108.356
108.529
120.072
120.608
121.018
121.316
108.65
73.4422
75.4298
119.107
121.403
101.351
95.1514
121.071
101.77
100.157
99.9655
96.8358
97.3187
96.1323
99.7351
110.146
93.5426
99.3349
117.486
102.508
121.46
112.748
121.295
108.64
109.061
100.283
98.6753
108.291
120.739
104.36
100.351
102.053
104.163
96.9337
121.491
111.224
103.441
107.855
109.048
102.893
98.3964
100.378
99.4342
113.09
79.7802
99.6663
86.613
98.9975
96.7914
100.122
102.422
113.392
93.6211
103.38
100.167
94.9159
98.602
99.7103
108.645
108.736
99.2769
116.762
96.2247
119.191
103.582
124.134
98.0327
108.039
103.901
101.644
100.231
99.9395
74.949
109.418
80.6898
86.4674
97.6617
96.7453
97.7239
100.419
95.7305
98.7304
80.3805
108.759
71.0783
82.1619
84.8592
75.5828
107.911
119.533
100.643
82.4439
98.9022
98.4116
95.968
100.085
70.0903
71.6648
98.7354
83.0529
120.387
96.7692
103.14
98.3789
108.121
113.449
121.736
111.748
118.759
103.384
108.925
110.204
121.238
103.446
105.274
80.2755
114.099
104.447
121.808
120.998
96.0407
98.7535
101.179
102.808
108.791
99.7496
99.6534
98.6919
96.645
102.979
103.058
71.611
75.8698
100.129
102.641
102.988
84.4182
71.3508
112.156
100.471
100.337
95.2017
99.5272
83.2227
103.59
100.092
102.734
98.5048
84.776
85.3408
95.1434
119.496
113.959
101.523
100.17
96.4427
77.3712
105.006
99.8847
99.543
116.768
100.542
108.332
84.1929
102.986
99.2887
86.3126
72.3003
120.369
99.1047
119.894
85.4906
82.3313
78.6027
99.5717
94.8584
96.4042
106.693
121.266
103.364
119.341
94.5638
103.541
109.291
95.9177
96.9608
101.174
100.156
96.1677
99.3111
120.898
122.149
109.203
96.2934
100.364
96.2256
102.008
97.691
76.9779
106.353
99.359
94.1917
101.497
100.27
100.577
108.83
102.316
100.676
101.093
102.987
99.962
87.338
102.025
100.278
100.953
100.576
97.1173
97.9028
100.082
96.4105
98.284
97.0172
121.407
98.83
100.158
121.527
70.8694
96.8487
108.362
96.7799
88.4245
122.163
108.233
121.816
102.516
99.8561
96.3497
122.101
103.079
121.476
97.675
100.442
97.8747
96.4062
99.4978
87.5012
98.3072
121.516
98.654
121.483
80.6684
81.7044
99.4192
111.837
112.5
75.8955
113.064
102.91
121.183
112.779
96.1407
99.5911
111.241
103.641
118.308
110.652
112.185
96.5619
120.284
95.5029
122.116
110.353
88.1142
72.3656
122.194
122.193
121.396
114.012
99.3133
108.195
119.228
93.1193
117.603
120.851
82.573
118.319
87.1544
88.3102
96.5996
87.5141
85.9076
96.6058
98.9462
99.8777
103.391
111.824
120.753
100.571
108.966
100.619
100.368
100.084
108.423
101.788
99.7863
96.5035
121.447
100.085
102.715
120.219
75.5738
121.224
101.924
100.317
111.765
100.772
99.9907
121.341
96.9461
85.4379
96.8994
96.4637
102.275
73.6
96.7624
96.5701
109.532
121.701
105.093
121.319
119.974
121.389
108.908
110.961
101.826
75.8041
121.316
103.828
80.3337
121.141
81.8807
94.4687
93.3188
79.4101
78.684
97.6715
104.372
99.686
99.9568
101.093
96.1592
95.8433
97.8053
104.924
105.738
101.697
101.247
115.263
124.439
108.752
105.291
103.197
96.7339
96.6675
97.8104
96.2432
99.7969
99.7446
103.688
96.6572
121.841
119.936
120.599
)
;

boundaryField
{
    frontAndBack
    {
        type            empty;
    }
    wallOuter
    {
        type            zeroGradient;
    }
    inlet
    {
        type            zeroGradient;
    }
    outlet
    {
        type            fixedValue;
        value           nonuniform 0();
    }
    wallInner
    {
        type            zeroGradient;
    }
    procBoundary1to0
    {
        type            processor;
        value           nonuniform List<scalar> 
29
(
95.5871
95.5871
96.6414
96.5613
86.6258
87.7416
108.357
95.9088
89.8759
96.4719
96.3952
87.7416
96.6414
95.0704
108.96
109.163
86.6258
86.2697
96.5613
94.4734
109.117
108.983
88.1848
106.966
106.966
88.1848
109.644
108.362
109.644
)
;
    }
    procBoundary1to2
    {
        type            processor;
        value           uniform 95.6297;
    }
    procBoundary1to3
    {
        type            processor;
        value           nonuniform List<scalar> 
48
(
99.874
99.7121
99.7843
99.7843
100.39
99.5732
99.5732
100.298
100.057
99.6522
99.2042
99.6522
99.9534
97.5498
97.1125
99.9534
100.039
100.039
100.098
100.098
98.4585
98.8545
100.145
99.221
99.221
100.2
99.3337
99.3337
99.9013
100.382
100.227
99.9013
100.298
100.227
100.161
100.382
100.34
99.2042
99.9985
100.204
97.9178
100.291
100.227
100.161
96.5887
100.296
100.264
97.9178
)
;
    }
}


// ************************************************************************* //
