/*--------------------------------*- C++ -*----------------------------------*\
| =========                 |                                                 |
| \\      /  F ield         | OpenFOAM: The Open Source CFD Toolbox           |
|  \\    /   O peration     | Version:  v1912                                 |
|   \\  /    A nd           | Website:  www.openfoam.com                      |
|    \\/     M anipulation  |                                                 |
\*---------------------------------------------------------------------------*/
FoamFile
{
    version     2.0;
    format      ascii;
    class       surfaceScalarField;
    location    "0.14";
    object      phi;
}
// * * * * * * * * * * * * * * * * * * * * * * * * * * * * * * * * * * * * * //

dimensions      [0 3 -1 0 0 0 0];
oriented        oriented;


internalField   nonuniform List<scalar> 
2776
(
0.000639526
0.000142127
-0.000594604
-0.000187048
-0.000519897
0.00050101
0.000243601
-0.000224714
-0.00012611
-6.58208e-05
6.84239e-05
0.000123507
-2.29351e-05
3.0694e-05
0.00020338
-0.000211139
-2.52271e-05
-2.35203e-05
5.20235e-05
-3.2761e-06
-4.2563e-05
-5.10648e-05
7.88915e-05
1.47363e-05
-0.00023443
-0.000208124
-7.54203e-05
5.20652e-05
2.74089e-05
-4.05383e-06
0.00115042
0.001005
-0.00102811
-0.0011273
5.8413e-05
-7.35785e-05
4.22339e-05
-2.70684e-05
-9.84886e-05
-0.000204461
6.19499e-05
0.000240999
-9.28457e-05
2.19661e-05
8.69689e-05
-1.60892e-05
0.0010131
9.91044e-05
-0.0015715
0.000459289
-1.40618e-05
-1.24634e-05
1.29801e-06
1.08749e-05
-3.78331e-05
-1.56048e-05
7.19758e-05
-4.89898e-05
-0.000121475
-4.35611e-06
-7.83452e-05
1.91003e-05
6.36011e-05
5.82306e-05
-0.000325689
0.000267459
0.00052719
-0.000113322
5.47807e-05
-0.000468649
0.000336952
-2.41137e-05
2.4042e-05
-0.00033688
-0.000412296
2.75561e-05
-7.968e-06
0.000392708
1.99349e-05
-8.07264e-05
0.000124163
-6.3371e-05
0.000575208
3.25067e-05
-3.16681e-05
-0.000576047
0.000318462
1.79823e-05
-7.71687e-06
-0.000328727
0.000379105
-0.000475491
-0.00135897
0.00145536
-0.000104754
0.000100533
-0.000121702
0.000125923
3.62339e-05
-0.000114364
8.24219e-05
0.000338634
-0.000395848
-2.52075e-05
6.34126e-05
-4.35226e-05
5.20058e-05
-7.18958e-05
-0.000306017
0.000347399
0.000693855
-0.000735237
0.000104692
-0.000222163
-1.30101e-05
0.00013048
-0.000122918
-3.68445e-05
2.392e-05
0.000135843
7.4023e-05
-8.04501e-05
-3.76226e-05
4.40497e-05
-0.000103209
0.0001197
-0.000385512
0.000369021
4.02359e-05
6.02878e-06
0.000318081
0.00010334
-3.8978e-05
-9.48977e-07
-0.000286203
-6.70248e-05
-0.000118199
-7.97764e-05
-5.36114e-06
2.16192e-05
-1.62581e-05
-4.85878e-05
0.000179209
-0.000130621
-8.73111e-05
0.000298998
-0.000211687
0.000107901
-9.95831e-05
-8.31753e-06
0.00017467
-0.000127836
-4.68347e-05
-0.000122643
-3.30627e-05
0.000155706
-9.79193e-05
-9.81631e-06
0.000107736
-0.000442107
0.000113246
0.000213283
0.000126253
5.80772e-06
1.01373e-06
-6.82145e-06
2.18124e-05
5.94446e-06
-2.77569e-05
5.14062e-05
-3.53967e-05
-1.60095e-05
-8.27036e-05
0.000103006
-2.03022e-05
-8.94539e-05
-0.000430443
-2.63224e-05
-2.47424e-05
-1.01584e-05
-1.33619e-05
8.69599e-05
-1.29369e-05
-0.00125573
0.00163484
-0.000480277
0.000112207
0.00036807
-0.00017894
-2.5521e-05
8.79914e-05
-0.000102295
1.43036e-05
3.47758e-05
2.36372e-05
-2.06987e-05
-0.000136737
0.00013374
2.36954e-05
-0.000204327
0.000201766
-8.475e-05
-8.38144e-05
8.00788e-05
-4.48522e-05
-0.000136397
2.95584e-05
0.000383851
-0.000277012
0.00102728
-0.000898605
-0.000429956
0.000301286
-2.86773e-06
1.258e-05
3.36616e-05
-4.33739e-05
0.000537911
-7.36928e-05
-9.00643e-05
-0.000374154
-0.00010328
-1.89349e-05
-0.00022237
0.000766285
-0.000757858
4.64528e-05
-5.48801e-05
9.46467e-05
-0.000133119
-0.000102549
0.000141021
0.000277319
-0.000220948
-0.000173306
0.000116935
5.92067e-05
-0.000490396
0.000431189
1.67616e-05
-0.000218217
0.000201455
0.00126357
-0.000554931
-0.00095719
0.000248554
-9.12698e-05
0.000116128
-4.55569e-05
-0.000522365
-7.02894e-05
0.000240262
0.000352392
-6.00614e-05
-0.000200246
5.59804e-05
-2.32606e-05
-8.34397e-05
2.28858e-05
-0.000167939
9.83014e-05
6.96378e-05
8.17487e-05
-0.000309127
0.000272708
-4.53296e-05
8.47368e-06
-1.20281e-05
2.94336e-05
-2.58791e-05
-0.000115296
0.000146304
3.09418e-05
0.000105622
6.58672e-05
-9.30143e-05
-7.84748e-05
-0.00047251
-7.7719e-05
0.000459843
9.03864e-05
-0.000320673
9.80595e-06
0.000314862
-3.9949e-06
2.8595e-07
0.000455844
-0.000445319
-1.08115e-05
-0.000180209
0.000439191
-0.000362191
3.61962e-05
-1.53239e-05
0.00022601
-0.000246882
-2.27477e-05
2.58603e-05
6.00093e-05
-5.85635e-05
7.3238e-05
-7.46837e-05
-0.000116517
0.000102508
-9.0745e-05
6.20915e-05
7.95165e-05
-0.000105374
3.81192e-06
-0.000120446
9.36988e-05
3.76467e-05
-0.000402943
0.000448768
-8.34717e-05
5.8983e-05
3.27366e-06
-1.01915e-05
-3.91504e-05
0.000402009
9.90009e-05
3.4343e-05
-0.000105316
5.06355e-05
1.38801e-06
-3.81209e-06
-1.70495e-05
0.000120055
-4.58752e-06
1.03952e-05
-2.51536e-05
4.69659e-05
0.000261668
-8.69981e-05
3.94302e-05
-1.20213e-05
-2.03779e-05
-9.14466e-06
1.13325e-05
0.000229667
0.000159249
-0.000141862
-1.33272e-05
1.84525e-05
0.000426628
-0.000456271
9.94202e-06
1.97017e-05
2.01797e-05
0.000510286
-0.000388338
-4.85224e-06
-6.87263e-05
-5.74953e-05
-0.000286374
0.000150356
0.000193513
3.02794e-06
-4.05196e-05
-2.81171e-05
8.48155e-05
-0.000149544
9.02042e-05
-0.000162941
-0.000161693
9.1212e-05
-8.47432e-05
-0.000132001
-0.00035906
0.000314889
7.48654e-05
0.000328262
2.91984e-05
-0.000232157
-0.000125304
7.51505e-05
1.23782e-05
-5.44868e-05
-3.30419e-05
1.36218e-05
-0.000136265
6.64635e-06
-0.000104566
9.59661e-05
0.000104303
-0.000594813
0.000152566
0.000526094
-8.38474e-05
-0.000216917
0.000735217
2.47287e-05
-0.000543028
-0.000160565
0.000419114
3.44395e-05
-0.000292989
-9.88582e-05
-3.86535e-05
0.000138977
-1.46513e-06
0.000121031
0.000513384
5.68625e-05
0.000278361
-3.00177e-07
0.000221906
-1.69675e-05
-0.000204638
-0.000276125
-0.000191839
8.21502e-06
-0.000140069
-9.73731e-05
-2.90439e-05
-4.45046e-05
0.000398316
9.59727e-06
-0.000363409
0.000349209
8.91766e-06
-3.6964e-06
-0.000354431
0.000586503
-2.64911e-05
1.62599e-05
-0.000576272
-2.58683e-05
0.00035553
-7.44679e-05
-0.000255194
-0.000393452
-1.07396e-05
-3.83452e-05
0.000442537
-0.000106287
2.60977e-05
-4.27286e-05
0.000318174
-0.000159508
-0.000221139
6.24739e-05
0.000183335
-0.000135121
1.77043e-06
-4.99849e-05
0.000162249
-0.000155765
5.35252e-05
-0.000196759
2.27466e-05
0.000268208
-0.000354558
0.000329952
-0.000718582
-7.86979e-05
0.000202467
-1.50714e-05
-9.72692e-07
7.50271e-05
-0.000225257
-0.000154711
8.66986e-05
0.000293269
-0.000105486
1.64423e-05
6.53435e-05
0.000332889
-3.28185e-05
-0.000365414
0.000274221
-0.000155297
-0.000299134
-1.78747e-05
-0.000117374
3.28393e-05
0.000102409
-0.000740142
0.000203395
0.00049027
4.64768e-05
-3.8378e-05
2.89397e-05
-9.6849e-05
-0.000552737
0.000155538
0.000478948
-0.000346408
0.000346694
0.000285337
-0.000405612
-9.07834e-05
0.000211058
-0.000166393
0.000231247
-0.000314769
0.000249916
-0.000204962
0.000440762
0.000368242
-0.0003521
4.07201e-05
0.000620547
-0.000594191
9.46755e-05
0.000373691
-0.000322248
-5.61436e-05
4.70089e-06
0.000407608
0.00150099
-0.00118414
-0.000724455
0.000348517
-0.000519705
0.00025361
1.25875e-05
-2.67107e-05
4.525e-05
-3.11268e-05
-1.32093e-05
-1.29495e-05
-9.23788e-06
-3.6968e-05
8.46715e-05
0.000336851
-0.000386964
5.01133e-05
-0.000489292
0.000343776
-0.0015179
0.00166342
-0.000497867
-9.66641e-05
0.000647789
-5.32584e-05
0.000285993
-0.000167908
-0.000424101
-4.40123e-05
-1.60207e-05
-8.18291e-05
0.000216793
-7.37618e-05
0.000134287
-0.00149878
0.0012912
-0.000302244
0.00050982
0.000245149
-0.000204267
-9.96681e-05
5.87863e-05
6.70338e-05
-0.000447811
0.000449767
-6.89897e-05
8.58053e-06
-1.0572e-05
1.47222e-05
-1.27307e-05
-1.09781e-05
-4.98888e-06
0.000256387
-0.00024042
0.000464505
3.51274e-05
-4.3788e-05
-0.000319645
2.04265e-05
-2.14546e-05
-0.000459648
-0.000188704
0.000175842
-0.00082889
-0.000141529
0.000212561
-4.20045e-05
6.5727e-05
-0.000191662
0.000443886
-0.000114519
-0.000373872
-5.54256e-05
6.31695e-05
0.000125996
-5.2084e-05
2.21312e-05
3.37648e-05
0.000330421
0.000224566
-0.000454239
-0.000100748
8.10565e-05
0.000219565
-0.00104076
0.000153115
-0.000121127
-7.59994e-05
-5.8161e-05
-7.49582e-05
-0.00010583
6.25286e-05
6.34655e-05
-2.0164e-05
-0.00032971
-2.2478e-05
0.000128137
0.000224051
-0.000465952
0.000402921
-6.37897e-05
4.27878e-05
-3.10821e-05
0.000113637
-2.91596e-05
-0.000521361
0.000462517
0.000328833
-0.00026999
-0.000551394
0.000526884
-0.000536555
0.000561066
-0.00021479
6.61469e-05
-7.23052e-05
-0.000279309
-0.00029055
3.03326e-05
0.000484783
0.000609888
0.000806069
-0.000535799
-0.000880158
4.93962e-05
-9.10331e-05
-6.28647e-05
0.000104502
8.66865e-06
0.000334834
-6.55096e-06
2.70021e-05
0.000562296
-6.21087e-05
-1.50915e-05
5.30251e-06
-0.000315269
0.000325058
-2.4818e-05
1.98122e-05
-0.000450666
0.000455672
0.0002727
-9.85948e-05
0.000174412
1.10423e-06
-0.000428424
1.50236e-05
3.73139e-05
-0.000317286
0.000410545
-0.000130572
0.000455112
0.000106185
-9.67924e-05
-0.000324528
4.21965e-05
-0.000341469
-0.000372178
0.000253999
-7.65756e-05
0.000332431
0.000112387
-0.000161829
0.000603932
0.000178444
-0.000203154
-2.32947e-05
-5.99257e-05
-6.31294e-06
-2.56359e-05
0.000170306
-3.05188e-05
3.34224e-05
-0.00036325
0.000253028
-6.79029e-05
2.06983e-05
5.33864e-05
-6.18178e-06
-1.7158e-05
2.37933e-06
1.54123e-05
-6.33621e-07
-0.00010701
8.64157e-05
-0.000325356
0.000143999
-2.17972e-05
7.60913e-05
-0.000164929
-8.44676e-05
-3.63983e-05
0.00023913
-0.000395123
0.00019239
0.000244205
-0.0003949
-0.000303544
-0.000354467
0.000836812
-0.000772985
0.000290641
0.000108651
-5.13741e-05
-8.42656e-05
2.69883e-05
0.000113321
-0.000275696
0.000134128
-0.000201533
2.84798e-05
3.89251e-05
-8.78475e-06
0.00021433
4.64836e-05
1.01995e-06
-0.000261834
5.95582e-05
-3.55095e-05
-0.000333176
0.00045942
3.8902e-05
-0.000260648
-2.4142e-05
5.79471e-05
1.2655e-05
-4.64602e-05
4.75334e-05
-0.000540712
-3.33175e-05
1.83847e-05
0.00016606
-0.000151127
-0.00031773
0.00109201
-0.000227973
0.00020593
-3.29256e-05
5.49682e-05
-0.000417365
0.000780122
0.000443451
0.000128265
-0.000116604
0.00108042
-0.000546539
0.000935242
0.000290445
-0.000302201
-8.78887e-05
9.96444e-05
2.86596e-05
1.09027e-05
9.83393e-06
8.23126e-05
0.000217986
-3.87489e-05
0.000280854
-0.000856089
-0.00110156
0.00127267
0.000684981
-0.000245688
0.000250991
-0.000381821
0.000488006
-2.96608e-05
4.9473e-05
-3.42396e-05
0.000385794
-4.4358e-06
0.000206221
-0.000179636
-0.00014602
0.000399398
-0.000424345
-0.000485271
0.000510218
-4.62882e-06
-0.000216853
0.000262739
-4.58859e-05
-0.000150274
2.52744e-05
-0.000416572
-0.000222135
-0.00144314
0.000809186
5.31374e-05
-0.000399545
-0.000237178
-8.51077e-06
-4.69751e-05
1.73143e-05
-6.45969e-05
-7.01615e-05
4.37253e-05
8.73123e-05
-0.000307366
1.99364e-05
0.000174065
0.000145854
-0.000778686
0.000199408
-0.000167193
0.000746471
-0.000363225
0.000313677
0.00016626
-0.00022453
-7.68505e-05
-3.64755e-05
0.00016833
0.000116711
-0.000248565
-0.000101053
-0.000103009
9.64653e-05
0.000107597
0.000320637
-0.000256522
0.000524955
-0.00058907
-0.00043931
0.000396808
-0.00019872
0.000175221
-0.000300857
0.000324356
3.91339e-05
-4.67381e-05
-3.31429e-05
4.07472e-05
0.000386322
-0.000454023
-8.25727e-05
-0.000122776
0.000354387
-7.79036e-05
1.43832e-05
-3.87746e-05
0.000991361
-0.000890614
-0.000636545
0.000518052
0.000364388
-0.000729875
-0.000457361
-0.000137243
-0.000961166
2.03978e-05
-0.00083894
0.000380891
0.000124694
-0.000313399
0.000227372
-0.000206945
-2.75888e-05
-1.68161e-05
2.83953e-05
-0.000291926
7.09789e-05
4.13109e-05
-9.79397e-06
-5.14397e-06
1.32903e-05
1.64763e-06
-2.67214e-05
5.30395e-06
2.99033e-05
-8.48582e-06
-1.8746e-05
4.30952e-06
1.44364e-05
-0.000647608
0.001613
-0.00128312
0.000212741
-0.000237231
-0.000212242
5.80003e-05
-0.000226829
-9.78084e-06
0.000299093
0.000371202
-0.00024596
-0.000424335
-8.70814e-05
7.92751e-05
2.65073e-05
-1.8701e-05
-0.000878049
0.00090418
0.000279876
-0.000306007
-0.000240801
0.000256726
-0.000558086
0.000542161
-0.00107757
0.000497226
0.000735878
-0.000235124
0.000622139
-0.000184721
0.000356587
7.25355e-05
0.000362416
-0.000129195
-0.000305757
-5.68251e-06
-0.000490892
0.000123766
0.000372809
0.000673826
5.56446e-05
-8.1681e-05
-0.000124059
-0.000296912
0.000234615
0.000186356
0.00070904
8.01024e-05
0.000278444
-0.00106759
-1.28615e-05
4.16046e-05
-0.000115824
-1.79974e-05
-3.28298e-05
6.17021e-05
-0.000195835
-0.000220145
0.000124054
-0.000307877
2.43104e-05
-2.38129e-06
0.000285948
-0.00103534
0.000585515
0.00104254
-0.000592715
-1.40441e-06
-0.000498231
0.000579741
0.00062753
0.000145833
-0.000215626
-9.15175e-06
6.74637e-05
0.000307317
-0.000365628
0.000127684
-0.000495299
0.000425845
-0.000590518
-5.5224e-05
6.11387e-05
-7.17355e-05
0.000831968
-0.000897314
0.000264754
-0.000276102
0.000300646
0.000374854
0.00139493
-0.000650295
0.000304734
-0.00104937
0.000364656
-0.000112012
-0.000171587
0.000254829
-0.000185298
-5.94138e-06
-0.000542925
0.000144458
0.000404409
6.08905e-05
0.00021333
-0.000134804
-0.000139416
4.28015e-05
4.43304e-05
-6.31002e-05
-2.40317e-05
-0.000508271
5.94236e-05
-0.000431311
1.71165e-05
-8.72467e-05
0.000302017
-0.000466975
0.000530473
-0.000365515
6.77113e-05
0.00113338
0.000299896
8.70002e-06
-2.7446e-05
-0.000454573
-2.17052e-05
0.000796372
-0.000691005
0.000369406
-0.000474773
-0.000121475
-0.000662258
-4.51572e-05
0.000143706
0.000534107
-0.000529108
-0.000749009
0.00175466
0.000389278
-6.53656e-05
-0.000514453
0.000444083
0.000135735
-0.000256455
-7.57835e-05
-0.000397529
0.000176401
0.000278738
6.85979e-05
0.000130348
-9.56065e-05
-0.000112184
-0.000538111
0.00160196
-0.000579463
-0.00177151
0.000304442
-0.000386119
-0.000327616
-4.62223e-06
0.000537918
-0.000180156
-2.89659e-05
-1.18287e-05
0.000787266
-0.000659663
-0.000533041
0.000706872
0.000485832
9.16442e-05
-9.01225e-05
-0.00015278
0.000446263
0.000244428
0.00069898
-0.000733288
-0.000498944
0.000533252
0.00068662
-0.000954324
0.000687904
-0.0004202
-0.000138057
2.58728e-05
0.000145351
0.000657651
-0.000318109
0.000218465
0.00100382
0.000605447
-7.93573e-05
0.000559511
-0.000351892
-0.000207619
0.000696495
-0.000869253
-4.93281e-05
-5.66112e-05
5.07153e-05
-0.000371052
-4.62891e-05
3.65852e-05
0.000380756
5.52397e-05
-0.000112203
7.89292e-05
0.000734886
-0.000175375
0.00039482
0.000133314
-0.000490487
0.000481344
-0.00069556
0.000332523
-0.000414483
0.000380652
-0.000298692
-0.000290213
0.000317956
0.000265984
-0.000293727
0.000365164
-0.000322854
0.000211653
0.00039705
-0.000243539
-0.000350541
0.00011288
0.000367793
-0.000130133
0.000179068
1.24701e-05
8.39215e-05
-6.77923e-05
1.87403e-05
6.15221e-05
-8.38299e-05
4.25449e-05
-7.01422e-05
2.79169e-05
2.03754e-05
-2.0256e-05
-0.000292096
0.000291977
-0.000333934
-3.12319e-05
0.000333475
3.16911e-05
-0.000347534
-0.000478812
0.000449478
0.000376868
-2.74094e-05
-0.00033061
2.40857e-05
-0.000300664
-0.000432367
0.00033136
0.000401671
0.000175451
-0.000302381
-8.55755e-05
0.000212506
-5.94679e-05
-5.74124e-05
-0.000195558
0.000930444
0.000369091
-0.00021534
-0.000454415
1.45492e-06
0.000173996
2.68893e-05
-3.21996e-05
-5.41576e-05
-2.48071e-05
1.85534e-05
-0.000424425
-3.66035e-05
-0.000188579
0.000649608
-3.11135e-06
6.78073e-05
-0.000983586
0.000133481
0.000928462
-7.83572e-05
-8.52708e-05
4.14255e-05
-5.43221e-05
9.81674e-05
0.000323536
-0.000264483
-0.000483478
5.2188e-05
-2.10015e-06
-2.14966e-05
9.22449e-07
5.06042e-05
-3.003e-05
0.000109002
4.6117e-05
-0.000144336
-1.07832e-05
-3.94422e-05
-5.46198e-05
2.9047e-05
6.50149e-05
-0.000105097
0.00039203
-0.000222571
0.000169661
-1.50658e-06
2.52382e-05
-1.67063e-05
-3.14966e-05
1.07341e-05
3.74689e-05
6.64825e-05
1.8846e-05
7.23368e-05
-8.96565e-06
-3.87102e-05
1.99037e-05
-1.81088e-05
-3.93307e-05
0.00031446
-6.51637e-05
0.000185797
-0.000435093
0.000133221
0.000116786
-0.000203891
3.04639e-05
0.000101251
0.000152978
-0.000138464
0.000299946
-0.000413816
0.000226272
0.000153054
-0.000226348
1.67653e-05
0.000108357
-2.43255e-05
0.00010413
-0.000217116
-4.98744e-05
9.84747e-05
-0.000121419
-0.00018518
-3.52381e-05
-9.94823e-05
-3.67768e-05
1.66905e-07
4.29129e-05
-1.45625e-05
-2.85173e-05
0.000229455
-0.000280599
-0.000251237
-9.73685e-05
-4.06882e-05
0.000378245
0.000202968
-0.000581214
0.000233024
-0.000181316
0.0002165
0.000102026
-0.000100571
-9.23191e-05
-8.09178e-05
-8.64996e-05
-0.000321407
0.000407906
1.26793e-05
-4.52054e-05
1.86509e-05
-3.97167e-05
-8.48021e-05
-0.000262558
0.000282934
-4.59542e-05
-7.40324e-06
8.15203e-06
0.000108499
-0.000119779
0.00017568
0.000217158
-0.000159814
-0.000500478
6.45012e-05
0.000456157
0.000231063
-0.000184513
0.00101561
0.00021795
-0.000232043
0.000189774
-0.000356133
-0.000284118
0.000139773
2.27974e-05
1.47795e-05
-7.97952e-05
4.22183e-05
-0.000151933
0.000244347
0.000128778
-0.000221192
-0.000213008
0.000251695
0.000226148
-2.09705e-05
-0.000205178
0.001552
-2.33606e-05
-0.000308663
-2.87217e-05
0.000317129
-0.000242793
-1.97657e-05
4.97313e-05
4.28242e-05
-7.25251e-05
-2.00305e-05
-8.06782e-05
6.39567e-05
8.25886e-05
-1.66441e-05
0.000255669
-0.000189653
-5.11995e-05
5.61218e-05
-0.0002839
-2.79617e-05
8.6557e-06
-3.96025e-05
4.61222e-05
-8.6917e-05
6.12444e-05
-7.14101e-05
6.54054e-05
-0.000349723
0.000270028
-0.000310813
0.000328096
9.5597e-05
-0.000260908
-3.96356e-05
0.000225958
-0.000182811
-5.77204e-05
1.4574e-05
0.000146511
-0.000278256
-5.59212e-05
6.74889e-05
-1.6009e-05
-1.739e-05
1.07314e-05
6.63456e-06
-1.09829e-05
0.000180629
-0.000292789
0.000178635
-0.000235569
-5.95493e-05
5.50345e-05
-5.26154e-05
0.00049875
-0.000601753
-0.000488127
0.00059113
0.000685708
0.000325561
-0.000660183
-0.000351086
-0.000264337
0.000465718
-0.000390076
0.000188695
0.000287998
0.00106615
-0.000136906
-0.000281446
0.00038625
0.000689817
-0.000390359
-0.00050781
0.000569035
0.00115161
0.000369146
0.000107941
4.14984e-07
-0.000401144
5.20514e-07
-9.99053e-05
-0.000176658
8.70873e-05
0.000695018
0.00021351
-0.000442721
-0.000278599
0.000250518
-1.04786e-05
5.36937e-05
-6.38794e-05
5.36423e-05
0.000338334
-0.000548868
0.000496224
-0.000341489
-2.73133e-05
0.00033757
1.01304e-05
0.000411332
-0.000364794
-5.66686e-05
-5.66815e-05
0.000360595
0.000748246
-0.00055197
0.000257485
0.000404057
-0.000109572
-0.000217171
0.000484089
-0.00043114
-0.000207621
0.00042159
6.76559e-05
-2.55122e-05
-1.19346e-05
2.00569e-05
-5.96661e-05
-0.000547014
-0.000569197
0.000456548
-0.000821327
0.000905645
0.000267063
0.000157913
-0.000396762
1.42156e-05
0.000326071
-0.000351171
3.523e-05
0.000344885
-4.01372e-05
-0.000245764
-5.89843e-05
0.00060325
0.000352036
-0.000573724
0.000567567
-0.000115861
5.04955e-05
0.000212566
-2.20827e-05
0.000220849
-0.000192632
-6.73174e-05
-0.00026548
0.000293161
0.00068994
0.000671343
0.000211986
1.48127e-06
-0.000884811
4.26844e-05
1.68628e-05
0.000378871
4.8536e-05
0.000109219
-0.000240326
-5.17042e-05
0.000431182
0.000770545
-0.00080639
-0.000395338
-0.000932184
0.000712397
-0.000448323
0.00044982
0.000284373
0.000106072
-0.000243933
0.000215329
-0.000163831
7.48512e-05
-0.000116108
-5.61118e-05
0.000312652
0.000672676
-0.000193406
0.00026944
-0.000162534
0.000222654
0.000155592
-0.000223001
0.000321583
-2.93565e-05
-0.000339542
-0.000349859
0.000349585
-2.90823e-05
-0.000907051
0.000549454
-0.000692259
-4.34633e-05
-0.000238429
-0.000179923
-0.000700555
0.000919982
3.66443e-05
-4.14582e-05
5.08229e-05
-0.00010811
0.000460132
-0.000453112
0.000322831
-0.000923758
0.000407335
-3.65004e-05
-0.000981859
0.000684227
-0.000609418
0.00042587
-0.000364467
0.000792633
-0.000854036
0.000351137
0.000148189
0.000353817
-2.2386e-05
-0.000479619
3.61289e-05
-0.000133797
-0.000105475
3.77086e-05
-2.69727e-05
0.000106793
-0.00024059
6.33989e-05
0.000226939
0.000480024
0.000405458
-0.000639874
-0.000459384
0.000643933
-0.000277883
0.000241238
-0.000578239
-0.000672148
0.00122202
0.000376149
-0.000348384
0.000737032
2.61986e-05
0.000378469
-0.000376602
-2.80653e-05
1.9522e-05
9.23279e-06
-0.000336632
-0.000407363
0.000477744
0.000666651
-0.000558023
-0.000416003
-0.000411136
0.000474168
0.000352971
0.000569169
-0.000461005
0.000377685
-0.000485848
0.000430967
2.32233e-05
-0.000368077
-2.88992e-05
0.00013029
4.81498e-05
-0.000139625
-3.88143e-05
0.00051505
0.000302703
-4.63147e-05
0.000378495
-0.000357108
-0.000571848
-0.000548891
-0.000556546
0.000319633
0.00047146
-0.000234547
-0.000432747
-5.90985e-05
0.000132785
0.000946712
0.000140713
0.0002075
-0.00129493
0.000327452
4.53486e-05
0.000356751
0.000396266
5.70345e-05
0.000144926
-0.000911739
0.000537435
0.000479677
-3.46223e-05
9.71062e-05
-0.000542161
-0.000362967
0.000430517
-0.000446749
0.000364976
-0.000485474
0.000547994
0.000295649
0.000716315
-0.000808996
-0.000367769
0.000259337
0.000819698
-0.000888516
-0.00027707
0.000539084
-0.000535618
0.00101926
-0.00107416
0.000956613
-0.000910507
-0.000421044
-0.000205335
0.000231478
4.06949e-05
-0.000380316
1.20048e-05
-9.50641e-05
0.000301345
0.000138604
-7.29603e-06
1.10361e-05
-6.66967e-05
6.33944e-06
7.10887e-05
-0.000263363
-0.000411315
0.000535618
0.000434774
-0.000127369
4.97113e-05
0.000692471
-0.00079476
-0.000164277
-0.000169758
0.000826629
0.000752656
-5.23637e-05
-0.000182241
-0.00010438
-0.000889291
5.1848e-05
-0.000260134
0.000302309
-0.000900527
-9.16647e-06
4.4534e-05
0.000708469
-0.000743837
-1.10688e-05
-2.26591e-05
0.0001078
-8.51407e-05
0.000122843
-0.000338587
0.000237104
0.000409373
-8.52856e-05
5.92851e-05
-0.000235851
-0.000699905
-0.000277377
0.000473982
-0.000364662
-1.44839e-05
0.000963113
-0.000804291
-0.000383858
-0.000435946
0.000311026
0.000508778
0.000346866
-0.000264395
0.000737227
0.000291444
0.000186709
0.000204428
-0.000207565
0.000732136
0.000171622
-0.000658629
0.000616093
-0.000129086
-0.000607512
0.000199852
0.000182079
-0.000112224
-0.000450257
-0.000177453
0.000420089
-0.000414464
-0.000563114
-0.000514846
0.000508763
-0.000315128
-9.98212e-07
-0.00110777
-0.000488056
0.000473541
8.70511e-05
-0.000492869
8.47219e-05
0.000495234
-0.000479916
-0.000233704
0.00040139
-0.000130263
-3.1598e-05
0.000161861
3.75402e-05
0.000135536
-0.00020992
0.000306885
-0.0015311
-4.13733e-05
0.00126559
-0.000834343
-0.000362406
1.18343e-05
-1.8319e-05
0.000415131
-0.000408646
-0.000100062
-0.000119318
-0.00102573
-0.000396459
-0.000232501
0.000186238
-5.48738e-05
-1.90254e-05
4.47396e-05
0.000117243
6.13118e-05
0.000298145
0.000286568
-0.000119328
-2.0992e-05
1.26621e-05
3.24563e-05
2.92254e-05
-4.94503e-05
-8.0828e-05
1.84763e-05
-2.40068e-05
2.09428e-05
6.04968e-05
-0.000100966
9.38559e-05
3.51698e-06
1.03837e-05
2.43405e-05
-6.55011e-05
4.98605e-05
0.00029394
-0.000572974
0.000318418
-3.93834e-05
0.000916445
-0.000196342
0.000143031
-1.62374e-05
6.95487e-05
3.89499e-05
3.59122e-05
0.000170318
-9.88635e-05
1.58575e-05
-0.000286875
0.000137127
0.000137814
8.21663e-05
-0.000104697
2.25307e-05
-1.12091e-06
-0.000115514
3.20032e-06
-2.51142e-05
2.19138e-05
-0.000153907
0.000157088
-3.18119e-06
-0.000324916
0.000145842
-0.000150483
0.000138099
1.23843e-05
-0.000250643
-0.00126139
0.00110445
-0.000492971
-0.00109496
5.29075e-05
2.92588e-05
-0.000141319
0.000234705
0.00015982
-0.000246337
-1.62076e-05
1.94079e-05
-0.000517274
0.000404502
-0.000438894
-0.000143061
2.77933e-05
6.60461e-06
4.23985e-05
-0.000365335
-0.000368835
-0.000420248
0.000267759
0.000141327
-0.000286209
-0.000117818
-2.35012e-05
-0.000460185
0.000420687
0.000675997
-0.000515925
0.000186442
0.000457167
0.000321161
-0.000329754
0.000114477
-5.42525e-05
-0.000299769
0.000411313
0.000620593
0.000335131
-0.000225187
0.000732385
6.23513e-05
0.000715602
-0.000657355
-0.00025088
0.000161263
0.000251062
0.00011228
0.000104763
-0.000152762
-6.42803e-05
-6.48168e-05
-0.000323924
-0.0002254
-2.24635e-05
-0.000381573
-3.55103e-05
3.56388e-05
0.000381444
0.000206275
-0.000227697
-0.000180067
0.000225621
-0.000445625
-0.000322922
-4.27377e-05
1.52917e-05
-3.6926e-05
-0.000120008
-8.87283e-05
-0.000304616
0.000486012
-2.15759e-05
-3.73021e-05
5.2872e-05
0.000147187
7.23452e-05
-8.24056e-05
0.000128081
-0.000329529
-0.000263555
0.000230737
0.000637309
1.27931e-05
-4.55828e-05
-0.000346701
-0.000902673
0.00024287
4.05549e-05
1.69504e-05
-2.80718e-05
-0.000162266
0.000268728
-6.49189e-05
6.16618e-05
-2.7897e-05
3.11542e-05
-4.05442e-05
-0.000209696
-3.27611e-05
-6.82511e-05
4.97776e-05
1.84736e-05
-3.28766e-05
6.63947e-05
-3.35181e-05
0.000535142
-6.69814e-05
-2.16655e-05
0.000583847
-3.71298e-05
-0.000416427
0.00010232
-3.17845e-05
4.10023e-05
-3.40248e-05
5.75294e-05
-0.000147523
0.000175382
-0.000217336
1.81692e-05
-8.39809e-06
0.00123797
-0.00118038
2.70847e-05
-0.000102588
-0.000210137
0.000202238
-5.06779e-05
5.75893e-05
0.000501928
0.000331869
-0.000336717
0.000841659
-0.000245039
-0.000430774
-6.87487e-06
-0.000414683
-0.000145427
8.10002e-06
-0.00011888
-2.76447e-05
-0.000478253
3.88081e-05
0.000373116
-0.000420812
8.88777e-06
8.11865e-05
1.5557e-05
0.000338615
5.41486e-05
0.000115542
-0.000227253
0.000117638
0.000528765
-0.000122963
1.8266e-05
-0.000239969
-0.000744538
1.50708e-05
0.000326144
0.000305556
0.00029299
-6.3168e-06
0.000112229
0.000311349
-0.000154137
0.000151858
0.000185782
-0.00054795
0.000343316
-0.00025639
-0.000369093
-0.000169779
0.000142413
-4.58745e-05
0.000364252
-7.30882e-05
-0.000315709
-0.000212455
-0.000237167
-0.000848656
0.0010308
-0.000593251
0.000502293
-0.000344987
0.000197551
0.000220079
-6.48585e-05
8.25889e-05
4.34083e-05
-0.000318726
0.000136374
-4.44763e-05
-0.000352123
0.000525688
-0.000419525
4.38789e-05
-1.63142e-05
-0.000143673
0.000364145
-3.61976e-05
-0.000374262
4.38608e-05
0.00012259
-1.52711e-05
-2.30773e-05
-9.7993e-06
-0.000105497
0.00118599
7.28292e-06
-2.12387e-05
-0.00027043
-0.000290559
-0.000944657
0.000562522
-4.54046e-05
0.000218099
2.70768e-07
7.90718e-05
7.38526e-06
-6.7025e-05
5.01184e-05
1.02465e-05
-0.000107257
0.000179793
9.01371e-05
-1.68744e-05
-0.000545467
0.00034466
9.3769e-05
-3.65671e-05
-9.92063e-05
-0.000280158
6.55729e-05
1.84306e-05
0.00021074
6.84317e-06
-0.000282747
0.00030292
-0.000382995
3.42009e-05
-0.000710562
-0.000617289
0.000479195
-7.17951e-05
0.000139018
8.52475e-05
-4.05122e-05
0.000447148
0.000267657
-7.29399e-05
4.95486e-05
0.000180519
-0.000328686
-3.42267e-05
-5.58576e-05
4.3584e-05
-6.7381e-05
-6.04686e-05
1.51359e-05
1.94287e-05
0.000690197
-0.000423444
-1.00266e-05
0.000604402
0.000549165
0.00012037
-0.000148681
0.000197881
0.000565561
-0.00105257
-0.00025753
-8.3575e-05
9.23025e-05
-9.03487e-05
-3.74954e-05
-0.000447573
0.000395614
3.49332e-05
-9.19356e-05
0.000401967
0.000159494
-0.000419098
-0.000220527
-6.68107e-05
5.99869e-05
-0.000340528
-0.000387495
0.000273006
0.000435325
-0.000320835
0.00012619
-0.000314873
-1.73366e-05
0.000155347
-0.00017352
-7.91552e-05
0.000308945
-0.000238942
2.93369e-05
3.31351e-05
-3.66117e-05
7.42374e-05
-0.000224217
0.000223319
0.000464572
-0.00028114
0.000366973
0.000188538
-0.000411052
9.18219e-05
-3.73526e-05
-7.049e-05
0.000520135
-0.000267377
-6.69714e-05
-0.000402846
0.000337706
0.000196195
2.7211e-05
-4.65936e-05
8.6826e-06
0.000247181
-0.000220931
4.9602e-05
-0.000606913
-0.000128509
-0.000291884
-0.000507602
-0.000214854
0.000223523
-0.000190812
0.000225933
-2.41068e-06
-0.000191988
0.000163463
2.8525e-05
-0.000163308
-2.75045e-05
1.55383e-07
-0.00029864
0.000299744
-0.000519554
0.000522064
-2.50963e-06
-0.000492552
-0.000280626
-1.80139e-05
0.000291776
0.000284322
7.45394e-06
-0.000250293
-0.000437772
0.000225019
-0.000211432
-1.35871e-05
-0.000371818
-6.59533e-05
-0.000308842
-6.29765e-05
0.000282764
-0.000305242
-2.60774e-05
0.00028157
2.75196e-06
0.000292589
-1.10191e-05
0.000302187
-1.24006e-05
0.000429862
-0.000394632
-7.02799e-05
2.75422e-05
-0.000282307
0.000280493
0.000354784
-0.000100454
0.000110393
6.97171e-05
0.000347354
1.22643e-06
-1.04439e-05
-0.00053391
0.000353508
-4.4395e-05
0.000125941
0.000344299
-0.000389334
8.77178e-05
-7.99568e-05
2.44362e-05
5.20022e-05
3.35442e-05
1.62334e-05
-0.00089414
2.15061e-05
0.000308181
-0.000274527
-0.000117584
0.000237613
-0.000131827
-0.000151941
-0.00125385
0.000570362
-0.000102964
7.97588e-05
-6.37926e-05
0.00029587
-0.00013634
0.00017916
-5.86745e-05
7.7699e-05
0.0012571
-0.00148833
8.91584e-05
-3.15688e-05
-5.75896e-05
0.0014589
4.85966e-05
-3.64085e-06
0.000186187
6.95655e-06
-0.000470445
0.000283375
-0.000355091
0.000321124
-0.000340408
-1.69141e-05
-7.50729e-05
-0.000104842
-0.000261562
7.42777e-05
0.000524136
0.000363673
-0.00038995
0.000193819
-0.000132122
6.04207e-05
-7.7715e-05
0.000384771
-0.000116879
9.45246e-05
-0.000397484
-0.000648943
-0.000255411
4.58617e-05
1.45281e-05
7.25607e-05
-5.53927e-05
-3.16961e-05
0.000206223
0.000194529
-0.000194822
-0.000159283
-0.000261723
3.45111e-05
-6.77751e-05
5.53952e-05
-1.73025e-05
0.000238649
6.69902e-05
4.91722e-05
-2.75468e-05
-1.50874e-05
9.65436e-05
-0.000144384
-9.64955e-05
-0.000103828
0.000593038
0.000510914
-0.000455398
-0.000215787
-0.000469789
-0.000270662
0.000260184
-9.57756e-05
1.22006e-05
-0.000392951
0.000281696
-7.34672e-05
-0.000557992
0.000397331
-7.44627e-05
-7.28972e-06
-2.30075e-05
2.97888e-05
3.54526e-05
-0.000137182
-0.000354839
-2.72913e-05
3.47091e-05
-0.000373301
4.24599e-05
-2.56365e-05
2.43737e-05
0.000278375
9.5552e-05
0.000215693
0.000215875
-0.000143218
0.000224507
0.000150508
-0.000162773
3.98361e-05
-9.38829e-05
3.45967e-05
0.00018334
0.000435613
-2.71723e-05
-7.64483e-06
-0.000355448
-0.00133381
0.0010761
0.000376054
-0.000198452
0.000512595
0.000131086
4.84973e-05
-8.026e-05
0.000153667
-8.16608e-05
0.000137958
8.77221e-05
-3.39112e-05
-0.000161068
1.07622e-05
-1.55053e-05
-2.55287e-06
4.35793e-05
-5.63212e-05
1.90813e-05
0.00079798
0.00032613
-0.000529687
0.000211662
0.000206623
-0.000154622
-0.000332159
-4.52944e-05
6.86386e-05
-7.71726e-05
0.000441822
-0.000269053
-0.000267298
3.76625e-06
3.13519e-05
0.00023218
0.000385618