/*--------------------------------*- C++ -*----------------------------------*\
| =========                 |                                                 |
| \\      /  F ield         | OpenFOAM: The Open Source CFD Toolbox           |
|  \\    /   O peration     | Version:  v1912                                 |
|   \\  /    A nd           | Website:  www.openfoam.com                      |
|    \\/     M anipulation  |                                                 |
\*---------------------------------------------------------------------------*/
FoamFile
{
    version     2.0;
    format      ascii;
    class       volScalarField;
    location    "0.98";
    object      nut;
}
// * * * * * * * * * * * * * * * * * * * * * * * * * * * * * * * * * * * * * //

dimensions      [0 2 -1 0 0 0 0];


internalField   nonuniform List<scalar> 
1466
(
0.00120528
0.00203366
0.00141589
0.00386888
0.00153957
0.00241034
0.00203379
0.0018984
0.000743777
0.00231054
0.00296908
0.00230124
0.000733722
0.00131229
0.00571637
0.00616796
0.00177122
0.00102077
0.00502607
0.00342104
0.005407
0.00804116
0.00396782
0.00318398
0.000757492
0.00416684
0.00511615
0.00406225
0.000828609
0.00361393
0.00339736
0.00391168
0.00188233
0.0111215
0.0029596
0.00195392
0.0121647
0.00172055
0.00213064
0.000695241
0.000909321
0.00193871
0.00186455
0.000852184
0.000627071
0.00128557
0.00190287
0.000605352
0.0015319
0.000716001
0.0011132
0.00165335
0.00170634
0.000836634
0.000968412
0.00100967
0.0010198
0.00209817
0.000830979
0.00199896
0.0058246
0.00277571
0.00147177
0.00355215
0.00545622
0.00223327
0.00835449
0.00369809
0.00206008
0.000998855
0.00767757
0.00114097
0.000944459
0.000908877
0.00382212
0.00254193
0.00262829
0.00141591
0.00114189
0.00368396
0.0028936
0.00504342
0.00134413
0.00324848
0.00525479
0.00531953
0.00882802
0.00310851
0.00249666
0.00279486
0.00513439
0.00458879
0.00403764
0.00116161
0.0019857
0.00123272
0.00186641
0.00180107
0.00082199
0.000885516
0.00149646
0.000912794
0.000553274
0.00170076
0.00217187
0.00199135
0.00147662
0.000670171
0.00187527
0.00111817
0.00581095
0.00296812
0.00191741
0.00172868
0.00154653
0.00660986
0.00300092
0.00166438
0.00170458
0.00114149
0.00638351
0.0027999
0.00125324
0.000927126
0.00067789
0.00167634
0.00260419
0.004092
0.00336751
0.0044193
0.00174129
0.00193662
0.0034961
0.00292416
0.00535932
0.000803757
0.000617426
0.00127287
0.00118654
0.000845159
0.000932184
0.00460089
0.00493852
0.00453865
0.00793769
0.00719176
0.00394499
0.00529913
0.0044525
0.00311257
0.00545112
0.0034496
0.00237705
0.00183948
0.00485851
0.00805283
0.00376236
0.00678117
0.00448869
0.00210472
0.00391875
0.00332507
0.00146777
0.0048752
0.00787245
0.00324432
0.004465
0.00488217
0.00534017
0.00311956
0.00555847
0.00279136
0.000809952
0.00218662
0.00104148
0.000866599
0.00329504
0.00409706
0.00559952
0.00617687
0.000845723
0.00400183
0.00533905
0.000583084
0.00302945
0.00559821
0.00547664
0.00277626
0.00204634
0.00144437
0.00583328
0.00512577
0.00379953
0.00813916
0.0019052
0.00634421
0.000707557
0.00327121
0.00697678
0.00774636
0.00295269
0.0044177
0.00309417
0.00600448
0.00771945
0.00814198
0.0063811
0.00222873
0.00446981
0.00340318
0.00461281
0.00487263
0.00463057
0.0051576
0.00590552
0.00493775
0.00585051
0.00590929
0.00345765
0.00408007
0.00460911
0.00652775
0.00510685
0.00674776
0.00525057
0.00577411
0.00691185
0.00083494
0.00563979
0.00648677
0.00565639
0.00307865
0.00874177
0.0095117
0.00303602
0.0081784
0.00479451
0.00479311
0.00456398
0.00576298
0.00243577
0.00355045
0.00295632
0.0075961
0.00391734
0.0030748
0.00385803
0.00089788
0.00391864
0.00269876
0.00592661
0.00590147
0.00208237
0.0029943
0.00301181
0.00558126
0.00327477
0.00105319
0.00135036
0.0019423
0.00125937
0.00323304
0.0027981
0.00628466
0.0034244
0.000504543
0.00093946
0.00473793
0.00531467
0.00121685
0.00167494
0.00143211
0.00108657
0.00425274
0.00518265
0.00697029
0.00622063
0.00407732
0.00545296
0.00430138
0.00605792
0.00553954
0.00484471
0.00312063
0.00828241
0.00122787
0.00469893
0.00479579
0.000753348
0.00171923
0.0017289
0.000943752
0.000788487
0.000678378
0.00320517
0.0010337
0.00159723
0.00149557
0.00443095
0.00615196
0.00116891
0.00666139
0.000491528
0.000863841
0.006518
0.00822379
0.00338526
0.00162703
0.00281579
0.00864702
0.00222205
0.00559245
0.00400746
0.00454537
0.00425164
0.00349929
0.00915882
0.00277517
0.00117364
0.00584027
0.000957857
0.00151199
0.0015117
0.00586131
0.00678384
0.00152447
0.00136461
0.00275989
0.00549978
0.00529483
0.00391758
0.00161084
0.00191411
0.00287038
0.00526015
0.000845113
0.00544088
0.00478077
0.00344487
0.002224
0.00167355
0.00236039
0.00171376
0.00359132
0.00338079
0.000444478
0.00296335
0.0028392
0.00210995
0.00484643
0.00169387
0.000903532
0.00333627
0.00716469
0.0098493
0.00703174
0.00302487
0.000631212
0.00102675
0.00284111
0.00915925
0.00631515
0.0048582
0.00835569
0.00107992
0.00942385
0.00210894
0.00202567
0.00115913
0.00316308
0.00279993
0.00768515
0.00143244
0.00270969
0.00179096
0.013046
0.00382287
0.00143002
0.00189837
0.00347959
0.0110948
0.0104187
0.0114673
0.0117903
0.0113562
0.0109133
0.00177561
0.00181817
0.00166633
0.00120894
0.00549765
0.0115458
0.00945053
0.0111065
0.00841395
0.00445059
0.00119542
0.00146987
0.00753959
0.000787168
0.00139299
0.00124151
0.00273218
0.00140096
0.00285703
0.0112662
0.00268756
0.00305784
0.00931628
0.00955106
0.00486241
0.00299775
0.0031506
0.0106404
0.00331317
0.00141985
0.00144628
0.00304942
0.00571712
0.00281681
0.00966794
0.0104082
0.00315569
0.00290611
0.00353272
0.00216742
0.00788697
0.00146778
0.00308342
0.00201974
0.00668623
0.00599352
0.0016143
0.00170043
0.0049116
0.000653923
0.00128729
0.000785014
0.00113422
0.00698484
0.00170233
0.000728174
0.00658257
0.00135663
0.00566885
0.00307826
0.00130934
0.00530287
0.00255733
0.00534044
0.00555563
0.00193772
0.000599746
0.000877684
0.00871905
0.000713017
0.0016616
0.00155935
0.0006551
0.00594568
0.00182998
0.00527205
0.00149866
0.00224477
0.00525764
0.00220936
0.0101482
0.00460295
0.00302785
0.00940797
0.00377684
0.00171799
0.00641367
0.000981384
0.00637345
0.00223974
0.00151482
0.00778107
0.0106705
0.0058678
0.00307515
0.0036874
0.00494742
0.0102853
0.00877373
0.00197375
0.00206135
0.00307119
0.00857302
0.00521546
0.00953746
0.0038858
0.00177336
0.0108972
0.00516575
0.0127313
0.0136294
0.0118479
0.00369437
0.010156
0.0120925
0.0120387
0.0022309
0.00760561
0.00113285
0.00931052
0.0033366
0.00630574
0.00187906
0.0136456
0.00577886
0.00811045
0.00714134
0.00164113
0.0138922
0.00933286
0.00718942
0.000864883
0.00132681
0.00183978
0.0124867
0.0032761
0.0103528
0.00227036
0.00774335
0.00776142
0.00499001
0.00452914
0.00880615
0.0100068
0.00133924
0.00169969
0.00876571
0.0122388
0.0128713
0.00610384
0.00241002
0.00351195
0.00811487
0.00408299
0.00186281
0.00810183
0.0012114
0.00822454
0.0097488
0.00245882
0.0105341
0.00179073
0.00865203
0.0066927
0.00766535
0.00214093
0.00572008
0.0123727
0.00168325
0.0139931
0.0139017
0.0102833
0.00194042
0.00149935
0.00991876
0.0102226
0.00603132
0.00279153
0.00117599
0.00864011
0.0116169
0.0103879
0.00361992
0.012191
0.00696884
0.010421
0.00455808
0.00412456
0.00275618
0.00610718
0.000927288
0.0129076
0.0133026
0.00382169
0.00510258
0.0121308
0.0134293
0.00871137
0.011023
0.00483565
0.00628548
0.00103057
0.0131392
0.00957721
0.00872435
0.00209822
0.00875422
0.0131374
0.00661124
0.00498054
0.00460866
0.00291404
0.00289214
0.00535317
0.00348377
0.00128812
0.00115262
0.00254253
0.00951178
0.00917271
0.00593699
0.00113208
0.00608609
0.0118346
0.00343291
0.00366226
0.00187291
0.00225925
0.00357478
0.0026448
0.00393387
0.00220946
0.00184363
0.00617257
0.00238625
0.00129466
0.00594369
0.001422
0.00186181
0.0128055
0.00180525
0.00939218
0.0100359
0.0130267
0.0070972
0.00187767
0.00192343
0.00122141
0.0126701
0.00124824
0.00596204
0.00583909
0.00478703
0.00400899
0.00896356
0.00326664
0.00302948
0.0068094
0.0112905
0.00126995
0.00908511
0.0101984
0.00291082
0.00226841
0.0123857
0.00098244
0.00396642
0.00176927
0.0108766
0.0112837
0.00193937
0.00162936
0.00556289
0.000915101
0.010314
0.0032142
0.00132502
0.00134087
0.0099787
0.00391428
0.00279517
0.00484539
0.00395944
0.00126327
0.00153946
0.00499741
0.00532724
0.000931607
0.00573145
0.00114287
0.00684821
0.00248706
0.00168272
0.00164159
0.00408244
0.0019395
0.00303385
0.00945846
0.000624426
0.00776097
0.000707027
0.00045986
0.00361914
0.00048437
0.0103157
0.00159257
0.00148452
0.00247665
0.000677492
0.00046417
0.0026662
0.00761309
0.000703562
0.00816054
0.0101184
0.000715016
0.000464731
0.00547979
0.0115741
0.0105923
0.00488787
0.00350158
0.000478653
0.0112916
0.00491843
0.00712545
0.00113551
0.00315535
0.00913185
0.00432403
0.00182976
0.00991396
0.00972223
0.00403642
0.00229706
0.00788479
0.00930635
0.00304514
0.00167957
0.0109689
0.00395373
0.00656437
0.00698254
0.000461606
0.00739605
0.00265953
0.0086156
0.001446
0.00813344
0.00724559
0.00110139
0.00628934
0.00133002
0.00826584
0.0126067
0.0052635
0.0119842
0.000986557
0.00190128
0.0028731
0.000744798
0.000521855
0.00667509
0.00283783
0.00401082
0.00430876
0.00374339
0.00122613
0.00329979
0.00630719
0.00554786
0.00415417
0.00127501
0.00393928
0.00505533
0.00226824
0.0071625
0.00443408
0.00996984
0.00316612
0.00418441
0.00372147
0.00606336
0.00551104
0.00543638
0.00471316
0.0012818
0.0033768
0.00845182
0.00558583
0.00386251
0.000570317
0.00856072
0.00253025
0.00914882
0.00677393
0.00442897
0.00150197
0.0104125
0.00134646
0.00640626
0.0134539
0.0103
0.00318899
0.00974207
0.0100979
0.00565245
0.00405055
0.00432192
0.00141089
0.00788558
0.00318844
0.00187527
0.00742215
0.00421169
0.00695051
0.010666
0.00187319
0.00168228
0.00115155
0.000412672
0.00116629
0.00846813
0.00430525
0.00113685
0.00487484
0.00415269
0.00324598
0.00743967
0.00201879
0.00519919
0.00427064
0.00523196
0.00668336
0.00309515
0.0096974
0.00274917
0.00420837
0.00172788
0.00345628
0.00513128
0.00122132
0.00147102
0.00397419
0.00381108
0.00503035
0.00597226
0.0104596
0.00137689
0.0034314
0.00332117
0.000522226
0.00546237
0.00654154
0.00738159
0.0100939
0.00998692
0.00186397
0.00909293
0.00190844
0.000757479
0.0100837
0.00282601
0.00432953
0.00738507
0.00280212
0.00362835
0.012466
0.00932526
0.00528044
0.00309569
0.00275635
0.0036947
0.00375726
0.00907308
0.0117825
0.000917039
0.00556236
0.00445436
0.00107323
0.00342071
0.00192762
0.00471535
0.0135061
0.0101268
0.00243383
0.00763879
0.00459821
0.010977
0.00490096
0.0100981
0.00107783
0.00102745
0.00106495
0.000879814
0.000908968
0.000996539
0.000824253
0.0012883
0.00131136
0.00133773
0.00129471
0.0012231
0.00116027
0.00120121
0.00125128
0.00132866
0.000926015
0.00104249
0.00128209
0.00119479
0.00132827
0.00113463
0.0011091
0.00111629
0.00115
0.00102557
0.00306096
0.000733305
0.000529782
0.00839133
0.00189796
0.00213166
0.00126313
0.00134589
0.00536097
0.008782
0.00391369
0.0110201
0.00371916
0.000724942
0.00123464
0.00579085
0.00270501
0.00857519
0.00603478
0.00319372
0.00452909
0.00252466
0.0103833
0.00745269
0.00115824
0.00223656
0.00134808
0.00092643
0.000484296
0.0008642
0.00257057
0.0044204
0.00820272
0.00875286
0.00115954
0.00209691
0.00323699
0.00206185
0.00402947
0.00153922
0.00920468
0.00295962
0.00162469
0.00480193
0.001131
0.00210891
0.00141156
0.00756983
0.00382618
0.00396383
0.00821139
0.00282159
0.00733114
0.00389699
0.00571557
0.00756433
0.00355515
0.010189
0.00162299
0.00104798
0.000763305
0.00387922
0.00618452
0.0011119
0.00389758
0.00735191
0.00862316
0.00131061
0.00604753
0.00815169
0.00587747
0.00458682
0.00193312
0.00698595
0.00508936
0.00206326
0.00481739
0.00141632
0.00439707
0.00540517
0.0121078
0.00124452
0.00110471
0.010271
0.00363656
0.00759055
0.00334612
0.00260354
0.00116888
0.00634531
0.00314544
0.00680253
0.00971591
0.0039698
0.00834747
0.00111466
0.00213358
0.0105846
0.00420548
0.00955816
0.00117786
0.00106789
0.00309588
0.00186579
0.00115605
0.00548069
0.000741005
0.00136819
0.00733436
0.00110783
0.000391119
0.00224618
0.000937806
0.00737293
0.00605524
0.00198879
0.00822814
0.000917167
0.00141094
0.010178
0.00329611
0.00721544
0.00121567
0.0010634
0.00433434
0.00335328
0.00154927
0.00360162
0.00620512
0.00668765
0.00276403
0.00198213
0.00672138
0.00482401
0.00450333
0.00611087
0.000810208
0.0063487
0.000832696
0.00156761
0.00154239
0.000747079
0.00179508
0.00263971
0.000615552
0.00230641
0.00952093
0.00248356
0.00130835
0.00359554
0.00469269
0.000935145
0.000864894
0.00517328
0.00774778
0.00545906
0.0014616
0.00144417
0.000929478
0.000716286
0.000755351
0.00293233
0.00757223
0.00105073
0.00269091
0.0011427
0.000254234
0.00521187
0.00864329
0.000567752
0.00220754
0.000585553
0.00176183
0.000950583
0.000571101
0.000589813
0.00225959
0.00229431
0.000728973
0.00109118
0.000473726
0.000515778
0.000498479
0.000473131
0.000997429
0.00101965
0.000541254
0.000601945
0.000620322
0.000604046
0.000916552
0.0100826
0.00674083
0.00498208
0.00619566
0.0052668
0.00959845
0.00482077
0.00118221
0.00102697
0.00986111
0.00357243
0.00189649
0.00170299
0.00598057
0.00356697
0.00918926
0.0105859
0.000483756
0.00713917
0.00246882
0.00400883
0.00067273
0.00298379
0.00281189
0.00638002
0.00185303
0.00542153
0.00687743
0.00332804
0.00086828
0.00103565
0.00088642
0.00195315
0.00553251
0.0031536
0.00429578
0.00273974
0.00309711
0.00471292
0.00165199
0.010546
0.00680723
0.00397839
0.00508135
0.00818146
0.00960801
0.01114
0.00190429
0.00122277
0.00520077
0.00430892
0.00393068
0.00411175
0.00625577
0.00527455
0.00291454
0.0119819
0.00104681
0.0010539
0.00905459
0.00291305
0.00127643
0.00241437
0.0032667
0.00395915
0.00963803
0.0012342
0.0035616
0.00105626
0.000904793
0.00539772
0.0110101
0.00254367
0.00919259
0.00658772
0.00169195
0.00357927
0.00898771
0.0119835
0.00140364
0.0017466
0.00928729
0.00326715
0.00793377
0.00779923
0.0103354
0.0110605
0.00164265
0.00461094
0.00432765
0.0036813
0.00242726
0.00933366
0.00498658
0.00670437
0.00349223
0.00507297
0.00215369
0.00973827
0.00708493
0.00351677
0.00323434
0.00300825
0.00130266
0.00289102
0.00493989
0.00360585
0.00304731
0.00377928
0.00267959
0.00260664
0.00630794
0.00933196
0.000953915
0.00166359
0.00388527
0.00090612
0.00340055
0.00442417
0.00219845
0.00137841
0.000914173
0.0038872
0.000903136
0.00288519
0.0108957
0.0111406
0.00157606
0.00288656
0.000894202
0.00770701
0.00226635
0.00117533
0.00657004
0.00313074
0.0092575
0.00787379
0.00403219
0.00364322
0.00153942
0.00371942
0.00378829
0.00734181
0.00178304
0.00118483
0.00654793
0.0015608
0.00997958
0.00300762
0.00215656
0.00299154
0.00643355
0.00566858
0.0007875
0.00869078
0.00163144
0.000868788
0.0104961
0.00646935
0.00342472
0.00290179
0.00200158
0.0101145
0.00238047
0.00661961
0.00342714
0.00262965
0.0052818
0.00498462
0.00719871
0.0107481
0.0102249
0.00219766
0.00205661
0.00173988
0.00398562
0.000778763
0.003123
0.00342229
0.000496364
0.0100735
0.00133911
0.00340689
0.00989812
0.00227025
0.0064075
0.00370854
0.000929587
0.00357395
0.00447172
0.00205975
0.00174798
0.00185565
0.00951457
0.00715426
0.010023
0.0102751
0.00459978
0.00188109
0.00260485
0.00346111
0.000863674
0.00146514
0.00570939
0.000984249
0.00438687
0.00499481
0.00684858
0.00611469
0.00388341
0.00849127
0.000907765
0.00384638
0.00656991
0.00569187
0.00181375
0.00251654
0.00508646
0.00244504
0.00135526
0.00291157
0.00620932
0.0108481
0.00101262
0.000412085
0.00319899
0.00287282
0.00308649
0.0098414
0.00684451
0.00068815
0.00323627
0.000520712
0.000891479
0.0014826
0.00186255
0.00320858
0.00920011
0.000414578
0.0105052
0.0100074
0.00714711
0.00168309
0.00132949
0.00723135
0.00104478
0.00389596
0.0024591
0.00390919
0.00713396
0.00129586
0.0034959
0.00327521
0.00316097
0.00172937
0.00297478
0.0011268
0.00551933
0.00305159
0.00648992
0.00111589
0.00362946
0.00307687
0.00385579
0.00311105
0.00327596
0.00869614
0.00279344
0.00311222
0.00261597
0.00318533
0.00779508
0.00236299
0.0015094
0.000250896
0.000396519
0.00280916
0.00498708
0.00295189
0.00607736
0.00440401
0.00114153
0.00208873
0.00949358
0.00632778
0.0045979
0.00360808
0.00246313
0.00580184
0.0109423
0.00192109
0.00294117
0.00462294
0.00248688
0.00620652
0.00263301
0.00286514
0.0056079
0.00335463
0.00497069
0.00469172
0.00316143
0.00517378
0.00336972
0.00267544
0.00311785
0.00131762
0.00517237
0.0033909
0.00470322
0.0041802
0.00354854
0.00314724
0.00683648
0.00407116
0.00616601
0.00325329
0.0087111
0.0103996
0.00313583
0.00112704
0.00684434
0.00228725
0.00194009
0.00172294
0.00309915
0.00325474
0.00406515
0.00486443
0.00316895
0.00332475
0.000742619
0.00378191
0.00403406
0.00279445
0.00522514
0.00171029
0.0020837
0.000916851
0.00160843
0.00088366
0.000821619
0.00157593
0.00211271
0.000593716
0.000691401
0.00125156
0.0007223
0.00144886
0.00179259
0.00111877
0.000766737
0.00167523
0.00238171
0.00150656
0.00134547
0.000987628
0.00174507
0.000728828
0.00083877
0.000964545
0.000837529
0.00093791
0.000632848
0.00219721
0.000614556
0.000580277
0.00181673
0.000815811
0.00130601
0.00117869
0.00234347
)
;

boundaryField
{
    frontAndBack
    {
        type            empty;
    }
    wallOuter
    {
        type            nutkWallFunction;
        Cmu             0.09;
        kappa           0.41;
        E               9.8;
        value           nonuniform List<scalar> 
108
(
0.000120888
0.000134244
0.000112351
5.95327e-05
5.37844e-05
7.54424e-05
8.51218e-05
5.56788e-05
5.86641e-05
8.16771e-05
5.62098e-05
8.47165e-05
8.60531e-05
5.62711e-05
5.79802e-05
5.58853e-05
0.000129869
8.95007e-05
6.3212e-05
6.90181e-05
4.98633e-05
0.000133792
6.32482e-05
9.0966e-05
0.000127273
0.000121657
0.000125843
0.000105016
0.000108329
0.000118185
9.86828e-05
0.000150397
0.000152919
0.000155786
0.000151096
0.00014327
0.000136364
0.00014087
0.000146366
0.000154802
0.000110237
0.000123309
0.000149735
0.00014018
0.000154768
0.000133552
0.000130709
0.000131507
0.000135233
0.000121453
6.41595e-05
8.72002e-05
0.000136144
5.86698e-05
0.00013314
0.000123923
9.16378e-05
0.000130227
0.000126141
4.71787e-05
0.000109239
0.000142464
0.000125681
9.96117e-05
8.97617e-05
7.44082e-05
0.000111246
8.61958e-05
9.07218e-05
0.000124252
2.96618e-05
2.96618e-05
6.87284e-05
7.0846e-05
6.91245e-05
7.13519e-05
0.000128732
5.73814e-05
6.24853e-05
6.03933e-05
5.73079e-05
0.000118249
0.000120735
6.55548e-05
7.27976e-05
7.4972e-05
7.30429e-05
0.000109152
0.000138788
0.000121615
5.86034e-05
8.11386e-05
0.000103722
0.000122552
0.000123769
0.000124559
0.000124849
0.000107869
0.000107632
6.01364e-05
0.000103167
0.000116773
4.97924e-05
6.30764e-05
5.01014e-05
2.92257e-05
4.7869e-05
0.000134311
)
;
    }
    inlet
    {
        type            calculated;
        value           nonuniform 0();
    }
    outlet
    {
        type            calculated;
        value           nonuniform 0();
    }
    wallInner
    {
        type            nutkWallFunction;
        Cmu             0.09;
        kappa           0.41;
        E               9.8;
        value           nonuniform List<scalar> 
126
(
0.000196986
0.000239617
8.30921e-05
0.00010742
0.000219705
0.000211944
0.000101187
7.49191e-05
0.000150605
0.000215891
7.32735e-05
0.000176724
8.62148e-05
0.000131188
0.000189616
0.000195292
0.000100425
0.000115102
0.000119625
0.000121195
0.000236236
9.96651e-05
0.000225967
0.000134132
0.000144413
0.000212105
0.000205216
9.83932e-05
0.000105365
0.000172933
0.000108759
6.70915e-05
0.000194697
0.000243916
0.000225398
0.000170797
8.09191e-05
0.000213023
0.000132163
0.000197641
0.000178266
0.000109746
8.04854e-05
0.00019895
0.000219486
9.54236e-05
7.40454e-05
0.000148949
0.000111043
0.000169822
0.000123205
8.52224e-05
0.000157148
0.000220058
0.000147253
6.11385e-05
0.000111754
0.000191938
0.000165985
0.000128223
0.000112604
8.15923e-05
0.000122322
0.000183666
0.000113835
0.000174565
0.000174536
7.62436e-05
0.000136266
0.000165958
0.0001657
0.000169989
9.3906e-05
0.000169759
0.000185539
0.000194618
7.84249e-05
9.36375e-05
8.69672e-05
7.19121e-05
8.53541e-05
7.85566e-05
0.000188333
0.00019454
0.000192799
0.00020578
0.000187189
0.000192514
0.000126623
0.000218606
0.000163758
0.000151198
0.000132669
0.00019566
0.000109196
0.000184914
0.000105418
9.79026e-05
0.000181374
7.07122e-05
8.3609e-05
0.000146443
8.69521e-05
0.000167637
0.000204505
0.000131811
9.20217e-05
0.000191967
0.000265432
0.000173943
0.000156635
0.000117182
0.0001993
8.76582e-05
0.000100307
0.000114557
9.9416e-05
0.000111967
7.57681e-05
0.000246734
7.41833e-05
7.0146e-05
0.000206887
9.77388e-05
0.000152295
0.000138401
)
;
    }
    procBoundary1to0
    {
        type            processor;
        value           nonuniform List<scalar> 
29
(
0.00137154
0.00137154
0.000961672
0.0022006
0.00608101
0.0024893
0.00284228
0.00114326
0.00233243
0.00200967
0.00163396
0.0024893
0.000961672
0.000708025
0.00211162
0.00111972
0.00608101
0.00533158
0.0022006
0.00149273
0.000834176
0.000742488
0.00304383
0.000708826
0.000708826
0.00304383
0.000724436
0.000907695
0.000724436
)
;
    }
    procBoundary1to2
    {
        type            processor;
        value           uniform 0.00167231;
    }
    procBoundary1to3
    {
        type            processor;
        value           nonuniform List<scalar> 
48
(
0.0125934
0.00630961
0.00870565
0.00870565
0.0037831
0.00426588
0.00426588
0.00732296
0.0142113
0.00143857
0.00139258
0.00143857
0.0014046
0.00160419
0.00192062
0.0014046
0.00111601
0.00111601
0.001156
0.001156
0.00124023
0.00112219
0.00130359
0.00170309
0.00170309
0.00106881
0.00119116
0.00119116
0.00316968
0.00276283
0.00139295
0.00316968
0.00732296
0.0137949
0.00120066
0.00276283
0.0113109
0.00139258
0.0137251
0.00293856
0.00159365
0.0129679
0.0137949
0.00120066
0.00182427
0.000993756
0.00360037
0.00159365
)
;
    }
}


// ************************************************************************* //
