/*--------------------------------*- C++ -*----------------------------------*\
| =========                 |                                                 |
| \\      /  F ield         | OpenFOAM: The Open Source CFD Toolbox           |
|  \\    /   O peration     | Version:  v1912                                 |
|   \\  /    A nd           | Website:  www.openfoam.com                      |
|    \\/     M anipulation  |                                                 |
\*---------------------------------------------------------------------------*/
FoamFile
{
    version     2.0;
    format      ascii;
    class       volScalarField;
    location    "1";
    object      p;
}
// * * * * * * * * * * * * * * * * * * * * * * * * * * * * * * * * * * * * * //

dimensions      [0 2 -2 0 0 0 0];


internalField   nonuniform List<scalar> 
1431
(
94.7222
93.442
91.9145
94.2647
88.7222
90.6423
94.0898
38.3214
92.5835
94.0717
45.5023
44.894
93.2162
85.0519
89.4743
94.0562
86.6007
92.5001
88.4922
91.2616
40.5383
84.8586
92.9124
20.215
92.2976
93.2285
51.58
90.6774
93.0244
85.012
87.7918
92.3493
88.1068
85.7845
92.3786
93.9213
92.1279
93.2419
94.0129
91.8139
92.243
92.2472
93.2243
94.0407
87.9388
92.1461
86.356
55.7126
94.1043
93.2128
93.5368
94.0213
93.6313
53.0552
94.0394
94.1447
90.0994
48.2168
85.3769
92.071
91.0224
94.092
93.2171
93.2873
94.0312
94.1126
89.8841
93.1046
92.0335
87.0885
47.1526
85.493
94.2931
85.9103
85.3358
92.2792
90.5294
93.2587
94.0537
93.1516
86.0716
92.0626
87.1693
86.8253
40.3503
94.2456
94.3063
88.8682
52.4019
70.4147
90.9161
89.5969
93.2219
94.0279
94.2317
88.098
44.7096
87.0114
94.0522
91.2242
94.121
94.0779
85.4279
93.0351
93.2712
87.3811
92.4369
55.8261
90.765
84.856
93.0297
93.1387
92.3692
91.8035
93.738
90.272
85.2119
94.2723
94.2505
93.2811
88.4499
89.0877
54.9284
85.9929
43.3708
94.0338
91.2575
87.5319
91.1257
94.2937
87.2802
92.0081
94.2936
88.2667
92.2146
93.0241
93.1916
94.103
49.9327
93.2619
94.0151
87.0266
85.6285
93.2429
95.2075
88.0257
93.0514
94.0039
94.0335
91.8748
93.1106
92.6608
91.7854
94.2516
91.8091
93.1621
48.9306
91.3916
79.601
94.2834
63.4393
93.1
94.288
94.2919
54.4697
92.6784
91.2623
94.0542
93.2472
91.0261
62.7219
93.8851
90.4698
50.6576
92.7892
48.4368
94.2959
89.3072
93.7005
92.6212
94.0839
94.006
93.9219
23.5451
90.2235
91.7209
51.0679
91.4827
90.2128
51.0885
88.0025
90.7511
91.8016
58.3034
94.2599
88.3915
85.7238
91.4521
91.8618
91.8943
94.0483
94.2834
66.7575
94.3032
93.1724
87.967
92.245
92.1501
50.2386
91.224
37.4306
94.2928
92.3563
87.5615
42.2554
91.7205
91.7728
90.6365
93.5285
70.9004
92.1844
94.07
91.6292
94.2818
91.8514
45.6849
67.7914
89.328
91.9829
68.9328
35.5807
87.9257
87.9939
91.6973
92.2863
72.1472
92.339
88.6998
88.3542
94.207
94.2968
93.0166
48.5792
88.9871
90.5944
87.5622
89.4021
61.2644
92.6127
93.2049
87.3003
50.9537
94.2742
94.3014
87.9987
92.6911
94.268
40.8643
79.3884
91.6856
92.0965
51.276
93.7193
94.3022
92.159
75.0398
92.8443
59.422
60.5434
89.5075
91.5445
92.1547
93.9081
94.3102
58.2685
90.2239
53.9997
84.2067
88.0011
92.3955
93.6561
92.5909
87.9516
93.5669
94.2687
85.3159
92.5095
83.7168
46.8536
93.1336
91.9442
92.7099
88.0803
93.5982
72.3392
91.9079
50.2868
92.2104
91.5755
87.3155
93.7566
93.1646
94.1435
93.08
89.4064
94.2659
92.7915
91.3466
92.5236
92.3472
84.9032
93.9171
94.1263
57.9143
92.5078
86.5979
91.9939
94.1969
91.2759
32.0865
92.4607
88.2383
91.9655
93.7334
92.4083
92.3221
91.6166
92.0667
57.1818
94.2923
85.9751
91.8417
92.3864
85.1674
94.2982
93.1132
92.624
77.0019
91.8501
56.0965
93.2213
93.0353
79.565
91.9363
91.9877
88.7655
93.8717
52.1537
85.2689
93.2822
90.9665
91.6102
93.8697
91.058
91.7249
93.4417
41.3343
36.5767
50.2907
92.379
84.7037
91.9658
86.0232
94.2486
91.6104
40.7455
92.2487
11.2713
92.5982
85.4838
56.8712
88.3251
56.2859
93.4457
92.7584
50.1999
91.1136
94.2594
92.3559
46.2874
92.9403
91.0815
93.5772
92.054
12.0274
92.6216
93.1182
91.9506
91.641
93.3785
94.2921
93.0743
93.1184
94.2675
74.1719
94.0328
93.0572
93.3909
91.9386
91.7304
89.0369
92.7845
82.2079
92.6568
94.0485
93.2459
90.9232
93.7785
94.2886
93.1514
88.7885
92.566
93.1725
92.7567
92.2568
91.7993
91.5337
93.4489
91.107
93.248
92.572
93.1091
93.5571
91.2114
93.3089
88.4343
90.8193
89.1575
92.3019
30.1258
92.3206
92.3594
92.3991
92.1533
92.1349
92.4274
92.2616
92.7811
92.6977
92.7357
90.5332
47.7888
91.5332
91.3555
91.3481
91.0973
91.0244
91.2181
86.4909
85.0993
85.4855
93.1396
94.1107
89.0557
94.1277
94.0936
84.8858
52.8848
88.4438
89.3578
84.7833
93.1814
52.9287
94.0862
89.1703
93.0945
91.1943
52.6021
93.0582
49.6248
94.0443
94.0336
91.8419
85.0396
49.1569
48.8269
92.8937
93.1822
90.9038
94.0221
85.2865
90.9684
48.47
93.9372
91.0949
85.4604
91.1812
91.1074
90.5238
93.0861
46.9975
93.976
91.2847
93.1024
86.4887
90.6499
91.9612
45.1162
93.9603
89.8661
92.1831
93.2286
89.535
92.3197
45.2663
49.5842
91.8008
93.9008
93.9766
88.2595
93.1616
88.6293
90.6594
91.9294
92.1023
94.301
92.1235
93.1145
88.1064
47.8095
86.7386
93.9111
88.9585
94.2713
93.1588
94.2558
44.1568
91.5913
90.3599
93.9871
93.8027
93.9819
93.3539
89.8876
92.8664
92.3879
93.8337
92.2864
93.0867
88.5463
93.0808
92.8029
92.1035
93.9505
90.0644
94.0664
93.7303
81.6245
93.0793
92.4713
92.8579
92.5618
92.4669
93.1725
93.2033
88.8103
94.255
92.397
87.2817
54.2934
92.5451
47.3473
83.8435
93.3335
38.2967
93.3641
93.599
94.2859
92.3487
92.9029
93.4464
71.2916
92.7182
93.8551
93.5448
90.3322
94.2665
90.6943
92.3698
92.2725
93.3232
77.7719
87.7265
90.4235
89.6022
92.3834
88.5742
93.8296
93.3343
88.3305
92.3375
90.1147
93.5907
93.3689
92.778
93.0642
87.0008
92.9505
89.7453
50.7333
71.658
93.1814
93.0604
93.899
85.2315
91.3462
20.9698
86.1386
94.2413
91.5425
94.2603
93.2351
93.5303
92.5708
91.3557
91.667
45.7381
94.2925
92.2798
92.5801
93.1982
93.3077
93.7819
93.1731
93.1742
87.0137
92.9239
87.4954
82.477
94.2181
93.2419
94.1242
94.0645
92.7522
93.6003
89.2277
40.8334
94.2815
90.8928
93.8234
91.5831
82.41
94.2858
92.7493
90.6461
93.1505
87.9705
92.2601
35.5763
92.3513
92.1998
91.9185
90.4293
87.5922
91.9571
92.3995
92.6739
82.6321
92.348
56.6431
68.619
92.9328
93.1701
93.4626
92.6569
90.8369
91.529
92.3732
93.8862
92.0624
93.4602
93.6764
39.9462
92.9371
92.1579
87.0916
34.7011
84.898
88.9538
94.2048
94.1512
93.4417
92.3241
43.7929
93.2312
89.6276
92.5052
91.0822
91.0429
95.1014
91.2165
91.646
92.1935
94.9527
94.548
92.4312
91.5339
87.2859
94.402
79.5068
94.2964
91.2172
93.2503
94.7507
92.4033
27.8037
90.5919
93.2147
93.5298
92.6817
91.4154
93.3991
87.1467
92.746
92.5311
93.2491
92.5529
90.8847
94.3202
91.4347
92.1981
87.791
49.9837
93.251
93.1865
94.3618
90.4545
93.0964
57.394
55.7421
93.2023
90.3971
92.366
94.2854
91.8045
92.0649
92.7136
89.1493
45.6846
94.2587
90.8536
91.542
94.2784
89.0314
92.5267
93.1816
84.7794
92.275
91.2417
94.0824
93.0451
94.1486
94.2999
94.0611
10.0349
90.7167
92.8541
91.3398
91.2861
93.1367
33.9139
91.2678
93.4587
94.1257
88.3516
92.4791
94.0479
94.0763
93.1164
94.2798
92.9511
87.7637
90.1438
92.9642
92.1045
93.5494
94.2958
93.8179
92.8509
90.1852
91.8633
93.1758
93.3886
93.0221
95.1073
50.6325
90.4411
93.2468
90.5632
93.3538
90.8062
91.0851
92.1356
92.6648
91.184
94.3207
94.247
88.3879
94.2499
93.0519
91.762
84.7982
88.5943
92.2703
92.4993
17.5086
91.4794
92.3173
93.583
90.1461
53.0416
94.2997
93.9053
45.6298
92.6193
52.8553
92.2838
89.5689
92.6692
91.5077
91.6306
87.679
93.7977
92.9717
94.8788
90.6924
92.6859
86.8463
89.8546
93.9943
92.5443
86.0274
44.8613
91.177
93.0553
53.9438
87.1755
92.2002
93.2954
93.8196
93.1691
93.1378
93.1394
91.5387
93.4673
67.3656
93.1365
55.0084
94.1194
76.5348
92.5451
86.5056
93.1906
94.0465
89.6931
93.2113
94.2991
95.1109
90.5645
93.2399
93.8249
92.3969
93.534
93.5602
92.9227
93.1346
92.7458
94.0019
52.1639
92.9608
92.7091
52.4786
92.6883
90.3399
85.0412
91.5553
94.1148
93.8279
92.7328
91.0473
47.7568
94.2438
91.6838
37.1835
58.1755
50.19
36.2476
62.6295
92.186
91.8666
91.6214
91.6819
56.6315
92.5634
88.6804
90.7012
89.7389
88.0094
67.7801
49.5953
87.7426
76.3649
72.1045
88.0842
92.6173
92.2944
88.5517
91.9196
91.7208
88.5704
91.6744
92.6134
76.7257
93.1774
92.3817
92.878
85.2133
86.0602
40.0167
92.4446
83.4528
84.7009
89.3621
93.7996
53.6326
87.0037
90.5512
76.7035
90.2994
92.7528
85.9438
94.3054
52.1601
89.1724
91.7868
92.2294
93.0234
94.2055
94.0501
49.815
91.6689
85.0746
92.9183
92.5532
93.5444
93.1976
57.7711
92.9468
94.0349
91.3076
94.2677
93.4933
93.2187
86.1251
92.2693
93.4893
93.0973
85.3117
89.1011
93.3071
94.0174
47.9469
93.217
93.3825
90.6715
92.3749
85.1254
94.2873
91.4575
87.5993
94.3007
93.6024
87.7316
42.8038
91.5365
85.6301
92.1114
92.206
94.1065
28.4698
93.0537
91.5642
94.0096
41.12
93.0839
81.5744
94.0669
93.9302
94.2668
87.3393
92.0807
93.3333
87.9816
59.4786
37.09
91.7868
92.8561
94.2765
88.8905
86.056
92.48
87.5667
88.0389
92.7054
90.0686
92.295
39.71
92.8058
94.2509
93.1219
87.1907
92.4837
87.6523
91.5088
92.9071
93.144
93.171
91.8627
92.8836
92.9957
28.0218
19.1704
94.1
92.3043
83.2145
94.2982
93.0955
51.2609
86.5655
91.8785
88.1478
70.0445
49.4826
94.2637
85.8663
91.9648
92.8761
82.2404
50.6289
92.5458
92.6604
94.304
50.9363
94.3073
92.0876
93.8412
8.21335
92.7435
42.1764
58.2148
92.468
92.3658
92.8928
94.3023
93.2241
94.298
94.2776
94.2813
93.2257
92.7356
91.9201
92.3271
92.4915
64.0044
93.2529
90.0575
92.7149
54.1434
93.0498
53.3142
92.6844
93.0908
55.0021
90.9577
69.1842
65.2521
61.423
51.8937
51.9624
51.2398
57.6809
52.1548
94.3232
94.2972
94.2935
94.3155
94.3001
94.2803
93.2735
86.4706
92.4304
89.3958
92.379
86.6862
94.2784
92.3591
93.2055
94.1175
93.6841
94.0065
91.9171
94.5591
94.2979
89.3972
87.8742
93.0861
92.3517
92.7272
92.4147
79.2999
94.2772
92.5244
46.8663
92.3088
91.2261
89.3585
93.0302
93.1006
93.518
35.0235
93.137
92.7263
94.2948
87.3445
94.2464
87.5242
84.8582
89.9828
94.3065
85.7647
91.1871
91.6671
91.9348
92.498
93.1323
86.5404
93.8385
17.6948
93.2463
44.2742
8.5595
94.3067
49.186
85.6034
90.4351
90.0424
43.5101
94.3031
92.8351
93.6176
73.9139
92.592
87.0421
91.786
87.0987
94.0079
92.5697
94.1892
93.5271
60.3998
40.1793
18.2894
88.252
89.5348
93.7407
92.4829
94.2311
91.065
89.5868
85.6777
92.9114
49.7453
93.2206
94.0053
42.115
93.2921
84.9193
92.8298
94.0231
92.8962
82.1202
65.3775
92.5226
93.1947
88.9956
92.9789
47.5279
92.3992
48.2154
94.0459
90.8134
87.085
38.5582
83.7235
93.1638
92.5272
92.6315
94.2971
54.5386
88.0135
89.7801
85.969
86.0004
91.3826
92.7374
94.27
87.768
90.696
53.8067
85.4115
93.2048
93.2274
85.6445
94.2734
91.1164
94.2958
89.8262
87.5758
92.7706
47.2337
92.9815
93.3889
93.3633
89.6274
94.2884
86.6505
91.3555
92.493
77.9228
92.6875
29.7002
91.6855
94.3995
92.0642
62.8553
91.79
94.1244
93.6549
93.1417
92.6673
93.207
92.3587
93.6773
96.4856
86.3648
93.6226
85.5768
94.2561
92.1288
55.9555
92.7916
58.3899
92.3728
93.0528
92.483
93.4025
85.7153
88.5921
92.2816
85.1802
94.2657
92.5132
38.123
92.4245
92.7309
93.1635
89.4017
87.3388
92.2783
91.284
73.4888
92.5602
92.3459
50.4807
86.0518
93.1959
92.8573
93.489
90.4683
91.8922
91.7733
80.3164
88.0457
87.9756
86.1165
87.7983
92.3117
52.2607
93.6974
91.8188
85.1797
93.0775
57.8275
87.7364
92.5168
88.5343
55.4137
93.297
89.597
93.2091
39.0953
91.9592
92.8102
93.0276
89.3081
43.6894
94.4933
53.3644
94.2304
94.2398
94.303
55.0813
94.303
36.8263
75.0591
93.0711
92.5111
88.2026
49.5421
92.2453
17.7122
94.3287
91.6913
94.5476
92.4071
87.8938
65.7915
94.3057
93.9155
44.4438
58.1755
92.0351
87.673
94.307
51.4254
94.2731
86.1638
89.4194
55.9641
94.1274
94.2889
93.2583
91.7654
86.0465
91.8983
87.2124
94.2882
94.2503
59.146
55.4213
94.242
91.4111
87.3652
92.9377
91.3109
91.9062
84.9439
92.405
94.2885
89.0612
88.5117
92.2534
65.9531
92.0938
94.2864
92.2161
75.9628
94.2852
94.2601
92.7173
85.7997
94.2517
87.5631
89.1125
92.235
94.2932
94.2798
62.0225
51.3472
87.7066
94.1543
94.2555
89.9148
93.2089
92.7205
93.1124
93.0412
89.4627
89.7703
88.782
94.277
58.8183
92.2936
80.3856
93.1454
86.7013
48.6701
92.9552
94.2828
85.7356
89.7396
90.2295
38.3521
93.23
93.3249
92.3418
93.6163
93.9993
94.0847
94.0677
93.6994
94.2471
22.3407
57.2527
86.3056
103.392
85.8823
87.4232
87.2451
93.9527
99.4168
90.1922
91.4221
95.8228
99.5196
90.0464
93.2449
86.8793
90.2134
90.6822
89.026
)
;

boundaryField
{
    frontAndBack
    {
        type            empty;
    }
    wallOuter
    {
        type            zeroGradient;
    }
    inlet
    {
        type            zeroGradient;
    }
    outlet
    {
        type            fixedValue;
        value           uniform 0;
    }
    wallInner
    {
        type            zeroGradient;
    }
    procBoundary3to1
    {
        type            processor;
        value           nonuniform List<scalar> 
48
(
92.521
92.2685
92.3647
92.1502
92.0216
90.2556
92.2685
92.4325
92.2947
88.8963
88.8963
90.3835
90.3835
89.3355
89.2386
91.7251
91.6192
91.8858
91.6192
90.7554
90.4065
91.3794
90.7554
90.8653
89.0313
90.9107
92.0791
91.3794
92.2329
91.2148
91.2148
92.3799
92.3799
92.2947
90.8031
92.0424
92.3162
89.0313
92.5851
92.1458
89.3355
92.3275
92.2928
90.7554
89.2659
92.599
91.7283
89.7749
)
;
    }
    procBoundary3to2
    {
        type            processor;
        value           nonuniform List<scalar> 
29
(
92.9148
92.9148
94.1652
94.1423
90.4363
93.0752
94.3184
92.8481
94.1394
94.1275
92.9851
90.0393
92.8967
94.3133
94.3121
94.3094
94.1415
94.1322
92.8547
94.312
94.3058
94.1415
94.332
94.1322
94.3197
94.1393
94.1322
89.5942
89.5942
)
;
    }
}


// ************************************************************************* //
