/*--------------------------------*- C++ -*----------------------------------*\
| =========                 |                                                 |
| \\      /  F ield         | OpenFOAM: The Open Source CFD Toolbox           |
|  \\    /   O peration     | Version:  v1912                                 |
|   \\  /    A nd           | Website:  www.openfoam.com                      |
|    \\/     M anipulation  |                                                 |
\*---------------------------------------------------------------------------*/
FoamFile
{
    version     2.0;
    format      ascii;
    class       volScalarField;
    location    "0.78";
    object      k;
}
// * * * * * * * * * * * * * * * * * * * * * * * * * * * * * * * * * * * * * //

dimensions      [0 2 -2 0 0 0 0];


internalField   nonuniform List<scalar> 
1466
(
0.1965
0.918602
0.328158
2.11416
0.289296
0.76325
0.246641
0.93739
0.278124
1.12349
1.43748
1.07653
0.216965
0.256271
1.29011
2.43442
0.681815
1.05567
2.45602
1.60936
2.62995
2.51171
1.88432
1.40285
0.248062
0.623384
1.6177
2.01191
0.195406
1.43231
1.7075
0.687543
0.352999
3.26051
2.00629
1.03869
3.3853
0.740015
1.40933
0.146985
0.152333
1.18661
1.31329
0.150648
0.132265
0.430641
1.28847
0.16891
0.921398
0.187645
0.451209
0.935752
0.733642
0.209259
0.306184
0.276446
0.262872
1.23559
0.233545
1.13839
1.07352
0.25982
0.198818
1.0762
2.28265
0.917356
3.83333
1.52183
0.867523
0.293168
2.13763
1.35405
0.951513
0.264112
0.767874
1.47482
0.249633
0.187851
0.578828
1.71208
1.39406
2.14747
0.325411
1.69945
2.42396
2.98087
2.77809
1.61114
1.36977
1.16221
0.804649
1.57738
2.5296
0.174575
0.629401
0.316635
0.849179
1.19921
0.280946
0.222219
0.613413
0.333921
0.152697
1.21731
1.52726
1.1527
0.780466
0.187852
1.31595
0.214672
0.94962
1.78331
0.242783
1.17885
1.00414
1.20444
1.33511
0.898265
0.216346
0.177914
2.68705
0.231779
0.236013
0.170302
0.151436
1.08836
1.11524
1.87994
1.39078
1.27732
1.22639
1.11322
1.75499
1.32719
0.890905
0.154735
0.150387
0.467899
0.170178
0.159168
0.224161
2.24063
1.98124
1.9225
2.69303
3.69795
0.692308
1.02306
1.58995
1.82053
0.893907
1.12873
1.00139
0.411495
1.46489
2.46568
1.80902
2.39659
0.763963
1.06957
0.672073
1.45835
1.46673
2.13643
2.96125
1.85277
1.74868
2.17068
2.39321
1.21136
2.59335
0.520225
0.173911
0.912053
0.5855
0.268947
1.25436
1.67224
0.865534
2.19804
0.285443
1.10593
2.84397
0.149024
1.61112
3.09048
2.51399
1.20313
0.887807
0.796942
2.80029
1.14286
2.39056
4.03063
0.973959
1.07724
0.24412
2.42547
2.88727
4.08588
1.70955
1.43222
1.27105
1.48767
1.86924
2.83397
3.06872
0.834332
0.761297
1.54376
2.20354
2.19384
2.5572
2.38732
2.80688
2.11041
3.1581
2.5858
1.43631
1.60573
2.0605
1.23878
2.19798
1.2332
2.29215
2.25105
2.16263
0.21808
0.875283
1.20799
1.58862
1.67133
4.33848
4.15346
0.697692
2.49595
1.89029
2.068
1.03951
2.74396
1.13465
1.66371
1.13758
4.18006
0.872992
1.33963
0.667061
0.262119
1.76836
1.01908
3.03505
2.48677
0.765171
1.49159
0.524971
0.995793
1.68191
0.374846
1.32982
1.65537
1.12418
1.67022
1.29382
1.19072
1.6283
0.147454
0.642414
1.53159
2.45984
0.397149
1.73008
1.49352
0.819759
0.766403
0.845477
1.37685
1.05271
1.70224
2.51905
1.64068
1.12814
2.2776
2.14891
1.48696
2.79389
0.188475
1.70582
1.66282
0.330576
0.617427
0.660165
0.156335
0.253289
0.382116
1.33205
0.659079
2.00236
0.24198
1.68205
1.10097
0.257469
1.59575
0.169868
0.279601
2.35725
1.43597
0.572322
0.322445
1.11753
3.49125
0.873904
2.57757
1.62874
1.33213
1.54207
1.30564
3.54126
1.01117
0.28894
1.37216
0.618399
1.70039
1.39998
1.01826
2.51102
0.535634
0.211222
1.02739
0.91279
1.32638
1.79028
0.570591
0.431904
1.10845
2.44827
0.392638
2.61359
1.02101
0.841538
0.232276
0.347624
0.90379
0.575482
1.69036
1.2937
0.173684
1.42353
1.17025
0.94939
2.33763
0.782674
0.36437
1.61999
3.22499
3.2218
3.11137
1.68535
0.383095
0.303114
1.16328
3.22165
2.75546
2.03541
2.02562
0.354904
4.48611
0.803742
0.772093
0.98041
1.22035
1.06945
3.30975
1.32728
0.997109
0.49058
3.57529
1.54599
1.34575
0.180973
1.55659
2.30473
2.18914
2.56453
2.78089
2.58032
2.40255
0.513809
0.463937
0.278155
0.236928
1.27729
2.35961
1.80225
2.29849
1.05285
0.433838
0.21864
1.35349
0.950303
0.2375
0.171886
0.162757
1.48001
0.194371
1.26747
3.70997
1.61435
1.00779
3.77968
3.5548
1.18558
1.82999
2.09661
3.73127
1.66863
0.223403
0.211514
1.32543
1.46488
0.395929
3.03862
3.20372
0.440513
2.06579
0.376491
0.224242
2.28478
1.30472
0.329535
0.236834
2.03441
0.646709
1.36815
2.06763
1.3196
0.194475
0.309711
0.258257
0.27532
1.96355
0.291924
0.528758
2.01028
0.45733
1.31353
0.266284
0.606216
1.39484
0.220257
1.93994
1.42541
0.181838
0.415999
0.326501
1.77851
0.504463
0.351989
0.75635
0.455598
1.38371
0.295911
1.21248
0.381387
1.01083
1.80579
0.180264
2.2077
1.09319
0.886108
2.02769
0.966545
0.63147
1.97148
0.201084
1.40559
0.18791
0.521602
2.36893
4.17103
2.24338
1.14981
1.95535
2.18412
3.89434
3.2366
0.715006
0.229925
0.693771
3.69685
2.19
3.59312
1.93877
0.577216
2.37966
1.41063
2.82315
3.51391
2.72983
1.33359
2.30727
2.97336
3.30573
1.25542
2.74404
0.455671
2.77222
1.60287
1.52275
0.229482
3.26279
1.30119
2.84775
1.70591
1.79795
3.569
2.19958
1.4942
0.306934
0.534276
0.79019
3.10496
0.972504
4.24315
0.842288
2.53152
1.67398
1.19707
1.89918
1.85197
3.64602
0.527099
1.97163
3.62947
2.70609
3.03953
1.33556
0.989043
1.74534
1.65498
2.14551
0.673496
2.93909
0.604737
1.59397
2.02719
0.946485
2.19158
0.702933
3.66923
1.49389
3.02591
0.350249
1.09049
2.88614
1.87789
3.42943
3.32759
1.97718
1.15388
0.544721
3.48697
3.61475
1.23373
1.11161
0.441887
1.36
2.55104
4.19139
1.80742
3.56219
2.6209
4.15353
1.17246
1.53948
0.898843
2.85837
0.365798
3.52272
3.1703
1.88512
1.80681
3.53895
3.43774
2.51354
2.31309
1.50959
2.73704
0.314702
2.92212
1.50927
2.72222
0.800153
2.55416
3.32699
3.18183
2.0818
1.9186
1.40999
1.12814
2.14829
1.29869
0.451857
0.446065
0.945992
4.73807
2.78159
1.35658
0.199039
1.65615
3.11764
0.872639
2.34375
0.695573
0.990699
2.11341
0.979227
1.5209
0.834848
0.708862
2.78225
0.901652
0.223762
1.25873
0.567918
0.885036
3.20966
2.19582
2.80414
3.20915
3.60263
2.75805
0.690626
0.735193
0.479036
3.4571
0.406811
2.66786
2.41358
1.60989
2.08094
3.82026
1.75544
1.47826
1.28754
3.48129
0.452729
2.79671
3.5842
1.45018
0.865486
3.40518
0.345857
1.23161
0.277963
4.16388
3.38492
0.495828
1.81749
0.93835
0.249132
4.3193
1.80533
0.280654
0.461851
3.74913
1.15845
1.90311
1.41311
1.61522
0.29659
0.37011
0.987652
2.19509
0.307939
1.88186
0.262985
1.66855
0.393946
0.344943
0.588708
2.02831
0.436701
0.565842
4.05968
0.36003
3.37567
0.455632
0.207839
1.53656
0.25359
3.98307
0.570124
0.512913
1.33677
0.387839
0.201645
1.27047
2.89029
0.472074
2.36163
3.51615
0.430184
0.225298
0.916761
2.9106
2.54889
1.24143
0.40342
0.205634
2.64026
1.05262
3.2779
0.148206
1.63432
3.87279
2.13962
1.02731
2.84087
3.20728
1.62192
1.2985
3.12324
4.05668
1.37943
1.98232
3.46989
2.04167
1.482
1.20535
0.188283
2.68605
1.82965
2.80756
0.231495
3.54835
2.50576
1.22715
2.62011
0.177331
3.48219
3.49533
1.83065
3.39058
0.181202
0.250446
0.353931
0.525287
0.323941
1.32436
1.2289
2.02542
1.98357
0.624547
0.245338
2.17559
2.89775
3.19051
2.1249
0.443043
2.15304
2.31339
0.43191
1.46608
1.49503
4.34399
1.27395
1.94478
2.25479
2.25451
2.9728
1.27522
0.744864
0.163589
0.25795
2.42965
2.70522
1.32911
0.327004
1.81904
1.83649
1.79439
0.686171
2.13483
0.903319
3.62823
0.232957
1.69047
3.62054
2.82371
1.20131
1.92784
3.74924
2.55649
0.526293
1.25353
0.499528
3.31662
1.45722
0.391088
1.22493
0.493398
2.37227
3.3058
0.439072
0.877909
0.186288
0.228017
0.419674
2.50541
2.17076
1.2681
1.87723
1.86541
1.31626
1.63128
0.442441
2.3291
2.03882
0.851256
2.81688
1.888
3.02772
0.771582
1.7037
0.197808
0.384632
2.28567
0.412678
0.534846
1.80752
1.75044
2.32827
0.997288
3.94386
0.381197
1.02386
0.752546
0.289649
0.681367
0.854695
1.18835
3.45692
3.44773
0.263762
3.20125
1.33979
0.540511
3.11377
1.08921
1.86716
3.02697
1.36711
2.1211
2.56389
1.3529
1.21733
1.54236
0.822296
1.66682
2.15215
3.9381
3.44338
0.319372
1.21641
0.639969
0.76822
2.14377
2.45072
1.28785
3.03115
1.67011
0.461475
2.34795
0.774441
4.37155
1.22308
3.48589
1.07
1.10427
1.02947
1.12713
1.10509
1.18014
1.08145
1.5557
1.54348
1.64635
1.57963
1.52472
1.49
1.50684
1.44512
1.74399
1.1655
1.31495
1.81001
1.79554
1.5021
1.6528
1.45406
1.43921
1.42261
0.990673
1.79501
0.223057
0.210817
2.61097
0.658077
0.533975
0.539857
0.276879
1.23422
3.52935
1.79887
3.50147
0.931137
0.507911
0.404379
1.79548
0.89065
2.51967
1.31386
2.17242
1.32263
1.16508
4.10578
2.62836
1.38216
0.225869
0.236548
0.291066
0.224425
0.270094
0.9922
1.61699
2.43194
2.89088
0.241937
0.238537
0.382797
0.461627
0.782359
0.640466
3.14351
0.279413
0.202752
1.2936
1.10132
0.970431
0.489664
2.05331
1.43005
1.73576
2.80491
1.85986
2.73427
0.583171
1.94836
2.99579
1.38453
4.05053
0.791566
1.30305
0.555467
1.81261
2.9744
0.170495
1.54113
1.55576
2.65813
0.19984
2.60612
2.65247
2.56371
1.20461
0.805227
1.469
2.15097
0.73885
0.798558
0.173716
1.98801
2.79062
3.54574
0.526814
1.34066
3.50581
1.05762
3.3728
1.5799
0.534235
0.22698
1.58597
1.43516
3.10464
4.82004
1.66589
2.67854
0.215423
0.574361
1.98358
1.87232
3.32129
0.409141
0.857802
0.309433
0.215575
0.208703
1.51918
0.254392
0.846559
2.58954
0.403172
0.190425
1.89888
0.330651
2.72134
1.17293
1.12257
3.44599
1.02131
1.55888
3.18202
1.98605
2.7542
1.15277
0.898492
2.0288
1.4782
0.156151
0.308455
2.96198
1.5422
0.565602
0.871765
2.38275
1.36539
0.733599
2.47801
0.25903
1.55842
0.614736
0.23406
0.221911
0.571697
0.460644
0.784746
0.290508
1.0311
3.82939
0.211142
0.35013
0.622498
2.11478
0.645496
0.301108
1.26303
3.15483
0.927902
0.632494
0.619932
0.280674
0.491251
0.593155
0.440654
2.92817
0.987682
0.209376
0.305908
0.0799503
2.1908
1.59921
0.257893
0.540951
0.279301
0.298396
0.271954
0.276199
0.286042
0.22439
0.495774
0.258216
1.3042
0.247968
0.263999
0.255627
0.252693
0.681359
0.720582
0.254476
0.272233
0.290683
0.290959
0.822182
3.63896
2.30466
1.26695
1.1732
2.44436
3.64165
1.31608
1.2111
0.93311
1.64066
0.340599
0.205748
0.290055
2.84367
1.57127
3.89914
1.91904
0.213285
3.29487
1.10364
1.48646
0.612628
1.99108
1.7253
3.02229
0.578057
2.30934
1.52986
2.01924
0.914789
1.26891
0.260879
0.568435
0.938394
1.49983
1.48331
1.38077
1.58791
1.72998
0.207801
1.94976
0.944315
1.33033
2.34569
2.69841
3.71114
3.50857
0.399388
0.231737
1.33295
1.57168
1.50715
1.02818
1.20558
0.452543
1.18837
3.50569
0.756468
0.825075
3.03437
0.516653
0.286598
0.76574
1.55961
1.27972
3.37519
0.546995
1.89378
1.2256
0.920971
2.29877
4.34963
1.01728
3.3849
2.79461
0.189688
0.326339
1.16903
2.43908
0.267358
0.27484
3.06177
1.54957
2.98121
3.24001
3.80322
4.42503
0.82302
1.22108
1.95988
1.80133
1.72608
3.24244
0.475471
1.1184
1.61388
2.13413
0.440169
3.47218
1.6035
0.357691
1.40243
1.27377
0.538145
0.760415
0.717415
1.48873
0.537916
0.896799
1.09692
1.02853
1.27366
5.06806
0.267438
0.617675
1.00407
0.480702
0.509643
1.40911
0.225618
0.266323
0.253083
1.55196
0.8157
2.00808
3.41092
3.23665
0.328825
1.49977
0.259194
2.97263
1.27231
0.24963
1.91395
1.3203
3.10445
3.01527
1.71964
1.68642
1.31474
0.324884
0.60515
3.12182
0.573209
0.260933
1.56274
0.27839
3.40558
0.703583
1.76461
0.548465
3.01313
1.77999
0.182946
3.45481
0.888859
0.262034
3.0838
2.35223
1.18846
1.58735
0.937409
3.68812
1.14346
2.41759
0.589352
1.21472
1.32556
2.52077
1.74482
3.94559
4.38262
1.34427
1.89919
1.84202
2.75146
0.249503
1.03299
1.45899
0.239963
3.65737
0.636819
1.60741
3.30228
0.419326
2.91777
1.47398
0.254872
1.14156
1.26105
0.370754
0.854787
0.539013
1.77242
0.73467
4.94254
3.53644
2.09924
1.3689
0.581224
0.284646
1.03456
1.08813
2.09761
0.846914
1.84223
2.0453
3.3925
2.01008
1.32115
3.35019
0.257118
1.58961
2.95328
2.42773
0.608307
0.324605
0.847503
0.235164
0.194599
0.350514
1.23227
2.95624
0.312779
0.222871
1.51217
0.442721
1.61856
3.37744
2.6929
0.180979
1.78538
0.447728
0.259379
0.237105
0.29169
0.54185
4.65999
0.212383
3.22205
1.82446
0.805167
0.310757
0.176829
3.06395
0.263252
0.665547
1.41209
0.686734
3.00805
1.14862
2.17338
1.48395
1.23116
0.850722
0.906386
0.851255
0.949496
1.06539
2.65989
0.170075
1.54583
1.63532
1.12007
1.5194
1.38523
3.38314
0.82753
1.33234
0.550349
1.34547
3.28447
1.1524
0.353009
0.138983
0.243096
0.648607
2.35209
1.59864
1.60485
1.68025
1.31793
0.778719
3.51524
1.94962
1.85177
1.53751
0.419072
2.14406
3.58701
0.338024
0.993757
2.28988
0.701897
3.04108
0.991153
1.56073
2.78243
1.65764
2.47408
2.35469
1.81456
2.38829
0.526605
0.288097
0.572371
0.267701
1.24741
0.601283
2.06379
1.23486
1.72255
1.3671
2.87365
1.85301
2.8963
0.594152
3.33635
3.5162
0.306452
0.288983
3.16
1.19277
0.425277
0.462177
1.56749
1.13542
2.78478
1.30779
0.880468
0.58825
0.293376
1.67447
1.84772
1.50082
0.846075
1.90731
1.34375
0.70415
1.66977
0.279479
0.196333
1.27563
1.36462
0.258709
0.144369
0.747652
0.319378
1.11154
1.70523
0.61512
0.33609
0.955347
2.09035
1.07166
0.990931
0.623521
1.20807
0.292163
0.269975
0.274764
0.14781
0.319581
0.138078
1.47866
0.181861
0.153798
1.58147
0.287102
1.00414
0.625641
0.780567
)
;

boundaryField
{
    frontAndBack
    {
        type            empty;
    }
    wallOuter
    {
        type            kqRWallFunction;
        value           nonuniform List<scalar> 
108
(
1.05567
1.35405
0.951513
0.169868
0.173684
0.36003
0.455632
0.207839
0.25359
0.387839
0.201645
0.472074
0.430184
0.225298
0.205634
0.188283
1.22715
0.525287
0.323941
0.327004
0.228017
1.2681
0.289649
0.540511
1.07
1.10427
1.02947
1.12713
1.10509
1.18014
1.08145
1.5557
1.54348
1.64635
1.57963
1.52472
1.49
1.50684
1.44512
1.74399
1.1655
1.31495
1.81001
1.79554
1.5021
1.6528
1.45406
1.43921
1.42261
0.990673
0.210817
0.507911
1.38216
0.224425
1.10132
1.30305
0.555467
1.34066
0.857802
0.190425
1.02131
1.15277
0.898492
0.614736
0.571697
0.290508
0.645496
0.491251
0.593155
0.987682
0.0799503
0.0799503
0.257893
0.279301
0.276199
0.286042
1.3042
0.247968
0.263999
0.255627
0.252693
0.681359
0.720582
0.254476
0.272233
0.290683
0.290959
0.822182
1.2111
0.93311
0.213285
0.612628
0.914789
1.26891
0.756468
0.825075
1.2256
0.920971
0.8157
0.239963
1.03456
0.846914
0.222871
0.447728
0.212383
0.138983
0.243096
1.31793
)
;
    }
    inlet
    {
        type            fixedValue;
        value           nonuniform 0();
    }
    outlet
    {
        type            zeroGradient;
    }
    wallInner
    {
        type            kqRWallFunction;
        value           nonuniform List<scalar> 
126
(
0.740015
1.40933
0.146985
0.152333
1.18661
1.31329
0.150648
0.132265
0.430641
1.28847
0.16891
0.921398
0.187645
0.451209
0.935752
0.733642
0.209259
0.306184
0.276446
0.262872
1.23559
0.233545
1.13839
0.578828
0.316635
0.849179
1.19921
0.280946
0.222219
0.613413
0.333921
0.152697
1.21731
1.52726
1.1527
0.780466
0.187852
1.31595
0.214672
1.17885
1.00414
0.170302
0.151436
1.22639
1.11322
0.154735
0.150387
0.467899
0.224161
1.46673
0.5855
0.24412
1.32982
1.65537
1.12418
0.147454
0.642414
1.73008
1.49352
0.819759
0.156335
0.382116
0.659079
2.00236
0.618399
1.70039
1.39998
0.383095
0.98041
1.32728
1.34575
1.35349
0.2375
1.30472
1.36815
2.06763
0.194475
0.258257
0.528758
0.415999
0.504463
0.455598
1.79795
1.97163
1.87789
2.19582
1.81749
1.98232
0.76822
2.45072
1.55888
1.14862
0.851255
1.90731
0.70415
1.66977
0.279479
0.196333
1.27563
0.258709
0.144369
0.747652
0.319378
1.11154
1.70523
0.61512
0.33609
0.955347
2.09035
1.07166
0.990931
0.623521
1.20807
0.292163
0.269975
0.274764
0.14781
0.319581
0.138078
1.47866
0.181861
0.153798
1.58147
0.287102
1.00414
0.625641
)
;
    }
    procBoundary1to0
    {
        type            processor;
        value           nonuniform List<scalar> 
29
(
0.195818
0.195818
0.159292
0.257362
1.74933
1.06276
1.98559
0.511073
1.40269
0.391963
0.52839
1.06276
0.159292
0.149505
1.2106
0.506706
1.74933
1.80619
0.257362
0.198197
0.31048
0.222591
1.44517
0.292523
0.292523
1.44517
0.242906
0.892612
0.242906
)
;
    }
    procBoundary1to2
    {
        type            processor;
        value           uniform 0.240188;
    }
    procBoundary1to3
    {
        type            processor;
        value           nonuniform List<scalar> 
48
(
3.4306
2.30264
2.69302
2.69302
1.49299
2.04291
2.04291
1.39593
3.55719
0.233108
0.183335
0.233108
0.253484
0.197433
0.219594
0.253484
0.286112
0.286112
0.296235
0.296235
0.159002
0.261672
0.310007
0.564293
0.564293
0.231437
0.518862
0.518862
0.891236
1.17128
0.464703
0.891236
1.39593
3.16429
0.208632
1.17128
2.18862
0.183335
3.65724
1.23313
0.151659
2.74144
3.16429
0.208632
0.230074
0.86337
1.38923
0.151659
)
;
    }
}


// ************************************************************************* //
