/*--------------------------------*- C++ -*----------------------------------*\
| =========                 |                                                 |
| \\      /  F ield         | OpenFOAM: The Open Source CFD Toolbox           |
|  \\    /   O peration     | Version:  v1912                                 |
|   \\  /    A nd           | Website:  www.openfoam.com                      |
|    \\/     M anipulation  |                                                 |
\*---------------------------------------------------------------------------*/
FoamFile
{
    version     2.0;
    format      ascii;
    class       surfaceScalarField;
    location    "0.78";
    object      phi;
}
// * * * * * * * * * * * * * * * * * * * * * * * * * * * * * * * * * * * * * //

dimensions      [0 3 -1 0 0 0 0];
oriented        oriented;


internalField   nonuniform List<scalar> 
2776
(
-0.000321812
-2.74938e-05
0.000240962
0.000108344
-0.000872189
0.000942326
0.000302815
-0.000372952
-0.000395846
-0.000217555
0.000246644
0.000366757
0.000124516
-3.53887e-05
0.0010086
-0.00109772
-0.000137264
8.03679e-05
0.000148224
-9.13279e-05
-0.000119131
-0.00045069
0.000379529
0.000190291
-0.000101601
-2.65471e-05
0.000437303
-9.73853e-05
-0.00061567
0.000275752
0.0010113
0.000889345
-0.00089317
-0.00100747
-0.00094938
0.000753822
-0.000229002
0.000424561
-0.000346528
-0.00116288
0.000521642
0.000987761
0.000427048
0.000177291
-0.000558612
-4.57269e-05
0.000886406
0.000114928
-0.00136836
0.000367028
-0.000139402
-0.000117416
0.000119555
0.00011714
-3.84033e-05
-0.000197868
0.000475822
-0.000143818
-0.000678531
-0.000253561
0.000188719
0.000258519
-0.000193677
3.10813e-05
-0.000482352
0.000451271
0.000526972
-0.000155892
7.88429e-05
-0.000449923
0.000726888
-4.60299e-05
5.4388e-05
-0.000735246
-0.000701588
3.79391e-05
-2.70025e-05
0.000690652
-8.98917e-07
0.000225676
-0.000328448
0.000103671
0.000589394
2.27638e-05
-2.28039e-05
-0.000589354
0.00068981
4.74548e-05
-3.15301e-05
-0.000705735
0.00030951
-0.000382354
-0.00117574
0.00124859
1.44356e-05
2.34698e-06
2.25224e-05
-3.9305e-05
-0.000243286
4.30839e-06
0.000125215
0.000649228
-0.000733983
-4.04605e-05
0.000143885
-0.000110473
0.000172502
-0.000205914
-0.000355625
0.00040799
0.000626574
-0.000678939
0.000566236
-0.000847031
-0.00011178
0.000392576
4.3531e-05
-5.53181e-06
4.91132e-06
-4.29105e-05
0.000109253
5.19494e-05
-0.000161171
-3.11544e-08
-0.000350796
0.00031336
-0.000698287
0.000735723
3.8751e-05
9.04579e-06
0.000374828
0.000280446
-0.000135444
-1.11685e-06
-0.000485808
-4.77873e-05
-0.000367477
0.000183742
0.000966415
-0.000233264
-0.000733151
-9.23592e-05
0.00022839
-0.000136031
-4.22345e-05
0.000213165
-0.00017093
-0.000480269
0.000545073
-6.48042e-05
-0.000489028
0.000481168
7.8601e-06
-9.83144e-05
-3.76789e-05
0.000135993
3.36609e-05
-7.58963e-05
4.22353e-05
0.000484339
-6.77133e-05
0.000944325
8.59292e-05
0.000240209
-0.000223966
-1.62428e-05
-0.00027398
0.000317814
-4.38341e-05
-0.000133893
0.000197436
-6.35435e-05
-0.000231163
0.000150108
8.10548e-05
-0.000211279
-0.00066091
-0.000363629
-8.70606e-05
0.000167321
-8.69526e-05
0.000209449
-0.000100196
-0.00109193
0.00140144
0.000312841
1.22537e-05
-0.000325095
-0.00096249
-0.000200385
-3.45907e-05
-4.67815e-05
8.13722e-05
-0.000803097
-0.000146283
2.50152e-05
-1.82727e-05
1.99383e-05
-2.66808e-05
-9.33348e-05
8.31336e-05
-3.20333e-05
-6.67992e-05
7.84498e-05
-0.00010401
-0.000204652
4.99836e-05
0.000594497
-0.000439828
0.000791428
-0.000686621
-0.000187802
8.29945e-05
0.00021294
-0.000252381
5.79991e-05
-1.85579e-05
0.000254991
5.65402e-06
-4.55154e-05
-0.00021513
-0.000198431
-6.01509e-05
-0.000457995
0.00087347
-0.000876391
6.90033e-05
-6.60817e-05
0.00017895
-0.000278716
-0.000156663
0.000256429
0.000163649
-0.00014551
-9.16167e-06
-8.97746e-06
5.3638e-05
-0.000545177
0.000491539
5.2639e-05
-0.000538673
0.000486034
0.00105996
-0.000452837
-0.000810715
0.000203591
8.72065e-06
-2.54196e-05
4.17142e-05
-0.000633793
-7.23103e-05
0.000307416
0.000398687
-4.4083e-05
-8.4189e-05
3.49372e-05
-0.000135824
-2.47708e-05
9.37959e-05
-0.000235375
0.00013408
0.000101295
0.000107076
-0.000391881
0.000344379
-5.95738e-05
-0.000597991
3.36408e-05
-5.72353e-05
0.000621586
-0.000296087
0.000481435
0.000336294
4.07425e-05
0.000229817
-1.68904e-05
-0.000253669
-0.000342774
-6.39129e-05
0.000299641
0.000107047
-0.000562465
1.74545e-05
0.000557851
-1.28398e-05
-3.85987e-05
0.000595779
-0.000583555
2.63751e-05
-0.000639827
0.00106372
-0.000774691
4.08569e-05
-1.66929e-05
0.000328612
-0.000352776
0.000769457
-0.000401033
2.86387e-05
2.40482e-05
7.77517e-05
-0.000130439
1.17926e-06
9.61255e-06
3.64381e-06
-0.000238414
6.44879e-05
-6.93598e-05
0.000227223
-0.00078642
0.000683713
1.48558e-05
0.000122463
-0.000167177
2.98581e-05
-4.11298e-05
-0.000233325
0.00017707
-0.000186397
0.000803636
0.00013869
-1.81651e-05
-8.06283e-05
0.000165363
-1.71392e-05
0.000148366
2.2667e-05
0.000127441
7.40233e-06
0.000232807
-4.02145e-05
-0.000233765
-0.000521566
3.25386e-05
-6.40213e-05
-0.000551649
-4.58153e-05
-5.66458e-05
0.000374887
0.000612875
-8.97115e-06
-1.12784e-05
-1.90819e-05
1.20876e-05
0.000525589
-0.000553472
2.50919e-05
2.7908e-06
6.286e-05
-0.00025724
0.000166886
0.000277278
0.000476543
-7.3493e-06
-8.51056e-05
3.12727e-05
6.11823e-05
0.000424716
-0.000118057
0.000137362
-0.000430816
0.000720502
3.62527e-05
-9.49441e-05
-4.29092e-05
5.61131e-05
-0.000115604
-8.38032e-05
-0.00106101
0.000950108
7.5515e-05
-4.32731e-05
4.68237e-05
-3.42322e-05
3.06816e-05
-6.45237e-05
5.18107e-05
-4.23374e-05
5.50504e-05
-2.47477e-05
-7.35667e-05
-4.71366e-05
8.07975e-05
0.000376697
-0.000157005
-0.000683171
0.000177017
0.000608899
-0.000102745
-0.000212815
0.00071664
4.51531e-05
-0.000548978
-0.000312619
0.000892926
5.94658e-05
-0.000639773
-6.26516e-05
6.152e-06
8.49502e-05
-2.84506e-05
0.000111824
0.000531208
0.000132206
0.000610243
-8.15809e-06
-1.70866e-06
4.72269e-06
5.14406e-06
-0.000173717
-0.000217422
0.000149151
-5.54965e-05
-0.000104635
-8.19436e-05
-8.25871e-05
0.000726768
1.96471e-05
-0.000663828
0.000668903
2.22984e-05
-1.77774e-05
-0.000673424
0.000516913
-2.6341e-05
3.16572e-05
-0.000522229
0.000224562
-0.000140087
-0.000145795
6.132e-05
-0.000563743
-9.47915e-05
1.79805e-05
0.000640554
4.86822e-05
4.47726e-06
-9.62845e-06
8.7479e-05
-4.56405e-05
-3.51653e-05
-6.67331e-06
0.000136698
-0.000114784
3.04643e-05
-5.23788e-05
0.000179293
-0.000143997
-6.6575e-06
-6.79215e-07
-5.49083e-06
0.000229982
-0.000422521
0.000495354
-0.000816358
-9.26779e-05
0.000225865
5.84873e-05
-7.41351e-05
-2.5482e-05
-0.000178504
-4.44787e-05
-2.01908e-05
0.000243173
0.000236442
-7.55699e-05
9.4997e-05
0.000686815
-5.64151e-05
-0.000725397
0.000730819
-0.000614886
-0.00075576
3.31687e-06
1.53125e-05
6.40174e-06
-2.50311e-05
-0.00074066
0.000236584
0.000482032
2.2045e-05
-6.16467e-06
-2.79193e-06
5.76388e-05
-0.000627604
0.00019178
0.0005429
-0.000270814
0.000232215
0.000507142
-0.000756237
-0.000160222
0.000409317
-4.1107e-05
0.000119251
-0.000348535
0.000270391
8.97547e-05
-0.000386759
0.000737147
-0.000684837
7.98949e-05
0.000553724
-0.000515967
7.40677e-05
0.000650885
-0.000549623
-6.71758e-05
-3.4087e-05
0.000104255
0.00154886
-0.00121704
-0.000436076
0.000604885
-0.000835109
0.00035544
-6.63582e-06
1.29402e-05
3.62378e-05
-4.25421e-05
0.000156693
-2.54288e-05
6.61725e-05
-3.81039e-05
9.52161e-05
0.000528007
-0.000636809
0.000108802
-0.000405368
0.000289976
-0.00127976
0.00139515
-0.000442572
-3.0473e-05
0.000606399
-0.000133355
0.000224333
-0.000188124
-0.000391834
-8.06045e-06
-1.90262e-06
-1.31529e-06
5.04702e-05
2.12066e-05
9.19719e-05
-0.00133378
0.00117199
-0.000249875
0.000411658
0.000380752
-0.000325083
-0.000130231
7.4562e-05
0.000139359
-0.000561001
0.000540342
-0.0001187
-0.000176481
2.17149e-06
0.000114289
6.00206e-05
-2.62825e-05
2.37199e-07
0.000361222
-0.000335177
0.000609011
3.06774e-05
-4.39097e-05
-0.000553658
2.57954e-05
-3.46034e-05
-0.000366429
-0.000191548
0.000215203
-0.000988149
-0.000171207
0.000282964
-7.24812e-05
3.57049e-05
-0.000198599
0.000697255
-0.000184357
-0.000595485
3.31389e-05
-2.4773e-05
1.15724e-05
-0.0003954
0.000274806
0.000347817
0.000303989
0.000366489
-0.000592293
-7.81855e-05
0.000115
0.000163893
-0.00101955
3.74657e-05
-1.66834e-05
-2.88428e-05
-9.78059e-05
-0.00018091
-0.00040729
0.00032993
0.000527891
-0.000450531
-0.00025409
4.41113e-05
4.89911e-05
0.000160988
-0.000732167
0.000472413
-0.000374115
-0.000177606
0.000156321
0.000111808
-3.77609e-05
-0.000497257
0.000441586
0.000361572
-0.000305902
-0.000293093
0.000301237
2.76045e-05
-3.57479e-05
-0.000130854
-3.88555e-05
2.42002e-05
-0.000244727
-0.000437989
7.23372e-05
0.000732141
0.00049397
0.00078075
-0.000419663
-0.000855057
-5.32862e-06
1.78771e-06
1.22523e-05
-8.7114e-06
1.287e-05
0.000717987
-3.9693e-06
4.44704e-05
0.000572477
-8.99751e-05
-3.15208e-05
2.91143e-06
-0.000566359
0.000594969
-2.37094e-05
2.36188e-05
-0.000265491
0.000265581
0.000434415
-0.000170423
0.000340893
7.27304e-07
-0.000700388
-1.92738e-06
4.90028e-05
-0.000578061
0.000770866
-0.000241808
0.000626258
0.000117897
-0.000135144
-0.000535206
3.05514e-05
-0.000250019
-0.000448846
0.000332436
-0.000176357
0.000685275
0.000228229
-0.000155909
0.00052782
0.000181813
-4.93288e-05
3.81844e-06
-3.95952e-05
-3.88664e-05
-3.20528e-05
5.81367e-05
-3.97529e-05
-1.03541e-05
-0.000462948
0.000332179
-0.000116835
-0.000163988
7.02623e-05
0.000210561
4.49614e-05
0.000115144
-1.38439e-06
-0.000158721
-7.69716e-06
-6.63926e-06
-9.49617e-05
4.43338e-05
1.29901e-06
3.99958e-05
-6.82098e-05
1.90524e-05
-4.24285e-05
0.000303616
-0.000527451
0.000266264
8.01063e-05
-0.000434718
-0.000237682
-6.89282e-05
0.000420854
-0.000379302
2.7376e-05
0.000155168
9.74615e-05
-0.000136968
-0.000115661
-1.02875e-05
-0.000243417
4.88008e-05
-8.94312e-05
6.09339e-05
-2.03035e-05
1.50434e-06
0.000211794
0.000116043
-0.000103448
-0.000224389
8.17906e-05
-4.86101e-05
-0.000425061
0.000459388
-0.00030657
-0.000345491
2.46719e-05
8.24051e-06
-1.58089e-05
-1.71035e-05
7.5995e-05
-0.000621809
-2.75789e-06
2.63645e-06
-3.84222e-05
3.85436e-05
-0.000259191
0.000913784
-0.000284596
0.000243366
-2.64105e-05
6.76413e-05
-0.000312773
0.000741688
0.000603725
0.000199961
-0.000177428
0.000826756
-0.00042644
0.000894417
-3.95929e-05
5.70555e-05
0.000481611
-0.000499074
-2.47437e-06
4.68011e-05
-4.96554e-05
6.91613e-05
2.16346e-05
-7.84029e-05
0.000604996
-0.000789425
-0.000971987
0.0011996
0.000561808
-0.000415998
0.000418909
-0.000262893
0.00038079
6.78409e-05
-4.42222e-05
-2.62656e-05
0.000401564
-2.24286e-05
0.000456315
-3.64357e-05
-6.6684e-05
0.000442804
-0.000444858
-0.000505037
0.000507092
-1.97886e-05
-0.000422864
0.000501244
-7.83804e-05
-6.05439e-05
7.12258e-05
-0.0005874
-0.000145198
-0.00130318
0.000658949
0.000205933
-0.000476747
-0.000402208
-1.379e-05
7.56502e-05
-7.80927e-06
1.14332e-05
-8.77225e-07
-8.76827e-06
-1.28323e-05
1.59715e-05
-3.73267e-05
6.87826e-05
3.3188e-05
-0.000708221
0.00024988
-0.000161206
0.000619547
-0.00058124
0.000466032
0.000169493
-0.000207278
-7.69991e-05
2.13608e-07
4.70811e-05
1.49239e-05
-6.22186e-05
-0.000316094
0.000249134
0.000174117
-0.000107157
0.000319317
-0.0001859
0.000435477
-0.000568895
-0.000555444
0.000503623
0.000230052
4.24193e-05
-0.000140377
-0.000132095
2.66774e-05
-6.29896e-05
0.000109586
-7.32742e-05
0.000341704
-0.00042429
2.2042e-05
-2.22615e-05
0.000319487
-8.07263e-05
6.36214e-05
-2.96765e-05
0.000934049
-0.000844922
-0.00050879
0.000542828
0.000379958
-0.00074577
0.000164562
7.64e-05
-0.000829724
5.33541e-05
-0.000811164
0.00042226
-1.17373e-05
-0.000179811
0.000384753
-0.000358958
0.000114824
-8.89543e-05
-8.94133e-05
-5.31574e-05
1.25379e-05
4.18379e-06
-8.78264e-05
-9.57359e-05
0.000120804
6.27581e-05
-2.74485e-05
5.79345e-05
4.72993e-05
-7.77853e-05
5.56238e-05
-9.81906e-06
-4.58048e-05
-0.000562666
0.00140799
-0.00110451
0.000510343
-0.000569445
-0.000662633
-1.20303e-05
-7.01628e-05
3.01129e-05
-5.67914e-05
-6.60538e-05
5.49476e-05
6.78975e-05
-3.52248e-05
-1.36531e-05
0.000245628
-0.00019675
-0.000890155
0.000919369
0.000373284
-0.000402498
-0.000207967
0.000140005
-0.000846791
0.000914752
-0.0010955
0.00053481
0.00075247
-0.000135858
0.000450863
-0.000353673
0.00072633
0.00012971
0.000286797
-0.000153251
-0.000263256
7.36424e-05
-0.00045468
4.99858e-05
0.000331052
0.000636741
-3.83206e-05
7.97931e-06
-5.67782e-05
5.86757e-05
4.35455e-05
-4.54431e-05
0.000694583
-9.68498e-06
0.000316757
-0.00100165
-0.000158757
0.000206372
-8.28392e-05
2.67836e-05
1.15719e-06
8.91997e-05
-4.8214e-05
-9.409e-06
4.4655e-06
-0.000939286
-7.73158e-05
0.000130518
0.000886085
-0.000984023
0.000480286
0.00100869
-0.00050495
0.000116073
-0.00045566
0.00057581
0.000574433
-7.01706e-07
-1.84258e-06
-6.59868e-05
0.000147376
0.000385597
-0.000466986
6.14667e-05
-0.000538822
0.000508436
-0.000476414
-0.000203191
0.00011498
-0.000129343
0.000766931
-0.000861471
0.00034442
-0.000210156
0.000294863
0.000358098
0.00122111
-0.000562145
0.000264256
-0.000923221
0.000445917
-7.49338e-05
-0.000255984
9.1064e-05
-3.083e-05
-1.6238e-05
4.01407e-05
3.92965e-05
-6.31993e-05
3.20376e-05
-5.90177e-05
-1.80493e-05
4.50294e-05
-2.27356e-05
-6.24993e-05
3.15145e-05
5.37204e-05
-0.000414109
-3.02925e-06
-0.000437919
0.000272812
6.50586e-05
0.000290037
-0.000451841
0.000514798
-0.000352993
0.000483086
0.0011036
-3.78268e-05
-7.05711e-06
6.2681e-05
-0.00057552
-1.80281e-05
0.000798573
-0.000685561
0.000388843
-0.000501856
-0.000152113
-0.000807452
-2.85839e-05
0.000237643
0.000504808
-0.000527814
-0.000702701
0.00155952
0.000364289
-3.63787e-05
-0.00115022
0.00131441
-0.000127802
-2.92915e-05
0.000113162
0.000111525
-0.000166011
0.000152508
0.000182089
0.000382988
-0.000284631
-7.97383e-05
-0.000482406
0.00134794
-0.000550091
-0.00150055
0.000361719
-0.000453301
7.09062e-05
1.29641e-05
0.000345646
-7.13745e-05
5.71157e-05
-4.35095e-05
0.000605941
-6.87342e-05
-0.000314847
0.000384233
-6.52651e-07
5.03191e-05
-0.000145455
-5.22314e-05
0.000277589
2.9633e-05
0.000686354
-0.000636755
-0.000521118
0.00047152
0.00068536
-0.000872778
0.000646918
-0.000459501
-0.000174729
9.49908e-05
0.000211041
0.000613005
-0.000469581
0.000321723
0.00106723
0.000307683
-5.54597e-06
0.000499435
-0.000280066
-0.000219369
0.000588486
-0.000847025
-0.000266038
0.000100183
-3.73371e-05
-0.000475604
-0.000129673
8.04666e-05
0.00052481
0.00021539
0.000383965
-0.000422064
0.000711426
-0.000211991
-0.000141355
-2.34868e-06
0.00015856
0.000489154
-0.000699951
0.000234159
-0.000133066
8.14955e-05
-0.000182588
-7.81535e-05
0.000194352
4.45353e-05
-0.000160734
0.000282952
-0.000126947
6.69229e-05
0.000333259
-0.00011723
-0.000229046
2.20523e-05
0.000253514
-4.65201e-05
3.22284e-05
0.000357593
-9.84341e-05
1.06022e-05
0.000193322
0.000153668
-2.23903e-06
0.000258469
-9.48799e-07
0.000205082
-1.3219e-05
1.12113e-05
5.08123e-06
-3.07351e-06
-0.000127063
-3.62472e-06
0.000151193
-2.05049e-05
1.81275e-05
-0.000189461
0.000178119
-6.78487e-06
-1.08756e-06
-0.000109187
-1.67884e-05
-9.31832e-06
2.62844e-05
2.6296e-05
-4.32621e-05
-3.06224e-05
2.58702e-05
8.90428e-05
-8.42907e-05
1.93304e-05
-8.32688e-05
-0.000261007
0.000972433
-3.99881e-05
4.144e-06
2.65258e-05
5.69574e-05
-8.75797e-05
-4.3524e-05
3.59598e-05
2.68946e-05
9.30355e-05
-2.69731e-05
-0.000531237
0.000103813
-0.000514655
0.000942079
-8.11292e-06
0.00012343
-0.00114664
-0.000212655
0.00113501
0.000224285
-5.40975e-05
2.16964e-05
6.34627e-05
-3.10617e-05
0.000578259
-0.000286037
-0.000823459
3.23065e-05
0.000146909
-0.000290728
0.000114649
0.000225239
-4.91602e-05
0.000122358
-9.53755e-05
-0.000126967
9.99849e-05
1.25466e-05
4.14005e-05
-1.32944e-06
-5.26177e-05
-5.53609e-05
0.000737433
-0.000499065
0.000476011
-7.63626e-06
7.58968e-05
-0.000235903
-0.000312493
0.000283086
0.00026531
0.000180109
9.71371e-05
0.000181044
-9.04749e-06
3.27974e-05
-0.000121791
2.82716e-05
1.10586e-05
-7.36444e-05
7.27911e-05
-0.000126214
0.000127067
-2.80351e-05
-4.60825e-06
-6.27321e-05
5.58924e-05
-9.15638e-05
9.85797e-06
3.14309e-06
-8.66454e-05
-0.000707351
-1.59572e-05
1.83118e-05
7.50341e-06
-2.01053e-05
6.30029e-05
2.76456e-05
-0.000100309
7.80701e-05
9.97064e-06
5.76722e-06
-5.23486e-07
-3.17908e-05
8.63597e-06
-1.78142e-05
-4.15917e-05
3.77397e-05
-2.00565e-05
-6.88014e-05
5.11183e-05
-4.85504e-05
4.95005e-05
2.49201e-05
3.24931e-05
-0.000207222
0.0011002
4.7418e-05
-0.00114762
0.000149013
-0.00016758
0.000248549
5.10641e-05
5.89324e-06
-5.405e-05
-0.000112058
2.33578e-05
-7.48298e-05
5.1472e-05
0.000124653
1.61161e-05
-5.82498e-06
1.76446e-05
-3.57348e-05
3.43533e-05
-4.75723e-05
6.0252e-05
0.000102489
-0.000146625
0.000121778
-0.000132541
0.000141949
9.74692e-05
-9.04048e-05
0.000151979
9.82279e-05
-0.000187346
0.00017713
-0.000189925
0.00112076
0.000175052
-0.000238112
0.000205009
0.000105258
0.000152504
-0.000105783
0.00013797
-0.000231284
9.6713e-05
-3.39889e-06
-0.00011838
0.000258069
0.000136503
-0.000276192
0.000104113
-0.00014021
-3.29566e-05
8.23658e-06
2.472e-05
0.00142313
-5.43521e-05
-4.2185e-05
4.64764e-06
4.87486e-05
3.52975e-05
-9.44198e-07
-6.19394e-05
2.3794e-06
0.000100542
-4.09823e-05
3.74994e-05
0.000287516
-9.5198e-05
2.34096e-06
0.000153008
-9.63364e-05
0.000128504
-3.12061e-05
2.28526e-06
1.85177e-06
0.00010588
-0.00013032
0.000152201
-0.000197694
0.000173853
0.000112628
-7.10908e-05
0.000133237
-3.14719e-05
-0.000147237
0.000161366
7.92415e-06
4.68597e-08
4.57936e-06
2.04341e-06
2.64717e-06
1.31224e-05
-1.7813e-05
9.92275e-06
-0.000124932
1.03269e-05
-6.10851e-05
0.000169345
-0.0001064
0.000163418
8.32425e-05
-0.000137174
9.88621e-05
5.09484e-05
1.12063e-05
7.10818e-05
3.19854e-05
-7.47303e-06
3.62746e-05
-7.15494e-05
-0.000327738
4.20041e-05
0.000357283
0.000292515
-6.77448e-05
-0.000246999
2.22285e-05
0.000130506
0.000175541
-9.98143e-05
-0.000206233
0.00013185
0.00106964
-0.000370339
-0.000888472
-7.90012e-05
0.000342007
2.9509e-05
-0.000160006
0.000222767
0.00112272
0.000251987
-7.9758e-05
3.67525e-05
9.39538e-05
-6.6862e-06
3.83731e-05
-5.11706e-05
2.47295e-05
0.000334124
-9.72645e-05
-0.00010654
4.37989e-05
0.000488166
-9.36081e-06
-0.000105953
-1.4371e-05
5.18028e-06
0.000170556
-0.000276527
-8.81153e-05
-0.000194458
-2.19388e-05
0.000212772
3.83492e-05
0.000498946
-0.000404718
-0.000132577
-1.78783e-05
0.000257022
0.000700698
-0.00028107
-4.04722e-05
0.000264239
5.73035e-05
-0.000145029
0.000431768
-0.000442911
-0.000194672
0.000492555
-0.000147685
0.00011841
-4.69935e-05
-0.000177817
-0.000191038
-0.000413315
-0.000124587
0.000469168
-0.000834
0.000946277
0.000228501
0.00012843
0.000101839
-2.30375e-05
0.000300321
-0.000298978
3.70057e-05
0.0002297
-7.38297e-05
-0.000171243
1.53724e-05
0.000281124
-0.000137358
-1.19777e-05
-1.63225e-06
-0.00108389
0.00104751
0.000270437
4.34175e-06
0.000224167
0.000121291
1.70388e-06
-3.7492e-05
4.03675e-05
0.000708331
0.000715427
0.000203068
2.64849e-05
-0.00094498
-3.65036e-05
0.000118579
0.000351847
6.20421e-05
2.0435e-05
5.98433e-06
-2.37722e-05
-2.61272e-05
0.000493513
-0.000462103
-5.28293e-06
-0.000847561
0.000708658
6.97131e-05
-0.000116327
8.49481e-05
-4.01341e-06
-7.10119e-05
3.11786e-05
2.37885e-06
4.51699e-05
-7.40437e-05
6.13668e-05
9.45761e-05
0.000385593
-3.15372e-05
-2.07934e-05
7.56884e-05
0.00108019
2.00093e-05
1.65999e-05
6.45338e-05
-1.65464e-05
-0.000178999
-0.000260565
0.000276392
-3.23731e-05
-0.00089557
0.00057356
-0.000684272
3.42902e-08
-0.000784379
-0.000474433
-0.000633523
0.000908678
-0.000101656
5.60785e-05
0.000153051
-0.000228944
-9.83463e-06
-0.000180279
9.97907e-05
-0.000909348
0.000470137
-4.74896e-06
-0.000965879
0.000670166
-0.000599857
2.44738e-05
-4.10281e-05
0.000694181
-0.000677627
0.000233239
0.000277473
3.56075e-05
-0.000356028
4.29474e-05
-1.42443e-05
5.9292e-05
-3.6895e-05
1.31917e-05
-1.67354e-05
-3.70166e-06
-0.000231873
7.27904e-05
-2.56455e-06
0.000140211
0.000404417
-0.000590716
8.19977e-06
0.000419397
6.40942e-05
-9.29374e-05
-0.000561592
-0.000677924
0.00124124
9.16266e-05
-7.51769e-05
0.000526187
7.87502e-05
0.000583086
-0.000544509
-0.000117328
-9.62587e-05
0.000142728
-0.000985756
-3.79852e-05
2.18387e-05
0.000542333
-0.000515262
0.000155417
-0.000172984
0.00017861
-0.000161043
0.00148366
-0.000926518
0.000348459
-0.000905604
0.000442337
4.75635e-05
-0.000444417
-4.45244e-05
0.000763676
-0.00056494
-0.000356258
0.000157523
0.000237438
-0.000199255
-0.000173163
0.000626577
-0.000368776
-0.000382106
-4.31867e-05
-0.000175358
0.000252194
0.000106603
-0.000183439
-0.00120561
4.14921e-05
0.000103109
0.000815185
8.91582e-05
0.000207754
-0.0011121
0.000229911
1.98662e-05
0.000102537
-1.7695e-05
3.30818e-05
0.000461196
-0.000903835
0.000568047
-0.00015251
-0.000263983
0.000140771
0.000275722
-0.000353585
0.000659031
-0.000665002
0.000690233
-0.000445846
0.000505157
4.91872e-05
0.00114612
-0.00114789
-0.000120835
-0.000251404
0.000935686
-0.000927527
-0.00032323
0.00054467
-0.000443621
0.000969467
-0.00100226
0.000919876
-0.000905103
-0.000364863
-8.37954e-05
1.39411e-05
-0.000190892
0.000108651
0.000153148
-5.52691e-06
0.000188806
4.64204e-05
-0.000109777
-6.11561e-05
-0.00010514
0.000119636
0.000148922
-0.000175628
-0.000384514
0.000198029
-0.000107534
-0.000776322
-0.000187704
0.00067501
-0.000792717
-0.000475839
-0.000593171
0.000822075
0.000783783
-7.43965e-05
-0.000166558
7.0083e-05
-0.000888267
4.2853e-05
-9.93613e-05
9.46929e-05
-0.000878624
9.83804e-06
1.49412e-05
0.000851042
-0.000875822
-1.84736e-05
4.24062e-05
0.000741771
-0.000784177
-0.000231877
7.15573e-05
-0.000173474
0.000611671
-0.000219438
-0.000132967
-6.41113e-05
-0.000572677
-0.000235722
0.000414107
-0.00042151
-4.13807e-05
0.000814365
-0.000769605
-0.000694344
-0.000843382
0.000975881
0.000561845
4.27404e-05
-2.70233e-05
0.000919969
0.000147812
0.000221661
0.000981067
-0.00103492
0.000698936
-9.94204e-05
-0.00105815
0.0011028
5.47726e-05
-0.0011391
-1.4823e-05
7.01816e-05
-6.58363e-05
-0.000553909
-0.000210288
0.000569524
6.97323e-05
-0.000481228
-0.000151778
0.000508419
-0.000357634
-1.83464e-06
-0.00103752
-0.000489391
0.000473102
0.000146
-3.12175e-05
-2.83422e-05
8.42892e-05
-0.000531685
-0.000197851
-9.65361e-05
-0.000714239
-3.70683e-05
0.000751307
1.53252e-06
-1.51846e-06
-5.54587e-06
0.000277369
-0.00127467
-5.39921e-05
0.00105129
-0.000442055
9.46068e-06
-1.0216e-05
-7.13928e-06
0.000532976
-0.000515621
-4.69075e-05
2.31418e-05
-0.000949242
-5.44383e-05
2.52721e-05
-7.73739e-05
-4.79927e-05
-1.82277e-05
2.84594e-05
0.000622801
-0.000341302
0.000122201
0.000268784
0.000349746
0.000171581
2.88967e-06
5.76759e-05
0.000157333
-0.000414306
-5.91212e-05
0.000128622
-0.000228408
9.8401e-05
-0.000107477
0.000144921
3.28182e-05
3.14171e-05
-5.25394e-07
-8.39879e-06
3.8222e-05
-3.68803e-05
-0.000240829
0.000346053
-9.57614e-05
-9.46266e-06
0.00086297
-0.000825673
0.000585008
4.1501e-05
0.000199164
-3.63569e-05
0.000198473
-3.03428e-05
3.02195e-05
-1.2709e-05
8.37733e-06
-6.88172e-05
1.34463e-05
1.30756e-05
-2.9437e-05
1.63614e-05
-6.55272e-05
3.55747e-06
-5.43844e-05
3.34082e-05
2.09762e-05
-6.53422e-05
5.8628e-05
6.71428e-06
-3.86161e-05
-0.000288451
-5.24663e-05
4.6899e-05
5.56729e-06
2.77703e-05
-0.00110757
0.00117821
-0.000487537
-0.00151413
-1.04733e-05
2.35489e-05
-7.19781e-05
0.000195439
0.00012495
-4.29158e-05
-7.8106e-05
2.37216e-05
2.78151e-06
0.000684367
-0.000667189
-0.000227466
2.2935e-05
6.1617e-06
4.81323e-06
-0.000317332
-0.000194128
-0.000190145
0.000279026
0.000152305
4.80286e-05
-7.64873e-05
4.50924e-06
-0.000198204
0.00017404
-1.17589e-05
-0.000431642
5.12376e-05
0.000441871
-0.000105636
0.000103021
0.000706119
-8.60582e-05
-3.99505e-05
7.9542e-05
0.000659345
0.00110398
-0.000849003
0.000697657
7.10487e-05
0.000434805
-0.000327421
1.39071e-05
-2.42021e-05
-0.000106853
0.000119345
0.00011557
-0.000173653
-6.12628e-05
-0.000110993
-8.76248e-05
-0.000468643
2.75321e-05
-0.000620966
-0.000147393
0.000101499
0.000666861
0.000931283
-1.69413e-05
-5.16917e-05
7.54093e-05
-5.76176e-06
-2.95068e-05
6.78713e-05
-5.19039e-06
0.000212396
-0.000413225
-0.000315389
-8.3813e-05
-1.81451e-05
0.000226908
-0.000162243
0.000168052
-4.08472e-05
-0.000106393
7.84226e-05
5.93537e-06
-0.000364758
-0.000638082
0.000581667
0.000865195
1.21571e-05
-0.000108662
-1.2569e-05
-0.000670341
0.000439223
-2.89034e-05
-0.000299495
0.000271163
-0.000204652
0.000339573
-0.00016974
0.000184572
-9.5077e-05
8.02455e-05
1.11732e-05
1.53373e-05
-2.93373e-06
-0.000147539
0.000123651
2.38888e-05
4.9225e-05
-5.49576e-05
5.73267e-06
-7.87181e-06
-8.73064e-05
6.85418e-05
-9.63162e-05
0.000620213
0.000239779
-3.21898e-05
7.65139e-05
0.000121106
-0.000104585
-0.000301205
0.000310297
-1.39831e-06
-0.00111324
-4.42933e-05
0.000122615
0.00121756
-0.00116039
3.80476e-05
-4.17714e-05
3.3376e-05
0.00010622
-7.57909e-05
0.000123971
0.000428742
7.1367e-06
-1.42866e-05
0.000428004
-0.000286796
-0.000395173
3.71093e-06
-0.000796284
-0.000458701
-0.000261081
-0.000141633
5.71215e-05
-0.000327726
4.43465e-05
-2.84432e-05
-4.45531e-06
-1.1448e-05
-5.87424e-06
0.000112367
-7.24326e-06
6.21981e-05
-0.000174277
-0.000334929
0.000109129
0.000501439
-3.98922e-05
1.04552e-05
-9.73378e-05
-0.00101559
-3.83829e-05
7.03431e-05
-4.60644e-05
-4.24741e-05
-5.71114e-06
-0.000183646
-8.66409e-05
0.000249493
-8.93693e-05
0.000301963
-0.0003352
3.83742e-05
-0.000117613
9.69016e-06
2.13091e-05
-8.54376e-05
-0.000131313
0.000563258
-2.61861e-05
3.24433e-05
-0.000195879
-0.000232169
-0.000775641
0.000989042
-0.000710485
0.000357168
-0.000490065
7.1372e-05
0.000815788
-0.000126778
0.000163339
7.84195e-05
-5.64892e-05
-4.98286e-05
3.6155e-05
9.42882e-05
-0.000100472
6.11315e-05
6.86549e-05
-1.26465e-05
-0.000130052
0.000718882
-0.000197011
-0.000695034
0.000217495
0.000120441
0.000162457
2.13609e-05
2.78641e-05
-0.000111195
0.00118123
1.90562e-05
-0.000123701
-0.000634371
-1.03204e-05
-0.000929775
0.000573359
-1.75119e-05
0.000160792
-2.11374e-05
0.000198249
-6.19614e-05
-9.82455e-05
0.00020107
3.27753e-05
1.55619e-05
2.69085e-05
0.000539942
7.30734e-05
-0.000202425
0.000344173
7.91913e-05
-9.50306e-05
-5.66419e-05
-0.000276057
6.23653e-05
7.67392e-05
1.02199e-05
2.39717e-05
3.85995e-05
0.000402394
-0.000494228
-3.94791e-05
-0.000697651
-0.00052084
0.00044285
-4.49622e-05
7.94998e-05
0.000107344
-4.75618e-05
-2.39353e-05
5.65229e-05
-0.00023408
0.000144784
-9.10473e-05
0.000334557
-1.25532e-06
0.000131514
-8.67632e-05
7.9338e-05
-0.000129543
7.00681e-06
-5.12881e-06
0.000792257
-0.000465516
-0.000186736
0.000444018
-0.000297366
3.11547e-05
-0.000137876
8.96703e-05
0.000451932
-0.00118531
-0.000282218
-0.000164232
0.000291148
-0.000346957
-0.000125912
-0.00055701
0.000471642
-0.000158265
-6.16038e-05
3.08191e-05
-0.000483163
-0.000532799
-0.00124394
-5.09174e-05
2.03838e-05
-0.000181262
-5.47629e-06
8.23517e-05
-2.82187e-05
-4.86567e-05
0.000172225
-0.000149714
-2.40162e-05
0.000237946
-0.00026254
-0.000160348
0.000472085
-0.000377724
0.000154406
-8.07006e-05
-0.000474739
0.00102079
-0.000971427
3.78167e-05
0.000382548
-0.000248077
-1.80513e-05
6.70176e-05
-9.66982e-06
-1.65771e-05
4.91107e-06
9.76338e-06
-0.000132174
-0.00147506
-0.00082847
-0.000382775
0.000313985
9.44959e-05
-2.57177e-05
1.60503e-05
-0.000124809
-2.6653e-05
-6.80276e-06
-7.22197e-08
-0.000196063
-3.76534e-05
-8.054e-06
-8.03973e-05
-0.000562858
0.000575728
-0.000508471
0.000570203
5.52533e-06
-0.000503264
0.000441887
6.13766e-05
-0.000445203
-6.32674e-05
-3.31591e-06
-0.000685997
0.000686725
-0.000553201
0.000567981
-1.47798e-05
-0.000508731
-0.000636264
-4.97328e-05
0.000659722
0.000633009
2.67132e-05
-0.000563927
-0.000429888
0.000492701
-0.000445814
-4.68877e-05
-0.000333582
-9.63059e-05
-0.000241076
-9.25066e-05
0.000180672
-0.000136561
-6.04037e-05
0.000619836
1.31724e-05
0.000637481
-1.76444e-05
0.000657128
1.38451e-06
0.000534043
-0.000373102
6.83178e-05
-4.46465e-07
-8.06503e-05
-0.000159411
7.90184e-05
-0.000239988
0.000146995
2.2409e-05
-8.27186e-05
0.000153406
-0.000237629
-0.00068682
0.000188488
-2.24992e-05
7.23686e-05
0.000458567
-0.00058111
0.000146653
-0.000186508
0.00013909
0.000140401
0.000102122
2.15284e-05
-0.000842478
-3.82613e-05
-3.32956e-05
0.000124613
-7.67897e-05
9.80165e-05
-0.00079557
-0.000194216
-0.00149828
0.000541478
0.000281785
-0.000222731
-2.6515e-05
0.000651417
-3.75939e-05
5.96698e-05
1.63737e-05
-1.16996e-05
0.0010611
-0.00126614
7.89617e-05
2.94241e-07
-7.92559e-05
0.00126264
3.41528e-05
6.36432e-05
0.000224665
-0.00013403
1.67783e-05
2.8982e-05
0.000229961
0.000777103
-0.000788125
-0.000185989
-0.000186654
-1.14336e-06
-0.000372873
0.0002044
0.000696479
0.000803108
-0.000807773
5.63883e-05
-2.87511e-05
6.2392e-05
-8.85773e-05
0.000277526
-0.000164853
0.000174124
-0.000527315
-0.000791183
-0.000213886
-6.83865e-05
0.00017333
-7.67532e-05
0.00012586
-0.000222437
0.00023712
0.000224209
-0.000217964
8.96102e-05
-7.42722e-05
-7.32849e-05
-0.000222115
0.000570206
0.000114919
2.11951e-06
-1.26375e-05
-1.23383e-05
3.67598e-05
0.000165602
0.000288019
-0.000410277
-4.7097e-06
-0.000130804
0.000685444
0.000585888
-0.000196188
-0.000103409
-0.000525248
-0.000610956
0.000601596
-0.000173815
9.58244e-06
-0.000738188
0.000543356
-0.000158841
-0.000338287
0.000196291
6.13789e-06
0.000137655
0.000353156
-0.000512063
-7.00954e-05
0.000211697
3.19896e-05
-8.64828e-05
9.77861e-05
-0.000581747
7.67472e-06
-3.88037e-05
-2.8843e-05
0.000398365
0.00011889
0.00041718
0.000436439
-0.000135521
0.000130867
0.000454645
-0.000484523
-8.44063e-05
1.76441e-05
-3.60139e-06
-9.57725e-06
-0.000169446
-6.33245e-05
1.36179e-06
-0.000484391
-0.00135475
0.00111982
0.000230242
-0.000131089
0.000693104
0.000201413
6.80001e-05
5.53031e-05
5.3363e-05
-0.000194823
0.000269536
-3.31426e-05
1.18698e-05
3.68346e-05
3.74524e-05
-4.99248e-05
-9.73049e-05
5.61606e-05
-6.08286e-05
0.000124303
0.000766249
0.000501751
-0.000404374
-3.60365e-05
0.000237043
-0.000173359
-0.000339741
-0.000141865
0.000220746
-0.000245697
5.18731e-05
-0.000127858
7.11375e-05
0.000251087
-0.000317082
-5.14197e-06
-8.13024e-05
-4.52439e-05
2.33822e-05
1.66136e-05