/*--------------------------------*- C++ -*----------------------------------*\
| =========                 |                                                 |
| \\      /  F ield         | OpenFOAM: The Open Source CFD Toolbox           |
|  \\    /   O peration     | Version:  v1912                                 |
|   \\  /    A nd           | Website:  www.openfoam.com                      |
|    \\/     M anipulation  |                                                 |
\*---------------------------------------------------------------------------*/
FoamFile
{
    version     2.0;
    format      ascii;
    class       volScalarField;
    location    "0.53";
    object      k;
}
// * * * * * * * * * * * * * * * * * * * * * * * * * * * * * * * * * * * * * //

dimensions      [0 2 -2 0 0 0 0];


internalField   nonuniform List<scalar> 
1431
(
0.0850866
0.244012
1.49239
1.0376
0.0859095
0.574852
0.882966
0.196803
1.86071
1.4894
0.238168
0.244668
0.167425
0.961068
1.3967
0.436831
1.56375
0.184305
0.196591
0.188149
0.108976
1.42056
0.715476
1.05583
0.919872
0.137229
0.945578
0.876552
0.497073
0.216277
0.994215
0.312687
0.80184
0.441793
0.449566
0.96144
0.067948
0.312316
0.781672
0.305694
2.07118
0.116989
0.414767
0.506236
1.12825
0.137209
0.962158
0.212777
0.459838
0.398309
0.190812
1.25667
1.3785
0.603566
0.719754
0.203508
0.794109
1.19424
0.78635
0.0921275
1.26257
0.15484
1.05042
0.292538
0.597609
0.180758
1.37715
0.512092
0.43421
0.323253
0.329032
0.356038
0.306643
0.63882
0.233381
0.596777
0.116716
1.37846
0.224327
1.42935
0.269667
0.226116
0.331657
1.40144
1.47949
0.0960472
0.0899935
0.290678
1.16447
0.166516
0.117535
0.415884
0.0926853
0.310878
0.221767
0.107684
0.21986
0.267522
0.0991994
0.677675
0.533505
0.222547
0.100104
0.0748262
0.416941
0.232489
0.240388
2.40029
1.34269
0.103108
1.66981
0.16832
0.214201
0.143792
0.372302
0.0694806
0.200403
0.572087
1.2927
0.888852
0.290468
1.31203
1.04958
0.994827
0.293673
0.315756
1.44907
0.19259
0.126816
0.48774
0.142042
2.04961
0.742462
0.103644
0.0966121
0.621431
0.271095
0.220955
0.12365
2.12425
1.239
0.0535907
0.290145
0.483336
0.557417
0.374021
0.267993
2.42431
0.229463
0.39256
0.507547
0.645144
0.501257
0.291581
0.116698
0.171337
0.283331
0.111364
0.206442
0.272454
0.196811
0.21279
0.104813
0.229517
0.0871367
2.16322
0.10422
0.302503
0.195501
0.101598
0.681008
0.325561
0.946307
0.386462
0.283017
0.100696
0.151123
0.499791
0.235283
0.224595
0.316602
1.14487
0.205726
0.154197
0.348711
0.417247
0.229844
0.792071
0.100713
0.299467
0.512853
1.80615
0.11424
0.254429
2.11133
0.274061
0.234541
0.259683
0.169747
0.185324
0.227397
0.738091
0.344538
2.12576
0.246567
1.15799
0.101902
0.305158
0.256149
0.475615
0.264494
0.216084
1.27983
0.299698
0.550184
0.676416
0.199933
0.415837
0.406746
0.304358
0.291863
1.28911
0.431411
1.79717
0.318586
0.533534
0.585899
0.126342
0.430989
1.04739
0.0898275
0.574281
0.302882
0.200814
0.196872
0.205055
0.288177
0.104478
0.274599
0.461638
0.311609
0.304422
1.97418
1.5227
0.163501
0.170556
0.309331
0.573609
0.554232
0.578804
0.276931
1.93748
1.57613
0.467542
1.08426
0.665102
0.122193
0.513614
0.621175
0.645592
0.679026
0.187671
0.10804
1.26762
0.198862
0.414915
0.57252
0.247102
0.394954
1.67853
0.236698
0.534538
0.272076
0.268974
0.696
0.269643
0.111047
0.32542
0.236122
1.34314
1.76065
0.409939
0.17984
0.105947
0.601015
0.789456
0.0925233
0.191808
0.508567
0.292612
0.391954
0.33331
0.195424
0.352375
0.304351
0.212741
0.125238
0.248095
0.50063
0.248223
0.32299
0.608684
0.221831
0.23928
0.115083
0.357438
0.281731
0.654021
0.631959
0.1184
0.304682
0.337653
1.21451
0.0704145
0.197543
0.307812
1.22954
0.303772
0.197835
0.296089
0.352871
0.215749
1.10637
0.339987
1.63799
0.347323
0.257552
0.423201
1.36232
0.293988
0.452278
0.174695
0.427139
0.475336
0.278107
1.97735
0.173082
0.162987
0.164222
0.169745
0.204046
0.263693
0.422474
0.436884
0.898303
0.200677
0.323311
0.169645
0.0246866
0.0907748
0.169247
0.155565
0.189642
0.161664
0.0668498
0.158659
0.166987
0.13885
0.164721
0.169938
0.103861
0.108109
0.154953
0.0231956
0.0521383
0.159941
0.135903
0.166263
0.58508
0.882669
0.288228
0.480082
0.276112
0.354792
0.321841
1.02708
0.336369
0.327993
0.362152
0.169431
0.154509
0.160785
0.075061
0.179084
0.139284
0.146294
0.199365
0.0689724
0.164832
0.0196577
0.177954
1.38242
0.498199
0.362256
0.33502
0.151686
0.136377
0.315602
1.2269
0.279926
0.170263
0.267477
0.308018
0.172556
0.315374
0.322032
0.285689
0.254223
0.115249
0.577336
0.618643
0.246502
0.251911
1.20472
0.516051
0.674195
0.222766
1.58127
0.204755
0.124489
0.323775
0.449728
1.10256
0.424184
0.342188
0.252554
0.415009
0.740902
1.66683
0.294164
1.74652
0.353636
0.112879
0.734386
0.368413
0.255853
0.608617
0.654367
0.429985
0.804514
0.755998
1.00612
0.642799
0.589541
0.213457
0.971864
1.20938
0.333368
0.303431
0.865827
0.828225
0.905439
1.07863
1.07362
0.476905
0.973008
0.774594
0.752854
0.902395
0.331134
1.24872
0.258774
0.767277
0.527792
0.296142
0.248056
0.106771
1.58936
0.519954
0.244067
1.50839
0.221517
0.232771
0.717502
0.445116
0.215212
1.32687
1.22293
1.76413
0.203717
0.356043
0.250199
0.741286
0.206848
0.332422
0.592679
0.4947
1.15691
0.614884
0.262806
0.231886
0.230127
0.197999
1.40578
0.213934
0.260483
1.13039
0.507357
0.325243
0.488664
0.583922
1.42037
0.65585
0.317186
0.33719
0.346535
0.193615
1.13392
0.367609
0.885203
0.789757
0.33184
0.225386
0.49011
0.315812
0.366346
1.52687
1.28224
0.364408
0.253932
0.369274
0.416667
0.429369
0.117737
0.251184
0.62155
0.160047
0.473
0.417857
0.557811
0.334626
0.246226
0.451845
0.422773
0.770573
0.479766
0.670475
0.524538
0.912473
0.996926
0.355355
1.45476
0.218884
0.814467
0.133672
1.35672
0.600859
0.217493
0.942651
0.214773
0.468489
0.0544325
0.614411
0.620295
0.372422
0.256824
0.837574
0.339052
0.610543
0.19345
0.895421
0.423644
1.41019
1.63948
1.01659
0.159323
0.774294
0.204488
1.20984
0.374035
0.166244
1.43744
1.18981
1.3908
1.32506
0.0992819
0.607167
0.282238
0.39711
0.41848
0.244625
0.223498
0.222369
0.281812
0.183709
0.486631
0.179604
0.309239
0.204873
0.407281
0.783053
1.1413
0.359645
0.289143
0.269703
0.447432
0.0449951
0.5319
0.207401
0.267523
0.20293
0.149918
0.200438
0.545001
0.573396
1.18152
0.236312
0.2055
1.56928
1.31019
0.924055
1.01858
0.153877
0.858125
1.13024
0.20733
1.29683
0.964307
0.774867
0.960278
0.194635
0.243833
0.158014
0.156422
0.431761
0.30572
0.174859
0.0461464
0.803786
0.230038
1.62241
0.15584
0.106239
0.238521
0.36766
0.781163
0.200067
0.201267
0.513317
0.153477
0.48527
1.53656
0.247288
1.09775
0.393376
0.567752
0.424572
1.46819
1.50771
0.160066
0.264225
0.246221
0.256404
0.600392
1.50466
0.788968
0.256871
0.33218
0.571377
1.0093
0.339252
0.0843083
0.128547
0.118961
0.282787
0.240348
0.359101
1.32773
0.974872
1.00081
0.0558867
0.264367
0.140434
0.521663
0.341325
0.335827
0.607772
0.532141
0.145358
0.46273
1.20262
0.0502461
0.209257
0.239489
0.369357
0.442883
0.389642
0.477768
0.601725
0.178586
1.28648
0.439952
0.416233
0.0901537
0.793724
0.171038
0.0288359
0.17447
0.272596
0.207619
0.490968
0.176991
0.189356
0.154175
0.101182
0.632989
0.56298
1.33096
0.362788
2.23055
0.237094
0.0645908
0.18945
1.31308
0.871904
0.421377
0.188943
2.17038
0.215582
0.118513
0.413608
0.299643
0.218121
1.59007
0.16814
0.427482
1.42386
1.54715
0.48112
0.0859322
0.271469
0.132011
0.468232
0.469319
1.57009
0.190998
0.104712
0.344507
1.25276
0.114858
0.414747
1.97782
0.314187
0.127443
0.591185
0.404716
0.209432
0.461623
0.812031
0.207081
1.31943
0.191158
0.479476
0.510201
0.115325
0.132889
0.350119
0.523139
0.422229
1.64037
0.564593
0.801943
0.776067
0.836512
0.306041
0.869018
0.13175
0.88927
0.614143
0.493717
0.343171
1.47176
0.0419673
0.206366
0.0854649
0.568932
0.102077
1.15027
0.660571
0.166599
0.227377
0.10918
0.528454
1.15833
0.18592
2.3854
0.0566571
0.198615
0.14602
1.87581
0.116742
0.192831
0.891554
0.580257
0.362674
0.309668
0.0476047
0.196753
1.61336
0.229362
0.764487
0.656153
0.227335
0.168674
0.0333276
0.241532
0.92924
0.21207
1.04601
0.121367
0.280785
0.234204
1.18127
0.0715177
1.29612
0.537656
0.527128
0.518007
0.528318
0.503183
0.508876
0.509311
0.548036
0.132456
0.148636
0.385247
0.258194
0.726426
0.168353
0.0693003
0.202938
0.0622266
0.227592
0.0654012
0.195935
0.571987
0.597717
0.61802
0.195269
0.62708
0.194698
0.274652
0.264948
0.505952
1.52288
0.24515
0.19016
0.364115
0.176067
0.237326
0.170518
0.354497
0.52894
0.104351
0.860039
0.0880807
1.24853
1.25728
0.320653
0.344763
0.225248
0.112507
0.189973
0.239818
0.262722
0.118937
0.21526
0.203385
0.0598632
0.215834
0.338355
0.891947
0.13463
0.265668
0.111026
0.244015
0.472237
0.625294
0.244875
0.24834
0.123382
0.156014
0.159825
0.126282
0.293839
0.0959522
0.0897523
1.22026
1.29138
0.292267
0.448372
1.52617
0.661592
0.269806
0.11596
1.36532
0.088946
0.203727
0.2715
0.170773
0.196026
0.200265
0.644522
0.458549
0.785203
0.764269
0.491969
0.0878482
0.111037
0.157366
0.13314
0.22307
1.92883
0.187627
0.613837
0.513801
0.482024
0.357025
0.208374
0.160253
0.479633
0.219924
0.117484
0.23325
0.211721
0.715994
0.159533
0.530157
1.54595
0.544152
1.06344
0.192423
0.198937
0.235057
0.0700116
0.143013
0.307881
0.052696
0.0452467
0.119293
0.0319513
0.157566
0.250676
0.0362508
0.108326
0.0552389
1.70694
0.111781
0.240982
0.0344096
1.52772
0.0525303
0.468556
0.755314
1.98617
0.207775
0.030897
0.191307
0.801161
0.164562
1.11172
1.55865
0.200094
0.241779
0.143704
0.0319757
0.0302343
0.812707
0.0622561
0.802584
1.32982
0.557984
0.181038
0.58433
1.20298
0.616023
0.240005
0.028758
0.0279519
0.164222
0.220915
0.408249
0.668472
1.18266
0.862418
0.64477
0.0480522
1.42437
0.0550051
0.610749
0.063339
0.252848
0.615241
0.284998
0.328098
0.213226
1.51701
0.662023
1.85203
0.0974161
0.705959
0.960886
0.457661
0.46182
0.761152
0.198722
0.579442
1.75201
0.350449
0.116867
1.15487
1.26416
0.228324
0.267647
0.779445
1.41717
1.02027
1.04029
0.228342
1.71683
0.314113
0.866858
0.33056
0.934591
0.737414
0.185445
0.246344
0.223528
0.403095
2.23085
1.31026
1.26473
0.402994
1.65577
0.226013
1.21756
1.40865
0.3165
0.346345
0.232602
0.645394
0.0814078
0.0515587
0.221934
0.47544
0.260488
1.43021
1.78129
0.19094
1.08774
0.205439
0.461232
1.66072
0.929658
0.486469
0.551222
0.167371
0.404315
0.120037
0.211918
0.462179
1.78451
0.349527
0.603316
0.219128
0.11963
0.302644
0.309552
0.327462
1.61069
0.1479
0.202094
0.501913
0.874841
0.244331
0.281102
0.0673287
0.784664
0.353153
0.355121
0.0560292
0.201853
0.211674
0.138267
0.258379
0.0599643
0.541257
0.818583
0.451302
1.26302
0.217121
0.385007
0.206657
0.21404
0.507931
0.0472361
0.201288
0.334499
0.114464
1.22607
1.31798
0.0750481
0.311355
0.913823
0.0731819
0.375481
0.380841
0.0570934
0.187626
0.63784
0.238739
1.67139
0.342131
0.68076
0.222585
0.883688
0.308792
0.321455
0.428403
0.246629
0.34303
0.219939
0.366813
0.0709861
1.06481
0.0496922
0.226145
0.269248
0.555241
0.715848
0.356067
0.135997
0.0725478
1.59887
0.135411
0.183881
0.139819
0.560462
0.366114
0.0391409
0.226729
0.157949
2.17291
1.57264
0.117264
0.207021
0.742526
0.0646902
1.10753
0.259571
1.28788
0.042754
0.237271
1.11976
0.231989
0.206821
1.74325
0.80134
0.523096
0.287712
1.32791
0.0647379
0.110608
0.230761
1.62114
1.13708
0.980145
0.0350324
0.240736
0.0621383
0.336468
0.618055
2.03027
0.956362
0.603981
0.366326
0.205802
0.119018
0.147551
0.610554
0.85941
1.2459
0.195865
0.132583
0.402229
0.634951
1.53595
0.953454
0.432373
0.0974068
0.21752
1.16059
0.544685
0.0742348
1.97038
1.95148
0.810182
0.740741
0.217155
0.301728
0.786901
0.78187
1.16459
0.19734
1.87509
0.679437
0.346257
0.153347
1.6929
0.351676
0.359988
0.822868
1.5647
0.191266
0.205533
0.137827
1.58882
0.148731
0.261567
1.13979
0.240454
1.66295
0.430687
0.0938767
1.66596
0.201604
0.254488
0.282427
0.412911
0.34412
0.612469
1.5161
0.0914195
0.994678
0.0677576
1.46505
0.827086
0.100947
0.296202
0.131905
0.227957
1.77204
0.824874
0.454887
0.698309
0.897765
0.085883
0.180348
0.940444
0.271629
0.0875947
0.262756
0.202013
0.231685
2.09973
1.51123
1.25183
0.462374
1.81441
0.169999
0.148806
0.518088
1.47725
1.13236
0.396382
0.340877
0.419188
1.11197
0.221512
2.01978
0.242034
0.282527
0.121954
0.265276
0.277295
0.226284
0.38808
0.130368
0.567699
0.687152
0.362257
0.139235
0.231779
0.387798
0.455893
1.64101
1.49187
2.0529
1.53937
0.211069
1.53615
0.753321
1.17014
0.202039
0.0670443
0.350875
0.22818
1.50361
0.148107
0.0933019
1.88594
0.229226
1.40573
1.16517
1.36926
1.02862
1.11264
0.328644
0.438163
1.49424
0.333855
0.422677
0.109994
0.329642
0.217724
0.110154
0.285225
1.13987
0.202566
0.229225
0.127414
0.0698086
0.414043
1.47411
0.466473
1.35707
0.78359
0.355993
0.799958
0.119724
0.343671
0.414145
0.136805
0.267217
0.213713
0.188327
1.29757
0.231673
0.47786
0.0832555
0.24277
0.124342
0.248974
1.08875
0.0629633
0.137331
0.269977
0.212514
0.176153
0.199837
0.159459
0.522039
0.265072
0.148536
0.241065
0.233599
0.215302
0.538911
0.0810319
0.361701
0.191711
0.359885
0.246238
0.297007
1.38544
0.322643
0.0793094
0.206033
0.197755
0.394974
0.628101
0.0617372
0.245686
0.18425
0.190461
0.176569
0.652644
0.164659
0.245266
1.5992
0.298626
0.984737
0.274538
2.3184
0.234697
0.714272
1.30534
0.336584
0.108676
0.0693416
0.344386
0.0884454
0.916919
0.22077
1.77249
0.154755
0.780116
0.15138
0.053036
0.301296
0.0672107
0.342467
0.276316
0.92595
0.351285
0.921477
0.636638
0.588914
0.650155
0.206498
0.429738
0.581842
1.61663
1.52601
0.31385
0.296009
1.63194
1.57894
2.12052
1.58149
0.724067
0.462075
0.207328
0.733121
0.38328
0.257689
0.781939
1.5311
0.296282
0.540507
0.694446
)
;

boundaryField
{
    frontAndBack
    {
        type            empty;
    }
    wallOuter
    {
        type            kqRWallFunction;
        value           nonuniform List<scalar> 
90
(
0.436831
0.421377
0.413608
0.427482
0.48112
0.468232
0.469319
0.591185
0.404716
0.479476
0.510201
0.614143
0.493717
0.568932
0.528454
0.891554
0.537656
0.527128
0.518007
0.528318
0.503183
0.508876
0.509311
0.548036
0.505952
0.785203
0.764269
0.530157
0.544152
0.235057
0.0700116
0.143013
0.307881
0.052696
0.0452467
0.0362508
0.0344096
0.0525303
0.468556
0.030897
0.0319757
0.0302343
0.812707
0.0622561
0.028758
0.0279519
0.0550051
0.610749
0.063339
0.662023
0.779445
0.403095
0.461232
0.603316
0.501913
0.0560292
0.0599643
0.541257
0.818583
0.385007
0.507931
0.0472361
0.0750481
0.913823
0.63784
0.68076
0.883688
0.0709861
1.06481
0.0496922
0.523096
0.0647379
0.980145
0.0621383
0.956362
0.85941
0.432373
0.544685
0.0742348
0.810182
0.430687
0.994678
0.0677576
0.462374
0.362257
0.0698086
1.08875
0.0629633
0.522039
0.394974
)
;
    }
    inlet
    {
        type            fixedValue;
        value           uniform 0.375;
    }
    outlet
    {
        type            zeroGradient;
    }
    wallInner
    {
        type            kqRWallFunction;
        value           nonuniform List<scalar> 
138
(
0.244668
0.196591
0.80184
0.441793
0.449566
0.116989
1.37715
0.512092
0.329032
0.356038
0.596777
0.742462
0.291581
0.116698
0.100696
0.151123
0.169747
0.185324
0.227397
0.738091
1.79717
0.665102
0.122193
0.621175
0.645592
0.679026
0.57252
0.696
0.601015
0.654021
0.631959
0.204046
0.200677
0.169645
0.0246866
0.0907748
0.169247
0.155565
0.189642
0.161664
0.0668498
0.158659
0.166987
0.13885
0.164721
0.169938
0.103861
0.108109
0.154953
0.0231956
0.0521383
0.159941
0.135903
0.166263
0.169431
0.154509
0.160785
0.075061
0.179084
0.139284
0.146294
0.199365
0.0689724
0.164832
0.0196577
0.177954
0.170263
0.246502
0.674195
0.112879
1.00612
0.213457
0.303431
0.258774
0.717502
0.203717
0.741286
0.262806
0.231886
0.230127
0.213934
1.13039
1.42037
0.885203
0.789757
1.28224
0.133672
0.0544325
0.614411
0.610543
0.166244
0.267523
0.106239
0.240348
0.0502461
0.0288359
0.17447
0.0859322
0.132011
0.314187
0.564593
0.13175
0.0854649
0.10918
0.580257
0.0333276
0.202938
0.61802
0.195269
0.104351
0.157366
0.715994
0.0319513
0.157566
0.0552389
0.58433
0.64477
0.0480522
0.705959
0.960886
0.120037
0.0673287
0.784664
0.0731819
0.135997
0.135411
0.742526
0.0646902
0.119018
0.147551
0.0938767
0.296009
0.733121
0.38328
0.257689
1.5311
0.296282
0.694446
)
;
    }
    procBoundary0to1
    {
        type            processor;
        value           nonuniform List<scalar> 
29
(
0.794572
0.853096
0.819074
0.819074
1.54031
1.54031
2.05833
0.499977
1.26107
0.95431
0.701315
1.05943
0.562917
0.502934
1.43402
0.667962
2.16813
2.07084
1.04015
0.794267
0.349595
0.230592
1.43692
0.294547
0.291726
2.07084
0.26068
0.817535
0.294547
)
;
    }
    procBoundary0to2
    {
        type            processor;
        value           nonuniform List<scalar> 
42
(
1.54139
1.1971
0.0976534
0.0819619
0.143654
1.54139
0.0976534
0.131321
0.118106
0.108866
0.232594
0.319374
0.232594
0.358071
0.419193
1.58061
0.419193
0.107519
0.111475
0.771192
0.771192
0.107519
0.0987165
0.642851
0.642851
0.0898788
0.938688
0.0643081
1.35188
1.03008
1.03008
0.0469216
0.0440135
0.0489227
0.0661189
0.0976534
0.686164
0.0520428
1.35188
0.131321
0.133941
0.0991368
)
;
    }
}


// ************************************************************************* //
