/*--------------------------------*- C++ -*----------------------------------*\
| =========                 |                                                 |
| \\      /  F ield         | OpenFOAM: The Open Source CFD Toolbox           |
|  \\    /   O peration     | Version:  v1912                                 |
|   \\  /    A nd           | Website:  www.openfoam.com                      |
|    \\/     M anipulation  |                                                 |
\*---------------------------------------------------------------------------*/
FoamFile
{
    version     2.0;
    format      ascii;
    class       volScalarField;
    location    "0.9";
    object      epsilon;
}
// * * * * * * * * * * * * * * * * * * * * * * * * * * * * * * * * * * * * * //

dimensions      [0 2 -3 0 0 0 0];


internalField   nonuniform List<scalar> 
1431
(
0.355578
4.33284
93.8632
61.3233
0.941442
28.0207
1.64837
4.42729
94.9594
24.9827
13.19
1.85656
0.701624
59.391
52.6625
27.6021
60.0942
2.06309
2.85475
11.5956
0.618657
13.18
32.8039
66.0216
50.7578
10.311
54.8764
53.5499
22.1003
1.10891
50.2817
12.2465
30.9566
2.51681
1.63696
45.8286
9.31677
10.2625
9.72672
9.825
147.958
7.61326
1.60577
1.23546
33.0599
0.843141
36.6686
4.95422
18.4977
16.3614
1.1723
25.4662
70.353
2.11204
1.26655
4.82978
28.2637
54.4152
54.1477
0.826989
41.8916
4.0817
48.5569
9.82828
35.1226
1.97607
77.5623
29.5171
1.71715
12.5111
1.6329
1.18451
2.04793
21.9436
11.0269
28.4821
0.513942
60.1594
5.76506
80.1875
8.11852
1.28981
0.507258
54.1173
88.1889
0.749008
0.785538
15.688
73.8665
7.93967
3.61107
38.2748
0.755187
10.1575
1.61747
0.530394
10.3872
8.69771
0.854595
31.295
2.21195
5.54717
6.57444
1.05442
22.0337
0.938745
6.61229
160.543
65.313
0.716895
96.5944
3.00272
5.49941
4.73775
19.4516
1.09807
1.9345
20.0117
83.5751
26.8862
8.93446
63.8221
28.1328
54.9971
9.33507
0.608014
96.0151
2.4012
0.48276
26.4157
3.70625
126.893
48.3979
5.84976
0.736585
62.5595
2.50977
2.90456
1.82209
138.779
40.4568
0.926322
9.83023
18.9935
21.4473
16.2214
8.75747
159.701
3.60361
14.8745
28.2484
38.512
1.74773
0.341953
3.31133
1.68246
8.99034
4.36381
5.09588
8.5686
1.88034
8.77278
4.20699
12.0471
0.976798
133.438
0.601848
9.6215
1.13343
7.0387
33.9407
18.5777
49.4276
17.4425
9.33197
0.666155
3.31259
25.4961
1.24641
6.04798
10.7438
32.1024
5.11059
6.13995
14.1415
16.8621
6.3669
49.5997
9.70312
10.0892
1.09515
74.5991
0.474994
7.3644
102.485
8.09683
6.29943
7.35431
2.80597
1.32173
0.660877
72.8446
12.4338
164.112
6.95379
64.502
0.633776
10.0444
9.8816
23.0112
7.96718
5.35747
76.6795
9.7193
26.8579
32.7528
4.76531
0.977039
11.1916
9.99696
9.23166
63.9639
21.5118
145.34
11.0609
29.0308
26.7981
5.48426
18.862
50.7748
0.873698
39.6451
11.0317
4.55886
4.40884
4.82133
10.0847
0.800415
8.20352
0.740065
10.365
10.2634
76.8102
65.4988
1.95771
2.58874
10.3685
1.47981
2.45957
27.4232
8.93169
89.3065
20.9807
19.5201
45.0806
36.1595
0.657265
0.867899
30.6806
33.8534
38.0537
5.57394
0.981065
45.7196
4.50119
18.2145
28.7014
7.53759
16.2229
52.2958
6.92469
23.228
8.76153
8.6748
40.325
8.65481
6.25119
1.43127
1.9725
28.7041
92.2479
0.646435
4.40646
4.96602
31.667
46.2844
0.795772
4.35452
23.1443
9.25162
17.7909
11.4948
4.50493
1.04826
10.4514
5.55193
0.449399
7.50095
1.31599
7.29863
11.1125
27.2821
0.289445
6.44197
3.82596
1.84594
8.61781
34.7711
32.2338
0.284398
9.98782
13.0849
40.5589
0.820125
2.74393
2.15587
31.875
0.834793
4.42801
1.09822
1.43183
0.581155
42.2018
0.858691
21.329
1.71821
7.39539
2.09306
79.5904
9.35931
11.0926
0.293843
0.538535
1.08153
8.84649
60.5496
1.25509
0.288373
1.28854
0.335756
0.703326
7.60563
2.49715
18.3767
45.9145
0.608309
11.3846
0.205521
0.222909
0.599295
1.38171
2.65162
1.95912
0.86752
0.986532
1.8716
2.17307
0.759254
1.17311
1.1803
0.632984
0.960191
0.783223
0.554615
0.198285
0.3554
0.687273
1.11419
18.0853
25.5774
3.4375
0.60078
0.936377
13.314
0.970619
58.567
8.41245
11.4955
13.9057
1.35279
3.20496
0.897872
0.370304
2.04952
1.01382
0.726713
1.08485
0.89681
0.995821
0.361844
0.233561
63.8474
21.5502
13.9162
1.4276
3.74969
0.238869
10.7396
6.46281
9.12128
0.798922
6.82582
10.2529
1.33998
8.28792
12.2534
0.842062
7.83201
0.299825
14.6928
41.3819
11.4477
2.42175
62.6415
20.1071
42.6208
7.07579
63.7434
0.62686
0.249872
0.830401
1.28037
6.02228
1.6856
1.11057
8.68701
2.27965
13.6488
43.1941
10.4458
53.3705
1.88407
7.4944
3.90992
0.657381
11.2284
1.45272
4.76341
1.15313
2.86792
1.50403
132.689
2.7509
2.10576
1.13892
3.36406
8.07588
1.48643
1.68811
9.8152
5.22375
3.96997
7.12205
6.17779
1.42542
5.57213
3.43944
2.80764
4.48552
0.69488
50.1965
3.19998
4.5261
12.8029
0.720412
0.727606
0.259292
80.263
4.20197
0.661111
79.418
1.47305
6.1032
45.6421
6.52334
0.66625
62.5337
57.0076
79.3054
1.31454
1.24611
1.32796
48.0664
4.82032
10.674
10.8805
16.2489
6.05748
2.04734
0.618341
0.595469
1.86387
0.544523
62.8238
1.25801
1.20821
94.694
1.16253
11.3717
1.08454
23.7091
128.249
15.4385
14.6941
7.98747
1.17336
0.559466
6.05167
1.6029
99.528
81.3439
1.26667
6.27153
13.9839
11.3199
1.73396
69.6155
111.81
1.38482
0.886852
1.18996
1.10222
1.00802
0.35034
1.50779
1.70456
3.59834
1.69306
0.960797
2.1015
11.0186
6.80953
1.1355
0.951188
2.73249
1.56634
34.1551
2.17994
3.21056
41.6617
16.341
53.5627
6.27071
18.5436
2.56429
9.79247
5.58755
5.34205
3.96466
0.447011
1.06445
0.63955
31.466
1.9059
0.567871
6.24804
52.4363
9.25055
32.2452
4.44044
4.59207
2.0862
74.4814
68.0437
39.0315
0.558896
1.76017
4.96304
42.0582
7.37399
0.483022
10.5937
47.2941
10.1434
60.7095
3.55832
1.39414
0.97106
4.01603
17.9733
1.11049
5.62774
5.02392
13.3292
2.49988
2.28713
3.96364
11.3792
1.22086
18.096
23.7811
49.1504
13.7243
10.1052
8.90543
2.32077
0.213327
1.24798
5.11507
0.370435
5.03751
3.40966
0.437571
6.31863
16.8319
6.10101
8.87999
0.360813
16.7046
81.0703
51.8019
3.46728
0.346571
16.6523
66.8324
5.10975
66.1905
37.3733
32.3876
3.82956
0.331605
1.18232
2.23594
0.254011
1.04097
9.11204
0.254549
0.26051
2.07044
5.91486
18.4016
2.12776
0.54904
6.35259
1.00954
2.57269
0.333796
4.83938
24.4533
2.42488
6.77837
29.7849
6.81878
4.86756
1.1543
33.1798
6.80233
76.2224
22.3096
2.33726
2.08793
1.49859
8.06863
30.6952
72.0524
2.32942
7.23546
11.8066
1.36354
3.69537
18.1952
0.588335
2.97754
3.69263
8.69484
0.476626
13.6837
9.49884
3.65948
29.245
0.30321
7.65071
2.60559
24.9588
11.5841
11.7851
24.9898
20.5779
0.217867
20.9772
36.7531
0.965761
10.9591
2.77406
0.999477
1.77675
1.33497
29.9736
14.9074
0.419535
65.3618
24.4662
17.1237
2.7078
1.83662
0.269837
0.775277
0.299486
8.10969
5.15311
17.2806
0.298107
4.17747
0.234775
0.627086
29.4402
27.9432
8.87614
13.9287
168.163
0.975428
0.19506
0.471453
9.51164
27.8294
25.1491
5.57414
108.662
5.52993
1.5047
23.8913
9.61851
5.32787
72.6903
0.228663
26.2656
12.5437
47.305
29.928
0.609462
0.984204
0.569173
28.3705
28.1911
60.9093
4.24539
3.15426
1.32572
7.76674
3.07951
26.3039
61.5566
13.0266
1.11405
40.174
22.2179
5.34551
20.462
42.5038
0.256396
52.4916
4.3399
28.7196
31.4305
4.28253
3.30494
13.0553
29.1407
18.294
112.15
54.3436
47.4543
34.0361
34.4129
9.87284
38.6306
6.51472
39.3347
42.748
29.8237
1.12279
65.0437
0.255535
0.330364
7.58858
37.765
0.736588
39.0106
1.81558
0.258299
0.76681
2.21572
33.219
43.234
0.665099
149.112
0.221908
0.522177
3.80794
133.082
5.95378
4.30966
81.5875
35.9065
13.9624
10.3416
0.322552
0.240305
65.1932
5.87677
1.7924
38.6153
6.08832
0.227563
1.00042
1.20032
40.277
1.72121
44.3293
0.454555
8.5576
6.10701
54.1579
0.349146
79.57
31.1971
37.1437
40.4905
46.6154
35.1067
27.8212
31.8706
35.3364
3.13905
3.766
17.1876
2.1495
44.8823
0.215062
0.457072
1.92911
0.252899
0.825701
0.74755
0.440365
28.2312
1.25849
30.4917
0.634414
1.32235
4.36721
8.42841
8.55018
34.6963
92.8238
6.96369
0.626917
2.39617
2.3574
6.1786
4.90258
3.68398
1.54519
0.815201
40.2698
3.00063
21.6072
59.4598
11.0458
12.3215
5.66204
4.46477
0.347156
1.66074
1.03656
0.421608
5.20544
4.92166
0.612428
0.318985
11.668
37.7635
1.86931
6.81938
0.32187
7.12834
1.71138
1.37109
1.16399
6.78333
0.769924
0.254131
2.93239
0.36948
10.3823
0.35807
2.80286
49.9161
40.979
10.8521
20.5191
79.8054
19.832
7.93527
7.12391
58.5169
0.244247
0.741276
1.0928
0.388447
0.928346
0.973152
2.50495
1.76918
59.6174
53.1581
25.5885
6.40738
0.288948
1.91891
2.66931
5.55787
93.8179
1.41918
2.8726
16.5218
13.1313
13.2512
10.3952
0.432288
1.12737
5.54581
2.73082
6.01203
5.07442
42.9406
0.48589
34.653
27.0303
36.2719
56.8075
4.35867
4.96602
20.2378
16.6616
18.3264
22.0775
15.2101
13.9713
3.68963
1.28068
1.02878
6.90202
12.6054
0.388473
0.806323
96.6919
0.596081
1.47251
1.1104
15.4766
1.26699
29.9258
2.63848
101.408
0.41975
10.3741
1.65211
2.39867
2.16035
47.1454
37.334
0.676468
1.37389
2.82816
1.30522
6.9046
63.4965
0.544873
25.6234
11.6892
2.79891
2.48322
31.6701
33.5285
4.21146
6.3504
1.62666
3.58682
3.73529
6.67044
18.8595
1.61945
60.0982
37.8622
48.8729
1.541
62.5866
0.179006
35.7533
0.621781
6.97815
1.36796
4.40258
11.6686
0.504603
81.6351
43.7214
120.261
0.80773
76.143
86.8504
23.1324
3.36719
4.27091
4.56265
37.8558
69.5356
13.065
5.36481
24.0806
9.13755
5.77223
8.66155
54.9299
73.9201
39.5915
39.2204
1.71783
27.7675
13.6656
42.2253
0.610989
32.7228
44.283
0.580693
1.26365
1.21472
25.3907
156.13
17.2501
9.92901
2.82258
83.3691
1.21695
36.575
60.9354
10.7635
1.17501
2.64293
36.4608
0.950745
0.516521
0.23268
1.25123
0.625568
62.5376
31.7232
4.31497
43.5313
0.649285
30.662
44.3827
23.4741
1.98508
1.29024
2.1935
18.2435
0.622447
5.06428
1.29415
73.474
12.9898
39.6681
5.29542
2.61193
18.5429
11.0884
11.4813
37.9721
2.64024
4.6085
30.8573
34.8646
6.53589
1.00441
1.04235
69.6653
14.1819
14.1382
1.04328
0.776745
0.916777
0.530306
7.34128
0.736168
28.8887
55.2866
22.8267
63.3863
0.665351
17.9327
0.906377
5.05417
43.4359
0.375306
1.8992
12.0805
0.570176
56.5397
83.2861
0.263399
18.7675
77.8356
1.69878
14.6196
17.1766
0.385672
0.218804
45.088
0.804737
65.5238
1.2568
59.0803
3.22523
78.3545
6.51262
0.6464
17.9005
7.01994
0.556779
1.03175
15.3084
0.40405
102.551
0.163168
1.40673
1.2448
2.28927
1.60263
14.4665
1.35881
0.627035
84.0364
4.66178
5.87795
2.0721
28.2225
0.593196
0.24419
0.518976
2.77483
105.849
23.9908
4.96531
4.82448
59.0241
1.11619
59.813
7.3748
53.8645
0.414134
0.223646
53.31
1.12699
1.51424
89.4719
48.4575
45.823
8.90477
113.93
0.447139
0.413452
1.02983
22.6675
61.7827
111.382
0.310146
0.29459
0.211593
12.1216
9.17236
94.063
95.0673
39.081
14.3825
4.80859
1.04299
3.04109
2.15522
106.319
45.8952
4.47496
0.463856
1.78845
43.7877
72.6901
56.9062
28.4277
0.222881
0.743366
59.5166
30.6542
0.314365
88.3669
46.2606
62.3412
3.67902
2.61237
11.0199
36.8734
33.957
56.0991
0.990196
80.6342
46.7836
12.6646
0.236486
21.6623
13.2127
14.2276
44.3248
33.3872
8.51385
1.09066
0.354016
86.7671
2.09779
1.10623
71.6241
2.2872
24.9946
35.2597
0.806949
64.6287
4.6794
9.09575
8.72298
19.813
12.6214
37.074
92.282
0.911193
90.2777
0.433145
18.5804
54.4141
0.718639
0.625689
0.859161
1.58646
75.1612
41.6912
3.88543
4.54563
5.77437
0.754231
1.21538
29.5984
9.02777
0.8644
12.7078
4.63946
1.81384
105.175
14.105
60.1003
30.9229
32.3765
1.87033
0.217482
0.957591
60.9907
47.7841
18.3325
12.3869
12.2694
50.1995
1.43935
94.9996
8.31392
1.7504
0.486292
7.63379
14.8366
5.65383
15.6736
7.81508
34.5012
41.124
23.764
2.12158
5.82322
14.3656
2.33656
79.9917
26.0458
77.3486
16.7132
1.81128
84.7664
45.847
52.8044
0.351705
3.69578
13.0987
1.90139
56.7666
0.215572
0.459082
44.96
6.01757
49.1915
38.5026
11.275
11.1198
7.42279
12.5376
2.07546
14.4713
11.862
20.2943
0.674312
1.3008
3.06442
0.535663
10.9747
50.5688
1.27029
1.67621
0.568909
0.23826
0.521418
13.7756
0.573588
69.3778
52.3615
13.3347
4.46061
5.18584
1.7355
2.5597
0.64364
0.666664
5.38894
0.518282
70.1468
5.89539
28.8878
0.966129
7.13845
2.78307
0.906738
122.16
0.432565
0.670566
1.21102
5.0717
2.7742
0.426172
0.612707
35.8918
1.21559
3.74969
1.35675
0.681455
1.93866
30.2421
9.69949
4.91574
3.01977
0.561719
7.36614
0.649063
60.7519
1.56126
9.94456
5.01676
0.29631
20.1608
37.2958
8.27292
10.9788
1.17199
3.84571
1.84902
25.8153
0.246982
6.71372
20.6315
16.4052
46.049
0.633975
159.059
6.11064
44.3357
82.488
12.0944
3.2332
1.06802
18.5536
8.30996
53.6662
0.967954
31.682
0.240187
45.2017
0.234547
0.60534
17.7112
7.01282
12.6071
8.24706
56.5479
1.4225
50.2455
41.4711
34.1254
41.5115
4.83834
1.18022
3.38111
66.072
15.521
11.8919
11.8882
78.8962
18.3912
94.0512
20.479
26.4369
23.8223
5.05709
44.3881
18.1685
2.47268
49.9319
136.145
2.65175
42.0594
79.8288
)
;

boundaryField
{
    frontAndBack
    {
        type            empty;
    }
    wallOuter
    {
        lowReCorrection 0;
        type            epsilonWallFunction;
        value           nonuniform List<scalar> 
90
(
27.6021
25.1491
23.8913
26.2656
29.928
28.3705
28.1911
40.174
22.2179
28.7196
31.4305
42.748
29.8237
37.765
33.219
81.5875
31.1971
37.1437
40.4905
46.6154
35.1067
27.8212
31.8706
35.3364
34.6963
59.6174
53.1581
34.653
36.2719
20.2378
16.6616
18.3264
22.0775
15.2101
13.9713
12.6054
1.1104
1.26699
29.9258
10.3741
1.30522
6.9046
63.4965
0.544873
1.62666
3.58682
0.179006
35.7533
0.621781
43.7214
54.9299
25.3907
30.662
39.6681
30.8573
1.04328
0.736168
28.8887
55.2866
17.9327
43.4359
0.375306
0.263399
77.8356
45.088
59.0803
78.3545
0.40405
102.551
0.163168
45.823
0.447139
111.382
0.211593
95.0673
106.319
28.4277
30.6542
0.314365
62.3412
35.2597
90.2777
0.433145
30.9229
23.764
0.23826
122.16
0.432565
35.8918
20.1608
)
;
    }
    inlet
    {
        type            fixedValue;
        value           uniform 14.855;
    }
    outlet
    {
        type            zeroGradient;
    }
    wallInner
    {
        lowReCorrection 0;
        type            epsilonWallFunction;
        value           nonuniform List<scalar> 
138
(
1.85656
2.85475
30.9566
2.51681
1.63696
7.61326
77.5623
29.5171
1.6329
1.18451
28.4821
48.3979
0.341953
3.31133
0.666155
3.31259
2.80597
1.32173
0.660877
72.8446
145.34
36.1595
0.657265
30.6806
33.8534
38.0537
28.7014
40.325
31.667
34.7711
32.2338
0.703326
0.608309
0.205521
0.222909
0.599295
1.38171
2.65162
1.95912
0.86752
0.986532
1.8716
2.17307
0.759254
1.17311
1.1803
0.632984
0.960191
0.783223
0.554615
0.198285
0.3554
0.687273
1.11419
1.35279
3.20496
0.897872
0.370304
2.04952
1.01382
0.726713
1.08485
0.89681
0.995821
0.361844
0.233561
0.798922
11.4477
42.6208
7.4944
132.689
1.13892
1.68811
3.19998
45.6421
1.31454
48.0664
0.618341
0.595469
1.86387
1.25801
94.694
128.249
99.528
81.3439
111.81
2.56429
0.63955
31.466
32.2452
0.483022
0.370435
0.54904
0.476626
0.965761
0.775277
0.299486
0.609462
0.569173
13.0266
54.3436
6.51472
7.58858
2.21572
35.9065
1.00042
1.92911
30.4917
0.634414
0.815201
1.91891
42.9406
1.28068
1.02878
0.806323
31.6701
48.8729
1.541
76.143
86.8504
0.622447
1.04235
69.6653
1.69878
1.35881
4.66178
59.0241
1.11619
1.04299
3.04109
0.806949
11.8882
44.3881
18.1685
2.47268
136.145
2.65175
79.8288
)
;
    }
    procBoundary0to1
    {
        type            processor;
        value           nonuniform List<scalar> 
29
(
1.53422
2.23793
2.94211
2.94211
43.8881
43.8881
124.112
20.4876
79.6293
9.95435
17.7341
54.6696
3.17985
1.8353
68.9528
26.2773
56.5221
68.9551
5.3759
2.36737
11.2183
6.17861
60.2288
10.433
10.5183
68.9551
8.25458
65.9075
10.433
)
;
    }
    procBoundary0to2
    {
        type            processor;
        value           nonuniform List<scalar> 
42
(
16.951
10.0654
1.08278
1.05166
0.234471
16.951
1.08278
1.00273
0.193258
0.231655
0.705612
1.45741
0.705612
2.14738
3.06549
19.0262
3.06549
0.254171
0.202868
2.48473
2.48473
0.254171
0.216177
5.37998
5.37998
0.20621
13.6639
0.177294
18.5806
7.60633
7.60633
0.183346
0.21329
0.241135
0.27143
1.08278
5.37931
1.347
18.5806
1.00273
0.646266
0.38952
)
;
    }
}


// ************************************************************************* //
