/*--------------------------------*- C++ -*----------------------------------*\
| =========                 |                                                 |
| \\      /  F ield         | OpenFOAM: The Open Source CFD Toolbox           |
|  \\    /   O peration     | Version:  v1912                                 |
|   \\  /    A nd           | Website:  www.openfoam.com                      |
|    \\/     M anipulation  |                                                 |
\*---------------------------------------------------------------------------*/
FoamFile
{
    version     2.0;
    format      ascii;
    class       volScalarField;
    location    "0.96";
    object      epsilon;
}
// * * * * * * * * * * * * * * * * * * * * * * * * * * * * * * * * * * * * * //

dimensions      [0 2 -3 0 0 0 0];


internalField   nonuniform List<scalar> 
1431
(
111.191
42.9773
3.67902
0.170637
5.71389
39.3844
0.278548
381.405
53.2043
0.280113
114.044
283.484
39.1876
11.6604
27.6298
0.272555
25.2972
10.0059
21.8677
15.8078
237.686
14.6748
56.8363
328.717
57.2679
22.0482
75.2388
15.0667
68.2548
33.7488
24.1727
35.6557
21.8652
7.30209
44.5718
5.93316
90.2184
0.408273
0.235673
28.6126
80.7563
84.4271
32.2183
0.21387
62.7955
5.93147
28.5455
62.1933
0.274683
0.334391
29.1537
0.257617
34.3116
315.418
31.678
20.3866
6.38995
311.889
44.2559
19.0409
18.8272
0.264081
0.419464
0.40451
0.308875
0.287719
10.2618
0.897473
2.7692
20.4065
325.933
9.74052
0.158499
6.51757
14.4571
8.31094
6.15205
0.53375
0.32541
5.90594
30.7308
3.56409
168.837
36.2929
169.792
0.186847
0.175266
27.23
203.531
229.417
39.1858
7.37224
0.662675
0.286274
29.9816
36.7521
321.439
127.528
0.212319
13.0947
28.1013
0.218245
31.3676
9.00385
1.65974
39.8161
48.8546
121.326
50.099
35.5755
14.2672
46.9054
2.65868
81.6024
42.0648
6.58878
12.9052
0.197718
0.243481
0.435513
27.5182
41.9282
395.286
17.2196
270.115
0.656903
4.13739
15.7655
3.91769
4.12147
29.2701
14.6159
4.1358
22.4332
27.0191
0.387711
1.52247
0.24684
174.502
0.786691
0.524086
20.254
41.9227
5.82132
66.6801
21.9987
0.589648
30.9506
0.300609
10.2643
0.408269
3.54462
31.1198
0.29167
41.2543
0.80157
165.72
68.3883
210.094
0.155848
201.313
47.2575
0.210577
0.160369
263.185
95.652
88.068
40.9594
0.346668
89.3506
205.179
36.2814
24.7789
178.944
55.6831
164.845
1.24452
46.6816
33.8
44.0336
0.370793
0.411323
25.6905
500.963
43.4517
94.9694
141.008
72.4421
26.4624
200.835
21.3577
29.3783
29.3494
157.308
0.213363
82.6421
122.77
37.4642
2.17928
73.7942
32.5772
0.195718
81.926
0.241441
40.915
23.2336
41.7716
2.45509
207.634
37.0043
187.919
0.244424
45.768
41.2024
191.071
23.9002
32.3535
38.0811
24.9855
71.8913
41.1596
25.5878
74.7912
0.175219
44.4407
266.959
106.284
107.586
41.3204
43.8866
327.169
23.1142
38.4986
27.5535
36.8997
203.857
42.1158
39.6133
20.6414
23.7077
2.05839
38.2212
231.433
30.7655
28.2976
38.9048
35.1869
84.9768
43.6847
0.476512
10.384
167.66
0.157807
0.170471
22.1585
70.7827
0.164902
321.049
175.737
31.5888
40.8054
172.862
25.3915
0.317715
49.6544
95.5532
55.3033
238.373
58.6108
6.36045
55.0965
38.0093
33.7528
17.259
192.946
24.8607
183.01
42.7324
54.2874
59.9184
41.6092
79.6401
21.9755
22.6624
15.8586
153.215
74.4967
150.62
187.287
42.5422
2.10066
58.0465
106.289
34.8578
30.4806
43.1049
175.071
109.773
22.2976
62.2986
34.9878
8.15652
26.0899
29.4475
52.0926
0.171893
53.8359
31.1919
85.4057
71.669
94.0759
3.14107
0.271918
99.9562
51.4137
114.234
38.5133
23.185
1.46862
764.42
50.0746
99.4975
6.77812
30.2077
39.2819
2.76491
9.87301
60.2791
304.76
0.174963
88.6782
2.69927
58.4628
18.151
0.505512
29.6866
59.1622
193.144
39.7202
102.803
3.47842
30.4118
76.3593
76.5238
49.9533
28.9727
35.3283
178.664
74.6828
33.9708
41.7091
3.29058
30.8803
53.0135
8.06585
21.5628
183.374
143.94
158.411
77.2354
17.3526
77.4034
73.9036
18.8971
1.96434
143.882
57.9557
609.827
44.7021
20.2115
104.753
7.41612
218.731
34.4119
71.2379
372.457
59.9756
16.7823
15.4518
453.253
54.801
40.194
23.1771
10.9809
785.309
44.965
39.2196
50.7354
35.5096
34.3544
5.96673
41.6479
41.8697
0.176718
193.924
32.6741
55.8822
58.4177
62.1373
41.4489
57.661
66.3922
145.173
67.349
10.9584
53.203
40.317
25.3647
9.44889
51.9721
68.7724
39.5061
50.9148
33.517
48.0338
5.21051
43.2521
33.1035
39.8166
50.0407
53.6958
39.6041
23.3832
47.3935
49.3318
10.3474
7.56085
28.4858
2.50837
261.426
62.3565
67.9199
73.1653
74.4242
74.466
69.122
64.9704
70.7249
64.2763
68.6547
10.1014
171.52
5.87278
2.4141
3.01691
1.77702
1.1728
1.26337
33.3092
15.8994
16.6085
0.369045
0.26791
7.94701
0.27382
0.265175
19.7034
275.502
9.0071
4.7276
17.0606
0.442187
264.399
0.252562
4.48363
0.467414
8.12414
257.852
0.426612
250.075
0.233327
0.235098
4.74045
27.9716
175.385
162.503
0.448821
0.960087
1.35746
0.301388
24.8566
1.48102
180.397
2.87416
4.08489
25.9534
4.30205
2.80343
3.13626
2.53281
196.073
1.05725
2.83643
3.25616
28.855
4.12573
2.49467
202.716
2.55621
34.8546
19.926
9.54236
22.5307
28.6114
196.888
167.679
5.41848
6.29047
5.34294
14.0868
3.83036
32.2453
2.1855
2.16288
28.8498
0.172357
16.8174
5.75047
40.2593
176.074
51.2658
9.88622
35.3376
0.178943
11.9057
0.174501
190.466
28.1982
11.6729
21.8353
38.7554
22.5825
22.5104
83.6823
66.6658
3.5339
21.9832
166.158
12.7747
18.6065
49.975
39.8033
85.2659
16.9197
57.2182
20.7496
29.9192
145.462
53.0683
72.9086
38.2838
31.8772
62.4635
47.692
0.406582
83.8327
0.169327
22.6401
149.216
323.589
74.4953
175.999
116.25
29.3399
548.622
30.0416
22.1791
0.166624
27.233
63.4336
45.3763
91.0304
60.9323
12.2125
48.7321
35.3351
0.178392
167.703
50.7077
61.4426
46.0135
65.4089
61.6328
43.5698
49.2112
35.9247
27.3381
21.0512
67.1797
21.941
36.5712
249.937
28.2316
30.0647
47.7205
59.1171
24.3688
39.6113
91.2971
190.888
165.795
21.2144
50.9034
20.3131
44.5402
40.3886
101.856
59.3053
5.35096
2.10349
0.177652
25.7681
41.7678
49.427
69.8971
59.5907
226.298
0.189133
19.831
43.2618
55.4403
42.0411
39.4023
45.3152
28.2319
43.141
63.2326
8.17569
58.2755
21.4624
31.1056
28.1368
0.344163
57.804
45.0046
41.2197
324.572
11.9816
74.1376
29.7198
64.5327
134.3
3.20938
50.2803
192.596
25.409
37.7963
37.1921
240.441
46.9769
25.0269
79.5545
142.366
47.9081
4.16515
38.0167
53.6472
47.9383
9.6967
199.751
202.668
60.3963
28.3332
34.3691
26.101
44.1237
17.5219
5.42129
31.4042
4.34614
48.3396
54.7209
294.328
66.1682
22.6818
28.7126
304.253
19.8634
51.8977
22.1241
29.2053
19.5953
43.8093
299.082
0.482661
6.26716
37.7116
61.051
8.89724
87.5488
102.835
43.3492
80.7656
60.7245
22.6912
77.4449
314.506
53.6082
12.0101
103.785
207.076
40.4637
46.9106
39.8223
153.17
321.381
120.914
259.388
34.831
46.431
63.4578
24.0409
35.641
45.2939
2.1395
87.6311
29.9702
74.334
10.1377
72.1443
88.4363
24.3773
164.668
40.5411
9.96918
59.0222
74.7745
33.182
114.874
162.971
0.547012
108.679
25.4474
8.16685
132.268
40.2244
75.5271
372.427
308.921
0.163725
39.1847
54.79
14.8256
59.4167
50.7511
39.7238
29.7548
9.53538
65.8469
0.236459
14.8911
24.8822
21.0406
0.231371
408.954
61.4591
58.1243
4.59334
42.6566
47.7992
396.686
135.129
42.6361
0.269759
4.76723
51.2893
0.255594
0.26741
51.6623
19.4179
28.8669
39.2843
59.5553
68.206
61.5072
30.2079
1.99083
28.4014
58.0003
26.1677
40.7335
2.31429
40.2476
0.400521
120.232
174.421
43.057
35.4786
25.65
35.0543
69.1968
11.4536
40.3441
60.2178
36.0453
5.45825
0.172816
36.8185
0.178093
39.2651
29.4285
21.9078
10.987
54.5518
51.7288
712.834
35.074
43.0769
29.3283
44.5997
531.166
0.675206
29.9796
176.886
73.1804
293.496
35.7202
8.88093
83.4336
64.6296
1.84362
88.9684
38.3863
61.0095
159.402
40.3598
64.7705
19.8107
7.83032
1.04243
74.0564
418.913
335.894
27.2618
39.5126
297.071
48.6605
83.6333
48.1585
17.8887
40.8758
1.61377
1.21956
40.6637
44.3024
207.565
3.16101
340.044
27.5098
173.309
45.3201
20.0223
21.473
22.5523
8.04736
0.67278
8.14327
58.2707
4.27822
1.0038
22.5239
41.217
57.392
29.831
46.5638
51.6885
44.5483
0.557884
174.176
49.7814
61.5792
579.761
60.4928
114.686
34.9729
14.6951
0.280301
119.748
47.7502
88.6937
255.302
0.192485
78.5048
189.708
505.307
311.623
404.499
65.8125
55.4239
60.1532
67.5548
64.03
72.1274
52.7097
44.5119
40.5272
43.1724
43.3097
55.3087
78.835
39.4179
42.6187
46.7404
36.686
52.4074
52.0724
35.6616
51.4446
49.9799
35.7132
47.5497
39.6014
144.284
0.365124
8.73569
40.6217
13.4768
11.9074
237.632
45.1461
20.3064
12.5724
33.5241
11.5112
327.051
24.6117
1.72977
164.301
55.8217
48.7054
22.7499
0.18143
323.023
5.06705
44.9132
42.5396
37.4851
9.05761
8.40065
155.985
32.5811
28.5366
38.8737
59.6879
29.8056
33.1278
171.225
0.506225
0.210172
8.50524
0.177318
40.0941
66.9823
33.4251
12.3464
34.4488
6.95208
26.4589
12.2135
10.5525
35.562
168.84
51.416
38.504
93.9376
5.58627
30.0209
0.873555
44.8375
9.92446
0.122674
37.5444
34.3623
382.493
1.65707
26.9099
7.08461
34.2527
0.259664
841.839
52.5856
37.684
1.21834
342.835
54.5005
175.602
0.250707
1.88298
0.167332
6.32661
2.8165
45.8332
37.3675
372.596
218.067
44.5482
53.674
0.174919
44.3978
18.5232
48.4086
31.7814
21.5904
50.9179
67.0785
47.2469
90.061
85.0621
0.192054
0.384606
21.523
67.9091
61.1047
5.99328
44.6541
40.9982
36.7075
13.7938
41.6074
37.4648
183.769
412.848
0.286533
69.7451
35.2722
0.1596
56.8715
336.723
33.4461
45.3276
22.2297
191.745
164.765
4.18773
12.4797
38.7529
42.2603
460.299
183.29
76.2419
38.8395
0.121285
124.694
0.184058
61.1937
30.0438
412.971
88.7582
310.508
183.626
59.9886
5.05168
49.1523
0.174743
1.7664
0.206914
0.254509
0.184217
43.653
83.2459
41.7773
31.9794
76.1197
195.42
0.467988
5.08544
53.0328
440.722
50.6208
417.55
88.2185
54.3935
473.709
43.6887
502.772
501.139
517.428
383.892
386.963
361.101
516.338
324.054
0.383937
0.319348
0.439072
0.389713
0.453623
0.456719
40.41
41.0199
75.5269
50.8114
62.6723
34.3678
0.178185
40.92
0.358632
0.275447
39.6941
0.458799
32.607
31.3945
0.159222
19.0497
4.74169
97.4473
55.7041
42.9846
46.0286
39.9974
12.4599
39.5619
670.805
33.8718
7.04813
30.776
70.8779
1.86691
24.5048
171.821
1.96109
55.1196
0.211365
11.9342
0.174747
37.4289
25.8086
10.871
0.197299
26.7597
5.86045
3.48567
88.938
83.1044
4.86792
16.4718
26.651
170.547
0.381601
176.168
258.083
13.8165
207.594
34.5048
18.2621
47.1124
167.407
0.190021
46.6318
57.7497
111.964
73.6687
36.598
42.1036
6.56079
0.483945
71.1006
25.0098
42.49
150.158
218.601
214.535
130.323
25.1466
35.5581
55.7883
0.395212
4.13737
3.88981
27.8654
6.06935
238.716
46.1724
2.94512
157.38
38.4578
13.0866
70.2943
5.06255
51.036
156.66
53.8267
46.8246
0.470942
62.7726
62.0635
203.133
78.4649
388.273
0.228403
6.24478
25.4698
305.436
191.589
97.6729
65.6976
55.3604
0.168399
330.106
5.18683
44.8177
23.8058
24.2467
8.45508
69.286
0.17964
52.8155
43.7762
209.874
9.02698
54.7763
27.5437
17.415
0.176277
3.9654
0.480649
144.221
25.1596
65.6638
165.627
49.1563
43.6543
38.8692
25.7947
0.161795
23.8037
12.2204
45.7718
485.6
39.7176
680.405
41.5616
13.562
39.5029
175.884
39.176
0.259523
16.9212
26.2464
114.54
23.4799
83.6963
117.703
64.7372
12.2779
35.2721
10.0438
0.180698
41.7193
222.214
65.7798
231.669
47.2494
19.4272
40.9887
44.2443
28.3462
12.7472
8.80998
11.2371
0.182567
38.85
447.143
40.3945
41.1805
0.549581
6.22294
28.1354
39.1712
21.8228
496.02
62.5581
79.7187
156.244
7.48042
41.8749
49.2131
40.4207
152.912
50.8372
69.7757
38.3605
58.4038
19.3744
72.7531
25.671
38.4354
332.923
36.0528
5.55004
28.7894
54.7598
87.7855
26.9103
48.6051
14.1428
293.018
16.7403
4.30249
0.428415
570.355
40.3804
62.4045
0.528226
4.73391
267.074
21.4228
295.402
1.42343
0.246522
4.2609
422.854
0.242091
403.806
222.835
3.99443
53.7976
181.378
297.383
84.6448
359.565
7.90752
6.49283
43.7807
49.7382
4.89322
172.94
0.178776
77.131
491.191
367.903
27.4982
27.9968
0.142367
191.708
1.31809
38.8529
23.7825
287.15
0.281401
2.02357
6.32343
120.03
67.8728
41.0087
4.7819
0.176223
2.34573
234.479
364.419
0.670219
42.1857
5.73484
0.574625
26.0389
32.564
10.8953
49.5324
0.175803
26.2812
25.2881
34.6697
231.604
33.7749
0.260151
43.9005
28.5652
0.172334
0.383598
51.71
14.0127
0.178716
21.0857
24.1873
32.4666
0.229581
0.322294
231.98
201.194
79.05
17.3068
0.174291
3.53589
0.718588
41.4221
0.662901
0.80306
6.68136
8.01554
5.82798
0.182323
201.216
45.9189
20.8851
48.5186
72.3627
181.629
41.0935
0.178481
8.03978
95.8982
63.4981
194.045
2.88971
9.65266
4.81179
24.3661
2.79626
18.127
14.9643
16.0941
2.14068
158.978
239.772
56.2637
104.784
10.4493
93.6717
30.3978
49.7564
118.275
11.5798
16.1637
45.1067
138.955
8.73519
0.458478
63.6183
65.2676
35.6768
7.83064
)
;

boundaryField
{
    frontAndBack
    {
        type            empty;
    }
    wallOuter
    {
        lowReCorrection 0;
        type            epsilonWallFunction;
        value           nonuniform List<scalar> 
96
(
68.2548
33.7488
36.7521
294.328
304.253
299.082
87.5488
60.7245
22.6912
314.506
12.0101
207.076
39.8223
321.381
259.388
372.427
308.921
39.1847
1.99083
120.232
5.45825
159.402
40.3598
418.913
335.894
65.8125
55.4239
60.1532
67.5548
64.03
72.1274
52.7097
44.5119
40.5272
43.1724
43.3097
55.3087
78.835
39.4179
42.6187
46.7404
36.686
52.4074
52.0724
35.6616
51.4446
49.9799
35.7132
47.5497
44.9132
66.9823
33.4251
44.8375
0.122674
382.493
44.5482
90.061
69.7451
35.2722
33.4461
460.299
0.121285
0.184058
412.971
440.722
417.55
473.709
43.6887
502.772
501.139
517.428
383.892
386.963
361.101
516.338
324.054
0.383937
0.319348
0.439072
0.389713
0.453623
0.456719
34.3678
0.159222
37.4289
36.598
388.273
0.480649
485.6
496.02
69.7757
38.3605
0.242091
359.565
491.191
0.142367
)
;
    }
    inlet
    {
        type            fixedValue;
        value           nonuniform 0();
    }
    outlet
    {
        type            zeroGradient;
    }
    wallInner
    {
        lowReCorrection 0;
        type            epsilonWallFunction;
        value           nonuniform List<scalar> 
126
(
44.2559
19.0409
18.8272
0.264081
0.419464
0.40451
0.308875
0.287719
10.2618
0.897473
2.7692
20.4065
325.933
9.74052
0.158499
6.51757
14.4571
8.31094
6.15205
0.53375
0.32541
5.90594
30.7308
3.56409
13.0947
6.58878
12.9052
0.197718
0.243481
0.435513
27.5182
41.9282
395.286
17.2196
270.115
0.656903
4.13739
29.2701
14.6159
0.786691
0.524086
41.9227
5.82132
0.589648
10.2643
3.54462
0.29167
263.185
0.370793
94.9694
141.008
0.213363
187.919
6.36045
54.2874
59.9184
2.10066
175.071
109.773
62.2986
8.15652
3.14107
0.271918
99.9562
2.76491
9.87301
88.6782
102.803
3.47842
143.94
77.4034
73.9036
25.3647
33.1035
28.6114
28.8498
21.8353
166.158
39.8033
145.462
31.8772
149.216
48.7321
167.703
67.1797
249.937
165.795
39.4023
0.344163
192.596
142.366
153.17
120.914
47.7992
114.686
119.748
35.562
218.601
27.4982
27.9968
95.8982
63.4981
2.88971
4.81179
24.3661
2.79626
14.9643
2.14068
158.978
239.772
56.2637
104.784
10.4493
30.3978
49.7564
118.275
11.5798
16.1637
45.1067
138.955
8.73519
0.458478
63.6183
65.2676
35.6768
7.83064
)
;
    }
    procBoundary3to1
    {
        type            processor;
        value           nonuniform List<scalar> 
48
(
92.5142
87.3169
82.4683
91.6247
56.1332
94.8142
87.3169
11.8537
69.4508
5.57953
5.57953
6.67838
6.67838
4.26594
3.05412
6.12298
3.827
4.11796
3.827
2.90702
2.54727
2.4209
2.90702
46.1889
4.25852
2.0173
2.14774
2.4209
3.10329
14.0306
14.0306
6.57378
6.57378
69.4508
1.68039
55.3312
21.0007
4.25852
89.7219
46.7483
4.26594
36.0248
50.5218
2.90702
3.08991
67.371
52.4451
2.92059
)
;
    }
    procBoundary3to2
    {
        type            processor;
        value           nonuniform List<scalar> 
29
(
0.410072
0.410072
0.433111
0.355803
15.7646
1.56916
0.148503
0.62687
0.286567
0.291133
1.05303
10.578
0.437383
0.174235
0.168241
0.150798
0.282479
0.278212
0.441611
0.171351
0.16703
0.282479
0.392515
0.278212
0.195593
0.291493
0.278212
5.15284
5.15284
)
;
    }
}


// ************************************************************************* //
