/*--------------------------------*- C++ -*----------------------------------*\
| =========                 |                                                 |
| \\      /  F ield         | OpenFOAM: The Open Source CFD Toolbox           |
|  \\    /   O peration     | Version:  v1912                                 |
|   \\  /    A nd           | Website:  www.openfoam.com                      |
|    \\/     M anipulation  |                                                 |
\*---------------------------------------------------------------------------*/
FoamFile
{
    version     2.0;
    format      ascii;
    class       surfaceScalarField;
    location    "0.96";
    object      phi;
}
// * * * * * * * * * * * * * * * * * * * * * * * * * * * * * * * * * * * * * //

dimensions      [0 3 -1 0 0 0 0];
oriented        oriented;


internalField   nonuniform List<scalar> 
2708
(
-0.000520204
1.61754e-05
0.000206437
0.000297592
0.000166718
0.00021957
-0.00017077
-0.000215517
-0.000280453
-5.85052e-06
0.00017199
0.000114313
1.23364e-05
-1.27028e-05
-2.03485e-07
5.69886e-07
-0.000392612
-0.000210711
0.000300888
0.000302436
0.000795764
-0.00101879
0.000487879
-0.00026485
2.75614e-05
-3.10528e-05
2.93768e-05
-2.58854e-05
-0.000133508
0.000199674
-1.66047e-05
-4.95609e-05
-0.000665579
0.000687694
0.000717001
-0.000739116
2.29733e-05
2.79466e-05
-2.33585e-05
0.000944328
-0.000976767
0.000293744
-0.000261305
0.000279795
-0.000349245
0.000734359
-0.000664909
-0.000198917
0.000258767
-0.00025773
0.000197881
-0.000113544
-0.000379461
0.000353939
0.000139066
0.000369471
-0.000534299
-0.000116852
0.00028168
3.83335e-05
2.6659e-05
-4.20192e-05
-0.000734795
0.000562742
-0.000163897
0.00033595
0.000158156
-0.000266979
0.000174128
-6.53047e-05
0.000308529
0.000140636
-0.000410871
-3.82941e-05
-0.000141535
-6.02641e-05
0.000192678
9.12128e-06
-0.000406432
0.000798443
0.000552317
7.37315e-05
-4.2642e-05
-0.000144633
-0.000715106
-0.000393007
0.000574446
0.000533667
-0.000277806
-0.00124369
0.00128685
0.000234639
-0.000773637
-0.000607048
-0.000100399
2.86153e-05
0.000194917
-0.000123133
-0.0009513
-0.000163776
0.000138309
-0.000239046
9.62328e-05
0.000271376
-0.000128563
5.60921e-05
-0.000496158
0.000440066
-1.67757e-05
-0.00055913
0.000575905
0.000680559
5.32678e-05
-5.34639e-05
-0.000680363
-0.000629152
5.24056e-05
-2.49902e-05
0.000601736
0.000649687
4.98273e-05
-2.77641e-05
-0.00067175
-0.000248524
0.000182367
7.64293e-05
-1.02726e-05
0.000728336
0.000336853
-0.000749147
-0.000316041
-2.23777e-05
3.09134e-05
-1.77681e-05
9.23238e-06
0.000250355
0.000764933
-0.000158334
-8.75597e-05
5.65722e-05
8.46764e-05
-5.36889e-05
-4.91376e-05
7.47257e-05
2.25552e-05
-4.81432e-05
9.79916e-05
0.000553281
-0.00063011
-2.11627e-05
-0.000538652
0.000500521
0.000892015
0.000970563
-0.000154241
-0.000145076
-3.64454e-05
-2.37001e-05
1.88742e-05
4.12714e-05
-0.000472688
0.000704961
-0.000541764
0.000309492
0.000125374
2.30314e-05
-0.000160637
1.22314e-05
0.0001559
-9.41698e-05
-7.1162e-05
9.43137e-06
-0.000903162
0.000108431
-0.000156568
2.93751e-05
-3.02715e-05
-3.01563e-05
5.93598e-05
8.7903e-07
-6.37198e-05
3.48094e-06
6.68422e-05
-0.000333206
0.000366796
-0.000100432
6.00719e-05
-4.96796e-05
-2.81931e-05
1.78008e-05
0.000436205
-0.000219764
-0.000220907
4.46597e-06
4.72962e-06
0.000308511
-0.000155223
-0.000158018
9.7596e-05
0.000169562
-0.000132938
-0.00013422
-9.92502e-05
0.000225034
2.30353e-06
-0.000128087
0.000125133
-0.000205001
-8.76412e-05
0.00016751
-0.000422079
-0.000383659
0.00048591
0.000319828
0.000776905
-0.00017401
-0.000602895
0.000221674
6.0214e-05
-0.000281888
0.000130425
5.51669e-05
-1.57816e-05
-3.93853e-05
1.37938e-05
1.1624e-05
-2.54178e-05
-4.30334e-05
-4.45263e-05
-2.65133e-05
-2.26244e-05
1.17846e-05
1.07126e-05
0.000481058
-8.77926e-05
0.000103145
5.71891e-06
-9.56578e-05
0.000146247
-5.05887e-05
-0.000148871
0.000223664
-7.47935e-05
-0.000165413
0.000143322
2.20914e-05
-0.000259177
1.06533e-05
-1.30915e-05
4.52269e-06
4.69906e-05
0.000135377
-0.000289669
-8.97913e-05
0.000218856
-9.34825e-05
0.000299255
3.39275e-05
-0.000333182
5.64325e-06
2.16966e-05
-2.73399e-05
9.78823e-06
1.81584e-05
2.20781e-05
0.000136078
-0.000630194
-0.000104601
-1.04411e-05
-5.58823e-05
6.63235e-05
-0.000161372
8.16289e-05
0.000501662
-0.000421919
-0.000195264
0.000160077
0.000191087
-7.96001e-05
5.45754e-05
0.00119916
-0.00117414
8.61734e-06
1.51937e-05
-1.18024e-05
-1.20087e-05
3.17752e-05
1.24663e-05
-5.25736e-06
-3.89841e-05
0.000188416
-0.000209786
2.37219e-05
-2.35226e-06
2.77299e-05
2.47757e-05
-0.00100247
0.00094996
-0.000119506
4.59044e-05
-0.000744338
0.00081794
-4.93083e-06
0.000237267
-0.000107203
0.000220034
-0.00021961
-5.35558e-06
6.37591e-06
-3.3234e-05
8.34304e-05
-2.3374e-05
3.88483e-05
-4.85564e-05
3.30821e-05
0.000140409
-0.000103872
6.10597e-05
3.74337e-05
-0.000491218
0.000453784
-0.000307697
-0.000281188
-0.000389506
0.000455489
0.000215205
-3.90855e-05
-3.52603e-05
3.79004e-05
-0.000176145
0.000170365
5.77999e-06
0.000303274
-0.000204147
-0.000198378
4.63022e-05
-3.02209e-05
-0.000478404
2.13739e-05
-3.76716e-05
0.000494702
-9.49255e-05
-6.47793e-05
0.000138931
2.07735e-05
-2.21788e-05
-1.34625e-06
2.91683e-05
-0.000614399
-7.28239e-07
0.000625305
-1.01779e-05
3.91532e-06
0.000625688
-0.000607637
-2.19666e-05
-0.000114898
0.000689418
-0.000742129
0.000167609
0.000519007
-0.000329704
-0.00058231
0.00060882
-0.000310319
4.27012e-05
8.40476e-05
-0.000367124
0.000190349
0.000435542
1.65653e-05
6.51939e-05
-0.000109488
2.77289e-05
-0.000679981
0.000610214
0.000570289
0.000117266
0.000219013
-0.000173756
9.47616e-05
-7.55112e-07
-2.36299e-06
1.09803e-05
-2.92395e-05
-5.5969e-05
-9.2902e-05
-8.02602e-05
-0.000454039
0.000135561
-0.000130831
-6.6005e-05
-6.62611e-05
0.000209583
-1.09924e-05
2.07806e-05
1.88017e-05
-7.98276e-05
-0.000203665
0.000166641
0.000107299
-0.000279569
0.00016642
-2.06969e-05
3.13459e-05
2.60936e-06
-1.32584e-05
0.000218756
0.000343986
-3.87858e-05
-0.000228193
-4.79461e-05
-2.49156e-05
5.21648e-05
6.75256e-05
-0.000305692
0.000546695
-0.000139962
0.000219072
-0.000220645
2.69916e-05
-5.08632e-06
-3.90278e-05
3.39355e-05
-3.08074e-05
-2.08834e-05
1.77553e-05
5.31514e-05
-1.98314e-05
-4.91016e-05
0.00115676
0.000121933
-0.00111932
-0.000159375
9.10523e-05
1.35811e-05
6.11446e-05
0.000643179
3.07956e-05
7.84992e-05
-0.000752474
-0.000183571
0.000384775
0.000373242
0.000112891
0.00057423
-4.4128e-05
-0.000250722
0.000264551
0.000289445
3.31179e-05
0.000119984
-3.75903e-05
-7.26264e-05
-8.1613e-05
0.000622338
2.11741e-05
-0.0005619
-1.48476e-05
1.24846e-05
-0.000551982
-1.2393e-05
-6.56825e-05
0.000630057
-6.43353e-05
6.73599e-05
-3.62587e-05
-0.00116563
-0.000121017
0.0011262
0.000160451
0.000462078
0.000321075
-0.000279218
-0.000503935
-0.000155796
8.232e-05
-0.000598964
0.00067244
-5.19635e-05
4.87118e-05
2.21745e-05
-1.89228e-05
0.00103257
-0.000895296
0.000209069
-0.000346346
-0.000301821
-0.000220716
0.000264807
5.89778e-05
-5.68442e-05
-2.66794e-05
2.45459e-05
1.74744e-05
-5.53807e-05
5.20095e-05
-1.41033e-05
-6.09704e-05
0.000196531
-0.000836035
0.000361629
-4.57975e-05
0.000182097
7.55782e-05
3.6266e-05
-2.14325e-05
0.000380076
-0.000356619
-0.000170921
0.000147465
-0.000131936
-0.000919241
5.84384e-05
0.000992739
-0.000270555
-0.000316943
0.000336776
3.73521e-05
0.000651834
-2.61463e-05
-0.00066304
0.000254648
-0.00145016
3.41379e-05
0.00116137
0.000323167
-0.000310197
0.000206599
0.000304801
-0.00121579
1.28425e-06
-3.76801e-05
-1.15503e-05
0.00100031
-0.000677232
9.56448e-05
0.000391783
-5.12229e-05
0.000572433
-0.000123861
-0.000424943
-2.36292e-05
-1.15739e-05
1.83729e-05
6.42542e-05
0.000214434
-0.000234315
8.00346e-05
-6.01533e-05
0.00114741
-0.00112137
-0.000303843
0.000560795
-7.01892e-05
0.000509702
-0.000459215
0.00046313
-0.000356689
0.000241791
0.000219519
0.000565726
-0.000813902
0.000361421
-0.000109139
0.00056162
-2.19224e-05
-5.58122e-05
-0.00106891
0.00114665
0.000650534
-0.000704697
0.000167053
0.000677681
-0.000576338
-1.62487e-05
-8.50944e-05
0.000586128
-0.000824476
0.000336339
0.000615469
-6.91917e-05
0.00014314
-1.72247e-06
0.00016668
0.000796662
-0.000642267
-0.000294627
-0.000348363
0.000361803
0.000675928
-0.000636096
-0.000167989
0.000128156
0.000108761
-1.87875e-05
5.62728e-05
-0.000199149
0.000153674
0.000300477
-0.000255002
0.000192711
-0.000206896
0.000127776
-0.000113591
-1.13833e-05
5.78879e-05
1.24731e-05
-0.000661595
-0.00038861
0.000798884
0.00025132
1.02143e-05
1.86232e-05
-2.45506e-05
-4.28692e-06
-1.56685e-05
0.000283366
-0.000331911
6.42138e-05
1.13135e-05
0.000696679
-0.000694181
-1.38108e-05
0.000167078
-0.000639243
0.000639221
-0.000167056
-0.000121237
-2.18847e-06
9.39115e-05
2.95143e-05
0.0010559
-0.00107761
-6.19192e-05
8.36294e-05
-0.000195449
1.24754e-05
0.000142847
4.56899e-06
-0.000147416
-1.29436e-05
1.91076e-05
-6.30082e-05
0.000644513
4.8805e-05
-6.76296e-05
-0.000542315
-4.27006e-05
-2.93835e-05
-9.98111e-05
-0.00113325
0.00115346
-8.95176e-05
-1.59266e-05
-7.07012e-05
0.000669871
-0.000194017
-0.000557466
-8.68923e-06
0.000677948
6.66907e-06
0.000257745
-2.08933e-05
3.55909e-05
-0.000272443
0.000227248
-0.000597186
-0.000291656
0.000458954
0.000330723
-0.000642225
-0.000147452
-6.88381e-05
0.00019681
8.64624e-05
0.000281949
-0.000264707
0.000457305
-0.000474548
7.74308e-06
5.80407e-05
-7.63192e-06
-5.81519e-05
-0.000646008
0.00055298
-0.00104491
0.00107346
-0.000128361
-0.000640427
0.000747258
-0.00049544
-0.000177363
0.000167932
-0.000441094
3.96808e-05
0.000732136
-0.000504767
5.80195e-05
0.000673995
-3.85821e-05
-0.000170219
0.000287174
-7.83728e-05
-1.3536e-05
1.33844e-05
0.000680711
7.09207e-07
-0.000623277
0.000633881
0.000391257
-0.000134652
0.000329524
-1.30857e-05
-0.000650458
3.43925e-05
-0.000750349
-0.000223591
0.000829678
0.000144262
0.000648978
0.000137537
-0.000142002
-1.34357e-05
-0.000382456
-0.000146423
-0.000133334
0.000431502
0.000352366
-8.27633e-05
6.84558e-05
0.000201335
-0.000187027
-4.41065e-05
5.06654e-05
-5.27458e-06
-0.00013131
0.000345517
0.000143315
-0.000357522
0.000102992
-9.19984e-05
-0.000360164
0.000540098
-0.00019337
-9.88686e-05
-0.00014014
-8.21108e-05
9.31041e-05
0.000129147
-0.0003812
0.000200929
-0.000264492
0.000862447
0.000309196
-0.000551158
-0.000400263
-8.17583e-05
-6.52871e-05
3.36509e-05
-4.81913e-05
-0.000352731
0.00119418
-0.000813719
-5.42808e-05
1.97917e-05
5.27915e-05
4.18717e-06
-9.0351e-06
4.18091e-05
-0.0011333
4.20079e-05
0.000899283
0.000192006
-5.45569e-05
1.43011e-05
-1.4025e-05
-0.000193017
0.00110305
0.000163421
-0.000596404
0.000756744
-0.000443566
0.000283226
1.24726e-05
0.000277733
0.000155989
-8.70778e-05
-0.000346644
9.19494e-05
-0.000385343
-4.71354e-05
7.05652e-05
1.24988e-05
-3.99646e-05
3.09856e-05
-0.000367798
-0.000666071
-0.000571542
0.00041763
-0.000481646
-0.000580743
0.000644759
-6.20107e-05
0.000175769
0.000501711
0.000109891
-0.000812124
-6.98981e-05
-0.000135103
0.000229859
0.000105577
0.00062634
0.000193439
-0.000170801
-0.000150551
-0.000153157
-6.16124e-05
0.000114075
-0.000135226
0.00120731
-0.000306668
-4.67706e-05
0.000589466
0.00147011
-0.000180434
-8.23731e-05
-0.000727093
-8.34449e-05
-1.93043e-05
0.000829842
-0.000428558
0.000429268
-0.000511935
0.000649472
-0.000323964
0.000379774
-0.000326365
-0.000268433
0.000289094
-0.000527472
0.000506812
-9.07962e-07
0.000441804
0.000292062
-0.000162187
-8.63585e-05
-4.35169e-05
0.000102113
-8.45714e-05
-7.32306e-05
5.56894e-05
-0.000263796
0.000553994
-0.00045157
-0.000961782
0.000149039
-0.000320555
-0.000404712
6.7732e-05
-8.63108e-05
0.0011492
-0.00113062
0.000168112
-0.000117234
-0.000266395
-1.2476e-05
-0.00061279
0.000547237
-0.000640288
0.000705841
-1.20053e-05
-0.000459984
2.41688e-05
-0.00027458
-3.34484e-05
0.000283859
1.92996e-05
-0.000815723
3.70082e-05
-0.000625554
0.000259363
-0.000616052
6.70496e-05
-0.000526265
1.59533e-05
-0.000155381
4.99106e-05
-0.000422906
-5.65229e-06
0.000269205
0.000275202
-0.000279856
4.95485e-05
-4.58049e-05
-3.74357e-06
0.000109025
-0.000127571
-0.000132006
-0.000235934
0.00027654
-2.44955e-05
-1.61104e-05
-0.000270533
-0.00056962
0.000137639
0.000702514
-5.38469e-05
7.03312e-06
-0.000421303
-0.000650575
0.000465494
0.000378804
0.000842114
-0.000289225
0.000152125
-0.000718022
0.000783526
0.000101176
2.14135e-06
-1.31337e-05
-3.02211e-06
-0.000172599
0.000110589
0.000713144
-0.000678511
0.000653062
-0.000577315
0.000216947
-0.00040334
-0.000500254
0.000267499
7.69181e-05
2.23146e-05
-8.51571e-05
0.000117613
-5.4771e-05
-0.000642384
0.000589323
0.000768192
-0.000715131
0.000246703
-0.000289739
-0.000378267
0.000154168
6.51788e-05
-8.52275e-05
4.93597e-05
-2.00145e-05
0.000253968
-1.95525e-06
-0.000227844
-0.000603263
0.00031845
0.000453651
-0.000168838
0.000103458
6.85325e-05
8.5138e-05
0.000754067
-0.000684197
-0.000693854
0.000623983
0.000340498
-0.000355783
9.25728e-05
-7.72878e-05
6.67491e-05
-1.98415e-06
-1.19734e-05
0.000423634
-0.000466335
8.94053e-05
-7.26489e-05
-6.7345e-05
0.000753605
-0.000672027
-0.000694368
-3.08254e-05
2.55387e-05
5.62043e-05
-5.09177e-05
-4.47726e-05
1.31649e-05
-0.000240396
-1.12065e-05
-0.000720495
0.000530702
0.000622583
-0.000432789
-0.000245472
-0.000660672
-0.000741221
0.000418929
-0.000280971
2.73697e-05
-1.88311e-05
-0.00022625
4.68468e-06
-0.000171117
0.00030244
-0.000740895
0.000609572
-0.000309037
0.00105666
-0.000137409
-0.000624722
0.000462801
0.000875065
-0.000840583
0.000549021
0.000723064
-9.75803e-05
-0.000172811
0.000751527
-0.000521668
0.00124025
-0.000196744
-0.000692395
2.20951e-05
0.000265776
-3.67233e-05
-0.000251148
7.30062e-05
-2.92685e-05
0.000798847
-0.000842585
1.64073e-05
0.000166327
-5.06567e-05
-0.000132077
0.000344606
-1.51869e-05
-7.54512e-05
0.000492593
0.000212121
-0.000489643
-0.000215071
-0.000208979
0.000230119
-4.73215e-06
0.000187278
-0.000140011
-1.69892e-05
-3.02787e-05
0.000343373
-2.21577e-05
0.00096984
-0.00129106
5.21839e-05
-9.0766e-05
0.000113085
-0.00130436
0.00116935
9.3915e-07
-2.50806e-06
7.53004e-05
-9.20902e-05
-0.000120052
9.29323e-05
-0.000738757
0.001124
0.000132247
-0.000517491
-0.000691048
0.000671016
-0.000575049
0.000444098
0.000117967
-0.000659941
0.000598066
-3.92734e-05
-0.000682482
0.00070498
0.000852852
-0.000873488
-0.000144613
-0.000103966
3.78675e-05
-0.000573937
9.51223e-05
0.0011042
-0.000625388
-0.000324237
-0.000105837
0.000298764
0.000928632
0.000277068
0.000894026
-0.000877645
-0.000144742
0.000235362
-9.83517e-05
5.66884e-05
-4.12417e-05
8.2905e-05
0.000114075
-8.41287e-05
-2.22519e-05
-7.69453e-06
-0.000231367
0.000932376
0.000307765
-0.000233074
-0.000376511
-0.000676485
0.000496059
-1.71878e-05
0.000134191
2.37409e-05
-0.000140744
7.23766e-06
-0.000958033
-0.000730598
6.59736e-05
0.000726651
-6.82127e-05
-0.000724411
0.000432623
0.000195725
-0.000197727
-0.000430621
0.00066194
-7.83938e-06
-0.000450361
-0.00020374
0.000818963
-0.00094504
-4.19116e-05
-0.000360567
-0.000114836
0.000151165
6.47928e-05
-3.9043e-05
-0.000399959
8.03806e-05
1.66264e-05
0.000302952
-0.000523796
9.5693e-05
2.81437e-05
-5.36973e-05
-1.1017e-06
9.52061e-07
0.000842267
-0.000330995
-0.000176484
-0.000640102
0.000466149
-0.000148082
0.000322035
-0.000375294
-8.60692e-05
-0.000178738
-0.000691552
0.000773592
0.000220819
-0.000767807
-0.000232468
0.000779456
0.00060365
-0.00060188
0.000210351
6.97828e-05
0.000900857
-0.000593147
0.000550238
-1.25121e-06
0.000804006
9.65284e-05
-8.64767e-06
8.26215e-05
1.41098e-05
-8.80836e-05
0.000475911
-8.20937e-05
-4.68055e-05
-0.000347011
-0.000833903
3.59288e-05
-6.70412e-05
4.93001e-05
1.7741e-05
-5.63161e-05
3.52503e-05
0.000496421
-1.04416e-05
-1.00684e-05
0.000701345
-0.000438566
5.56711e-05
0.000473411
7.81813e-06
1.51912e-05
-0.000155811
6.1607e-05
-6.4355e-05
0.000158559
1.50618e-06
0.000726407
7.27078e-05
5.85163e-05
-8.18644e-05
0.000492922
0.000120525
-0.000476995
-0.000136452
-8.4229e-05
0.000270063
-0.00101674
0.000454677
-3.72845e-06
2.24629e-05
-0.000111026
0.000603729
0.000207112
-0.000173818
-0.000201139
9.35141e-05
0.00026539
0.000178964
-0.000175686
-2.62065e-05
3.74025e-05
0.000443481
7.7681e-05
-7.16342e-05
-0.00015066
-9.09246e-05
-8.48884e-05
0.000115549
0.00019547
0.000256092
-0.000310925
-0.000117407
1.51718e-05
0.0001188
-0.000222096
-0.00117932
0.000157735
-0.000152363
0.000311088
3.49299e-05
-0.000193655
0.000320342
-0.000288782
0.000165206
-0.000196767
0.000434284
-0.000266305
0.000148243
-4.90282e-05
0.000262772
0.000168974
0.000260454
4.8566e-06
-0.000362706
0.000392792
-0.000268132
0.000238046
0.000117356
-0.000117535
0.000394909
-0.000266608
-1.07662e-05
0.000355213
-7.99561e-05
-1.43869e-05
-5.93193e-05
0.000468615
2.57429e-08
-0.000299452
0.000167683
0.000131743
0.00103275
0.000520686
-0.000287912
-0.00126553
-1.22695e-05
0.000242414
-1.34224e-05
0.00016748
8.79156e-05
-6.58645e-05
-1.06638e-05
-6.44308e-05
-4.68889e-06
2.9669e-05
3.94506e-05
7.93244e-05
-2.61417e-05
0.000202889
-0.000184539
-0.00024615
0.0002278
-5.1962e-05
4.15734e-05
5.84459e-05
-4.80573e-05
-7.38073e-05
-7.53375e-05
9.71828e-05
-6.43134e-05
-2.15839e-05
3.72181e-05
4.86793e-05
-4.00874e-05
4.07189e-05
2.3414e-05
-2.40455e-05
-6.73592e-05
-0.000139038
1.58478e-05
2.8667e-05
4.1427e-05
-4.10402e-05
4.22997e-05
-3.20375e-07
-0.000957087
3.7256e-05
0.000895727
2.41039e-05
2.33816e-05
-3.02964e-05
-6.04444e-05
-9.41541e-05
-0.000131543
0.000146423
2.55919e-05
-2.50588e-05
-3.37672e-05
8.19484e-05
-6.53408e-05
1.71596e-05
-0.0010285
0.000105547
2.83653e-05
-4.88469e-05
4.91486e-05
1.63246e-05
-0.000102305
5.41597e-05
-2.44598e-05
-6.34671e-05
-0.000281312
-0.000172167
-0.00114033
0.000203783
4.18987e-05
-5.20524e-05
-0.000316628
-0.000701768
4.83713e-05
-4.62193e-05
-2.58521e-05
1.75658e-05
-0.000213443
-0.000133694
5.09252e-05
-1.2523e-05
-7.33845e-05
3.49823e-05
-0.00127974
0.000273501
0.000815344
-0.00063985
0.000857259
2.14311e-05
-3.32913e-05
2.29984e-05
5.21718e-05
-4.12348e-05
-7.71656e-07
-1.45811e-05
5.27016e-05
3.71248e-06
-1.16746e-06
2.12673e-05
2.69017e-05
1.99569e-06
-0.000902632
0.000438239
-2.78814e-05
1.98926e-05
-1.43888e-05
9.71865e-05
-6.45049e-05
2.93086e-05
0.000104186
-0.000134662
-0.000134106
-4.81253e-05
1.6741e-05
0.000157178
-0.000229506
-9.77879e-06
6.97087e-06
-1.02041e-05
1.3012e-05
-0.000731192
4.60576e-05
-1.32615e-05
-6.06776e-05
8.59024e-05
-0.000140691
-1.07026e-05
2.73348e-05
-3.70152e-05
2.03829e-05
0.000132841
-0.000195086
4.36156e-05
1.86292e-05
2.4997e-06
1.99627e-05
-6.32307e-05
0.000112852
-0.000144356
-0.0011943
0.0001752
5.22006e-05
2.19422e-05
-2.80852e-05
0.000113771
0.000316712
-0.000210449
1.97212e-06
-9.42779e-05
0.000100427
-8.12113e-06
-1.15019e-05
0.000145035
-0.000104917
0.000353352
9.54122e-05
-3.72362e-05
3.92083e-05
-0.000333629
-0.000859443
-1.23254e-06
-0.00115482
-0.000463435
9.99116e-05
-1.81345e-05
-2.56723e-05
9.77655e-05
5.83262e-05
-4.50316e-05
0.000200768
7.10084e-05
-0.000158005
5.37923e-05
-7.59967e-05
0.000179149
4.04828e-05
-2.41621e-05
-6.38967e-08
-1.7466e-05
3.98624e-06
-4.12224e-05
3.7945e-05
2.25482e-05
-7.28006e-06
-8.30116e-05
1.70455e-05
6.40816e-05
-0.000111545
0.000150554
-0.000736924
-0.000234669
0.000343603
-0.000203104
0.000115275
-0.000325277
0.00019634
-9.65112e-06
-5.54295e-05
3.4675e-05
0.000127405
4.45768e-05
-4.35593e-05
6.0157e-06
-0.00139948
-0.000196887
0.000416214
2.41498e-06
-3.28088e-05
2.37799e-05
2.55202e-05
-0.000171264
0.000127684
-0.000179212
-0.000137238
0.000188766
0.000182392
-0.000166548
-4.14191e-05
1.51982e-05
-8.53236e-05
0.000460634
-0.000415592
-0.000551577
0.000506534
9.65603e-06
0.000118873
3.30587e-05
0.000702945
-0.000629939
8.15668e-06
0.000131665
-1.24164e-05
-5.6443e-05
0.00020956
-0.000409007
0.000494658
-0.000167745
-4.83094e-05
-2.2014e-05
7.03233e-05
2.09749e-05
0.000785068
-0.000736261
9.41319e-05
0.000148827
-0.000490189
0.000481624
4.43012e-05
-0.000285643
0.000259841
-0.000769104
0.000892807
-0.000123703
0.000190588
-0.000133445
-0.000560262
1.73059e-05
-0.000218765
0.000761721
-0.000335978
0.00032604
-0.000292368
0.000302306
-9.10109e-06
5.59465e-05
0.000843659
0.000410491
-0.00043055
0.000489759
-0.0004697
-2.39297e-05
-1.8218e-05
1.67298e-05
0.000113368
-0.000236898
4.52622e-05
1.36156e-05
-1.7169e-05
0.000108495
-6.61587e-05
-0.000767316
0.000615938
-0.000255054
-0.000128473
-0.000446176
-0.00128803
-0.000291886
0.000754549
0.000183145
-2.0874e-06
-0.000189604
0.000213787
-0.000534719
0.000690778
-1.33375e-05
-0.000158842
0.000170092
0.000190126
-1.1365e-05
-1.83998e-05
-0.000155048
0.000156278
0.000206558
-0.000666814
2.33078e-05
0.000436948
-0.000384173
0.000351104
6.86202e-06
-0.000859815
0.00039073
0.000771525
-4.45567e-05
0.000340451
9.73185e-05
9.45788e-05
-0.000116849
0.000111529
5.32031e-06
0.000781005
4.38457e-05
-4.58573e-05
-7.63958e-06
6.21417e-05
0.000519311
-0.000581452
7.37618e-06
0.00028703
-0.000374362
0.000130111
-0.00027065
-0.000403078
1.51764e-05
0.000258772
-0.00025833
-0.000860257
-0.000482651
0.000706799
-0.000458816
0.000597231
9.92723e-05
-0.000575978
0.000174316
0.000627259
-0.000642483
0.000774983
-0.000264268
0.000113066
-0.000126425
-0.000130186
-6.96059e-05
0.000145968
0.000119978
0.00021748
-0.000228503
0.000605316
-0.000584341
-0.00032392
-0.000458398
0.000164075
0.000329913
-0.000579122
-0.000228389
0.000256353
-0.000441149
0.000288832
-0.00028522
0.000437537
-0.000137627
9.19274e-05
0.000196253
0.000276389
0.000399049
-0.000242816
0.00115158
0.000179342
0.000494391
-0.00052334
6.63512e-05
5.99315e-05
0.000779117
-0.00077512
-0.000162954
0.000158957
0.000702434
0.000203798
-0.000487303
-0.00115677
0.0010744
0.000220108
-0.000702152
-1.67061e-05
5.54366e-05
-2.69814e-05
-1.17491e-05
4.00598e-05
-8.15307e-07
4.45113e-06
-0.000115454
-4.78383e-05
-0.000358492
0.00021636
-0.000381664
2.56677e-06
0.000239906
-0.000622338
0.000685985
0.000746873
-0.000722486
0.000632276
-0.000656663
0.000142651
0.00108153
-0.00091938
-1.69343e-05
2.08735e-05
0.000139078
5.6889e-06
-3.06915e-05
0.000678631
-0.000127677
2.14793e-05
0.000136387
-0.000275933
-0.00018507
1.07164e-05
0.000100812
-0.000465521
0.000541739
-0.000434709
-0.000128067
-5.70863e-05
-9.23149e-05
0.000825004
-0.000380861
-0.000494111
0.000433823
-6.38846e-05
0.000148048
-0.000160197
0.000120288
0.000233928
-7.7676e-05
0.000212139
1.9789e-05
0.000108002
-7.8956e-05
0.000311405
0.000108858
0.000239794
2.45235e-06
8.64296e-05
0.000690791
0.000663994
-0.000798734
-8.36135e-05
-0.000439764
-0.000675614
0.00062519
-0.000211583
7.31426e-05
0.000768145
-0.000705469
0.000378348
4.81625e-05
-4.02787e-05
-1.31584e-05
-4.1916e-05
4.6741e-05
0.000489566
-3.62677e-05
0.000641584
-0.000123233
-0.000647035
5.71687e-05
-0.000175204
-0.000393416
-0.000199922
-0.00014963
-1.35382e-05
0.0008526
-9.61519e-05
-0.000564441
0.000516317
2.99319e-06
0.00050905
0.000625945
-3.45271e-05
-0.000137704
-0.000957901
-0.000276621
0.000340714
-0.000427176
-2.383e-05
1.50264e-05
-3.48047e-05
0.000121285
0.000223916
9.97015e-05
-7.47858e-05
-0.000150065
4.03228e-05
0.000261579
0.000510422
8.35178e-05
0.000234966
0.0009807
-0.000926124
0.000593923
-1.78328e-05
-1.36546e-05
2.77679e-05
7.89907e-05
0.00106816
-8.74565e-05
-2.96263e-05
0.000732011
0.000177041
-9.5758e-05
0.000132117
-0.000178613
-0.000161591
-0.000407511
-0.000857808
-6.83165e-05
-5.20571e-05
5.53298e-05
1.34585e-05
-1.67311e-05
-0.00024827
0.000368376
-0.000108568
-1.1538e-05
3.43371e-05
0.000185709
-0.000707734
-3.07746e-05
0.000180323
-4.88869e-05
8.46189e-05
-3.5732e-05
-0.000290749
8.23406e-05
0.000223607
0.000218287
0.000272305
0.000804747
-2.05936e-05
-2.82932e-05
1.27466e-05
-3.58313e-07
-1.23883e-05
-0.000276112
-0.000286828
0.000355537
-6.87088e-05
-0.000119366
0.000267705
1.61415e-05
-3.39492e-06
0.00110148
0.000225127
-0.000171686
-5.3441e-05
-4.04292e-05
-0.00052888
3.17126e-05
-0.000426972
-2.0952e-05
-6.48626e-05
0.000706447
-9.92868e-05
0.00116744
5.45993e-06
0.000510857
-6.17012e-05
0.000137246
-0.000109092
0.00027061
8.04874e-05
-6.99111e-05
-0.000682427
0.000671851
-0.000433904
-0.000196273
-2.56159e-05
-0.000698912
-6.74541e-05
-0.000668132
0.000171463
0.000614636
-6.4218e-05
5.8188e-05
0.000794508
-0.000412946
5.61771e-05
-4.0807e-05
-7.69824e-05
-0.000599021
-0.000500553
4.13596e-05
3.62415e-06
-0.000711341
-2.55534e-05
0.000579884
0.000331526
-0.000336537
-4.18896e-05
2.1946e-05
-2.58613e-05
4.20505e-05
-0.000143196
0.000184663
-0.000447914
-0.000139864
-0.000119875
8.59211e-05
-5.78808e-05
-0.000331692
0.000377082
0.000122541
0.000177432
-4.11043e-05
6.52966e-05
9.00668e-05
-5.48607e-05
4.71345e-05
0.000268301
-8.38112e-06
-4.16326e-05
0.000858832
-0.000118947
0.000437166
-0.000790076
2.01918e-05
4.48621e-05
-0.000517012
0.000490866
-0.000421464
3.90522e-05
0.000548381
-0.000234892
0.000278894
-9.07188e-06
-0.00106556
0.000181067
-1.01654e-05
-0.000263619
0.000236113
-0.000179902
3.75218e-05
0.000715726
-2.67475e-05
5.12958e-05
-8.0112e-06
1.66552e-05
0.000123021
-7.41811e-05
8.39636e-05
-7.46653e-05
4.77111e-05
-3.01837e-05
0.000319131
-4.36003e-05
0.000764786
0.000283634
-0.000797572
6.45827e-05
8.83408e-05
-7.3599e-05
-0.00076907
-0.000108433
-0.000109845
-0.000240413
0.000178691
0.000135291
-9.16612e-05
0.000285176
4.52643e-05
7.87112e-06
4.53296e-05
-4.77495e-05
2.87846e-05
4.15428e-05
-0.00054242
-6.13592e-05
4.30285e-05
-8.25851e-05
0.0008833
0.00102664
0.000115828
0.000834855
-0.000128933
3.73314e-05
-1.31355e-05
6.95457e-06
6.18091e-06
-0.000176381
0.000185142
-0.000681618
0.000607342
0.000621513
0.000112106
-0.000104684
-0.000412741
-4.7839e-06
0.000322872
2.4302e-05
0.000126669
-0.00125132
-0.000740767
0.000983617
-0.000415856
0.000482648
2.23809e-05
-0.000701669
-0.000423059
0.000226567
-0.00020692
-0.000426973
-0.000404974
9.07382e-05
3.00603e-06
1.93872e-05
3.21094e-05
-3.13048e-05
-0.000402396
0.000157722
-0.000324946
2.94916e-05
-2.77766e-05
4.30077e-06
0.000213382
4.54881e-05
4.70126e-06
4.74911e-05
9.32507e-05
-0.000263341
2.18881e-05
0.000115622
-0.000689539
-0.000233716
0.000614115
6.94108e-05
0.000737727
-9.69327e-07
-0.000277818
0.000650776
-0.000604325
-6.37626e-06
1.34492e-05
-0.000237211
0.000109591
-0.00112352
9.32578e-05
-6.43325e-05
-0.000705056
0.000164026
0.000605363
-4.40012e-05
0.000877809
-0.000220153
0.00017865
0.000236173
-0.000507428
0.000136729
-0.000585693
0.000532348
-3.01001e-05
-0.000203273
-0.000297175
0.000387538
-4.50162e-05
-0.000494631
7.28601e-05
0.000646167
1.28222e-05
-1.58105e-05
-9.90722e-05
-5.7241e-05
4.75287e-05
0.000260532
0.000516412
-7.92468e-05
-0.000678714
-0.000111362
4.40679e-05
0.000321172
-0.000105508
0.000353049
0.000446321
3.85163e-05
-0.000135934
-0.000439134
0.000308763
5.7244e-05
0.000166868
7.4306e-05
-0.000353599
-6.29136e-07
-8.00762e-06
3.80519e-05
-2.21388e-05
0.000428941
-0.000577494
-8.51632e-05
0.000324744
1.45876e-05
-2.91503e-05
-0.000609936
-3.80219e-05
0.000603956
-2.96968e-05
0.000199652
-0.000912034
0.00101871
-5.94492e-05
0.000112336
2.09398e-05
-5.72549e-05
0.000155221
-0.000176049
-0.000111932
0.00034472
7.01736e-06
4.4071e-05
5.04389e-05
1.61573e-05
-0.000277257
0.000180537
-0.000172456
0.000269176
-0.000323079
6.23112e-05
-2.78948e-05
3.61797e-05
-0.000400647
-0.000427103
-0.000504397
0.000654243
-0.00018215
-0.000252063
-8.6028e-05
0.000638747
4.58954e-05
-0.000598615
-0.000128876
-0.000153428
0.000143466
0.000138839
3.00156e-05
2.3883e-05
-3.69005e-05
-0.000618931
0.000590563
-0.00019818
-0.000399833
0.000481051
-0.000549191
-0.00051807
0.000428272
0.000134731
-6.64425e-05
-0.000378607
0.00014931
-0.000245164
2.67468e-05
-1.90356e-05
0.000822275
-5.86235e-05
-0.000692016
-0.000663305
-0.000348662
0.000788939
1.97333e-05
-0.000533919
-2.33219e-05
7.54026e-05
-0.000361866
-0.000315784
0.000529954
-0.000360672
0.000241695
0.000800139
-0.000686948
-0.000113191
-0.000475251
0.000491247
-1.59954e-05
-0.000435571
0.000398562
-0.00037725
-2.13127e-05
0.00091003
0.000478161
-0.000395356
0.000398871
-3.51529e-06
0.000444095
4.87396e-05
0.000457179
-5.83084e-05
-0.000628928
0.00101846
0.000510447
0.000609629
-0.000582543
-2.70862e-05
0.000523832
0.000453171
0.000433216
1.99551e-05
0.000518982
4.84998e-06
0.000425524
7.69148e-06
0.000443436
-1.79118e-05
0.00046461
-7.52194e-06
0.000919663
0.000364961
-3.35532e-06
6.39427e-05
-3.13144e-05
-0.00017822
3.53617e-05
-6.21864e-06
-0.000100305
0.000806849
-0.000128896
-5.19859e-05
0.000142512
0.000507539
-7.02119e-07
0.000686378
9.02853e-05
0.000124081
-0.000172073
0.000310129
1.56172e-05
5.28761e-05
7.26161e-05
0.000631622
-0.000631584
-2.89476e-05
0.000385977
0.000311689
-9.82688e-05
-4.12132e-06
1.13459e-05
-9.1834e-05
-6.76978e-05
-0.000239553
0.000469311
0.000874537
-0.000354267
0.00014791
-3.24277e-05
-2.80451e-05
-5.7735e-05
-0.000121854
0.000859464
-0.00112295
9.65198e-05
0.000245796
-0.000129208
0.000884097
2.4694e-05
0.000237605
-0.0011464
-1.64366e-05
-6.89071e-05
-3.5065e-05
-1.18849e-05
2.84389e-06
8.83756e-06
0.000296286
-0.00053819
-1.338e-05
-0.000124504
7.41123e-05
-2.2447e-05
0.000170059
9.45709e-05
-0.000206184
0.000161895
-9.52971e-05
-9.68943e-05
4.88779e-05
7.11154e-05
-0.000449147
-0.000108315
0.000409381
-0.000370814
0.000399972
-0.000341611
-0.000114254
-0.000187383
1.14612e-05
1.93856e-05
0.000143343
-3.94966e-05
1.23828e-05
-0.000448148
0.000450563
7.56024e-05
-0.000121145
-2.60913e-05
-7.82993e-06
3.70861e-06
0.000270655
-0.000667771
-5.75882e-06
-0.000536063
0.000108399
0.000289252
-0.000409486
-4.36626e-05
-2.67622e-05
3.05312e-05
0.000170359
-0.000247058
-7.42178e-05
-0.000566036
3.88072e-05
-0.000162595
0.000677842
2.5548e-05
5.22872e-05
-0.000174285
0.000662132
-0.000291308
0.000176548
2.48745e-05
4.21622e-05
-1.79878e-05
0.000131458
-0.000140042
-0.000246493
7.91912e-06
-0.000115209
0.000137561
-8.84466e-06
-3.79538e-06
-0.000301288
9.33037e-05
-9.38679e-05
9.24916e-05
-0.000618528
-9.55086e-05
0.000196069
4.93668e-05
0.000100317
-0.000233547
-0.000207543
0.000729102
2.59369e-05
3.1047e-05
0.000162874
-2.259e-05
-4.17594e-05
-0.000184773
0.000456391
-0.000396156
-0.000142031
0.000453649
-0.000154683
5.2278e-05
0.000122891
-8.12571e-05
-0.000167111