# vtk DataFile Version 2.0
track0
ASCII
DATASET POLYDATA
POINTS 12805 double
1.66533e-17 0.5 -5.37764e-17
0.391304 0.5 0
0.393043 0.492143 0
0.39527 0.48441 -5.55112e-17
0.397964 0.476827 -5.55112e-17
0.4 0.472042 -1.11022e-16
0.406818 0.457634 -1.80411e-16
0.41543 0.44422 -1.66533e-16
0.425676 0.432009 -1.66533e-16
0.437363 0.421169 -1.94289e-16
0.466417 0.4 -1.94289e-16
0.473133 0.397393 -2.22045e-16
0.479973 0.395128 -2.22045e-16
0.486916 0.393206 -2.77556e-16
0.493947 0.391631 -3.33067e-16
0.5 0.390582 -3.33067e-16
0.52 0.387956 -3.33067e-16
0.540171 0.388092 -3.88578e-16
0.560107 0.391167 -2.91434e-16
0.579364 0.397173 -2.77556e-16
0.585161 0.4 -2.77556e-16
0.588129 0.401632 -3.33067e-16
0.591056 0.403336 -2.77556e-16
0.59394 0.405111 -3.33067e-16
0.596781 0.406955 -3.33067e-16
0.6 0.40917 -3.33067e-16
0.62 0.423881 -3.26128e-16
0.636834 0.44213 -3.53884e-16
0.650198 0.463054 -3.43909e-16
0.65997 0.485878 -3.88578e-16
0.663564 0.5 -3.88578e-16
0.66682 0.52 -4.44089e-16
0.667762 0.540242 -4.02456e-16
0.666538 0.560468 -3.88578e-16
0.663294 0.58047 -3.60822e-16
0.657778 0.6 -3.88578e-16
0.64932 0.62 -3.59088e-16
0.63796 0.638507 -4.47559e-16
0.623888 0.655045 -4.92661e-16
0.607445 0.669228 -4.71845e-16
0.6 0.673847 -4.44089e-16
0.590245 0.679078 -3.88578e-16
0.580127 0.683567 -4.44089e-16
0.569721 0.68734 -4.996e-16
0.559106 0.690477 -4.02456e-16
0.518094 0.7 -4.44089e-16
0.514475 0.700059 -4.996e-16
0.510856 0.700056 -4.44089e-16
0.507663 0.7 -4.30211e-16
0.50613 0.69995 -5.13478e-16
0.504598 0.69989 -5.20417e-16
0.503066 0.699819 -4.82253e-16
0.501535 0.699737 -5.04805e-16
0.5 0.699644 -4.996e-16
0.48 0.698288 -3.88578e-16
0.46018 0.695286 -4.30211e-16
0.440686 0.690616 -4.44089e-16
0.421673 0.684263 -4.09395e-16
0.4 0.674785 -3.33067e-16
0.38 0.662951 -3.33067e-16
0.361618 0.648732 -2.96638e-16
0.34518 0.632306 -2.91434e-16
0.331114 0.613807 -3.33067e-16
0.323489 0.6 -3.05311e-16
0.318791 0.588964 -2.77556e-16
0.314926 0.57761 -2.77556e-16
0.311844 0.566019 -2.22045e-16
0.3095 0.554256 -2.35922e-16
0.302165 0.5 -2.11636e-16
0.304886 0.48 -2.22045e-16
0.309322 0.460309 -3.05311e-16
0.315442 0.441075 -3.33067e-16
0.323228 0.422453 -3.33067e-16
0.335053 0.4 -3.88578e-16
0.348042 0.381191 -4.44089e-16
0.362922 0.363839 -4.16334e-16
0.379498 0.3481 -4.05925e-16
0.397567 0.3341 -4.71845e-16
0.4 0.332594 -3.88578e-16
0.410853 0.326075 -4.16334e-16
0.42209 0.320242 -4.44089e-16
0.433654 0.315089 -4.44089e-16
0.445473 0.310549 -4.64906e-16
0.477945 0.3 -3.88578e-16
0.482356 0.299224 -3.88578e-16
0.48678 0.298526 -3.88578e-16
0.491215 0.297905 -3.88578e-16
0.495661 0.297362 -4.44089e-16
0.5 0.296907 -3.88578e-16
0.52 0.295128 -4.44089e-16
0.540078 0.294891 -3.33067e-16
0.560109 0.296275 -3.747e-16
0.579958 0.299305 -3.88578e-16
0.582855 0.3 -4.44089e-16
0.586284 0.300868 -3.33067e-16
0.5897 0.301786 -3.88578e-16
0.593102 0.302754 -3.88578e-16
0.59649 0.303771 -3.88578e-16
0.6 0.304882 -3.60822e-16
0.62 0.311642 -3.33067e-16
0.639181 0.320463 -3.05311e-16
0.657323 0.331261 -3.05311e-16
0.674229 0.343906 -2.498e-16
0.7 0.368316 -2.77556e-16
0.70444 0.374653 -2.77556e-16
0.708639 0.381152 -2.77556e-16
0.7126 0.387799 -2.73219e-16
0.716329 0.394579 -2.08167e-16
0.719067 0.4 -1.66533e-16
0.728509 0.42 -1.94289e-16
0.736194 0.440738 -1.80411e-16
0.74225 0.46201 -1.80411e-16
0.746699 0.483674 -1.66533e-16
0.74898 0.5 -1.94289e-16
0.750821 0.52 -2.77556e-16
0.751573 0.540071 -3.05311e-16
0.751281 0.560153 -2.91434e-16
0.749998 0.580196 -2.22045e-16
0.747619 0.6 -1.00614e-16
0.743987 0.62 -1.17961e-16
0.739005 0.639707 -1.46584e-16
0.732635 0.659011 -1.66533e-16
0.724619 0.67769 -9.71445e-17
0.712446 0.7 -1.11022e-16
0.709957 0.703414 -1.11022e-16
0.707388 0.706768 -1.11022e-16
0.704739 0.71006 -1.66533e-16
0.702015 0.713289 -2.498e-16
0.7 0.715569 -2.77556e-16
0.684556 0.732455 -2.22045e-16
0.666938 0.747059 -2.70617e-16
0.647506 0.759144 -2.91434e-16
0.62679 0.768866 -2.77556e-16
0.6 0.778395 -3.33067e-16
0.580836 0.782716 -4.44089e-16
0.561401 0.785578 -4.30211e-16
0.541844 0.78743 -3.88578e-16
0.522218 0.788295 -4.02456e-16
0.5 0.788194 -3.88578e-16
0.48 0.786909 -3.88578e-16
0.460088 0.784635 -4.30211e-16
0.440288 0.781535 -3.88578e-16
0.420638 0.777594 -3.88578e-16
0.4 0.772484 -3.88578e-16
0.38 0.76612 -4.44089e-16
0.360399 0.758616 -5.13478e-16
0.341261 0.75 -5.51642e-16
0.322712 0.740181 -4.44089e-16
0.3 0.725552 -3.60822e-16
0.293892 0.720441 -3.88578e-16
0.287942 0.715149 -3.33067e-16
0.282154 0.709679 -3.33067e-16
0.276561 0.70401 -3.33067e-16
0.272891 0.7 -2.77556e-16
0.258313 0.683209 -3.05311e-16
0.245731 0.664875 -3.05311e-16
0.235219 0.64528 -3.05311e-16
0.22662 0.624774 -3.33067e-16
0.218738 0.6 -3.88578e-16
0.214991 0.581133 -3.88578e-16
0.212663 0.562038 -3.88578e-16
0.211389 0.542845 -3.88578e-16
0.211151 0.523611 -3.88578e-16
0.212094 0.5 -4.16334e-16
0.214316 0.48 -3.33067e-16
0.217689 0.460162 -3.33067e-16
0.221998 0.440505 -2.22045e-16
0.22726 0.421082 -2.498e-16
0.234178 0.4 -2.77556e-16
0.242387 0.38 -2.77556e-16
0.251814 0.360544 -2.81025e-16
0.262403 0.341696 -2.77556e-16
0.274238 0.323604 -2.77556e-16
0.292336 0.3 -3.33067e-16
0.293869 0.298409 -3.33067e-16
0.295412 0.296829 -3.88578e-16
0.296965 0.295258 -3.88578e-16
0.298529 0.293698 -3.33067e-16
0.3 0.292251 -3.33067e-16
0.31901 0.273801 -3.33067e-16
0.33981 0.257395 -3.19189e-16
0.362149 0.243156 -2.91434e-16
0.385691 0.23101 -2.498e-16
0.4 0.225181 -2.22045e-16
0.414532 0.220145 -2.15106e-16
0.429316 0.215906 -2.22045e-16
0.444272 0.212319 -2.22045e-16
0.459359 0.209332 -2.77556e-16
0.5 0.202929 -3.01842e-16
0.51103 0.202343 -2.77556e-16
0.522071 0.202055 -2.77556e-16
0.533117 0.202049 -3.33067e-16
0.544158 0.202327 -3.60822e-16
0.6 0.205188 -3.88578e-16
0.62 0.209017 -4.44089e-16
0.639734 0.214041 -4.16334e-16
0.659125 0.220259 -4.44089e-16
0.678082 0.227694 -4.16334e-16
0.7 0.238176 -4.996e-16
0.71924 0.250541 -5.51642e-16
0.737136 0.264782 -4.996e-16
0.753552 0.280707 -6.17562e-16
0.767864 0.298547 -5.82867e-16
0.768772 0.3 -6.10623e-16
0.775017 0.310184 -5.55112e-16
0.780753 0.320664 -6.10623e-16
0.786008 0.331393 -6.38378e-16
0.790787 0.342342 -6.38378e-16
0.8 0.366043 -6.66134e-16
0.802049 0.372834 -6.66134e-16
0.803974 0.379662 -6.66134e-16
0.805781 0.386522 -6.66134e-16
0.807474 0.393411 -6.15827e-16
0.808988 0.4 -4.996e-16
0.81335 0.42 -6.38378e-16
0.817004 0.440141 -6.10623e-16
0.819901 0.460406 -6.93889e-16
0.822087 0.480759 -6.2797e-16
0.82355 0.5 -5.55112e-16
0.824692 0.52 -5.55112e-16
0.825459 0.540018 -6.10623e-16
0.825677 0.560049 -5.68989e-16
0.825275 0.580078 -5.55112e-16
0.8243 0.6 -5.55112e-16
0.82286 0.62 -6.66134e-16
0.820948 0.63996 -6.93889e-16
0.818299 0.659837 -6.10623e-16
0.814798 0.67958 -6.10623e-16
0.81016 0.7 -6.10623e-16
0.808128 0.707157 -6.10623e-16
0.805961 0.714275 -5.82867e-16
0.803629 0.72134 -5.55112e-16
0.801119 0.728344 -5.55112e-16
0.8 0.731218 -5.55112e-16
0.794457 0.744974 -5.41234e-16
0.788068 0.758359 -4.44089e-16
0.780763 0.771266 -4.44089e-16
0.772491 0.783576 -4.44089e-16
0.759432 0.8 -4.44089e-16
0.747545 0.811716 -4.47559e-16
0.734508 0.822135 -4.71845e-16
0.720478 0.831176 -4.85723e-16
0.705779 0.83908 -4.996e-16
0.7 0.841765 -4.71845e-16
0.68 0.850515 -4.996e-16
0.659165 0.857029 -4.57967e-16
0.637826 0.861638 -4.71845e-16
0.616315 0.865358 -4.44089e-16
0.6 0.867496 -4.44089e-16
0.58 0.869464 -3.33067e-16
0.559923 0.870351 -3.747e-16
0.539828 0.870563 -3.60822e-16
0.519732 0.870368 -3.33067e-16
0.5 0.869703 -3.88578e-16
0.48 0.868424 -3.88578e-16
0.460053 0.866488 -3.88578e-16
0.440161 0.864051 -4.30211e-16
0.420313 0.861274 -4.16334e-16
0.4 0.857811 -3.88578e-16
0.38 0.853588 -3.88578e-16
0.360112 0.848867 -3.92048e-16
0.340339 0.843681 -4.16334e-16
0.320779 0.837745 -3.88578e-16
0.3 0.830189 -4.44089e-16
0.286435 0.824151 -4.44089e-16
0.273007 0.817814 -4.44089e-16
0.259805 0.81102 -4.996e-16
0.246971 0.803554 -4.68375e-16
0.241578 0.8 -4.44089e-16
0.233262 0.79421 -4.44089e-16
0.225203 0.788067 -4.44089e-16
0.217421 0.781578 -3.33067e-16
0.209936 0.774747 -3.33067e-16
0.2 0.76465 -3.33067e-16
0.189117 0.75172 -3.33067e-16
0.179259 0.737993 -3.88578e-16
0.17044 0.723576 -4.44089e-16
0.162579 0.708615 -4.44089e-16
0.158611 0.7 -4.85723e-16
0.150101 0.68 -3.61039e-16
0.143622 0.659253 -2.98372e-16
0.138898 0.638037 -3.05311e-16
0.135099 0.616637 -3.33067e-16
0.132932 0.6 -4.44089e-16
0.131084 0.58 -4.996e-16
0.130434 0.559925 -5.13478e-16
0.130567 0.539841 -4.57967e-16
0.131179 0.519765 -4.44089e-16
0.132375 0.5 -4.996e-16
0.134354 0.48 -4.996e-16
0.137126 0.460094 -4.85723e-16
0.140561 0.440293 -4.996e-16
0.144426 0.42057 -4.85723e-16
0.149297 0.4 -4.44089e-16
0.155065 0.38 -4.51028e-16
0.161435 0.360184 -4.30211e-16
0.16839 0.340565 -3.88578e-16
0.176311 0.321316 -4.44089e-16
0.18647 0.3 -3.33067e-16
0.189176 0.295227 -3.33067e-16
0.191918 0.290475 -3.33067e-16
0.194702 0.285747 -3.33067e-16
0.19755 0.281057 -3.88578e-16
0.2 0.277151 -4.44089e-16
0.209938 0.26172 -3.60822e-16
0.220784 0.246914 -4.44089e-16
0.232535 0.232816 -4.16334e-16
0.245161 0.219495 -4.02456e-16
0.26648 0.2 -3.05311e-16
0.273184 0.195191 -2.77556e-16
0.280008 0.190554 -2.77556e-16
0.286947 0.18609 -2.77556e-16
0.29399 0.181794 -2.22045e-16
0.3 0.178284 -2.77556e-16
0.32 0.16704 -2.498e-16
0.340897 0.157566 -2.91434e-16
0.362466 0.149743 -2.90133e-16
0.384461 0.143211 -2.63678e-16
0.4 0.139343 -2.22045e-16
0.42 0.135041 -3.33067e-16
0.440213 0.131889 -3.33067e-16
0.460539 0.129571 -3.33067e-16
0.480916 0.127751 -3.60822e-16
0.5 0.126608 -3.33067e-16
0.52 0.126113 -4.09395e-16
0.540004 0.1264 -4.16334e-16
0.559995 0.127193 -4.16334e-16
0.579964 0.1284 -3.60822e-16
0.6 0.130195 -3.33067e-16
0.62 0.132927 -3.88578e-16
0.639895 0.13634 -3.747e-16
0.659675 0.140368 -3.88578e-16
0.679336 0.144942 -4.44089e-16
0.7 0.151266 -4.89192e-16
0.72 0.159344 -4.996e-16
0.739556 0.168444 -4.996e-16
0.758458 0.178835 -5.41234e-16
0.776022 0.191354 -4.44089e-16
0.785454 0.2 -4.996e-16
0.788363 0.203082 -4.996e-16
[...]
POINT_DATA 12805
 FIELD attributes 1
U 3 12805 float
2.34574e-19 	-4.38739e-18 	-2.33484e-36
0.00236717 	-0.0106945 	0 0.00306949 	-0.0106614 	6.92842e-24 0.0037097 	-0.0104433 	8.35504e-23 0.00433472 	-0.0101836 	1.62612e-22 0.00472724 	-0.00998957 	2.15085e-22 0.00604898 	-0.00942261 	2.73478e-22 0.00731487 	-0.0087179 	3.10427e-22 0.00850485 	-0.00788833 	3.25546e-22 0.0094413 	-0.00687893 	3.93052e-22 0.0111832 	-0.00433998 	5.61953e-22 0.0114423 	-0.00379036 	6.0433e-22 0.0116732 	-0.00323005 	6.38036e-22 0.0118756 	-0.00266054 	6.63051e-22 0.0120013 	-0.00208017 	6.33441e-22 0.0119782 	-0.0015731 	4.99132e-22 0.0123164 	8.34104e-05 	3.10621e-22 0.0122032 	0.00188227 	2.19044e-22 0.0118369 	0.00369163 	1.41973e-22 0.0112206 	0.00547187 	8.14028e-23 0.0109469 	0.0060187 	6.78269e-23 0.0108092 	0.00629276 	4.68032e-23 0.0106663 	0.00656361 	2.56361e-23 0.0105183 	0.00683109 	4.33872e-24 0.0103332 	0.00711002 	0 0.0101037 	0.00743172 	0 0.00889203 	0.00963948 	0 0.00738047 	0.0115558 	0 0.00560439 	0.0130888 	1.34829e-22 0.00361183 	0.0141944 	4.66466e-22 0.0023831 	0.0146352 	6.46709e-22 0.000701308 	0.015074 	4.7636e-22 -0.000919847 	0.015197 	2.56424e-22 -0.00243033 	0.0149845 	-1.77934e-23 -0.00408583 	0.0144672 	-1.28914e-22 -0.00579099 	0.0136934 	-1.70196e-22 -0.00775558 	0.0126351 	-8.63673e-23 -0.00962861 	0.0113162 	0 -0.0112159 	0.00967415 	0 -0.0126269 	0.00783454 	0 -0.0131102 	0.00702936 	0 -0.0138122 	0.00612747 	0 -0.0144195 	0.0052291 	0 -0.0148478 	0.00438816 	0 -0.0152315 	0.0035366 	0 -0.01652 	0.000269476 	0 -0.0165765 	-1.24053e-05 	0 -0.0166272 	-0.000293272 	0 -0.0166668 	-0.000540153 	0 -0.0166847 	-0.000658665 	0 -0.0167017 	-0.000777052 	0 -0.016718 	-0.000895307 	0 -0.0167334 	-0.00101343 	0 -0.0167416 	-0.00113452 	0 -0.0165216 	-0.00250245 	-4.09634e-22 -0.0161751 	-0.0038753 	-7.86332e-22 -0.0157083 	-0.00524879 	-1.11836e-21 -0.0151212 	-0.0066126 	-1.40192e-21 -0.0139049 	-0.00822782 	-1.67509e-21 -0.0128149 	-0.00991214 	-9.62037e-22 -0.0115174 	-0.0115093 	-2.31835e-22 -0.0097562 	-0.0128315 	0 -0.00769509 	-0.0139332 	0 -0.00619764 	-0.014559 	0 -0.00516458 	-0.0151723 	0 -0.00415632 	-0.0156317 	0 -0.0031779 	-0.015942 	0 -0.00219185 	-0.0162144 	0 0.00234536 	-0.0172405 	0 0.00382327 	-0.0169697 	4.71911e-23 0.00527078 	-0.0165654 	9.48206e-23 0.00672325 	-0.0160805 	1.35768e-22 0.00816528 	-0.0155047 	1.75564e-22 0.00976854 	-0.014145 	4.72459e-22 0.0113525 	-0.0132392 	7.98226e-22 0.01286 	-0.0122106 	1.112e-21 0.0137522 	-0.0106549 	1.30987e-21 0.0145295 	-0.00899449 	1.48777e-21 0.0146128 	-0.00877682 	1.50757e-21 0.0153488 	-0.00796697 	1.68999e-21 0.0160208 	-0.00714019 	1.83215e-21 0.0163586 	-0.00628255 	1.6752e-21 0.0166777 	-0.00541825 	1.52127e-21 0.0174855 	-0.00307589 	1.11543e-21 0.0175865 	-0.00277524 	1.07927e-21 0.0176834 	-0.00247437 	1.04236e-21 0.0177761 	-0.00217339 	1.00471e-21 0.0178648 	-0.00187239 	9.66349e-22 0.0178487 	-0.00158805 	8.89327e-22 0.017937 	-0.000211493 	6.78751e-22 0.0178149 	0.00123127 	4.95218e-22 0.0175948 	0.00268586 	3.26751e-22 0.0172761 	0.00414273 	1.74796e-22 0.0172143 	0.00435775 	1.54896e-22 0.0171564 	0.00461073 	1.16075e-22 0.0170967 	0.00486312 	7.69194e-23 0.0170351 	0.00511488 	3.74391e-23 0.0169658 	0.00536866 	0 0.0167939 	0.00567704 	0 0.0161165 	0.00741171 	1.33974e-22 0.0152541 	0.00907865 	3.00045e-22 0.014356 	0.0107375 	4.17779e-22 0.0131259 	0.0124327 	7.57105e-22 0.0106977 	0.0152668 	1.52889e-21 0.0102743 	0.0159038 	1.69367e-21 0.00984833 	0.0165249 	1.84894e-21 0.00941663 	0.0171252 	1.9871e-21 0.0088867 	0.0175908 	1.91954e-21 0.00847099 	0.017944 	1.86087e-21 0.00728334 	0.0196526 	2.0587e-21 0.00601237 	0.0211216 	2.19799e-21 0.00453274 	0.0220717 	2.18873e-21 0.00312563 	0.0223653 	1.84032e-21 0.00207074 	0.0224936 	1.56577e-21 0.000863658 	0.0230726 	1.58487e-21 -0.000342083 	0.0235586 	1.59177e-21 -0.00149684 	0.0233818 	1.22789e-21 -0.00271142 	0.0225745 	5.34522e-22 -0.00393854 	0.0216847 	-1.53829e-22 -0.00535545 	0.0211876 	-1.20652e-21 -0.00678776 	0.0205674 	-2.21415e-21 -0.00829706 	0.0193348 	-2.00207e-21 -0.00975236 	0.0178735 	-1.60875e-21 -0.0113835 	0.0156123 	-6.87921e-22 -0.0117207 	0.0152998 	-6.4095e-22 -0.0120584 	0.0149843 	-5.94804e-22 -0.0123203 	0.0146093 	-5.34643e-22 -0.0125733 	0.0142249 	-4.73562e-22 -0.0127552 	0.0139463 	-4.30195e-22 -0.01463 	0.0121271 	-1.93836e-22 -0.016549 	0.010292 	-1.33498e-24 -0.0181653 	0.00852451 	6.43351e-23 -0.0191 	0.00679385 	0 -0.0198228 	0.00446965 	0 -0.0209839 	0.00309057 	0 -0.0213259 	0.00201901 	0 -0.0216494 	0.000954625 	0 -0.0219541 	-0.000100049 	0 -0.0218369 	-0.00140318 	0 -0.022073 	-0.00252094 	-2.40347e-22 -0.0217678 	-0.00340734 	-8.53931e-22 -0.0214538 	-0.00430362 	-1.43492e-21 -0.0210653 	-0.00521545 	-2.02098e-21 -0.019752 	-0.00628507 	-3.13791e-21 -0.0195656 	-0.00748995 	-5.49912e-21 -0.0193197 	-0.00869825 	-7.79753e-21 -0.0183036 	-0.00968918 	-8.39452e-21 -0.0165416 	-0.0106547 	-6.97236e-21 -0.0142853 	-0.0119526 	-5.17191e-21 -0.0139608 	-0.0124175 	-5.50554e-21 -0.0136327 	-0.0128844 	-5.82346e-21 -0.013089 	-0.0132664 	-5.47933e-21 -0.0124615 	-0.0136171 	-4.87153e-21 -0.0120312 	-0.013857 	-4.4432e-21 -0.0105362 	-0.015353 	-2.91333e-21 -0.00906188 	-0.0168919 	-1.26112e-21 -0.00753973 	-0.0179795 	-1.01643e-21 -0.00597331 	-0.0187761 	-1.51946e-21 -0.00382058 	-0.0192343 	-2.5403e-21 -0.00245699 	-0.0201538 	-2.12327e-21 -0.00135295 	-0.0203846 	-1.90644e-21 -0.000255402 	-0.0206156 	-1.63987e-21 0.000832553 	-0.0208462 	-1.32538e-21 0.00229898 	-0.020687 	-1.26105e-21 0.00354971 	-0.0208806 	-9.52236e-22 0.00450181 	-0.0205332 	-6.48181e-22 0.00547151 	-0.0201971 	-3.31335e-22 0.00644829 	-0.0196507 	-7.14251e-23 0.00751123 	-0.0183003 	-8.8718e-24 0.00875321 	-0.0180654 	3.84901e-24 0.00999859 	-0.017797 	2.32552e-23 0.0110244 	-0.0168537 	2.40187e-22 0.0118805 	-0.0154942 	5.54557e-22 0.0129559 	-0.0134452 	1.00877e-21 0.0130605 	-0.0133802 	1.02769e-21 0.0131654 	-0.0133153 	1.04673e-21 0.0132442 	-0.0132144 	1.06501e-21 0.0133014 	-0.0130838 	1.08267e-21 0.0133551 	-0.012962 	1.09929e-21 0.0147421 	-0.0116273 	1.66846e-21 0.0162362 	-0.0103491 	2.29066e-21 0.0171547 	-0.00885037 	2.31297e-21 0.0175054 	-0.00713171 	1.77183e-21 0.0176929 	-0.00613156 	1.4515e-21 0.0185271 	-0.00531194 	1.48095e-21 0.0189342 	-0.00454156 	1.34681e-21 0.0191759 	-0.00379645 	1.15226e-21 0.0194295 	-0.00306109 	9.67464e-22 0.020025 	-0.00106344 	4.59758e-22 0.0200559 	-0.000522852 	3.86679e-22 0.0199823 	-1.11692e-05 	3.38678e-22 0.0199126 	0.000502091 	2.89402e-22 0.0198469 	0.0010166 	2.38872e-22 0.01934 	0.00370337 	0 0.0189089 	0.00481345 	8.04578e-23 0.0182991 	0.00586746 	1.88227e-22 0.0177208 	0.00695053 	2.84734e-22 0.0169786 	0.00811984 	4.61739e-22 0.0152647 	0.00980986 	1.06489e-21 0.0145043 	0.0115423 	1.85077e-21 0.0136957 	0.0132859 	2.57639e-21 0.0120785 	0.0150564 	2.80141e-21 0.0104905 	0.0167922 	2.97179e-21 0.0103753 	0.0169179 	2.9805e-21 0.00983967 	0.0179789 	3.28428e-21 0.00931281 	0.0190121 	3.55547e-21 0.00866787 	0.019862 	3.53815e-21 0.00804735 	0.0207008 	3.52014e-21 0.00677699 	0.0224609 	3.48048e-21 0.00648136 	0.0229882 	3.50359e-21 0.00619085 	0.0235083 	3.52445e-21 0.0059053 	0.0240213 	3.54317e-21 0.005627 	0.0244971 	3.54105e-21 0.00538634 	0.0246948 	3.38306e-21 0.00472714 	0.0260551 	3.29886e-21 0.00384532 	0.026904 	3.07922e-21 0.00297452 	0.0276878 	2.85014e-21 0.00214892 	0.0282765 	2.53717e-21 0.00159524 	0.0279347 	1.75799e-21 0.00110419 	0.0287933 	1.67956e-21 0.000314925 	0.0289188 	1.33984e-21 -0.000578354 	0.0287621 	9.1247e-22 -0.00138297 	0.0282707 	4.78262e-22 -0.00194632 	0.0270227 	3.108e-23 -0.00258007 	0.0269366 	4.13142e-24 -0.00346958 	0.0260319 	-1.30408e-22 -0.00442318 	0.0249495 	-2.85533e-22 -0.00540713 	0.0238025 	-4.45594e-22 -0.00625452 	0.0220307 	-5.75246e-22 -0.00659063 	0.0216516 	-5.78685e-22 -0.00694134 	0.0210293 	-3.94204e-22 -0.00730193 	0.0203724 	-1.86998e-22 -0.00767211 	0.0197088 	2.07314e-23 -0.0078297 	0.0194309 	1.07013e-22 -0.00869967 	0.0182249 	3.92421e-22 -0.00962856 	0.0170137 	6.58457e-22 -0.010619 	0.0158022 	9.01629e-22 -0.0115134 	0.0144797 	1.14925e-21 -0.0126644 	0.0124827 	1.49702e-21 -0.0139268 	0.0111299 	1.9668e-21 -0.0152186 	0.009807 	2.36261e-21 -0.0159765 	0.0085916 	2.1562e-21 -0.0161259 	0.00749045 	1.30295e-21 -0.0161902 	0.00708299 	9.67467e-22 -0.0181699 	0.00568122 	5.8048e-22 -0.0202662 	0.00437743 	1.77328e-22 -0.0207257 	0.0035836 	0 -0.0200527 	0.00262874 	0 -0.0195573 	0.00192422 	0 -0.0212309 	0.000938284 	0 -0.0220962 	0.00023248 	0 -0.0221836 	-0.000215483 	0 -0.0216075 	-0.000727771 	0 -0.0203301 	-0.00129998 	0 -0.0215305 	-0.0020901 	0 -0.0222485 	-0.00272527 	-7.97252e-23 -0.0221226 	-0.00309523 	-2.9599e-22 -0.0207105 	-0.00353066 	-1.14802e-21 -0.0189783 	-0.00400778 	-2.18392e-21 -0.0196261 	-0.00465872 	-3.31729e-21 -0.0202896 	-0.00532118 	-4.456e-21 -0.0197237 	-0.00598578 	-5.17064e-21 -0.0179179 	-0.0065158 	-5.29077e-21 -0.0160438 	-0.00714113 	-5.47579e-21 -0.0161238 	-0.00760949 	-5.63333e-21 -0.0157549 	-0.00810764 	-5.56751e-21 -0.0148613 	-0.00864531 	-5.2438e-21 -0.0139798 	-0.00921247 	-4.9463e-21 -0.0136032 	-0.00947228 	-4.82961e-21 -0.013108 	-0.00999078 	-5.03659e-21 -0.0126284 	-0.01053 	-5.28268e-21 -0.0121397 	-0.0110787 	-5.48891e-21 -0.011323 	-0.0115062 	-4.68158e-21 -0.0102127 	-0.0121339 	-3.61661e-21 -0.00938 	-0.0130606 	-2.89376e-21 -0.0085748 	-0.0140181 	-2.25223e-21 -0.00775838 	-0.0147672 	-2.11049e-21 -0.00685424 	-0.0148786 	-3.21975e-21 -0.00636345 	-0.0149557 	-3.86095e-21 -0.00518742 	-0.0166111 	-5.0007e-21 -0.00409319 	-0.0183833 	-6.19338e-21 -0.0033351 	-0.0187859 	-6.74023e-21 -0.00237274 	-0.018217 	-6.1054e-21 -0.00164458 	-0.0177998 	-5.58305e-21 -0.00062337 	-0.0192643 	-5.96289e-21 0.000132438 	-0.0200664 	-5.80225e-21 0.000613651 	-0.0201386 	-5.0807e-21 0.00118232 	-0.0195285 	-3.99545e-21 0.00181675 	-0.0183661 	-2.61968e-21 0.00269185 	-0.0193308 	-1.66068e-21 0.0034924 	-0.0201331 	-7.45407e-22 0.00392144 	-0.020008 	-9.25952e-23 0.00437116 	-0.0184602 	-2.10312e-22 0.00486934 	-0.0168848 	-3.30525e-22 0.00555432 	-0.0172779 	-4.62523e-22 0.0062517 	-0.0176342 	-5.80599e-22 0.00688258 	-0.016726 	-4.78708e-22 0.0074897 	-0.0157156 	-3.5039e-22 0.00803898 	-0.0141791 	-1.36072e-22 0.00818054 	-0.0141769 	-1.03155e-22 0.00831847 	-0.0141295 	-7.18517e-23 0.00843546 	-0.0138855 	-4.76418e-23 0.00855565 	-0.0136446 	-2.32926e-23 0.00865939 	-0.0134446 	-2.71214e-24 0.00931273 	-0.012714 	1.35434e-22 0.0100319 	-0.0120348 	2.8039e-22 0.0108171 	-0.0114119 	4.31902e-22 0.0112707 	-0.010307 	5.76322e-22 0.0120845 	-0.00866864 	8.12903e-22 0.0123998 	-0.00842424 	8.51234e-22 0.0127236 	-0.00818701 	8.91423e-22 0.0130344 	-0.0079507 	9.3054e-22 0.0130925 	-0.00764474 	9.36286e-22 0.0131477 	-0.00739183 	9.42419e-22 0.0143071 	-0.00648629 	9.13631e-22 0.0156006 	-0.00565839 	9.01428e-22 0.0160301 	-0.0047608 	8.40289e-22 0.0157613 	-0.00392301 	7.22909e-22 0.0156023 	-0.00335642 	6.48165e-22 0.0168348 	-0.00262486 	2.95091e-22 0.0176867 	-0.00201719 	6.06134e-23 0.0178186 	-0.00159128 	2.14882e-23 0.0175593 	-0.00105155 	3.86856e-23 0.0168715 	-0.000417966 	1.18772e-22 0.0178765 	0.00025637 	2.72857e-23 0.0181356 	0.000719444 	0 0.0180954 	0.00109357 	0 0.0176151 	0.00157844 	0 0.0164177 	0.00224298 	0 0.0169785 	0.00291253 	0 0.0173831 	0.00353985 	0 0.0171799 	0.00399697 	3.15546e-25 0.0156497 	0.00478957 	1.77859e-22 0.0140991 	0.00569438 	3.75576e-22 0.0140879 	0.00655556 	2.88234e-22 0.0137348 	0.00755023 	3.42685e-22 0.0124092 	0.00884516 	7.60174e-22 0.0111477 	0.0102182 	1.21602e-21 0.0104503 	0.0110695 	1.50639e-21 0.0103196 	0.011393 	1.64028e-21 0.0101943 	0.0117184 	1.77566e-21 0.00998217 	0.0120495 	1.86054e-21 0.00970744 	0.0123855 	1.90809e-21 0.00936949 	0.0128128 	1.97072e-21 0.0084257 	0.0145696 	2.54083e-21 0.00759357 	0.0163288 	3.09772e-21 0.00684941 	0.0180575 	3.62099e-21 0.00592392 	0.0193874 	3.73827e-21 0.00546845 	0.0201045 	3.79999e-21 0.00501979 	0.0222451 	4.04582e-21 0.00463797 	0.0243802 	4.28998e-21 0.00421966 	0.0257354 	4.12454e-21 0.00353561 	0.0262953 	3.63904e-21 0.00292749 	0.0267921 	3.19087e-21 0.00254177 	0.0283994 	3.20807e-21 0.00223948 	0.0297353 	3.08051e-21 0.00214088 	0.0303097 	2.52894e-21 0.00174219 	0.0302946 	1.81481e-21 0.00117492 	0.0299264 	1.01769e-21 0.000687132 	0.0307696 	9.45003e-22 0.000395209 	0.0310391 	8.66652e-22 0.000274371 	0.0308096 	7.8166e-22 -2.96505e-05 	0.0301459 	5.36037e-22 -0.000565946 	0.0289345 	8.91657e-23 -0.00116881 	0.0288912 	6.35168e-23 -0.00157403 	0.0283384 	7.95149e-23 -0.00180133 	0.0273356 	1.32634e-22 -0.00219676 	0.025816 	1.15063e-22 -0.0027337 	0.0238968 	4.25437e-23 -0.00345866 	0.022951 	7.053e-23 -0.00421568 	0.0219665 	9.13503e-23 -0.00469425 	0.0202694 	2.00403e-22 -0.00525314 	0.0179748 	7.83561e-22 -0.00595047 	0.0155223 	1.41164e-21 -0.00699395 	0.0137922 	2.36155e-21 -0.00793802 	0.011998 	2.84205e-21 -0.00855931 	0.0100864 	2.43889e-21 -0.00931196 	0.00824212 	1.96614e-21 -0.00948817 	0.00790185 	1.85849e-21 -0.0101062 	0.00732557 	2.08946e-21 -0.0107607 	0.00677458 	2.33283e-21 -0.0110707 	0.00629479 	2.22584e-21 -0.0112559 	0.00585186 	1.98648e-21 -0.011681 	0.00497792 	1.51808e-21 -0.0122591 	0.00431653 	1.25912e-21 -0.0128825 	0.00370633 	1.02012e-21 -0.0135446 	0.00314483 	8.00105e-22 -0.013544 	0.00283763 	7.03841e-22 -0.0125388 	0.00290734 	7.86186e-22 -0.0145021 	0.00206849 	5.47827e-22 -0.015374 	0.00138933 	3.23144e-22 -0.0159703 	0.000778767 	1.07446e-22 -0.0152217 	0.000553482 	0 -0.0132239 	0.000691248 	0 -0.0154136 	0.000214218 	0 -0.0167371 	-0.000246111 	0 -0.0168677 	-0.000688296 	0 -0.0158346 	-0.000889292 	0 -0.0137805 	-0.000881351 	0 -0.0157728 	-0.00108237 	0 -0.0163127 	-0.00136918 	-1.70348e-22 -0.0160652 	-0.00170821 	-4.38542e-22 -0.0156528 	-0.00203312 	-7.11699e-22 -0.013958 	-0.00222963 	-9.93171e-22 -0.0152333 	-0.00227777 	-8.61178e-22 -0.0147182 	-0.00257677 	-1.17284e-21 -0.0142484 	-0.00289539 	-1.50114e-21 -0.0138284 	-0.0032352 	-1.84734e-21 -0.0133827 	-0.0036118 	-2.23833e-21 -0.0134396 	-0.00360783 	-2.2211e-21 -0.0134124 	-0.00362456 	-2.21658e-21 -0.0133798 	-0.00364276 	-2.21298e-21 -0.0133473 	-0.00366107 	-2.20944e-21 -0.0133157 	-0.00367913 	-2.20605e-21 -0.0127668 	-0.00404721 	-2.23038e-21 -0.0122815 	-0.00445634 	-2.29222e-21 -0.0118668 	-0.0049099 	-2.39516e-21 -0.0112782 	-0.00541944 	-2.41254e-21 -0.00948265 	-0.00611704 	-1.85994e-21 -0.00902904 	-0.00685292 	-1.2805e-21 -0.00861245 	-0.00766222 	-7.97335e-22 -0.00739559 	-0.00813401 	-7.30961e-22 -0.00629185 	-0.00871895 	-7.85045e-22 -0.00608862 	-0.0088653 	-8.23141e-22 -0.00572733 	-0.00942548 	-4.18807e-22 -0.00539131 	-0.0100154 	-1.92881e-23 -0.00500196 	-0.0102009 	-3.98872e-22 -0.00462798 	-0.0103877 	-8.13208e-22 -0.00390381 	-0.0108149 	-1.64804e-21 -0.00355236 	-0.0112015 	-1.89782e-21 -0.00322277 	-0.0116138 	-2.16832e-21 -0.00291387 	-0.0120494 	-2.45763e-21 -0.00269569 	-0.0122149 	-2.76387e-21 -0.00272841 	-0.0114879 	-3.04679e-21 -0.00200597 	-0.0130358 	-5.21258e-21 -0.00139963 	-0.0135117 	-6.02791e-21 -0.000827739 	-0.0140364 	-6.78325e-21 -0.000512442 	-0.0137481 	-6.57187e-21 -0.000586812 	-0.0121714 	-4.93419e-21 -0.000135821 	-0.0139294 	-6.31488e-21 0.000330259 	-0.0147446 	-6.49958e-21 0.000807155 	-0.0148361 	-5.76031e-21 0.0011247 	-0.0143049 	-4.49111e-21 0.00118564 	-0.0127141 	-2.3782e-21 0.00137767 	-0.0142358 	-1.80023e-21 0.00171024 	-0.0142097 	-1.31329e-21 0.00207956 	-0.013927 	-8.61701e-22 0.00246097 	-0.0136948 	-4.32945e-22 0.00276096 	-0.0127538 	-4.20602e-22 0.00277819 	-0.0132585 	-6.31745e-22 0.00293823 	-0.0129736 	-6.08302e-22 0.00310619 	-0.0127062 	-5.82208e-22 0.00328246 	-0.0124573 	-5.53325e-22 0.00341518 	-0.0122926 	-5.30502e-22 0.00359437 	-0.0121506 	-5.47556e-22 0.00378152 	-0.0120246 	-5.65101e-22 0.00397677 	-0.0119151 	-5.83144e-22 0.00417492 	-0.0117385 	-5.87576e-22 0.00435795 	-0.0110159 	-4.99373e-22 0.00477633 	-0.0108565 	-3.78693e-22 0.00518109 	-0.0105551 	-2.48732e-22 0.00562117 	-0.0102778 	-1.1541e-22 0.00600318 	-0.00913907 	-1.44799e-23 0.00657758 	-0.00785595 	1.10505e-22 0.00677942 	-0.00773687 	1.21342e-22 0.00699426 	-0.00763016 	1.32949e-22 0.00714993 	-0.00737342 	1.47498e-22 0.00729399 	-0.00707014 	1.63826e-22 0.00741472 	-0.00685626 	1.76808e-22 0.00803112 	-0.00625292 	2.37593e-22 0.00874978 	-0.00572189 	3.0519e-22 0.00919651 	-0.00515687 	3.29574e-22 0.00946486 	-0.00458101 	3.24672e-22 0.0103009 	-0.00332287 	3.25976e-22 0.0103042 	-0.00332109 	3.26061e-22 0.0103076 	-0.00331931 	3.26146e-22 0.0103109 	-0.00331753 	3.26231e-22 0.0103125 	-0.0033162 	3.26352e-22 0.0103078 	-0.00331648 	3.26599e-22 0.0106472 	-0.00279653 	2.69191e-22 0.0110588 	-0.00231786 	2.17797e-22 0.0115427 	-0.00187739 	1.7173e-22 0.0119932 	-0.00149747 	1.34678e-22 0.0109112 	-0.00158008 	1.69625e-22 0.0122056 	-0.00114188 	1.19879e-22 0.0127441 	-0.000730479 	7.20723e-23 0.0130093 	-0.000336313 	2.57242e-23 0.0125658 	-0.00012352 	0 0.0112158 	-0.000135613 	0 0.0126548 	0.000102627 	0 0.0132512 	0.000414628 	0 0.0131789 	0.000786565 	0 0.0126484 	0.00107984 	0 0.0113059 	0.00123983 	0 0.0126197 	0.00130438 	0 0.0124091 	0.00164871 	0 0.0120115 	0.00205335 	0 0.0116707 	0.00247933 	0 0.0108666 	0.00292478 	0 0.0112578 	0.002922 	0 0.0110088 	0.00311764 	0 0.0107305 	0.00333503 	0 0.0104657 	0.0035624 	0 0.0102954 	0.00372406 	0 0.0099851 	0.00415309 	0 0.00972974 	0.00461411 	0 0.0095318 	0.00510711 	0 0.00901748 	0.00572372 	1.26632e-22 0.0078251 	0.00671131 	5.07925e-22 0.00721889 	0.00789324 	4.70413e-22 0.00676241 	0.00918265 	4.92302e-22 0.0058442 	0.0106652 	9.43725e-22 0.00486043 	0.0122712 	1.6122e-21 0.0047061 	0.0125972 	1.75121e-21 0.00431659 	0.0147272 	2.51887e-21 0.00397131 	0.0167501 	3.16898e-21 0.00354523 	0.0185283 	3.566e-21 0.00309753 	0.0201794 	3.88758e-21 0.00255053 	0.0212828 	3.97717e-21 0.00234111 	0.0232526 	4.16149e-21 0.00221603 	0.0245329 	3.92341e-21 0.00210615 	0.0258152 	3.68854e-21 0.00200914 	0.0270991 	3.4564e-21 0.00163228 	0.0278968 	3.08964e-21 0.00141696 	0.0289793 	2.83678e-21 0.00133709 	0.0295559 	2.30257e-21 0.00125975 	0.0301331 	1.77047e-21 0.0011848 	0.0307108 	1.24037e-21 0.000953116 	0.0309775 	6.27024e-22 0.000725159 	0.0310649 	5.42248e-22 0.000606236 	0.0308336 	4.53664e-22 0.00048666 	0.030603 	3.66333e-22 0.000366418 	0.030373 	2.80285e-22 0.000160066 	0.0299401 	1.19716e-22 -9.2957e-05 	0.0291295 	1.62096e-22 -0.000267776 	0.0281163 	2.21004e-22 -0.000448974 	0.0271043 	2.79218e-22 -0.000637255 	0.0260936 	3.36658e-22 -0.000898751 	0.0248694 	3.64518e-22 -0.00122543 	0.0234195 	4.38649e-22 -0.00147143 	0.0217724 	5.18841e-22 -0.00174291 	0.0201285 	5.94962e-22 -0.00204594 	0.0184892 	6.65999e-22 -0.00240296 	0.0164866 	1.00879e-21 -0.00295391 	0.0147649 	1.69766e-21 -0.00339544 	0.0128063 	1.90963e-21 -0.00396169 	0.0108725 	2.18655e-21 -0.00447139 	0.00890776 	2.14062e-21 -0.00482301 	0.0064763 	1.29758e-21 -0.0055486 	0.0049331 	9.81651e-22 -0.00653363 	0.00360113 	7.67353e-22 -0.00587376 	0.00331059 	8.78848e-22 -0.00503539 	0.00314253 	9.99452e-22 -0.00612571 	0.00188277 	4.7927e-22 -0.00793011 	0.000822743 	7.4628e-24 -0.00752756 	0.000762319 	-2.22033e-36 -0.00647763 	0.000857117 	9.65603e-23 -0.00460995 	0.0010689 	2.89046e-22 -0.00657328 	0.000230054 	5.06875e-23 -0.00706805 	5.22423e-05 	0 -0.00702431 	5.1919e-05 	0 -0.0064018 	9.63194e-05 	0 -0.00450993 	0.000235746 	0 -0.00669961 	-0.000241284 	0 -0.00726687 	-0.000318567 	0 -0.00753677 	-0.000330399 	0 -0.00719152 	-0.00033632 	0 -0.00509787 	-0.000326042 	0 -0.00709016 	-0.000527058 	0 -0.00816906 	-0.000629432 	0 -0.00860173 	-0.000662769 	0 -0.00774119 	-0.000770632 	-1.49875e-22 -0.00594521 	-0.000949679 	-4.23027e-22 -0.00752037 	-0.000954025 	-2.14818e-22 -0.00897734 	-0.000940882 	0 -0.00925286 	-0.00101983 	-5.07285e-23 -0.00775556 	-0.00136369 	-5.58123e-22 -0.00647024 	-0.00174623 	-1.08