/*--------------------------------*- C++ -*----------------------------------*\
| =========                 |                                                 |
| \\      /  F ield         | OpenFOAM: The Open Source CFD Toolbox           |
|  \\    /   O peration     | Version:  v1912                                 |
|   \\  /    A nd           | Website:  www.openfoam.com                      |
|    \\/     M anipulation  |                                                 |
\*---------------------------------------------------------------------------*/
FoamFile
{
    version     2.0;
    format      ascii;
    class       volScalarField;
    location    "0.12";
    object      k;
}
// * * * * * * * * * * * * * * * * * * * * * * * * * * * * * * * * * * * * * //

dimensions      [0 2 -2 0 0 0 0];


internalField   nonuniform List<scalar> 
5794
(
0.269193
0.170945
1.1217
0.186485
0.120746
0.191151
0.154289
0.0587117
0.499077
0.175718
0.124787
0.112394
0.0707865
0.113378
0.149346
0.108746
2.35892
0.0990549
0.134325
0.128192
1.20085
0.226272
0.119292
0.156688
0.139347
1.41611
2.17957
0.231726
0.204428
0.336026
0.0712272
0.256608
0.0685878
0.153727
0.145792
0.0899369
0.197485
0.156805
0.0813284
0.735103
0.334452
0.0900111
0.384327
0.181386
0.135282
0.0599003
0.231847
0.0597871
0.18651
0.33621
0.059017
0.0885599
0.222335
0.190567
0.023594
0.0869656
0.224575
0.0864804
0.373834
2.42657
1.1267
0.0650807
0.0731537
0.451185
0.0729857
0.071613
0.833771
0.376066
0.121151
0.076988
0.0903264
0.831235
1.6973
0.091746
0.109741
0.197552
0.0881553
1.10582
0.201704
0.03933
0.231581
0.137491
0.290204
0.0675915
0.137824
0.103439
0.21497
0.112368
0.198906
0.258174
0.259479
0.197578
0.119084
0.109122
0.134216
0.103277
0.204987
0.108627
0.189871
1.2818
0.93362
0.204305
0.41531
0.164621
0.0930938
0.0791115
0.0812681
0.0588735
0.299683
0.233095
0.0687626
0.128089
1.05197
0.0675498
0.126607
0.10692
0.199609
0.105315
0.995947
0.489636
0.0881117
0.100041
0.0772161
0.250347
0.189812
0.491843
0.136183
0.216894
0.27277
0.0960069
0.0799814
0.0607495
0.230721
1.0102
0.0826702
0.157854
2.3728
0.0693192
0.073325
0.11171
0.619864
0.118127
0.159797
0.162654
0.0990284
2.94835
0.117049
1.88756
0.0958686
0.103266
0.363606
0.134993
0.0800526
0.103556
2.84273
0.242335
0.0587126
0.0708864
0.0691673
0.14101
0.170432
0.0663512
0.0831407
0.0681751
0.0921508
0.0694117
0.0725622
0.0530319
0.0659738
0.102309
0.14068
0.208153
0.0954936
0.105732
0.116215
0.0693775
0.151526
0.10848
0.134785
0.180863
0.0530917
0.183629
0.0481806
0.0477453
0.0500739
1.61518
0.204861
0.06568
0.107308
0.169189
0.146523
0.234636
0.0577303
0.0563583
0.0527004
0.065926
0.0550456
0.079456
0.120435
0.400258
0.0857979
0.0738187
0.0509176
0.0511303
0.237431
0.0545206
0.0709406
0.0946234
0.134403
0.860168
0.337052
0.316403
0.0769896
0.094462
0.12422
0.13115
0.116415
0.19006
0.0861132
0.375471
0.30935
0.133353
0.214272
0.212044
2.44877
0.665802
0.74298
0.21201
0.0993123
0.177142
0.121229
0.104349
0.11088
0.262093
0.141257
0.381785
0.254013
1.35096
0.0721259
0.163816
0.144965
0.137701
0.815685
0.160848
0.129913
0.0697175
0.133662
0.0841299
0.151649
0.0963053
0.16546
0.0759366
2.8728
0.07104
0.224485
0.204696
0.434084
0.906746
0.0898633
0.220174
2.80755
0.079658
0.0783272
0.0611433
0.0829484
0.0617922
0.133447
1.04383
0.240741
0.0628346
0.245627
0.0614007
0.152845
0.158212
0.398384
0.168524
0.193574
0.326938
0.127778
0.0928571
0.0710569
0.217441
0.298917
0.101773
0.202096
0.224987
0.338314
0.207325
0.18456
0.0901674
0.125222
0.124016
0.130247
0.153109
0.205306
1.02381
0.247846
0.133705
0.136428
0.0661525
0.137216
0.798142
0.204404
0.935978
0.143823
1.34013
0.126685
0.130147
0.0643649
0.242078
0.0634435
0.139207
0.792608
0.0671863
0.292675
0.61696
0.0593936
0.193039
0.26701
0.176345
0.103823
0.24278
0.12218
0.100851
0.0921238
0.107366
0.0800636
0.0847678
0.058226
0.0996927
0.0776094
0.392105
0.0600603
0.0646296
0.232269
0.124814
0.117212
0.0673945
0.124332
0.067081
0.149716
0.128539
0.368197
0.0810609
0.163467
0.0488432
0.0492894
0.163504
0.097673
0.167495
0.100759
0.972941
0.0507241
0.21053
0.0494883
1.09046
0.104427
0.106093
0.114867
0.055656
0.0823014
0.136305
2.50971
0.137625
0.0676462
0.0872497
0.0720923
0.0526941
0.224852
0.0467318
0.0937718
0.0504394
0.0881183
0.191416
0.0676252
0.158363
0.141335
0.211715
0.119283
0.0877863
0.514023
0.0934704
0.324079
0.0776124
0.129462
0.152814
0.181465
0.122324
0.0712726
0.0869337
0.0540474
0.0898442
0.0840555
0.0790063
0.106109
0.0952672
0.102502
0.395253
0.258836
0.106601
0.14965
0.13115
0.888556
0.0575142
0.0909679
1.19365
0.291848
0.192259
0.102276
0.174523
0.119425
0.228678
0.35421
0.181417
0.0509548
0.241347
0.0483127
0.160695
0.172062
0.188712
0.185693
0.105326
0.0625631
0.0997238
0.0760356
0.0986491
0.122124
0.0683227
0.139804
0.241481
0.35597
0.223768
0.180107
1.47891
0.119781
0.189759
0.103147
0.0519276
0.0703525
0.101094
0.134853
0.269772
0.0545488
0.0589029
0.184445
0.109958
0.133975
0.0677906
0.400328
1.19548
0.11617
0.119058
1.79086
0.226252
0.129256
0.0556774
0.22907
0.392027
0.187713
0.180856
0.234433
0.102701
0.535697
0.0782888
1.46857
0.1099
0.648777
0.255583
0.173983
0.267837
0.037117
0.194439
0.455449
0.103599
0.205726
0.267807
0.679606
0.180377
0.13406
0.10485
0.765174
0.236466
0.112768
0.0963411
0.0603343
0.117428
0.314671
0.113558
1.30088
0.231026
0.118766
0.15437
0.139055
0.0860242
0.297206
0.0975368
0.174391
0.0907579
0.0600895
1.23617
0.139861
0.477411
0.277909
0.115759
0.287124
0.0996272
0.206632
1.37881
0.300036
0.0678074
0.132266
0.124315
0.52712
0.0597106
0.0671293
0.142056
0.114064
0.0598081
0.223042
0.851023
0.179934
0.0968295
0.144529
0.103524
0.16564
0.152127
0.169542
0.517651
0.112138
0.217402
0.594793
0.0462013
0.617266
0.0941751
0.0869305
0.190486
0.24013
2.46347
0.127694
2.56976
0.227896
1.77407
0.134364
0.120295
0.0782077
0.0893518
0.215314
0.146505
0.0618346
0.177289
0.22129
0.10268
0.139301
0.175091
0.170278
0.138383
0.498506
0.220156
0.11212
0.25487
3.56781
0.149393
1.01266
0.14386
0.120978
0.10373
0.132426
0.95773
0.161835
0.0652329
1.69398
0.234478
0.191971
0.213369
0.495663
0.293301
0.187994
0.190752
0.108132
0.353322
0.132561
0.2564
0.249045
0.513593
0.291579
1.62775
0.0696521
0.122255
0.30507
0.200436
0.0666097
0.151359
0.0830825
0.148508
0.218896
0.410707
0.072794
0.293813
0.061933
0.232852
0.0813803
1.95971
0.158227
0.142523
0.0631462
0.336944
1.69444
0.132646
0.0285172
0.113728
0.339246
0.28851
0.214697
0.349907
0.0564736
0.0594126
1.2852
0.0652011
0.414838
0.155717
0.0632308
0.453419
0.534007
0.072796
0.0632544
0.159849
0.151873
0.168913
0.136796
0.0630505
0.227042
0.131971
0.0507614
0.178411
0.10855
0.110811
1.1835
0.489511
0.0940055
0.220208
0.0773264
0.629943
0.074576
0.306287
2.32241
0.200163
0.205971
0.735735
0.135919
0.0687321
0.154344
0.157359
0.104201
0.0698719
0.0661373
1.57829
1.08467
0.154491
0.725993
0.0844065
0.120916
0.114425
0.236192
0.887646
0.10932
0.202709
0.182603
0.230002
0.338669
0.209191
1.52096
0.309997
0.808975
0.153577
0.103363
0.158181
0.148777
0.0847662
0.22075
0.136681
0.14887
0.105448
0.119587
0.0718723
0.107077
2.08593
0.190531
0.0888332
0.130123
0.0638026
0.403872
0.141024
1.19853
0.1592
0.139852
0.538728
0.0720398
0.118419
0.145412
0.290633
0.134815
0.0653958
0.0458942
1.10987
0.229972
0.370425
0.251791
0.103924
0.12085
0.185602
1.54327
0.195432
0.201584
0.138227
0.40639
0.37487
0.270882
1.56455
0.623697
0.295881
0.11691
1.09806
2.42695
0.0873632
0.157354
0.295304
0.709254
0.510433
0.178603
0.675109
0.141704
0.904292
0.124469
0.485057
0.144882
0.810685
1.54756
0.221657
0.19768
0.115959
0.242659
0.114367
0.150382
0.390129
0.0876605
0.208902
0.40904
0.310184
0.320304
0.283549
0.164466
0.138413
0.113743
0.0575749
0.150284
0.132147
0.207601
0.113291
0.136667
0.376393
0.0837901
0.380881
0.134303
0.194476
0.18084
0.230652
0.364525
0.251717
0.226556
0.116917
0.29265
0.187809
0.156396
0.116919
0.100256
0.076552
0.144219
0.169857
0.165621
0.178183
0.0670732
1.27528
0.387176
0.220747
0.102477
0.138549
0.349528
0.0815527
0.140849
0.25868
0.0787346
0.299098
0.0957326
0.381754
0.0851651
0.380233
0.122438
2.4645
0.229884
1.07513
0.305991
0.0648154
0.230791
0.118162
0.162757
0.14531
0.0672612
0.109608
1.86906
0.154464
0.171282
0.445662
0.233513
1.02101
0.340785
0.0858639
0.125287
0.110026
0.166318
0.109201
0.211295
0.373804
1.71283
0.688885
0.0621403
0.388048
0.138787
0.106983
0.124951
0.306451
0.126809
0.215381
0.283335
0.0876369
0.0865883
0.11068
0.0815995
2.04367
0.127677
0.149713
0.217227
0.0906617
0.255761
0.138782
0.494272
0.0626559
0.755406
0.263704
0.316872
0.422733
0.162741
0.150979
0.248001
0.210019
1.14679
0.474745
0.834277
0.980559
0.0671797
0.071745
0.20594
0.151126
0.262745
0.0880527
0.236633
0.237559
1.36795
0.361314
0.101053
0.106292
0.0850297
0.349334
1.07635
0.179265
2.78491
0.133092
0.0952374
1.01504
0.645262
0.231151
0.0896091
0.158525
0.0764107
0.439112
0.0748516
0.0947283
0.874544
0.865508
0.264036
0.299781
0.468285
1.33662
0.180446
0.168263
0.90236
0.375633
0.110627
0.230824
0.119675
0.143712
0.0677953
0.12818
0.101545
0.181108
0.469996
0.0617361
0.254336
0.0696672
1.37354
0.415047
0.119542
0.276116
0.234966
0.149131
0.738473
0.144146
0.113289
0.234106
0.0734215
0.751645
0.401744
0.94442
0.262029
0.19248
0.205117
0.179147
0.152748
0.150808
0.123909
0.177316
0.210143
0.295791
0.173285
0.110217
0.739301
0.2445
0.0814401
0.181706
0.184675
0.104557
0.115836
0.564526
0.105755
0.197363
0.0919787
0.0669727
0.19391
0.068469
2.32779
0.246497
0.0886318
1.40259
0.115799
0.230784
0.295315
0.649241
0.305307
0.272524
0.472657
0.484052
0.134234
0.149863
0.0834456
0.0450138
0.0459805
0.0828385
0.0754176
0.138257
0.0741405
0.0658172
0.0948633
0.0793904
0.264506
0.0904844
0.215436
0.121659
0.0685716
2.02522
0.299766
0.149492
0.16002
0.133463
0.0788421
0.068588
0.201357
1.5672
0.0594132
0.997584
0.352381
0.0776098
0.304517
0.224282
0.0810475
0.291964
1.42682
0.433497
0.21537
0.744553
0.0671786
0.318754
0.525496
0.184537
1.04117
0.726808
0.127666
0.119998
0.166286
0.201915
0.071283
0.0964939
0.515762
0.424327
0.593734
0.226535
0.241182
0.0463733
0.165091
0.221241
0.220589
0.098078
2.14137
0.0704563
0.221875
0.110107
0.814332
0.303517
0.221829
0.201419
0.214324
0.196927
0.204632
0.29158
0.0596881
0.131306
0.229295
0.108359
0.186878
0.260752
0.0798097
0.274743
0.751356
0.0666446
0.11466
0.0912365
0.454626
0.05986
0.0676163
0.0950009
0.0654722
0.312325
0.0663951
0.0687103
0.192312
0.45823
0.0703392
0.0841021
0.420443
0.0674547
0.8546
0.267228
0.179064
0.093341
0.254409
0.0919994
0.0694488
0.309443
0.083752
0.0948142
0.131738
0.118937
0.0862401
0.366367
0.819107
0.335783
0.159956
0.199241
0.10585
0.0764715
0.524105
0.0868418
0.288566
0.083962
0.118245
0.484075
0.0472605
0.127695
0.132826
0.515304
0.127377
0.455293
0.830318
0.0492047
0.671698
0.247912
0.0467674
0.539101
0.0923882
0.637832
0.658194
0.0461155
0.682302
0.0492376
0.0479372
0.306437
0.0974155
0.21105
0.378347
0.0833399
0.0813991
0.156063
1.02091
0.122301
0.162911
0.102883
0.198558
0.095556
0.474009
0.0858851
0.593801
0.250759
0.408977
0.348288
0.218341
0.075578
0.0810111
0.277231
0.138333
0.0935713
0.239504
0.373631
0.404956
1.42319
1.01527
0.368159
0.310146
0.294068
0.222209
0.0739524
0.0767898
0.0678695
7.65742
0.695826
0.0659747
0.0995839
0.395451
0.349695
0.272311
0.156543
0.139889
0.149433
0.654483
0.0604157
0.258619
0.145425
0.379451
0.0934872
1.09203
0.106651
0.0704784
0.456478
0.85687
0.133535
0.623926
0.113027
0.909146
0.224524
0.346094
0.0542923
0.064117
0.196417
0.679574
0.292828
0.392795
0.336659
0.20508
0.116471
1.18661
0.191496
0.395771
0.214199
0.122338
0.228395
0.46333
0.157385
0.827099
0.0556299
0.186343
0.251854
0.623747
0.557363
0.316542
0.057159
0.049727
0.323674
1.18587
0.0686381
0.089809
0.0650015
4.01333
0.06457
0.103032
0.545957
0.168723
0.139021
0.383249
0.121122
0.388472
0.161298
0.11982
0.139172
0.299352
0.282777
0.123487
0.0848358
0.0728382
0.0675578
0.465695
0.0698522
0.677765
0.281895
0.050031
0.0920866
0.070087
0.515733
0.0705594
0.0327121
0.537421
0.663755
0.0995293
0.0468191
0.203347
0.0999749
0.64679
0.272445
0.220818
0.0691349
0.061495
0.084093
0.323025
0.144516
0.420549
0.0733835
0.0689956
0.502756
0.304954
0.0629047
0.0667608
0.338106
1.34983
0.125428
0.0499744
0.188651
0.158422
0.115085
0.229251
0.709997
0.216523
0.0680372
0.095725
0.42876
0.191384
0.448004
0.493615
0.712213
0.197932
0.111482
0.174973
0.100016
0.202249
0.442488
0.148239
0.256347
0.130717
0.29156
0.676096
0.59936
0.224231
0.121
0.410605
0.0804595
0.223458
0.456205
0.129252
0.524021
0.733645
0.161928
0.265496
0.170173
0.095468
0.0556965
0.25754
0.35822
0.0969326
0.234271
2.24605
0.294116
0.384801
0.439644
0.160828
0.0613829
0.611171
0.164189
0.467995
1.07348
0.0739059
0.0925782
0.0691864
0.250696
0.104526
0.454166
0.120133
0.27795
0.111582
0.112995
0.0908728
0.820381
0.382223
0.585315
0.659174
1.2811
0.278185
0.0376259
0.247843
0.0801804
0.876919
0.0952528
0.511187
0.082808
0.597378
0.080336
0.117586
0.255504
0.192243
0.163737
0.248882
0.1077
0.0731203
0.145412
0.0723066
0.16861
0.116965
0.123506
0.0700147
0.122656
0.432758
0.0670476
0.365863
0.191461
0.0702081
0.0714688
0.239826
0.15588
0.0680169
0.2637
0.299994
0.503007
0.0835045
0.0681794
0.571611
0.0741022
0.100428
0.433179
0.0858275
0.867625
0.129761
0.0819442
0.114959
0.355841
4.82814
0.323404
0.111842
0.372775
0.137647
1.22654
0.444496
0.0775581
0.0530403
0.052323
0.0474267
0.0425164
0.0941918
0.0538282
0.0481213
0.0787304
0.0461752
0.0531655
0.070634
0.26
0.0435514
0.0492323
0.043718
0.190801
0.0585623
0.0955311
0.332595
0.0591692
0.0918042
0.0692951
0.0446844
0.0515386
0.168325
0.346158
0.0873817
0.0468732
0.0453352
0.228701
0.0901852
0.0488963
0.0602486
0.0612242
0.0523162
0.0451956
0.0669445
0.0539334
0.0457402
0.0471748
0.0469463
0.176002
0.149894
0.148849
0.0783697
0.365913
0.117072
0.173187
0.417143
0.512653
0.179773
0.113413
0.0687507
0.447954
0.109596
1.30486
0.105184
3.60346
0.300214
0.720447
1.08502
0.105063
0.105125
0.0738969
0.1647
0.16958
0.210282
0.0969029
0.93426
0.413103
0.184166
0.222067
0.125873
0.269583
0.262491
0.188058
4.50793
0.0893878
0.17116
0.0719225
0.50329
0.138084
1.1682
2.10654
0.119213
0.508635
0.156814
1.04547
0.0647493
0.114019
0.328243
0.362169
7.46879
0.0840643
0.0701327
0.114758
0.0999228
0.198357
0.112853
0.566953
0.109454
0.051181
0.0426332
0.0586373
0.0648813
0.0520715
0.0649036
0.0446921
0.048566
0.0463893
0.0453455
0.183256
0.124141
0.046817
0.148382
0.0579684
0.30253
0.0610888
0.0575822
0.069439
0.0572357
0.0562089
0.0845252
0.057621
0.39394
0.872803
0.0343421
0.834119
0.246481
0.36226
0.159136
0.0651383
1.50048
0.128206
0.102385
0.542006
0.270984
0.30078
0.0513337
0.284075
1.76193
0.118416
0.51512
0.620357
0.270937
0.0649469
0.140741
0.428781
0.140805
0.127903
0.418071
0.39
0.144095
0.0674744
0.0721002
0.100619
0.11088
0.108745
0.305291
0.137024
0.640948
0.0519816
0.556175
0.0985947
0.0697726
0.0888156
0.100633
0.090136
0.131301
0.0803598
0.0883811
0.518011
0.315659
0.138796
0.358661
0.112117
0.690999
0.415013
0.0409089
0.280264
0.397832
0.0848668
0.526928
0.170002
0.0816155
0.106688
1.04084
0.152774
0.308121
0.0836868
0.0640129
0.266128
1.1324
0.0646625
0.109134
0.121142
0.046185
0.122926
0.660151
0.391574
0.337312
0.090218
0.357107
0.0649698
0.159044
0.349322
0.184463
0.164462
0.244776
0.0879525
0.234539
0.0702149
0.39527
0.166597
0.107446
0.345715
0.0804876
0.0674128
0.189901
0.0951772
0.0707046
0.0699745
0.090708
1.08389
0.118854
0.171483
0.206568
0.216735
0.620817
0.217066
0.688625
0.535611
0.587788
0.197468
0.109802
0.222359
0.408801
0.181462
0.477775
0.365487
0.483757
0.11587
1.22272
0.458623
1.31965
0.0756591
0.162166
0.0843728
0.726081
0.104832
0.107339
0.328287
0.463192
0.0845919
0.230565
1.26113
1.03835
0.224826
0.155779
0.0770344
0.0759513
0.359295
0.407622
0.080719
0.0688654
0.541529
0.114797
0.0985144
0.141454
0.129031
0.0918093
0.128308
0.0891516
0.105648
0.0903792
0.0966909
0.11729
0.11047
0.105317
0.118579
0.0934245
0.103705
0.0946692
0.0689142
0.0693416
0.135847
0.856691
0.0695452
0.103252
0.0861541
0.0727427
0.052415
0.119349
0.257595
0.175376
0.090804
0.138749
0.0906376
0.211938
0.16891
0.24539
0.466236
0.0803084
0.0836838
0.0775356
1.1082
0.549249
1.19274
0.4474
1.15421
1.12515
0.0947723
1.2608
0.138961
0.28162
0.152952
0.359381
0.100887
0.063001
0.923841
0.108047
0.0803842
0.0884107
0.0772613
0.186251
0.530189
0.168909
0.208841
0.355921
0.109391
0.460247
0.102289
0.145438
0.519743
0.130498
0.27107
0.208946
0.143142
0.192874
0.147134
0.104954
0.520951
0.133602
0.115021
0.347516
0.121678
0.244037
0.214801
0.177619
0.171344
0.459544
0.100612
2.3912
0.173058
0.120136
0.114251
0.208287
0.43855
0.137645
0.100772
0.158874
0.0879146
0.0816944
2.24731
0.222749
0.198223
0.168588
0.241198
0.135958
0.0782274
0.139536
0.471849
0.0921622
2.13603
0.0787062
0.138832
0.145283
0.281534
2.04242
0.173162
0.51577
0.281135
1.15333
0.0853197
0.155391
0.168014
0.0704889
0.0706147
0.467864
0.297561
0.912813
0.775341
1.09691
0.364652
0.526838
0.21893
0.970033
0.150997
0.0880981
0.575453
0.0866576
0.458093
0.0690862
0.0964298
0.451485
1.24424
1.00181
0.0914554
0.97143
0.101808
0.20532
0.148181
1.31738
0.0760661
0.167549
0.102662
0.127311
0.109519
0.135717
0.140806
0.261682
1.02873
1.15212
0.190077
0.140421
0.784639
0.524061
0.194704
0.849278
0.0990502
0.0696308
0.560675
0.0706938
0.235082
0.133066
0.0815879
0.882549
0.188994
0.144931
1.23833
0.106721
0.106425
0.0945398
0.957217
0.875004
0.175891
0.94347
0.108724
0.206857
0.0931659
0.167069
0.874349
0.624201
0.114392
0.0965193
0.121677
0.191405
0.0966989
0.103125
0.909427
0.495838
0.114413
1.05993
0.131343
0.128485
0.104609
0.102407
0.449739
0.569486
0.715789
0.104432
0.11588
0.246545
0.11304
0.494946
0.0760912
0.156874
0.0687468
0.421202
0.0756061
0.0616439
0.419757
0.069424
0.0708947
0.100165
0.0723314
0.19424
0.192351
0.136375
0.0840768
0.291865
0.123053
0.0720171
0.178686
0.321485
0.124627
0.132011
0.130371
0.0808515
0.073562
0.0594182
1.07365
1.83842
0.127455
0.12889
0.211509
0.121912
0.34652
0.0707404
0.069339
0.0789481
0.152593
0.0706171
0.115411
0.0770548
0.305521
0.0700952
0.0718294
0.0746531
0.371657
0.0743511
0.0723019
0.652565
0.195084
0.0725934
0.266692
1.15407
0.873406
0.122154
0.16099
0.225256
0.146165
0.121196
0.154088
0.268445
0.114233
0.100654
0.0901565
0.32824
0.0700191
0.0740261
0.110698
0.194276
0.11207
0.0735891
1.16415
0.0805225
1.10914
0.789472
0.0878871
0.401478
0.0683345
0.0942318
0.283828
0.111861
0.109925
0.115688
0.129307
0.103348
0.0775998
0.126212
0.464657
0.105082
0.0940895
0.756641
0.194162
0.0750774
0.125694
0.174501
0.151102
0.124401
0.317648
0.300618
0.129835
0.136015
0.164321
0.343763
0.266648
0.113294
0.0798629
0.339423
0.0758304
0.0794804
0.465539
0.100106
0.085951
0.0703359
1.26486
1.0566
0.821438
0.22111
0.0778406
0.68795
1.10412
0.0728082
0.852386
0.102409
0.764176
0.311691
0.207481
0.781545
0.326757
0.127383
0.131632
0.129565
0.133666
0.198384
0.637845
0.201474
0.320302
0.112246
0.13816
0.426515
0.120849
0.150454
0.82316
0.920732
0.863135
0.404595
0.133007
0.158572
0.0976355
0.380523
0.091728
0.0851992
0.150957
0.12289
0.132877
0.11669
0.32647
0.321752
0.465374
0.104426
1.23057
0.247256
0.0960428
0.515981
0.0698917
1.05225
0.126011
0.0882873
0.155195
0.346686
0.365611
0.520304
1.37366
0.327813
0.108264
0.12502
0.139753
0.0720312
0.12098
0.32527
0.157607
0.0911699
0.15174
0.0993523
0.121556
0.314853
1.30266
0.146218
0.171688
0.122451
0.168118
0.0845019
0.1049
0.109871
0.114708
0.425613
0.16222
0.169285
1.28482
0.190219
0.107432
0.112467
0.112278
0.16623
0.909328
0.980485
1.1339
1.68072
0.119982
0.355857
0.0903653
0.0863119
0.109007
0.128216
0.120031
0.605682
0.155431
0.130546
0.0950461
0.094982
0.606816
0.229697
0.68348
0.253373
0.143561
0.233363
0.139433
1.43458
0.227406
0.238864
1.16809
0.316184
0.102618
0.515289
0.24244
0.218464
0.517248
0.07076
0.931741
0.239467
0.111952
0.197792
0.92549
0.892341
0.306233
0.0545261
0.0703865
1.93591
1.33501
0.0961397
1.61537
0.0704736
0.0706412
0.145304
0.108801
0.984796
0.322195
0.0841081
0.19196
0.126771
0.106192
0.917973
0.267867
0.292496
0.0994008
0.187648
0.195063
0.0843315
0.20972
0.148065
0.776996
1.38166
0.194725
0.227607
1.1293
0.0670934
0.720069
0.373819
0.128247
1.36141
0.196913
1.49811
0.809944
0.120363
0.772643
0.110982
0.93508
1.37551
0.855415
0.147804
0.0779185
0.153089
1.09472
0.882843
0.182334
0.123056
0.100137
0.113913
0.223229
0.875593
0.922887
0.326765
0.496152
0.918889
0.188016
0.132442
1.01348
0.162076
0.0566789
0.0513436
0.320662
0.0966977
0.598051
0.98991
0.159764
0.211526
0.21719
0.40772
0.112619
0.147064
0.245883
0.104472
0.672379
0.381815
0.111245
0.0920898
0.20778
0.208353
0.159475
1.25456
0.0599593
0.321979
0.728587
0.472113
0.512679
0.159998
0.0835923
0.169071
0.0809967
0.635418
0.922207
0.144581
0.121079
0.0985806
0.101814
0.222207
0.398952
0.0990525
0.549122
0.368906
0.226745
0.0971687
0.195411
1.08421
0.140775
0.827587
0.140825
1.04756
0.468911
0.538325
0.153197
0.1573
0.0871928
0.104782
0.23738
0.16118
0.127208
0.431937
0.163786
0.633419
0.195604
0.412831
0.270848
0.321995
0.889411
1.23937
0.0950813
0.0680052
0.0695428
0.193608
0.884088
0.359645
0.864457
3.40345
0.0913713
0.23751
0.173656
0.101196
0.133812
0.373878
0.236636
0.0739592
0.0619174
0.876078
0.153836
0.0931916
0.0901352
0.0843997
0.0956808
0.192572
0.899677
0.679724
0.0945944
0.423242
0.311206
0.478639
0.120722
5.2028
0.216917
0.160234
0.093755
0.593264
0.122656
0.0763397
1.04691
1.07626
0.0970599
0.53534
0.10004
0.0828195
0.264133
0.0682098
0.651529
0.0785563
0.0823108
0.106509
0.985597
0.10574
0.624143
1.04346
0.239846
0.120603
0.816637
0.0489375
0.313383
0.171714
0.0950914
0.15563
0.128097
0.123836
0.573771
0.204665
0.0896895
0.99099
0.125076
0.296815
1.05286
0.294193
0.0851991
1.30059
0.127811
0.0691128
0.577209
0.405249
0.106749
0.0866928
0.107631
0.109292
0.439217
0.0762685
0.160822
0.334044
0.223189
0.253395
0.971395
0.173025
0.140475
0.142158
0.403043
0.0881641
0.994237
0.0968791
0.405277
0.585004
1.08403
0.321875
0.98599
0.0577431
0.085549
0.0866626
0.085026
0.158162
0.322702
0.0870092
0.242988
0.130013
0.268594
0.0650431
0.284046
0.448366
0.106136
0.162663
0.131923
0.204678
0.151752
0.200127
0.359688
0.299673
0.27743
1.20314
0.104712
0.0918851
0.405672
0.322727
0.125735
0.0881328
0.202057
0.45123
0.122832
0.213927
1.45914
0.219418
0.157055
0.0884356
0.369747
0.134682
0.106999
0.233151
0.44967
0.258215
1.03231
0.914542
0.305541
0.0902575
0.162839
0.168243
0.15828
0.132403
0.30936
0.269175
0.128033
0.11473
0.0726916
0.358225
0.109534
0.0920621
0.127367
0.0936435
0.968553
0.447518
0.112969
0.203856
0.895829
0.101774
0.663079
0.157845
0.211639
0.329982
0.0851814
0.117378
0.352989
0.108583
0.157904
0.380499
0.122245
0.0962489
0.513449
0.409254
0.541689
1.44365
0.393083
0.473526
0.178357
0.196498
0.12451
0.0990872
0.44891
0.068554
0.122333
0.958034
0.125658
0.811226
0.0867269
0.0745519
0.437234
0.0782141
0.0676535
0.085422
0.211986
0.122266
0.0867799
0.895358
0.115068
0.202497
0.950093
0.267888
0.103029
0.326179
1.19649
0.16111
0.146807
0.148992
0.21516
0.103346
0.463633
2.13272
0.119809
0.451529
0.0900191
0.130572
0.0600096
0.882552
0.700861
0.29591
0.402728
0.0693303
0.0899484
0.151615
0.466416
0.0700274
0.603669
0.259439
0.134557
0.444643
0.50489
0.197002
0.108682
0.115553
0.0916218
0.394972
1.59826
0.906544
0.0682578
0.775239
0.340846
0.136443
0.111939
0.142558
0.318622
0.226733
0.262001
0.114962
0.091799
0.0868915
0.487962
0.0776341
0.0715547
0.088548
0.138329
0.0800259
0.0688299
0.135422
0.852548
0.229726
0.138617
0.393778
0.0907383
0.0954693
0.102963
0.533623
0.0983574
0.127062
0.139528
0.121817
0.0873032
0.28268
0.102382
0.134002
0.127829
2.16968
0.0877276
0.0839234
0.238303
0.503716
0.63162
0.825166
0.121877
0.340612
0.120329
0.0933274
0.22025
0.0696009
0.0945051
0.167401
0.100918
0.194722
0.0498164
0.171336
0.0669824
0.560115
0.13702
0.376702
0.26698
0.233892
0.494869
0.109146
0.109332
0.963479
0.0815542
0.162164
0.328287
0.0943902
0.461109
0.0708061
0.24717
0.0683338
0.135327
0.782187
0.492383
0.708183
1.99718
0.104544
0.120672
0.126291
0.102286
0.838983
0.111054
0.223179
0.103118
0.224233
0.385284
0.130182
0.976248
0.188619
0.0960853
0.248444
0.102566
0.190387
0.102139
0.0931743
0.442419
0.072517
0.0956744
0.115011
0.072853
0.158331
0.115177
0.604382
0.109829
0.305706
0.154249
0.12587
0.350713
0.261956
0.678385
0.168681
0.189573
0.19054
0.0918834
0.138892
0.852036
0.256827
0.332242
0.0799525
1.19694
0.117364
0.0880935
0.121706
0.745171
0.123731
0.94949
0.0744574
0.122084
0.0922332
0.0615855
0.100175
0.0992351
0.127609
0.13102
0.282875
0.367785
0.126874
0.0942019
0.114242
0.21267
0.359204
0.567343
0.106076
0.720626
0.120214
0.335482
0.322723
0.240552
2.22727
0.104939
0.140019
0.164514
0.305556
1.04499
0.115069
0.08506
0.120841
0.112848
0.0827417
0.264332
0.180804
0.636249
0.0401574
0.109831
0.121928
0.857308
0.673791
0.0995024
0.116217
0.0645491
0.405254
0.579923
0.152097
0.148212
0.15776
0.24389
0.0728775
0.494229
0.122248
0.0689568
0.395449
0.479427
0.116985
0.987076
0.163421
0.0654352
0.0764281
0.338967
0.21193
0.100076
0.0964663
0.076075
1.33681
0.980192
1.1056
0.177977
0.132226
0.216586
0.148654
0.328099
0.0767192
0.110014
0.0717252
0.833161
1.06745
0.117519
0.140867
0.204568
0.132237
2.39127
0.859314
0.162161
0.247801
1.10312
0.420109
0.502054
0.117366
0.889608
0.272271
0.267195
0.102556
0.103788
0.0994939
0.103104
0.0796483
0.154242
0.138598
0.767056
0.155767
0.278359
0.133856
0.243792
0.401496
0.0805713
0.0683836
0.100711
0.147506
0.851126
0.41434
0.09773
0.141024
0.314603
0.118745
0.0888676
0.0624454
0.0838407
0.0599694
0.107951
0.117488
0.248281
0.131021
0.222732
0.228694
0.457166
0.27262
0.239078
0.14814
0.886551
0.10394
0.590564
0.372635
0.336025
0.384324
0.121325
0.0955321
0.1093
0.194583
0.295058
0.231751
0.118427
0.0990301
0.215585
2.19411
0.701986
0.707802
0.428429
0.348883
0.456258
0.627764
0.71726
0.117612
0.363015
0.121722
0.167932
2.71361
0.267352
0.0769081
0.114416
0.0886014
0.272773
0.756951
0.185246
0.353175
0.160322
0.158914
0.233344
0.138148
0.0932754
0.0886389
0.315823
0.0869143
0.104108
0.528386
0.0866869
0.898387
0.0924832
0.0649046
0.197041
0.0903703
0.421144
0.576578
0.197378
0.0682075
0.0868891
0.0822938
0.097762
0.2021
0.267883
1.00918
0.13269
0.0804555
1.60382
0.312703
0.262634
0.0849571
0.207067
0.0784313
0.161967
0.138424
0.125672
0.41349
0.598306
0.0718889
0.490493
0.0725242
0.129221
0.131366
0.300197
0.217952
0.129754
1.32694
0.0888275
0.182267
0.0603677
0.0478622
0.215077
0.0455728
0.427091
0.560046
0.385532
0.0818032
1.18142
0.11305
0.08091
0.0781098
0.0509086
0.613975
0.483257
0.0441517
0.0586377
0.497331
0.147628
0.201954
0.240031
0.268298
0.129613
0.118163
0.0549093
0.0427552
0.0613181
0.144388
0.542271
0.126779
0.491689
0.0691553
0.123094
0.0942351
1.08191
0.0570085
0.0782297
0.0404019
0.195244
0.265132
0.796822
0.222229
0.124908
0.115573
0.126643
1.05409
0.13669
0.818562
0.0931824
0.138244
0.678538
0.0925336
0.235746
0.112756
0.0854165
0.111174
0.124238
0.329262
0.094923
0.127463
0.177164
0.0929285
0.0820322
0.0648753
0.123288
0.091834
0.172009
0.579978
0.841251
0.100832
0.101482
0.180797
0.0822495
0.394088
0.225291
0.369596
0.485567
0.127387
0.54835
0.0585053
0.458249
0.49535
0.0730355
0.166405
0.196099
0.114542
0.0925699
0.149323
0.139132
0.587062
0.1415
0.472483
0.293003
0.404668
0.626162
0.132453
0.270633
0.29396
0.209932
0.133635
0.582925
0.153852
0.200612
0.101222
0.105599
1.2849
0.247063
0.548069
0.139366
0.13977
0.305049
0.0914611
0.196227
0.235196
0.471355
0.486314
0.0779832
0.0963215
0.130481
0.0767761
0.133369
0.0929381
0.101014
0.350128
0.105277
0.529083
0.421525
0.117456
2.24473
0.158853
0.155988
0.173824
0.173626
0.0437829
0.794578
0.231252
0.128748
0.755843
0.795306
0.588789
0.116577
0.101771
0.0721859
0.114579
0.0701707
0.107207
0.309225
0.146991
0.0974932
0.302376
0.153119
0.742725
0.148186
0.0675307
0.233588
0.213674
0.130757
0.152393
0.628179
0.401038
0.288094
0.136644
0.257089
0.169539
0.174613
0.920819
0.61554
0.142824
0.0316895
0.0416402
0.122416
0.472467
1.14668
0.118053
0.137456
0.112726
0.64936
0.302867
0.195447
0.680568
0.53564
0.12013
1.36621
0.0969298
0.238898
0.0924825
0.597195
0.210087
2.71162
0.06199
0.126578
0.124431
0.797331
0.0881012
0.0638998
0.0860916
0.558794
0.746162
0.284358
0.251101
0.143089
0.108765
0.967116
0.246852
0.156833
0.900611
1.80246
1.05944
0.0948088
0.100196
0.155241
0.106211
0.121104
0.484174
0.123076
0.184261
0.482534
0.121486
0.163632
0.0578302
0.179234
0.248218
0.0376055
0.273794
0.151687
0.295641
0.0860414
0.507324
0.111181
0.489987
0.138744
0.120213
0.274989
0.729248
0.230684
0.119195
0.11901
0.542276
0.0862133
0.0617609
1.29454
0.223115
0.208255
0.121799
0.0679372
0.151986
0.120541
0.103039
0.116047
0.123394
0.0866795
0.3189
0.0841709
0.239696
0.0867343
0.069451
0.0953189
0.148404
2.49851
0.139776
0.103305
0.336876
0.122681
0.132192
0.0804879
0.144803
0.0741
0.34831
0.083484
0.107369
0.125044
0.2337
0.0858868
0.151656
0.0936877
0.195555
0.0989679
0.939881
0.400966
0.631542
0.184204
0.0836901
0.0498098
0.269847
0.0630013
0.202379
1.13905
0.129908
0.362665
2.45083
0.309728
0.150251
0.121923
0.0602179
0.106816
0.092683
0.221568
0.0889865
1.00598
0.44049
0.11315
0.171805
0.229784
0.896459
0.0567861
0.806828
0.295955
0.121718
0.114862
0.246461
0.0633503
0.0566573
0.0647498
0.143188
0.106529
0.632326
0.0819699
2.71276
0.354983
0.58813
0.280789
0.239053
0.862726
0.111422
0.149633
0.20941
0.193531
0.150547
0.155031
0.0843749
0.139432
0.150387
0.175157
0.0834995
0.126361
0.171017
0.765138
0.146812
0.24982
0.0657905
0.194814
0.280906
0.280582
0.261362
0.234719
0.21685
0.370958
0.122275
0.10877
0.635258
0.0977201
0.100408
0.182796
0.179199
0.112516
0.0821731
0.114044
0.0768647
0.342017
0.0835457
0.0945457
0.114928
1.33971
0.535432
0.523415
0.0356126
0.513139
0.036707
0.527016
0.501487
0.5077
0.508373
0.211514
0.0965269
0.119282
0.203306
0.180287
0.531969
0.0683944
0.0679227
0.0606117
0.880829
0.627852
0.386136
0.203672
0.157916
0.43369
0.0958506
0.0850929
0.812483
0.0673023
0.146464
0.341557
0.85518
0.218992