/*--------------------------------*- C++ -*----------------------------------*\
| =========                 |                                                 |
| \\      /  F ield         | OpenFOAM: The Open Source CFD Toolbox           |
|  \\    /   O peration     | Version:  v1912                                 |
|   \\  /    A nd           | Website:  www.openfoam.com                      |
|    \\/     M anipulation  |                                                 |
\*---------------------------------------------------------------------------*/
FoamFile
{
    version     2.0;
    format      ascii;
    class       volVectorField;
    location    "0.75";
    object      U;
}
// * * * * * * * * * * * * * * * * * * * * * * * * * * * * * * * * * * * * * //

dimensions      [0 1 -1 0 0 0 0];


internalField   nonuniform List<vector> 
1466
(
(-0.156939 0.617161 0)
(0.204218 -1.12997 -1.23187e-16)
(-0.874287 -0.0117527 -1.55031e-16)
(-0.0209871 0.994972 1.574e-16)
(0.899647 -0.144497 -6.2544e-16)
(1.71718 0.206138 -4.14582e-16)
(0.394134 -0.137557 3.03064e-16)
(-0.449747 -0.359161 4.44496e-16)
(-0.466432 1.59603 1.46269e-16)
(0.253706 -0.0340941 8.72805e-16)
(-0.227461 -0.0653932 -1.7258e-16)
(0.414584 0.155554 1.74759e-16)
(-0.0574597 -0.0531769 1.07593e-17)
(0.442154 1.21472 -1.20288e-16)
(1.09487 0.136525 -2.6054e-18)
(0.0115974 0.517702 -3.44849e-21)
(-0.487094 0.0378538 7.44759e-17)
(-0.0520857 0.485985 -1.75108e-16)
(0.905032 0.0790303 -1.65531e-16)
(0.0958236 1.19735 0)
(-0.0310072 0.0113928 1.62419e-16)
(0.194179 0.0856729 -3.77957e-16)
(1.03086 -0.0207667 0)
(-0.118936 -1.2967 7.73857e-17)
(0.570589 1.15545 -1.77849e-16)
(-1.00744 -0.166624 1.64698e-16)
(-1.01814 -0.128235 1.6903e-16)
(0.825746 0.167204 3.07511e-16)
(0.329004 0.104825 0)
(-0.897995 -0.134453 4.29865e-16)
(0.367331 -0.481618 0)
(0.82835 0.342933 7.81023e-16)
(0.501866 0.107046 -3.23316e-16)
(-0.935271 0.0224783 -1.06888e-16)
(-0.332424 0.218168 0)
(0.950322 0.102645 2.79013e-17)
(-0.339334 -0.0389495 5.29874e-20)
(1.07705 -0.0591479 0)
(0.473099 1.0856 -5.24979e-16)
(0.279059 0.0704954 3.36591e-16)
(0.450157 0.104416 -1.85559e-16)
(0.581054 0.325878 -1.9074e-16)
(-0.416897 1.20728 -4.25781e-16)
(-0.495493 -0.277494 2.45422e-18)
(0.760952 0.0567987 0)
(-0.554915 0.722849 -2.33293e-19)
(0.901552 -0.0820491 -1.73069e-16)
(0.0312261 0.227745 1.32057e-16)
(0.578896 0.297524 -2.67372e-16)
(-0.00972026 -0.0493801 -9.12416e-17)
(-0.88415 0.0240593 0)
(0.227934 -0.0289908 -3.49163e-16)
(0.689804 -0.215475 4.39545e-16)
(1.75017 0.0535669 4.13015e-16)
(-0.00110202 -0.0420859 4.52322e-16)
(0.385604 0.214967 -1.38548e-16)
(1.10613 0.0412769 0)
(-0.231327 0.491867 3.21653e-16)
(0.362332 0.133709 1.49581e-17)
(0.421502 0.184975 0)
(0.0429127 0.633538 -2.59077e-18)
(-1.06721 -0.00875305 1.08691e-16)
(0.818494 -0.306402 1.3952e-16)
(1.59531 0.10161 -4.17113e-16)
(0.199348 -0.853695 2.26157e-16)
(0.193239 1.23039 -3.56728e-17)
(0.353791 0.231251 -4.22366e-17)
(-0.0474405 0.0835542 -2.11644e-16)
(-0.00648187 0.883562 -1.40606e-17)
(-0.0717537 0.0490947 0)
(-0.911601 -0.107097 0)
(-0.0209396 0.886308 -6.95789e-17)
(1.08456 -0.0653632 -5.07029e-16)
(-0.081717 0.684175 -2.42591e-16)
(0.949973 -0.0315227 3.72026e-17)
(0.398931 -0.0721371 -2.17717e-16)
(-0.085289 0.547892 5.8556e-17)
(-0.0185463 0.618097 2.13746e-16)
(0.440465 0.0483328 0)
(0.277784 0.108643 0)
(-0.82595 0.0186623 -3.43112e-17)
(-0.12212 0.549027 2.44321e-16)
(1.02469 0.0665363 0)
(0.589451 0.240994 1.6351e-18)
(0.992832 -0.192163 1.90644e-16)
(0.0939352 -0.164518 -1.02255e-16)
(0.94149 -0.270768 -2.47533e-16)
(0.184539 -0.874727 1.55135e-16)
(0.119041 1.01899 -3.89752e-17)
(-0.60691 -0.0865909 7.38771e-18)
(-0.00979394 1.09421 1.13709e-16)
(-0.584746 -0.0716592 0)
(0.0769932 0.00719765 -7.28199e-17)
(0.00976844 0.960988 2.1527e-16)
(-0.829134 0.00494911 0)
(-0.35205 -0.0148393 -2.12795e-16)
(-0.390337 -1.013 6.68346e-16)
(0.549856 0.167254 0)
(-0.874581 -0.611396 1.54972e-16)
(0.0333556 1.16266 -1.75884e-16)
(0.191835 -0.00306163 0)
(0.752668 0.207899 -9.78123e-17)
(-0.875992 -0.100511 4.09047e-16)
(0.0428713 -0.143084 -1.77942e-16)
(0.992222 0.0442085 0)
(-0.513014 0.965224 -2.72395e-16)
(-0.0724052 0.139946 1.92717e-16)
(0.993838 0.062504 -7.45903e-18)
(-0.602995 -0.470032 5.7342e-17)
(0.813101 0.783486 6.34273e-18)
(0.234197 0.0643247 2.09732e-17)
(0.612948 -0.221066 4.88114e-16)
(0.631712 -0.150528 -3.54509e-16)
(1.02238 -0.110421 -1.53097e-19)
(-0.0500609 -0.12958 -2.16246e-17)
(-0.805438 2.50469 0)
(0.191731 1.24199 -8.11421e-17)
(0.263384 1.28786 5.70257e-16)
(-0.691999 -0.244864 3.61474e-17)
(-0.258893 0.404648 -4.71549e-16)
(-0.39743 0.0925684 1.99389e-16)
(-0.146872 0.663749 0)
(0.047798 0.465136 -7.93539e-17)
(0.330025 -0.928756 -7.86216e-17)
(0.169691 0.910836 3.12562e-16)
(0.0245916 0.238168 -1.26737e-16)
(0.0523269 0.0605556 3.06633e-17)
(-1.37873 -0.596914 0)
(0.0809331 0.0506313 6.98234e-17)
(-0.32072 1.18307 -2.67026e-16)
(0.644222 0.0218185 1.21922e-16)
(-0.0718829 0.487508 -1.49432e-20)
(-0.551967 -0.0894012 2.50554e-17)
(0.327251 0.232314 -6.86787e-17)
(-0.859048 0.0238182 -1.03625e-17)
(0.147744 0.0443041 1.74614e-16)
(0.611949 0.325384 0)
(0.871854 -0.396714 0)
(0.863578 -0.027538 3.79864e-17)
(-0.131523 0.0599833 1.05203e-16)
(0.190606 -0.0189429 -1.14997e-16)
(-0.630191 -0.0401738 -1.67348e-16)
(0.049157 0.134819 7.96317e-17)
(0.16726 -0.0734492 -4.90464e-16)
(0.819979 0.00934303 1.49991e-16)
(0.312498 0.358126 0)
(0.241687 -0.444128 0)
(-0.916825 -0.449614 0)
(0.185463 0.186811 7.84743e-17)
(1.05065 -0.113467 2.45076e-16)
(0.0679613 0.118966 -1.58986e-16)
(0.130155 0.178049 4.69942e-18)
(-0.519272 0.047586 1.38948e-16)
(0.187021 -1.15778 -2.34842e-17)
(-0.0204988 1.00754 -1.93794e-16)
(-0.657801 -0.146072 -7.60159e-17)
(-0.0206359 0.8571 -3.9259e-16)
(-0.219045 -0.982186 1.61894e-16)
(0.233964 0.128675 -8.11732e-17)
(-0.819777 -0.37031 0)
(0.793812 0.152301 1.15465e-16)
(0.121163 1.19987 -2.42665e-17)
(9.99366e-05 -0.715453 3.05753e-16)
(-0.374571 0.037275 1.94684e-16)
(0.708232 0.268179 -5.01483e-18)
(0.0594018 -0.00451334 4.00182e-20)
(0.0596622 1.22562 0)
(-0.314046 0.0343743 1.02282e-16)
(0.187667 1.08586 4.74528e-18)
(-1.05705 -0.0675929 2.94067e-16)
(-0.203066 -0.136444 2.73351e-16)
(0.179374 -0.225106 2.64205e-16)
(0.123089 0.117008 0)
(0.0784215 0.164874 1.01261e-16)
(-1.06112 -0.140959 -6.59839e-16)
(0.34922 -1.06814 1.85421e-16)
(0.664917 0.317039 1.62004e-16)
(0.301188 0.0864992 -2.50019e-17)
(1.07647 0.222952 -1.33953e-16)
(0.166095 0.039797 2.4929e-17)
(-0.0458368 0.729022 -2.16037e-16)
(0.826185 0.0342454 2.14835e-16)
(0.657896 -0.00326272 -3.04398e-16)
(0.233405 1.18871 -5.2382e-16)
(0.317476 -0.90438 -4.01795e-16)
(0.408575 1.21429 5.54799e-16)
(0.779941 0.0317762 0)
(-0.564992 2.53903 0)
(0.877542 0.0356209 -5.24052e-17)
(-0.730412 -0.65855 0)
(0.242283 -0.495369 0)
(0.122067 0.67105 1.32688e-16)
(0.168878 1.24059 2.10699e-17)
(0.0944195 -0.776093 -8.53413e-17)
(0.88319 -0.00139855 -2.59983e-20)
(-0.0346642 0.72695 0)
(0.89053 -0.0644142 -4.99557e-17)
(0.881545 0.51721 -1.32191e-17)
(0.959884 0.653015 -1.25211e-17)
(0.80315 0.931613 -5.87454e-18)
(-0.0929648 -0.902256 -9.07217e-17)
(-0.00672555 -0.221881 3.32378e-16)
(0.983723 0.057083 -6.18221e-17)
(0.224061 1.1699 2.52102e-16)
(0.224341 0.282199 0)
(0.620688 0.323742 3.52281e-16)
(0.790786 0.0407646 1.65546e-16)
(-0.787108 0.480591 1.35576e-16)
(0.998287 0.238886 4.91847e-17)
(0.487185 0.183115 1.1222e-17)
(0.668591 0.344628 5.39484e-17)
(-0.125404 -1.12382 2.913e-19)
(0.0955421 -0.128765 -1.17447e-16)
(0.839467 -0.337351 -1.3213e-19)
(-0.784389 -0.405324 -8.07079e-17)
(0.810111 0.0215098 2.71791e-17)
(-0.84831 -0.339661 -8.0874e-17)
(-0.233071 -0.0297012 0)
(0.148668 1.32738 0)
(-0.051772 0.858672 2.36382e-21)
(-0.474852 0.0121044 1.4216e-16)
(-0.290074 0.428239 0)
(0.101254 0.987358 6.12175e-17)
(0.853887 -0.158787 3.71675e-17)
(0.0275984 0.173916 -5.56133e-17)
(0.743853 -0.221552 0)
(0.609008 0.935847 7.91837e-17)
(0.16455 0.649387 1.28121e-16)
(-0.305864 0.0916604 2.93434e-18)
(-0.158493 1.50488 -3.59944e-16)
(0.846948 -0.459833 2.62786e-16)
(0.127024 -0.76867 0)
(-0.0428794 0.734822 -1.30807e-16)
(0.415422 0.0495485 2.52525e-20)
(1.06694 0.084859 0)
(0.428435 0.483476 0)
(0.538473 -0.0199138 0)
(-0.798234 -0.23883 -5.81003e-16)
(0.643448 -0.103768 -1.17227e-16)
(0.617472 0.951023 0)
(-0.34055 1.59317 1.49089e-16)
(0.658373 -0.12233 3.26179e-16)
(-0.50797 -0.089508 -3.9741e-17)
(0.665231 0.293153 -7.63351e-16)
(0.626145 0.357013 0)
(-0.267478 0.0420908 -1.84765e-16)
(-0.738387 -0.0408159 -5.35153e-19)
(-0.612485 0.00321347 3.42929e-16)
(-0.249187 -0.0349218 0)
(-0.391142 0.0596432 -5.66469e-18)
(-0.0461004 0.813706 -7.846e-16)
(0.0907391 0.39979 -1.01269e-16)
(0.635579 0.248988 -1.32843e-16)
(0.244543 -0.741212 4.92034e-16)
(0.0126953 0.63935 0)
(0.247025 0.330231 1.69212e-16)
(0.811345 0.678345 -1.21046e-17)
(0.138256 0.997988 -6.12032e-17)
(-0.6206 2.81295 1.00476e-16)
(0.316344 -0.0716215 -1.31956e-16)
(0.770315 -0.389516 -1.30753e-19)
(0.885577 -0.252126 2.61619e-16)
(0.245299 0.421059 -5.31903e-20)
(-0.736187 -0.273407 -2.5802e-17)
(1.47694 0.152355 -2.02433e-16)
(1.00402 0.0867428 -2.6072e-16)
(-0.559199 1.57342 9.84449e-17)
(0.0253037 -0.538928 1.69657e-19)
(-0.0112908 -0.282649 -7.04531e-17)
(-0.0473612 0.852853 -5.93717e-17)
(0.652425 0.15993 -9.55236e-17)
(-0.0599328 0.707169 6.62247e-17)
(0.814991 -0.452789 2.90906e-17)
(0.451421 0.548492 3.08564e-18)
(0.973145 -0.196379 -3.95348e-16)
(0.424859 0.1975 6.23209e-17)
(0.333989 -0.632663 1.4448e-16)
(0.137275 0.476253 0)
(-1.03639 -0.57833 -5.55738e-18)
(0.614409 0.360735 2.07094e-16)
(0.676241 0.572138 2.72278e-17)
(-0.190067 -0.00273761 0)
(-0.525676 0.0442845 1.05961e-20)
(-0.0600481 -0.00204118 5.26151e-18)
(-0.331833 -0.219299 -9.41007e-17)
(0.602537 -0.268361 -9.69086e-17)
(-0.0198343 0.271836 0)
(-0.425842 -0.100563 0)
(-0.758528 0.34236 2.63644e-16)
(-0.174123 0.135265 1.42923e-16)
(0.665753 -0.274423 -2.14521e-16)
(-0.600989 1.64549 -4.71029e-17)
(0.0189139 0.389427 -4.54529e-17)
(0.331885 -0.0293471 0)
(0.65198 0.120361 -1.83967e-16)
(-0.250407 0.00330288 0)
(-0.372197 2.03714 7.02884e-17)
(-0.613129 1.72439 4.4271e-19)
(0.0231015 0.00682601 0)
(0.0882766 0.380515 -2.20408e-16)
(0.0833274 0.178776 -6.69627e-17)
(-0.0735462 -1.16575 3.44652e-16)
(0.0612293 0.0820701 -4.34157e-17)
(0.100405 0.302206 8.4499e-17)
(0.936818 0.190842 2.51827e-16)
(0.141549 0.21615 -4.24002e-16)
(0.151098 0.111452 -1.73646e-16)
(0.565046 0.0770605 -1.33906e-16)
(-0.213623 0.00397443 5.32087e-18)
(-0.418113 2.52491 1.99024e-16)
(-0.397546 1.65685 2.881e-16)
(-0.711463 -0.0173395 4.04105e-17)
(-0.289057 -0.180474 -1.36707e-16)
(0.187192 0.223583 -2.60298e-16)
(0.645872 0.144951 6.56132e-17)
(0.265606 -0.263564 -2.46856e-17)
(0.194987 -0.459055 -3.13118e-20)
(-1.04944 -0.136612 1.66749e-16)
(0.756826 -0.068691 0)
(0.000221313 0.0899351 -4.09913e-17)
(0.656682 -0.168862 -3.05589e-17)
(0.120425 0.0682789 -1.86986e-16)
(0.605199 -0.0247632 5.67487e-16)
(0.906173 0.0307558 -1.68689e-16)
(0.0819594 0.063044 1.83707e-16)
(-0.740936 0.117885 -1.21604e-16)
(-0.541029 0.0183767 2.04938e-17)
(-1.0317 -0.0416611 0)
(-0.459526 -0.0674275 0)
(-0.730745 0.030536 -1.46091e-16)
(0.604391 0.0163127 0)
(1.05861 -0.0233663 3.50869e-16)
(-0.565525 0.0158176 1.92955e-17)
(-0.776067 -0.0522997 0)
(0.253313 0.0641379 -1.22012e-17)
(0.98536 0.00738643 0)
(0.32032 -0.0929083 -4.8437e-17)
(-0.877984 -0.0746337 -1.16409e-16)
(0.447062 -0.0694667 -1.52562e-17)
(-0.731236 0.0257992 1.51143e-16)
(0.705912 0.0153195 0)
(0.959295 -0.0415084 -2.64832e-16)
(-0.294281 0.0621787 0)
(-0.520063 -0.022352 0)
(-0.993757 0.0785511 -1.25524e-16)
(-0.707042 -0.00403335 0)
(0.738391 -0.0650743 -8.10963e-17)
(0.682449 -0.0817588 8.2847e-17)
(0.0330322 0.235988 1.08955e-16)
(-0.752903 0.474765 -2.84959e-16)
(0.635509 0.231826 5.27711e-17)
(0.719543 -0.441864 5.13084e-16)
(0.610634 0.307351 -5.21405e-17)
(0.426516 0.161783 -4.18274e-16)
(0.472562 0.120556 2.42834e-16)
(0.219398 -0.192306 -4.50048e-18)
(-0.0209271 -0.784421 -3.72648e-16)
(0.245021 -0.249551 3.98974e-16)
(-0.436859 3.17982 6.07158e-19)
(-0.196015 0.234351 -2.04307e-16)
(-0.808323 0.231278 0)
(0.245509 0.135885 1.89249e-16)
(0.0350546 0.0203388 2.10359e-16)
(-0.687001 -0.0661994 -2.65517e-16)
(0.0778801 0.175828 3.8205e-17)
(-1.06783 0.0133419 0)
(-0.521164 -0.00521922 -2.13756e-17)
(-0.543413 -0.026319 -1.4037e-17)
(0.902781 -0.067936 1.25022e-16)
(0.804844 -0.0372949 0)
(-0.706068 0.0228461 1.83813e-17)
(0.498167 -0.0564416 -8.79014e-17)
(0.632435 -0.0539311 -2.53042e-16)
(1.04024 -0.0108135 0)
(-0.738851 -0.0119837 -4.16281e-16)
(0.432179 0.051433 0)
(-0.500997 0.112592 8.67167e-17)
(-0.0538141 -0.208595 -7.91746e-18)
(0.927949 -0.362781 3.45742e-16)
(0.00280643 0.189921 -2.19799e-16)
(0.747585 -0.364705 2.55689e-17)
(0.0888265 0.233015 -2.74861e-17)
(0.203274 0.253649 -8.044e-18)
(-0.734185 0.00806525 -8.23931e-17)
(0.0595381 0.240431 -2.3968e-17)
(-0.0806711 0.393274 4.01434e-16)
(-0.322807 -0.108421 1.04199e-16)
(-0.330733 -0.27088 0)
(0.667538 -0.232676 0)
(-0.0186239 0.279763 0)
(0.0198084 0.300994 3.48869e-16)
(0.0853066 0.699425 0)
(-0.0314274 0.19537 1.36385e-17)
(-0.785427 1.24238 5.60286e-17)
(-0.158063 0.0577192 -4.30099e-17)
(1.00745 0.437274 -7.48737e-17)
(-0.0277735 0.073403 1.92659e-18)
(-0.969665 -0.117828 -1.21347e-16)
(1.01555 0.0206297 -8.84138e-17)
(0.199423 -0.0732802 5.2514e-17)
(0.55647 -0.0342473 3.70091e-17)
(-0.669047 -0.0942189 -3.71232e-18)
(-0.0629333 0.163681 -1.98257e-16)
(0.742512 -0.459571 -2.44826e-17)
(0.467135 -0.00992289 0)
(-0.308172 -0.13179 2.84741e-16)
(0.188681 -0.0178862 -1.39237e-16)
(-0.471818 3.0085 -1.98909e-16)
(0.267162 0.0231146 -1.02328e-16)
(0.37143 0.17417 -1.04617e-16)
(-0.340572 -0.270232 2.15543e-17)
(-0.121488 0.281948 -3.74935e-16)
(-0.00750604 0.1907 5.78537e-17)
(0.0563526 0.30561 4.28966e-17)
(-0.934293 1.48312 -3.40667e-17)
(0.0821953 0.220951 1.52504e-16)
(0.275951 0.0241934 -3.35386e-17)
(-0.258215 0.425862 6.8296e-22)
(0.0947415 0.290516 0)
(0.090018 0.276456 0)
(-0.156278 0.348406 7.21947e-16)
(0.00983798 0.194566 8.96636e-17)
(0.481099 0.111935 -1.55615e-16)
(0.822661 0.11684 5.36474e-16)
(0.705036 0.115661 -3.26536e-16)
(0.836152 0.130619 6.86755e-16)
(0.730113 0.110032 -1.57185e-16)
(0.625219 0.115388 -4.2233e-16)
(0.895777 0.116128 -2.82811e-16)
(0.866388 0.137814 -3.05794e-16)
(0.110675 -0.309902 -2.13588e-17)
(-0.00282106 -0.289312 -4.44372e-17)
(0.242322 0.100153 4.06096e-17)
(-0.34286 -0.582175 -2.49071e-19)
(-0.220273 1.41839 -1.10112e-16)
(-0.392108 -0.213267 -1.49223e-16)
(-0.869249 1.13299 2.16994e-16)
(-0.284173 -0.409494 2.41801e-16)
(-0.757874 0.196473 3.95576e-16)
(-0.753944 0.594687 -1.72185e-16)
(-0.14479 -1.12054 -4.66644e-17)
(0.0795549 0.243244 0)
(-0.284978 -0.875685 3.25651e-16)
(-0.493322 0.30905 4.02964e-17)
(-0.695197 0.440767 -2.14598e-16)
(-0.866746 1.08743 -2.22501e-16)
(-0.666062 1.0326 0)
(-0.594927 1.25669 2.57758e-16)
(-0.39912 0.663315 0)
(-0.372818 0.435497 6.88983e-17)
(-0.371396 0.983668 1.86473e-16)
(-0.876407 1.45077 0)
(-0.409549 0.268088 -4.68389e-17)
(0.10843 0.256828 -3.88385e-16)
(-0.773889 0.707355 -6.99884e-17)
(-0.742056 -0.0443948 -2.66495e-16)
(-0.671967 1.31143 -3.54602e-19)
(-0.849587 1.23972 0)
(-0.273425 -0.312586 0)
(-0.442076 0.421174 -1.10592e-16)
(-0.785082 0.7141 1.51305e-16)
(0.277026 0.151074 3.30874e-18)
(0.220071 0.218608 3.44632e-16)
(-0.272043 0.380173 3.79838e-16)
(-0.293364 -0.768328 -5.93122e-17)
(-0.236619 -0.337743 0)
(-0.493668 -0.0595328 1.55224e-16)
(-0.0047628 -0.243011 -1.20016e-17)
(0.140553 -0.182141 0)
(-0.182262 0.833411 1.06071e-16)
(-0.408576 -0.413126 3.01398e-17)
(-0.579339 0.215001 -3.03674e-17)
(-0.354259 0.401212 -2.62624e-16)
(-0.48489 0.0352926 6.16413e-17)
(0.055565 0.557593 -1.02651e-15)
(0.119314 -0.40541 -7.09056e-16)
(-0.251518 0.279641 0)
(-0.218965 0.56896 -4.55545e-17)
(0.601315 0.0467607 -1.21217e-16)
(0.516903 0.720037 2.7525e-16)
(0.141806 -0.0644643 -5.50211e-17)
(-0.00687616 -0.173132 -5.54933e-17)
(0.346634 0.711325 5.19618e-16)
(-0.157299 -0.0652671 -1.74046e-16)
(0.170977 -0.0798047 0)
(0.258734 0.0929275 1.36632e-16)
(0.105094 -0.0388746 -5.64293e-16)
(-0.892998 0.0338772 6.08404e-17)
(-0.145466 0.893437 -2.37066e-16)
(0.749848 -0.107166 -5.70163e-17)
(-0.041984 0.161604 -1.8311e-16)
(0.100191 0.22406 -9.53594e-17)
(-0.0582222 0.028455 9.90897e-17)
(-0.89114 0.00668974 -4.0819e-17)
(-0.236834 0.284003 0)
(0.354015 0.300352 1.68272e-16)
(0.136748 1.05047 -9.30238e-19)
(-0.657199 0.338522 1.2167e-16)
(-0.182075 -0.633326 -1.31818e-17)
(-0.15736 -0.88027 1.15219e-17)
(0.328577 0.306167 1.92689e-16)
(0.19559 0.0974059 1.2573e-17)
(-0.0261189 0.118133 5.59873e-17)
(-0.0284435 0.271224 -5.85019e-17)
(-0.890408 -0.0455639 4.12336e-17)
(-0.00586666 0.0565198 -1.52558e-16)
(0.631191 -0.0912541 3.79835e-16)
(-0.529898 0.384076 -1.7926e-17)
(-0.331975 0.578894 -3.61913e-16)
(-0.598472 0.383911 -9.12334e-18)
(-0.560265 1.00307 -3.56778e-16)
(-0.0726152 0.494151 0)
(-0.605662 0.796682 2.4008e-16)
(-0.459701 0.401839 6.90752e-17)
(-0.336006 0.439226 -5.8269e-18)
(-0.586365 0.622076 -7.33893e-17)
(0.108187 0.340424 2.87311e-18)
(-0.0680646 0.139311 -9.66324e-17)
(-0.0203438 0.304695 -5.68534e-16)
(-0.147018 0.35374 -2.01451e-16)
(0.104885 0.284909 9.57719e-16)
(-0.915554 1.43715 3.86588e-17)
(-0.327259 -0.400878 1.23962e-18)
(-0.218174 1.05673 2.89378e-16)
(-0.181181 0.629445 0)
(-0.024232 0.277242 2.67013e-16)
(-0.301571 -0.587307 0)
(-0.375703 -0.188946 8.26728e-17)
(-0.0166314 0.198722 8.99959e-17)
(-0.875186 -0.0280642 -4.48538e-17)
(-0.598275 -0.0964361 3.33946e-16)
(-0.0026599 -0.0132096 -5.49513e-17)
(-0.499169 0.457343 -5.85319e-17)
(-0.419955 0.518581 1.21153e-16)
(-0.419895 0.39931 0)
(-0.523961 0.0407288 0)
(0.65134 0.212625 1.90983e-16)
(-0.453224 -0.245808 -3.02174e-17)
(0.0258452 -0.104032 -4.60868e-17)
(-0.0165916 0.263994 -4.45778e-16)
(-0.481532 -0.114576 3.76307e-17)
(-0.735432 0.623149 3.57938e-17)
(-0.717078 1.09038 1.99219e-16)
(-0.615399 0.236249 -1.11019e-16)
(-0.541688 0.518466 9.48547e-17)
(-0.284483 0.56229 -4.7092e-17)
(-0.537974 -0.0266408 0)
(-0.930189 1.76828 0)
(-0.847043 1.02867 0)
(0.275196 0.380461 1.00589e-16)
(0.150419 0.166197 2.8946e-16)
(1.07111 0.0596851 -8.55776e-18)
(-0.564969 0.144195 6.46569e-17)
(0.09342 0.0490004 8.80107e-17)
(0.0303351 -0.0402334 -1.51095e-16)
(-0.770035 1.22415 0)
(0.333929 -0.277178 -1.4942e-16)
(0.326627 -0.290975 -5.75551e-17)
(0.324293 0.104856 -1.44877e-16)
(-0.752999 0.797905 -5.67615e-17)
(-0.761999 -0.226626 4.83508e-16)
(0.189644 0.146497 1.32001e-17)
(0.0528144 -0.0145285 9.63081e-17)
(-0.945018 2.10203 0)
(0.541757 -0.0502147 -5.74338e-16)
(0.452485 0.146758 -9.80051e-17)
(0.676146 -0.0732842 0)
(0.293353 0.425513 4.84214e-17)
(-0.455881 0.614808 -1.05488e-17)
(-0.867752 1.74815 1.6231e-17)
(1.05248 0.0611329 0)
(-0.887158 0.132709 0)
(-0.361105 0.694249 9.02747e-17)
(0.726278 0.104541 2.1639e-16)
(-0.930976 -0.391669 -6.90019e-17)
(-0.239973 0.658324 1.16857e-16)
(0.12659 0.611676 1.37298e-16)
(-0.890218 -0.10883 0)
(-0.481076 0.718543 -1.13142e-16)
(-0.255226 0.77444 9.14026e-17)
(0.3713 -0.00152549 -1.0759e-16)
(0.651104 0.165266 9.02767e-17)
(0.358673 -0.0118098 0)
(-0.0260568 0.0376331 3.07885e-16)
(0.990274 -0.0239651 0)
(-0.212306 1.05475 1.55093e-19)
(-0.36094 0.777339 -1.95127e-16)
(-0.448969 0.294614 8.57602e-17)
(-0.704721 1.31278 0)
(0.24332 0.671305 1.06594e-16)
(-0.108819 0.00810078 -2.26447e-17)
(0.611064 0.146781 1.72886e-16)
(0.69727 -0.0359599 4.89808e-16)
(-0.878119 -0.0695544 0)
(0.0757544 0.415715 0)
(-0.125207 0.239673 -8.54697e-17)
(0.211003 0.161993 -8.91586e-17)
(0.163732 0.09515 -1.21646e-17)
(-0.85835 1.31856 0)
(0.0205552 -0.037468 -1.96587e-16)
(-0.521952 0.998134 1.20243e-16)
(0.208572 0.368209 -1.84374e-16)
(0.0592764 0.238532 -3.74255e-16)
(-0.860487 -0.26182 3.78885e-16)
(-0.961391 -0.164576 1.84454e-16)
(0.660062 0.26663 2.78574e-16)
(0.397806 0.0678422 0)
(-0.610175 -0.259139 -1.58346e-16)
(-0.913337 1.62558 -2.03343e-19)
(-0.8375 2.14159 2.9246e-16)
(0.170147 0.0576347 -1.23389e-17)
(-0.424696 1.40505 7.27753e-17)
(0.3314 0.817699 2.55843e-16)
(-0.46017 2.6229 -2.72529e-16)
(0.0702916 0.0179184 0)
(-0.876616 -0.161388 -1.68941e-16)
(-0.954046 1.81831 -6.87777e-18)
(0.189718 1.10604 -5.2343e-16)
(-0.627383 0.108362 -7.50238e-20)
(0.14281 0.070684 -1.93069e-16)
(-0.118322 0.282624 -1.91777e-16)
(0.677285 -0.0012898 -1.4569e-16)
(0.277508 0.168044 -3.90414e-19)
(0.590782 0.114374 0)
(-0.484252 0.365676 0)
(-0.261825 0.510956 -1.44584e-16)
(0.324333 0.10385 -1.10187e-16)
(0.465611 0.35217 -5.57333e-17)
(0.603436 0.046266 -9.42037e-17)
(-0.558639 0.321943 -9.26435e-17)
(0.10681 0.471114 0)
(-0.914387 2.14789 -1.34639e-17)
(-0.882635 -0.0689195 -2.14552e-17)
(-0.345364 -0.00261249 2.37639e-17)
(0.0930403 0.108606 8.58632e-17)
(0.311161 0.0772034 2.56725e-17)
(0.0184275 0.0827362 0)
(-0.68358 0.539322 5.78423e-18)
(0.0702473 0.371192 -8.76119e-17)
(-0.200916 0.319996 8.31733e-17)
(0.554826 0.0639792 0)
(-0.583629 0.181926 1.92339e-20)
(1.08695 0.0526642 -6.4245e-17)
(-0.865081 0.357244 -2.01171e-16)
(-0.582997 -0.120104 3.52954e-17)
(0.616735 0.271405 0)
(-0.867797 -0.131745 -3.37583e-16)
(-0.823127 0.597104 -2.83594e-16)
(-0.751479 2.16862 1.39426e-16)
(0.497293 0.0399922 0)
(0.263658 0.21757 -4.61204e-17)
(-0.566386 0.814202 0)
(0.467642 0.106713 0)
(-0.841995 0.932019 0)
(0.0848826 0.175973 -8.00379e-17)
(0.117362 0.551427 2.63065e-16)
(-0.236372 1.28903 9.9481e-17)
(-0.0320013 0.146271 1.12981e-15)
(0.457672 -0.0107751 -5.32428e-17)
(-0.858232 -0.0872461 -2.77093e-18)
(0.0140628 0.45778 -1.17687e-21)
(-0.793688 0.918721 -4.76752e-18)
(0.688454 0.155424 -2.08107e-16)
(0.147008 0.463112 1.40145e-16)
(-0.00958777 1.25446 1.1434e-16)
(-0.585412 0.2008 -8.11788e-17)
(-0.00834071 0.600441 1.57054e-16)
(0.594246 -0.298053 -4.09295e-16)
(-0.668765 0.767859 0)
(0.565034 0.0312512 -8.35401e-18)
(0.475298 -0.0392756 3.99172e-17)
(-0.36688 0.121219 1.02778e-16)
(0.199689 -0.00295635 1.07566e-16)
(-0.861669 -0.226241 1.56678e-16)
(0.0475027 0.0514824 -2.16952e-16)
(0.799103 0.0653565 -1.31972e-19)
(0.279738 0.472224 -1.91716e-19)
(-0.682728 0.605172 0)
(-0.476988 0.357639 0)
(0.0150013 0.246796 4.404e-17)
(0.111991 -0.00689974 6.65244e-22)
(-0.300937 0.315931 1.8548e-16)
(0.889189 -0.0567109 0)
(-0.869199 -0.176036 1.28163e-16)
(0.501376 0.234363 0)
(-0.73322 -0.0343383 0)
(-0.483851 0.518192 7.43197e-17)
(-0.572374 -0.188407 -1.54729e-16)
(-0.734985 -0.0663379 -4.50396e-17)
(0.0251835 -0.739691 -4.56635e-17)
(0.0148318 1.04556 8.77644e-17)
(0.547835 0.00621434 -1.31929e-17)
(-0.887642 0.109891 2.55451e-16)
(0.177894 0.248177 1.2895e-16)
(-0.282247 -0.82742 -1.62434e-16)
(0.731783 0.383839 3.804e-17)
(0.589687 0.345578 9.81741e-17)
(0.597024 -0.420728 -1.81301e-16)
(0.524731 -0.0330641 9.5569e-17)
(0.0857103 0.137384 -2.31665e-16)
(-0.475121 0.850204 2.16764e-16)
(-0.864496 -0.246891 -1.64663e-16)
(0.57351 0.19785 9.85214e-17)
(-0.686682 0.415999 1.57757e-19)
(0.0363121 0.211051 1.34037e-16)
(-0.365251 0.299847 -3.06457e-17)
(0.165757 0.0644103 0)
(-0.472976 0.3051 0)
(-0.394544 0.801959 -2.35977e-16)
(0.0905889 0.215524 9.15149e-17)
(-0.263981 0.342905 -1.7745e-16)
(-0.171082 -0.0015827 1.13638e-17)
(1.02407 -0.0672137 2.54627e-17)
(0.163749 0.250478 0)
(-0.035844 0.276004 1.89479e-16)
(-0.0291009 0.452416 0)
(0.54065 0.257143 0)
(-0.788526 1.75306 -9.1167e-17)
(0.638778 0.147851 0)
(-0.940207 -0.0673444 -3.36102e-16)
(0.203894 -0.0550019 5.81914e-16)
(0.298905 0.168383 1.03934e-16)
(-0.400573 0.175793 -8.42814e-17)
(0.0585902 0.0474031 -9.08202e-17)
(-0.943247 1.80267 -1.48798e-16)
(0.58206 -0.329567 -2.50461e-16)
(0.273395 -0.0595739 2.08166e-16)
(0.556146 0.711245 -1.38474e-17)
(-0.625328 0.194049 -2.67428e-16)
(0.934177 0.0170965 -1.18972e-16)
(0.123307 0.804685 6.50771e-17)
(-0.415637 0.184932 0)
(0.00336792 0.274614 -2.46126e-16)
(0.0825221 0.0153414 1.04974e-17)
(0.0767992 4.80413e-05 -3.92114e-17)
(-0.6706 1.77218 -2.58858e-19)
(0.116794 0.0347167 -1.07422e-17)
(0.0951965 -0.00904733 0)
(-1.04053 -0.131087 -2.46065e-16)
(-0.21928 0.626384 0)
(-0.486841 -0.0427486 3.91379e-16)
(0.183036 0.0540481 -8.56796e-17)
(0.11431 -0.0252846 0)
(0.0748455 0.615155 7.5209e-16)
(0.0203781 -0.58734 1.86255e-16)
(-0.386612 0.301651 -3.09356e-16)
(0.12128 0.0951377 -4.40174e-16)
(-0.815401 -0.235909 2.56694e-17)
(-0.333594 -0.11338 0)
(0.592949 0.319541 2.57873e-16)
(-0.881834 -0.303577 7.79126e-17)
(0.854993 0.042652 1.48115e-16)
(-0.325502 -0.0115129 1.45789e-16)
(0.151843 0.138889 5.0641e-17)
(0.0930902 -0.0234424 4.44532e-17)
(-1.14503 -0.811739 -4.27839e-19)
(-0.549564 2.8541 -1.53173e-19)
(-0.126365 1.41752 0)
(-0.86812 -0.393204 4.48932e-17)
(0.0356298 0.320198 0)
(0.637763 0.0686777 -1.85974e-19)
(-0.585296 -0.115703 3.07835e-22)
(0.433933 0.045028 5.27061e-17)
(0.155109 -0.26716 -1.38331e-16)
(0.25421 0.268254 0)
(0.258438 1.03215 -6.6718e-17)
(0.793961 0.229546 -3.40795e-16)
(0.752053 0.0569402 -3.00835e-16)
(-0.867134 -0.333836 0)
(-0.740468 -0.0917999 -9.97494e-21)
(0.603238 0.0674308 -1.80275e-16)
(1.25831 0.32673 4.85662e-16)
(1.09266 0.0186191 5.09397e-16)
(0.764621 -0.0759684 -4.28076e-16)
(0.461708 0.0724048 -2.16824e-17)
(0.415185 -0.204679 1.88467e-16)
(0.149572 0.200954 -3.31827e-17)
(0.582225 0.347606 -1.82482e-16)
(0.107381 0.171694 2.92115e-21)
(0.474173 0.487195 1.14791e-16)
(0.0951217 1.77001 6.67401e-16)
(-0.679228 0.356153 1.08953e-20)
(-0.170958 -0.0422479 0)
(-0.061904 0.0953004 9.06727e-17)
(0.310559 0.0853034 1.33246e-21)
(0.592705 0.161781 -1.04473e-16)
(-0.766734 0.313747 -8.30945e-17)
(-0.297196 -0.0685904 4.28671e-17)
(-0.46401 -0.0390842 -2.83852e-16)
(0.0599604 0.902056 1.13628e-16)
(-0.291924 0.176262 -9.13719e-17)
(0.0683119 0.247508 1.63795e-16)
(0.142473 -0.0469307 2.17425e-16)
(0.170538 0.798922 3.059e-16)
(0.397104 -0.924318 -2.16121e-16)
(0.509144 0.539999 -4.33576e-16)
(-0.291367 2.13602 -1.73472e-19)
(-0.672234 -0.151661 1.22723e-19)
(0.324165 0.102283 2.93698e-16)
(0.105596 0.872179 -2.50519e-16)
(0.0166028 -0.663507 0)
(0.0970942 -0.0652694 3.26796e-16)
(-0.751349 0.201869 -8.97612e-17)
(-0.712465 -0.0473711 3.85986e-17)
(-0.813159 -0.360017 2.50445e-17)
(-0.910624 -0.115451 3.95952e-17)
(-0.77261 0.887875 1.07275e-16)
(1.09174 0.0282395 -1.08584e-16)
(-0.718026 0.349176 8.47536e-17)
(0.46409 0.347564 2.63262e-16)
(-0.304599 3.03465 -3.24505e-16)
(-0.130301 -0.0429804 -2.23311e-17)
(-0.400035 0.135547 -3.57034e-16)
(-0.833361 0.682083 0)
(0.118554 1.0274 -6.87257e-17)
(0.0340206 0.716414 -1.49629e-19)
(-0.0263969 0.870576 -6.78907e-17)
(-0.633591 -0.0439486 -4.06576e-17)
(0.178832 -0.982183 -2.78526e-16)
(0.0634674 0.949068 6.67513e-17)
(-0.126682 2.6452 -1.63633e-16)
(-0.435904 0.293588 -2.82413e-18)
(0.218155 0.275739 -8.26069e-17)
(0.153138 0.151765 8.95115e-17)
(0.845062 0.0298776 0)
(0.799613 0.0151741 0)
(-0.437754 -0.581057 -4.20884e-18)
(0.527003 -0.369209 -4.14245e-16)
(-0.00436513 -0.196352 2.49878e-16)
(-0.869349 0.0333418 0)
(0.275626 0.219757 0)
(0.0376266 0.271783 -1.9163e-17)
(-0.487223 0.207363 -8.84509e-17)
(-0.355729 -0.0797528 1.35142e-16)
(-1.04206 0.131235 1.39495e-16)
(-0.285903 0.036232 1.03926e-16)
(0.480361 0.447709 -8.76876e-16)
(0.298972 0.104959 0)
(0.329364 0.768248 -1.03527e-16)
(-0.127829 -0.539903 -6.74992e-17)
(0.138962 -0.0120421 0)
(0.21644 -0.235643 -1.76152e-16)
(0.64105 0.00683113 -2.48987e-16)
(-0.142516 1.13686 6.33791e-16)
(0.224736 -0.0289541 -1.17514e-16)
(0.242035 0.206624 -2.4282e-16)
(0.508779 0.291293 0)
(0.486294 0.299388 0)
(-0.0983201 0.538604 1.58785e-16)
(0.216893 0.178416 -7.93016e-17)
(-0.772525 0.619418 1.55222e-16)
(0.263236 0.125483 0)
(0.0688213 -0.0628336 9.65254e-17)
(-0.823223 0.757773 3.61644e-19)
(1.00683 -0.0162251 0)
(-0.889161 0.0172816 0)
(0.164731 0.241355 5.29424e-17)
(-0.928485 -0.0930441 0)
(-1.0138 -0.365851 2.55708e-17)
(0.513956 0.0759261 1.58352e-16)
(-0.245418 1.03609 1.71041e-16)
(0.301898 -0.0650691 3.84194e-16)
(-0.0366437 -0.596198 -9.45216e-17)
(0.337535 -1.141 -1.96017e-16)
(0.236977 0.185215 1.94102e-16)
(0.217512 0.237743 0)
(-0.0499037 0.843716 -7.64228e-17)
(-0.360639 0.136734 1.91829e-16)
(0.38798 -0.0344274 0)
(-0.385563 0.0750182 -1.51536e-16)
(-0.792192 0.0219176 0)
(-0.307414 -0.0182509 -2.55172e-16)
(-0.848934 0.455774 0)
(-0.517016 -0.1029 -2.00709e-16)
(-0.801228 -0.154015 4.60378e-18)
(0.429815 -0.234919 1.31199e-16)
(-0.0969573 0.647428 7.87207e-16)
(0.0978487 -0.732684 0)
(-0.108646 2.30855 1.15367e-18)
(-0.115954 0.38083 2.03232e-16)
(-0.213704 0.330249 -1.9125e-16)
(-0.813502 -0.0365979 3.7955e-17)
(-0.576196 -0.0864276 -1.26222e-16)
(-0.636885 -0.181006 1.6616e-16)
(-0.11067 0.722758 4.39343e-17)
(-0.894903 -0.239264 4.83023e-18)
(-0.0976812 -1.12006 -5.73908e-16)
(0.231288 0.52213 -1.65883e-16)
(-0.0345815 0.410494 2.96456e-16)
(0.747824 -0.190335 3.07447e-16)
(0.488594 -0.121273 -1.00153e-16)
(0.411354 -0.167854 -8.84027e-17)
(-0.303005 0.10874 -7.45725e-17)
(0.258113 0.142895 4.15046e-16)
(-0.724626 0.0872626 1.76324e-16)
(-0.474684 2.04719 8.36999e-17)
(-0.915599 -0.189887 0)
(-0.931768 -0.186497 0)
(-0.974635 0.0311766 -1.43404e-16)
(0.88427 0.108833 2.7015e-16)
(-0.433643 0.137314 -3.30337e-17)
(-0.468945 -0.0317175 -2.85789e-16)
(0.0882123 0.208008 7.61077e-18)
(-0.329193 0.468028 -8.09856e-17)
(0.500665 0.027047 5.73498e-16)
(-0.256221 -0.235324 1.07749e-16)
(0.361941 -0.0927572 4.46086e-17)
(1.06307 0.0691136 0)
(0.478535 0.282744 1.60969e-16)
(-0.880689 -0.196103 0)
(0.345127 0.591953 0)
(-0.901135 -0.0671103 -3.59373e-18)
(0.159059 0.622822 0)
(0.686228 0.0296176 0)
(0.127926 0.176195 0)
(0.0197869 0.0161662 0)
(0.343173 0.0585868 -6.44381e-16)
(0.0529948 1.02295 -2.03702e-16)
(0.0642713 -0.792779 -1.55029e-16)
(0.277636 0.303409 -4.24698e-18)
(0.242223 -0.593029 -5.07913e-16)
(-0.0697774 0.437703 -3.97677e-16)
(-0.393068 1.01115 2.66113e-16)
(-0.144634 -1.09764 -4.9859e-16)
(-0.832365 1.02466 2.8589e-16)
(0.138123 1.0843 6.92864e-17)