/*--------------------------------*- C++ -*----------------------------------*\
| =========                 |                                                 |
| \\      /  F ield         | OpenFOAM: The Open Source CFD Toolbox           |
|  \\    /   O peration     | Version:  v1912                                 |
|   \\  /    A nd           | Website:  www.openfoam.com                      |
|    \\/     M anipulation  |                                                 |
\*---------------------------------------------------------------------------*/
FoamFile
{
    version     2.0;
    format      ascii;
    class       volScalarField;
    location    "0.32";
    object      k;
}
// * * * * * * * * * * * * * * * * * * * * * * * * * * * * * * * * * * * * * //

dimensions      [0 2 -2 0 0 0 0];


internalField   nonuniform List<scalar> 
1431
(
0.370201
0.388052
1.83444
1.19301
0.323512
0.776763
1.20763
0.196465
0.719039
1.35723
0.319443
0.434565
0.432004
0.910268
1.35507
0.312065
1.72732
0.243248
0.654955
0.343071
0.153781
0.887201
1.06091
0.988438
0.928922
0.363956
1.01465
0.838845
0.493302
0.427745
0.794159
0.315591
0.903564
0.374365
0.749137
1.23354
0.416705
0.312865
0.705476
0.305713
1.81407
0.13327
0.81806
1.57925
1.3292
0.19241
1.21746
0.209211
0.387504
0.396609
0.297995
1.35711
0.847101
0.71402
1.62392
0.20242
2.09501
1.14517
0.790728
0.125564
1.60634
0.234558
1.42737
0.292726
0.590763
0.325137
1.68214
0.64988
0.794983
0.323212
0.303965
0.900139
0.288269
0.690481
0.438413
0.682139
0.231746
1.59419
0.224405
1.48068
0.269823
0.314112
0.248781
1.61369
1.72053
0.35473
0.281389
0.483224
1.07604
0.386505
0.220364
0.570685
0.253691
0.312223
0.367165
0.235494
0.58781
0.263816
0.150764
0.5527
0.737472
0.222916
0.306461
0.384467
0.584642
0.565857
0.24048
2.12578
1.06304
0.245528
1.78339
0.333512
0.215011
0.333335
0.517935
0.376722
0.238858
0.78018
1.17796
1.0646
0.29296
1.05206
2.17868
0.83201
0.293774
0.689667
1.30212
0.414861
0.278679
0.488416
0.25813
1.86799
0.734888
0.304054
0.294048
0.709065
0.289119
0.407672
0.216111
1.94693
0.552831
0.0678978
0.290247
0.400502
0.451566
0.374356
0.266773
2.16458
0.290526
0.333717
0.507984
0.634331
0.423164
0.215547
0.157358
0.519903
0.283524
0.287666
0.206976
0.247595
0.253036
0.341653
0.289931
0.465759
0.353661
2.43429
0.278261
0.304412
0.325985
0.381316
0.590674
0.481994
0.771855
0.386401
0.283115
0.125876
0.251644
0.495986
0.454195
0.213711
0.316738
1.47929
0.206994
0.40276
0.34898
0.362763
0.231208
0.839398
0.384706
0.299688
0.557244
2.38944
0.192999
0.254562
0.891173
0.276971
0.234656
0.264257
0.212604
0.180522
0.207638
0.734604
0.299255
1.91916
0.246635
1.31949
0.351446
0.305231
0.3118
0.472895
0.264642
0.216086
1.06817
0.299734
2.13483
0.903314
0.200096
0.530801
0.565625
0.30445
0.291927
1.38852
0.431652
2.18522
0.318673
0.528606
0.486364
0.362045
0.404551
0.823081
0.400606
0.695231
0.302787
0.200745
0.196643
0.204956
0.286822
0.321989
0.274725
0.446389
0.311995
0.270282
0.784173
2.11796
0.564022
0.470017
0.309412
0.865595
0.475708
0.511903
0.260106
0.699769
1.00725
0.561067
1.45139
0.659559
0.173652
0.43768
0.617919
0.641153
0.672903
0.468056
0.22548
0.66457
0.198766
0.396047
0.57138
0.25213
0.463128
0.773119
0.241182
0.445815
0.260798
0.261118
0.689284
0.27198
0.259366
0.6862
0.536751
1.95226
0.921287
0.456756
0.331532
0.260001
0.598876
0.858676
0.394273
0.190409
0.458752
0.292749
0.392296
0.332593
0.192107
0.558123
0.279643
0.215179
0.181183
0.257715
0.433817
0.230637
0.323332
0.494559
0.284609
0.219345
0.254827
0.431126
0.281856
0.649041
0.628117
0.112813
0.304832
0.337879
1.41081
0.0744403
0.337624
0.42102
1.14522
0.520945
0.197677
0.50229
0.450634
0.545767
0.554237
0.495594
0.73885
0.487035
0.257662
0.561171
1.11347
0.294056
0.696734
0.488782
0.477389
0.545806
0.278273
0.774085
0.306483
0.45872
0.314382
0.557857
0.184043
0.263751
0.459866
0.434924
1.16272
0.190839
0.323364
0.436914
0.0421582
0.0266138
0.382437
0.204103
0.326592
0.156126
0.317171
0.322919
0.235736
0.229244
0.135085
0.375982
0.146399
0.369549
0.171418
0.037369
0.0412028
0.410444
0.186757
0.42383
0.824545
1.07633
0.389378
0.456501
0.590743
0.316943
0.5347
1.17908
0.600022
0.32811
0.36216
0.144761
0.224596
0.38452
0.0329216
0.27616
0.420782
0.184267
0.468804
0.269418
0.14357
0.0413469
0.453588
1.55393
0.422263
0.362258
0.578916
0.276455
0.31837
0.315632
0.885025
0.279976
0.371226
0.473279
0.308075
0.362558
0.533375
0.333388
0.533477
0.247006
0.0819973
0.89028
0.618418
0.319324
0.553107
1.33758
0.4235
0.768524
0.421454
0.816211
0.679059
0.190465
0.509004
0.734761
1.05412
0.362831
0.795518
0.456277
0.343894
0.407883
1.90667
0.417349
1.84
0.368184
0.189392
0.582395
0.461271
0.447077
0.725044
0.458051
0.367378
0.628203
1.64776
0.530269
0.520584
0.455629
0.170156
0.685888
0.766554
0.317607
0.451423
0.606786
0.680554
0.980125
0.800712
0.870249
0.838179
0.807756
0.798761
0.95661
0.813243
0.457891
1.54116
0.809104
0.680858
0.977375
0.445272
0.440326
0.0795093
1.70263
0.802724
0.556001
1.53934
0.305997
0.213158
0.813183
0.839644
0.494849
1.55896
1.65049
2.45653
0.612369
0.889803
0.324119
0.842
0.206968
0.287242
1.54183
0.986211
1.08792
0.957728
0.316197
0.203493
0.746828
0.645038
1.93149
0.676166
0.336546
1.2753
0.430885
0.325256
0.381141
0.939423
1.6397
0.341067
0.410086
0.369608
0.37328
0.490701
1.1525
1.17514
0.40751
0.331942
0.333966
0.229055
0.679646
0.316033
1.20896
2.23472
1.43428
1.03327
0.552357
0.450088
0.355322
0.446885
0.0650737
0.407964
0.818384
0.31441
1.03324
0.368174
0.396871
0.289667
0.226141
0.358728
0.389565
0.97697
0.954406
0.316133
0.357018
0.712918
1.23274
0.355942
1.93151
0.414419
1.18879
0.182241
1.15452
0.367651
0.217432
1.03943
0.614439
0.367637
0.148976
0.61152
0.908023
0.505733
0.446735
0.414826
0.602989
0.607648
0.193054
0.77011
0.338612
0.636122
2.16901
1.15149
0.245079
0.667226
0.200296
1.4016
0.320601
0.394845
0.822254
1.43479
0.966455
1.901
0.249585
0.66143
0.526822
0.327667
0.487973
0.341155
0.223473
0.390619
0.490784
0.502984
0.343033
0.333062
0.322027
0.301056
0.393904
1.63107
1.0479
0.359665
0.301958
0.281687
0.331525
0.0838421
0.497537
0.203145
0.149193
0.367042
0.294365
0.481058
0.332378
0.313593
0.967842
0.325869
0.563131
0.875379
1.57385
1.17294
0.671661
0.311011
0.429749
1.40013
0.204304
1.57736
0.448469
0.328436
1.00109
0.436522
0.524303
0.239586
0.426867
0.506942
0.308651
0.44211
0.0780898
0.760573
0.230048
0.718883
0.259333
0.138867
0.238563
0.476702
0.933833
0.455523
0.195967
0.582021
0.266891
0.316037
0.767174
0.24736
0.743296
0.520811
0.324585
0.306868
0.770131
1.05272
0.289853
0.612199
0.447146
0.267324
0.647357
0.807762
0.854191
0.256917
0.332207
0.561026
0.826468
0.491684
0.0487661
0.251402
0.235393
0.282845
0.148539
0.359151
1.31832
0.914658
1.23103
0.065858
0.264388
0.244388
0.661015
0.295424
0.292132
0.906213
1.84851
0.42787
0.534524
1.49642
0.163606
0.470533
0.480751
0.53101
0.398792
0.678364
0.358017
0.953052
0.473593
1.03739
0.563081
0.312101
0.363185
0.704799
0.425588
0.0328412
0.451491
0.272635
0.199305
0.303458
0.493934
0.187276
0.408537
0.278949
0.731469
0.622293
0.77498
0.362901
1.96136
0.490132
0.0821094
0.434388
1.30467
0.375223
0.421275
0.362534
0.715008
0.203826
0.251677
0.413556
0.299971
0.218122
1.92886
0.616596
0.427312
0.936531
0.608472
0.473853
0.135635
0.668911
0.156087
0.472465
0.478812
1.88423
0.189253
0.241165
0.612904
0.70825
0.24794
0.423868
0.847934
0.317587
0.190946
0.591448
0.404695
0.211308
0.424914
0.690961
0.320503
0.772962
0.190109
0.490364
0.518955
0.239036
0.256695
0.350123
0.521733
0.420296
1.4557
0.608001
0.79496
0.943795
1.01241
0.305667
1.00587
0.203165
1.02179
0.612595
0.504038
0.59586
2.10627
0.0818252
0.569513
0.132152
0.571251
0.0540891
1.40246
0.631762
0.407294
0.314946
0.159166
0.535148
0.676147
0.426583
2.98491
0.0816822
0.560383
0.263343
1.64939
0.239059
0.191607
0.876995
0.66741
0.362669
0.309696
0.0744645
0.577397
2.11544
0.22973
0.667323
0.540008
0.211242
0.4587
0.0296542
0.51356
1.15397
0.273877
0.990622
0.248889
0.280891
0.234382
0.836873
0.0549042
1.34012
0.537071
0.52675
0.51792
0.527881
0.502785
0.50858
0.509087
0.552531
0.263146
0.33105
0.385587
0.301456
0.476875
0.511439
0.0529296
0.373847
0.0686543
0.720767
0.043751
0.538135
0.575201
0.608389
0.615002
0.363299
0.615909
0.193943
0.244717
0.262853
0.505757
1.58073
0.223426
0.430559
0.410844
0.353837
0.237331
0.33444
0.392509
0.421802
0.0435117
0.990682
0.223061
1.1643
0.837639
0.32068
0.343807
0.225226
0.24284
0.582629
0.380479
0.552761
0.289196
0.215571
0.203555
0.0460848
0.691284
0.293969
1.06159
0.209738
0.416983
0.0651885
0.252039
0.762689
1.64347
0.576145
0.248355
0.0723105
0.459123
0.308867
0.0893384
0.293339
0.359953
0.227538
1.59891
1.54567
0.290838
0.44617
1.87196
0.9049
0.269881
0.416901
1.71752
0.0787008
0.556478
0.516277
0.424503
0.390104
0.354423
0.81541
1.00096
0.793739
0.721165
0.488911
0.383479
0.0650378
0.442529
0.229537
0.223054
1.46048
0.387006
0.685876
0.736426
0.709483
0.355853
0.551493
0.503092
0.564402
0.219965
0.254476
0.233226
0.211659
0.708725
0.466201
0.529684
1.3261
0.510697
0.352255
0.188268
0.301263
0.204396
0.24117
0.225724
0.175461
0.253039
0.263517
0.26138
0.0290659
0.314957
0.250696
0.268476
0.333412
0.137666
1.77283
0.230589
0.311278
0.272555
1.12871
0.230852
0.41412
0.701086
2.54484
0.64363
0.265629
0.286232
0.701612
0.304397
0.84222
0.783456
0.73957
0.319097
0.285479
0.255498
0.262929
0.894468
0.198031
1.06076
0.729852
0.581619
0.340168
0.597705
0.574097
0.405649
0.24
0.259637
0.266038
0.294456
0.395743
0.401279
0.642772
1.40709
0.783691
0.673583
0.0972672
1.84321
0.230536
0.669868
0.232227
0.252903
0.623903
0.389713
0.328115
0.689079
0.534321
0.657683
1.99343
0.255253
0.328185
1.14654
0.455678
0.807616
1.77837
0.198225
0.788885
2.13031
0.350481
0.229813
0.615174
0.906753
0.228284
0.262175
0.761243
1.75729
1.26234
0.463265
0.338353
0.603787
0.527837
1.0136
0.529044
1.16601
0.717557
0.723733
0.477193
0.445831
0.206258
1.95421
0.838286
0.852993
0.370517
1.95833
0.33719
0.48966
1.67128
0.316568
0.590173
0.448484
0.782546
0.352024
0.0548814
0.798631
0.59478
0.601976
1.58819
0.628821
0.188568
0.90977
0.744156
0.461279
0.649288
1.25683
0.690827
1.42241
0.230606
0.394798
0.309431
0.198636
0.63677
1.885
0.349613
0.604958
0.208217
0.210842
0.399804
0.309752
0.327524
0.560106
0.271465
0.202009
0.497717
1.08838
0.244356
0.542272
0.096116
0.781477
0.353217
0.355146
0.227927
0.563793
0.50903
0.112569
0.233211
0.230978
0.573116
0.764616
0.447122
0.7256
0.598287
0.385006
0.457822
0.201096
0.507916
0.237116
0.51493
0.334491
0.312562
1.52329
1.49805
0.204853
0.49857
0.939677
0.15183
0.374054
0.585028
0.0626768
0.575043
0.634756
0.661604
1.27642
0.629761
0.658045
0.42601
0.872332
0.396729
0.724997
0.525011
0.252661
0.640996
0.342071
0.367044
0.186434
1.10631
0.234808
0.57921
0.732106
0.717071
1.59207
0.356204
0.255473
0.392605
0.4541
0.195246
0.340264
0.31448
0.588862
0.548177
0.0765427
0.744803
0.290356
0.583288
1.81332
0.243299
0.206997
0.750954
0.116488
1.17579
0.259617
1.56407
0.0664747
0.783042
0.762957
0.622862
0.386854
1.18318
0.773834
0.496387
0.287956
1.3109
0.177066
0.054101
0.703154
0.984921
0.919154
0.947876
0.0754775
0.766755
0.225958
0.336476
0.794528
1.06772
1.00902
0.604769
0.366333
0.203161
0.114291
0.25071
0.918584
0.835879
1.5297
0.189423
0.216317
0.674508
0.635718
1.986
0.370116
0.432113
0.075326
0.433118
1.48248
0.544032
0.194649
1.90054
0.809245
0.825667
0.708952
0.337095
0.300378
0.6965
1.73557
1.30169
0.484754
1.20364
0.674262
0.346538
0.446546
0.657714
0.351662
0.359999
1.0667
0.558535
0.35902
0.462118
0.168005
1.76654
0.341556
0.540432
1.2
0.498523
0.701812
0.430317
0.0859322
1.88811
0.192249
0.311769
0.251172
0.413056
0.344149
0.61085
1.6599
0.286983
1.02994
0.180493
0.834934
0.857949
0.317117
0.664304
0.182907
0.294265
1.96215
0.991458
0.885924
1.89631
0.694623
0.100537
0.420327
1.1222
0.267861
0.332043
0.492466
0.201928
0.306911
2.34013
0.7071
1.38845
0.462317
0.695973
0.267994
0.42213
0.44891
1.98795
0.86492
0.396374
0.340961
0.668605
1.3528
0.561804
1.72547
0.438172
0.665697
0.0588839
0.265388
0.300227
0.226247
0.391688
0.412375
0.568355
0.672616
0.14868
0.301255
0.22799
0.395583
0.392392
1.85002
0.846982
0.628208
0.970958
0.351693
1.85619
0.847218
0.756788
0.471511
0.384998
0.350891
0.277649
1.30957
0.469354
0.0492482
0.858117
0.229328
1.62395
0.443449
1.22034
0.756847
0.825648
0.32887
0.413329
1.42451
0.33402
0.418053
0.126078
0.701215
0.36785
0.130153
0.498869
0.376407
0.177124
0.562624
0.150296
0.215977
0.561383
1.55178
0.498225
1.67168
0.773505
0.356209
0.700008
0.227347
0.428137
0.395716
0.21928
0.68489
0.212855
0.509736
1.34743
0.231669
0.662857
0.386835
0.236621
0.23753
0.515389
1.1407
0.181499
0.634739
0.562483
0.212534
0.290676
0.517163
0.535542
0.521591
0.630104
0.295466
0.430697
0.694426
0.256207
0.534573
0.411214
0.363105
0.366368
0.634816
0.239294
0.550145
1.66479
0.898962
0.400664
0.204089
0.378718
0.394968
0.624787
0.402906
0.343755
0.36029
0.35509
0.208599
0.781317
0.384847
0.241488
1.41998
0.298203
1.24058
0.659755
2.03627
0.234731
0.708614
1.43133
0.336654
0.156105
0.362012
0.480826
0.414193
0.919495
0.595802
0.837485
0.441967
0.7748
0.409595
0.3245
0.326236
0.39363
0.34245
0.276487
0.917418
0.895046
1.02088
0.636053
0.586579
0.648984
0.206429
0.471651
0.489978
0.468976
1.25767
0.312479
0.297293
0.425718
1.65673
0.543041
1.3169
0.873101
0.460511
0.206042
0.838123
0.391534
0.272011
0.953714
1.86468
1.02368
1.13529
0.650771
)
;

boundaryField
{
    frontAndBack
    {
        type            empty;
    }
    wallOuter
    {
        type            kqRWallFunction;
        value           nonuniform List<scalar> 
90
(
0.312065
0.421275
0.413556
0.427312
0.473853
0.472465
0.478812
0.591448
0.404695
0.490364
0.518955
0.612595
0.504038
0.571251
0.535148
0.876995
0.537071
0.52675
0.51792
0.527881
0.502785
0.50858
0.509087
0.552531
0.505757
0.793739
0.721165
0.529684
0.510697
0.204396
0.24117
0.225724
0.175461
0.253039
0.263517
0.268476
0.272555
0.230852
0.41412
0.265629
0.255498
0.262929
0.894468
0.198031
0.259637
0.266038
0.230536
0.669868
0.232227
0.657683
0.761243
0.206258
0.461279
0.604958
0.497717
0.227927
0.230978
0.573116
0.764616
0.385006
0.507916
0.237116
0.204853
0.939677
0.634756
0.658045
0.872332
0.186434
1.10631
0.234808
0.496387
0.177066
0.947876
0.225958
1.00902
0.835879
0.432113
0.544032
0.194649
0.825667
0.430317
1.02994
0.180493
0.462317
0.14868
0.215977
1.1407
0.181499
0.521591
0.394968
)
;
    }
    inlet
    {
        type            fixedValue;
        value           uniform 0.375;
    }
    outlet
    {
        type            zeroGradient;
    }
    wallInner
    {
        type            kqRWallFunction;
        value           nonuniform List<scalar> 
138
(
0.434565
0.654955
0.903564
0.374365
0.749137
0.13327
1.68214
0.64988
0.303965
0.900139
0.682139
0.734888
0.215547
0.157358
0.125876
0.251644
0.212604
0.180522
0.207638
0.734604
2.18522
0.659559
0.173652
0.617919
0.641153
0.672903
0.57138
0.689284
0.598876
0.649041
0.628117
0.184043
0.190839
0.436914
0.0421582
0.0266138
0.382437
0.204103
0.326592
0.156126
0.317171
0.322919
0.235736
0.229244
0.135085
0.375982
0.146399
0.369549
0.171418
0.037369
0.0412028
0.410444
0.186757
0.42383
0.144761
0.224596
0.38452
0.0329216
0.27616
0.420782
0.184267
0.468804
0.269418
0.14357
0.0413469
0.453588
0.371226
0.319324
0.768524
0.189392
0.530269
0.170156
0.451423
0.809104
0.813183
0.612369
0.842
0.316197
0.203493
0.746828
0.676166
1.2753
1.6397
0.40751
0.331942
1.43428
0.182241
0.148976
0.61152
0.607648
0.394845
0.149193
0.138867
0.148539
0.163606
0.0328412
0.451491
0.135635
0.156087
0.317587
0.608001
0.203165
0.132152
0.159166
0.66741
0.0296542
0.373847
0.615002
0.363299
0.0435117
0.442529
0.708725
0.0290659
0.314957
0.137666
0.597705
0.673583
0.0972672
0.328185
1.14654
0.309431
0.096116
0.781477
0.15183
0.255473
0.195246
0.750954
0.116488
0.114291
0.25071
0.0859322
0.297293
0.838123
0.391534
0.272011
1.86468
1.02368
0.650771
)
;
    }
    procBoundary0to1
    {
        type            processor;
        value           nonuniform List<scalar> 
29
(
0.929577
1.67179
0.724427
0.724427
1.76534
1.76534
1.89634
0.551308
1.52912
0.63708
0.61429
1.20508
0.455022
0.673487
1.1382
0.534515
2.45651
2.09435
0.587345
1.69174
0.299343
0.215497
1.55855
0.290525
0.290176
2.09435
0.254846
0.80199
0.290525
)
;
    }
    procBoundary0to2
    {
        type            processor;
        value           nonuniform List<scalar> 
42
(
0.923521
0.73053
0.319943
0.338951
0.401742
0.923521
0.319943
0.127871
0.293321
0.12626
0.487763
0.431436
0.487763
0.424306
0.378938
0.925676
0.378938
0.0967327
0.190944
1.34243
1.34243
0.0967327
0.0906624
1.26591
1.26591
0.0864949
0.992352
0.0874082
0.941856
0.692456
0.692456
0.0879937
0.0829838
0.0695828
0.0557032
0.319943
0.377985
0.233979
0.941856
0.127871
0.0528808
0.0489994
)
;
    }
}


// ************************************************************************* //
