/*--------------------------------*- C++ -*----------------------------------*\
| =========                 |                                                 |
| \\      /  F ield         | OpenFOAM: The Open Source CFD Toolbox           |
|  \\    /   O peration     | Version:  v1912                                 |
|   \\  /    A nd           | Website:  www.openfoam.com                      |
|    \\/     M anipulation  |                                                 |
\*---------------------------------------------------------------------------*/
FoamFile
{
    version     2.0;
    format      ascii;
    class       surfaceScalarField;
    location    "0.42";
    object      phi;
}
// * * * * * * * * * * * * * * * * * * * * * * * * * * * * * * * * * * * * * //

dimensions      [0 3 -1 0 0 0 0];
oriented        oriented;


internalField   nonuniform List<scalar> 
2776
(
2.07163e-05
0.000158746
-1.6891e-05
-0.000162571
-2.6919e-05
4.74982e-06
-0.000126035
0.000148204
-5.59629e-05
2.8424e-05
-4.82399e-05
7.57789e-05
-2.2491e-05
1.19461e-05
8.26285e-05
-7.20836e-05
2.87621e-06
3.90318e-06
2.34368e-05
-3.02162e-05
0.00017953
0.000144766
-0.000219245
-0.000105051
-4.3221e-06
1.75403e-06
-1.14075e-06
3.70882e-06
5.99029e-05
-0.000170268
-2.82212e-05
-0.000123192
0.000126941
2.44718e-05
-0.000348619
0.00039881
-0.000250547
0.000200356
6.52307e-05
1.54712e-05
-8.07019e-05
-0.000177308
0.000198739
0.000107449
-0.00012888
1.59847e-05
-1.59847e-05
0.000153101
-8.3859e-05
-6.99179e-05
6.75987e-07
-4.47087e-05
-0.000147328
0.000121414
7.06221e-05
2.61747e-06
3.30657e-05
1.03342e-06
-3.67166e-05
-6.29637e-05
-1.82044e-05
8.11682e-05
8.27783e-05
1.09783e-05
1.20512e-05
-0.000105808
7.4309e-05
-1.4011e-06
3.52922e-05
-0.0001082
3.2201e-05
-4.52223e-05
0.000116952
-0.000103931
-3.35463e-05
4.46859e-05
3.24752e-05
-4.36148e-05
-5.24417e-06
-2.42548e-05
1.10982e-05
1.84009e-05
6.86964e-05
-5.57954e-05
-1.2901e-05
1.10475e-05
0.000135166
-0.000124609
-2.16041e-05
4.06752e-05
0.000131276
-1.885e-05
-4.07111e-05
-1.37358e-05
2.02354e-05
3.42115e-05
-5.634e-05
-3.4971e-06
1.90811e-05
4.0756e-05
-4.89129e-05
3.1479e-05
2.58221e-05
-8.38817e-06
2.7131e-05
2.79912e-05
-0.000100311
0.000187712
-8.74011e-05
-0.000182805
0.000245431
7.14321e-05
5.56966e-05
-0.000121518
-0.000177643
0.000243464
6.72521e-05
-7.20261e-05
-1.29927e-05
0.000122708
-0.000152967
3.8646e-05
-8.38674e-06
-0.000123865
1.96721e-05
7.55633e-05
2.86291e-05
8.23682e-05
-8.11818e-05
-4.58951e-05
-2.74806e-05
5.3662e-05
-7.56011e-05
4.94197e-05
-1.26912e-05
0.000114048
-1.99343e-05
-8.14228e-05
5.79398e-05
0.000126717
-0.000157967
-2.66902e-05
3.02578e-05
-3.03564e-05
-0.000151535
-0.00014103
0.000115257
5.17527e-05
-5.9279e-05
-3.68725e-05
4.43988e-05
0.000132335
-9.47682e-05
-6.57883e-05
-6.87523e-05
-1.40837e-05
0.000210531
-0.000127695
-1.1464e-05
2.89596e-05
3.47488e-05
-5.22444e-05
4.10502e-05
2.96599e-06
-0.000148594
0.000104578
-3.32333e-05
0.000138296
0.000100749
-0.000205812
2.84846e-05
-5.82878e-05
0.000112581
4.68041e-05
-1.46493e-05
1.95979e-05
5.2054e-05
-1.49315e-05
-7.06688e-05
3.72194e-05
-4.92845e-05
2.35969e-05
-1.15318e-05
2.4674e-05
5.54959e-05
2.06765e-07
-7.1117e-05
8.99446e-05
-0.000111423
6.41546e-06
1.5063e-05
-0.000132714
3.52648e-05
0.000118764
-2.13145e-05
0.00022287
-8.91341e-06
-0.000136644
-7.73126e-05
3.07563e-06
-5.43281e-05
5.33582e-05
-2.10573e-06
2.14926e-05
7.70364e-05
-8.58438e-06
2.69241e-06
-1.08591e-06
3.95048e-05
-4.11113e-05
2.23968e-05
2.61746e-05
-0.000126414
7.43007e-05
2.59382e-05
6.36789e-05
-0.000117901
6.1521e-05
-7.29882e-06
-0.000153869
1.4058e-05
2.83878e-05
5.00406e-05
1.37389e-05
-1.90936e-05
1.78356e-05
-0.000137924
0.000135455
-1.53662e-05
-1.37894e-05
2.94129e-05
-2.08676e-05
3.86854e-05
-2.81393e-05
-3.28518e-05
2.23057e-05
-0.000116529
0.000132464
-3.99728e-05
2.40372e-05
-1.47285e-05
4.41127e-05
-4.20754e-05
-0.000144292
4.35132e-05
0.000135759
-3.498e-05
-2.25531e-05
7.82466e-06
-0.000192096
0.000264176
0.000128733
-0.00014674
-1.53988e-05
1.7847e-05
7.29885e-05
-0.00017551
0.000131006
2.05377e-05
5.49832e-05
-4.83899e-05
3.10145e-05
7.27726e-05
-8.22945e-05
-3.53766e-05
6.49306e-05
-7.12629e-05
4.17089e-05
0.000102592
6.8856e-05
-0.000112042
-5.94052e-05
0.000116007
-1.51661e-05
-0.000115374
1.45334e-05
1.0626e-05
3.0996e-05
5.18212e-06
6.68821e-06
-2.73163e-05
3.66386e-05
-1.60105e-05
8.11371e-05
3.58737e-05
-1.32396e-05
-0.000103771
3.69061e-05
-1.52908e-05
-1.49272e-05
8.12447e-05
6.1126e-05
-6.67054e-05
-7.56652e-05
0.000160218
1.07345e-05
-3.26122e-05
-0.000138341
-0.000100959
0.000105761
-8.66451e-06
3.86244e-06
0.000102077
-1.08271e-05
3.63579e-05
-0.000127608
-2.98418e-05
0.000114546
-8.47041e-05
5.87266e-05
-6.4447e-05
-6.92787e-05
7.49991e-05
-1.75427e-05
-7.03486e-05
9.28106e-05
-4.91928e-06
2.52097e-05
6.59162e-05
-5.39064e-05
8.44778e-05
-6.22656e-05
-2.17265e-05
-0.000107163
2.70291e-05
0.000101861
7.88997e-06
-1.43987e-05
5.39781e-05
-4.74694e-05
4.26957e-06
9.66033e-05
-6.91707e-06
-9.39558e-05
1.27587e-05
-4.18661e-06
9.35049e-05
1.62156e-05
-2.51225e-05
4.39304e-05
-6.77207e-05
9.46786e-06
-3.0226e-05
-8.35229e-05
0.000104281
4.38555e-05
-6.5582e-05
6.32964e-05
-0.000113545
9.90012e-05
-4.87522e-05
0.000133449
3.9937e-05
-3.2118e-06
1.51362e-06
5.17388e-05
6.4667e-06
0.000116533
-6.99329e-06
-0.000134827
4.57874e-06
0.000134518
7.77145e-05
-0.000113049
9.82857e-05
-6.29509e-05
7.317e-06
-3.60771e-06
4.76782e-05
-5.13875e-05
-3.74037e-06
-9.74052e-06
-4.87602e-05
6.22411e-05
4.09133e-05
-6.73869e-05
-4.05601e-05
6.70337e-05
-3.01059e-05
0.000110921
2.80301e-05
-1.20453e-05
0.000177417
7.75869e-05
-0.000123431
-0.000131573
0.000131454
3.28324e-05
-6.71568e-05
-9.71299e-05
0.000128208
-9.67862e-05
0.000100032
-4.94807e-06
-9.87451e-05
2.73433e-06
0.000134659
-3.13374e-05
-0.000211361
0.00010804
-9.75147e-05
7.91548e-06
0.000103338
-2.62215e-05
-9.50584e-05
0.00012965
-8.36991e-06
4.67189e-05
-1.38865e-05
0.000100025
-8.59106e-05
6.71307e-05
5.48572e-05
-1.27824e-05
0.000118144
0.000103053
-3.14692e-05
0.000118919
-0.000190503
3.41401e-06
-5.67173e-06
-6.57972e-07
2.91569e-06
-3.35756e-05
3.38171e-05
4.18186e-06
-4.42341e-06
4.73071e-05
-0.00011015
0.00012157
3.77111e-05
-0.000156669
-5.6345e-06
0.000124592
6.03597e-05
1.77768e-05
-4.71384e-05
-3.09981e-05
4.25536e-06
1.35977e-05
-0.000164593
2.69829e-06
9.97919e-06
-7.57773e-05
6.30998e-05
3.68763e-05
4.41885e-05
-0.000234934
-7.30899e-05
-1.39292e-05
5.28051e-05
3.4214e-05
3.401e-05
6.74961e-05
-7.04915e-05
-4.2367e-05
-5.2826e-05
3.5914e-05
3.24925e-05
-1.99308e-05
-2.59307e-06
-9.96869e-06
-1.91099e-05
2.89798e-05
-2.25856e-05
1.27156e-05
0.000101449
-2.57407e-06
-9.46192e-05
0.00029264
0.000106169
-1.94382e-05
0.000133984
-0.000185393
0.0001538
8.27115e-05
-5.11189e-05
6.09272e-05
1.74991e-05
-4.43236e-05
-3.41026e-05
1.69526e-05
-4.75265e-05
-7.33374e-05
8.34529e-05
-1.01154e-05
-3.62627e-05
-4.92447e-05
8.55074e-05
6.04315e-05
5.21234e-06
-4.52739e-05
-2.03699e-05
7.06518e-05
-0.000147627
0.000113851
-1.33095e-05
-0.000149043
1.09571e-05
-3.10429e-05
1.84488e-05
1.60082e-05
2.06891e-06
0.000111192
-7.50033e-06
-1.12045e-06
-9.73175e-05
6.80422e-05
3.03957e-05
4.49154e-05
8.05546e-05
-0.000112711
6.50338e-05
-4.62393e-05
2.29245e-05
-4.1719e-05
0.000132154
-7.67078e-05
-5.5406e-05
0.000106579
-9.6601e-06
-4.1513e-05
-0.000119157
0.0001593
2.33585e-05
-6.35011e-05
7.12596e-05
-1.57762e-05
-5.95754e-05
-5.10992e-06
3.95627e-05
0.00012468
-5.87819e-06
-1.77306e-05
-0.000101071
0.000129253
7.17587e-06
-3.34419e-05
5.6569e-05
-7.18211e-05
5.91825e-05
-6.52891e-05
3.4852e-05
-0.000108226
2.01058e-05
0.000181055
-9.29341e-05
9.68558e-05
-3.80412e-05
-5.88146e-05
-9.84918e-05
6.22094e-05
-7.32829e-06
4.36107e-05
2.25997e-05
-6.37123e-06
-7.25684e-05
4.55525e-05
3.1791e-05
3.79355e-06
-7.50992e-05
0.000107171
3.8017e-06
1.45921e-05
-1.37988e-05
-6.46502e-06
4.89154e-05
-3.0691e-05
5.24275e-05
2.28059e-05
-6.70141e-05
0.000152241
-9.75141e-05
-8.1646e-05
7.32959e-05
5.40408e-05
-7.07678e-05
6.11579e-05
-5.07103e-05
6.23249e-05
-5.15083e-05
1.5636e-05
-0.000111455
5.93753e-05
-0.000146696
8.75656e-05
-9.01225e-05
6.58533e-05
5.68889e-06
-3.41761e-05
8.88468e-05
1.23985e-05
0.000106138
5.04596e-05
7.57397e-05
-1.81275e-05
6.24769e-05
8.80609e-05
-8.50097e-05
3.4155e-06
-3.65046e-05
2.21115e-05
7.05021e-05
-5.6109e-05
8.30803e-05
3.28829e-05
-3.35949e-05
1.02799e-05
5.36909e-05
8.48012e-06
-6.2171e-05
-8.83771e-05
7.58073e-05
1.25697e-05
1.75129e-05
6.39652e-05
-0.000111038
5.55531e-05
0.00014305
-4.62175e-05
6.18422e-05
-1.47215e-06
-1.97419e-06
3.24262e-05
-8.57516e-05
7.10596e-05
-8.37376e-05
9.84295e-05
-8.61413e-05
7.81042e-05
-0.000112555
-5.52563e-05
5.47616e-05
-2.59677e-05
-1.3867e-05
-5.58964e-05
-3.17406e-05
-6.91113e-06
5.69591e-05
-1.83074e-05
3.14038e-05
-2.8416e-05
-7.48608e-06
-8.25008e-05
-8.50494e-06
3.09684e-05
-4.74193e-05
5.65111e-05
-6.05101e-05
-1.06502e-05
2.93422e-05
-0.000112757
-1.22797e-05
0.000128003
-7.76462e-05
-5.50439e-05
-6.04255e-05
6.31929e-05
-1.69004e-05
1.41331e-05
-7.63172e-05
8.69512e-05
9.22644e-05
-4.42892e-05
-7.39429e-05
6.13489e-05
-8.38219e-06
-8.47073e-05
9.07653e-05
-7.23646e-05
1.93964e-05
-3.77971e-05
3.07054e-06
-1.70955e-05
2.74548e-07
-6.26023e-05
8.62598e-06
5.37018e-05
-3.56534e-05
1.6595e-05
1.90584e-05
9.94796e-05
-4.31524e-05
-0.000123484
-0.000123571
1.70423e-05
9.11301e-05
2.02983e-05
5.38544e-05
1.33181e-05
-8.74708e-05
-0.000146471
9.97394e-06
0.000157214
-6.41103e-05
9.89288e-05
0.000102597
-3.43071e-05
7.00064e-05
-1.13076e-05
1.87802e-05
4.14427e-05
-2.00662e-05
0.000155114
-3.24504e-05
2.6457e-05
-9.83364e-05
4.63591e-05
3.49442e-05
-7.4623e-05
-6.68031e-06
-2.68783e-05
-0.000101253
3.59749e-05
9.21569e-05
0.000130734
-4.53244e-05
8.71847e-05
-0.000172594
-1.35366e-05
2.05519e-05
2.54772e-05
2.7152e-05
-4.45733e-05
4.52513e-05
-2.78299e-05
0.000106907
-0.000119127
3.97913e-05
-2.75713e-05
4.31816e-05
-2.70173e-05
-2.45486e-05
8.38428e-06
3.89232e-05
5.84931e-05
-8.58423e-05
5.83176e-05
4.18647e-05
-2.02032e-05
2.15202e-05
-0.000161776
4.988e-05
9.76147e-06
0.000111213
-3.51935e-05
2.61864e-05
-1.86443e-05
7.69284e-06
4.7876e-05
-4.73542e-05
-3.73498e-05
-5.95684e-07
3.15246e-05
5.98415e-05
-5.86267e-05
-0.000121223
9.43446e-05
-1.20831e-05
8.78688e-06
3.29623e-06
0.0001419
-6.3134e-05
-0.000138485
1.72623e-05
4.27551e-05
0.000104752
-2.63761e-05
6.3114e-05
2.57378e-05
-6.24757e-05
4.68046e-05
2.03325e-05
3.08463e-05
-7.03997e-05
0.000129986
-5.56906e-05
4.34897e-05
-5.17816e-05
-1.80843e-05
-7.17833e-05
4.04035e-05
0.000123194
-8.37422e-05
-0.000147678
2.63146e-05
-1.89592e-05
-9.43695e-05
8.7014e-05
5.615e-05
2.10787e-05
-0.000113253
2.08217e-05
9.1171e-06
3.04634e-06
3.13263e-05
-1.25734e-05
7.51685e-05
-0.000151065
-6.818e-05
0.000123829
8.94219e-05
-0.000142629
0.000201168
5.92222e-05
-3.41454e-05
-5.11049e-06
-3.11652e-05
5.38228e-05
-2.95688e-05
-2.52378e-05
-1.01218e-06
1.07291e-05
1.55209e-05
-1.85939e-05
-0.0001401
1.19973e-05
-9.93235e-06
2.1628e-05
8.85624e-06
-5.05209e-05
5.19468e-06
-3.84612e-05
5.589e-05
-1.43531e-05
-9.1327e-05
4.38656e-05
-1.83739e-05
-3.7541e-05
7.30412e-05
3.12106e-05
3.41436e-06
-3.51848e-06
-1.38232e-05
1.66837e-05
-2.90598e-05
3.29525e-05
-9.3386e-05
8.94933e-05
9.01655e-06
3.83868e-06
-1.48669e-05
2.0117e-06
2.41713e-05
6.98292e-05
0.00013198
-0.000225981
-1.80172e-06
5.01862e-05
-5.0928e-05
-3.90805e-05
3.98223e-05
-5.4296e-06
0.000124725
0.000114401
6.01091e-05
0.000214275
0.00017019
-0.000183297
-0.000190172
-4.91301e-05
3.10029e-05
0.000208299
0.000167105
0.000297427
-5.03882e-05
-5.68692e-05
7.30814e-05
-0.000170295
-2.26155e-05
0.000104252
8.86582e-05
-3.106e-06
-9.37837e-06
-2.40202e-05
0.000174509
-0.000118015
-0.000186414
0.000129921
4.80196e-05
-0.000156966
4.18561e-05
-1.32647e-05
0.000149379
-3.24553e-05
2.63256e-05
-0.000143249
-0.000100746
-7.28217e-06
-4.84139e-06
1.11269e-05
9.96607e-07
-0.000193784
2.77835e-05
-0.00010239
1.3948e-05
0.000104078
-5.1881e-05
-3.98362e-05
5.92016e-05
3.25156e-05
2.7038e-05
7.64002e-05
-7.95158e-05
-2.39224e-05
-4.22405e-05
-2.51011e-05
-3.35573e-05
3.00388e-05
5.89224e-05
-7.38879e-05
-4.64758e-05
0.000123078
-0.000121927
-7.99346e-05
1.18623e-05
9.32819e-05
-1.7766e-05
5.21096e-05
8.4661e-05
-0.00010178
-0.000130508
-3.45817e-05
8.60655e-06
-2.9923e-05
-9.84866e-06
4.72505e-05
-5.07746e-05
-3.06213e-05
-1.20081e-05
2.10782e-05
-1.24735e-05
-1.62109e-05
2.72122e-05
8.46099e-06
-3.83545e-06
-0.000105343
0.000142899
-1.70809e-05
1.336e-05
-6.67707e-05
3.87636e-05
6.16042e-05
-1.1521e-05
0.000155447
-0.000140732
-1.47144e-05
-7.33189e-05
5.37365e-05
1.95824e-05
-0.000132082
0.000106483
2.55991e-05
-9.57861e-06
3.75247e-05
-2.79461e-05
0.000116908
-6.99194e-05
-4.69882e-05
-3.37407e-05
-1.66084e-05
5.03491e-05
4.86815e-05
5.37195e-05
-0.000102401
-6.03135e-05
7.70566e-05
-1.67431e-05
0.000165626
-0.000164033
-1.59347e-06
1.54227e-05
-2.50013e-05
-0.000185507
0.000120396
6.51107e-05
-8.36258e-05
1.03068e-05
0.000163663
-8.21661e-06
2.04597e-05
-1.74002e-05
-3.05944e-06
-2.40913e-05
7.20118e-05
-7.62607e-05
4.24888e-06
1.33049e-05
-3.35025e-05
-2.68111e-05
0.000188927
-2.33009e-05
-7.43546e-05
4.02291e-05
3.41254e-05
-6.57277e-05
-2.23867e-05
8.81145e-05
-0.000170246
3.81635e-05
3.6599e-06
5.12698e-06
-2.791e-05
6.29259e-05
-3.50159e-05
-0.000105269
5.51663e-05
5.01027e-05
-1.83267e-06
0.000150434
7.78117e-07
-3.98906e-05
4.6789e-05
4.32878e-05
-6.65283e-05
2.99915e-05
5.66246e-05
2.50026e-05
-7.31915e-05
-3.98693e-06
4.95911e-05
7.64935e-06
-2.99875e-05
-2.72529e-05
-1.96667e-05
-1.8083e-05
-5.29351e-05
-1.18911e-05
-2.13342e-05
0.000139627
6.48941e-05
0.000109187
-4.80867e-05
1.88623e-05
-2.17036e-05
-9.29599e-05
7.45132e-06
-5.93803e-05
-0.000149393
-3.61135e-05
-1.17275e-05
-4.59344e-05
5.76619e-05
-5.33384e-05
-2.82031e-05
-1.83181e-05
8.36584e-05
-6.14125e-05
1.69648e-05
3.70676e-05
1.80987e-05
9.61582e-05
-3.32322e-05
-3.69838e-07
9.60119e-05
2.43839e-05
-6.56916e-06
3.21288e-05
1.03922e-05
-0.000227731
-0.000104674
0.000102842
-3.50888e-06
7.09291e-05
-1.69591e-05
-3.95192e-05
-0.000209658
0.0001336
0.000115577
-5.69728e-05
-4.53485e-05
4.78941e-05
0.000147744
5.36959e-05
1.24327e-05
-6.79304e-05
-2.88005e-05
6.48573e-05
4.77443e-05
-2.86066e-05
-9.37626e-06
4.06761e-05
-2.58553e-05
0.000173657
-0.000188478
0.000180026
-0.00016585
2.65004e-05
6.83924e-05
4.58957e-05
-8.64716e-05
-2.78166e-05
4.72413e-05
3.13958e-06
-3.16007e-05
-0.000131546
0.000146345
-0.00017368
0.000158881
-2.50963e-05
-6.54229e-05
6.58809e-05
5.681e-05
-6.90011e-06
-2.66865e-06
1.55433e-05
8.83119e-06
-5.16589e-05
3.96225e-05
2.65899e-05
-6.13021e-06
5.39159e-05
1.80959e-05
3.48622e-05
-1.7507e-05
-3.56733e-05
-4.04403e-05
9.10663e-06
3.44733e-05
5.86283e-05
1.96243e-05
-0.000158273
0.000106775
0.000218603
-6.27694e-05
-3.86139e-05
7.23235e-05
0.000117293
3.09846e-05
-8.73501e-05
-2.12413e-05
-3.69313e-06
5.12491e-05
8.51312e-05
2.6267e-05
-7.39931e-05
-3.74051e-05
-7.54826e-05
-6.44867e-05
4.73946e-05
9.25746e-05
-8.2511e-05
8.66629e-05
-2.97629e-05
-2.51267e-05
1.44493e-05
-0.00013713
-6.28934e-05
8.47245e-06
0.000102063
-8.53406e-05
-2.51952e-05
1.07432e-05
-3.28581e-05
-0.000161215
0.00018333
4.76895e-07
0.000112084
4.73231e-06
-0.000174435
-2.02535e-05
0.000198713
-4.02481e-06
2.46094e-05
-5.88351e-05
0.000214251
-0.000169969
0.000205321
-3.38351e-06
-0.000174329
3.27706e-06
-0.000149001
0.000123145
-1.74242e-05
-2.3347e-05
1.65164e-05
3.95147e-05
4.60798e-05
-1.18905e-05
-7.3704e-05
3.11314e-07
2.17792e-05
-2.0141e-05
1.4124e-05
6.32827e-06
3.28215e-05
-8.97509e-05
-1.50967e-05
5.55543e-05
3.82015e-06
-3.58516e-05
7.13944e-06
-1.11884e-05
7.86909e-06
1.03717e-05
2.74988e-05
-4.49784e-05
-6.71013e-05
0.000141522
-0.000143935
2.89002e-06
-2.00843e-05
1.65461e-06
-7.15704e-05
9.00001e-05
4.39506e-05
-4.70566e-05
-0.000112435
-6.51767e-05
0.000157528
-8.27283e-05
6.63117e-06
8.45696e-05
-0.00023486
1.0743e-05
-4.06108e-06
-0.000144475
0.000137794
-0.000167853
-1.6254e-05
0.000125281
5.88251e-05
-9.449e-06
-5.29067e-06
1.47397e-05
-1.55162e-06
0.000116374
-3.31381e-05
3.16121e-06
3.16315e-05
-3.28917e-05
0.000166209
4.93843e-05
-0.000182702
-0.0001625
5.3901e-06
-6.88903e-06
-1.42274e-05
-6.16119e-05
8.91848e-05
-5.97213e-05
3.97532e-05
-6.92167e-05
3.94818e-05
-2.29502e-05
7.26531e-05
9.08584e-05
-0.000253636
0.000157295
5.48219e-06
-4.88753e-05
-0.000185311
0.000213933
0.000281398
-0.000158605
-3.1935e-05
-8.1159e-05
9.11825e-05
-1.69125e-05
0.000120557
-6.18174e-06
-0.000147267
-0.000152089
8.44811e-06
0.000145282
-1.64082e-06
-5.02709e-05
-6.45627e-06
6.33583e-05
-9.42438e-05
2.8558e-05
6.16248e-05
-7.84562e-05
-9.02288e-07
0.00011884
-2.32879e-05
-7.00082e-05
1.2137e-05
-1.88146e-05
-2.24489e-05
4.12636e-05
-0.000173099
-5.85858e-05
0.000182809
-2.18654e-05
-4.26329e-05
4.76673e-05
-1.01696e-05
0.000104024
2.92595e-05
-1.10559e-05
-0.000170292
-7.07225e-06
-0.000181622
-1.59321e-05
-2.6655e-05
5.33762e-06
2.60337e-05
-3.13713e-05
1.85661e-05
-3.61968e-05
-9.48046e-05
-4.51639e-05
-9.32005e-05
2.2458e-05
8.33374e-05
6.55801e-05
6.30302e-05
-0.00012861
-6.89364e-05
-7.49867e-06
2.92326e-05
-4.55123e-05
-0.000161185
0.000116704
-0.000106133
-2.86307e-05
3.69494e-05
8.53452e-05
-3.97557e-05
2.87194e-05
0.000107158
-0.000192267
0.000143049
0.000126554
-5.3001e-06
-0.000102633
-0.000193843
0.000139816
-0.000101843
5.79286e-05
-3.53552e-06
0.000143377
-5.44965e-05
-4.22986e-06
8.64633e-05
-2.68657e-05
1.01544e-05
3.93606e-05
-3.96551e-05
-7.88275e-05
7.91221e-05
-8.40102e-05
2.44977e-05
-1.2688e-05
-7.90427e-05
-4.26384e-05
0.000118146
3.82668e-05
-3.42197e-05
3.3621e-05
3.78999e-05
8.25894e-05
-8.11287e-05
-4.88286e-05
1.90657e-05
3.52005e-05
-0.000153999
-4.313e-05
-1.85671e-05
4.59623e-05
-3.38514e-05
-4.77013e-07
5.81463e-06
-5.76769e-06
-6.55635e-05
5.46585e-05
5.82996e-05
7.20374e-06
-6.88722e-05
-1.23247e-05
8.83324e-06
6.67477e-05
3.35948e-05
-6.24426e-05
2.85678e-05
-3.67777e-05
1.73165e-05
9.0607e-05
0.000175113
-0.000181894
5.61655e-05
-0.000135247
0.000107159
0.000115054
-8.69653e-05
4.18458e-05
-0.000143962
-2.70025e-05
0.000111244
9.15048e-05
-9.89427e-05
-0.000139705
-2.05109e-05
-6.77602e-05
-0.00017272
6.04734e-05
-0.000170791
-0.000153672
1.93569e-05
3.75948e-05
-2.67298e-05
-2.86105e-07
1.87951e-05
-0.000184676
-0.000194165
3.00141e-05
-0.00018543
3.89089e-05
0.000125385
-6.22308e-05
1.93726e-05
-1.82657e-05
4.70773e-06
1.32048e-05
3.07458e-05
6.27892e-05
-4.95843e-05
-0.000117232
-0.000111713
4.04675e-05
-1.30501e-05
2.80664e-05
-4.61591e-05
-1.20489e-05
6.29516e-05
1.5845e-05
8.77926e-07
1.87154e-06
6.9574e-05
6.15452e-05
2.71619e-06
6.98701e-05
0.000169105
0.000148555
-0.000189989
3.09574e-05
-2.14581e-05
8.49165e-05
-6.78598e-05
-8.47775e-05
-4.11074e-05
-4.08791e-05
6.78244e-05
-9.59955e-05
-1.29576e-05
-5.44231e-06
1.8565e-05
-2.78537e-05
7.26471e-05
-4.08262e-05
2.12318e-06
5.90849e-05
5.72783e-05
7.73109e-05
-0.000185072
9.99768e-05
-0.000119732
0.00016634
9.6776e-05
-0.000143384
9.56248e-05
-4.40159e-05
5.99363e-05
3.87381e-05
-1.68777e-05
-5.87088e-05
6.71439e-06
-2.39849e-05
0.000128801
-0.000133232
-5.09245e-05
6.91303e-05
4.13865e-05
0.000134064
-0.000125557
-4.98927e-05
5.98861e-05
3.65111e-05
-2.2022e-05
-6.89589e-05
9.00786e-05
-5.00556e-05
2.67798e-05
-6.0254e-05
-3.67704e-05
2.47452e-05
0.000135006
5.81158e-05
-2.05106e-06
-5.8814e-05
2.6797e-05
-3.38526e-06
3.54022e-05
1.09197e-05
0.000147716
-0.00013231
5.51068e-05
7.97784e-05
0.000170078
-0.000150423
-0.000139387
6.10677e-05
6.54281e-05
-3.91021e-05
-0.000117872
0.000113277
3.75803e-05
-2.01111e-05
-6.48885e-05
8.33718e-05
0.000122462
-0.000130872
0.000165666
3.13422e-06
-1.02562e-05
0.000141644
-0.000134522
-3.85429e-05
-1.32258e-05
3.68206e-06
9.62503e-05
9.428e-05
4.68467e-05
4.896e-05
-6.68471e-05
-3.78678e-05
6.13761e-05
-4.38782e-05
8.23785e-05
-3.48697e-05
6.75453e-05
-4.60995e-05
5.37167e-05
-7.61723e-06
2.80025e-05
4.42777e-05
9.35358e-05
4.8283e-05
8.31125e-05
9.55162e-05
-7.73598e-07
0.00012669
-9.98901e-05
-2.60259e-05
1.999e-05
-3.74163e-05
8.06192e-05
7.5228e-05
-4.59771e-05
-2.45186e-05
5.6141e-05
-0.000170193
-0.000156424
-0.000166958
5.29761e-05
-0.000103516
-9.80547e-05
2.74008e-05
3.52927e-05
-2.52449e-05
-3.74487e-05
0.000173498
-0.000156672
0.000129518
0.000103497
5.87985e-05
-8.20686e-05
-8.02272e-05
-4.08912e-05
-8.35354e-06
0.000120819
-3.73664e-05
6.56944e-05
-1.07807e-05
-3.57144e-05
3.42132e-05
-1.62067e-05
3.49495e-05
-4.62059e-05
2.50217e-05
-0.000127859
4.84816e-05
3.80129e-06
5.50559e-05
-0.000158437
0.000101556
-0.000196755
-1.74387e-05
5.9483e-05
1.78921e-05
-4.23826e-05
-4.28839e-05
2.65577e-05
-4.87184e-05
1.87218e-05
3.02712e-05
1.96607e-05
1.6118e-05
-1.91735e-05
1.30978e-05
-1.91621e-05
2.82031e-05
7.177e-05
2.84373e-05
-2.2394e-05
5.85535e-05
-5.27116e-05
-0.000236375
8.0206e-05
-4.50777e-06
0.000160676
-9.69806e-05
0.000131149
-0.000156572
8.82117e-05
0.000141801
8.48907e-05
9.23995e-06
-6.08768e-06
1.08618e-05
-1.33016e-05
-4.84236e-06
3.27853e-05
-2.87224e-05
2.39396e-05
-0.000129976
-7.56386e-05
-2.775e-05
3.04434e-05
7.78857e-05
-4.66019e-05
-7.03643e-05
3.09373e-05
-5.63329e-05
5.24336e-05
-6.69213e-05
2.41172e-05
-9.07695e-06
-6.65455e-05
9.17239e-05
-9.08155e-05
-3.49934e-05
0.000125809
6.84411e-05
6.87759e-05
-6.41357e-05
5.61491e-05
4.23264e-05
-6.31828e-05
0.000132468
-2.07195e-05
4.9673e-05
-3.47067e-05
3.62496e-05
-3.95255e-05
-5.60491e-05
5.53569e-05
-5.6479e-05
-0.000106479
0.000126761
5.50779e-05
1.71533e-05
-0.000197168
-1.34798e-05
-1.53701e-05
1.80692e-05
0.000124297
-2.74417e-05
2.06063e-05
-8.29276e-05
4.8272e-05
-3.15169e-05
5.32395e-05
2.95093e-05
-2.4402e-06
-5.11458e-05
2.44389e-05
2.77065e-05
4.68977e-06
-0.000140266
-1.64331e-05
-6.78582e-05
6.6367e-05
6.03162e-05
4.66661e-05
-2.84123e-05
8.98839e-05
-7.67885e-05
-2.79152e-05
-9.65595e-06
2.40913e-05
4.58774e-05
-4.15074e-05
3.54523e-05
-0.000136646
-0.000177239
0.000179452
0.000134432
-4.79724e-05
2.4204e-07
1.56538e-05
-1.30188e-05
3.36146e-05
-0.000136078
0.00015114
5.09416e-05
-3.21487e-05
-5.2751e-05
2.67929e-05
-0.000204754
-3.10284e-06
1.20812e-05
-0.000119419
5.08371e-05
3.27538e-06
-2.56038e-05
-4.56352e-05
-1.94327e-05
-2.60642e-05
-1.72211e-05
4.16079e-07
6.28067e-06
2.6369e-05
0.000112589
-8.05884e-05
-3.70988e-05
-0.000144273
0.000112039
-8.21533e-05
-0.000129139
-2.16813e-05
6.0217e-05
9.06032e-05
6.40921e-05
-1.26659e-05
-5.47065e-05
3.28023e-06
-8.36756e-05
2.21287e-05
8.54108e-05
-4.22815e-05
-3.69487e-05
3.77039e-05
-4.46245e-05
-2.50962e-05
3.20168e-05
8.01184e-07
4.10437e-05
2.91957e-06
-4.47645e-05
1.71907e-05
-7.55651e-05
1.28453e-05
-1.99128e-05
0.000109709
-8.59037e-05
7.3625e-05
4.1632e-05
-7.29306e-05
-0.000143922
1.92507e-05
-2.47895e-05
2.09479e-05
-9.55866e-06
-7.28889e-05
1.55262e-05
-3.58627e-05
1.51993e-06
4.12932e-05
4.31714e-05
-5.3561e-05
9.67451e-06
-5.21828e-05
3.1724e-05
4.38244e-05
3.67225e-05
4.85927e-05
-7.69987e-05
2.8406e-05
6.38559e-05
0.00011628
7.02976e-06
-3.70274e-05
-5.11493e-05
8.62611e-05
-1.63258e-05
0.000173249
-7.81544e-05
5.47371e-05
-2.01429e-05
3.36464e-05
-5.86657e-05
-7.86738e-05
-3.20588e-05
-2.707e-05
1.37311e-05
7.19671e-05
9.39508e-05
-1.02178e-05
0.000162329
-4.43137e-05
0.000117339
3.86318e-05
-6.8407e-06
-7.32462e-05
-2.80103e-05
2.4549e-05
-0.00013855
-5.85213e-06
2.11134e-05
0.000212724
9.82494e-05
-1.014e-05
6.16262e-05
1.32611e-05
2.6968e-05
-6.75953e-05
-1.76595e-06
6.73871e-05
-6.9899e-06
4.28594e-05
-1.85493e-05
0.000103338
-8.58176e-05
8.92002e-05
-5.84249e-05
-3.44448e-05
8.9012e-06
4.46247e-05
3.28198e-05
6.48065e-06
-1.56727e-05
-2.36277e-05
3.5786e-05
8.81637e-05
-8.20434e-06
-1.73267e-05
-9.66179e-05
0.000104421
3.1059e-05
4.34179e-06
5.13132e-05
-2.89464e-05
5.75367e-06
4.01454e-05
-9.74184e-05
-0.000156852
5.06311e-05
-5.23558e-05
1.7247e-06
5.14323e-05
-0.000123864
-3.29042e-06
1.73758e-05
0.000109779
-5.59635e-05
5.44186e-05
-2.98629e-06
5.20366e-06
-2.92949e-05
-0.000160072
-2.50956e-05
4.09898e-06
-6.00625e-05
3.84604e-05
1.59582e-05
-4.16519e-05
3.03335e-05
1.13185e-05
-0.00011558
6.05799e-05
5.49997e-05
-7.01934e-05
7.19338e-05
0.000107447
7.1503e-06
8.50349e-06
2.59011e-05
-4.62501e-05
-2.18189e-05
4.2168e-05
-5.36114e-05
8.52082e-05
-6.6092e-05
6.84863e-05
-5.46898e-05
-5.16643e-05
2.6587e-05
-1.01897e-05
-1.63972e-05
3.28795e-05
3.73775e-05
-0.000143696
5.65683e-06
0.000163061
-5.74644e-05
-9.73881e-05
7.61418e-06
-6.97998e-05
2.72243e-05
-0.000104655
-4.78333e-05
-2.30747e-05
6.86745e-05
-5.99655e-06
-2.47867e-05
-1.97376e-05
-4.0385e-05
5.16008e-05
-1.12159e-05
-4.53892e-05
-4.47307e-05
6.26783e-05
-2.75548e-05
0.000120732
-7.95868e-05
-2.00937e-05
6.53133e-05
-5.88141e-05
0.000178582
9.49538e-06
-6.01901e-07
-1.3798e-05
-9.99028e-05
-1.99228e-05
9.41005e-05
2.57251e-05
3.74205e-05
-3.42166e-05
1.56334e-06
-4.76718e-06
6.80099e-05
-9.23579e-05
3.19649e-05
-3.3366e-05
-5.18732e-05
0.000108798
3.09816e-05
0.000105614
-7.25038e-05
-2.30481e-05
-5.20923e-05
1.7946e-05
-3.48003e-05
7.89692e-05
-0.000159136
-7.38325e-05
-0.000192993
-8.10356e-06
2.79927e-05
1.40541e-05
2.92109e-05
-2.86868e-05
-8.07868e-05
8.62864e-05
-4.29483e-05
-8.47421e-05
0.000103662
-1.90588e-05
-8.4603e-05
8.90478e-05
-5.6196e-05
4.85202e-06
3.72502e-05
-2.87117e-05
-4.83747e-05
-1.87921e-05
6.87186e-05
2.64736e-05
1.96511e-05
5.18211e-05
0.000100817
0.000151807
4.27926e-05
-1.4394e-05
1.42556e-05
2.57954e-05
4.48261e-05
-9.92549e-06
1.26524e-05
-4.75301e-05
-3.40417e-05
-7.00401e-05
-1.8951e-05
-3.56565e-06
-3.05523e-06
6.4727e-05
2.69399e-05
2.16529e-05
-2.42133e-05
4.15029e-05
-0.000115314
-3.30721e-05
9.67272e-05
8.16331e-05
-5.85295e-05
5.9536e-06
-2.20807e-05
6.74901e-06
0.000129185
1.32368e-05
2.43579e-08
0.000103541
-1.89695e-05
4.54965e-05
-5.07403e-05
-0.000106581
-2.7519e-06
-0.000123489
-0.000139611
-1.69069e-05
-9.69215e-05
7.14298e-05
-8.44414e-05
0.000113006
-0.000124456
-6.35724e-05
3.23155e-05
-4.45205e-05
5.63867e-05
-6.36478e-05
0.000175034
8.40775e-06
-0.000104943
0.000108077
-0.000100502
-4.44085e-06
2.55042e-06
-5.35367e-06
0.000153177
-0.000150374
0.000118108
1.13148e-05
3.08073e-05
-4.57434e-05
-8.92767e-05
0.000104213
5.15547e-05
7.96296e-05
-9.56418e-05
-3.55426e-05
-2.60673e-06
-5.08643e-05
-4.16641e-05
-6.65328e-05
-3.03528e-05
-8.17864e-05
-9.90681e-07
0.000120941
-3.30755e-05
2.54971e-06
-1.07244e-05
6.51031e-07
1.6027e-05
6.24665e-06
1.58103e-05
3.81056e-05
-1.10291e-05
3.7619e-05
0.000137553
-0.000104003
-2.74361e-06
0.000124943
-6.66697e-06
0.000154158
-0.00010978
3.66005e-05
1.45696e-06
-0.000195474
0.000112862
7.24418e-05
-0.000102813
-0.000126518
1.21092e-05
-2.40902e-05
-0.000117158
-1.75493e-05
0.000143856
3.64142e-05
-1.58327e-05
2.36574e-05
-2.5494e-06
-0.00020651
-4.37796e-05
-2.61398e-05
-4.50226e-05
-1.72295e-05
5.94908e-05
-2.53793e-06
1.77982e-05
2.13402e-05
-0.000106494
-2.61274e-05
-8.59957e-06
6.35231e-05
7.76777e-05
2.43833e-05
-7.89473e-05
-7.55848e-06
-0.000138804
1.8835e-05
-1.96428e-05
1.95495e-05
-2.6674e-06
-1.75094e-05
-6.15029e-05
4.71915e-05
-5.22552e-05
-7.67227e-05
-3.76389e-05
9.13348e-05
-4.16146e-05
-3.46648e-05
-0.000132386
7.27725e-05
4.97339e-05
-9.89706e-05
8.39806e-05
-7.91722e-05
6.47971e-05
3.65686e-06
1.23952e-05
0.000108687
-0.000137829
7.24976e-06
0.000126555
7.87317e-05
-6.64091e-06
6.89914e-05
1.95295e-05
-3.92378e-05
1.06945e-05
7.96767e-05
0.000145447
-1.91991e-05
3.24986e-05
3.23088e-05
1.74991e-05
8.53466e-05
-2.69957e-05
-6.96736e-05
1.13226e-05
-3.7041e-05
8.91971e-05
-7.91263e-05
-5.98427e-05
-5.17196e-06
2.52177e-05
-2.38393e-05
-6.53179e-05
-4.35691e-05
8.48668e-05
-5.29233e-07
-9.70138e-06
2.98913e-05
-4.52368e-06
3.82059e-05
-5.03881e-05
1.66385e-05
1.64357e-05
-1.59522e-06
-0.000137233
2.54539e-06
7.545e-06
4.57281e-06
0.000110192
1.62999e-05
-3.75628e-06
-1.5211e-05
-3.50578e-05
-2.79059e-05
-4.25608e-05
0.000132344
-0.000128067
-0.000148421
2.46471e-05
3.98858e-05
-8.05952e-05
-1.94868e-05
-1.41811e-05
3.03221e-05
-6.46535e-05
-0.000115357
6.28003e-05
5.25567e-05
0.000154086
1.32996e-05
-1.45829e-05
1.28334e-06
-0.000184255
0.000237445
-0.000204725
1.97811e-06
-4.25114e-05
-2.98664e-05
-8.33861e-05
4.52689e-05
-1.75734e-05
-6.63328e-05
-6.12623e-05
6.70954e-05
-5.5616e-05
-4.16788e-05
4.41834e-06
-2.66267e-06
-4.24709e-05
4.48049e-05
1.64848e-05
-6.81817e-05
-4.61603e-05
-2.21949e-05
0.000109707
-7.43167e-05
0.000151946
-2.15057e-05
8.24662e-05
-8.69942e-05
3.87516e-05
-5.06032e-05
4.78265e-05
8.87841e-06
-1.26409e-05
3.76253e-06
3.7113e-06
5.16712e-06
2.69454e-06
-8.72746e-06
6.03292e-06
6.40584e-06
-9.06974e-05
0.000106694
-1.59971e-05
-7.11618e-05
-1.95356e-05
0.000111444
0.000106356
5.08807e-06
-1.37269e-05
0.000107841
-1.48514e-06
0.000118009
-1.0168e-05
-1.36906e-05
-3.6292e-08
-1.26571e-05
-1.22411e-05
-5.87066e-09
-0.000134493
-1.29603e-05
7.19276e-07
3.39223e-07
8.58451e-05
-4.07713e-06
-0.000222798
8.02499e-05
-0.000116445
4.05935e-05
2.32321e-05
-6.38256e-05
0.000129057
-0.00015062
-0.000135651
5.85403e-05
-0.000201315
2.77961e-05
-3.29915e-05
-9.75212e-06
1.80555e-05
3.80557e-05
-1.95785e-05
-2.53328e-05
-1.16013e-05
-3.73849e-05
1.41027e-06
3.92632e-07
0.000148654
-0.000149775
1.12037e-06
-3.23979e-05
-4.80663e-05
5.36157e-07
5.08018e-05
-6.69999e-05
0.000241569
-2.66273e-05
-0.000183939
0.000148218
4.35898e-07
9.28895e-05
1.13459e-05
-7.57718e-05
1.47166e-05
0.000137833
-8.77585e-06
-6.20571e-05
-6.67962e-06
4.09867e-05
-0.00010501
5.75566e-05
-9.21252e-05
-7.8215e-05
9.76365e-06
-9.10827e-06
-0.000194676
0.000303062
-9.68422e-05
8.69138e-06
2.67383e-05
0.000129159
-0.000152574
0.000107074
-7.74183e-05
-0.000142856
1.82697e-05
-0.000121653
0.000130412
2.15911e-05
-0.000186265
-0.000149943
1.68103e-07
0.000144717
-6.88432e-06
1.35757e-05
-4.44926e-05
3.48669e-05
-2.29208e-05
0.00011746
8.2659e-05
0.0001241
-0.000147267
-2.67524e-06
2.80393e-07
1.15733e-05
-2.06851e-05
-0.00014496
6.50584e-05
-0.000105154
-0.000234715
-8.37899e-05
-1.56553e-05
-9.40321e-05
-5.87076e-07
-0.000125343
0.000106144
-2.8213e-05
6.308e-05
-4.10667e-05
2.45203e-05
1.80033e-05
8.00349e-06