/*--------------------------------*- C++ -*----------------------------------*\
| =========                 |                                                 |
| \\      /  F ield         | OpenFOAM: The Open Source CFD Toolbox           |
|  \\    /   O peration     | Version:  v1912                                 |
|   \\  /    A nd           | Website:  www.openfoam.com                      |
|    \\/     M anipulation  |                                                 |
\*---------------------------------------------------------------------------*/
FoamFile
{
    version     2.0;
    format      ascii;
    class       surfaceScalarField;
    location    "0.22";
    object      phi;
}
// * * * * * * * * * * * * * * * * * * * * * * * * * * * * * * * * * * * * * //

dimensions      [0 3 -1 0 0 0 0];
oriented        oriented;


internalField   nonuniform List<scalar> 
2776
(
1.43403e-05
0.000204558
-9.06492e-06
-0.000209833
-2.89358e-05
5.50435e-06
-0.000189453
0.000212885
-3.21888e-05
8.3913e-05
-8.06911e-05
2.89669e-05
-2.82884e-05
1.50419e-05
0.000168374
-0.000155128
0.000191643
0.000184743
-0.000118468
-0.000257919
-0.000275928
-0.000297757
0.000331963
0.000241721
-5.68934e-05
2.71177e-05
-2.08773e-05
5.0653e-05
0.000174512
7.24324e-05
2.43755e-05
-5.57115e-06
4.79291e-05
-6.67335e-05
-0.00015009
0.000104101
3.2331e-06
4.27552e-05
2.5469e-05
4.27626e-05
-6.82316e-05
0.000469408
-0.000433002
0.000129617
-0.000166023
8.24742e-06
-8.24742e-06
0.00024766
-0.000133485
-0.000116534
2.35915e-06
1.5184e-05
-0.000194259
0.000153237
2.58373e-05
3.77453e-06
8.14729e-05
6.17755e-07
-8.58652e-05
-1.86795e-05
-1.69781e-06
2.03773e-05
0.000125339
4.83589e-05
-1.07748e-06
-0.00017262
-3.34359e-05
3.7202e-05
0.000118229
-0.000121995
5.90445e-05
-7.39839e-05
0.000199181
-0.000184242
5.65109e-05
-4.65957e-05
3.05004e-05
-4.04157e-05
-0.000208009
-0.000249293
0.000362765
9.45367e-05
0.000327674
-0.000280376
-4.7298e-05
1.48412e-05
0.000185373
-0.000169695
-3.05188e-05
8.0685e-05
0.000198285
-3.13097e-05
-2.50811e-05
-2.59709e-05
7.61635e-06
4.34357e-05
-1.60662e-05
-1.76529e-05
1.31701e-05
2.05489e-05
-5.02038e-05
4.00625e-05
-0.000180914
0.000191055
0.000104691
3.54254e-05
0.000223606
-0.000239146
1.55409e-05
-1.86693e-05
1.00898e-05
-7.8159e-05
-0.00037534
0.000610645
0.000429614
-0.000664919
0.000234196
-0.000163299
-0.00030061
-2.25065e-05
3.08866e-05
-0.000239788
0.000231408
-0.00021279
-2.55479e-05
0.00015094
8.7398e-05
0.000141944
-0.000156145
2.93856e-05
1.65079e-06
5.32704e-05
-5.19196e-05
-3.00156e-06
1.88566e-05
7.18614e-05
-5.30934e-05
-3.76246e-05
-0.000274223
-0.000176252
0.000210972
0.000239503
7.20722e-05
-0.000256701
-5.08217e-05
0.000462469
5.77611e-05
-9.00472e-05
0.000130435
-1.01707e-05
-3.02167e-05
4.01909e-05
-1.59704e-05
1.55003e-07
-0.000160317
0.000110072
-3.98106e-06
5.42263e-05
0.000428361
-0.000369052
-7.83334e-06
-5.14752e-05
7.23336e-05
-0.000116735
-3.45966e-05
7.89978e-05
2.52411e-05
7.5859e-05
-4.30544e-07
-0.00010067
6.53676e-05
-0.000118031
0.000178002
-6.57145e-05
-7.36983e-06
-1.69629e-05
2.44597e-05
6.39854e-05
-3.19342e-05
5.81763e-05
-7.95599e-05
2.68296e-05
-5.44607e-06
2.72257e-05
1.82003e-05
8.73721e-05
-0.00046133
-0.000117335
0.000156432
-0.000161182
0.000122085
-9.13907e-05
1.21017e-05
8.09551e-05
-1.66603e-06
-2.98193e-05
3.03805e-05
1.73464e-05
-1.79076e-05
-1.45386e-05
7.6161e-05
-6.96224e-05
8.00005e-06
-0.000119912
-8.97519e-05
9.23288e-05
-1.04081e-06
1.23842e-06
8.87499e-05
-8.89476e-05
0.000201099
9.67648e-05
-0.000274834
0.000149808
2.82612e-05
9.91529e-05
-0.000201706
0.000104749
-2.19581e-06
0.000223114
-0.000223371
0.00015669
-3.49346e-05
3.79653e-05
-4.96264e-05
-1.29794e-05
-0.000207261
0.000230642
-1.04018e-05
-0.000258872
0.000352162
-0.000301299
1.99437e-05
-2.58459e-05
-1.28347e-05
1.87369e-05
-0.000183183
0.000221864
-7.93264e-05
4.0646e-05
4.01553e-06
6.71808e-05
-5.23397e-05
-0.000224869
8.10284e-05
0.000217033
-7.31918e-05
5.82655e-05
-5.425e-05
4.66114e-05
-0.000249969
-0.000184919
-0.000222007
-3.67826e-05
3.39204e-05
0.000125146
-0.000241286
0.000181507
0.000115323
0.00011966
-0.000130291
-0.000143005
-8.38084e-05
0.000106902
-1.26741e-05
2.30433e-05
-2.21768e-05
1.18075e-05
0.000166476
0.000125158
-0.000181786
-0.000109848
0.000112767
3.63633e-05
-0.000129298
-1.98323e-05
-1.21613e-05
-4.20243e-05
-1.15289e-05
9.00676e-05
-7.76094e-05
-2.65086e-05
1.40504e-05
2.24676e-05
6.69268e-05
-6.94633e-05
-1.99312e-05
2.12196e-05
5.48552e-05
1.39927e-05
0.000244912
6.09102e-05
-6.92901e-05
-0.000236532
0.00027046
2.59702e-05
-6.21515e-05
-0.000234279
-0.00018423
0.000184671
-3.72221e-06
3.2807e-06
0.000182332
-4.00058e-05
7.74613e-05
-0.000219788
-1.29886e-05
-5.20207e-05
6.50094e-05
-6.57655e-05
8.00864e-05
0.000122769
-0.00013709
-4.1268e-05
-0.000133473
0.000188454
-1.37139e-05
3.56771e-05
3.74586e-05
-1.49594e-05
-5.02508e-05
6.17218e-05
-3.62735e-05
-0.000207814
3.83298e-05
0.000205758
1.1419e-05
-2.14769e-05
-8.57485e-05
9.58063e-05
-2.39008e-06
0.000197579
4.22444e-06
-0.000199413
3.44387e-05
-1.99365e-05
0.00016783
5.84292e-05
0.000250543
-0.000234017
-6.67294e-05
2.52212e-05
-2.06254e-05
-9.07746e-05
8.61788e-05
0.000162331
-0.000198604
4.10396e-05
-8.77686e-05
7.27898e-05
-2.60607e-05
0.000100608
1.19164e-05
4.55479e-05
-5.70915e-05
-2.3391e-05
3.91893e-05
9.98078e-05
-2.623e-05
-0.00021318
1.43426e-06
0.000209356
0.000136045
-0.000145958
0.000114216
-0.000104303
-5.35468e-06
4.0501e-06
-6.51794e-05
6.6484e-05
9.48887e-06
-2.02691e-05
-2.01557e-05
3.0936e-05
-4.97505e-05
7.76706e-05
8.42759e-05
-0.000112196
2.02791e-05
7.68234e-05
1.2772e-05
-4.52453e-06
0.000129698
-2.16141e-05
-0.000153198
4.51143e-05
0.000225699
5.64473e-05
-0.000112187
-0.000169959
0.00021653
-0.000164078
0.000173247
8.5161e-06
-0.000190679
-2.06668e-06
-5.80489e-05
7.62649e-05
5.37793e-05
-7.19953e-05
3.61098e-05
2.08169e-05
-1.89615e-05
-7.46748e-06
-0.000137196
0.000178769
-3.41055e-05
8.96143e-05
-3.3167e-05
0.000150971
-7.68541e-05
0.000170796
0.00010959
-4.56579e-05
0.000206528
-2.74925e-06
-1.44972e-05
-1.82098e-05
3.54562e-05
1.55641e-05
-2.93555e-05
1.71493e-05
-3.35794e-06
-0.000145734
0.000136688
-2.0961e-07
9.25549e-06
-4.95086e-05
8.92902e-05
-0.000105547
0.000425831
7.95589e-05
-0.000393112
-0.000112278
-2.56732e-05
-5.96706e-05
2.88243e-05
5.65195e-05
7.35702e-06
1.07036e-05
-0.000240068
2.57054e-05
-6.0992e-06
-0.000131366
0.00011176
-0.000341186
0.000187595
0.000376705
-2.63614e-05
6.83514e-06
1.89144e-05
6.1186e-07
-0.00015845
-7.96714e-05
9.51157e-05
0.000123851
-1.62255e-05
2.28087e-05
2.57124e-05
-8.07522e-05
8.1828e-05
-2.67881e-05
-0.000544226
0.000454856
5.44951e-05
3.48754e-05
0.000155222
-1.3217e-05
-0.000134648
4.81954e-05
5.59061e-05
-1.63595e-05
-3.56613e-05
7.39908e-05
-7.32972e-05
-5.72467e-05
5.65531e-05
-0.000159384
-0.000173424
0.000145043
0.000187765
-0.000127784
1.19182e-05
-0.000127528
0.000100438
2.70904e-05
-9.17709e-05
9.88304e-08
9.16721e-05
0.000128922
-1.09377e-05
-0.000128348
1.03637e-05
-0.000306001
0.000121508
-0.000156694
9.85049e-06
5.55642e-05
-3.1082e-05
-5.16946e-05
3.0327e-05
3.69317e-05
6.9084e-06
0.00018991
-1.21473e-05
5.43478e-06
-0.000177295
0.00012514
4.67207e-05
8.29476e-05
0.000136137
-0.000184646
5.78013e-05
-3.12426e-05
1.56864e-05
-4.22451e-05
0.00019839
-0.000114512
0.000206078
-0.00029371
-9.20995e-05
0.000179732
6.10796e-06
-1.27392e-06
1.24959e-05
-1.733e-05
0.00013155
5.88781e-06
-4.94365e-05
0.000278028
2.19513e-05
0.000216436
-1.12078e-05
-2.72053e-05
-0.000178023
0.00030453
-9.40539e-06
-3.7366e-05
-0.000234795
-8.25121e-05
8.329e-05
8.9662e-05
-0.000168025
0.000317673
-0.000282965
0.000209343
-0.000244052
5.36543e-05
-7.22805e-05
1.86261e-05
-0.000170245
0.000107157
-3.81165e-06
6.68993e-05
-2.23384e-05
1.0981e-05
-4.70878e-06
2.07847e-05
-7.0764e-05
7.24469e-05
-1.20217e-05
3.40047e-05
4.49438e-05
2.4943e-05
-4.47823e-05
-9.51618e-06
-0.000285378
8.40306e-05
-0.000104654
7.40322e-06
-5.01372e-05
0.000284231
-0.000190819
-0.000122348
-4.52339e-06
-0.000166333
-6.39391e-05
-0.000105316
8.53338e-05
-6.38261e-05
-4.80285e-06
-2.98064e-05
-0.000159649
-6.22184e-05
-0.000205906
7.59644e-05
-8.3371e-05
4.84462e-05
-5.05849e-05
6.59395e-05
-4.10278e-05
3.00584e-05
0.000178684
7.10647e-05
0.000176671
-2.85738e-05
0.000111618
9.2808e-05
-0.000105841
5.2222e-05
-0.000140607
-2.94356e-05
0.00018335
-1.33067e-05
0.000122554
-2.73024e-05
4.66921e-05
1.65966e-05
0.000154198
1.53056e-06
-0.000155729
-0.000177791
0.00014463
3.31616e-05
4.06999e-05
9.06057e-05
-5.43714e-05
6.82484e-05
6.20874e-05
-7.33593e-05
8.85656e-05
2.28259e-05
3.5927e-06
0.000428437
-8.42618e-05
6.41216e-05
-0.000129157
0.000149297
-9.8693e-05
0.000150477
-0.000164232
-9.95337e-05
0.000117808
4.36197e-05
9.07724e-06
0.000106736
1.3998e-05
-2.66966e-05
1.95831e-05
-6.88446e-06
3.93559e-05
-2.73167e-05
-1.06968e-06
-0.00013828
-3.08952e-05
5.19884e-05
-7.87399e-05
-7.77397e-05
0.00010328
-3.29103e-05
4.87929e-05
5.26361e-06
-0.00019582
7.38215e-05
-0.00015726
-3.68835e-06
-6.03526e-05
9.26577e-05
-4.58794e-05
1.35743e-05
-0.000117478
0.000121247
-0.000234544
8.14039e-05
0.00019676
3.0326e-05
-1.76149e-05
1.28686e-06
6.84531e-05
-4.68607e-05
-2.72675e-05
5.67516e-06
-4.03831e-06
5.30768e-05
-5.56227e-06
-7.76313e-05
7.27149e-06
7.59221e-05
-8.18842e-05
2.02339e-05
6.16504e-05
0.000173437
-7.18463e-05
-0.000213778
-0.000204279
1.73637e-05
0.000150133
-0.000455553
3.34296e-06
0.000554575
-0.000102364
-0.00021905
-2.82555e-06
0.000236216
-0.000113197
0.000176015
4.95033e-05
2.238e-05
3.97571e-06
6.15467e-05
-0.000266562
-8.03624e-05
2.80234e-05
7.14293e-05
-4.99493e-05
7.55635e-05
-0.000159111
9.58884e-05
5.7971e-05
-0.000142974
-1.08849e-05
2.55719e-05
-2.1957e-05
-4.44686e-05
4.08537e-05
-4.23247e-05
-0.00023262
0.000227284
4.76603e-05
-4.64703e-05
6.75757e-05
4.60693e-06
0.0001396
-0.000161738
5.61656e-05
-3.40281e-05
0.00018429
-0.000201992
6.2988e-05
-4.52859e-05
-4.94579e-05
6.25189e-05
2.33758e-05
-3.64368e-05
-3.36311e-06
9.28934e-05
-0.000114057
7.31521e-05
-2.54049e-05
5.90234e-05
-8.30764e-05
0.000228228
-1.77417e-05
-6.73338e-05
0.000157328
-5.85764e-05
9.94199e-05
-0.000147316
-4.62415e-05
-2.20851e-05
7.70298e-05
-1.20204e-05
0.000112829
6.4992e-06
-0.000133255
-4.93035e-05
-3.7683e-05
6.32549e-05
-3.20878e-05
1.04247e-05
2.16631e-05
-1.48444e-05
-8.02335e-05
-1.04662e-05
-2.72167e-05
6.51824e-05
0.000184241
0.000324776
-4.93363e-05
-0.000291979
1.65391e-05
-6.12932e-05
-2.86078e-05
0.000156505
-8.61952e-05
0.000225742
-0.000103604
-3.66194e-05
-6.99415e-06
0.00036839
-9.88786e-05
0.000117994
0.000178847
0.000271686
-0.00013286
-0.00010611
-0.000202738
2.79695e-05
0.000280879
4.79875e-05
-2.60047e-05
-7.26948e-05
5.38574e-05
-0.000367756
0.000394373
-6.3237e-05
-3.26279e-06
0.000131091
0.000236762
9.52011e-05
0.000129919
6.54026e-05
-0.000169484
0.000159157
-1.062e-05
0.000100435
-1.45271e-05
-9.80737e-06
1.64316e-05
-3.33208e-05
-0.000295454
-0.000148664
0.000299961
0.000144157
1.45932e-05
-0.000196669
-2.38308e-05
-5.35991e-06
6.65552e-06
6.62801e-05
-8.37086e-05
6.03935e-05
5.74309e-05
-7.74221e-05
5.45255e-06
-1.21198e-05
5.25561e-05
1.25651e-05
-4.0145e-05
7.7952e-05
-1.69786e-05
-2.53106e-05
7.80426e-06
6.71985e-06
2.62519e-06
-3.45016e-05
3.2121e-05
-3.28661e-05
3.52467e-05
-6.44095e-05
-1.31945e-07
6.29e-05
1.64146e-06
1.69353e-05
-1.31486e-05
6.14282e-07
-4.40103e-06
9.78145e-05
-0.000301345
0.000235444
-0.00033154
0.000397442
-1.58978e-05
0.000205041
6.3866e-05
-1.97042e-05
8.01302e-05
0.000148965
-6.99378e-05
2.50184e-05
-1.5641e-05
2.78542e-05
-3.72316e-05
-7.61711e-05
-0.000131042
2.77365e-05
6.95458e-05
-3.13428e-05
-4.38995e-06
-3.56716e-05
3.2332e-05
7.72954e-06
-7.53275e-05
-1.33723e-05
-5.19076e-05
0.000120986
0.000188165
-0.000146813
-0.000162338
2.64146e-05
-4.78496e-07
7.78393e-05
-1.67988e-05
2.67499e-05
-3.11334e-05
3.65373e-05
-3.21538e-05
0.000194828
2.36388e-05
-6.24108e-06
1.59019e-05
-3.32997e-05
2.37908e-05
1.81629e-05
-0.000127944
-3.44691e-06
0.000101584
-6.60601e-05
-6.51297e-05
9.07043e-05
4.04855e-05
-2.02754e-05
-3.86189e-07
1.39479e-05
6.71364e-06
3.93236e-05
4.85242e-05
-1.02629e-06
8.83055e-06
-0.000259728
9.99351e-05
-0.000253242
-8.11695e-05
0.000101792
-1.74893e-05
1.61188e-05
3.70476e-05
-2.87655e-05
1.2677e-05
-0.000347424
8.0174e-05
0.000388758
2.29627e-05
2.47784e-05
-3.37455e-05
-8.40246e-07
-4.01161e-05
2.76927e-05
0.000112858
-4.13718e-05
2.28041e-05
0.000352148
0.000147857
-0.000477179
1.38312e-05
2.32157e-05
-7.49043e-05
2.89307e-05
0.000186364
-0.000197831
0.000106583
1.98464e-05
-1.80346e-05
-4.28396e-05
0.00020953
-0.000199629
-9.90125e-06
7.12326e-05
-7.91182e-05
7.8856e-06
-9.20455e-05
0.000103577
-1.15319e-05
1.44147e-05
-5.18629e-06
-9.22845e-06
3.26565e-05
-1.2123e-05
-2.05335e-05
-3.537e-05
-1.41251e-05
4.94951e-05
2.31271e-05
2.73258e-05
-5.04528e-05
2.57069e-06
-1.59066e-05
1.3336e-05
0.000100721
-0.000147326
4.66045e-05
2.49241e-05
-1.05093e-05
-0.000170052
8.65596e-05
8.34921e-05
4.1397e-05
2.98356e-05
0.000191702
1.78283e-05
8.96474e-06
-9.05272e-06
8.79813e-08
-7.34597e-05
-0.000118893
0.000145697
-2.68046e-05
1.0453e-05
-1.19532e-05
1.45239e-05
7.3323e-05
2.73982e-05
-0.000104138
9.13456e-05
1.27928e-05
-4.52299e-06
-1.23235e-05
1.68465e-05
-7.58107e-05
-1.62349e-05
-1.52926e-06
1.1954e-05
6.31058e-05
-0.000124166
6.10606e-05
-1.61868e-05
4.14928e-06
1.20376e-05
6.06817e-07
2.39461e-05
2.1969e-06
-0.000476145
-0.000304747
0.000479547
8.63455e-05
-4.54075e-05
8.30775e-05
-3.04831e-05
0.000114238
-6.08027e-05
-6.26315e-05
-1.88558e-05
4.50316e-05
3.64556e-05
3.9211e-05
2.7898e-07
0.000148024
-4.44061e-05
0.000108938
-0.000337568
1.49308e-05
4.25266e-06
0.000136911
0.000252142
-0.000153609
0.000132083
-0.000199637
9.14684e-05
-0.000138989
-3.10631e-05
-3.71911e-05
0.000362603
-0.000325412
-4.31542e-05
-9.70929e-06
-1.04459e-05
5.71361e-05
5.11526e-05
8.92373e-06
8.23839e-06
-4.08912e-06
-0.000197044
7.28775e-05
4.43764e-05
5.79924e-05
2.85672e-05
2.54903e-05
-5.60976e-07
0.000207263
0.0003013
1.67844e-08
5.90031e-07
1.20585e-05
-0.000324801
6.14072e-05
-1.39104e-05
7.61513e-05
-4.15534e-05
-2.06875e-05
-3.8666e-06
-2.59462e-05
-0.000300445
-9.59302e-08
7.46526e-05
5.22144e-05
-2.90526e-05
-3.00999e-05
1.7766e-05
-6.0026e-06
1.62594e-05
-7.75906e-05
1.63151e-05
-5.25856e-06
7.05331e-06
-1.81098e-05
-8.21294e-06
4.35194e-06
2.01761e-05
-0.000247575
9.01598e-05
-5.065e-05
0.000208065
-6.5147e-05
-0.000236194
3.47788e-05
-0.0001122
-0.000216154
0.00027237
5.59846e-05
1.28049e-05
-4.704e-05
4.02566e-05
-9.26563e-05
-0.000207437
0.000234946
3.43739e-05
1.00934e-05
-2.04259e-05
3.88442e-05
8.5949e-06
3.69839e-07
-2.39228e-05
-9.497e-05
3.7814e-05
-2.76279e-05
-2.0632e-05
-5.08609e-06
-0.000177376
-5.37316e-05
2.58883e-05
6.38447e-05
0.000524978
-3.39311e-05
-0.000567218
-3.61418e-05
-4.49895e-05
4.66296e-05
-0.000260281
-7.78188e-05
0.000178715
0.000263783
-0.000145415
-0.000224479
0.000121847
8.72859e-05
-8.78679e-05
-0.000121265
4.27903e-06
4.0717e-05
2.32568e-05
-6.82528e-05
-2.30626e-05
2.50837e-05
7.21396e-06
0.000280597
-0.000292897
-3.11166e-05
0.000424011
-4.8324e-05
-0.00024675
0.000255309
3.97652e-05
-2.8586e-05
4.25355e-05
3.74116e-05
-5.13611e-05
-5.76488e-05
-0.000243436
4.0804e-05
0.000175869
-0.000177433
-0.00018563
0.000187194
2.6556e-05
-1.72948e-05
-1.74741e-05
2.06181e-05
-2.26481e-05
-0.000116306
0.000152331
0.000139844
-1.98357e-05
1.45771e-05
-0.000228545
0.000191616
-0.000212364
-5.77976e-05
0.000165274
-9.28187e-05
-1.46576e-05
-0.000181867
-0.000104476
-1.79549e-05
7.71489e-06
-0.000171627
-0.000147713
-0.00016127
0.000145684
0.000209177
-4.48878e-05
-6.58857e-05
-4.81669e-05
-5.02246e-05
5.35037e-05
-3.56196e-05
5.81248e-05
-3.96027e-05
-1.67807e-05
-0.000166426
0.00016159
-5.28132e-05
-0.000176789
0.000118552
0.000391163
-0.000332926
-6.7083e-05
-8.24452e-06
0.000339099
-0.000111358
-0.00040453
0.000417645
-0.00014082
-0.000325149
2.16957e-05
2.26986e-05
1.66622e-05
7.23196e-05
-0.00011168
0.000290384
0.000342343
-0.000400851
-0.000231876
4.06246e-05
0.000364483
-0.000405108
-8.5844e-06
-1.65712e-06
0.000420021
-4.35687e-05
-0.0002579
-9.64757e-06
-5.52529e-05
2.16069e-05
4.32936e-05
0.000166764
0.000146319
0.000398609
-0.000310231
0.000329268
7.39962e-05
0.000569506
-0.000427809
-0.000215693
-0.000493109
0.000326204
0.000240901
-0.000231285
2.76607e-06
-1.14125e-06
0.00022966
-7.45905e-05
0.000152921
-0.000255764
8.60594e-06
-3.82371e-05
-0.000201654
0.000239725
-0.000175852
0.000334736
-8.63146e-06
-2.90584e-06
1.88974e-06
0.000165775
-0.000119978
-0.000182212
0.000136415
0.000379814
-0.000147325
-0.000373309
1.2117e-05
1.4132e-05
-9.58674e-06
-3.59805e-05
-0.000461755
4.62649e-06
-0.000462264
0.000242774
0.000459215
2.28695e-06
-2.81669e-05
2.588e-05
0.000113656
-3.70274e-05
-0.000151219
-0.000266456
0.000336039
1.85773e-05
-3.64699e-05
-0.000148533
-0.000107109
0.000137026
0.000135858
-7.63455e-05
0.00011296
-3.36664e-05
0.000494312
-0.00025441
7.7261e-05
0.000177149
0.000181673
-6.68205e-05
0.000224246
-4.13388e-05
-3.113e-05
-3.2319e-05
-2.81048e-05
3.26725e-05
2.27812e-06
-3.49506e-05
0.00053917
-5.77253e-06
2.28392e-05
-2.07384e-05
0.000318137
3.89153e-05
-7.12975e-06
-3.10728e-05
1.59975e-06
-3.61316e-05
-0.00011209
0.000114786
-0.000306527
0.00027651
-0.000244206
-0.000110524
-1.58734e-05
-6.16071e-05
0.000343839
-0.000332229
-0.000136825
7.59623e-05
-1.43936e-05
-7.34252e-05
5.16872e-05
4.81436e-05
-0.000144031
-2.03361e-06
-1.2945e-05
1.70117e-05
-1.77289e-05
-5.18475e-05
5.25647e-05
0.000252493
-0.00023318
1.43952e-05
5.7555e-05
2.06166e-05
-9.25653e-05
1.95226e-05
-3.07492e-05
0.000116001
1.62967e-05
3.08512e-05
-3.01362e-05
0.000310481
-0.000303267
-5.79307e-05
3.39567e-06
0.000260566
-0.000122396
-0.000420861
0.000395932
-0.000320064
6.56547e-05
4.44186e-05
4.26359e-05
1.5529e-05
-3.49081e-05
9.30041e-05
-8.39733e-05
-9.68987e-05
-1.4931e-05
2.12972e-05
1.57388e-05
-2.07394e-05
0.000110115
-2.96764e-05
-0.000257815
-0.000474094
-0.000120155
9.46409e-05
4.71207e-05
-5.45062e-05
-0.000273175
-6.11217e-06
0.000333794
6.94484e-05
0.000165494
0.000417643
-1.3631e-05
-5.29363e-05
1.56222e-05
0.000216766
0.000291071
-1.93543e-05
7.69678e-05
1.0802e-05
-7.31255e-06
0.000202993
0.000160092
1.97686e-05
-1.45923e-05
7.68472e-05
-9.96434e-05
0.000131996
8.95819e-05
-8.18704e-05
0.000106758
1.08114e-05
-0.00023624
-2.13213e-05
-0.000504929
0.000480392
9.01916e-05
-8.67013e-05
1.96183e-05
2.2008e-05
-0.000108709
-1.143e-05
-1.51896e-05
8.50979e-06
3.38013e-05
0.000102099
-1.92457e-05
-1.13146e-05
2.00839e-05
1.25279e-05
2.04889e-05
-2.42834e-05
5.04241e-05
-9.6749e-05
-0.000195545
7.38575e-05
-0.000177956
-0.000236412
3.47413e-05
-0.000478229
0.000457933
-0.000287682
0.000320917
-9.99641e-05
0.00048431
8.86618e-05
2.10626e-05
-2.65404e-05
-6.72955e-06
9.62723e-05
-7.84051e-05
2.94297e-05
-0.000324334
-0.000136176
-0.000327613
-0.000402994
9.44856e-05
1.08439e-05
-1.58783e-05
3.29654e-05
-8.92943e-05
-0.00014599
8.54184e-05
0.000149866
-0.000284908
5.32308e-05
1.22759e-05
-4.99777e-05
4.6439e-05
-6.8737e-05
-6.16752e-05
-1.62313e-05
9.18189e-05
-0.000102904
7.5114e-05
-0.000389446
-5.89252e-05
-0.000138896
0.000118801
7.902e-05
-8.52936e-05
-0.000179481
-0.000479579
0.000123244
-0.00010542
2.08392e-05
6.49783e-05
-5.07735e-05
2.47326e-07
4.26594e-05
-0.000267518
-0.000354893
-0.000261652
-1.48361e-05
2.1539e-05
-1.53752e-05
8.6722e-06
3.01505e-05
3.07301e-05
-2.43433e-05
-6.98072e-05
-0.000152576
-6.878e-05
-8.51079e-05
6.45937e-05
-0.000134035
-6.83908e-05
6.39727e-05
-0.000100982
2.5647e-05
6.10326e-05
-3.10482e-05
-0.000108724
7.68405e-05
-0.000218767
-0.000134794
-0.000123396
-6.76994e-06
1.22617e-05
0.000113141
-0.000118633
6.10384e-05
0.000132032
-5.61585e-05
6.40798e-05
-0.000260415
-0.000338254
2.53243e-05
-5.61227e-05
-1.76741e-05
7.60204e-05
-4.79827e-05
-0.000280939
0.000220378
5.44494e-05
5.15151e-05
-0.000363247
0.000311732
1.80134e-05
1.76692e-05
-0.000132844
7.41688e-05
-0.000307005
9.01454e-05
4.43103e-05
1.50947e-05
4.51224e-06
-6.39173e-05
1.40718e-05
-2.32076e-05
0.000101794
-0.000344944
0.000248985
0.000136763
-0.000151053
-8.55145e-05
0.000321608
-0.000210294
-5.92894e-05
3.10586e-05
-6.36572e-06
-3.07462e-05
5.90132e-05
-4.65421e-05
1.82752e-05
8.49881e-05
-0.000106677
-0.000194466
-0.000206958
0.000145902
-0.00014223
0.000203286
5.56732e-05
-5.55744e-05
0.000168315
-6.78765e-05
-0.000556719
2.06334e-05
-2.7601e-05
2.67825e-05
1.10041e-06
-0.000247981
4.47598e-05
-2.81484e-05
3.89528e-05
0.000121548
-0.000233155
-0.000113443
0.000306057
-0.000210079
-9.32126e-05
5.42277e-05
1.39524e-05
-5.59041e-05
-8.31381e-06
-4.90045e-05
-1.14187e-05
-5.69396e-05
1.11063e-05
4.0271e-05
2.53831e-05
1.66072e-05
-0.000450446
0.000336233
-0.000181241
-1.65132e-05
-0.000285771
2.73318e-05
-2.44019e-05
-0.000115473
0.000194929
3.81768e-05
0.000123333
-0.000198179
3.66691e-05
7.18317e-05
5.36812e-05
-0.000183923
0.000152249
-0.000237999
0.000209889
-0.0001384
-9.37739e-05
1.44738e-05
1.39002e-05
-4.7351e-06
1.77929e-05
-2.23422e-05
2.25627e-05
0.000185569
-5.70242e-05
-4.8951e-05
5.83103e-05
-0.000255133
-0.000177392
0.000100984
-2.20903e-05
-1.96174e-05
2.14324e-05
-8.20651e-05
3.14804e-05
-1.54754e-05
-7.6582e-05
3.76875e-05
0.000208874
-9.25848e-05
-0.000116289
-3.52633e-05
-6.65404e-05
7.04609e-05
1.85188e-05
6.02331e-05
-1.97387e-05
-0.000104152
0.000252316
-7.423e-05
5.00196e-05
3.04231e-05
-6.99488e-05
-7.4764e-05
4.66282e-05
0.000241656
-1.52133e-06
-0.000306955
-7.26584e-05
-0.000344434
-0.000165397
1.54492e-05
1.0472e-05
-5.28779e-06
0.000102221
-4.85671e-05
-0.000246052
5.32805e-05
-4.52749e-05
-2.77178e-05
-0.000221502
3.53654e-05
1.13054e-05
-7.86948e-05
5.27236e-05
0.000104466
0.000356809
-0.000102486
-5.13599e-06
0.000122646
-0.000235941
-0.000118581
4.72127e-05
-2.35237e-05
-0.000248858
-0.000121336
-3.27807e-05
1.41967e-05
3.40331e-05
-0.000306406
0.000286626
0.000417222
-5.95988e-05
-8.33059e-05
8.67524e-05
5.61523e-05
-8.59716e-05
5.94988e-05
1.38575e-05
-4.51456e-05
6.17112e-05
0.00028166
0.000109385
-5.03737e-05
-0.000445341
0.000312344
1.79138e-05
4.09977e-06
0.000386846
-0.000407989
4.16726e-05
4.17769e-05
-0.000192906
-0.000129668
-9.52031e-05
6.23084e-05
-4.16248e-05
1.93161e-05
-1.0148e-06
1.15408e-05
7.09469e-05
-0.000191078
-6.67732e-05
-0.000154373
0.000165757
0.000103199
7.64565e-05
9.57456e-05
0.000324383
-0.000369049
-5.10799e-05
3.39298e-06
8.44093e-05
-4.06642e-05
-4.71382e-05
0.000336123
-3.33754e-05
-1.33186e-05
-0.000104223
5.57117e-05
7.06067e-05
-6.19098e-05
-7.10603e-05
6.23634e-05
2.59017e-07
-7.18202e-05
3.75566e-06
6.78056e-05
1.96214e-05
-6.23642e-05
-2.3445e-05
-3.13145e-05
-0.000157776
0.000211093
5.76324e-05
5.36739e-05
-5.10732e-05
-2.5833e-05
3.91382e-06
-3.84169e-05
3.10903e-05
-1.69489e-05
-8.56063e-05
2.049e-05
6.8116e-05
1.33826e-05
3.17568e-05
-5.71447e-05
8.52134e-05
-1.31625e-05
-2.49748e-05
-0.000106962
1.00365e-05
2.99723e-05
2.93603e-05
-4.52022e-05
1.5842e-05
0.000217733
0.000198496
2.82392e-06
-0.000110474
3.56369e-05
-3.17649e-05
4.27304e-05
4.00964e-06
-1.53758e-05
-0.000301971
0.000175123
0.000115151
-4.4197e-05
0.000150811
-7.67177e-05
-7.57403e-05
6.23981e-05
3.92305e-05
-5.13926e-06
-4.62707e-05
-8.96868e-05
0.000222562
-6.43347e-05
4.91601e-05
4.49346e-06
8.90262e-05
0.000233942
-2.25844e-05
-0.000208482
-3.65995e-06
-5.51244e-05
-0.000308928
3.63161e-05
-2.41517e-05
5.19889e-05
6.77719e-05
2.35737e-05
-0.000406881
1.5929e-06
0.000408881
-2.98168e-05
3.44649e-05
-4.03846e-05
0.000148533
0.000120552
-0.00010674
9.88425e-07
1.2145e-05
-8.17539e-06
9.20053e-06
-0.00019727
0.000125206
0.000178296
-0.000106232
2.09501e-05
-0.000151442
5.36107e-05
-2.33056e-05
0.000109862
6.30474e-05
-2.51861e-05
-0.000121709
-0.000176702
-0.000329059
-3.04209e-05
0.000231696
-0.000118118
-1.63547e-06
-5.31358e-05
5.5675e-05
-2.5392e-06
-5.28767e-05
0.00021978
-0.000316889
0.000190153
-9.3044e-05
5.97251e-05
-5.54509e-05
2.5742e-06
-5.18662e-06
-6.8273e-05
0.000345713
-3.67672e-05
-5.91467e-06
6.56397e-05
-3.11095e-05
-2.43414e-05
-7.73975e-05
5.13746e-05
2.60228e-05
-0.000154686
9.07843e-05
6.39014e-05
-2.99168e-05
5.40145e-06
2.8768e-05
-3.101e-05
4.48674e-05
1.45266e-05
-7.15769e-05
-8.57155e-06
6.56218e-05
0.000100253
-0.000197484
-0.000115313
7.07492e-05
-4.73584e-05
-4.10649e-05
-0.000130401
0.000152036
-2.16352e-05
4.42965e-05
2.92077e-05
5.61052e-06
-1.51159e-05
-1.8643e-05
0.000105159
-0.000204559
4.93632e-06
0.000123147
0.000249575
5.76815e-05
-0.000292986
-1.27392e-05
9.46475e-05
-3.03467e-05
-5.59811e-05
2.61917e-06
0.000110046
-9.49483e-05
-1.50977e-05
-8.04018e-05
-1.39312e-05
4.57658e-05
3.9043e-05
1.28044e-07
1.82684e-05
-8.59626e-05
9.89267e-05
-0.000114247
0.000137101
8.52456e-05
-0.000106295
-2.03552e-05
-5.59007e-05
-9.31142e-07
5.88794e-05
-2.04751e-06
0.000190792
-0.000192496
0.000266371
-0.000264667
-0.000190101
0.000250611
0.000176973
-0.000139771
8.21664e-05
-2.46493e-05
7.45179e-05
-7.03894e-06
-6.4086e-05
-6.13568e-05
-9.59771e-05
1.82051e-05
-4.0135e-05
-7.88028e-05
-4.774e-05
0.000129938
0.000243414
0.000228124
0.000414049
5.83129e-07
-3.09715e-05
2.94626e-05
-8.43843e-05
9.43471e-05
8.3124e-06
-3.43757e-05
0.000184556
-3.13726e-05
-0.000153183
0.000158506
-0.000104283
1.63838e-05
6.34803e-05
-4.63291e-05
-8.22809e-05
4.70873e-05
8.08932e-07
-4.82824e-05
5.58271e-05
6.74852e-05
0.000194982
-3.32538e-05
8.53661e-05
-6.49513e-05
-8.6821e-05
5.85206e-06
2.57235e-05
-0.000286515
-0.000184721
-8.86053e-05
3.70941e-05
-6.12807e-05
3.05071e-05
-3.20212e-05
1.3168e-05
9.86562e-05
2.23779e-05
6.9824e-06
-0.000301647
-0.000189422
-7.78599e-05
-1.59429e-06
5.90283e-05
9.13223e-05
-1.67139e-05
-0.000122087
6.6015e-05
-0.000243014
-0.000239969
2.86133e-05
3.91586e-05
1.27584e-06
-0.000315035
-0.000272111
0.000285499
-0.000185626
-1.55472e-06
-3.2122e-05
-0.00019524
2.57211e-06
-4.61334e-05
0.00013194
-0.000170911
-3.55662e-05
0.000106643
-7.40048e-05
4.20724e-05
-0.000119016
-0.000266102
0.000378124
-0.000108567
-3.62447e-05
-7.2412e-05
6.56421e-05
-8.45167e-05
1.21047e-05
1.61472e-06
-3.39416e-06
0.000207264
-0.000205485
6.76566e-05
-3.50923e-05
7.11483e-05
-6.91653e-05
-3.24593e-05
3.04762e-05
8.36207e-05
3.82388e-05
-8.2283e-05
-3.95765e-05
5.35075e-05
-3.7311e-05
-5.63958e-05
-7.95187e-05
-1.87365e-05
-6.46879e-05
-3.32365e-05
8.16895e-05
-6.10165e-05
-2.59416e-05
-0.000379751
-9.55821e-05
0.000353246
-2.5233e-05
0.000185034
-0.000208957
5.69054e-06
2.90436e-06
4.42205e-05
-4.50659e-05
7.19937e-05
-0.000578732
0.000340745
-0.000147798
0.000232883
-7.7606e-05
8.35991e-06
0.000127569
-7.72012e-05
-8.6838e-05
0.00016592
0.000226632
-0.000325951
0.000292504
0.000129193
-3.38104e-05
2.00123e-05
0.000485486
-5.53438e-05
1.09387e-06
-6.82481e-06
2.77941e-05
-1.29483e-05
8.25347e-07
-1.91797e-05
-1.62379e-05
-8.35293e-05
4.86927e-06
-4.50591e-05
-3.74162e-05
0.00019145
0.000167319
8.31936e-06
9.86167e-05
0.000116177
8.99164e-06
2.00177e-05
-3.58866e-05
-0.000184132
-1.11133e-05
5.30065e-09
-4.78979e-05
-0.00022489
0.000239944
-8.87991e-05
1.9752e-05
-6.96096e-05
-1.48303e-05
-9.2206e-06
8.38732e-05
0.000223732
0.000160674
-1.97163e-05
4.41602e-05
3.05611e-05
-8.14418e-05
4.97159e-05
-0.000133391
0.00011564
8.69041e-05
0.000170052
-0.000181896
0.00018717
0.000160887
-0.000160864
0.000150273
-5.0162e-05
5.55995e-05
6.75882e-05
-4.41626e-05
2.15443e-05
3.41913e-05
0.000188623
-6.7586e-06
2.26938e-05
4.92656e-05
-5.61429e-05
-7.96364e-05
0.000186073
0.000114208
-0.000220645
-3.72836e-05
3.36016e-05
3.27595e-05
-7.24422e-05
-2.84834e-05
6.06993e-05
-7.47652e-05
-0.000128189
-5.73582e-05
0.000133639
1.06681e-05
-1.30019e-05
2.77168e-05
1.90108e-05
3.50931e-05
5.0845e-05
2.90126e-05
-0.000160157
0.000171207
-0.000207862
2.66131e-06
-1.79306e-05
7.09405e-06
1.57659e-05
-0.000355211
0.000259495
-0.000129174
-1.53496e-05
-3.32986e-06
-7.33357e-05
0.000112135
-0.000119705
0.000298914
1.64696e-05
4.72172e-05
-0.000137663
-2.96381e-05
-3.7986e-06
0.000179617
0.000113828
-0.000118792
5.78277e-05
6.09644e-05
1.19904e-05
-1.52931e-05
1.16162e-05
3.67691e-06
-4.63163e-05
-0.000450424
0.000445919
-9.89583e-05
3.88755e-05
-2.61124e-05
-0.00015053
8.02839e-05
-3.33574e-05
0.000432867
0.000188091
-0.000286973
0.00024868
-7.95093e-05
5.82726e-05
-5.58652e-05
-2.1266e-05
1.95136e-05
1.42688e-05
-4.43428e-05
-8.01766e-05
-4.60823e-05
-0.000209725
-2.37647e-05
4.4296e-05
-6.75824e-05
-9.91618e-05
7.91113e-05
-5.4302e-05
1.07222e-05
-8.88786e-07
-1.96762e-05
1.85999e-05
1.07629e-06
-2.18491e-05
2.17293e-06
2.5543e-05
-2.77565e-05
2.21354e-06
3.69385e-06
-9.76322e-05
0.000114154
-1.65213e-05
-7.88199e-05
-1.88123e-05
0.000119658
0.000114447
5.21059e-06
1.98383e-05
0.000117938
-3.49058e-06
0.000132218
-1.42806e-05
2.11684e-05
-1.33005e-06
2.17861e-05
2.07713e-05
-3.73947e-06
-0.000206189
1.80771e-05
2.6942e-06
2.78405e-06
-2.3554e-05
0.000323796
0.000162227
0.000187869
-0.000244166
5.42695e-05
-1.77398e-06
-5.24955e-05
0.00014706
0.000318702
-0.000145759
0.000128357
2.54061e-05
2.03808e-05
-1.79928e-05
-1.7253e-05
2.85706e-05
8.45707e-05
-2.97642e-06
-0.000393791
-1.73426e-05
-1.36681e-05
5.41235e-05
-5.27139e-05
0.000162547
-0.00016558
3.03313e-06
-4.24247e-05
-9.5974e-05
7.36876e-06
1.66415e-05
-2.37343e-05
-8.61812e-05
5.85253e-05
5.551e-05
0.000162764
-2.16259e-07
0.000142567
-3.78086e-05
1.12348e-05
-4.71212e-05
0.000158241
-1.11814e-05
-0.00011571
-1.25105e-05
7.92695e-05
0.000196005
-0.000148201
-0.00015968
0.000126219
6.13698e-05
-6.49571e-05
3.42084e-05
-3.23294e-05
8.35875e-05
8.52159e-05
-0.000117651
0.000127429
-0.000131796
6.15034e-05
7.84697e-05
5.6902e-06
2.43102e-05
-0.000194713
0.000208733
0.000298728
0.000205456
-0.000168726
3.14588e-06
0.000166148
-7.90713e-06
-0.000212094
-1.69327e-05
0.000113025
-9.79832e-05
-0.000127329
-8.05384e-05
0.00011934
-0.000167763
-9.63305e-07
-0.000194647
-0.000196344
6.05667e-05
0.000365447
0.000114684
-4.90092e-05
-0.000204851
-0.000145614
-2.33588e-05
-0.000137618
2.96928e-06
-0.000151953
0.000145194
-4.28913e-05
0.000155916
8.34484e-05
-7.07058e-05
-4.38273e-06
3.33188e-05
-0.000405324