/*--------------------------------*- C++ -*----------------------------------*\
| =========                 |                                                 |
| \\      /  F ield         | OpenFOAM: The Open Source CFD Toolbox           |
|  \\    /   O peration     | Version:  v1912                                 |
|   \\  /    A nd           | Website:  www.openfoam.com                      |
|    \\/     M anipulation  |                                                 |
\*---------------------------------------------------------------------------*/
FoamFile
{
    version     2.0;
    format      ascii;
    class       volScalarField;
    location    "0.15";
    object      epsilon;
}
// * * * * * * * * * * * * * * * * * * * * * * * * * * * * * * * * * * * * * //

dimensions      [0 2 -3 0 0 0 0];


internalField   nonuniform List<scalar> 
5794
(
3.48547
2.82886
12.2505
2.72055
2.35238
2.54692
6.22399
0.444768
56.9868
4.53513
12.7688
1.01412
0.451133
1.10642
3.02071
1.17549
135.181
0.97748
3.29185
2.3539
85.3049
2.30649
1.52743
2.30576
2.21677
126.811
97.1044
2.7869
5.06724
8.53396
0.438441
5.51899
0.431741
1.67652
1.68625
0.988518
4.42107
2.19739
0.53073
21.7071
11.5048
1.30873
11.2248
4.35658
2.86552
0.554385
6.95254
0.34248
4.50845
20.6048
0.882233
1.88128
8.27691
2.80089
0.202886
3.80007
8.90462
0.776949
7.48614
277.635
63.6279
0.846786
0.42548
10.9558
0.396849
0.473606
31.5447
18.315
1.45927
1.27586
3.55863
31.6441
83.1005
3.2944
1.27165
2.8115
3.71444
85.1438
4.56368
0.532365
2.29514
2.03636
9.4553
0.39266
1.75107
2.89074
8.31335
9.82648
2.50211
1.11556
9.5412
2.92479
2.49232
6.61756
1.99811
1.80455
7.98941
2.18393
2.84768
71.5481
55.6745
3.22899
9.96626
1.9617
1.58129
0.965821
1.24242
0.898938
6.65486
5.07401
0.503034
2.90815
70.1191
0.360286
2.02362
3.55324
3.43013
1.59892
56.7557
22.0351
1.38345
3.04239
0.717755
3.10431
4.65035
75.2806
2.42798
2.87613
3.12145
3.35795
0.857946
0.395987
6.30022
75.9787
1.80199
2.94837
116.156
0.78365
0.402804
1.49199
41.8035
1.74768
3.89379
2.27823
0.67271
142.503
1.55053
61.4318
1.31459
1.7221
13.7337
1.7403
1.23697
1.41251
130.697
6.17026
0.437013
0.861638
0.743263
1.99011
4.60056
0.643849
1.3192
1.02248
2.27023
1.15083
1.72013
0.537089
0.653024
3.03786
3.9441
3.64532
1.13894
2.16055
2.15738
2.2785
4.65845
1.30373
2.12742
23.1252
0.472633
8.19702
0.404799
0.45815
0.491148
79.503
4.00205
0.717781
1.728
3.209
17.9372
5.64248
0.448647
0.436002
0.559578
1.14806
0.490025
1.0795
2.44353
8.96101
4.95259
3.01831
0.378845
0.592621
6.88629
0.45589
0.990646
1.22985
1.93746
46.8996
5.35205
10.0357
1.34383
0.629955
1.48584
1.56752
1.49555
4.4946
4.14451
30.4644
9.65109
1.27018
18.0759
3.72235
158.425
19.3609
17.6951
5.3477
1.92159
3.08277
0.734209
1.26731
1.38012
4.96571
1.58078
5.96596
3.88075
82.734
0.686547
1.58387
2.14474
2.42915
39.8815
2.9809
1.57415
0.456529
2.73052
1.08459
12.5804
2.88485
5.59002
0.504377
141.164
0.548454
4.74018
3.54896
10.9955
22.0961
1.42343
5.75592
101.873
1.66189
0.458328
0.320689
3.58607
0.594347
1.96203
100.159
4.58121
0.394001
7.13461
0.423631
2.5766
1.97873
16.284
3.39102
2.88047
27.2975
1.38704
0.637358
0.781461
9.7183
10.7341
1.51563
2.73481
4.46619
8.16637
4.06278
9.35773
2.24141
0.873488
1.53498
1.21873
2.01559
4.54314
84.0267
4.33471
2.47129
0.986242
0.330551
2.92746
56.9806
2.58159
39.6602
1.65209
91.4118
1.32837
1.68625
0.473354
6.07723
0.570931
7.05115
55.9706
0.348197
9.85352
35.7996
0.654391
2.1684
5.66085
1.72365
2.14698
6.24356
1.80602
1.47533
0.757517
0.668148
2.82812
1.05819
0.482397
6.43826
9.81892
10.6656
0.588694
0.586843
5.28849
2.70156
2.64746
0.967305
2.43323
0.795948
2.7208
2.08847
34.6026
1.93109
4.37225
0.431452
0.531204
12.0036
2.22847
2.86409
0.966884
87.5599
0.44549
6.53202
0.410887
52.2331
2.34047
1.60246
5.33965
0.456817
0.941711
1.41471
102.609
4.65111
0.390268
1.31079
1.39103
0.946598
8.88414
0.395016
0.942705
0.322593
1.04995
2.51437
0.587354
3.85617
6.78556
8.94091
1.45974
0.669526
18.1261
1.03081
12.5852
1.01243
1.30604
1.64771
14.7016
4.81488
0.498014
3.21736
0.66736
0.661128
1.57454
0.81727
1.14045
1.94241
1.70958
2.73402
5.59919
1.69224
2.09523
1.91863
24.9573
0.520175
1.34374
100.611
10.2106
2.07885
1.83891
9.4021
2.02608
3.39167
25.2036
4.23662
0.450391
7.76869
0.463011
2.21371
3.60577
7.86241
2.9582
2.15204
0.83065
0.934276
1.05849
1.44561
2.08767
0.380316
2.42087
2.40021
33.1713
5.80414
2.48842
98.7866
2.3913
3.74162
1.71102
0.457827
0.961598
0.845984
1.50005
8.13665
0.455976
0.5557
19.7038
4.46455
2.09913
0.346685
4.39534
67.5465
2.6002
1.91374
136.8
2.37558
1.86657
0.317868
9.20512
28.5
3.20124
8.36916
2.87501
1.55973
32.2205
0.532822
81.0076
4.04079
15.6672
5.18082
9.82482
4.18365
0.470245
2.92742
42.265
1.19569
4.52803
22.6832
15.497
2.17404
1.07038
1.60587
48.6013
2.94399
1.92472
1.29658
0.582641
8.83998
9.88366
16.0301
71.0764
2.35001
1.77552
2.22245
2.15101
1.10502
17.9612
1.00514
3.94909
0.9284
0.389355
95.2054
2.31257
8.73023
8.95635
0.774921
3.09895
1.72537
2.42229
37.7839
30.0421
0.397734
3.02969
1.24046
14.1581
0.321393
0.338546
2.00758
2.63013
0.321293
5.47858
22.991
1.86347
1.32625
3.02138
3.00153
6.61619
2.46457
1.46065
84.4997
1.99649
2.27726
30.0201
0.483379
14.3305
0.980405
1.03007
3.58647
6.64386
163.396
4.70562
86.4498
2.4709
123.309
2.36313
1.32009
1.62667
0.640429
5.40901
2.05498
0.345732
2.38663
2.74655
1.01471
4.05519
1.77794
2.76057
3.37662
25.1738
2.27433
2.12977
4.61002
212.84
3.59507
111.588
1.78002
1.3143
2.79629
1.20562
29.3625
2.96837
0.341242
92.7342
3.64824
20.3383
7.58593
32.5991
8.65088
3.85411
3.00167
1.83603
8.95339
2.37739
3.89712
6.45403
10.9519
9.44139
62.9921
0.409396
1.73684
4.33022
9.59221
0.371996
1.96885
0.722624
2.88608
3.47804
35.9995
0.454622
9.34345
0.356138
5.21341
1.86993
107.662
2.56789
3.37862
0.322753
9.76582
194.43
3.38772
0.261372
6.50484
5.75096
5.49962
2.7284
9.78947
0.384838
0.414482
88.9075
1.42616
12.1912
2.33557
1.33524
64.4263
78.8625
0.827833
1.04226
2.63204
2.19513
4.35548
3.06979
0.379659
2.23253
1.7737
0.625115
1.77744
1.3553
1.73866
93.5861
26.481
1.68339
2.68406
0.850942
16.0178
2.30304
4.70312
122.08
5.42854
4.15679
48.6917
1.35327
0.581384
2.8757
1.11747
1.23824
1.09242
0.610215
92.8645
34.1338
1.43012
39.0622
0.77399
0.966127
2.33248
2.88187
65.9127
1.71299
3.91088
7.99889
4.44774
8.51537
6.7007
79.9124
2.54505
23.7112
6.35689
1.48016
2.65664
4.36455
2.63423
2.86174
1.37152
1.90353
1.70284
1.15394
0.395961
1.74543
132.266
1.48663
0.839219
1.4684
0.329956
13.9024
8.46743
101.004
2.43195
1.78488
77.5853
0.678036
2.72871
2.09839
9.87099
2.91561
0.893031
0.499258
24.4969
4.34967
25.166
7.12074
1.49064
1.5227
4.69158
32.8388
9.77049
3.51335
1.04027
31.7922
16.2599
8.89499
59.7527
90.9412
15.718
1.43258
78.416
156.901
0.745738
2.62969
2.43835
16.6932
28.3927
3.97865
39.5171
2.12561
68.8876
8.97808
63.233
1.89074
13.5741
76.7735
8.45612
2.88041
2.3646
9.05081
2.46415
2.6935
8.21007
1.56411
3.9198
8.77358
29.3555
13.7999
9.00961
2.66936
0.979169
0.989441
0.319544
2.35344
3.07943
5.02357
7.313
1.99515
9.25419
4.5111
6.73426
2.19742
3.67278
6.6317
4.12544
8.45289
8.07373
3.37438
1.73553
4.15362
8.78459
3.73555
1.45387
1.21008
0.660657
2.27503
1.64003
1.84577
2.07666
0.672142
43.9305
20.6214
2.65769
1.63532
2.29676
6.71419
0.761608
2.52343
4.11726
0.513239
9.34104
1.06813
19.1058
0.780544
7.82107
1.93724
185.64
2.37758
78.6858
9.33693
0.711088
22.5026
0.625725
2.51349
1.85216
0.824386
2.00862
91.7259
9.30545
2.66708
33.3539
2.01242
38.1548
27.8869
0.722899
1.2154
1.0043
2.93152
2.10933
2.25063
22.2914
58.2941
15.9696
0.358202
17.552
1.64927
1.2602
1.50504
4.46482
1.78923
9.34517
9.37295
0.785636
0.868796
1.33188
0.685853
89.254
1.55885
3.30338
6.23647
1.32396
15.2916
1.30315
25.632
0.336695
43.6831
6.41433
10.7495
8.32994
2.75491
3.8214
5.58096
9.85324
102.967
67.3702
22.4972
34.0358
0.337204
0.65375
4.91539
2.66853
3.10736
1.07331
12.1567
4.43657
119.085
15.1354
0.785574
0.893999
0.526474
14.1747
109.474
1.95846
347.486
1.53151
1.09578
78.4784
18.6828
6.23236
1.42962
2.09924
2.24741
11.9836
0.531873
1.02954
56.2252
87.4354
5.63285
10.1097
61.8603
54.2674
3.25148
5.70754
43.8397
29.0617
1.91125
2.14142
1.59748
3.23922
0.353457
1.17195
1.44252
1.88494
55.4564
0.903496
7.39005
0.39489
51.8311
21.6473
5.46292
7.82444
7.60575
6.77613
17.6955
2.04352
2.64076
6.33243
0.463611
18.1156
27.548
59.7729
7.1596
8.02712
7.78411
4.75111
3.13989
9.83183
8.24456
2.07826
2.40394
4.29001
4.28579
3.00623
74.2051
2.49149
0.623514
7.93554
2.99519
2.18267
1.86637
13.6611
1.95067
2.12631
1.1799
0.340646
2.99889
1.02861
175.279
6.98378
0.973258
97.4391
1.79503
2.49908
5.27552
19.2515
10.0466
3.96305
23.077
83.2846
1.67839
3.78084
0.681077
0.520178
0.452787
0.66042
0.673572
9.5025
0.362835
0.353645
1.43895
0.71475
7.99188
0.744046
5.40324
1.34719
0.37064
87.572
9.72099
2.11584
2.82362
0.842889
0.551964
2.94879
4.70933
95.5288
0.580407
45.3771
34.8346
0.630456
10.0034
24.0478
0.39014
9.23604
91.4649
21.6251
4.30951
89.8148
0.33302
11.0688
29.2816
1.6282
30.2929
46.3792
1.92526
9.72288
2.74058
1.61355
0.426448
0.708842
20.297
32.8693
41.3631
24.753
8.63143
0.544783
2.77075
9.31731
8.69174
3.4186
65.7793
1.10288
2.37111
1.69249
46.5611
11.1013
2.8864
4.52154
3.54113
4.41242
4.85243
10.2363
0.65043
1.69514
2.51922
1.77933
2.41007
10.4975
1.11912
8.21422
35.5624
0.331236
1.41074
0.667416
5.27767
0.631766
0.335459
1.01051
0.644002
10.3874
0.587234
0.908887
4.49601
11.1617
0.503386
0.887365
5.30271
0.335612
53.7891
15.0662
1.74447
1.38546
14.056
0.535328
0.431763
10.3771
0.753469
0.541283
1.72235
1.54559
0.900838
37.1386
30.5467
9.55903
3.33414
3.28965
0.641123
0.767472
10.1843
1.07506
10
1.0384
0.792892
27.1294
0.472055
2.11568
1.56807
53.9546
1.42014
7.27574
51.2114
0.625583
35.5899
49.1758
0.387413
4.60135
2.0283
29.9655
33.1441
0.52502
37.6011
0.61999
0.593649
17.7529
1.58423
2.52254
5.83457
0.572591
2.65572
4.34627
170.519
1.32695
1.41799
1.32758
4.51482
0.830688
19.3233
0.600134
28.1338
7.41928
19.2854
6.3904
2.72281
0.588899
0.618259
2.97613
7.26747
1.23925
6.79652
8.43831
45.643
102.864
27.0398
9.12036
9.27759
9.09162
5.2994
0.491723
0.668645
0.335556
761.703
40.036
0.32904
0.822783
50.1798
44.0623
8.42814
2.27921
1.12041
2.72191
35.619
0.409879
5.30589
5.72847
11.1288
1.61339
44.7413
3.6702
0.351249
5.67953
17.1066
0.918097
31.0318
1.76374
55.4418
2.36831
6.16625
1.26293
0.700705
4.38166
25.5392
9.25993
17.8285
11.3376
4.65836
1.20342
47.3674
1.80613
11.3208
5.42444
1.63266
2.04161
50.3537
1.89686
70.0987
0.63761
7.74282
7.48292
4.85538
11.7056
7.83038
0.667382
2.06609
11.1283
31.331
0.340044
0.818063
0.537867
171.658
0.325235
0.793923
7.81051
1.47412
1.73058
41.4418
1.48346
7.55595
2.77135
1.08364
5.04738
14.1748
13.4808
1.36974
0.73438
0.541269
0.448034
58.3898
1.27684
5.79609
8.62731
0.641907
0.843309
0.363283
17.0145
0.375703
0.354374
17.0225
34.1189
1.14018
0.555861
2.78669
1.91332
31.517
4.11016
9.21514
0.575268
0.494897
0.730607
5.60325
1.67987
64.1146
0.57024
0.371319
52.6474
9.9952
0.741766
0.342321
13.1076
87.531
0.946455
0.452906
2.62852
1.82662
2.41228
8.26019
6.05429
2.92836
0.336834
2.08328
9.12003
30.6835
8.19392
6.66866
87.6358
4.41928
1.52004
2.14409
0.934195
15.5819
7.81896
2.35233
32.9132
2.95942
27.2366
15.0915
6.33906
5.63202
1.35992
5.73836
0.403049
27.3888
15.6731
4.7825
7.33494
5.62521
10.1729
26.1087
1.73008
0.4876
0.720552
7.41182
16.5111
0.713979
26.6193
93.2645
9.3621
52.8747
59.7808
2.16864
0.697746
25.6125
1.81893
54.6184
26.9037
0.990431
1.24715
0.505264
2.55066
0.947903
8.09464
1.11123
3.25627
0.799592
1.60234
1.58784
27.9591
4.27965
30.7802
15.5948
46.8411
8.87113
0.540997
9.5518
0.975403
14.2549
1.23125
36.9305
0.554062
16.5677
0.47355
4.09168
11.1966
6.17153
15.0463
10.8744
1.69882
0.361696
13.4018
1.64266
1.95548
5.58365
1.22734
0.350266
5.48038
39.0666
0.384878
31.9104
4.32152
0.429103
0.504475
3.40788
2.07252
0.57706
7.61299
16.0457
56.798
2.54658
0.339613
20.5104
0.922394
1.06002
18.3341
0.713122
68.0628
1.24436
2.02011
1.83705
7.7439
352.761
11.3909
1.79772
10.1693
8.43428
104.031
43.6668
1.02456
0.590674
0.735794
0.528248
0.402974
1.58652
1.30834
0.469223
2.55552
0.419234
0.561517
10.762
9.26374
0.493793
0.908801
0.389398
1.91403
1.5142
1.68915
8.77856
3.21031
1.26704
1.72856
0.565487
0.433884
5.86514
57.8813
4.25828
0.408955
0.446661
7.93376
18.4017
0.579988
0.721439
0.888837
0.484224
0.500675
1.07361
0.572103
0.369175
0.968705
0.487857
39.0875
6.86913
1.38498
0.408006
5.87227
0.92045
2.64162
34.3645
60.7095
2.37212
1.318
0.339436
25.6284
1.24408
55.1005
1.31902
165.451
4.96748
103.932
33.4217
0.749917
0.720646
0.361559
13.3387
3.36051
8.40127
0.561783
10.16
4.03249
2.58215
14.4592
2.50283
37.8436
3.89096
9.08601
233.982
0.812882
9.09256
2.17622
14.596
1.54215
81.221
152.288
1.25801
71.0442
3.64477
21.9869
0.425011
1.71161
11.499
13.9057
646.002
0.665643
1.86593
1.8962
0.878104
2.31728
2.98896
99.925
1.10034
0.458088
0.434707
1.50135
1.23304
0.482569
1.83595
0.387588
0.464605
0.516273
0.371901
6.86012
28.2993
0.470292
5.5677
1.77224
9.3022
5.84003
1.32737
1.47311
0.593207
0.660487
1.02773
0.86175
32.0808
50.9611
0.4565
24.1586
15.9956
13.9162
1.99073
0.328046
100.055
1.55078
1.34563
66.3436
3.32481
28.6731
0.656363
3.41916
81.0692
1.48259
10.5717
98.4484
2.84851
0.335406
1.3508
62.3736
1.42865
1.18688
24.7792
112.206
1.94223
1.29991
0.440153
1.10711
0.995598
1.03265
3.23629
1.18512
42.2573
0.399062
18.6015
4.19343
0.349647
0.458437
1.17454
0.653747
0.95023
0.556617
0.642605
36.5871
10.7413
2.19497
24.6831
7.7854
5.69514
7.78465
0.665629
9.16774
22.1094
0.79631
60.7325
4.13188
0.605388
2.25685
21.9908
1.5364
10.2564
0.615259
0.346108
28.467
27.2284
0.333372
1.02551
2.62295
0.499281
5.54316
29.5857
35.0457
12.4836
1.11288
33.9174
0.342886
1.66505
4.68705
2.30328
1.78618
3.52806
0.646073
16.9238
0.345671
6.18784
2.487
1.0453
8.98327
1.01671
1.10709
1.71839
1.92082
0.447817
0.413707
0.915288
27.2396
1.22941
1.91539
15.7478
3.71518
41.5455
2.84893
57.24
70.5075
74.7701
21.6299
1.5918
2.08425
32.8502
2.05893
44.7897
29.1522
116.502
2.91485
52.4347
34.2597
28.0994
0.383946
1.79941
2.5886
53.946
0.799498
4.1634
18.2435
112.796
1.85835
5.39997
51.2564
14.2302
2.502
7.07556
0.714649
0.415817
7.39715
56.8718
1.11926
0.353307
7.37548
0.944111
0.867272
12.6543
9.56779
0.765283
11.3177
1.02294
0.907897
0.717702
0.772018
9.43043
6.27448
0.858896
7.97231
0.777396
0.944786
0.814423
0.409115
0.384876
2.01991
24.8392
0.456224
1.49021
1.0278
0.654777
0.640955
3.25898
3.93087
1.84029
3.25234
1.68949
0.922009
14.8058
2.2039
12.9839
20.4665
0.886092
1.0857
0.681999
20.2847
6.80944
37.5346
105.143
28.8983
16.9853
0.913258
32.2594
0.925872
14.2479
1.39832
30.733
1.08734
0.597698
33.676
1.80482
0.530806
1.1008
0.473169
2.65291
83.5919
4.01051
4.50963
9.63127
0.837854
59.9913
2.12582
2.32158
85.7122
3.86961
6.82871
3.24815
1.85588
4.63041
7.43179
0.851634
98.5221
2.83433
0.997763
70.5191
4.26314
7.91424
5.92316
3.70781
3.64417
14.8188
0.798689
95.0265
3.00838
1.05566
0.942825
5.90876
11.6805
2.02308
0.718128
4.30286
0.611929
2.61161
88.4571
8.68813
4.62705
5.3261
6.29837
1.46964
2.52615
1.88367
98.3409
0.77241
84.0868
2.00114
1.54138
1.9181
9.127
81.4317
4.00365
115.076
9.25076
22.4725
1.41268
1.86457
3.9764
0.392726
0.367879
23.2729
17.2252
26.3427
20.5756
47.6708
16.1908
23.5431
26.1028
33.1335
2.0091
0.88868
161.201
1.38643
5.97886
0.352407
5.4169
39.7009
20.3646
15.7934
1.77045
33.4853
1.30574
16.0693
4.89778
36.3775
0.546533
15.7372
3.3438
1.42255
1.07462
1.66835
3.14405
4.82738
35.5918
41.2531
2.45395
1.74332
54.0312
45.7944
14.2384
16.2568
0.605868
0.35857
28.1521
0.394461
12.5677
2.73609
0.552142
13.9844
2.63888
1.85456
55.1254
2.60386
1.17459
1.04848
116.635
34.4889
12.812
28.0599
1.22183
11.298
2.0497
2.21331
32.6098
8.33288
8.46064
1.02519
3.81502
2.43062
1.16844
1.79421
22.6421
7.30234
2.61457
18.7696
1.71521
3.10885
1.36794
1.23235
8.80811
9.82909
10.6116
1.86464
1.43288
9.51433
3.73083
9.83569
0.530369
12.9334
0.366453
6.1222
0.723651
0.944427
23.0187
0.354571
0.472049
2.69661
0.595976
11.2996
2.61563
1.88395
3.42019
34.4201
3.64423
0.406945
2.45853
72.8947
1.43132
1.72444
1.12423
1.39944
0.54173
0.899686
34.8098
42.9185
1.54082
1.82314
0.960169
2.4414
6.22145
0.52283
0.402411
2.91112
4.46286
0.516656
1.28723
0.505845
5.70216
0.412306
0.48632
1.37135
21.7639
0.414708
1.67
59.324
4.91556
0.919079
14.4314
39.8773
18.0139
1.25887
0.939513
2.87921
9.60535
2.61759
2.36613
3.82628
0.950863
0.708071
1.23228
6.63877
0.419512
0.572487
0.981089
11.617
2.9045
1.90596
60.7441
0.604683
38.8276
21.8009
6.7514
7.63146
0.38684
1.22629
4.64354
1.22033
2.08991
2.56149
1.50568
0.799376
0.547775
1.42045
26.4705
2.75776
0.625375
54.6072
5.63781
1.32461
4.76192
3.13734
1.9972
5.31769
5.69134
7.37936
6.76016
1.46885
0.862698
6.86742
3.90292
0.912144
0.54891
6.665
0.400743
0.660218
21.5759
1.44552
0.596715
1.3121
50.8424
46.4116
46.2641
7.0271
2.6932
91.958
30.2073
0.433838
25.5882
9.06017
56.0908
17.5003
4.76743
15.0483
22.6058
2.95793
1.6889
1.77563
1.92231
0.924778
5.87789
5.32613
14.9159
2.31572
1.8333
31.505
1.51893
4.33253
13.2298
91.9292
71.1576
75.5732
5.46407
8.53836
1.05421
8.21405
0.504847
0.841841
2.39546
2.11727
1.91953
3.02201
21.172
19.0122
49.0871
0.913729
44.987
7.02218
3.73783
81.619
0.369369
37.7322
11.5207
0.65612
2.12558
28.3989
31.9584
50.0058
51.9046
17.2941
3.4006
2.03347
1.76303
0.382501
2.64597
11.3723
2.18954
0.826913
2.02402
1.0228
4.05943
16.1191
41.6612
2.20225
0.89612
1.84794
4.51796
1.78487
4.78795
2.03698
1.28959
53.5379
2.32493
2.09284
105.79
16.4232
7.38005
8.81634
0.802237
2.48839
31.7705
26.0065
25.0405
91.4466
1.40305
6.80558
0.492737
0.769974
1.33843
1.76184
1.63826
39.1541
3.99738
2.64252
0.807727
4.35353
6.14938
5.45354
29.4625
4.5724
3.61032
4.1328
3.58662
69.4071
6.13909
20.1444
45.5903
11.3401
0.89787
83.3664
7.11737
4.34405
31.3234
1.13646
42.4889
6.26801
3.42611
3.00397
81.8797
30.0238
5.49463
0.60649
0.367417
122.76
43.398
1.63381
73.4941
0.40944
0.428325
8.4786
6.67134
13.9845
19.2353
0.657372
6.80363
1.58435
1.15191
13.8213
15.9558
27.2539
0.940298
2.61811
4.5049
1.42978
16.9869
1.82127
18.5215
49.0386
8.03707
4.49596
38.6786
0.341698
14.2593
7.61034
1.26543
35.4207
5.84057
58.6866
16.8774
5.00051
9.97179
1.31059
18.5734
45.4872
29.0558
5.61228
0.430822
1.85782
31.9583
23.1573
1.98723
1.48341
5.67791
2.46323
7.5806
49.9193
29.5079
21.5993
51.1646
44.4419
2.28847
1.80242
16.8478
2.76574
1.15792
0.620541
18.3826
5.24353
6.52675
33.1252
5.91877
6.73965
5.36014
46.5619
2.16417
2.24369
3.30558
4.70594
7.14484
9.36355
0.726805
0.888394
3.28403
7.98642
4.65813
36.5611
0.334433
19.76
24.5757
105.398
25.5407
1.62837
0.614366
1.84887
0.794653
30.7666
13.2909
7.58624
2.34802
2.7271
1.22795
5.63481
44.6656
2.23731
98.4972
4.77529
3.55292
1.07101
2.25512
23.1015
1.61001
27.3978
2.59634
20.6621
44.5814
30.6
4.30764
4.4008
0.763166
1.41615
14.7957
3.58453
1.79911
37.4438
2.76476
31.5836
4.41053
43.5222
3.81862
31.055
33.2495
31.8793
1.99902
0.349687
0.820734
6.98908
30.3327
19.7719
35.7938
411.506
0.938219
7.74285
4.5611
3.61238
1.6435
57.5762
4.21359
1.06313
0.345848
20.373
1.32464
0.950275
1.21068
0.629268
1.373
14.6045
28.8376
84.6252
4.79472
38.9747
19.2792
8.30614
1.17533
626.116
5.17261
2.28174
1.0621
18.3407
2.5836
2.22345
42.8706
28.8921
1.1691
64.7966
1.38937
1.37059
3.85788
0.341965
6.28098
0.737767
0.707553
1.14945
51.8244
6.87697
6.32235
37.5204
13.5762
3.06953
50.7686
0.390949
22.8021
2.34737
0.908761
2.03
1.33073
0.837316
108.305
2.23259
3.68832
18.612
6.87876
25.3473
63.438
20.1892
0.691405
29.3039
1.87211
0.349788
15.9045
58.9785
1.1463
0.72759
1.04853
1.88779
20.5995
1.01173
14.181
14.2494
5.64531
47.7648
19.3045
2.28883
1.28065
2.08251
25.1362
3.4049
23.858
2.08012
9.32925
5.72573
29.0624
16.3032
15.2896
0.520116
2.8531
0.72396
0.63465
3.8806
11.5016
2.41672
23.0766
1.39154
18.2511
0.329295
10.0225
18.9503
0.976987
14.8417
2.35367
4.18155
1.06411
2.23448
13.7244
10.1607
8.93391
31.08
0.649504
0.753409
9.74469
16.5829
9.41679
0.698403
20.664
28.6777
1.50945
13.3732
62.192
5.31239
3.36355
1.90606
7.48946
2.18122
2.26248
2.38056
40.6825
2.54613
17.8587
13.7918
16.026
3.23078
2.2093
2.71444
6.26542
2.06651
5.504
9.35745
1.09073
2.07786
1.16359
7.55864
0.702416
0.809583
1.46448
0.784389
29.004
89.5083
1.40289
2.57973
28.4217
5.871
5.76192
4.76067
3.22802
12.9607
0.665674
1.89046
49.886
1.46228
11.5873
10.5783
0.985975
0.864351
59.6164
34.5597
7.20434
106.216
35.3279
37.7266
11.2954
3.19714
1.21064
0.696597
19.6891
0.35462
1.43208
71.9464
7.30458
11.9473
0.739901
0.39191
16.13
0.788973
0.345894
1.94582
2.3978
11.1038
2.60378
35.5655
7.95733
4.10028
27.5531
11.7514
1.24937
14.8554
89.7332
1.37671
2.01521
1.63825
5.26936
1.87071
42.7297
105.438
2.88377
6.36545
0.765945
5.80319
0.624174
32.7864
6.88323
4.62571
57.941
0.347231
3.8258
2.92739
56.3243
1.03976
7.00526
4.0651
1.59435
67.6203
49.7785
2.84918
2.04602
0.963093
0.749369
11.0136
80.2449
110.627
0.346586
75.863
4.38162
2.69509
1.40889
3.17859
8.88644
31.0678
5.48298
0.822075
0.702404
0.727393
42.153
0.726533
0.509429
0.536823
2.03183
0.676575
0.36004
11.4498
12.0725
5.92822
7.4954
43.8226
0.681345
1.1349
6.29635
6.82083
2.20129
1.11473
2.79472
1.21841
0.665159
3.26939
1.27957
1.52252
1.62382
70.3255
0.775381
0.615764
6.36728
6.49312
19.8981
9.90522
6.65153
8.73967
0.914068
0.767283
4.98844
0.379086
4.29687
4.14972
1.14868
3.83026
0.337332
2.23023
0.361144
26.4282
1.58132
14.9199
3.73206
2.98494
12.9941
0.888289
1.44108
27.0277
1.93738
2.21499
13.0018
3.39063
9.04225
0.404705
6.83418
0.60587
10.7952
7.69714
59.7066
78.943
142.993
1.33833
2.24771
0.841874
0.937058
26.2165
1.75629
5.00659
1.59433
2.61528
40.6213
1.36199
27.3952
2.06511
1.21654
10.0501
0.845582
2.89676
0.896567
4.44318
35.8349
0.434543
1.49114
0.922674
1.15009
4.12512
1.1314
7.87831
6.46609
80.7869
1.96771
1.82534
6.05615
8.08016
33.224
3.09545
2.24002
1.86237
0.977084
10.5931
10.5388
7.24327
11.8069
0.539934
43.4651
1.92765
0.441772
9.26024
7.38555
1.52768
29.6412
0.46306
0.970488
1.07902
0.364146
3.59503
0.740191
0.937836
0.966146
8.69839
6.98108
2.05844
2.17541
1.17779
2.27979
13.6843
6.80739
0.958674
6.99401
8.45303
57.2369
40.2731
3.11969
111.675
1.51685
2.17594
5.63589
36.1627
32.6245
0.887142
0.592857
1.21157
0.916223
0.600613
7.65493
4.23541
115.141
0.458568
0.795821
1.34078
29.5665
14.1215
1.11025
0.993552
0.343045
103.221
13.2964
0.853811
2.01094
2.43672
8.84898
0.592494
23.2993
10.7911
0.347368
34.8677
8.74334
1.81095
34.9155
1.86401
0.806728
0.780168
18.3125
2.53169
1.60528
2.3376
0.48629
79.2252
32.4417
26.879
2.19726
0.78565
20.7273
3.92054
11.1673
0.536627
1.20223
0.355637
25.9751
27.6604
7.47632
1.51631
2.94516
1.35524
82.1176
29.8099
1.99154
26.0264
53.4808
94.5337
46.9712
1.53658
27.2139
4.00793
3.86508
1.05749
0.704592
5.74089
1.2565
0.664018
3.65675
1.66003
25.6201
3.91197
3.54722
1.74243
2.80404
30.6272
0.767446
0.431007
1.25129
13.096
15.1074
18.5387
0.960592
1.67578
10.0836
0.975594
0.671125
0.737403
1.06592
0.818037
1.14659
1.57199
4.40958
13.2212
7.87662
4.38558
7.82281
8.11375
5.36526
3.93747
26.378
3.87996
12.368
11.8094
22.0327
11.2912
1.07268
0.795605
0.966689
4.25516
10.6083
2.64097
1.93272
1.13318
2.7943
98.2762
39.8157
37.2761
36.8227
14.7318
23.5079
29.8518
5.43395
8.47692
13.932
0.8885
1.56289
185.59
3.83136
0.507336
1.12282
0.678189
27.3636
51.5402
8.66103
18.769
1.69399
3.77464
6.75129
2.06793
0.972711
0.480347
4.36759
0.719817
1.23542
7.31385
3.01729
35.3731
1.34202
0.613302
2.24626
1.17616
25.1434
29.4287
11.1347
0.337603
0.68213
0.768121
0.875853
3.11832
3.80631
10.4705
1.73402
0.576638
66.4694
11.6232
5.78891
1.06332
10.4768
0.747331
1.56597
2.10096
1.03238
23.889
31.4912
0.397208
18.233
0.373145
1.85191
2.77308
9.6424
5.31922
2.85203
48.8504
1.29871
4.60448
0.964348
0.64368
2.35245
0.562187
26.2541
28.0312
8.56133
1.32967
37.8266
1.75777
0.625889
3.47836
0.742472
33.1707
66.549
0.480317
0.662766
54.8979
4.36019
2.62457
11.1387
46.0895
2.46261
1.32934
0.877042
0.527595
1.50042
4.04857
29.514
1.71711
28.217
0.3705
1.82301
2.66129
34.5766
0.90831
0.45336
0.802876
4.30971
17.9545
67.7105
4.9242
0.773228
0.824617
1.67384
69.3034
7.89636
7.92746
2.61876
3.09578
47.3977
2.72498
21.2403
6.50987
0.665922
3.39436
1.33672
11.2008
0.732077
0.775261
4.1236
2.88015
2.30127
0.516296
1.41296
0.930949
2.67799
12.9654
27.9
6.59475
3.04295
8.70282
0.793775
3.94197
2.42089
14.3958
19.4514
1.27555
59.8762
0.57254
44.8698
68.1911
1.75003
9.85877
2.21311
6.55614
2.63198
1.45302
1.35149
40.1921
3.24327
60.2068
16.0726
22.2173
33.9386
1.56341
28.4824
17.3275
5.1756
13.0951
22.3252
3.87695
14.2647
6.56026
3.20399
48.2385
3.9767
8.0815
1.11921
1.59469
2.37239
0.850604
4.34632
7.0879
28.233
30.7633
2.04332
0.741263
0.862826
2.08882
13.3662
0.725722
0.687895
13.0553
0.936207
29.4162
18.2552
1.14078
126.624
3.02563
3.18947
1.86216
17.4427
0.430231
48.2813
20.2345
1.60201
44.8006
41.0489
31.9566
1.50364
0.572423
0.697631
1.21889
0.611794
6.34348
9.73386
15.136
2.21043
14.3245
9.78179
34.1967
2.15438
1.03512
7.65479
1.20211
1.91218
3.31579
12.9564
96.2335
42.2368
1.97087
3.76885
3.09048
3.31975
44.5501
42.9771
3.07019
0.370572
0.739219
2.92783
29.1562
94.1858
1.61911
1.93405
1.44093
78.9136
4.91413
23.4332
15.493
10.8094
1.05887
46.9203
0.573774
2.29716
0.725072
54.9802
2.36854
92.8172
0.339388
2.16852
2.26098
17.0561
2.21533
0.559373
1.30446
37.5685
46.4118
23.2453
5.42325
1.20291
1.87356
38.1195
3.42189
4.02277
59.4938
192.867
32.7227
1.0087
5.43405
5.14921
1.02858
0.918953
8.54857
1.67222
2.14136
7.11205
1.68053
7.13403
0.997187
10.2441
2.31662
0.570116
10.6357
2.90021
16.7123
0.590143
32.6602
1.07312
3.91705
5.06069
2.0541
16.3108
54.7911
4.74906
1.51878
3.63458
26.8537
2.43774
0.341094
104.61
4.90171
2.90294
1.68604
1.34263
3.2118
3.40129
3.4373
1.25425
2.31422
0.681412
66.1927
0.461495
2.43513
0.691538
1.03976
0.666438
2.8191
150.256
1.29225
0.711897
26.9799
1.1687
1.04408
1.59039
1.7889
0.422183
13.0213
0.697897
7.50553
1.52946
5.79616
0.65711
1.81164
1.50533
4.35309
0.928199
99.2037
44.5577
48.443
4.1113
1.09762
1.44891
14.4228
0.778449
4.93146
105.098
1.60626
13.9625
149.474
10.3424
4.63073
1.43296
0.321342
0.696319
0.673916
2.52498
0.861272
33.5669
21.5762
1.10252
6.25995
5.80813
26.4584
0.820191
26.5662
6.39653
3.67502
1.34487
6.85719
0.735589
0.72809
0.412388
1.10432
0.993895
7.98984
1.91056
139.74
16.827
34.2304
5.4658
5.53748
49.9012
0.814912
1.93426
4.19607
10.5553
3.27551
3.17291
1.16052
1.45825
3.34087
5.74868
6.83743
2.13727
1.09412
47.5383
2.581
2.43426
0.824697
2.34382
8.56619
20.4669
3.7229
6.05219
4.24459
8.53404
1.40461
1.28587
24.4417
1.02208
1.39729
4.74717
1.46972
1.53354
0.68396
0.898501
0.525944
41.6696
0.622769
2.80967
1.56625
95.356
31.2656
37.1641
0.531147
40.4568
0.573387
46.7303
35.17
27.8819
31.9401
2.47608
0.775851
1.01208
2.86515
1.71623
34.9425
0.339112
0.597822
0.357147
13.9881
7.34835
17.2139
2.14934
1.93365
3.55199
2.73222
0.92952
25.8582
0.476052
1.33867
26.0077
25.534
5.99804
0.815604
0.548293
5.57128
0.437199
0.404825
1.73433
0.549027
1.04331
2.45905
1.24855
81.8128
1.58691
1.57971
27.6128
1.54411
34.8612
29.7858
4.01615
26.5568
1.70319
2.79841
2.05234
0.708951
1.4419
30.7773
6.39741
32.8518
1.67343
8.33929
0.53419
0.369731
3.62202
5.52503
10.9644
4.38671
13.1217
9.14245
2.40806
0.401008
3.46632
0.830105
0.688965
6.69757
0.355315
8.73109
4.04155
3.9742
2.96718
34.7627
3.10497
66.5663
46.5456
16.474
3.40178
1.67131
1.06703
1.07518
7.37169
6.95697
0.563047
2.73712
8.13137
101.131
2.45701
14.562
1.62589
2.75955
4.50994
3.91366
2.03369
22.9846
9.68538
14.3503
0.575951
18.2055
0.419311
1.6881
0.757126
0.849881
1.23279
21.1035
33.8672
1.07607
10.6546
1.28756
9.93661
2.15716
0.458897
6.19025
13.1682
728.764
12.3061
18.5025
3.46651
5.03704
6.08218
0.414738
19.9864
1.61831
0.611074
0.461478
0.888768
1.71073
48.9779
1.52869
11.5943
1.31247
0.7964
1.4839
1.56198
6.37104
1.28421
393.399
54.3468
11.0463
0.363417
25.4458
62.5125
19.7478
0.482048
1.62137
2.00017
12.1789
5.67313
0.862486
4.60293
19.7739
0.969675
7.84713
1.23045
3.71634
10.0491
5.20226
0.580232
5.47595
108.388
2.46395
30.6059
3.30952
2.73356
2.61797
1.75311
0.36867
0.456601
5.14123
4.69151
69.8045
0.672417
1.47264
0.413838
0.482818
94.9284
0.671495
0.966373
38.5101
2.22937
4.60222
5.36176
0.742605
1.96144
0.611896
1.13271
13.5524
2.86976
43.7094
1.18457
3.35446
3.53627
0.744293
42.2707
17.6419
8.65135
1.88004
3.73504
0.387603
0.491677
0.923675
0.614861
1.38381
0.376823
3.17239
0.688398
3.94252
26.5565
7.05518
79.9118
2.32157
0.782391
1.40535
1.13557
3.1182
2.13284
0.666156
0.33961
1.51443
1.90959
0.721872
4.40321
75.3323
3.05553
0.755181
145.665
47.1372
5.92899
9.80348
0.772806
2.13508
1.76579
6.79123
24.6708
1.6692
1.5139
7.02151
0.773697
1.23379
5.57127
69.5936
1.28371
2.57193
0.379108
0.48381
0.755428
2.60509
0.482249
0.648554
5.59448
6.36531
2.60633
10.4767
3.1878
2.83141
42.8691
7.99749
0.535141
195.845
0.71518
0.717977
25.7782
14.6691
2.20837
2.50328
13.7446
1.18697
58.1368
1.81688
5.71941
8.36835
94.9375
12.5048
1.71946
0.603772
4.67041
112.25
14.8949
2.04222
3.39183
0.903888
2.03917
1.59586
0.91184
20.5277
61.1948
1.95022
1.14458
7.94401
0.936841
0.34087
1.19879
0.649816
3.24825
6.63769
14.1193
16.6884
13.8386
5.20401
25.3532
20.0794
42.0991
0.639116
0.405056
2.83401
0.583455
0.405703
4.17132
1.08913
47.8664
4.3736
20.7827
11.2898
31.4043
23.0329
3.84877
80.2498
0.358773
12.1578
18.0804
0.398448
76.0484
48.2638
1.9006
1.66008
63.9512
2.66285
25.9525
1.80932
2.72237
0.385003
0.505434
1.37408
1.59315
2.71777
1.62186
0.65841
0.46262
22.5895
3.03024
0.344176
1.87662
0.361317
29.0551
1.24246
20.5558
1.23936
0.828656
5.55615
96.224
77.2687
5.29991
1.45338
11.9017
2.19531
24.8709
0.946014
2.14176
2.06816
0.759042
12.0454
0.338625
14.3596
26.8711
13.2855
0.661397
1.12235
1.05212
78.9546
33.3816
653.604
13.1271
0.716904
1.45023
0.665389
2.76531
1.45891
2.17344
19.4429
0.699968
11.6427
1.18969
1.33242
37.0636
0.849477
5.58827
1.07321
0.716676
4.46211
25.5559
1.73866
1.2443
0.713538
1.18359
7.11614
1.03893
6.01999
51.9396
28.5626
2.23544
5.09114
20.8664
0.4071
3.0158
0.557672
9.3276
0.973754
44.6828
1.16653