/*--------------------------------*- C++ -*----------------------------------*\
| =========                 |                                                 |
| \\      /  F ield         | OpenFOAM: The Open Source CFD Toolbox           |
|  \\    /   O peration     | Version:  v1912                                 |
|   \\  /    A nd           | Website:  www.openfoam.com                      |
|    \\/     M anipulation  |                                                 |
\*---------------------------------------------------------------------------*/
FoamFile
{
    version     2.0;
    format      ascii;
    class       volScalarField;
    location    "0.27";
    object      epsilon;
}
// * * * * * * * * * * * * * * * * * * * * * * * * * * * * * * * * * * * * * //

dimensions      [0 2 -3 0 0 0 0];


internalField   nonuniform List<scalar> 
1431
(
1.83429
12.7656
47.212
12.7015
1.45782
6.50228
8.37843
168.542
2.4092
6.27201
126.158
120.793
16.9518
5.77018
1.45247
9.36211
6.08045
21.0429
9.04832
21.9151
259.864
7.90231
2.61972
110.021
1.94035
28.0581
83.544
1.26425
39.9855
15.8683
28.1811
70.1904
20.3462
2.05329
6.33567
6.2305
70.9386
0.890642
13.5446
60.3617
74.3444
99.3344
23.8982
14.8802
7.27026
1.95946
6.12307
70.1369
10.0482
0.903883
18.4941
18.905
23.3586
166.426
6.66087
33.0642
1.54677
152.899
5.66601
8.75388
1.22612
8.4303
1.34074
0.825479
18.9891
5.25859
36.6032
1.58391
1.62307
13.2235
105.999
3.15252
9.77984
1.9312
7.65244
2.58747
45.6281
1.78639
6.12526
18.5633
6.11232
1.94284
7.37135
4.8659
32.5039
20.5726
6.59669
1.58387
17.958
13.8332
1.25649
1.31673
1.69302
12.495
4.21273
18.9997
164.294
15.7708
12.3899
23.2449
28.3916
11.0531
5.68091
18.4254
7.58262
30.5659
41.3759
110.657
1.98276
5.15328
17.5963
11.2921
27.8668
30.1143
7.65939
1.81428
5.20053
12.0493
14.0943
1.13352
19.8442
1.92806
116.656
10.2437
76.0254
6.29502
43.3324
1.20003
37.0939
4.58057
8.74547
28.4446
4.51179
10.4489
32.1938
1.23604
6.79279
7.56293
37.641
1.28984
16.2105
13.2117
6.76115
18.3926
3.44286
18.3772
1.79195
25.6589
7.78993
1.04104
1.41307
1.88253
65.4692
15.1088
44.3177
2.81791
26.7853
17.2578
10.9065
5.70994
34.7563
14.8931
7.33649
5.15142
88.2553
6.06662
24.1034
4.44266
0.900951
11.4332
24.681
16.9276
44.907
35.2897
14.7131
25.4906
4.22285
6.99417
20.207
9.44935
6.52573
19.0024
8.18944
247.837
6.70817
85.775
96.0036
16.3186
33.1134
24.2929
15.5323
38.8092
44.7487
174.065
12.8756
15.6494
20.4697
5.87665
1.17014
1.04659
15.7062
6.75246
92.0401
5.65996
8.97828
19.8387
39.2307
4.51206
48.0061
0.871676
56.6738
8.60651
38.8307
33.2663
37.1418
50.4577
45.584
5.29134
8.12958
84.9954
48.6196
9.31217
7.34609
5.88181
42.5657
78.9091
104.068
12.9234
65.2855
49.4411
107.275
25.2328
25.4143
48.6716
69.1101
21.4782
37.4085
33.2487
14.3777
14.2339
6.31113
6.69319
59.7675
30.0632
35.063
24.7437
32.618
89.7556
41.9651
1.07728
1.25372
29.8834
5.86475
6.45972
17.4386
20.9561
6.03147
113.299
24.3556
43.5783
61.0664
34.5734
7.58594
4.2846
42.3039
110.219
3.86659
289.724
67.3877
1.82856
2.37433
39.0892
11.0609
14.7544
36.1515
40.9562
35.4349
43.382
38.289
58.1401
8.90747
47.7083
17.0607
25.397
5.56512
12.55
37.4714
19.5311
34.0105
16.9876
1.19573
2.71166
18.838
9.76687
30.2421
70.4667
124.051
91.7257
60.1107
48.0784
22.5051
26.0247
10.0602
12.7476
38.5293
6.21928
17.3431
40.0492
93.6702
10.473
14.3326
5.77
5.89394
91.0948
3.18341
20.1374
6.96521
6.04911
1.64743
714.099
15.093
18.2775
6.98326
16.7156
7.24745
57.5631
12.7188
2.38889
183.844
6.179
74.4033
1.62228
1.9587
10.0619
5.73243
14.9794
3.11879
18.9359
7.21482
66.2443
13.5738
17.2153
11.0671
16.9033
3.46717
17.7487
15.3624
31.0579
9.9744
9.07996
5.74236
2.58292
18.2075
7.97224
1.62734
5.49062
39.3153
35.4197
26.8647
59.3903
7.48715
73.904
60.5338
9.29465
1.40051
25.1582
1.65586
380.478
46.7931
13.4208
110.933
1.45468
18.1521
7.59222
8.72316
185.299
12.7025
5.38031
25.173
256.654
14.4483
6.35608
5.45583
1.90923
637.47
4.73584
12.7123
4.79331
5.53022
7.53253
7.23302
15.0187
14.8856
6.42933
28.4503
18.3161
5.09266
5.12999
1.46012
5.82088
7.11324
4.45577
23.2357
11.0166
40.5581
4.53913
6.78333
1.97391
5.06017
4.57547
10.4961
7.5706
4.65289
29.7923
5.1585
4.6943
5.8508
1.57014
6.47462
4.78196
47.6254
20.847
16.349
6.06261
4.98879
1.21749
12.2447
20.0082
20.6049
71.8611
50.2899
45.4434
54.6285
43.1498
57.1411
51.6521
51.4543
34.3206
43.9925
25.0658
1.15532
38.6597
1.25
1.60603
6.07199
3.36153
7.29683
3.11983
4.50472
5.0092
4.74209
0.882972
8.96278
9.00794
6.86781
10.8543
6.83523
111.111
4.86441
42.463
5.52622
1.01948
104.49
10.3063
47.3568
1.20911
14.5783
100.71
1.1004
98.3887
14.6894
17.3198
15.273
12.0546
39.5716
33.2823
1.26812
3.46606
7.59312
21.3403
13.343
15.8809
42.2797
11.8378
20.8666
13.7864
10.3787
12.9836
27.2684
12.2441
50.8785
17.7091
22.8565
23.1637
16.3552
7.97063
21.6958
56.6791
30.5081
1.24494
60.5634
34.3773
1.23765
101.387
55.0962
35.7684
1.50574
22.0344
39.7641
1.48539
27.8618
25.0314
5.61409
19.7867
136.675
11.1937
65.6893
28.1738
25.626
40.2624
6.05179
44.2021
1.5136
6.42011
31.036
9.95856
53.3392
57.6741
1.09845
3.79454
17.105
34.9264
18.3374
52.4722
8.25906
18.6438
3.21533
12.4672
29.3529
1.1839
5.28545
62.946
1.48675
39.7796
1.32337
3.17859
8.46319
12.2152
5.15537
12.1554
8.81607
81.2992
2.65995
5.97453
1.30942
48.7094
9.95701
50.62
11.6905
360.767
19.7464
42.7621
18.355
14.9066
566.516
24.5608
5.89088
5.49007
40.7808
5.00415
5.39444
18.0148
35.1266
21.927
44.2123
5.0339
9.21284
6.46294
41.5872
37.963
5.1602
11.7524
6.07476
5.65252
5.87254
45.3089
27.6779
36.3042
48.2388
1.44743
39.2357
1.40305
24.1516
9.89056
40.8907
6.72549
15.3372
10.4799
17.8238
40.3344
16.0424
16.5818
4.90881
35.6152
5.8056
6.7474
104.755
7.21131
13.197
1.35884
9.7709
21.3803
14.4615
36.0057
5.51595
3.08817
37.7052
5.60996
32.6248
10.1521
9.06183
15.7083
37.8888
8.45198
14.6731
5.93692
6.14033
1.35005
7.96652
6.55425
10.9603
32.4298
15.4736
28.5845
5.64929
5.25291
141.424
8.2955
1.06603
13.7143
1.94811
21.7976
10.8932
5.14972
1.08968
16.4566
5.03828
6.32068
72.9541
9.75493
45.1804
38.1479
7.58886
5.78447
2.05998
6.49445
3.11734
6.93465
20.777
22.2767
31.6664
5.1105
20.5925
9.26706
40.9557
30.1395
20.3647
21.6762
26.9935
2.41986
5.34053
4.92441
54.1105
16.8871
43.1414
17.4692
56.5782
9.32582
6.44293
13.8211
14.5869
5.98413
6.74923
53.171
1.12452
30.2485
34.6605
1.57367
1.49966
6.10932
77.1301
40.855
1.33286
5.96397
6.18794
59.0731
9.30035
5.16597
6.49622
17.4956
7.40558
5.88221
5.06672
6.00865
1.29429
59.8699
9.01712
8.2292
9.48433
4.94661
5.30037
5.77996
28.137
40.0849
58.604
9.86822
34.8544
1.05972
15.2811
1.19176
2.24552
22.2575
28.8005
6.22048
36.4236
4.07174
55.8443
26.2133
101.654
182.667
1.65413
7.61483
26.1532
11.8231
84.499
37.7281
1.65658
10.8309
52.7628
9.83468
28.116
4.40881
12.7228
5.3708
44.7215
5.76488
8.34671
14.9939
6.11304
9.88942
30.7337
10.8362
4.15585
12.8778
180.272
7.03028
2.37053
19.5656
6.07707
5.37878
169.159
85.5524
39.1231
6.16252
3.08297
44.2222
13.9765
11.0927
4.73607
10.4173
32.5844
27.8408
7.47965
1.97984
2.45833
13.2718
6.77908
28.2871
3.55032
0.953723
6.30841
9.92666
6.28487
1.13111
6.35071
39.6
5.92056
12.6102
49.0736
8.69264
45.8305
11.5453
39.5354
4.21261
38.9281
6.75291
17.4816
23.4279
19.449
8.3655
63.485
8.45951
1.98259
42.0965
46.2351
678.93
36.3843
5.17647
26.2995
6.06489
403.019
5.26598
12.2265
31.7698
13.5024
124.746
42.2961
1.34061
64.7316
1.27628
1.30573
91.0278
9.51934
8.99381
6.73838
31.6134
6.70266
12.3156
1.51368
27.6245
43.2653
12.5398
54.4065
51.4966
8.01636
164.036
5.67983
61.0253
5.15071
21.0344
6.50074
6.4678
5.27629
41.403
8.53189
23.6924
14.282
207.989
29.6748
29.4439
42.6365
12.4247
15.796
5.77263
36.1215
1.29325
4.35049
6.37805
34.7179
4.10099
6.19094
6.09139
5.90334
8.19697
21.4689
4.32535
28.5124
6.50306
29.4514
4.90449
14.6379
592.674
3.6303
10.8324
5.60023
14.517
7.10412
1.26467
4.54628
1.15224
98.0903
18.8922
1.62559
88.3482
470.75
147.55
162.793
57.2254
41.1057
44.7414
41.8973
43.336
68.2087
39.3185
27.3175
26.6725
26.3314
28.9256
40.2087
77.542
26.2555
23.4026
28.1972
23.2667
39.4484
40.115
21.3281
40.9119
43.7227
19.7033
43.0145
30.9631
26.8492
0.8415
27.9055
5.88914
8.12146
5.96481
69.9752
54.2196
14.8587
5.03779
1.68141
6.79111
184.625
16.864
5.25019
29.9595
4.87943
31.9177
4.67065
6.1408
147.195
1.45903
38.8533
7.19766
6.90563
5.86154
31.6882
24.6741
61.1422
6.44178
25.8572
2.14522
15.4806
9.60102
40.878
1.25969
13.9496
1.75982
24.2741
6.5233
40.039
15.6083
42.6925
16.3042
29.0326
5.15938
6.4776
37.3835
33.7687
28.451
6.91436
18.4258
1.27845
13.6517
9.89359
9.89543
35.8911
1.14684
7.82383
20.7226
21.1101
58.3227
2.2355
8.19467
16.1994
39.7122
7.75759
757.05
4.59907
34.03
19.8447
174.139
4.20651
15.9585
13.5327
5.8374
9.70452
1.29916
42.9586
5.94695
23.364
418.079
49.1766
36.9083
4.41842
20.1145
28.7951
11.9189
41.7413
21.075
1.3535
43.5297
59.7023
34.0577
90.9246
78.7401
16.4112
1.12002
12.4632
2.97189
38.523
8.0133
8.56282
11.7118
10.4078
35.1851
11.5638
7.8185
38.439
415.601
5.91933
40.4818
16.8435
4.81775
4.14775
176.742
15.799
5.58627
22.6535
35.3207
28.352
15.6246
5.44074
67.5495
9.57103
14.6865
23.9119
22.6811
7.23477
8.71521
17.0508
10.6798
3.67327
10.3234
77.7029
70.9534
139.355
40.1216
2.95052
38.0904
5.2392
4.51194
7.11686
8.18113
9.70537
6.30652
12.1705
54.3902
5.52357
31.7827
17.1246
37.7752
1.44112
32.0164
24.2448
30.1386
4.69495
31.1675
54.0578
9.8524
29.524
36.5185
20.5203
22.6333
25.52
31.1704
34.6526
35.5799
28.8425
35.0189
10.4097
14.0013
17.097
11.1385
14.004
16.0601
7.10043
7.00436
29.3967
44.9098
4.01666
16.6622
6.21599
29.4529
0.891377
9.26521
15.4353
24.3192
47.3184
4.21791
7.08056
1.25163
1.50207
4.53142
32.3253
41.8755
5.42396
42.3982
11.1726
6.48533
580.655
47.5221
36.6776
1.78463
5.66849
8.39949
10.8138
33.9337
9.9588
3.05459
7.07615
1.15102
18.6587
18.8818
5.84968
11.7122
6.78067
11.4655
12.8328
37.066
6.43317
69.973
19.2174
9.97604
28.7068
178.466
1.11244
32.9728
74.9848
4.21381
24.4167
4.64922
7.71388
5.19457
33.5259
7.57496
6.00535
51.6197
78.6252
10.7099
18.2392
44.4274
1.25823
13.0845
9.23439
31.6591
6.30906
28.4175
60.3707
50.675
9.67137
32.0712
14.6487
55.2289
12.8763
27.4327
40.035
6.21236
15.3348
85.3931
6.43058
30.0351
28.5668
20.1928
4.66016
7.67192
22.4641
44.342
163.636
62.5852
5.54078
1.14271
8.81502
4.61697
35.4452
27.8601
45.805
13.259
13.4916
14.6659
123.303
9.19785
3.72176
4.89062
2.2654
5.39882
194.464
1.45986
4.51538
14.9468
8.77153
16.6082
6.45406
15.1188
35.5471
37.8399
17.9945
3.1142
7.23829
32.3567
10.9812
8.16843
22.9401
6.67308
5.99914
15.8332
5.50285
23.7832
5.2626
9.97369
15.596
37.6645
16.0915
9.15373
19.4049
5.20537
16.7743
8.73272
462.551
41.4121
4.68097
7.04223
41.0227
6.43511
6.0121
6.81015
45.3622
1.2466
31.3916
5.19824
1.57266
7.54314
5.4956
12.7246
4.47209
18.9248
7.89812
105.351
5.51722
198.994
4.22128
21.9656
8.10671
11.5983
4.45577
3.34611
71.9044
3.87074
17.6366
7.84102
245.148
8.59167
10.2684
1.32077
39.2309
16.986
7.34513
56.2179
18.5951
4.18622
50.4901
25.5191
3.27351
13.2218
5.03018
6.61793
122.196
47.3896
41.495
18.8892
39.3459
1.41372
37.6566
24.825
44.3049
182.191
9.9002
12.7123
11.8446
4.37891
89.8656
16.1775
57.4482
1.16067
169.102
38.2062
36.4514
1.06498
375.846
6.22388
4.74014
1.34979
46.2714
41.5968
4.42298
141.234
15.6036
18.3895
5.22174
282.887
12.0843
196.096
12.5327
19.6648
48.1311
135.205
149.889
68.0539
66.4489
4.95808
22.0111
4.09502
59.3834
1.51391
36.9591
7.08213
4.24203
68.4351
265.272
41.6835
10.5007
9.602
24.183
15.5527
4.80429
3.12163
167.343
7.80471
5.25495
43.1992
5.09052
7.04926
42.1774
1.45994
9.99816
17.3797
14.9279
229.64
17.5252
5.69787
1.63849
1.41959
60.0851
69.5321
4.08173
4.11397
16.8915
35.6955
31.4584
71.4173
14.4342
71.7728
9.90742
64.8054
27.2035
6.9151
15.6594
3.61545
8.83361
22.5264
14.7136
31.4913
49.6606
8.89117
12.0811
14.7655
18.2152
8.48183
29.2991
23.1252
30.2058
2.23639
48.6516
1.60836
1.87184
35.8181
33.4456
1.67545
19.9419
23.7944
62.2884
15.6299
6.54467
6.99243
22.7551
8.77433
13.4007
2.90508
10.2
1.07713
82.2034
3.60107
46.8733
97.2685
39.0157
15.0668
27.4377
5.01392
4.79245
11.9213
21.7947
108.103
30.8012
7.52021
2.53254
8.77057
17.3996
65.7545
4.6347
1.26632
21.9141
44.2443
1.05478
48.0052
0.787823
7.4672
2.55546
2.45097
2.12732
)
;

boundaryField
{
    frontAndBack
    {
        type            empty;
    }
    wallOuter
    {
        lowReCorrection 0;
        type            epsilonWallFunction;
        value           nonuniform List<scalar> 
96
(
39.9855
15.8683
18.9997
54.1105
56.5782
53.171
6.10932
5.96397
6.18794
9.30035
6.49622
7.40558
6.00865
59.8699
8.2292
10.8309
52.7628
28.116
6.77908
6.35071
6.75291
6.73838
31.6134
12.5398
54.4065
57.2254
41.1057
44.7414
41.8973
43.336
68.2087
39.3185
27.3175
26.6725
26.3314
28.9256
40.2087
77.542
26.2555
23.4026
28.1972
23.2667
39.4484
40.115
21.3281
40.9119
43.7227
19.7033
43.0145
38.8533
40.039
15.6083
35.8911
7.82383
58.3227
36.9083
90.9246
40.4818
16.8435
15.799
14.6865
8.71521
10.6798
77.7029
30.1386
31.1675
29.524
36.5185
20.5203
22.6333
25.52
31.1704
34.6526
35.5799
28.8425
35.0189
10.4097
14.0013
17.097
11.1385
14.004
16.0601
16.6622
7.08056
18.8818
18.2392
45.805
6.67308
16.7743
18.5951
41.495
18.8892
12.0843
66.4489
68.4351
9.602
)
;
    }
    inlet
    {
        type            fixedValue;
        value           nonuniform 0();
    }
    outlet
    {
        type            zeroGradient;
    }
    wallInner
    {
        lowReCorrection 0;
        type            epsilonWallFunction;
        value           nonuniform List<scalar> 
126
(
5.66601
8.75388
1.22612
8.4303
1.34074
0.825479
18.9891
5.25859
36.6032
1.58391
1.62307
13.2235
105.999
3.15252
9.77984
1.9312
7.65244
2.58747
45.6281
1.78639
6.12526
18.5633
6.11232
1.94284
23.2449
1.81428
5.20053
12.0493
14.0943
1.13352
19.8442
1.92806
116.656
10.2437
76.0254
6.29502
43.3324
8.74547
28.4446
1.28984
16.2105
6.76115
18.3926
1.79195
1.04104
1.88253
15.1088
88.2553
6.52573
85.775
96.0036
12.8756
56.6738
1.82856
38.289
58.1401
1.19573
124.051
91.7257
48.0784
26.0247
5.77
5.89394
91.0948
57.5631
12.7188
74.4033
66.2443
13.5738
35.4197
73.904
60.5338
1.97391
1.57014
101.387
136.675
3.79454
12.4672
62.946
12.2152
81.2992
11.6905
44.2123
6.46294
48.2388
1.40305
16.0424
37.8888
15.4736
1.08968
7.58886
1.29429
9.01712
5.37878
10.8324
1.26467
33.7687
60.3707
41.6835
10.5007
10.2
1.07713
3.60107
97.2685
39.0157
15.0668
5.01392
11.9213
21.7947
108.103
30.8012
7.52021
2.53254
17.3996
65.7545
4.6347
1.26632
21.9141
44.2443
1.05478
48.0052
0.787823
7.4672
2.55546
2.45097
2.12732
)
;
    }
    procBoundary3to1
    {
        type            processor;
        value           nonuniform List<scalar> 
48
(
67.0277
78.0219
112.711
81.732
51.3862
23.4631
78.0219
20.6985
35.1635
6.27416
6.27416
13.2589
13.2589
47.9346
52.7998
14.3091
15.5438
12.4261
15.5438
7.03103
25.7985
21.7364
7.03103
4.22545
1.64599
4.9881
17.0527
21.7364
16.8648
12.1692
12.1692
18.7395
18.7395
35.1635
5.734
53.6388
23.8464
1.64599
51.0958
41.0871
47.9346
27.1865
30.5424
7.03103
54.0594
41.0403
45.672
29.4247
)
;
    }
    procBoundary3to2
    {
        type            processor;
        value           nonuniform List<scalar> 
29
(
1.29793
1.29793
3.15216
5.11355
42.163
3.41918
7.74328
1.63552
5.47717
4.68638
2.73778
33.5609
1.52417
15.6958
6.91276
14.2911
5.16015
8.10029
1.31034
6.12257
5.50413
5.16015
10.1643
8.10029
6.68774
5.08751
8.10029
43.9693
43.9693
)
;
    }
}


// ************************************************************************* //
