/*--------------------------------*- C++ -*----------------------------------*\
| =========                 |                                                 |
| \\      /  F ield         | OpenFOAM: The Open Source CFD Toolbox           |
|  \\    /   O peration     | Version:  v1912                                 |
|   \\  /    A nd           | Website:  www.openfoam.com                      |
|    \\/     M anipulation  |                                                 |
\*---------------------------------------------------------------------------*/
FoamFile
{
    version     2.0;
    format      ascii;
    class       surfaceScalarField;
    location    "0.27";
    object      phi;
}
// * * * * * * * * * * * * * * * * * * * * * * * * * * * * * * * * * * * * * //

dimensions      [0 3 -1 0 0 0 0];
oriented        oriented;


internalField   nonuniform List<scalar> 
2708
(
-7.87562e-05
-7.62518e-05
0.000110929
4.40785e-05
6.58249e-05
0.000345878
-0.000321273
-9.04296e-05
0.00117106
0.000266565
-0.0011404
-0.000297224
0.000214554
-0.00020047
3.54942e-06
-1.76341e-05
-0.000393785
-0.000163647
0.00028167
0.000275762
0.000446787
-0.000182433
-7.74232e-06
-0.000256611
0.000346131
-0.000229036
0.000109327
-0.000226422
-9.16204e-05
0.000230911
-4.44902e-05
-9.48006e-05
-0.00016952
0.000200337
3.45527e-05
-6.53695e-05
0.000179387
0.000622553
-0.000455808
0.000923684
-0.000954795
0.000277961
-0.00024685
0.000254356
-0.000342996
0.000862737
-0.000774097
-0.000595402
0.000474914
-0.000611488
0.000731976
-1.86756e-05
-0.000195824
0.000141051
7.34483e-05
7.89119e-05
-0.0001655
-2.79474e-05
0.000114535
0.000397753
6.30662e-05
-0.000281432
-0.000731338
0.000624824
-0.000215307
0.000321822
0.00068492
-0.000677102
0.00030057
-0.000308387
0.000394057
9.4888e-05
-0.000472979
-1.59668e-05
-0.000243791
-0.000182718
0.00036407
6.24392e-05
-0.000376678
0.000775805
0.000524558
1.65826e-05
2.58014e-05
-6.10596e-05
-4.83209e-05
-8.25362e-05
4.0574e-05
9.0283e-05
-0.000276884
-0.00131983
0.00135421
0.000242503
-5.50833e-05
-0.000162758
-0.000593243
0.000410419
0.000849219
-0.000666395
-0.000923733
-0.000163915
0.000132854
-0.000123686
-4.97625e-05
0.000173916
-4.67783e-07
7.6756e-05
-0.000385472
0.000308716
-3.07688e-05
-0.000467278
0.000498047
0.000427186
4.20564e-05
-6.85103e-05
-0.000400732
-0.000474977
5.05519e-05
-1.14663e-05
0.000435892
0.00044546
4.22959e-06
2.10308e-06
-0.000451792
-5.01896e-05
5.0672e-05
8.73439e-07
-1.35586e-06
0.000582304
-1.24718e-05
-0.000749717
0.000179885
-0.000100889
0.000427713
-0.00032388
-2.94428e-06
-0.000201645
0.00101074
0.000347617
-9.65389e-05
6.81538e-05
0.000104799
-7.64136e-05
0.000332419
-0.000268152
-0.00022853
0.000164264
8.91868e-05
0.000357651
-0.000428745
-1.80926e-05
-0.000155063
0.000101436
0.000459782
0.000967368
-0.000563034
-0.000625611
0.000137864
3.43824e-05
-5.64763e-05
-0.00011577
-0.000255335
0.000108431
-5.98752e-05
0.000206778
0.000191603
-0.000111272
-0.000147363
6.70316e-05
0.000126981
-0.000189586
-3.28584e-05
9.54634e-05
-0.000866281
0.000108781
-0.000166234
-1.31131e-05
-7.70484e-05
-0.000138875
8.59525e-05
-8.38372e-05
-7.41834e-05
7.20681e-05
-0.000152078
-0.000350224
0.000416018
8.62843e-05
-0.000130498
6.17667e-05
0.000173955
-0.000105223
0.000450755
-0.00038213
-0.000194977
0.000126352
-7.98039e-06
0.000271064
-0.000134724
-0.00012836
4.78785e-05
0.000412421
-4.68972e-05
-0.000413403
-0.000270768
0.000266944
0.000190935
-0.00018711
0.000168893
-0.000184833
-8.75626e-05
0.000103503
-0.000485223
-0.000384682
0.000566945
0.00030296
0.000662345
-0.000193407
-0.000468938
-0.000135293
0.000130099
5.19361e-06
-4.4774e-05
-0.000322791
0.000180506
0.000142285
-3.40414e-05
0.000110876
-7.68347e-05
-2.74848e-05
-6.9054e-05
0.000193924
0.000138495
0.000251296
0.00012608
-0.00105717
0.000284591
1.64069e-05
5.27664e-05
2.11698e-05
4.79517e-05
-6.91214e-05
-0.00012121
0.000149508
-2.82978e-05
-0.000119153
0.000142275
-2.31213e-05
-7.5479e-05
2.52894e-05
-0.000198125
4.75736e-05
2.45639e-06
4.82156e-05
-0.000170295
-2.55294e-05
0.000261112
-6.95094e-05
-0.00092871
0.00013716
0.00079155
-0.000165758
8.2828e-05
8.29303e-05
0.000462185
0.000160367
0.000359571
0.000325349
-0.000597039
-0.000134299
0.000121323
-0.000180854
5.95313e-05
-0.000105412
5.82788e-05
0.000595999
-0.000548866
-0.00026427
0.000304988
8.62634e-05
-8.83692e-05
5.68532e-05
0.00125296
-0.00122144
3.67146e-05
4.92038e-05
-4.71077e-05
-3.88107e-05
0.000397313
2.5606e-07
-7.70039e-07
-0.000396799
5.88526e-05
-6.92285e-05
-3.13434e-06
1.35102e-05
2.02943e-05
2.49426e-05
-0.000951795
0.000906558
-7.49485e-05
2.33838e-05
-0.000750401
0.000801966
-5.9757e-05
0.000185215
4.3435e-05
0.000195181
-0.000211921
-4.30171e-05
1.34708e-05
-6.97758e-05
0.000124459
-9.34708e-05
0.000102924
-0.000186228
0.000176775
0.000431983
-0.000420071
3.59657e-05
8.40856e-06
-0.000323638
0.000315229
-0.00035002
-0.000184021
-0.0004475
0.000498319
0.000133202
0.00019952
0.000157355
-0.00021901
-0.000433362
0.000319976
0.000113386
0.000600871
-0.000399702
-0.000471937
-0.000335857
0.000212586
-0.000444121
3.48453e-05
-7.80695e-05
0.000487345
0.00017631
-0.000140151
0.000394094
-0.000430253
-0.000201576
-0.000103464
0.000139282
-0.000605494
-2.56342e-05
0.000612404
1.8725e-05
2.5926e-05
0.000761355
-0.000735237
-5.20444e-05
-0.000136915
0.000640077
-0.000694336
0.000191174
8.71538e-05
-0.000110537
-5.91528e-05
0.000562194
-0.00034397
-0.000219421
0.000260438
-0.000578773
0.000201893
0.000851794
0.000266336
-0.000591833
0.000752525
-0.000427027
-0.000188013
0.000182999
0.00010645
5.03325e-05
0.000427914
-0.000132672
6.55724e-05
1.64294e-05
-0.00014184
0.000178554
-6.15262e-05
-2.69336e-05
-9.42764e-05
-3.37798e-05
-0.00013172
5.84462e-05
-6.64266e-05
-2.07869e-05
-1.44729e-05
0.000156748
0.0003467
0.000115485
0.000242347
-2.31048e-05
-6.24052e-05
5.75625e-05
5.2451e-05
0.000888464
-0.00067435
-0.000195628
0.000365335
5.65338e-05
-0.000226242
0.000194587
0.000430236
-0.000183895
-0.000493207
-0.000519189
-9.73897e-05
0.000420952
5.93693e-05
-0.000414269
0.000748957
-0.00025278
0.000430768
-0.000421779
9.47508e-05
-5.91118e-05
-0.000153552
0.000159343
-0.000169412
7.52975e-05
-6.52283e-05
-0.000176364
0.000179471
0.000177399
0.0012773
9.75226e-05
-0.00123912
-0.000135711
0.000118269
-0.000175032
-9.31203e-05
0.000489998
3.72653e-05
2.71367e-05
-0.0005544
-5.92505e-06
1.40671e-05
3.24319e-05
5.33145e-05
0.000400554
-0.000179574
-0.000330944
0.000502408
0.000429407
0.000464649
7.65489e-05
-0.00012781
-9.01021e-05
-5.67128e-05
0.000429753
1.23968e-05
-0.000385437
-4.0429e-05
-0.000101411
-0.000583235
1.99186e-05
-9.28993e-05
0.000656216
-4.0171e-05
8.48654e-05
-0.00011447
-0.00121166
-0.000148616
0.00118581
0.000174467
0.000260908
0.000415381
-0.00033007
-0.000346219
-9.87148e-05
5.63459e-05
-0.000662583
0.000704952
-0.00043276
0.000418468
2.85809e-05
-1.4288e-05
0.00097823
-0.000851024
0.000145478
-0.000272683
-0.000531897
-0.000430726
0.000351135
0.000450565
-0.000407669
-0.000230374
0.000187477
1.2237e-05
-0.000454743
0.000450058
-7.55193e-06
-4.48558e-05
0.000103302
-0.00012347
0.000105984
-6.12698e-05
0.000439652
4.26635e-05
-3.54945e-06
2.04479e-05
0.000461659
-0.000476897
-4.32087e-05
5.84471e-05
-8.772e-05
-0.000869529
2.58737e-05
0.000931375
-0.000285892
-0.000720706
0.000675654
4.14278e-05
0.000397539
-1.77013e-05
-0.000421265
0.000295358
-0.0015882
8.94974e-06
0.00128389
0.000413864
-0.000154078
8.60922e-05
0.000317841
-0.00123414
-5.68324e-05
-0.000453017
-9.33999e-06
0.000184426
7.02639e-06
-7.15659e-05
0.00040372
0.000118601
0.000456474
0.000217832
-0.000446198
-0.000228108
-0.000204512
-0.000175452
-0.000183577
9.97356e-05
-0.000181917
0.00012454
-4.23588e-05
0.00118202
-0.00117899
-0.000279916
0.00011024
-0.000304986
0.000379172
-0.000644118
0.000670044
-0.00025693
0.000120015
8.70544e-05
0.000587718
-0.000686271
0.000345543
-8.08875e-05
0.000421615
-3.85808e-05
-4.93627e-05
-0.00103992
0.00112787
0.000520193
-0.000571913
0.000105035
0.000609575
-0.000531398
-3.50756e-05
-4.31018e-05
0.000484438
-0.000773049
0.000377798
0.000557749
-6.44514e-05
0.00014678
-2.19156e-05
0.000268146
0.000651354
-0.00050412
-0.000310186
-0.000275685
0.00040185
0.000516286
-0.000526576
6.00722e-05
-4.97823e-05
5.98118e-05
-3.6276e-05
2.44159e-05
-4.01319e-05
-4.14919e-05
1.10848e-05
7.05389e-05
0.000147067
-7.44297e-05
-5.616e-05
-1.6477e-05
-0.000121761
0.000456457
0.00011587
-0.000579119
-0.00042159
0.000735309
0.0002654
-7.92821e-06
0.000408803
-0.000397997
-2.87796e-06
1.00321e-05
0.000603652
-0.000679494
6.58101e-05
-2.88792e-05
0.000566117
-0.000559969
2.27308e-05
0.000141458
-0.00079166
0.000859055
-0.000208854
-8.32853e-05
-5.71026e-05
9.56927e-05
4.46951e-05
0.00117448
-0.00119813
-8.03025e-05
0.000103947
-5.3596e-05
-6.27876e-05
3.02711e-05
2.36058e-05
-5.38769e-05
-8.33772e-05
0.000134555
-0.000458847
0.000774414
7.8785e-05
-9.1844e-05
-0.0005371
-5.34734e-05
-1.4921e-05
-0.000111153
-0.00120745
0.00123023
-0.000183932
4.58372e-05
-0.000295267
0.000630378
-0.00018033
-0.000506761
0.00013362
0.000508341
-0.000125674
0.000271221
-0.000166028
0.00023905
-0.000344243
0.000225444
-0.000568673
-0.000235891
0.000526913
0.000270488
-0.00064091
-0.000156491
-2.4784e-07
4.08591e-05
5.91243e-05
0.000212768
-0.00021051
0.00030206
-0.000304318
-1.25596e-05
0.000466616
1.05603e-05
-0.000464617
-0.000723455
0.000667133
-0.00115634
0.00117411
-0.000128928
-0.000525998
0.000684275
-0.000579867
-6.98879e-05
8.4047e-05
-0.00035477
1.93121e-05
0.000605946
-0.000460444
6.6507e-05
0.000619381
-1.28429e-05
-0.00026164
0.00037885
-0.000104367
-4.22518e-05
2.4369e-05
0.000445069
-2.70766e-05
-0.000602758
0.000600956
0.000364711
-0.000102044
0.000221772
-9.83966e-06
-0.000510754
4.56164e-05
-0.00074237
-0.000149409
0.000798999
9.27793e-05
0.000728768
0.000204512
-0.000158866
-2.08413e-05
-0.000383904
-0.000132355
-7.62591e-05
0.000309267
0.000287185
-0.000116342
6.45592e-05
8.01251e-05
-2.83421e-05
-0.000404175
0.000403495
-5.61529e-05
-0.000239219
0.000276401
0.000248006
-0.000285188
0.000120066
-0.000101922
-0.000320812
0.000455016
-0.000155045
-3.52676e-05
-7.74562e-05
-8.62988e-05
6.18388e-05
0.000101916
-0.000359173
0.000217741
-0.000305133
0.000822701
0.000421593
-0.000601387
-0.000461116
-0.000120134
-1.60013e-05
-4.63887e-06
-2.4646e-06
-0.000360623
0.00116252
-0.0007816
-0.000453447
3.29231e-05
0.000468491
1.82658e-05
-6.28747e-05
-1.56673e-06
-0.00045435
-9.16332e-05
0.000299407
0.000246576
-0.000469322
2.32382e-05
-7.36277e-06
-0.000184242
0.00118488
0.000173479
-0.000616289
0.000744404
-0.000320984
0.000192868
-1.2129e-06
0.000482569
0.000188496
-0.000101683
-0.000569383
6.49727e-05
-0.000375869
-0.000109634
0.000198938
-2.41672e-05
-0.000436778
0.000124443
-0.000426305
-0.000518941
-0.00057573
0.000311506
-0.000197544
-0.000301607
0.000187644
-3.33498e-05
0.000155229
0.00043587
0.00011556
-0.000764099
-6.32447e-05
-0.000121589
4.99257e-05
3.1303e-05
0.000717463
0.000180246
-0.000168941
-0.000337721
-3.045e-05
-0.000161384
5.68543e-05
-1.1812e-05
0.00115476
-0.000264248
-2.34334e-05
0.000340084
0.00142159
-0.000171894
-9.49347e-05
-0.000595382
-0.00013996
2.26832e-05
0.000712659
-0.000430079
0.000403002
-0.000748829
0.000953342
-0.00066642
0.000689485
-0.000308956
-0.000112579
0.000394369
-0.000542559
0.000260768
1.23273e-05
0.000311967
0.000359348
-0.000189583
7.22531e-05
-0.000242018
0.000416709
-6.15906e-05
-0.000416147
6.10285e-05
-0.000176533
0.000606135
-0.000535014
-0.000457959
-6.41698e-05
6.77783e-05
-0.000294503
6.83219e-05
-9.80024e-05
0.00118717
-0.00115749
0.000257944
-0.00017361
-0.000174764
-2.34735e-05
-0.00023539
0.000278677
-0.000148364
0.000105077
6.86139e-05
-0.000448688
-4.48049e-05
-0.000662959
3.91938e-05
0.00066857
3.06243e-05
-0.000726959
1.06062e-05
-0.000521867
0.000315194
-0.000572124
4.81856e-05
-0.000692304
0.000133515
-0.000288031
-2.94168e-05
-0.000454637
2.45578e-05
0.000282454
0.000480459
-0.000260505
0.000312247
-0.000264435
-4.78113e-05
4.58617e-05
-0.000368947
-1.46353e-05
-0.000725133
0.000821035
-8.55481e-05
-1.03545e-05
-0.000222098
-0.000445016
0.000142797
0.000524317
-0.000479121
-2.76038e-06
-0.000226204
-0.000691019
0.000524332
9.05671e-06
0.000756667
-0.000457285
6.74416e-05
-0.000588713
0.000657983
0.000198877
6.29326e-05
0.000283768
9.83445e-05
-5.55636e-05
2.22138e-05
4.55857e-05
-0.000111366
0.000266117
-0.000494928
0.000287857
-5.57994e-05
-0.000524036
5.3259e-05
4.9168e-05
7.957e-05
-0.000147833
7.81882e-05
-9.92478e-06
-0.000609116
0.000563789
0.00071709
-0.000671763
0.000293987
-0.000272152
-0.000248039
0.000252248
-9.58212e-05
-0.000180519
5.49644e-05
-5.52996e-05
0.000735982
-8.25854e-05
-0.000698201
-0.000239889
6.22836e-05
0.000481356
-0.000303751
-0.000946479
-0.000193919
0.000139457
6.76781e-05
-0.000173773
-0.000102751
0.000208846
0.000295859
-0.000322751
5.83486e-05
-3.14561e-05
0.000590712
-2.27427e-05
-9.94783e-05
0.000480271
-0.000533744
3.44178e-05
-7.99631e-05
-2.35761e-05
7.09404e-05
-0.00020937
-9.69599e-05
1.97563e-05
-1.42653e-05
-2.04511e-06
-3.44589e-06
-0.000407757
-2.05851e-05
-0.000773089
5.79884e-05
-0.000166237
8.34682e-05
0.000172338
-8.95697e-05
-0.000160968
-0.000680117
-0.000165401
0.000445227
-0.000519714
0.000110671
4.35823e-05
-0.000754156
-6.25152e-05
-0.000247327
0.000328874
-0.000597829
0.000516282
-1.08795e-05
0.000283121
-8.92421e-05
-0.000118516
1.26398e-06
0.000162838
-0.000739901
0.00043593
0.000613239
1.61921e-05
-0.000220252
0.000738592
-0.000504934
0.00118793
-0.000284273
-0.000551767
1.86209e-06
0.000655156
-2.23848e-05
-0.000634634
0.000109495
-0.00014626
0.000558245
-0.000521479
8.69062e-05
0.000143371
-0.000133956
-9.63209e-05
0.00089629
-9.98281e-05
-6.04805e-05
0.000367375
0.000295118
-0.000375948
-0.000286545
-0.000152282
0.00018605
5.31379e-05
0.00022354
-0.00024283
-0.00014631
0.0001656
0.000346747
-2.32989e-05
0.00110634
-0.00142979
-3.48892e-05
2.20463e-05
7.86106e-05
-0.00130358
0.00118639
2.47385e-07
4.36e-05
-2.72648e-05
-0.000380543
-4.9995e-05
7.77117e-05
-0.000763816
0.00116574
4.86428e-05
-0.000450571
-0.000199062
0.00021492
-0.000555205
0.000441307
0.0001807
-0.000662358
0.000558415
-6.80992e-05
-0.000549269
0.000586599
0.000830505
-0.000847641
-0.000102251
-0.000132552
7.11557e-05
-0.000535867
8.50552e-05
0.00105044
-0.000599627
-0.000280113
-0.00019711
0.000238005
0.000255857
-3.69067e-05
0.000950518
-0.000963585
-0.000115861
0.000315143
7.40051e-06
-2.28453e-05
2.76071e-05
-1.21623e-05
6.78519e-05
0.000110558
-0.000811953
0.000633543
-0.000185189
0.000951464
0.000300208
-0.000323804
-0.000508301
-0.000469515
0.000414354
-2.80917e-05
3.87505e-05
9.3889e-05
-0.000104548
-0.000125495
-0.000918505
-0.000717816
-8.16428e-06
0.000139849
-7.84307e-07
-0.0001309
0.000442245
-5.77311e-06
1.48572e-05
-0.000451329
5.52513e-05
-2.35857e-05
-4.63881e-05
1.47225e-05
0.000583001
-0.000729744
0.000206815
-0.000295756
-0.000271334
0.000286977
0.000386041
-7.99357e-05
-0.000427145
-0.000107424
0.000191867
0.000342702
-0.000680389
-8.48667e-05
0.000338111
-0.000486673
-4.74972e-05
5.50487e-05
0.000807902
-0.000224466
-0.000224117
-0.000548406
0.000486914
-9.75085e-05
0.000159001
-0.000299269
-0.000143022
-0.000106115
-0.00019351
5.18175e-05
0.000197721
-0.000190255
-0.000236207
0.00022874
0.000473249
-0.000466239
0.000288107
-7.50254e-05
0.00023925
-0.000471392
0.000578738
-7.52274e-05
0.000246303
0.000128331
7.36231e-05
2.35706e-05
-0.000124912
2.77183e-05
0.000434552
-4.89843e-05
-7.49255e-05
-0.000310642
-0.000114759
0.000130047
2.04257e-05
-7.06084e-06
-1.33648e-05
-8.84317e-05
9.32364e-05
0.000469327
5.66328e-06
-4.04389e-05
0.000610732
-0.000327385
-0.000221063
0.000461509
-1.16069e-05
1.94255e-05
-0.000432873
0.000331783
-0.000287661
0.000388751
-1.37085e-05
6.07956e-05
4.42804e-05
0.000162285
-0.000151601
0.000375599
0.000216897
-0.000358603
-0.000233893
-7.66607e-06
-0.000219091
-0.000555411
0.000456127
-6.6692e-05
7.20731e-05
-0.000189483
0.000705486
0.000295854
-0.000475537
-0.000518223
-0.000166986
0.000374256
0.000267188
-0.000267536
-0.000131793
0.000134449
0.000453471
1.82549e-05
-2.23164e-05
-9.81893e-05
-0.000272852
-0.000146338
0.000236472
0.000100207
0.000349625
-0.000354944
0.000600385
0.000254097
-0.000588146
-0.000230585
-0.00125625
0.000167003
-0.000670024
0.000426765
0.00044305
-0.000199791
0.000346168
-0.000326338
0.000756661
-0.000776491
0.000512822
-0.000836678
0.000717123
-0.000526387
0.000295887
0.000580347
0.000212845
-0.00028037
-0.000296931
0.00071596
-0.000525218
0.000106189
0.000710181
3.13806e-05
0.000411475
-0.000332225
-0.000110631
0.000542155
0.000205186
-0.000126197
7.88612e-05
0.00045881
-2.73197e-05
-0.000199269
0.000118332
0.000108257
0.00110539
0.000542947
-0.000356669
-0.00129167
-5.05748e-05
0.000209305
-7.16856e-05
0.000164481
9.75614e-05
-0.000187237
-0.000121958
6.69145e-05
-2.6571e-05
-4.19987e-05
1.65514e-06
7.35234e-05
7.15793e-05
0.000213967
-0.000226268
-0.000280956
0.000293257
-0.000121743
9.3081e-05
8.45037e-05
-5.58419e-05
-0.000183378
-6.93763e-05
0.000131011
-5.36168e-05
-0.000129349
0.000132262
5.07036e-05
-1.90394e-05
8.2525e-05
-0.000136587
7.31015e-05
-2.50763e-05
-0.000225185
-0.000111636
-9.0299e-05
0.000159711
-0.000103545
7.9571e-05
2.42213e-05
-0.00109926
6.28489e-05
0.00102074
1.56695e-05
8.22473e-05
-9.38756e-05
-1.3448e-05
0.000455845
0.000392541
-0.000639633
5.04297e-05
-6.08936e-05
3.32549e-05
0.000110663
-5.53596e-05
-8.85584e-05
-0.00118414
9.38362e-05
-0.000155151
3.55416e-05
2.93109e-05
-0.000137789
0.000536748
0.000164277
-8.10163e-05
-5.00063e-05
-0.000619878
-6.79314e-05
-0.00130444
0.000185272
0.000154263
-4.36025e-05
-0.000397935
-0.000808986
-3.34375e-05
4.86332e-05
1.91866e-05
-2.81472e-05
-0.00012458
-0.000132266
6.54857e-05
-8.39629e-05
-5.76867e-05
7.61639e-05
-0.00142707
0.000266561
0.000837942
-0.000616449
0.0008839
-1.0022e-05
-0.000163735
0.000153694
6.19076e-06
-5.42124e-07
-8.38739e-05
-6.46547e-05
5.35105e-05
2.12659e-05
7.50464e-05
1.01956e-05
-3.70253e-05
-8.88473e-05
-0.00103565
0.000446528
-0.000127112
0.000274226
-0.000248002
0.000319335
-0.000242974
9.20519e-05
0.000128366
-0.000145372
-5.53786e-05
0.000106204
6.74432e-05
-0.000715805
0.000693026
1.51554e-05
8.19083e-06
6.29068e-05
-8.6253e-05
-0.000835701
0.000112201
2.99124e-05
-0.000269226
-0.000554479
0.000151256
-0.000141718
-1.99195e-05
1.61657e-05
0.000145472
0.000108109
-0.000197914
0.000127954
-3.81484e-05
-0.000155478
0.000183337
3.58347e-05
-0.000226874
0.00027278
-0.00133369
0.000141325
1.41966e-05
-2.26723e-06
0.000100272
2.3449e-06
0.000184938
7.89852e-06
0.000237402
-0.00016833
0.000322629
-0.000391701
0.000264055
0.000681535
-0.000535171
0.000106096
-1.69563e-05
-0.000122608
0.00036001
-0.000336426
-0.000944259
-5.30089e-05
-0.00120716
-0.000445136
3.90847e-05
2.28576e-05
6.39344e-05
0.000224488
-4.28151e-05
0.000114171
0.000113675
8.6229e-06
-0.000119953
0.000215658
-9.33207e-05
9.07279e-05
0.000132848
-0.000123369
4.1936e-06
-5.60405e-05
-0.000339626
0.000217017
0.000376596
0.000237507
-0.000522648
1.46923e-05
-0.000142965
0.000338704
-3.93196e-05
5.25913e-05
-0.000804993
-0.000259114
0.000170666
-0.000101138
4.46899e-05
-4.27044e-05
4.5842e-05
-0.000105986
-0.000502447
-7.99562e-05
0.000618526
0.000415868
-0.000431347
1.27193e-05
-0.00149565
-0.000253602
0.000262076
-6.46993e-06
2.77849e-05
-1.41428e-05
7.08199e-06
-1.15048e-05
8.35784e-05
-0.000118275
-0.000145247
0.000179943
0.000790665
-0.000827039
-1.78764e-05
3.50301e-05
-5.64733e-05
0.000432823
-0.000282293
-0.000391759
0.000241229
-8.54295e-05
-2.48254e-06
2.78682e-05
0.000512712
-0.000403218
-0.000105083
0.000599408
0.000124201
6.05667e-06
0.000108011
-0.000480042
0.000634746
-0.000203688
-0.000542707
-0.000208669
0.000751376
-6.43198e-05
0.000178651
-0.000189357
-3.6974e-05
0.000165242
-3.06985e-05
0.000172932
-9.22485e-06
-0.000259729
0.000187159
-0.000609536
0.000757723
-0.000148187
0.000121079
-0.000114207
-0.000349797
0.000133631
-0.000177148
0.000393314
-0.000380262
0.000173594
-0.000108396
0.000315064
-0.000182697
-4.73043e-05
0.000211326
0.000267368
-0.000669373
0.000621525
-0.00021952
4.85872e-06
-6.95546e-05
-1.21388e-05
6.90607e-05
-0.000173236
0.000397208
4.18982e-05
-0.000307331
0.000447264
-9.68239e-05
-0.000738884
0.00057814
-0.000215935
-0.000166272
-0.000309722
-0.00133074
-0.000336807
0.000630207
0.000280023
-6.37622e-05
-0.000607794
0.000673418
-0.000489386
0.000656075
-0.000108658
-0.00061324
0.000658136
0.000151401
4.50986e-06
-0.000362053
-0.00037321
0.000427931
2.2558e-05
-0.000193714
3.57713e-05
0.000135385
-0.000522041
0.000480172
-8.99246e-05
-0.000711794
0.000247825
0.000792842
0.000112984
0.000508032
0.000266361
-7.88476e-05
-0.000467173
0.000401565
6.56078e-05
0.000570361
0.000453647
-0.000485192
-7.44413e-05
9.21505e-06
-7.40345e-05
6.48194e-05
0.000354225
0.00055753
-0.000706568
0.000766819
-0.000376034
-0.000538497
-5.02362e-05
0.000270604
-0.000294546
-0.000687851
-0.000398376
0.000265654
-0.000126392
0.000454387
0.000196615
-0.000434105
0.000255335
0.000608496
-0.000649788
0.000617803
-0.000177708
1.43077e-05
-3.86482e-05
-0.000575831
-4.81919e-05
5.11026e-05
4.29313e-05
0.000496567
-0.000504396
5.81553e-05
-0.000122475
-0.000349537
-0.000491243
0.000398168
0.000332125
-0.000667607
-0.000325101
0.000391321
-0.000392645
0.000165123
-0.000250073
0.000477595
-5.83424e-05
1.96887e-05
9.1245e-05
8.03792e-05
0.000402067
-4.0201e-05
0.00102833
0.00074357
0.000383073
-0.000382739
0.000134115
2.37564e-05
0.00061054
-0.000588023
-0.000234022
0.000211505
0.000254531
0.000291317
-0.000100622
-0.0011491
0.00106793
0.000281835
-0.000545495
9.91447e-06
6.16763e-05
-2.23098e-05
-4.92809e-05
7.45936e-05
-2.51978e-05
4.26446e-05
-0.000418379
-0.000237506
-0.000118064
9.318e-05
-0.000655505
0.00020845
0.000462064
6.17811e-06
-1.06716e-05
8.291e-05
-0.000142703
0.000177792
-0.000117999
0.000139609
0.00109351
-0.000915277
-2.39275e-06
1.31034e-05
0.000165883
0.000650246
-0.000748277
0.000547087
-0.000409214
0.0003186
5.67215e-05
-0.000146536
-0.000137121
6.54023e-05
0.000336163
-0.000716496
0.000744867
-0.000146434
-0.000434023
-0.000131126
-0.000163112
0.000624533
-0.00025532
-0.000336866
0.000199541
-5.55703e-05
-5.04125e-06
-1.80519e-05
0.000372138
0.000625669
-0.000176772
0.000307917
-0.000141933
1.81888e-05
-1.26006e-05
0.000502444
0.000264646
0.000303888
-8.83613e-05
0.000180774
0.000524181
0.000766355
-0.000910984
-8.2933e-05
-0.000195267
-3.16549e-05
0.000196224
-6.48025e-05
5.49321e-05
4.8027e-05
-0.00013889
0.000446672
0.000302676
-0.000306667
-5.21615e-05
-0.000210003
0.000143802
0.000449274
2.41783e-05
3.3977e-05
-0.000480265
-0.000174811
1.42075e-05
-0.000310737
-0.000294179
-0.000240405
-0.000284953
-0.000479957
0.000415396
0.000115667
-0.000284487
-7.02876e-05
-3.74694e-06
0.000561076
6.31995e-06
0.000524203
-0.000140749
-0.000900053
-0.000192531
0.000169801
-0.000303947
3.53775e-05
-4.31798e-05
-0.000287683
0.000526278
0.000350571
5.84233e-05
-0.000150182
-0.000248936
-0.000153059
0.000208241
0.000508114
3.59967e-05
0.000460377
0.000959621
-0.000902768
0.000610631
-0.000641718
2.27137e-05
-1.33845e-05
5.25097e-05
0.0010505
-9.08796e-05
-7.24268e-05
8.92271e-05
0.000291047
-0.000260917
7.80141e-05
-0.00048783
-0.000244252
-0.000317463
-0.00083267
-7.00983e-05
5.19903e-06
-6.51601e-05
9.54192e-05
-3.54581e-05
0.000643638
-0.00110069
0.000493887
-3.68352e-05
0.000292624
0.000412393
-4.89787e-05
2.0471e-06
0.000139143
-0.000288635
0.000313675
-2.50396e-05
-0.000173451
3.64358e-05
0.000172045
0.000265946
0.000306205
0.000155525
-0.000267987
-2.06479e-05
-0.000221541
0.000244455
-2.29142e-05
-0.000424952
-0.000439951
0.000486006
-4.60549e-05
-0.000193514
9.99094e-05
-0.000204778
-1.67625e-05
0.000962984
0.000398168
-0.000363886
-3.42815e-05
-0.000152016
-0.000407763
9.2321e-06
-0.000559336
-2.35326e-05
-1.62341e-05
5.02111e-05
-0.000103429
0.00115393
-2.54961e-05
-4.47915e-05
-4.17832e-05
0.000197104
-0.00013231
0.000173211
4.87155e-05
-6.26763e-05
-0.000220115
0.000234076
-1.45335e-06
-1.59543e-05
-0.000172843
-0.000564037
-9.9444e-05
-0.000753307
0.000271701
0.000662306
0.000741457
-0.000935412
0.000123192
-2.15372e-06
6.42557e-05
-0.000214436
-1.12046e-05
-0.000177138
-0.000158907
-6.73564e-05
-3.42032e-05
-0.000568017
-1.95018e-05
0.00056557
0.000602726
-0.000615879
-0.000268168
0.000137857
-0.000134124
2.71138e-05
-0.000416699
0.000425582
-0.000326489
-0.000512146
-0.0004434
0.000480009
-5.02772e-05
-0.000479888
0.000490194
7.37404e-05
0.000258141
-0.000691437
0.000286996
7.7116e-05
-0.000134798
9.41178e-05
0.000338388
2.7782e-06
-7.52206e-05
0.000137557
1.7343e-06
0.000544285
-0.000764348
5.3618e-05
0.000376513
-0.000252022
0.000234321
-4.65774e-05
-0.000287931
0.000360071
-0.000720554
0.000514079
0.000649525
-0.000530141
0.000215477
-5.07441e-05
-0.000305903
0.000278578
9.12918e-05
-0.000317076
-1.10382e-06
-1.33147e-05
-0.000118929
-8.28255e-05
0.000170069
0.000512165
-2.14562e-05
3.39733e-05
-0.000414013
4.311e-05
8.70589e-05
0.000322076
-5.58745e-05
2.92746e-05
4.27111e-05
-0.00018639
5.36122e-05
7.23265e-05
-5.24153e-05
-7.7494e-05
-9.31393e-05
-0.00018051
-0.000224695
0.000299649
0.000128038
-0.000195732
0.000383938
-7.84255e-05
-0.000129797
3.23389e-05
-0.000103975
-1.23944e-05
6.98894e-05
-0.000380555
-3.83095e-05
0.000345915
4.53166e-05
0.000114005
0.000146888
3.33795e-05
8.76531e-05
0.000120388
-0.000195613
0.0002117
-0.00024481
3.31101e-05
-0.000655781
0.000638598
-0.000291096
0.000411427
0.000158346
-8.77026e-06
-0.000199488
-0.000311131
-0.000162205
0.000587868
-9.31109e-06
0.000340789
-0.00124824
-0.00040296
0.000406346
-0.000424883
0.000539497
5.60971e-06
-0.00046195
-0.000239615
0.000342026
-0.000254526
-0.000264317
-0.000487409
0.000174188
6.92224e-06
6.09429e-05
0.000234333
-0.000241658
-0.000342855
0.000148135
-0.000250296
0.000246867
-0.000256244
2.20962e-05
0.000447911
7.01931e-05
-2.05146e-07
7.70481e-05
-6.16655e-05
-0.000163684
0.000517692
0.000113574
-0.000686067
-0.000225031
0.000706261
3.00131e-05
0.000158551
6.79626e-05
-0.000208656
0.000602586
-0.000579119
-2.84814e-05
0.000427944
-0.000113973
8.31436e-05
-0.00119175
0.000104374
-7.92603e-05
-0.000277773
0.000146164
0.00021087
-4.5446e-05
0.000985883
-0.000466661
0.000128559
3.21475e-05
-0.00073747
7.86542e-05
-0.000447863
0.000400556
-9.26532e-05
-0.000225335
-0.000665203
0.000477711
-2.30972e-05
-0.000246413
-2.6671e-05
0.000505177
2.51474e-05
-4.03258e-05
-0.000136665
2.18004e-05
-9.69802e-05
0.000168333
0.000596587
-5.23028e-05
-0.00065386
-0.000110487
2.18976e-05
0.000229252
-9.63118e-05
0.00032252
0.000382575
4.41599e-05
-0.000553191
-0.000418194
0.000134707
8.10732e-05
3.86509e-05
0.00014009
-0.000674896
7.14974e-06
-1.5605e-05
-8.75151e-06
-9.95279e-05
0.000663253
-0.000832579
-5.57045e-05
0.000240357
0.000101849
-0.000248899
-0.000653247
-2.41878e-05
0.000631989
-8.43711e-05
0.000623141
-0.00073922
0.000996974
-8.73608e-05
0.000179777
3.2557e-05
-7.66494e-05
0.00065039
-6.96356e-05
0.00034118
-0.000754715
6.90781e-05
-4.74722e-05
0.000398237
6.03343e-05
-0.000261374
0.000186989
-8.33581e-05
0.000157742
0.00098856
0.000142251
8.42619e-05
0.000130317
-0.00030335
-0.00043728
-0.00015841
0.000334316
-0.000345557
-0.000496469
1.67239e-06
0.000284158
-2.63189e-05
-0.000259511
-0.000236814
-0.000337381
0.000400207
0.000173989
0.00050895
7.11847e-05
-3.88067e-05
-0.000297855
0.000305068
-0.000179963
-0.000339227
0.000427981
-0.00024493
-0.00016775
5.25132e-07
0.000122045
-9.77118e-05
-0.000368303
0.000285772
6.59572e-05
0.000304854
-0.000148132
8.35906e-05
-6.30841e-06
-0.000214591
-3.76742e-05
-0.000141617
0.000924582
6.97177e-05
-8.89113e-05
-4.97002e-05
0.000102018
-0.000294878
-0.000253004
0.000551167
-0.000382158
0.000305851
0.000791902
-0.00067122
-0.000120682
-0.00025127
0.000253563
-2.29243e-06
-0.000231958
0.000221352
-0.000218172
-3.18017e-06
0.000907461
0.000243723
-0.000189802
0.000197288
-7.4859e-06
0.000210888
2.10852e-05
0.000239102
-4.18138e-05
-0.000604713
0.00101624
0.000281158
0.000574088
-0.000536837
-3.72515e-05
0.000305528
0.000232257
0.000225649
6.60799e-06
0.000321535
-1.60072e-05
0.000224396
1.25275e-06
0.000236886
-1.24897e-05
0.000249283
-0.000112082
0.000776977
0.000466031
-9.28694e-05
-0.000110203
0.000590687
-8.86342e-05
7.70307e-05
-0.000100776
-9.11332e-06
0.000929239
-0.000159707
-6.35863e-05
0.000187086
0.000434915
1.67707e-05
0.000592512
2.37544e-05
2.24291e-05
-5.49021e-06
-4.59295e-05
9.92787e-06
0.000270392
7.84732e-05
0.000684293
-0.000686768
-7.36024e-05
0.000484429
0.000301571
-0.000104657
-3.82796e-06
3.14438e-06
-7.96241e-05
-7.6074e-05
-0.00022341
0.000249078
0.000581045
-0.000248831
0.00025062
4.46035e-05
0.000162069
5.65839e-05
-0.000112332
0.000883251
-0.00114679
9.82488e-05
0.000437932
-0.000159637
0.000824712
-3.15431e-05
0.000318693
-0.00111186
-8.48399e-05
-0.000122497
0.000222449
-5.62964e-05
7.76206e-06
5.20838e-05
0.000537137
-0.000434721
0.000554735
6.51214e-05
0.00036327
9.96349e-05
0.000206919
0.000139829
-0.000262245
7.34422e-06
-0.000143413
4.21932e-05
0.00026517
0.000251792
-0.000573373
-0.000109785
0.00058565
-0.000420147
0.000431324
-2.40806e-05
-7.41016e-05
-0.000301344
-0.000140312
5.89529e-05
0.000161938
-0.000326874
-3.78139e-07
-0.000230985
0.000224515
6.18539e-05
-4.6564e-05
-3.76063e-05
-0.000279998
0.00027617
0.000378662
-0.000612169
-2.26972e-05
-0.000514251
9.31309e-05
0.000289422
-0.000411999
-9.27302e-05
-0.000272053
0.000406249
0.000166373
-0.000458854
-8.78415e-05
-0.000381135
2.0006e-05
-0.000135546
0.00080654
-0.00017926
-0.000179349
-0.000133582
0.000419902
-0.000183321
0.000118887
5.41408e-05
0.000350953
1.57849e-05
0.000117225
0.000820318
-0.000470215
-1.27803e-05
-7.4943e-05
0.000147462
2.66997e-06
-4.2537e-05
-0.000233414
2.97499e-05
-1.66154e-05
6.55418e-06
-0.00049789
-3.73324e-05
0.000309581
-2.29895e-05
0.000948991
-0.000345856
0.00012321
0.000701235
6.30747e-05
0.000225399
9.4665e-05
-3.03536e-05
-1.31771e-05
-5.51067e-05
0.000118209
-0.000308841
-9.78086e-05
0.000286197
-0.000157689
6.09672e-05
0.000172512
-0.000137786
0.000138139
0.000443389