/*--------------------------------*- C++ -*----------------------------------*\
| =========                 |                                                 |
| \\      /  F ield         | OpenFOAM: The Open Source CFD Toolbox           |
|  \\    /   O peration     | Version:  v1912                                 |
|   \\  /    A nd           | Website:  www.openfoam.com                      |
|    \\/     M anipulation  |                                                 |
\*---------------------------------------------------------------------------*/
FoamFile
{
    version     2.0;
    format      ascii;
    class       surfaceScalarField;
    location    "0.25";
    object      phi;
}
// * * * * * * * * * * * * * * * * * * * * * * * * * * * * * * * * * * * * * //

dimensions      [0 3 -1 0 0 0 0];
oriented        oriented;


internalField   nonuniform List<scalar> 
2708
(
-0.000135065
1.25083e-05
6.34126e-05
5.91437e-05
-9.98882e-05
0.000130647
1.70261e-05
-4.77852e-05
0.0012133
0.000246239
-0.000719019
-0.000740523
-0.000311836
0.000166562
5.02933e-05
9.49806e-05
-3.07542e-05
2.33653e-05
0.000253879
-0.00024649
0.000207922
0.000175451
-8.98404e-05
-0.000293532
-0.00010295
0.000166669
0.0005958
-0.000829957
0.00101044
-0.000776281
4.82032e-05
0.000221062
-0.000263476
-5.78895e-06
-0.00051797
8.02282e-05
-4.44872e-06
0.00044219
-0.000294788
4.71393e-05
-3.7746e-05
0.000285394
-4.83883e-05
2.80483e-05
2.034e-05
-0.00018527
0.000231235
-6.95384e-05
2.35742e-05
0.000868435
-0.000879288
3.37949e-05
-2.29415e-05
0.00011234
-1.49819e-06
1.4379e-05
-0.000125221
4.42588e-05
-6.33994e-05
1.91406e-05
-2.95896e-05
9.84819e-05
4.34479e-05
0.00016585
-0.000353211
0.000204874
-1.75129e-05
-1.03783e-05
1.1625e-05
-1.2467e-06
-0.000290701
1.32547e-05
-1.73411e-05
-9.55756e-06
6.77905e-05
-1.10406e-05
-4.71923e-05
0.000266315
-0.000164555
-3.83215e-06
2.6043e-05
0.000133483
-0.000155694
0.000843403
5.0155e-05
-2.51232e-05
0.000381281
6.94941e-05
-0.00040586
-4.49149e-05
-0.000273722
5.14558e-06
-2.21245e-05
-0.000407403
0.000334216
-0.000165613
0.0002388
2.79337e-05
-1.56601e-05
-0.000891562
-0.00103689
8.47633e-05
0.000956842
-4.71647e-06
0.000318384
-0.000357109
-6.80648e-05
0.00010679
-0.000458189
0.00103038
-0.000592742
2.05526e-05
0.000956136
0.000465333
-0.000633575
-0.000787895
0.000247666
0.000183251
-0.000430917
-0.000200361
0.000255095
-5.47334e-05
-0.000365492
0.000431277
-6.57848e-05
-0.000812959
0.000922032
0.000444477
-0.00055355
-0.000105586
2.45355e-05
0.000294032
-0.000212982
-0.00118587
0.00114236
-5.33143e-05
9.68259e-05
-8.53419e-05
9.22073e-05
-8.85019e-06
-0.00140053
-3.59559e-05
0.000250613
-0.000403623
-0.000284488
5.16565e-05
0.000636455
-5.52478e-05
-4.17409e-06
5.94219e-05
9.41115e-05
-7.92491e-05
0.000145981
-0.000160843
0.000204933
-0.000285322
7.90586e-06
7.2484e-05
4.99383e-05
6.17937e-05
-0.000214873
0.000103141
2.37426e-05
-0.000332374
-9.44828e-07
0.000309576
4.0456e-05
0.000559291
-0.000301574
-0.000298173
-3.25465e-05
4.12691e-05
-0.000986438
0.000977715
-0.000666023
0.00118724
-0.000883823
0.000362603
2.98996e-05
-0.00108256
0.00110907
-5.64109e-05
-0.000360542
-6.39936e-05
0.000364693
5.98427e-05
-4.89862e-05
4.22934e-05
-0.000511277
-0.000241051
0.000147388
0.000141866
-4.02661e-05
-3.63068e-05
0.000123317
-4.67445e-05
-0.000508028
0.000242926
0.000232927
3.21747e-05
-0.000991321
9.26415e-05
0.000979348
-8.06681e-05
0.000457674
-0.000264473
-0.000438128
0.000244927
-9.80696e-05
6.58771e-05
0.000252528
-0.000220336
-0.000568037
0.000541915
2.21363e-05
6.49093e-05
-9.66031e-05
0.000191706
-0.000158802
7.55197e-06
-0.000168951
-0.000140883
0.000197138
0.000112696
0.000312164
-0.000633884
-0.000491239
-0.000426944
0.000472567
0.00101164
-0.00105726
0.000851678
-0.000170774
-4.93458e-05
-0.000631558
-1.7581e-05
2.45752e-05
0.000268876
-0.00027587
0.000175138
1.63338e-05
-5.59869e-05
-1.08141e-05
2.26287e-05
4.41723e-05
-0.000624319
0.00102891
-0.000735005
0.000330414
-0.00010625
-0.000160559
-0.000261032
8.67638e-05
0.000263511
-8.92425e-05
0.00017518
0.000153973
-0.000118625
-0.000210528
8.51368e-05
0.000162529
-8.79037e-05
-0.000249185
0.000314029
2.30596e-05
7.55971e-05
0.000992453
-0.000821811
0.0009671
6.5542e-05
-0.00101506
-1.75792e-05
0.000136687
-0.000265905
-7.19659e-05
0.000201184
-0.000953611
0.000926007
-0.00039934
6.06812e-06
-0.000354887
4.85442e-06
0.000343964
0.000201514
-0.000284635
0.000248251
-0.00016513
-6.39011e-06
-8.93162e-05
0.000143885
-4.81791e-05
-0.000262962
-5.98089e-05
0.000196292
0.000126479
-0.00015961
0.000219153
-0.00011264
5.30974e-05
-0.000117097
1.64306e-05
0.000165597
-6.49312e-05
-0.000143074
3.46662e-05
0.000101851
6.55721e-06
0.000808602
6.89734e-05
-3.41727e-05
5.70029e-05
-9.04646e-05
0.000260606
-0.000227144
-0.000209934
-0.000170017
0.000135675
0.000244276
-0.000280252
0.000180772
-4.35938e-05
-7.14207e-05
-2.49778e-05
-2.06982e-05
0.00112912
-1.88683e-05
3.21099e-05
2.77984e-05
-2.86278e-05
0.000299252
-0.000298423
0.000117706
-0.00014412
4.85503e-05
0.000205521
8.11824e-05
-0.000111524
-5.93565e-05
-0.00100356
0.00103163
3.129e-05
0.000123748
3.3713e-05
-9.53574e-05
-6.21039e-05
-0.000828623
-0.000295589
-6.75224e-05
-7.89144e-05
9.04499e-05
2.75703e-05
-0.00108688
0.00108689
-2.75737e-05
7.25874e-05
-5.73254e-05
-0.000199575
0.000184313
0.000273275
-7.51282e-05
8.0033e-05
-0.00027818
0.000184062
-2.93463e-05
7.87605e-05
-0.000233476
-0.000291995
0.000232541
1.07854e-05
4.86685e-05
0.00103982
-0.00146403
0.000185415
0.0002388
0.000532564
1.12564e-05
1.13909e-05
-0.000555212
9.11789e-05
9.53166e-05
-0.00102405
-7.18585e-05
-0.000200098
0.000291741
-1.97849e-05
9.80195e-06
0.000173502
-0.000228695
4.53907e-05
-8.7974e-06
0.000216273
-0.000225057
0.000846804
-0.000582187
4.25239e-05
-0.000307141
0.0001557
-0.000160074
-0.000164577
0.000111777
-6.98433e-05
0.000142128
3.73875e-05
-3.77764e-05
0.000273664
0.000210948
0.00015816
-0.000203258
3.71881e-05
4.08939e-05
-7.36002e-05
-4.48173e-06
0.000759978
9.09213e-05
-4.22965e-05
9.37418e-05
0.000139447
-0.00113728
0.00113873
9.28085e-05
-9.42671e-05
-0.000168408
-0.000170713
0.000558978
-0.00015029
0.000807997
0.000170797
-0.000852215
-0.000126579
-0.00099326
-0.000637343
0.00105504
0.000575559
0.000124301
-0.000226908
-0.000114342
0.000216949
0.000110456
-4.25311e-05
0.000692053
0.000359059
-1.44567e-05
-0.000190629
0.000131156
-6.74117e-05
9.2723e-05
-0.000156467
0.000822504
-0.00104107
0.000356604
-0.000138036
0.000177074
-0.000163924
-4.53254e-06
-8.61803e-06
-0.000401807
2.25174e-05
-0.000102075
-0.000755477
0.000857552
8.22089e-05
0.000192539
-0.00020216
-3.34749e-05
2.53025e-07
-3.81988e-05
-4.63602e-05
3.28611e-05
-0.000266753
-0.000252941
4.17109e-05
-4.98018e-05
9.73787e-06
3.76227e-05
-0.000281579
0.000234219
0.000272515
-0.000270804
4.16168e-05
-4.33273e-05
-0.000376491
-9.55818e-05
7.02662e-05
7.48977e-05
0.000101762
-8.07308e-05
-9.59287e-05
-1.41379e-05
-9.93145e-05
7.99775e-05
0.000898997
-2.35403e-05
-0.000766356
-0.000109101
-0.000106018
0.00113888
0.000154378
-0.00114036
9.59091e-05
0.000860007
-0.00102789
-0.000262905
0.000430792
-0.000231765
-0.000987764
0.00118957
2.99567e-05
0.00017319
-1.71174e-05
-8.90012e-06
3.63263e-06
-0.000247674
-0.000928693
0.000896977
-0.000271036
0.000302752
0.00127063
7.68024e-05
-0.000315969
-0.00103146
-4.81705e-05
0.000911858
-1.20098e-05
0.000156461
-0.000199905
0.000293037
-0.000249593
0.000168466
3.30479e-05
-7.11427e-05
-6.974e-05
0.000176843
0.000387738
-0.000930099
-0.000378157
0.000354645
0.000192884
8.42255e-05
-0.000194901
0.000911802
0.000104068
-0.000169066
-0.000175117
0.000907333
-0.000891658
0.000159442
-0.000331314
-2.64169e-05
4.51963e-06
0.000280709
-0.000276355
0.000192776
-3.11573e-05
-0.000218944
9.16791e-05
8.24232e-05
-6.2325e-05
6.95691e-05
-0.000183526
-5.95284e-05
-6.95216e-06
7.62825e-05
0.000165884
-0.000120037
1.94149e-05
-0.000152396
0.000110237
0.000136538
-0.000150131
0.000206132
-0.000966066
0.000171172
0.000905349
0.000124929
-6.18791e-06
-7.44827e-05
0.000374672
-0.000604692
-0.000578953
0.000808973
1.36816e-05
0.000238924
-0.000876925
-3.43741e-05
0.000918438
1.49333e-05
-0.000312032
2.68742e-05
0.000285157
4.70677e-05
-9.34279e-05
0.00108395
-0.00125998
-0.000152961
0.000328985
-9.88725e-05
-0.000284067
2.58304e-05
-0.000831346
-0.00033507
0.000860414
0.000306002
-8.44126e-05
0.00104665
-0.000949744
-1.24897e-05
-8.72844e-06
-3.21732e-05
-1.54798e-05
5.63814e-05
0.00010185
-0.000990864
0.000962575
-7.35616e-05
-0.000245595
0.000218706
0.000182589
-0.000333671
0.000247734
0.000945945
-0.0009349
0.000927009
-0.000167226
0.000624068
-0.000610454
-1.17251e-05
0.000558548
-0.000513962
2.01557e-05
-0.000236875
-0.000332973
-0.000909103
0.000311977
0.000226246
4.88535e-05
-0.000146564
-0.000128536
-0.000162656
0.000168469
-1.83085e-05
1.2495e-05
-0.000164233
0.0010173
-0.000892679
-0.000158998
0.000291632
7.73315e-05
-9.96768e-05
-0.000269287
-0.000146491
0.000162137
0.00112309
6.65075e-06
2.47088e-05
0.00100846
0.000103082
0.000970073
-0.00103156
-4.15992e-05
0.000152528
4.46101e-05
0.000156161
-0.000197871
-0.000208706
0.000279986
-7.12798e-05
-0.000190907
-0.000925831
0.000188045
-0.000368625
-8.84377e-05
5.34395e-05
-0.000197115
-0.000249615
-2.76302e-05
3.39045e-05
4.07673e-05
0.00102337
-8.67739e-05
-0.000977364
0.000134248
-0.000266388
0.000238144
-0.000106004
-7.50178e-05
0.0010569
-0.000650608
-0.000265612
0.000672615
-1.52235e-05
-0.000889157
0.000127095
0.000881431
-0.000200529
0.00097742
0.000148995
-0.000159338
-0.000967076
-0.000368619
-0.000154379
0.000258524
0.0001198
0.000174766
-0.000228689
0.00019012
0.000904559
-0.000182877
4.91592e-05
0.000146064
3.10233e-05
-5.43888e-05
9.77648e-05
2.43048e-05
-6.76808e-05
0.000369011
-9.18515e-05
0.000583833
-0.000860993
0.000353172
-0.000103071
0.000515351
0.00122784
-0.000364235
-0.000354785
0.00081048
-0.000883934
-1.83975e-05
-0.00101989
-0.000831175
0.000591088
0.000857738
-0.00092155
0.000169348
-0.00101631
4.01377e-05
0.00100997
0.000935617
-0.000188652
1.39304e-05
0.000149743
-0.000186904
0.000182083
0.000185592
0.0010123
0.000202022
-0.000526064
0.000954403
-0.0012583
-0.000412558
-0.000924613
0.000811107
-0.000617274
0.000877332
-8.51952e-05
-0.000991176
8.86075e-05
4.54016e-05
-0.0002651
8.46337e-05
-0.000937564
0.000664214
-5.96228e-05
0.000208242
-0.000252659
2.65681e-05
1.78492e-05
-0.00110942
-3.58103e-05
0.00107021
-0.000176256
0.000157758
-0.000181916
0.000101779
-6.35785e-05
0.000143716
-0.0003126
0.000462108
6.26076e-05
-0.000223983
0.000338218
-2.4695e-05
-0.000200419
0.000287721
0.000756969
-0.000175048
-0.000214565
-0.00101687
0.00014173
-0.000975349
-7.43148e-05
0.00117758
-0.000127912
-1.87736e-05
5.79196e-05
-0.000489839
0.000411691
0.000804822
0.000451755
-0.00115349
0.000129622
-0.000204216
-0.000963174
0.000986605
-2.34314e-05
-0.000119407
0.00011468
4.72636e-06
0.000224914
-0.00016825
0.000151578
-0.00104674
-2.35984e-05
0.00107034
-0.00100399
0.00101508
-1.1087e-05
-0.000933274
-0.000118286
1.73364e-05
0.000110496
-5.29347e-05
0.00024075
-0.000873247
-0.00102836
3.99806e-05
-0.000981615
0.00107442
0.000907388
-0.000240796
-0.000927576
-8.61713e-05
0.000939765
7.39823e-05
-4.71548e-05
-4.53665e-05
-4.12073e-05
0.000133729
0.0010008
1.06514e-05
0.000443026
-0.000981384
4.39408e-05
-3.79066e-05
7.8397e-05
-0.00101964
-3.43105e-05
-0.000898964
0.00102078
-0.00067683
1.65357e-05
-0.0001901
-2.60116e-05
-0.000164298
-5.31709e-05
0.000169081
1.80379e-05
-2.29741e-05
0.000235771
-0.000230835
0.000131378
0.000423151
-5.78764e-05
-0.000374008
-2.30332e-05
6.42545e-05
-0.000293881
3.92955e-05
-6.27165e-05
-3.09678e-05
1.62689e-05
-0.000201894
-0.0009622
-0.000401816
-0.000857452
0.000539764
0.000719504
-0.00102222
-0.0010516
-9.26175e-05
5.5257e-05
0.00108896
0.000551578
3.16587e-05
0.00115887
-1.3136e-05
-0.00117739
-0.000681017
-0.000552145
0.000201569
0.000226224
-0.000381405
-4.63875e-05
0.000984236
-0.00104321
-0.000364232
0.000180826
0.00122662
0.000118349
-0.000154163
-0.000128419
0.000160154
-0.0010744
0.00101609
0.000126092
-6.97794e-05
0.000168602
-0.000220509
0.000189264
-0.00134679
-1.79898e-05
0.000296869
-0.000417144
0.000288741
0.000310759
0.00103792
-6.51358e-05
-0.00128355
-0.000151495
0.000182844
-0.0002016
0.000144849
0.000378541
-0.000261061
-1.73891e-05
-2.30895e-05
1.01569e-05
5.91501e-07
0.000864233
-4.22817e-05
-8.22244e-06
4.98572e-05
6.46957e-07
-9.03089e-05
5.54727e-05
-1.58988e-05
1.93727e-05
0.000111725
-1.93748e-05
9.04939e-05
0.000330849
0.000143054
-0.000342526
-0.000253438
0.000249304
5.29047e-05
-4.87711e-05
0.000299497
-0.00098336
-0.00017132
-6.96966e-05
-0.000235706
-3.56734e-05
9.42349e-05
-0.000115662
-6.5151e-05
6.41871e-05
4.61015e-05
-8.52681e-06
-0.000232677
0.000215263
-5.61884e-06
0.000194012
8.05942e-05
-0.000157161
-0.000117446
-0.000189885
-6.82409e-05
0.000405322
0.000923229
-0.000402544
6.8766e-05
0.00014996
-0.000186181
-3.25454e-05
0.00107975
-4.36013e-06
-9.66412e-05
3.45546e-05
6.64467e-05
0.000177796
-0.000359063
0.000274145
-9.2878e-05
0.000265613
-0.000316629
0.000115271
0.000323131
-0.000248885
-2.5393e-05
0.000142802
-0.000202115
0.000161092
0.00036399
-6.72765e-05
-0.000449109
3.35611e-05
-4.77291e-05
-3.40711e-05
0.000334068
0.000135187
4.8758e-05
-0.000106332
-7.76131e-05
0.00117801
-0.000891951
-0.000205143
-6.16018e-05
0.000135824
0.000135602
-0.00024661
-0.000517533
0.000628541
-0.000138238
0.000101157
3.70815e-05
0.000105216
-0.000916265
-7.28846e-05
4.88331e-05
-2.49815e-05
-2.38516e-05
-3.63134e-05
5.02436e-05
-1.39302e-05
-1.99181e-05
3.03412e-05
-1.04231e-05
9.54475e-05
-7.26049e-05
-2.28426e-05
-0.000111396
3.30765e-06
0.000108089
9.87213e-05
-3.09615e-05
-6.77598e-05
-0.000184314
0.000210633
-2.63189e-05
-0.000156016
0.000169318
-1.33013e-05
5.81571e-05
3.72905e-05
-0.000112892
1.49529e-06
-0.000164665
2.64264e-05
0.000253999
-0.000232963
-2.10366e-05
0.000155718
-0.000131077
-2.46409e-05
-0.000153478
-0.00010743
-4.85869e-05
-0.000156516
-6.21949e-05
7.36965e-05
-1.15016e-05
-1.18683e-05
-2.44452e-05
6.23296e-05
-1.34965e-05
0.000130144
-1.54642e-05
2.18691e-05
3.6782e-05
-5.86511e-05
5.82256e-05
-4.36958e-05
-2.90652e-05
1.45353e-05
-5.40794e-05
4.33292e-05
-0.000165738
0.000149019
-8.31694e-05
0.00012393
-0.000127166
-5.81928e-05
2.44597e-05
-8.17373e-05
0.000258847
-8.16576e-05
1.89599e-05
0.000160462
-2.78321e-06
1.21403e-05
-0.000105998
1.72923e-05
-0.000329907
-0.000637129
-0.000338914
0.000387843
0.00106218
0.000322187
-6.81881e-05
0.000111463
6.15413e-07
-0.000112079
-1.02753e-05
-3.17864e-05
-1.41702e-05
-8.55606e-05
-2.63716e-05
0.000113046
-7.62636e-05
4.65313e-06
-2.23293e-05
-1.19512e-05
9.54627e-06
-3.45277e-05
-0.000234819
-0.000766993
0.000237794
0.000764018
0.00103929
-0.000267088
-4.54467e-05
-6.05945e-06
0.000164053
-0.000158986
9.92075e-07
7.76252e-06
-3.37567e-05
0.000915115
-0.000924532
9.26694e-05
-8.32529e-05
-4.23791e-05
-8.60079e-05
0.000120369
8.01774e-06
0.000205825
-5.01074e-05
-9.67459e-05
4.8029e-05
8.32715e-05
2.27988e-05
0.000315995
7.84274e-05
-6.66916e-05
-5.81714e-05
4.64356e-05
0.00108239
-0.000302403
2.4249e-07
-0.000209459
-4.42219e-05
0.000435376
-0.00111431
0.000989695
-2.91349e-05
3.95678e-05
5.59116e-07
-5.74217e-05
0.000157162
-0.000370337
0.000728527
-5.73528e-05
-0.000174979
0.000178847
0.000907004
0.000426299
-0.000411271
8.32798e-05
-8.47561e-05
0.000658796
-0.000367887
-0.000290908
-5.87793e-05
8.36463e-05
1.67005e-05
-4.15675e-05
-0.000132299
0.000102429
-1.72841e-05
0.000276817
-5.20821e-05
-0.000332935
0.0001082
-2.8514e-05
4.43124e-05
-2.76853e-05
0.00019709
-0.000326653
-5.36494e-05
0.000183213
0.000193976
-1.29277e-05
5.58518e-05
-0.0002369
0.000329072
-0.000270059
0.000204136
-0.000263149
-7.60607e-05
0.000157348
0.000115802
-7.19967e-05
3.81501e-05
-2.49327e-05
0.000135729
0.000250178
-5.68359e-05
4.98234e-05
-0.000129439
9.57773e-05
-1.61619e-05
-2.13711e-05
0.000140583
-4.05582e-05
0.000185642
-0.000285666
-0.000585357
2.62115e-05
-0.000175944
-0.000120326
-1.80573e-05
3.14048e-06
-0.000153537
-2.19379e-05
0.000172334
-0.000328303
7.87349e-05
0.000103299
-0.000162363
0.000107844
-4.87809e-05
-9.46752e-06
-2.3604e-05
-0.000293582
0.000104646
3.02158e-05
-8.50385e-05
-8.46098e-05
7.8976e-05
0.00020977
-8.82273e-05
2.84942e-05
3.5693e-05
-1.16392e-05
0.000119426
-3.09964e-05
4.9573e-05
5.50996e-05
-5.80353e-05
2.93572e-06
-0.000335006
2.03518e-05
0.000318822
-4.16786e-06
4.22695e-05
-0.000134535
-0.000242741
-7.49191e-05
0.00015623
0.000170772
3.01536e-05
-0.000200926
0.000140833
-0.000231851
-6.25185e-05
0.000202744
-8.38492e-05
7.12966e-05
8.77034e-05
3.49762e-05
0.000258986
8.67486e-05
-0.000303465
6.9842e-05
0.000179859
-0.000262629
0.000132113
-0.000164803
-2.09603e-05
7.8059e-05
-0.000162582
0.000154365
-0.000114668
7.95465e-05
0.000106418
2.88111e-05
1.82231e-05
4.06692e-05
0.000143251
-0.000354393
7.89946e-05
0.000430785
-0.000455329
0.000533434
-0.00050889
-1.65748e-05
-1.42299e-05
3.08047e-05
5.44541e-05
-5.04741e-05
-1.41852e-06
-8.81738e-05
8.57601e-05
-0.000490863
0.000136712
-0.000125818
0.000133715
-0.00049876
9.88993e-05
-0.000808765
-5.53326e-05
0.000629278
-1.40954e-05
2.11914e-05
-8.5145e-06
-0.000334658
0.000485657
0.000344079
-0.00024584
-0.000320306
0.000315075
2.79833e-05
-2.27514e-05
-4.41744e-05
1.7506e-05
0.000865753
-0.000206957
1.6753e-05
-4.04513e-05
9.6029e-06
-0.000428969
4.22283e-05
-0.000780958
0.000358044
0.000317176
-0.000671835
0.00033158
-0.00023475
7.16393e-05
-8.7637e-05
-6.05993e-05
0.000148236
-3.15842e-05
-0.00032436
-1.91927e-05
2.32466e-05
-0.000143817
0.00100957
-0.00110529
-0.00115309
0.000273717
0.000433274
0.000148573
-6.87055e-05
-2.71528e-06
-0.00010143
-7.37631e-05
0.000118372
5.6821e-05
4.02476e-05
-4.27613e-05
2.4603e-05
-2.20893e-05
0.000117259
5.35126e-05
5.9224e-05
6.8103e-06
-2.33851e-05
-3.00242e-05
-0.000349264
4.63536e-05
-0.00052439
0.000371262
0.000511172
-5.3789e-05
-9.08439e-06
-0.000325954
1.06775e-05
-0.000297822
-1.4663e-05
0.000312485
2.60791e-05
-2.51323e-05
3.16369e-05
-3.25837e-05
9.50432e-05
-8.93826e-05
-0.000930192
-9.70566e-05
0.000111707
1.14288e-05
-7.49876e-05
-3.41692e-05
0.000274755
8.85866e-06
-0.000283613
-4.75811e-05
-0.000138634
5.67758e-05
-0.000223784
0.000136232
0.000228135
3.78802e-05
-0.000302223
0.000130775
-0.000157254
7.99911e-05
-0.000451516
-7.47755e-06
0.000104369
-0.000149947
2.03267e-06
1.01668e-05
-3.55845e-05
6.84833e-05
-3.99892e-05
3.23253e-05
3.6158e-05
0.00011508
0.000147714
-4.98654e-05
4.04102e-05
-2.78153e-05
1.56181e-05
0.000124367
-2.30677e-05
-7.52064e-05
0.000135534
-0.000211278
2.6363e-05
-0.000153463
-4.69552e-05
0.000118576
9.44589e-05
-9.32282e-05
4.65073e-05
-4.5967e-05
3.90275e-05
0.000297923
-1.19376e-05
-0.00029507
-1.59058e-05
-0.000158364
3.36129e-05
-4.20661e-05
-1.33527e-05
2.18059e-05
1.48608e-05
-1.01977e-05
-7.73935e-05
0.000145518
-3.94849e-05
4.01254e-05
-0.00113494
-5.12197e-06
-0.000940255
-0.000338168
1.64558e-05
0.000181096
-6.09938e-05
4.70436e-05
-8.13059e-05
-0.00013165
0.00017731
-0.000171548
0.000125888
-5.19731e-05
0.000124195
0.000203299
7.60382e-05
-0.000212369
0.000289568
0.000354088
-0.000431287
-0.000331579
0.000110203
0.000357608
-9.59262e-07
0.00058627
0.000105404
0.000140684
-0.000113598
-0.000100849
-9.24941e-05
-0.000961523
-2.47388e-05
0.000992913
7.83517e-05
1.0144e-05
-0.000374478
1.507e-05
0.000173403
-9.51441e-05
4.2552e-05
5.25921e-05
0.000981068
-0.00103438
-7.26087e-05
-0.000411441
0.000173547
7.89689e-05
-4.42373e-05
0.00015852
-0.000183969
-0.000177068
0.000202517
1.20688e-05
-0.000101367
-0.000317126
0.000109437
0.000224417
-0.000247105
0.000143132
0.000202368
0.000235427
-0.000204821
0.000127915
0.000215432
-0.000120655
1.63855e-05
2.0987e-05
-3.07529e-05
-6.61955e-06
2.54513e-05
-5.07883e-05
0.000344159
-0.000860405
5.1477e-05
0.000123361
2.44295e-05
-0.000104462
-0.000396292
0.000102593
-4.78118e-05
-3.40037e-05
8.18155e-05
-0.000128479
-1.43917e-05
0.000100492
0.000180448
-0.000269456
3.53506e-05
-2.3146e-05
-0.000196124
1.74918e-05
-0.000375427
-4.90329e-05
0.000400856
-1.29705e-05
0.000263654
-2.98163e-06
0.000220656
-0.000988078
-0.000327133
7.24811e-06
-0.000741827
1.91036e-05
0.000154162
0.00013478
3.9609e-05
6.55188e-05
-0.000103661
-1.4668e-06
-8.03819e-05
0.000201812
-5.69886e-05
-2.93148e-05
0.00109205
9.89015e-07
3.26049e-05
-0.0010569
-3.08148e-05
-0.000325009
0.000473151
7.56034e-05
0.000154246
2.26788e-05
0.000250438
0.00124852
0.00109759
0.00014217
0.000173292
0.00110513
0.000303082
6.42208e-05
-5.37373e-05
3.75966e-05
7.88367e-05
-6.18474e-05
-0.000922138
0.000105674
-5.1861e-05
8.49088e-05
-7.56513e-05
-5.37065e-06
-2.57007e-05
1.75658e-06
-0.00046375
2.23786e-05
0.000130938
-9.92371e-05
-0.000139346
6.77146e-05
0.000278047
7.51281e-05
-0.00040373
-4.58756e-05
0.000144562
-0.000152671
-1.50375e-05
0.000773778
-0.000137753
-0.000597621
-3.84038e-05
-0.000705313
0.000660503
0.000265466
-0.000134965
0.000386794
-0.000255996
2.57627e-06
-1.99475e-05
-0.000124115
-1.19588e-05
-0.000203487
0.000271952
0.000142868
-0.000986609
-4.72317e-05
0.000339664
-0.000307095
0.000117698
-9.77147e-05
1.23425e-05
0.000169298
6.4788e-05
5.89978e-05
7.61749e-05
-0.000400292
-7.54521e-05
0.000419654
5.609e-05
0.000180216
-0.000168292
-0.000217583
0.000200345
0.000222112
0.000452483
0.000315114
-0.0005898
3.47677e-05
6.3565e-05
0.000873961
-0.000141962
8.30534e-05
-0.000341383
7.44988e-05
3.48899e-05
6.55634e-06
-0.00026332
-3.68177e-05
-0.00100753
0.00104045
-0.000282539
1.44236e-05
0.000115747
0.000139649
-3.46832e-05
-0.000322549
-0.000395474
8.3442e-05
-0.000966719
-0.000199808
-2.59412e-06
3.34327e-05
-0.000464074
0.000796997
4.877e-05
0.0010241
-0.000988564
-0.00016153
0.000192084
0.000109095
-0.000109955
0.000212529
-0.000148307
-0.000155973
0.000151436
0.000152844
-0.000309102
0.000117437
-0.000156693
-9.57094e-05
2.73683e-05
-0.000152329
-0.000203188
0.00029572
0.000150004
-2.13896e-05
-0.000529337
-0.000236608
4.03944e-05
-0.000168446
-3.74945e-05
0.000102535
-0.000135853
-2.35524e-06
0.000167463
-0.00013673
0.000975902
-0.00122646
0.000251549
-4.58738e-05
-0.000118375
0.000722328
5.63395e-05
0.000945858
0.000277469
-9.96283e-05
-0.0011237
-8.89854e-05
-2.55143e-05
0.000180747
0.00020155
5.75231e-05
-7.65675e-05
1.44549e-05
4.58947e-06
0.000193942
-0.000175676
0.00017785
-0.000196116
0.000180633
-0.000196625
0.00133465
9.82685e-05
4.92958e-05
3.51495e-05
0.0013264
-8.33819e-05
-0.000180164
-3.63393e-05
6.1328e-05
7.84026e-05
2.36338e-05
-0.00103198
8.04027e-05
0.000216753
-5.04459e-06
0.000180229
5.56256e-06
-0.000985687
-0.00117613
0.000735332
0.000120416
-0.000260353
0.00034519
0.000242868
-0.000398921
-0.000189137
-1.32936e-05
-7.02604e-06
-8.8118e-05
1.78715e-05
-0.000135867
0.000174614
5.72842e-06
0.000272417
0.000129314
-0.000236003
-0.000159503
0.000135818
0.000206898
-0.000275919
-0.000103356
0.000226946
-8.16922e-05
-1.67443e-05
-2.84085e-05
-1.11367e-05
0.000207642
0.000130004
0.000126091
0.000112087
-0.000166568
-0.000439468
8.34704e-05
-9.77391e-06
-3.82655e-05
4.16139e-05
0.00086917
0.000117091
-0.000117816
-0.000817794
0.000220835
8.95791e-06
1.19621e-05
0.000472485
0.000395901
0.000129508
-4.81829e-05
0.00108466
-0.00054121
-2.79436e-05
-0.000278528
0.000203057
7.40683e-06
4.57843e-05
-3.86038e-05
2.49044e-05
0.000417128
-0.000159262
-0.00016102
2.90206e-05
-0.000727288
0.000677864
4.94242e-05
3.46301e-05
-4.97628e-07
-7.57e-05
-6.83841e-05
0.000292596
6.74199e-05
0.000900188
0.000128423
-0.000789326
6.20379e-05
5.1253e-05
0.00107422
-9.0828e-05
-0.000949889
0.00101598
-0.000130003
0.000218946
-3.4251e-05
-5.46926e-05
0.000191248
0.000117544
-0.000173606
5.80021e-05
0.000619862
0.000257606
0.000151551
-0.000333138
-7.60188e-05
0.000218982
0.000118704
-9.83791e-05
-0.000239307
-0.000237266
4.50504e-05
0.000192216
-0.000220754
6.07141e-05
-4.02418e-05
-7.86651e-05
-0.000296464
-9.90097e-05
-0.000282044
4.47776e-05
-0.000324575
8.92852e-05
-0.000171971
-4.7317e-05
-0.000894997
-0.000189103
6.21844e-05
-6.92049e-05
-0.000145509
-0.000170777
-0.000180929
0.000140709
-0.000151962
0.000243115
0.000104841
0.000141304
0.000404002
0.000552134
-0.000368044
0.000102659
0.000348827
-0.00048926
0.000474001
1.5259e-05
8.2705e-05
-0.000872031
9.90225e-05
-0.000114092
0.000174778
0.000207001
-4.53142e-05
0.000867296
-0.000366872
0.000401045
-0.000426168
0.00018993
0.000131411
0.000214161
-4.41125e-05
0.000878361
-0.000194828
0.000355752
-0.000960808
0.000658478
0.000632744
-0.00106674
-5.0129e-05
0.000622739
0.000231969
-0.000205925
-0.000635198
0.000525142
0.000506371
-0.000579759
0.000311319
0.000503391
-0.00026526
-0.000113401
1.40666e-06
0.000109279
-5.3166e-05
-2.08176e-06
-0.000611364
0.000715726
-0.000508938
1.96774e-05
-3.73902e-05
-6.56212e-05
0.000284238
0.000152645
-5.02371e-05
6.27845e-05
2.50492e-05
0.00029797
-0.000282723
4.08434e-05
-8.75478e-06
-9.30255e-06
0.000464769
9.23211e-06
8.09423e-05
2.3454e-05
-4.68732e-05
8.29738e-05
0.000186559
-0.00010321
-0.000145742
-0.000416259
0.000202939
-0.00018335
8.66777e-06
9.6736e-05
-0.000449109
6.83069e-05
8.82906e-05
-3.93092e-06
8.17358e-06
-0.000368293
0.00012511
-0.000121052
-3.35871e-05
2.91342e-05
0.00030086
2.20146e-05
-5.0221e-05
-0.000133057
-6.82197e-06
-0.000921195
0.000180931
-0.000129274
0.000104598
-0.000169492
0.00101351
-0.000961181
7.44567e-05
2.32178e-05
-0.000256987
5.73175e-05
2.13555e-05
0.000128456
-0.00108742
3.26512e-05
0.000271445
-0.000118934
0.000129089
0.000138604
-2.45776e-05
0.000936964
0.000120983
-0.000183558
6.30102e-05
-1.03353e-05
9.38056e-05
0.000146081
2.85157e-05
-0.000912615
0.000629132
7.92673e-05
-2.83502e-05
-0.000328237
2.52733e-05
6.67566e-06
-0.000195127
6.4291e-05
0.00111735
6.98866e-05
-0.00108143
-0.000143156
0.000103958
6.36279e-06
7.05823e-05
7.81837e-05
-0.000105376
0.00016388
0.000506584
-0.000730689
0.000224105
0.000439773
6.6811e-05
0.000451456
-1.16829e-05
-0.000310132
0.000467294
-0.000680469
-0.000603667
-0.000504986
-9.86814e-05
1.79167e-05
-3.66401e-05
-4.55543e-05
5.79071e-05
-0.00093831
-0.000121159
0.000232629
0.000178966
0.000250559
1.04002e-05
-8.0605e-05
-4.74198e-05
-2.98353e-05
-2.81779e-05
3.3568e-05
-1.06522e-05
-0.000171403
0.00017178
-8.13628e-05
5.50885e-06
2.12468e-05
1.16124e-05
0.000426727
0.000809833
-0.000190862
0.000277593
-7.17673e-05
0.000403293
-0.00019963
6.77819e-05
-0.000217899
-0.00100786
0.000134478
-2.30843e-05
0.000209092
-0.000477149
-2.78368e-05
0.00054205
-0.000183763
-0.000769558
0.000117153
1.78763e-06
0.000407863
-0.00012719
7.31771e-05
0.000144613
-7.1561e-05
2.94831e-05
9.86073e-05
-0.00115239
0.00104065
-4.19804e-05
4.97539e-05
-1.2267e-05
0.000282408
-0.000319894
-0.000239692
0.000208388
1.89363e-06
2.84476e-05
-0.000151151
1.71479e-05
7.97206e-05
-0.0011906
2.12439e-06
0.000682475
-0.000383849
0.000208572
-5.22437e-05
0.000288468
0.00017734
-8.60278e-05
-0.000127292
-0.000142943
7.51086e-05
-0.000112671
8.71212e-05
-0.000115868
-8.12978e-05
0.000104787
-3.26041e-06
-0.000619823
-0.000340706
-0.000238907
-0.000299154
-0.000215799
-2.41151e-05
7.75511e-05
-3.93938e-08
-6.31998e-05
3.34039e-05
0.00101704
-8.66549e-05
-2.8901e-05
0.000405156
-0.000447552
-0.000239662
-4.05816e-05
0.000227072
-0.000803
0.00112278
-0.000136534
0.000261436
5.39768e-06
0.000206343
3.68777e-05
1.02212e-05
-2.64125e-06
0.00103965
7.15987e-05
6.93264e-05
-0.000128417
-0.000177804
0.000441591
-0.000403182
-0.000615541
0.000133325
-0.000883695
4.14116e-05
0.00027348
-4.56747e-05
-7.19191e-05
6.78388e-05
0.00108808
7.0875e-05
-0.000181833
0.000155052
-0.00046479
-6.18044e-05
-0.000390371
0.000239237
0.000437242
0.000311611
-0.000263608
6.22342e-05
0.000323496
4.79576e-05
3.02473e-05
-4.88271e-05
0.000192743
-1.18121e-05
-0.000214759
0.000197642
-0.000965887
0.00103402
-0.000248692
0.000180556
0.000160273
-1.02675e-05
-1.78971e-05
7.51878e-06
-0.00021878
-0.000248311
0.000323139
-0.00029304
0.000305385
8.93109e-05
-6.18077e-05
8.09754e-05
-5.55613e-05
-1.71816e-05
-4.97532e-05
-0.00115824
0.000141237
0.000436219
-3.50525e-06
-7.25264e-06
-0.000115605
-0.00107133
0.000970127
1.98576e-05
-2.00881e-05
0.000993143
0.00035942
0.000560172
-0.000483203
-7.69695e-05
-9.91049e-05
0.000281647
0.000164273
7.01029e-05
-0.000212185
0.00020687
-0.000910826
0.000923382
-0.000240937
3.78734e-05
-0.000173389
0.000113295
6.00941e-05
0.000229124
-0.00026687
5.5735e-05
5.47107e-05
5.85843e-05
-0.000284211
-0.000279066
0.000319857
-0.00106652
-0.00025891
7.54627e-05
-1.61197e-05
-6.10584e-06
-0.000335233
0.000329852
0.000176243
-2.69056e-05
-0.000149338
-0.000127629
-0.00012589
-0.00023643
8.80659e-06
-0.000131621
6.82218e-05
0.000208971
-0.000309629
0.000225574
0.000177083
-1.43869e-05
-0.000248984
-9.92571e-06
0.0003113
0.00018152
3.76662e-05
6.005e-05
0.000237982
0.000123802
3.56857e-05
-0.000271802
0.000150556
1.94091e-05
-2.29492e-05
-5.68468e-05
5.40953e-05
0.000195754
-1.95104e-05
-0.000246308
-2.67666e-06
3.97614e-05
0.0001268
0.000274894
-0.000251528
9.14799e-06
-0.000111299
-0.000125293
2.84226e-05
0.000102289
0.000445687
0.000104779
-0.000220277
-1.15018e-05
-0.000257645
0.000221772
-2.60186e-05
-0.000120748
5.8153e-05
0.00105551
-9.1795e-06
-0.00101638
-4.24473e-05
-1.65512e-05
0.000398663
-0.000139669
-0.000300572
-0.000227095
-3.96581e-05
8.76452e-05
-7.66776e-06
0.000439337
1.5538e-05
5.37883e-05
-0.000191049
0.000230811
-7.44413e-05
0.000349335
0.00140791
-0.00113781
0.000362908
-0.000924915
-7.46028e-05
0.000174652
1.75014e-05
0.000251971
-0.000116221
0.000557108
-0.000727882
-0.000123793
9.139e-05
-1.38179e-05
0.000192919
-0.000103511
0.000270038
-8.07422e-05
-0.000887786
4.33642e-05
0.000293376
-0.000365062
0.000399888
-5.0514e-05
0.000589136
0.00092486
-0.00026548
0.00013403
-0.00022467
0.000280856
-0.000121136
0.000116113
0.000682391
5.1971e-06
5.19681e-05
0.000203369
-1.06257e-05
-5.66835e-05
0.000135488
-3.61734e-05
-2.95981e-05
0.000302532
0.00011453
5.52915e-05
-0.000155398
4.06731e-05
-6.42922e-06
-0.00011342
6.70054e-05
1.47193e-05
-0.000347165
0.000106972
0.000117612
2.44704e-05
0.000913145
-0.000922356
0.000143443
7.7562e-05
7.6338e-06