/*--------------------------------*- C++ -*----------------------------------*\
| =========                 |                                                 |
| \\      /  F ield         | OpenFOAM: The Open Source CFD Toolbox           |
|  \\    /   O peration     | Version:  v1912                                 |
|   \\  /    A nd           | Website:  www.openfoam.com                      |
|    \\/     M anipulation  |                                                 |
\*---------------------------------------------------------------------------*/
FoamFile
{
    version     2.0;
    format      ascii;
    class       volScalarField;
    location    "0.17";
    object      nut;
}
// * * * * * * * * * * * * * * * * * * * * * * * * * * * * * * * * * * * * * //

dimensions      [0 2 -1 0 0 0 0];


internalField   nonuniform List<scalar> 
1431
(
0.00105594
0.00167288
0.000677655
0.00173665
0.000741766
0.000984369
0.000883967
0.00399767
0.000728115
0.000714628
0.00424581
0.00342453
0.00162465
0.00143951
0.000717652
0.000904516
0.00128307
0.000528187
0.00154944
0.000666348
0.00546162
0.00303854
0.00076544
0.00335306
0.00071072
0.00158779
0.00385304
0.000779787
0.000327885
0.000435021
0.00100427
0.000828295
0.000936864
0.000884357
0.00142818
0.00084137
0.000981693
0.000660489
0.00143359
0.000790602
0.00104481
0.00105904
0.00160889
0.00184535
0.000583066
0.000896133
0.00095963
0.00376324
0.00105011
0.00108769
0.00139888
0.00186133
0.00169347
0.00540617
0.00127277
0.00148235
0.000509156
0.0043735
0.000899381
0.000422022
0.000704956
0.00096249
0.000518206
0.000460437
0.000620371
0.000564951
0.000405257
0.000577075
0.000358393
0.00103421
0.00234359
0.000842786
0.00061173
0.000620018
0.00114318
0.0004789
0.000390593
0.000445616
0.000822835
0.00033572
0.00103302
0.000444895
0.00110693
0.000814614
0.00164871
0.00208687
0.000655608
0.000867243
0.00165389
0.00144735
0.000732841
0.000782269
0.000725585
0.0010755
0.000941129
0.00037558
0.00455358
0.00180456
0.00203058
0.000415422
0.00143307
0.00118741
0.00139902
0.000537518
0.000490453
0.00134373
0.000999873
0.00295234
0.000785033
0.00108372
0.00047616
0.00148629
0.00200542
0.00101595
0.00134157
0.000617458
0.00102616
0.000852212
0.000665542
0.000413315
0.00111349
0.000673905
0.00162926
0.000998673
0.00153187
0.000650412
0.000571699
0.000986584
0.000721318
0.000772931
0.00090102
0.00028998
0.00104986
0.00111491
0.000851286
0.00102125
0.000713023
0.00183151
0.00238971
0.00030348
0.000592601
0.00100604
0.000835799
0.000257589
0.000897073
0.000868052
0.000568099
0.00160612
0.000864643
0.000559088
0.000816544
0.000481017
0.000824079
0.000736183
0.00110955
0.000933615
0.0019765
0.00199832
0.00130903
0.0012801
0.00266099
0.00152848
0.000960208
0.000975055
0.00183195
0.00100811
0.00101684
0.000986887
0.00106359
0.00156452
0.00211693
0.00154392
0.000861623
0.00236811
0.00178073
0.0019085
0.000991997
0.000843529
0.001633
0.00166384
0.000589982
0.00189322
0.00122901
0.00560108
0.000919853
0.000611126
0.00105776
0.00188763
0.00124663
0.0016292
0.00125588
0.00114097
0.00100354
0.00371057
0.000718013
0.00201968
0.00214749
0.0017498
0.000517041
0.000633517
0.00197392
0.00101184
0.00426923
0.000666072
0.00165101
0.0013468
0.0010532
0.000514804
0.00265894
0.000926906
0.00126597
0.000829247
0.00103061
0.0013616
0.00227024
0.000777886
0.0010098
0.0018037
0.000840627
0.00460445
0.000945526
0.0013111
0.000925484
0.00101196
0.00114628
0.00335262
0.00367246
0.00164514
0.000864195
0.00356436
0.00241442
0.00101107
0.00143432
0.000963807
0.000858719
0.00198236
0.00106152
0.00157193
0.00119237
0.0018803
0.00129894
0.00111875
0.002935
0.00152123
0.00126253
0.00327344
0.00165345
0.00377974
0.000968512
0.000996092
0.0010203
0.00230513
0.00129704
0.00162081
0.00131165
0.000835354
0.00131568
0.0039617
0.00228157
0.00101683
0.00102588
0.00231911
0.000949321
0.000962117
0.00127125
0.00519318
0.000965746
0.00490267
0.00382445
0.000318836
0.000879646
0.00105111
0.00157481
0.00185054
0.00270808
0.000833401
0.00264218
0.00364053
0.000599089
0.000687336
0.00156132
0.000832419
0.00085616
0.00132555
0.00117288
0.00155986
0.000880097
0.00204355
0.00153625
0.00197069
0.000256316
0.000836941
0.00201387
0.00131936
0.00296965
0.000793326
0.00134338
0.000684527
0.00121019
0.000620634
0.00170944
0.000296117
0.00151438
0.00173196
0.00287985
0.00133586
0.00198295
0.00108211
0.000951817
0.00150557
0.00222937
0.00053535
0.000750776
0.00150877
0.000790994
0.00220738
0.00172782
0.00122051
0.000929608
0.00956668
0.00185482
0.00213655
0.000465602
0.00100907
0.00139778
0.000838492
0.000332319
0.000743042
0.00669633
0.00148521
0.000693524
0.000935848
0.000744272
0.00370624
0.00127318
0.00176161
0.0007793
0.00186562
0.00128067
0.00118382
0.000316672
0.00172862
0.00240648
0.000972208
0.000765081
0.00142803
0.00186677
0.00243332
0.00205195
0.00152292
0.00130167
0.000849987
0.00115442
0.00142608
0.000850644
0.000637663
0.00236684
0.00115937
0.00210197
0.000956605
0.00317656
0.000605167
0.000651409
0.00146772
0.000864697
0.00188395
0.000699976
0.00666821
0.000769982
0.00131883
0.00379181
0.00109474
0.00166187
0.00111774
0.000927396
0.00585523
0.00175539
0.000639097
0.0016114
0.00684442
0.00134358
0.00105726
0.000686772
0.000760907
0.00917779
0.000818335
0.00169029
0.000785467
0.00149727
0.00106314
0.00134595
0.00180885
0.00178479
0.00135743
0.00243923
0.00135923
0.00121701
0.00116556
0.000686612
0.000993974
0.00158868
0.00088934
0.00239474
0.00080467
0.00164143
0.00124279
0.000906261
0.000359348
0.00111863
0.00129026
0.00176133
0.00157423
0.00134135
0.00185826
0.000793366
0.000751713
0.00134303
0.000323116
0.00112893
0.00140141
0.00102207
0.00170167
0.00112559
0.00130981
0.00146708
0.00109845
0.000933045
0.00287747
0.00168726
0.00283796
0.00100652
0.00102672
0.000948382
0.00113743
0.000911842
0.000931522
0.000967393
0.000960188
0.00103454
0.00101005
0.00102458
0.00239285
0.000990306
0.000970208
0.000828515
0.000921498
0.000967715
0.000938085
0.00094026
0.00192374
0.00145108
0.00113996
0.00156038
0.000886377
0.00176245
0.00133507
0.0028532
0.00403248
0.000799317
0.000771868
0.00230559
0.000855569
0.0037588
0.00167453
0.000779296
0.000862371
0.000878857
0.00353994
0.0010176
0.0033656
0.00152078
0.00166007
0.000815806
0.00378593
0.00241813
0.00231197
0.00114517
0.000889974
0.000903058
0.00129715
0.00405928
0.000958416
0.0024498
0.000980779
0.000795549
0.00382964
0.000827822
0.000756797
0.000822162
0.000800432
0.00258032
0.00115826
0.00107318
0.000955069
0.0034494
0.000833675
0.00143629
0.00265499
0.0013779
0.000815789
0.00185209
0.00124306
0.000892269
0.000633188
0.00259666
0.00236375
0.00109948
0.00118706
0.00154588
0.000852451
0.000999034
0.00405588
0.000875975
0.00124959
0.000651658
0.00134627
0.00191152
0.0010526
0.00416332
0.00241332
0.000782557
0.00146366
0.000822985
0.00138294
0.00133116
0.00140132
0.00259869
0.000789756
0.000885064
0.000347188
0.00203284
0.00161854
0.00169478
0.00494754
0.00104719
0.00152854
0.000997684
0.000599908
0.00132246
0.00085463
0.0014121
0.000595335
0.000981601
0.001469
0.00079757
0.00100558
0.00116076
0.000610924
0.00130114
0.000917387
0.00152536
0.000586912
0.000858764
0.0015301
0.00122886
0.00341237
0.00140368
0.00181931
0.00059464
0.00629995
0.000899217
0.0026765
0.00237144
0.0011472
0.00790981
0.000758386
0.000714727
0.000993381
0.0018435
0.000774926
0.0015735
0.00261792
0.00111211
0.00117311
0.000287619
0.00161258
0.00138681
0.000481674
0.00119362
0.00111417
0.00155528
0.00222602
0.000608329
0.00163446
0.00158132
0.00107239
0.00138508
0.00147706
0.000361488
0.00084333
0.00151945
0.000473402
0.00154195
0.00105065
0.00102789
0.00120029
0.00369102
0.00170998
0.00196266
0.00247923
0.000715747
0.00164396
0.00129211
0.00156869
0.00200049
0.0011033
0.00192379
0.00195114
0.00164709
0.00099841
0.00139744
0.0010458
0.00171641
0.00127759
0.00074994
0.000780666
0.00140023
0.00126915
0.00162547
0.00173962
0.00142302
0.00186159
0.000289974
0.00161035
0.00135245
0.00149874
0.00107917
0.000954638
0.00223098
0.000955028
0.00169122
0.0016023
0.000657239
0.00119456
0.0015895
0.00185955
0.00340986
0.0014069
0.000736226
0.00185239
0.000702837
0.00245691
0.00151253
0.00137988
0.000488993
0.00148238
0.0017905
0.00145949
0.00184917
0.00147887
0.00178251
0.000812454
0.000458322
0.00190109
0.00108982
0.00125004
0.000745772
0.00177966
0.00162483
0.00197592
0.00256982
0.00109037
0.00165484
0.001394
0.00182221
0.00296158
0.00123392
0.00179588
0.0016557
0.00075406
0.00154018
0.00104452
0.000797223
0.00107261
0.0017
0.00193559
0.000815054
0.00371726
0.000697195
0.00176248
0.00182046
0.000746119
0.00122599
0.000780931
0.000615151
0.000575721
0.00157475
0.000739564
0.00113169
0.000355844
0.00525569
0.00117965
0.000940902
0.000355006
0.000338407
0.000871408
0.000376732
0.000725166
0.000322377
0.00262041
0.000354923
0.00169206
0.00151977
0.00035032
0.000514589
0.000846838
0.000447475
0.000363253
0.00134502
0.000960314
0.000776133
0.000515703
0.002659
0.000863716
0.00138787
0.00101752
0.00188145
0.000800108
0.0018461
0.000679511
0.00102557
0.00136176
0.00227232
0.00166321
0.000511421
0.000767703
0.00356242
0.00180751
0.00278465
0.00457306
0.000983054
0.00126802
0.00137817
0.00158945
0.00533295
0.00140096
0.000902056
0.000397461
0.000756584
0.0014037
0.000369913
0.000787564
0.00166652
0.000641889
0.0011073
0.00118535
0.00251666
0.000761567
0.000753071
0.00198274
0.00127617
0.0016343
0.000903431
0.0017824
0.00409095
0.000761947
0.000801494
0.00102855
0.00084274
0.000371511
0.00468828
0.0039882
0.00172297
0.00186404
0.000897828
0.000995698
0.0012088
0.0011051
0.00121446
0.00159021
0.00182916
0.00139489
0.000753052
0.000855952
0.000806862
0.0012176
0.000345996
0.000849529
0.000940517
0.000911754
0.00142117
0.000568732
0.00160872
0.00116541
0.000356943
0.00284133
0.000933468
0.00145276
0.000865982
0.00117804
0.00450454
0.00105014
0.00100309
0.00100616
0.0011347
0.000317825
0.00179122
0.00186783
0.00174939
0.00169406
0.000820564
0.00335812
0.000919906
0.00107135
0.00112573
0.00867195
0.0013281
0.000857322
0.00072126
0.000855747
0.00896675
0.000644284
0.00161228
0.00213958
0.000779215
0.00445805
0.00143489
0.00110478
0.000861988
0.000690291
0.000747204
0.00513579
0.00146143
0.00118913
0.000355072
0.000370308
0.000785376
0.0010281
0.00108071
0.00166509
0.000889889
0.000421084
0.000706763
0.000863005
0.00126421
0.00579163
0.000949757
0.000946572
0.00147025
0.00117873
0.00168449
0.000919213
0.000903984
0.00144668
0.00160652
0.0020733
0.000648566
0.00653131
0.00104573
0.0027256
0.00080431
0.00112401
0.00158727
0.00124057
0.000418325
0.000626598
0.000830385
0.00100906
0.000623834
0.000679259
0.000975651
0.0011816
0.000915769
0.000998583
0.00154436
0.000956568
0.00150069
0.000825215
0.00237133
0.00105773
0.0011649
0.00855405
0.000917573
0.000406402
0.00144034
0.000702199
0.00090881
0.000582947
0.000922117
0.000710591
0.00315746
0.0020457
0.000688003
0.00250714
0.00839987
0.00421394
0.00297405
0.000871513
0.000355103
0.000334679
0.000282591
0.000304913
0.00103148
0.000356114
0.00029982
0.000346701
0.000314983
0.000331274
0.000688602
0.00113633
0.00037988
0.000512889
0.000568714
0.000404455
0.000341652
0.000328163
0.000407117
0.000317986
0.000323552
0.000397131
0.000337318
0.00160789
0.00290752
0.000981398
0.00191537
0.0010868
0.00276794
0.00117967
0.00250913
0.00073929
0.00162031
0.00186123
0.00068928
0.000839566
0.00558799
0.00389557
0.000864426
0.00289697
0.000689649
0.00133885
0.000949688
0.000659362
0.0050512
0.000663131
0.000345648
0.00145652
0.00114482
0.000510897
0.00163269
0.00201316
0.00116726
0.00200735
0.00173731
0.000829373
0.00101988
0.00164508
0.00290089
0.000976308
0.00196895
0.00106291
0.00204179
0.00156022
0.000360991
0.000420337
0.00197131
0.00156024
0.00101314
0.0015152
0.00071865
0.000913848
0.000290658
0.00204286
0.00138616
0.00172699
0.00070153
0.000763485
0.00279954
0.00143873
0.00032416
0.00113967
0.000398957
0.00175492
0.00145134
0.000609592
0.000788638
0.00211612
0.000714793
0.00135372
0.00188183
0.00970472
0.00115055
0.00158579
0.00163616
0.00452059
0.00107159
0.00172795
0.00142891
0.000806433
0.00140458
0.00114607
0.00114921
0.00158124
0.00144141
0.00649662
0.00249563
0.000335523
0.00109832
0.00190456
0.00195786
0.0036356
0.000874589
0.00196369
0.000896713
0.00104396
0.00424094
0.0011363
0.00123999
0.000879641
0.00177956
0.00122897
0.00281598
0.000807139
0.00195798
0.000644798
0.00160331
0.00157485
0.0014693
0.00071094
0.00183609
0.00128346
0.00188497
0.00609801
0.000772794
0.00029602
0.000443389
0.000958597
0.00106091
0.00495946
0.000412741
0.000809608
0.000992848
0.00285881
0.00211961
0.00185298
0.00119497
0.000866801
0.0017673
0.000443715
0.00160923
0.000789329
0.0013672
0.000395463
0.0015261
0.000395996
0.000814288
0.0013949
0.000998837
0.000915645
0.0035644
0.00292818
0.000823365
0.00220744
0.00119937
0.000951217
0.000788544
0.000640964
0.00141047
0.00102326
0.00179667
0.000829541
0.000913892
0.00131307
0.000809247
0.00294664
0.000639151
0.000600032
0.00133134
0.00060474
0.00100205
0.000696923
0.00104709
0.00134956
0.000573331
0.0003439
0.000470497
0.000458649
0.000459287
0.000716374
0.000660095
0.000654958
0.000513842
0.00068779
0.000415443
0.000371044
0.000338415
0.000376803
0.000285389
0.000341264
0.00166022
0.000984865
0.000881088
0.00135807
0.000785101
0.000403749
0.00142263
0.00123165
0.00121121
0.00117519
0.00165905
0.00148784
0.00102394
0.000725014
0.000400554
0.000917272
0.000961956
0.000853096
0.00121322
0.000845246
0.00109883
0.00373953
0.00158069
0.00125068
0.00948892
0.00104699
0.000931162
0.000862348
0.00111377
0.000917446
0.000935839
0.00175078
0.000748965
0.000858027
0.00103069
0.00110696
0.00178738
0.000359542
0.00185182
0.000799613
0.00126435
0.00278407
0.000783714
0.000930687
0.00118059
0.000851406
0.000663378
0.00265489
0.00161653
0.00349116
0.00113679
0.0015936
0.00240598
0.000869449
0.00166935
0.00116536
0.000646321
0.000912838
0.00229548
0.00064901
0.00142203
0.00131852
0.00217641
0.000806916
0.000376716
0.00167132
0.00118075
0.00103113
0.000776715
0.00107994
0.0015737
0.00223907
0.00114354
0.00210772
0.00139437
0.00118645
0.00181351
0.000761423
0.00119005
0.00106418
0.000764457
0.00164111
0.000618697
0.00302343
0.001561
0.00171672
0.00202454
0.00176299
0.00197662
0.000892227
0.00133722
0.00135762
0.00586889
0.0038458
0.00123526
0.000894314
0.000675961
0.000833209
0.00148244
0.000814664
0.000528762
0.00170832
0.000819976
0.00271262
0.00300494
0.00121837
0.0010576
0.00085121
0.000763136
0.00148546
0.00603238
0.000792715
0.000759758
0.00403331
0.00193709
0.000702769
0.000796981
0.00147868
0.000855115
0.00187593
0.00165962
0.00134602
0.00130499
0.00138571
0.00366727
0.00138028
0.00107314
0.000386742
0.00100421
0.00247522
0.000965607
0.00179646
0.00133696
0.00157497
0.00169377
0.000792759
0.00185459
0.00156942
0.000626504
0.00101705
0.00046482
0.00173615
0.00847313
0.00111175
0.000693753
0.00150557
0.00286883
0.0017336
0.00160064
0.000754348
0.00093315
0.000648323
0.000748444
0.000770325
0.00106984
0.00110926
0.0012567
0.00161397
0.00187628
0.00167201
0.00152347
0.00391517
0.00077185
0.00483719
0.000788474
0.00141127
0.00158503
0.00172788
0.00116392
0.000726467
0.00208779
0.00191562
0.00157622
0.00155811
0.00404191
0.00181242
0.00184408
0.000740275
0.000670138
0.00157638
0.00173714
0.00130044
0.000473125
0.000899871
0.00102743
0.00205383
0.00146082
0.00181621
0.00112796
0.00154868
0.0058522
0.00127912
0.000275892
0.000449504
0.00131395
0.000921097
0.00156286
0.00136851
0.00109381
0.00527664
0.00135549
0.000790296
0.00329652
0.00115641
0.00361145
0.00142025
0.00183028
0.000974041
0.00615123
0.0013855
0.000726536
0.000784421
0.00782339
0.00110147
0.000994937
0.000806606
0.000743245
0.00123691
0.000710387
0.0047334
0.00153653
0.00201164
0.000645357
0.00811357
0.000387705
0.00344164
0.00138933
0.000869065
0.00141442
0.00523162
0.00469623
0.000891499
0.000903512
0.000674855
0.00089366
0.000745594
0.000896283
0.000911048
0.00271482
0.000649928
0.000808991
0.000444445
0.00783001
0.000319775
0.000694933
0.00039725
0.00161743
0.00178458
0.0010138
0.00063607
0.00626498
0.00106312
0.000618707
0.00107153
0.000919689
0.000743872
0.00126683
0.00110446
0.0013429
0.00197945
0.00142742
0.00717913
0.00198902
0.00110867
0.00105965
0.000892123
0.00127052
0.000803674
0.00137801
0.000898251
0.00153558
0.000805431
0.00096574
0.000799702
0.0014675
0.000787144
0.000594496
0.000784259
0.00270388
0.00139124
0.00177616
0.00089081
0.00262922
0.00211619
0.00099774
0.00112954
0.00102885
0.00063021
0.00047972
0.00143363
0.00165313
0.000511679
0.00115806
0.002073
0.000727518
0.000826331
0.000827743
0.000689038
0.000666478
0.000600778
0.000589181
0.000539774
0.00162635
0.00207014
0.000746007
0.00181631
0.00146929
0.000641786
0.00189291
0.00178072
0.00141955
0.00152082
0.000597015
0.000382633
0.00288457
0.000427131
0.00101836
0.000748664
0.000311739
0.000383015
0.000582067
0.00047062
0.000572192
0.000445524
0.00119838
0.00206392
0.00126989
0.000709209
0.000456705
0.000472674
0.000567349
0.000572204
0.000472514
0.000319975
0.000387622
0.000860082
0.000481834
0.000302312
0.000426706
0.000702835
0.000644981
0.000404795
0.000387745
)
;

boundaryField
{
    frontAndBack
    {
        type            empty;
    }
    wallOuter
    {
        type            nutkWallFunction;
        Cmu             0.09;
        kappa           0.41;
        E               9.8;
        value           nonuniform List<scalar> 
96
(
3.85794e-05
5.33766e-05
4.509e-05
9.53059e-05
9.74647e-05
9.33241e-05
4.22112e-05
4.21103e-05
4.00319e-05
4.46905e-05
3.80152e-05
4.20647e-05
4.15227e-05
0.000101235
4.3067e-05
4.71709e-05
9.04083e-05
4.40415e-05
4.09542e-05
4.23424e-05
3.74362e-05
4.21045e-05
4.40912e-05
4.99891e-05
8.45333e-05
0.000105084
4.22885e-05
3.96877e-05
3.30257e-05
3.58771e-05
0.000122693
4.24593e-05
3.52581e-05
4.11477e-05
3.71582e-05
3.93034e-05
8.44096e-05
0.000133916
4.54524e-05
6.37939e-05
7.05007e-05
4.8553e-05
4.06627e-05
3.89613e-05
4.89241e-05
3.7657e-05
3.83279e-05
4.77308e-05
4.00332e-05
4.10406e-05
4.25644e-05
5.11743e-05
3.82772e-05
4.73983e-05
7.30731e-05
3.9736e-05
0.000144827
3.46571e-05
5.48402e-05
5.00158e-05
5.26624e-05
4.69162e-05
4.68587e-05
0.000119
7.17214e-05
8.23435e-05
6.8002e-05
4.07788e-05
5.58352e-05
5.44383e-05
5.45148e-05
8.46653e-05
7.8309e-05
7.78321e-05
6.09814e-05
8.17642e-05
4.9039e-05
4.3653e-05
3.95395e-05
4.43722e-05
3.29778e-05
3.98702e-05
4.87889e-05
4.76414e-05
4.31246e-05
4.53358e-05
6.32296e-05
4.59846e-05
5.51542e-05
5.61391e-05
3.21509e-05
5.58715e-05
4.57738e-05
0.000107899
5.32084e-05
4.70793e-05
)
;
    }
    inlet
    {
        type            calculated;
        value           nonuniform 0();
    }
    outlet
    {
        type            calculated;
        value           nonuniform List<scalar> 9(0.00666821 0.00917779 0.00192379 0.00409095 0.00867195 0.00609801 0.000998837 0.00349116 0.00240598);
    }
    wallInner
    {
        type            nutkWallFunction;
        Cmu             0.09;
        kappa           0.41;
        E               9.8;
        value           nonuniform List<scalar> 
126
(
0.000107019
5.18207e-05
8.54196e-05
0.000112753
6.26215e-05
5.5969e-05
7.23569e-05
6.84668e-05
5.16823e-05
7.06358e-05
4.26856e-05
0.00011894
0.000260823
0.000100036
7.10036e-05
7.56367e-05
0.00013091
5.68513e-05
4.33565e-05
5.50365e-05
9.75504e-05
4.07921e-05
0.000121619
5.36063e-05
5.046e-05
7.42024e-05
0.000119717
9.86433e-05
7.8631e-05
4.9883e-05
0.000128143
8.17843e-05
0.000186323
0.000114782
0.000175258
7.74822e-05
5.86361e-05
0.000106407
3.37484e-05
3.64916e-05
6.88437e-05
9.96024e-05
3.0913e-05
6.91061e-05
6.78315e-05
5.69409e-05
8.62103e-05
0.000208138
7.11273e-05
7.26019e-05
0.000121703
8.51197e-05
0.000146603
3.87722e-05
7.11903e-05
8.18936e-05
3.02577e-05
0.000150202
8.10889e-05
7.37356e-05
3.60939e-05
6.39016e-05
8.90605e-05
0.000176287
8.13079e-05
3.98747e-05
8.25608e-05
0.000139683
3.8955e-05
0.000135544
7.20568e-05
7.75115e-05
4.38877e-05
3.9129e-05
6.8097e-05
7.08507e-05
4.24261e-05
7.27689e-05
6.70377e-05
7.36898e-05
6.33988e-05
7.19639e-05
3.35145e-05
5.84044e-05
4.17434e-05
5.71363e-05
8.5655e-05
3.5736e-05
7.66454e-05
5.90518e-05
5.56204e-05
6.20865e-05
5.43435e-05
4.39696e-05
4.93226e-05
7.01803e-05
3.44532e-05
0.000133279
3.49394e-05
8.28607e-05
7.2315e-05
4.68607e-05
5.075e-05
7.95983e-05
3.71305e-05
4.35288e-05
5.61956e-05
5.28501e-05
0.000139264
0.000234845
0.000142716
8.5664e-05
5.58595e-05
6.79827e-05
6.85854e-05
5.72966e-05
3.8588e-05
4.6597e-05
9.94015e-05
5.83776e-05
3.51395e-05
5.23236e-05
8.46375e-05
7.83641e-05
4.9645e-05
4.72846e-05
)
;
    }
    procBoundary3to1
    {
        type            processor;
        value           nonuniform List<scalar> 
48
(
0.0010827
0.00112806
0.00118496
0.00110702
0.000975143
0.000972491
0.00112806
0.00160428
0.00122851
0.000946837
0.000946837
0.000964387
0.000964387
0.000814852
0.000879343
0.000907708
0.000839026
0.000867487
0.000839026
0.000854544
0.000731692
0.00102455
0.000854544
0.000870718
0.000952019
0.000755863
0.00114817
0.00102455
0.00124534
0.00089816
0.00089816
0.00144169
0.00144169
0.00122851
0.000840937
0.00108111
0.00143521
0.000952019
0.00114266
0.000843147
0.000814852
0.00133546
0.00132374
0.000854544
0.00085253
0.000385747
0.000883199
0.000742402
)
;
    }
    procBoundary3to2
    {
        type            processor;
        value           nonuniform List<scalar> 
29
(
0.00107927
0.00107927
0.000634591
0.000648145
0.000357801
0.000506869
0.00049942
0.0010068
0.000998163
0.00083082
0.000672353
0.000532037
0.0007132
0.00143806
0.00168818
0.00156715
0.00167648
0.00123757
0.00110285
0.00136334
0.00150245
0.00167648
0.000431882
0.00123757
0.00141124
0.00150678
0.00123757
0.000705191
0.000705191
)
;
    }
}


// ************************************************************************* //
