/*--------------------------------*- C++ -*----------------------------------*\
| =========                 |                                                 |
| \\      /  F ield         | OpenFOAM: The Open Source CFD Toolbox           |
|  \\    /   O peration     | Version:  v1912                                 |
|   \\  /    A nd           | Website:  www.openfoam.com                      |
|    \\/     M anipulation  |                                                 |
\*---------------------------------------------------------------------------*/
FoamFile
{
    version     2.0;
    format      ascii;
    class       volVectorField;
    location    "0.74";
    object      U;
}
// * * * * * * * * * * * * * * * * * * * * * * * * * * * * * * * * * * * * * //

dimensions      [0 1 -1 0 0 0 0];


internalField   nonuniform List<vector> 
1466
(
(-0.150911 0.699428 0)
(0.145364 -0.899345 -1.29379e-16)
(-0.87247 -0.0356075 -1.56641e-16)
(-0.0171944 1.07357 1.55548e-16)
(0.927275 -0.145478 -6.23259e-16)
(1.69552 0.224848 -4.16592e-16)
(0.472455 -0.140558 2.99463e-16)
(-0.416383 -0.37195 4.45521e-16)
(-0.400726 1.67035 1.45366e-16)
(0.257615 -0.0504978 8.72433e-16)
(-0.251999 -0.0797618 -1.72655e-16)
(0.384382 0.124983 1.75757e-16)
(-0.0566996 -0.0528198 1.07991e-17)
(0.458929 1.23221 -1.20252e-16)
(1.08137 0.146763 -2.61649e-18)
(0.00477099 0.516744 -3.55554e-21)
(-0.492411 0.0154752 7.49222e-17)
(-0.0558641 0.575246 -1.72106e-16)
(0.934443 0.100059 -1.65189e-16)
(0.0828158 1.22591 0)
(-0.0276717 0.0127935 1.63031e-16)
(0.208161 0.100969 -3.76929e-16)
(1.02048 -0.027801 0)
(-0.0289715 -1.18749 7.86302e-17)
(0.589826 1.16126 -1.77844e-16)
(-0.971025 -0.163659 1.6838e-16)
(-0.995742 -0.150336 1.73111e-16)
(0.843617 0.14927 3.08122e-16)
(0.378335 0.107399 0)
(-0.920732 -0.147669 4.30595e-16)
(0.411513 -0.474238 0)
(0.809672 0.364749 7.83286e-16)
(0.541481 0.127582 -3.21352e-16)
(-0.94051 0.0350477 -1.07348e-16)
(-0.307804 0.308552 0)
(0.954329 0.108904 2.79676e-17)
(-0.322097 -0.0605907 6.20172e-20)
(1.09478 -0.0731179 0)
(0.439362 1.04642 -5.30272e-16)
(0.308865 0.0841749 3.35309e-16)
(0.423565 0.0780178 -1.86667e-16)
(0.594213 0.341592 -1.89742e-16)
(-0.358735 1.31123 -4.15449e-16)
(-0.454729 -0.288355 2.46754e-18)
(0.753431 0.0344893 0)
(-0.511663 0.762328 -2.30986e-19)
(0.915713 -0.096306 -1.73502e-16)
(0.0290351 0.301432 1.2979e-16)
(0.584032 0.325919 -2.65291e-16)
(-0.00529031 -0.0547889 -9.15484e-17)
(-0.867318 0.0124864 0)
(0.244497 -0.0434837 -3.48493e-16)
(0.718713 -0.209287 4.39978e-16)
(1.74296 0.063707 4.14312e-16)
(0.0180884 -0.036371 4.51994e-16)
(0.360625 0.207031 -1.39013e-16)
(1.12606 0.0433161 0)
(-0.172225 0.509263 3.26102e-16)
(0.398958 0.145418 1.48197e-17)
(0.403409 0.185737 0)
(0.0296455 0.616863 -2.60757e-18)
(-1.09124 -0.00955539 1.0893e-16)
(0.846901 -0.299618 1.39654e-16)
(1.58445 0.114733 -4.1795e-16)
(0.105863 -0.737261 2.32765e-16)
(0.215336 1.26613 -3.54642e-17)
(0.325011 0.213622 -4.25108e-17)
(-0.0422838 0.0938149 -2.12282e-16)
(-0.0139179 0.950163 -1.39439e-17)
(-0.0766292 0.058225 0)
(-0.886299 -0.0637681 0)
(-0.0231464 0.965448 -6.85723e-17)
(1.10091 -0.0812004 -5.07922e-16)
(-0.0683777 0.766605 -2.38842e-16)
(0.948868 -0.0426288 3.73707e-17)
(0.38253 -0.0999442 -2.18345e-16)
(-0.0781695 0.629103 5.79856e-17)
(-0.0256519 0.700216 2.10745e-16)
(0.503703 0.0543348 0)
(0.261261 0.0993396 0)
(-0.818717 0.0333924 -3.45218e-17)
(-0.0982519 0.625062 2.4079e-16)
(1.01062 0.087961 0)
(0.58975 0.277473 1.61632e-18)
(1.0021 -0.220048 1.91696e-16)
(0.106294 -0.181961 -1.02342e-16)
(0.94677 -0.297807 -2.48058e-16)
(0.114571 -0.824479 1.58002e-16)
(0.161068 1.09192 -3.8838e-17)
(-0.597871 0.039723 7.42533e-18)
(0.0072448 1.1757 1.1231e-16)
(-0.581063 -0.0783584 0)
(0.0703814 -0.0185897 -7.28345e-17)
(0.00555931 1.03425 2.12468e-16)
(-0.803714 -0.0108416 0)
(-0.350393 -0.0187305 -2.13444e-16)
(-0.258446 -0.93333 6.92334e-16)
(0.59413 0.169898 0)
(-0.89818 -0.489673 1.58239e-16)
(0.055642 1.23761 -1.7377e-16)
(0.243195 -0.00361907 0)
(0.757767 0.185267 -9.79463e-17)
(-0.874796 -0.138188 4.13291e-16)
(0.0533778 -0.178449 -1.79405e-16)
(0.995704 0.0527261 0)
(-0.468644 1.04949 -2.71442e-16)
(-0.0625765 0.158881 1.93269e-16)
(0.983453 0.0819024 -7.46538e-18)
(-0.627419 -0.343823 5.85942e-17)
(0.821841 0.764497 6.37404e-18)
(0.25498 0.078322 2.08158e-17)
(0.662049 -0.218473 4.8442e-16)
(0.599983 -0.147182 -3.5837e-16)
(1.03856 -0.130862 -1.71185e-19)
(-0.0495485 -0.128613 -2.17057e-17)
(-0.787146 2.54546 0)
(0.191618 1.27926 -8.10167e-17)
(0.265967 1.31882 5.69111e-16)
(-0.696158 -0.117817 3.70692e-17)
(-0.200041 0.405031 -4.81729e-16)
(-0.396181 0.100171 2.00009e-16)
(-0.138283 0.748337 0)
(0.0440996 0.471976 -7.94322e-17)
(0.234636 -0.912257 -8.00237e-17)
(0.210343 0.979028 3.11109e-16)
(0.0288623 0.226731 -1.27135e-16)
(0.0565416 0.061593 3.07512e-17)
(-1.38448 -0.529189 0)
(0.080766 0.0260577 7.02001e-17)
(-0.331974 1.14526 -2.68662e-16)
(0.638225 0.0639464 1.21421e-16)
(-0.0722891 0.567843 -1.4033e-20)
(-0.509401 -0.0162693 2.54945e-17)
(0.297045 0.20582 -6.92921e-17)
(-0.849714 0.0375735 -1.04875e-17)
(0.132899 0.025519 1.75211e-16)
(0.630301 0.329307 0)
(0.877666 -0.418359 0)
(0.854576 -0.0446368 3.81423e-17)
(-0.122581 0.114271 1.04735e-16)
(0.19162 -0.0274164 -1.15233e-16)
(-0.631697 -0.0432105 -1.67885e-16)
(0.0515095 0.110065 8.00035e-17)
(0.167467 -0.112287 -4.91498e-16)
(0.812411 -0.0105546 1.50564e-16)
(0.344584 0.384026 0)
(0.217164 -0.435319 0)
(-0.938056 -0.367929 0)
(0.152364 0.15699 7.9343e-17)
(1.06328 -0.133636 2.45879e-16)
(0.0726377 0.0974402 -1.59562e-16)
(0.135664 0.177885 4.71498e-18)
(-0.498809 0.167532 1.37114e-16)
(0.256642 -1.06222 -2.38021e-17)
(0.00366591 1.0929 -1.90114e-16)
(-0.678252 -0.162598 -7.67718e-17)
(-0.026485 0.933569 -3.87952e-16)
(-0.279694 -0.986398 1.60591e-16)
(0.256553 0.12085 -8.12357e-17)
(-0.828394 -0.279223 0)
(0.797163 0.12951 1.15347e-16)
(0.148758 1.25622 -2.41757e-17)
(-0.0155494 -0.650692 3.10339e-16)
(-0.373334 0.0388589 1.95388e-16)
(0.715317 0.248513 -5.02895e-18)
(0.0462313 -0.0308103 4.94754e-20)
(0.0671047 1.24186 0)
(-0.300757 0.0494868 1.025e-16)
(0.181172 1.08638 4.7572e-18)
(-1.03096 -0.0924383 3.00856e-16)
(-0.190752 -0.148031 2.74241e-16)
(0.198512 -0.246228 2.64334e-16)
(0.130569 0.119287 0)
(0.0523623 0.135253 1.02597e-16)
(-1.01826 -0.1524 -6.75e-16)
(0.270455 -0.925409 1.91981e-16)
(0.67146 0.303553 1.61852e-16)
(0.294585 0.0802701 -2.50217e-17)
(1.06521 0.221915 -1.3471e-16)
(0.159817 0.0227439 2.49459e-17)
(-0.0518413 0.810516 -2.135e-16)
(0.836574 0.0473678 2.15433e-16)
(0.661985 0.0339658 -3.03427e-16)
(0.260635 1.24199 -5.21946e-16)
(0.205417 -0.816691 -4.12752e-16)
(0.429338 1.24615 5.54295e-16)
(0.777296 0.0553485 0)
(-0.548959 2.52653 0)
(0.872648 0.0504106 -5.25202e-17)
(-0.692382 -0.587482 0)
(0.193066 -0.575439 0)
(0.128803 0.727738 1.3172e-16)
(0.199375 1.29555 2.10743e-17)
(0.0342152 -0.688959 -8.76106e-17)
(0.895902 0.00023726 -3.27361e-20)
(-0.0402124 0.806598 0)
(0.877491 -0.0788132 -5.0218e-17)
(0.878329 0.498693 -1.33081e-17)
(0.974469 0.634344 -1.25772e-17)
(0.828129 0.92243 -5.88461e-18)
(-0.166376 -0.942056 -9.00178e-17)
(0.0414834 -0.241636 3.32616e-16)
(0.980111 0.0716001 -6.19153e-17)
(0.226261 1.18411 2.52506e-16)
(0.231645 0.280372 0)
(0.615375 0.349103 3.49482e-16)
(0.796149 0.0617462 1.65503e-16)
(-0.766467 0.490361 1.36153e-16)
(1.01075 0.234772 4.9332e-17)
(0.475043 0.176031 1.1308e-17)
(0.658754 0.332356 5.43375e-17)
(-0.192997 -1.16256 3.0452e-19)
(0.139 -0.153138 -1.17368e-16)
(0.861753 -0.374079 -1.36838e-19)
(-0.79947 -0.284179 -8.25897e-17)
(0.80185 0.0422716 2.71888e-17)
(-0.840578 -0.357214 -8.12496e-17)
(-0.228581 -0.0426686 0)
(0.140852 1.36112 0)
(-0.0444964 0.941189 2.33465e-21)
(-0.47542 0.000852749 1.42972e-16)
(-0.273289 0.535818 0)
(0.09019 0.994332 6.12862e-17)
(0.869601 -0.180698 3.71666e-17)
(0.0167881 0.149312 -5.61364e-17)
(0.760196 -0.247745 0)
(0.645244 0.944429 7.90906e-17)
(0.163991 0.660078 1.28346e-16)
(-0.279389 0.0975294 2.95378e-18)
(-0.109312 1.5434 -3.55568e-16)
(0.865533 -0.484195 2.62866e-16)
(0.105682 -0.713612 0)
(-0.00399193 0.81074 -1.29835e-16)
(0.41508 0.0739404 2.48274e-20)
(1.05265 0.103508 0)
(0.431416 0.472293 0)
(0.525993 0.0108799 0)
(-0.806808 -0.255011 -5.82337e-16)
(0.632884 -0.0668205 -1.17097e-16)
(0.629625 0.943061 0)
(-0.274152 1.65357 1.46524e-16)
(0.661048 -0.0904801 3.25125e-16)
(-0.496002 -0.0979185 -3.98954e-17)
(0.686061 0.286716 -7.60062e-16)
(0.627899 0.354146 0)
(-0.238515 0.0463132 -1.86076e-16)
(-0.709242 -0.0251356 -5.41598e-19)
(-0.612943 0.00471764 3.43992e-16)
(-0.231864 -0.0435963 0)
(-0.37274 0.0659302 -5.68296e-18)
(-0.0163073 0.899774 -7.72223e-16)
(0.122864 0.389344 -1.02605e-16)
(0.629894 0.286128 -1.31547e-16)
(0.197349 -0.682494 5.01195e-16)
(0.0598791 0.702266 0)
(0.305099 0.322397 1.68908e-16)
(0.851014 0.669735 -1.2114e-17)
(0.119313 1.01068 -6.1153e-17)
(-0.637117 2.84857 1.00814e-16)
(0.318386 -0.0966299 -1.31615e-16)
(0.795104 -0.425819 -1.30904e-19)
(0.903934 -0.285942 2.61747e-16)
(0.293831 0.429664 -4.93586e-20)
(-0.728134 -0.178154 -2.63159e-17)
(1.44309 0.160514 -2.0381e-16)
(0.985878 0.0973628 -2.62146e-16)
(-0.501427 1.64227 9.83376e-17)
(-0.0462188 -0.563982 1.7042e-19)
(0.0350434 -0.289725 -7.03048e-17)
(-0.0448195 0.934343 -5.87812e-17)
(0.720534 0.153171 -9.46758e-17)
(-0.0617031 0.78511 6.54383e-17)
(0.817822 -0.451685 2.92023e-17)
(0.504574 0.552822 3.07939e-18)
(0.989462 -0.226623 -3.96456e-16)
(0.453242 0.214686 6.16648e-17)
(0.281945 -0.57909 1.47121e-16)
(0.185013 0.523199 0)
(-1.06279 -0.496858 -5.63216e-18)
(0.612184 0.37164 2.0616e-16)
(0.675442 0.554197 2.74046e-17)
(-0.156227 -0.00474782 0)
(-0.51888 0.0493658 2.447e-20)
(-0.0595344 -0.00209078 5.28067e-18)
(-0.295004 -0.20541 -9.50695e-17)
(0.573633 -0.237766 -9.8033e-17)
(-0.00202513 0.245642 0)
(-0.404436 -0.110085 0)
(-0.755298 0.311157 2.6635e-16)
(-0.162334 0.179822 1.42672e-16)
(0.685182 -0.303146 -2.14475e-16)
(-0.548714 1.68388 -4.72873e-17)
(0.0573659 0.381077 -4.57724e-17)
(0.318088 -0.0506104 0)
(0.650952 0.159784 -1.83075e-16)
(-0.226249 -0.035107 0)
(-0.352747 1.99063 7.08888e-17)
(-0.662946 1.80938 4.71283e-19)
(0.0625174 -0.0226836 0)
(0.101569 0.391282 -2.20845e-16)
(0.110482 0.174608 -6.71105e-17)
(-0.128534 -1.1808 3.43828e-16)
(0.0652917 0.0907989 -4.35108e-17)
(0.124921 0.282686 8.49163e-17)
(0.917748 0.190036 2.53565e-16)
(0.174056 0.204479 -4.25102e-16)
(0.121581 0.114932 -1.74976e-16)
(0.559142 0.113047 -1.33286e-16)
(-0.213359 0.00367514 5.3401e-18)
(-0.491851 2.62575 1.98876e-16)
(-0.346391 1.66559 2.85362e-16)
(-0.686404 -0.0305475 4.07357e-17)
(-0.250574 -0.202062 -1.37726e-16)
(0.155806 0.189576 -2.64175e-16)
(0.641225 0.188104 6.51025e-17)
(0.315611 -0.273481 -2.46031e-17)
(0.129047 -0.473282 -2.8834e-20)
(-0.988672 -0.124849 1.70084e-16)
(0.740161 -0.0882839 0)
(0.00213896 0.0899092 -4.11471e-17)
(0.672021 -0.190486 -3.05343e-17)
(0.0986042 0.0461379 -1.88626e-16)
(0.621879 0.00320867 5.65705e-16)
(0.96153 0.0248903 -1.68254e-16)
(0.0680798 0.0581227 1.84825e-16)
(-0.715765 0.120328 -1.22368e-16)
(-0.512557 0.0102955 2.06838e-17)
(-1.04367 -0.0301762 0)
(-0.4979 -0.0533272 0)
(-0.749527 0.0253364 -1.46467e-16)
(0.590487 0.0144102 0)
(1.09156 -0.026646 3.5075e-16)
(-0.548621 0.0262815 1.94166e-17)
(-0.769694 -0.064596 0)
(0.239779 0.0623524 -1.2273e-17)
(1.03197 0.00216141 0)
(0.355328 -0.0947965 -4.83137e-17)
(-0.819284 -0.0640738 -1.18117e-16)
(0.438184 -0.0619482 -1.53311e-17)
(-0.749254 0.0249854 1.51526e-16)
(0.690456 0.0135714 0)
(0.990354 -0.0434757 -2.64702e-16)
(-0.278876 0.0539757 0)
(-0.503821 -0.027605 0)
(-0.979276 0.0863397 -1.26103e-16)
(-0.697803 0.00928506 0)
(0.722573 -0.0646842 -8.16011e-17)
(0.716755 -0.0824831 8.27573e-17)
(0.0495794 0.243022 1.09082e-16)
(-0.742321 0.452003 -2.87622e-16)
(0.626664 0.26443 5.24453e-17)
(0.744546 -0.470741 5.12127e-16)
(0.596768 0.327074 -5.18875e-17)
(0.43897 0.188624 -4.15465e-16)
(0.47432 0.150883 2.41646e-16)
(0.269305 -0.209724 -4.46635e-18)
(-0.103993 -0.829921 -3.71859e-16)
(0.240091 -0.334587 3.95078e-16)
(-0.495693 3.23267 5.50774e-19)
(-0.187018 0.20056 -2.06691e-16)
(-0.808602 0.193921 0)
(0.221293 0.12073 1.90388e-16)
(0.017259 -0.00564477 2.11883e-16)
(-0.653944 -0.0653731 -2.67515e-16)
(0.0791502 0.171139 3.84046e-17)
(-1.06735 0.0237187 0)
(-0.496688 -0.0169822 -2.15797e-17)
(-0.558968 -0.00310807 -1.41226e-17)
(0.935752 -0.0692129 1.24969e-16)
(0.787025 -0.0382256 0)
(-0.711783 0.0280252 1.8462e-17)
(0.53485 -0.0563612 -8.77874e-17)
(0.618892 -0.0531941 -2.54542e-16)
(1.07888 -0.0149451 0)
(-0.752455 -0.0226746 -4.18461e-16)
(0.418075 0.0496717 0)
(-0.474603 0.107898 8.73276e-17)
(-0.106107 -0.189288 -7.91292e-18)
(0.950318 -0.400736 3.45332e-16)
(0.00941143 0.198558 -2.20213e-16)
(0.73103 -0.354719 2.57439e-17)
(0.0659261 0.203411 -2.78458e-17)
(0.223418 0.237075 -8.05708e-18)
(-0.702435 -0.00321104 -8.33811e-17)
(0.0571901 0.21585 -2.4152e-17)
(-0.0618851 0.377872 4.06655e-16)
(-0.300372 -0.118647 1.04909e-16)
(-0.293514 -0.275244 0)
(0.654876 -0.201967 0)
(-0.017634 0.29235 0)
(0.0211732 0.302393 3.48868e-16)
(0.0456074 0.705291 0)
(-0.0380012 0.181254 1.3715e-17)
(-0.793378 1.2981 5.59957e-17)
(-0.157919 0.0573799 -4.31662e-17)
(1.02438 0.423833 -7.51604e-17)
(-0.0413217 0.0560872 1.93734e-18)
(-0.910345 -0.0866522 -1.23242e-16)
(1.02426 0.0227561 -8.8469e-17)
(0.230877 -0.0763663 5.24518e-17)
(0.571503 -0.0261505 3.71342e-17)
(-0.70301 -0.0653112 -3.75017e-18)
(-0.0795243 0.156803 -1.99289e-16)
(0.757824 -0.470181 -2.45085e-17)
(0.448497 -0.0306908 0)
(-0.271394 -0.117068 2.87946e-16)
(0.194055 -0.0563541 -1.39028e-16)
(-0.500522 3.01105 -2.00282e-16)
(0.299146 0.0280545 -1.02332e-16)
(0.344069 0.167632 -1.05405e-16)
(-0.304279 -0.262328 2.17688e-17)
(-0.140833 0.276067 -3.76553e-16)
(0.00641369 0.178334 5.81013e-17)
(0.0407916 0.282837 4.32762e-17)
(-0.888842 1.50045 -3.41803e-17)
(0.0824768 0.203764 1.52843e-16)
(0.291486 -0.0133838 -3.35002e-17)
(-0.245268 0.392211 3.59682e-20)
(0.095551 0.293253 0)
(0.0896113 0.270201 0)
(-0.107063 0.32326 7.39143e-16)
(0.0146534 0.214946 8.96905e-17)
(0.510573 0.13198 -1.54861e-16)
(0.887623 0.141769 5.31999e-16)
(0.754923 0.136995 -3.24113e-16)
(0.904722 0.15038 6.80098e-16)
(0.785741 0.133995 -1.56089e-16)
(0.670139 0.139398 -4.19573e-16)
(0.976624 0.137723 -2.79903e-16)
(0.958495 0.154747 -3.01984e-16)
(0.0579157 -0.316693 -2.15439e-17)
(0.0407149 -0.283992 -4.44079e-17)
(0.256203 0.068441 4.07479e-17)
(-0.383709 -0.581131 -2.37315e-19)
(-0.211104 1.35868 -1.11234e-16)
(-0.433487 -0.197243 -1.49159e-16)
(-0.835352 1.14555 2.18158e-16)
(-0.233167 -0.419828 2.42515e-16)
(-0.774396 0.177929 4.02336e-16)
(-0.77007 0.54545 -1.74066e-16)
(-0.152949 -1.14139 -4.66612e-17)
(0.083418 0.253704 0)
(-0.321713 -0.888691 3.22825e-16)
(-0.499053 0.31095 4.11578e-17)
(-0.720782 0.400962 -2.18017e-16)
(-0.83187 1.08471 -2.24104e-16)
(-0.66547 0.981342 0)
(-0.582834 1.21198 2.59131e-16)
(-0.453379 0.712777 0)
(-0.369133 0.402442 7.0529e-17)
(-0.43266 1.0437 1.85615e-16)
(-0.827481 1.44573 0)
(-0.400585 0.292782 -4.75178e-17)
(0.170889 0.234888 -3.92907e-16)
(-0.753538 0.716605 -7.03834e-17)
(-0.745942 -0.0378294 -2.72655e-16)
(-0.648385 1.27179 -3.33343e-19)
(-0.811463 1.21881 0)
(-0.289411 -0.252259 0)
(-0.437177 0.399595 -1.13661e-16)
(-0.763334 0.711816 1.52444e-16)
(0.301867 0.124556 3.30007e-18)
(0.269216 0.198952 3.46116e-16)
(-0.229646 0.359666 3.91868e-16)
(-0.315018 -0.777603 -5.91776e-17)
(-0.239913 -0.340575 0)
(-0.522725 -0.0423704 1.5517e-16)
(0.0381791 -0.232076 -1.20017e-17)
(0.0980923 -0.190131 0)
(-0.14987 0.863186 1.06772e-16)
(-0.433184 -0.409519 3.01229e-17)
(-0.599289 0.206411 -3.09743e-17)
(-0.3182 0.390408 -2.72601e-16)
(-0.489923 0.0532264 6.26259e-17)
(0.0219146 0.583011 -1.02314e-15)
(0.178834 -0.411907 -7.1084e-16)
(-0.235061 0.319332 0)
(-0.199201 0.620385 -4.56192e-17)
(0.657779 0.0594519 -1.20535e-16)
(0.479983 0.744776 2.75168e-16)
(0.106667 -0.0744991 -5.54816e-17)
(0.0321407 -0.159929 -5.581e-17)
(0.317485 0.751612 5.16684e-16)
(-0.117681 -0.0512133 -1.75489e-16)
(0.241931 -0.071659 0)
(0.228213 0.0856828 1.37823e-16)
(0.143631 -0.0282192 -5.63046e-16)
(-0.887159 0.0457817 6.15657e-17)
(-0.1927 0.944269 -2.3601e-16)
(0.726496 -0.130717 -5.7636e-17)
(0.0210204 0.188077 -1.83124e-16)
(0.0723096 0.216867 -9.61285e-17)
(-0.0271565 0.0407745 9.93696e-17)
(-0.886666 0.0375269 -4.12824e-17)
(-0.247878 0.27561 0)
(0.419157 0.330692 1.66726e-16)
(0.0908601 1.04263 -9.15314e-19)
(-0.646151 0.34365 1.22396e-16)
(-0.183139 -0.636016 -1.32369e-17)
(-0.161316 -0.887826 1.15553e-17)
(0.302634 0.302548 1.94059e-16)
(0.219238 0.100432 1.25857e-17)
(-0.0171218 0.0941037 5.63218e-17)
(-0.0280384 0.25264 -5.88816e-17)
(-0.885192 -0.00109557 4.20067e-17)
(-0.0241512 0.0437583 -1.54007e-16)
(0.606597 -0.117511 3.82772e-16)
(-0.545482 0.365625 -1.83456e-17)
(-0.36953 0.533936 -3.69819e-16)
(-0.62683 0.354197 -9.3067e-18)
(-0.571755 0.950742 -3.61242e-16)
(-0.00546557 0.533435 0)
(-0.629225 0.742836 2.43052e-16)
(-0.448926 0.396133 7.09198e-17)
(-0.316895 0.471654 -5.9113e-18)
(-0.619372 0.572596 -7.44602e-17)
(0.0807147 0.336508 2.89126e-18)
(-0.0416875 0.149259 -9.73184e-17)
(0.0449027 0.28789 -5.76322e-16)
(-0.0831521 0.344149 -2.04643e-16)
(0.163056 0.272502 9.66671e-16)
(-0.882047 1.46952 3.87688e-17)
(-0.328 -0.40325 1.24436e-18)
(-0.207704 1.01509 2.92138e-16)
(-0.177831 0.614976 0)
(-0.0193385 0.284616 2.67063e-16)
(-0.31077 -0.591247 0)
(-0.373169 -0.193293 8.3094e-17)
(-0.0127618 0.215372 9.00546e-17)
(-0.880216 0.013844 -4.55432e-17)
(-0.571281 -0.0812677 3.36841e-16)
(-0.0180488 -0.039136 -5.50284e-17)
(-0.523018 0.424098 -5.98592e-17)
(-0.450374 0.476173 1.23639e-16)
(-0.403205 0.412667 0)
(-0.518476 0.0405225 0)
(0.64281 0.185744 1.91126e-16)
(-0.464156 -0.240663 -3.02967e-17)
(0.0333354 -0.115701 -4.61906e-17)
(-0.00889076 0.273631 -4.46008e-16)
(-0.481759 -0.111078 3.78052e-17)
(-0.723295 0.642836 3.58979e-17)
(-0.705243 1.04459 2.01077e-16)
(-0.61153 0.248306 -1.11415e-16)
(-0.577193 0.475887 9.66991e-17)
(-0.247163 0.590032 -4.78888e-17)
(-0.530508 -0.0281721 0)
(-0.901063 1.8184 0)
(-0.824765 1.05463 0)
(0.25083 0.38032 1.01296e-16)
(0.164917 0.163267 2.90294e-16)
(1.07419 0.0700116 -8.56248e-18)
(-0.572654 0.161826 6.47211e-17)
(0.0937538 0.0148964 8.84541e-17)
(0.0185182 -0.0714016 -1.51349e-16)
(-0.741232 1.18864 0)
(0.286785 -0.271777 -1.50758e-16)
(0.374247 -0.2891 -5.74931e-17)
(0.354651 0.0741024 -1.45128e-16)
(-0.75735 0.747738 -5.73917e-17)
(-0.762828 -0.221647 4.85522e-16)
(0.222303 0.144721 1.32062e-17)
(0.0469183 -0.0467607 9.63223e-17)
(-0.901805 2.14989 0)
(0.522264 -0.0729251 -5.77298e-16)
(0.444877 0.153123 -9.78774e-17)
(0.689508 -0.0856623 0)
(0.299423 0.421557 4.86116e-17)
(-0.496615 0.566509 -1.07559e-17)
(-0.861035 1.81107 1.62334e-17)
(1.05227 0.0743403 0)
(-0.885543 0.0932152 0)
(-0.405166 0.645807 9.20157e-17)
(0.71883 0.080025 2.16867e-16)
(-0.956756 -0.362751 -6.95131e-17)
(-0.284693 0.618933 1.1953e-16)
(0.117106 0.670963 1.36769e-16)
(-0.88557 -0.0616356 0)
(-0.519827 0.667228 -1.15055e-16)
(-0.300302 0.73255 9.28419e-17)
(0.412267 -0.00142054 -1.0734e-16)
(0.633768 0.160397 9.09851e-17)
(0.383892 -0.0474834 0)
(-0.0412011 0.0223136 3.09311e-16)
(1.00356 -0.0302032 0)
(-0.280562 1.1146 2.05893e-19)
(-0.289882 0.826269 -1.95237e-16)
(-0.426854 0.30029 8.63802e-17)
(-0.730944 1.37839 0)
(0.217928 0.713113 1.06733e-16)
(-0.102283 -0.00654577 -2.27628e-17)
(0.664427 0.150957 1.72259e-16)
(0.682523 -0.056147 4.92362e-16)
(-0.871834 -0.10808 0)
(0.048052 0.416607 0)
(-0.107281 0.242698 -8.60776e-17)
(0.181751 0.139475 -8.9986e-17)
(0.173401 0.0789475 -1.21955e-17)
(-0.845465 1.36407 0)
(0.00570236 -0.0622526 -1.97247e-16)
(-0.570348 1.05815 1.19845e-16)
(0.18331 0.372311 -1.85657e-16)
(0.0681889 0.227211 -3.76542e-16)
(-0.853902 -0.309344 3.81142e-16)
(-0.925396 -0.141667 1.88423e-16)
(0.741965 0.274034 2.7602e-16)
(0.434932 0.0361521 0)
(-0.585838 -0.25826 -1.59532e-16)
(-0.857799 1.63572 -1.99102e-19)
(-0.83953 2.21375 2.91901e-16)
(0.17239 0.0406143 -1.23792e-17)
(-0.395697 1.39869 7.31622e-17)
(0.322049 0.867743 2.54922e-16)
(-0.460416 2.59369 -2.75124e-16)
(0.0757377 0.0235641 0)
(-0.876886 -0.123133 -1.72305e-16)
(-0.904904 1.85448 -6.90601e-18)
(0.186248 1.12827 -5.22729e-16)
(-0.633156 0.0816796 -7.2473e-20)
(0.110196 0.0797315 -1.94536e-16)
(-0.105501 0.263851 -1.93689e-16)
(0.691353 -0.002246 -1.45869e-16)
(0.274933 0.285417 -3.86397e-19)
(0.596377 0.140472 0)
(-0.461392 0.357876 0)
(-0.28129 0.47335 -1.4813e-16)
(0.340314 0.124855 -1.0942e-16)
(0.461768 0.341049 -5.60806e-17)
(0.618679 0.0585532 -9.43385e-17)
(-0.587732 0.353401 -9.23162e-17)
(0.122148 0.475839 0)
(-0.892917 2.20764 -1.35013e-17)
(-0.870971 -0.107083 -2.16728e-17)
(-0.308808 0.00235139 2.39618e-17)
(0.0673733 0.0822363 8.68518e-17)
(0.315392 0.0708512 2.56942e-17)
(0.00123463 0.0578806 0)
(-0.682363 0.56629 5.78637e-18)
(0.0411207 0.37797 -8.75749e-17)
(-0.187005 0.31131 8.38306e-17)
(0.571918 0.088432 0)
(-0.577083 0.175271 1.94488e-20)
(1.10244 0.0592022 -6.42388e-17)
(-0.871505 0.318796 -2.03774e-16)
(-0.616634 -0.111488 3.55584e-17)
(0.607639 0.246746 0)
(-0.857426 -0.178792 -3.41597e-16)
(-0.812456 0.562404 -2.86418e-16)
(-0.690001 2.18743 1.40657e-16)
(0.513642 0.0705174 0)
(0.258663 0.21162 -4.6416e-17)
(-0.602729 0.866501 0)
(0.473327 0.114347 0)
(-0.813587 0.915536 0)
(0.110448 0.149337 -8.04106e-17)
(0.11424 0.580341 2.64067e-16)
(-0.164089 1.38702 9.7543e-17)
(-0.0520134 0.138275 1.13734e-15)
(0.470362 0.0136557 -5.31279e-17)
(-0.844425 -0.123846 -2.78803e-18)
(0.00988395 0.462265 -1.0896e-21)
(-0.786475 0.954015 -4.76643e-18)
(0.680574 0.129085 -2.08335e-16)
(0.135084 0.532189 1.39594e-16)
(0.0538185 1.33038 1.12937e-16)
(-0.604482 0.224515 -8.11204e-17)
(-0.0444308 0.589704 1.59164e-16)
(0.611767 -0.288369 -4.10049e-16)
(-0.689044 0.812224 0)
(0.583401 0.0540386 -8.33037e-18)
(0.489372 -0.0293794 4.00006e-17)
(-0.353586 0.115567 1.03407e-16)
(0.204914 0.00511904 1.07661e-16)
(-0.859441 -0.272177 1.57073e-16)
(0.0236851 0.0368595 -2.18092e-16)
(0.859383 0.0610715 -1.47056e-19)
(0.261221 0.544275 -1.72387e-19)
(-0.692424 0.640166 0)
(-0.454595 0.338818 0)
(0.0261956 0.248626 4.41291e-17)
(0.0794468 0.00716239 5.35335e-22)
(-0.289418 0.293873 1.87223e-16)
(0.873122 -0.0704949 0)
(-0.862125 -0.228883 1.2964e-16)
(0.513428 0.26319 0)
(-0.756919 -0.0013828 0)
(-0.43349 0.546601 7.47933e-17)
(-0.547934 -0.206363 -1.5557e-16)
(-0.762478 -0.0733312 -4.50248e-17)
(0.0298352 -0.68668 -4.61476e-17)
(0.0445476 1.12758 8.69405e-17)
(0.573543 0.00561951 -1.31909e-17)
(-0.889891 0.0920262 2.60162e-16)
(0.185648 0.250688 1.29121e-16)
(-0.332965 -0.831255 -1.62042e-16)
(0.777631 0.375572 3.80608e-17)
(0.574887 0.350656 9.79608e-17)
(0.619662 -0.43325 -1.81368e-16)
(0.555899 -0.0181139 9.50482e-17)
(0.0869225 0.110239 -2.32659e-16)
(-0.507125 0.797232 2.21471e-16)
(-0.84861 -0.289627 -1.65829e-16)
(0.565031 0.219096 9.8138e-17)
(-0.673697 0.413029 1.51947e-19)
(0.0376314 0.193211 1.34283e-16)
(-0.351631 0.417391 -3.02666e-17)
(0.17105 0.0299487 0)
(-0.513696 0.339367 0)
(-0.434443 0.751341 -2.40567e-16)
(0.060059 0.225813 9.18781e-17)
(-0.252096 0.323335 -1.79038e-16)
(-0.168975 -0.00699773 1.14194e-17)
(1.01074 -0.0748625 2.55826e-17)
(0.135864 0.258609 0)
(-0.0276788 0.257138 1.91231e-16)
(-0.0362629 0.534714 0)
(0.522834 0.268191 0)
(-0.800944 1.82573 -9.10397e-17)
(0.67829 0.142165 0)
(-0.933817 -0.0993918 -3.44115e-16)
(0.203101 -0.0848451 5.86027e-16)
(0.343675 0.144364 1.04348e-16)
(-0.375102 0.188328 -8.48401e-17)
(0.057581 0.0172813 -9.13593e-17)
(-0.885492 1.82625 -1.49405e-16)
(0.605886 -0.360783 -2.49756e-16)
(0.281884 -0.0947164 2.08757e-16)
(0.561261 0.697559 -1.3915e-17)
(-0.6232 0.175115 -2.69672e-16)
(0.933432 -0.000106596 -1.19404e-16)
(0.0893566 0.815387 6.52872e-17)
(-0.389248 0.293208 0)
(0.00886309 0.271957 -2.46517e-16)
(0.097876 0.0206979 1.04822e-17)
(0.0841752 0.00302373 -3.92747e-17)
(-0.606307 1.77435 -2.64498e-19)
(0.141994 0.0407681 -1.07039e-17)
(0.0974346 -0.00702426 0)
(-0.968114 -0.118391 -2.4998e-16)
(-0.279966 0.671311 0)
(-0.448729 -0.0365702 3.94856e-16)
(0.218715 0.059429 -8.52052e-17)
(0.112564 -0.0203552 0)
(0.0787719 0.599813 7.5728e-16)
(0.0161154 -0.558518 1.88723e-16)
(-0.373473 0.268946 -3.12662e-16)
(0.11624 0.0925958 -4.42406e-16)
(-0.757767 -0.249791 2.59645e-17)
(-0.343617 -0.124654 0)
(0.582432 0.301159 2.5875e-16)
(-0.902282 -0.317727 7.80394e-17)
(0.898027 0.0362342 1.47551e-16)
(-0.318049 -0.0328282 1.46469e-16)
(0.167366 0.126044 5.07153e-17)
(0.0900779 -0.0603781 4.44366e-17)
(-1.16318 -0.692684 -3.84185e-19)
(-0.601615 2.93137 -1.70481e-19)
(-0.0973754 1.43152 0)
(-0.880344 -0.359209 4.53321e-17)
(0.0756551 0.326642 0)
(0.692095 0.0648388 -2.01123e-19)
(-0.513362 -0.106351 -1.15704e-21)
(0.466473 0.0482817 5.2592e-17)
(0.121047 -0.240427 -1.39991e-16)
(0.313427 0.286133 0)
(0.286583 1.09266 -6.62227e-17)
(0.894645 0.24624 -3.35432e-16)
(0.801838 0.0514823 -2.99219e-16)
(-0.875441 -0.352939 0)
(-0.74098 -0.111889 -9.25949e-21)
(0.647503 0.0586736 -1.79605e-16)
(1.21217 0.325871 4.9159e-16)
(1.09482 0.0112006 5.1078e-16)
(0.732477 -0.0962062 -4.32398e-16)
(0.481445 0.0781413 -2.16371e-17)
(0.449945 -0.205146 1.88701e-16)
(0.15759 0.204329 -3.32715e-17)
(0.569098 0.339418 -1.82637e-16)
(0.107567 0.169054 2.5254e-21)
(0.531509 0.533656 1.13687e-16)
(0.0597238 1.68674 6.77772e-16)
(-0.669278 0.344753 1.00858e-20)
(-0.170135 -0.0424644 0)
(-0.0625442 0.0940665 9.10464e-17)
(0.325397 0.0780215 5.69215e-22)
(0.589817 0.20137 -1.03236e-16)
(-0.741083 0.317622 -8.37091e-17)
(-0.291139 -0.0760574 4.30018e-17)
(-0.482401 -0.0589465 -2.85679e-16)
(0.0587025 0.961515 1.13098e-16)
(-0.277091 0.188592 -9.20233e-17)
(0.109838 0.246174 1.64557e-16)
(0.105502 -0.0449188 2.19282e-16)
(0.194624 0.859843 3.04306e-16)
(0.315655 -0.977753 -2.18235e-16)
(0.490329 0.610533 -4.29954e-16)
(-0.285931 2.07624 -1.87652e-19)
(-0.674868 -0.168152 1.48919e-19)
(0.339255 0.11728 2.93229e-16)
(0.114756 0.870359 -2.51178e-16)
(0.0323648 -0.626148 0)
(0.0881312 -0.0955128 3.28913e-16)
(-0.730055 0.215199 -9.02832e-17)
(-0.699409 -0.062397 3.87897e-17)
(-0.804889 -0.32098 2.53381e-17)
(-0.948272 -0.114027 3.9587e-17)
(-0.765777 0.842014 1.08361e-16)
(1.10405 0.0274363 -1.08598e-16)
(-0.688023 0.339298 8.55544e-17)
(0.537288 0.355702 2.61019e-16)
(-0.341993 2.98336 -3.28322e-16)
(-0.136693 -0.0434264 -2.24041e-17)
(-0.394907 0.147847 -3.58169e-16)
(-0.82661 0.639009 0)
(0.105345 1.03106 -6.89427e-17)
(0.114237 0.772231 -1.84289e-19)
(-0.0302858 0.935204 -6.72712e-17)
(-0.646415 -0.0503576 -4.07185e-17)
(0.252221 -0.948862 -2.77439e-16)
(0.139546 1.03901 6.62526e-17)
(-0.166663 2.53774 -1.66198e-16)
(-0.417439 0.272761 -2.85136e-18)
(0.27912 0.256811 -8.2805e-17)
(0.157552 0.125555 8.98216e-17)
(0.861544 0.0333929 0)
(0.804457 0.0201412 0)
(-0.460297 -0.501064 -4.2623e-18)
(0.553542 -0.400103 -4.13444e-16)
(0.0318136 -0.215773 2.49909e-16)
(-0.867346 0.0307701 0)
(0.331369 0.213472 0)
(0.0389506 0.263847 -1.91699e-17)
(-0.465709 0.19107 -8.92469e-17)
(-0.394844 -0.0836253 1.35304e-16)
(-1.02616 0.145759 1.4028e-16)
(-0.277625 0.0420995 1.04435e-16)
(0.555243 0.471219 -8.66033e-16)
(0.323379 0.0984873 0)
(0.359767 0.789189 -1.0321e-16)
(-0.157282 -0.564345 -6.73367e-17)
(0.165983 -0.0133865 0)
(0.254752 -0.254729 -1.7563e-16)
(0.626972 -0.0153812 -2.4998e-16)
(-0.159901 1.11382 6.37164e-16)
(0.220607 -0.0211711 -1.17924e-16)
(0.26306 0.185413 -2.43819e-16)
(0.486392 0.290159 0)
(0.462699 0.286573 0)
(-0.122591 0.512835 1.61991e-16)
(0.228193 0.154674 -7.9538e-17)
(-0.754715 0.605994 1.56563e-16)
(0.294509 0.121787 0)
(0.0601991 -0.0975638 9.6819e-17)
(-0.803953 0.731003 3.51043e-19)
(1.01973 -0.0249112 0)
(-0.886908 0.0434332 0)
(0.186023 0.221942 5.31433e-17)
(-0.953599 -0.0776245 0)
(-1.04581 -0.336673 2.57047e-17)
(0.569129 0.074411 1.57193e-16)
(-0.168665 1.13605 1.69155e-16)
(0.281194 -0.0488118 3.87668e-16)
(-0.0875551 -0.585849 -9.45666e-17)
(0.321184 -1.01671 -2.00982e-16)
(0.260385 0.170872 1.94782e-16)
(0.193071 0.242293 0)
(-0.0504181 0.908475 -7.57467e-17)
(-0.345623 0.148978 1.92687e-16)
(0.410597 -0.0668108 0)
(-0.371473 0.0659216 -1.52582e-16)
(-0.771473 0.0362758 0)
(-0.280074 -0.029172 -2.57184e-16)
(-0.844029 0.415674 0)
(-0.483602 -0.0992041 -2.03012e-16)
(-0.817667 -0.174148 4.60206e-18)
(0.447617 -0.259469 1.30994e-16)
(-0.0652259 0.722043 7.74204e-16)
(0.0856841 -0.683536 0)
(-0.134113 2.21987 1.05839e-18)
(-0.0839288 0.350297 2.07722e-16)
(-0.189271 0.374904 -1.89993e-16)
(-0.793528 -0.0602783 3.81885e-17)
(-0.595756 -0.109914 -1.27087e-16)
(-0.612845 -0.165881 1.67516e-16)
(-0.105998 0.796626 4.35867e-17)
(-0.92584 -0.244629 4.83356e-18)
(0.038996 -1.03678 -5.83887e-16)
(0.266077 0.550889 -1.65131e-16)
(-0.0132382 0.386236 3.04015e-16)
(0.792671 -0.181791 3.05723e-16)
(0.523562 -0.112084 -9.97987e-17)
(0.425274 -0.188381 -8.83806e-17)
(-0.29588 0.105092 -7.49434e-17)
(0.250582 0.137769 4.18044e-16)
(-0.702562 0.101893 1.77189e-16)
(-0.443064 2.01879 8.42075e-17)
(-0.903519 -0.169978 0)
(-0.920882 -0.188433 0)
(-0.964851 -0.00434555 -1.46275e-16)
(0.911948 0.0970491 2.70153e-16)
(-0.426254 0.260935 -3.25338e-17)
(-0.438205 -0.0174705 -2.88521e-16)
(0.108466 0.208427 7.61481e-18)
(-0.283301 0.486592 -8.2819e-17)
(0.537991 0.00167403 5.72435e-16)
(-0.306418 -0.228856 1.07311e-16)
(0.372295 -0.105844 4.46578e-17)
(1.05484 0.08809 0)
(0.455707 0.26047 1.6192e-16)
(-0.855149 -0.232135 0)
(0.35015 0.588692 0)
(-0.85381 -0.0330392 -3.65171e-18)
(0.124878 0.65066 0)
(0.674018 0.0328664 0)
(0.14747 0.169326 0)
(0.0198402 0.0291153 0)
(0.313646 0.0374697 -6.48525e-16)
(0.0894543 1.10294 -2.02651e-16)
(0.0392541 -0.734424 -1.57341e-16)
(0.280003 0.297372 -4.26826e-18)
(0.201363 -0.540032 -5.15111e-16)
(-0.0257234 0.481517 -3.96391e-16)
(-0.41692 0.963365 2.69461e-16)
(-0.205182 -1.1032 -4.97529e-16)
(-0.805976 0.99295 2.88078e-16)
(0.12491 1.0906 6.93716e-17)