/*--------------------------------*- C++ -*----------------------------------*\
| =========                 |                                                 |
| \\      /  F ield         | OpenFOAM: The Open Source CFD Toolbox           |
|  \\    /   O peration     | Version:  v1912                                 |
|   \\  /    A nd           | Website:  www.openfoam.com                      |
|    \\/     M anipulation  |                                                 |
\*---------------------------------------------------------------------------*/
FoamFile
{
    version     2.0;
    format      ascii;
    class       volScalarField;
    location    "0.36";
    object      p;
}
// * * * * * * * * * * * * * * * * * * * * * * * * * * * * * * * * * * * * * //

dimensions      [0 2 -2 0 0 0 0];


internalField   nonuniform List<scalar> 
1431
(
72.9226
85.2321
66.7558
81.2982
73.8539
72.4274
79.2398
48.5565
74.8319
79.7588
40.3753
50.7
70.9075
70.3072
74.0473
79.2985
71.1111
70.7262
71.8735
71.0598
35.4506
70.106
74.928
17.6674
74.8368
70.4125
46.3572
73.8816
73.6991
68.2692
71.4898
74.0575
71.6194
71.1285
72.8676
80.6312
69.053
69.8837
80.6687
73.7448
70.6015
70.0081
70.4574
79.2729
72.0374
73.1023
71.3624
50.0437
79.1428
68.3546
79.0059
80.0106
77.0143
53.2033
86.1903
80.8437
73.0167
51.2578
70.2749
72.5108
74.0814
79.4557
68.7262
69.5391
81.0256
79.8408
68.9468
73.6644
72.2475
71.166
50.2743
70.8279
80.86
71.332
70.3972
74.0237
67.1455
70.7963
80.3914
71.6459
70.7042
73.2202
74.9972
71.3647
37.3882
82.6645
84.227
73.9295
54.3016
63.7877
73.3178
73.2519
70.0732
79.8746
86.0722
71.3239
49.8875
76.3407
79.1528
72.3544
80.1526
79.2564
70.2792
72.2138
70.4386
71.6491
74.3156
52.6977
74.4026
70.0913
72.6394
71.3358
66.6685
70.5173
85.4892
74.3153
70.4985
80.98
82.7609
69.0581
71.754
74.0273
54.5179
70.7003
49.361
80.9748
66.9708
73.7145
66.7106
86.1277
71.4163
70.8817
86.2207
71.8662
72.5678
69.392
69.6218
79.1563
50.9632
70.049
80.864
69.7963
70.3858
72.2306
75.1974
71.3529
70.7659
78.5901
80.2334
73.7496
68.927
72.7267
73.5881
83.6238
73.4442
69.8632
46.9328
80.28
69.2388
84.2613
60.7552
70.4692
81.7048
83.7401
53.1625
71.989
70.6877
85.4356
69.1532
80.6865
60.1852
77.2828
73.0242
49.505
83.9202
47.4013
85.828
72.2408
77.2376
73.1106
79.7408
80.3478
83.7014
20.5768
72.2024
73.89
50.3171
81.7569
73.1292
52.4045
71.4663
72.8886
73.6135
54.314
81.8842
75.8146
75.3424
72.9237
72.539
71.0987
86.2519
82.0239
57.3309
85.1482
73.381
71.7761
74.0293
73.7412
47.3418
70.0486
47.3036
81.6021
74.0967
71.8826
38.9832
73.7826
73.5414
72.6409
81.8362
59.3781
73.6101
84.6079
71.6711
82.792
73.5452
42.1228
58.251
78.6526
73.4166
58.3434
48.1111
71.6348
71.9441
73.642
73.9473
65.2961
74.0279
72.449
71.3587
86.2371
85.9087
78.9994
45.2768
72.463
73.0885
71.0432
72.5589
54.7623
73.919
69.523
73.4759
53.7897
83.6823
81.1662
71.6709
70.5061
83.1314
37.2682
69.7422
73.4576
73.8599
50.6011
82.734
85.2909
73.6
62.0083
74.3588
54.9994
53.4552
73.2499
74.5738
73.8887
86.1131
86.2837
58.2455
73.0751
56.1652
67.8608
72.1911
74.0928
76.3414
69.5514
70.9648
80.0854
86.7786
74.3331
70.2055
73.3019
44.4324
84.587
73.0442
74.1772
77.3949
79.5987
60.1825
73.2003
50.5929
74.5324
73.3722
71.5927
77.1301
72.0598
86.662
75.0355
70.9236
82.6194
83.0828
73.1758
69.8733
82.7329
70.9387
81.2512
79.6481
54.6878
74.4257
75.5431
73.0509
86.6169
70.4949
28.028
81.8274
76.4493
72.5043
80.8845
72.4431
66.7223
71.9726
73.5267
54.0943
81.3006
71.0352
71.3805
74.2868
70.2248
85.3957
73.1623
72.9593
68.1932
72.3664
53.3572
70.7545
71.8308
66.1058
70.1311
74.4478
71.2287
85.8558
54.8161
70.5463
79.4226
72.4127
70.1345
79.9994
77.1403
71.7196
82.1856
50.2422
46.8308
52.069
70.2463
70.0514
73.7899
70.8669
86.9213
71.5543
46.6171
74.6857
8.9016
73.2396
68.4577
51.9368
73.6624
56.4374
80.7167
71.0452
46.5491
78.7235
84.6407
66.9756
42.3106
70.2047
72.3076
83.5167
73.2096
9.50578
73.7358
75.1013
73.664
72.6085
79.1317
86.3598
74.7011
74.5943
82.1602
66.3386
78.9076
73.4014
72.9702
74.2266
72.9145
73.8655
71.2614
71.8902
70.8717
81.0454
75.0985
72.5785
83.9015
86.6116
75.6593
74.7458
72.6492
75.8906
69.8103
73.5011
71.1395
75.2098
83.5417
72.4475
75.8164
72.9205
70.2231
81.1306
75.9526
75.6404
73.3842
70.3622
72.0629
66.5573
27.0717
68.4352
68.3908
68.6951
68.4856
68.7632
69.126
68.7412
69.6648
69.4267
69.7893
72.5472
52.4398
71.0944
69.6125
69.8995
69.7185
71.3069
71.4929
71.0095
70.3312
70.6351
67.1427
79.065
71.4877
79.4543
78.7731
70.0801
51.1146
70.8187
66.4613
70.1101
67.782
51.8811
78.5965
66.9195
68.1874
71.7652
52.1433
67.5529
50.9171
78.9226
79.423
69.5222
70.1787
51.3958
52.3359
69.8954
69.2845
70.5333
79.919
70.304
71.6652
51.6046
80.5977
71.8999
70.4158
68.1971
70.6141
66.6851
70.0312
51.8413
80.5564
66.5545
70.4498
70.9712
68.6835
66.5234
51.7659
80.3666
73.4437
69.6886
70.3941
70.114
70.3273
51.9819
53.4729
71.8254
80.4326
80.4065
73.3829
70.357
71.6622
69.9927
66.6064
70.1583
80.6086
69.0904
71.0208
71.2304
53.2276
71.6241
80.4466
73.754
81.7583
71.1184
82.4101
51.4508
73.6074
73.0896
84.0399
85.6258
80.5631
71.7635
71.7033
70.7054
66.4498
83.97
73.2832
72.6726
73.928
75.0751
70.4644
70.7712
80.6729
73.7624
84.2876
82.3811
68.9445
74.1874
70.2373
75.1761
70.4301
71.3754
74.2898
67.8858
71.3369
82.9583
69.9417
71.9316
48.6939
69.9779
52.9976
71.2201
81.1884
33.2628
83.3462
83.0267
83.2416
69.5064
72.0789
76.8838
60.6576
69.6269
80.9409
85.547
72.2816
81.5037
72.7915
69.1972
68.111
76.9245
65.619
71.8536
73.3934
73.4489
74.1237
72.3475
80.3783
86.5019
73.7011
69.2586
68.6634
78.664
79.6343
73.7928
71.6651
71.0352
74.6305
79.0692
48.6021
62.8006
73.1584
74.6991
80.0688
69.903
72.2175
18.2164
70.717
84.6439
70.2987
81.9139
81.2511
74.7843
69.5029
73.1539
72.7597
44.9888
84.8427
67.6418
73.2129
84.3418
83.6796
83.337
73.955
79.7121
71.1827
71.4668
73.3653
68.0502
84.9034
77.2975
79.5581
79.923
69.7684
76.7314
72.0966
50.1841
86.7409
73.8229
85.3327
73.4843
71.1802
85.812
74.5982
70.0625
78.6953
71.387
72.5318
43.8744
79.9707
69.1137
69.338
72.6484
71.365
71.3095
72.3701
74.7635
68.849
66.5687
56.877
63.458
72.3152
70.8807
79.9292
70.0653
72.6239
71.6433
66.5832
78.3699
71.9073
75.3228
84.4461
37.095
70.143
68.4248
71.1981
31.7501
70.1067
72.0202
86.7827
86.4737
82.0078
78.3706
41.1912
70.1499
67.3197
69.518
74.3665
72.823
85.5749
72.1939
71.6472
71.5609
86.0521
86.2771
69.1227
78.1506
71.6076
86.1383
65.7297
82.2049
73.4823
76.7536
86.2696
72.6091
24.9839
72.6134
80.3345
82.1861
73.8408
73.5759
82.999
69.5776
73.4052
66.6681
72.0633
69.7158
73.4341
85.9688
73.8508
70.5688
71.7098
52.8661
77.8823
73.7325
84.5648
71.9277
70.1338
53.3343
50.5235
68.9478
79.3364
66.8738
86.2694
72.7498
72.1653
72.755
75.6615
43.504
83.5415
73.5113
74.0392
86.6587
71.8593
68.4235
72.5762
70.0048
72.086
72.9452
78.7151
75.1784
85.4459
86.4353
78.6755
8.19967
72.7072
72.7694
72.4218
72.9168
83.0256
30.4169
73.0669
74.0005
79.4631
70.1008
74.5054
78.9701
78.8399
74.9817
85.5917
70.1157
71.8049
72.347
73.537
73.7004
79.107
85.6802
81.821
73.9738
69.7942
74.7661
70.0431
78.336
67.8558
84.7858
54.6239
72.0741
76.7937
72.8538
77.5418
72.2166
70.9234
73.8889
73.3133
72.8467
85.9279
83.3636
70.2002
82.1885
74.5111
73.6157
70.051
69.4188
68.1086
68.9621
14.1881
73.3192
73.491
83.1646
72.0978
48.0502
85.5895
84.6984
42.6253
70.811
50.2682
68.8686
73.2468
69.2119
74.3786
72.4521
70.5077
77.7943
70.7736
83.6807
73.1435
71.4576
69.5592
73.8564
80.3426
69.4359
72.9588
43.5178
73.344
80.4577
53.011
71.0968
68.7639
76.2675
81.6381
76.9491
69.9902
69.536
73.0082
74.9164
62.6319
70.4488
52.6215
81.1872
67.0697
72.9988
69.2419
75.6873
84.312
68.1256
72.1898
86.4123
72.3295
66.7241
69.0896
83.73
77.1612
72.3167
80.9818
69.9535
74.4143
69.7158
80.9585
54.4858
74.3269
69.9819
46.5526
73.3521
72.2799
70.0683
72.4483
79.5764
74.5465
74.1515
73.335
51.2082
83.3135
73.5406
47.5031
52.7078
52.0731
48.0511
54.1959
73.7292
73.2629
72.6422
72.8994
50.0232
74.2241
71.8611
73.4992
72.6918
71.4791
57.4642
44.4005
71.3945
62.7549
60.0781
71.7165
74.3389
74.0312
72.0224
73.6667
73.5009
71.8778
73.5118
69.6197
64.939
67.6811
67.1143
72.3717
70.2508
71.2759
48.9476
73.2547
67.1724
70.1479
69.9081
81.4228
52.9473
71.1162
68.672
65.8061
71.8767
69.7389
70.9871
84.6944
48.9739
73.223
73.7074
72.6397
77.646
84.1381
80.1981
49.8735
73.0447
70.0763
69.8969
72.0301
81.5845
78.443
57.2916
69.3562
79.9282
73.6884
81.0324
78.2326
73.7918
69.0624
67.9284
77.0004
72.2645
70.2856
71.6064
75.3675
82.6728
45.3005
72.9584
75.7229
72.969
70.539
70.1708
85.3352
73.5318
73.5682
84.5329
75.9784
71.2658
42.6181
72.6237
70.5653
69.6089
68.1328
78.9796
23.1079
75.1997
73.8097
80.2097
49.2097
74.7319
71.3053
78.6275
80.8928
84.1536
73.4827
66.78
75.6905
71.8405
54.5485
33.8203
73.784
75.0827
80.8302
70.6728
70.6337
72.8731
69.8678
73.8092
73.3609
71.5677
67.6854
35.5614
69.8694
83.9799
67.399
71.1792
74.5917
70.6361
71.2034
73.4251
82.0661
76.0656
73.533
73.9625
76.3708
25.2425
15.9448
79.5888
73.0409
67.0488
84.2623
73.9326
52.5709
69.4464
73.2363
71.7795
62.916
52.1584
85.4728
71.0579
73.5031
73.1515
70.18
50.596
70.1478
75.4962
84.1109
48.6297
83.2509
72.3592
83.6268
6.98586
69.3328
50.4211
57.7961
73.4545
67.3984
73.7876
84.7853
70.2093
82.9061
84.7685
82.3939
73.674
69.6454
73.1679
67.5631
70.3354
60.5707
68.9297
66.857
69.7361
55.0057
74.5211
54.4638
69.008
70.9893
55.3168
73.183
62.8271
60.7825
58.6921
53.1908
52.8968
51.9264
56.6843
52.1338
81.5874
82.4557
82.1868
81.6816
81.6384
81.5733
76.1175
71.632
69.6653
73.0925
72.2102
69.6905
81.4477
67.3367
67.8464
79.2949
75.8964
80.2945
73.6714
86.0022
84.9608
69.341
73.2369
81.7437
67.969
73.6387
73.3187
64.7564
85.2148
76.2295
41.331
74.0369
72.6269
74.0445
83.0905
69.8534
81.3026
32.0365
69.8012
74.4025
81.454
73.6761
82.7633
70.6957
70.0574
71.9535
81.352
70.6901
68.8257
66.6726
81.3402
69.4109
71.8656
70.8729
79.3264
14.9145
68.6284
41.5352
7.28204
86.5507
51.4637
70.3258
72.266
71.5223
52.0735
83.3104
73.4409
75.2452
63.4975
70.9482
70.1644
73.6074
73.4351
80.5424
71.3927
80.6878
77.0955
55.5401
48.9477
16.0294
77.0479
72.7619
84.6686
74.1748
83.7759
72.2611
66.6167
70.4556
71.0162
51.7632
75.1304
80.2484
50.2273
75.7094
70.2548
70.877
79.5852
74.1006
67.4001
56.3369
73.1752
68.368
72.0501
74.5049
45.7114
69.8488
48.4564
79.9717
69.7187
71.3542
48.1226
72.1616
71.6538
71.539
74.6275
80.9443
53.0049
73.5026
71.6967
70.6554
70.98
69.7782
71.6404
80.8384
72.0972
73.4942
55.1183
70.6934
72.1945
70.3592
70.4226
81.1536
72.1205
85.3614
77.5629
71.3093
71.4242
47.0449
74.0176
72.4365
75.4163
72.7231
80.6598
71.3016
70.5327
73.5307
67.4289
74.0834
25.8013
73.3722
86.362
74.5213
58.8625
73.5835
79.6163
82.1931
70.4552
73.9957
81.3729
73.8128
72.143
72.9646
71.5689
83.5659
70.7901
81.6413
72.6706
53.9995
72.2371
54.9651
73.8415
78.1881
72.6729
73.5624
70.6173
70.4633
68.3055
70.4759
81.2272
74.594
47.6586
73.3694
73.8057
69.3796
67.0262
69.7941
73.7098
72.7256
64.9554
72.3439
68.5905
51.2474
71.2553
74.2737
74.0487
77.8501
71.6403
72.1281
72.6235
65.1704
72.2761
73.6702
70.3098
71.7371
74.036
52.575
78.8719
69.1103
70.282
74.5195
52.8678
70.1009
74.9599
73.6024
53.665
70.3725
66.5838
68.4025
34.8946
72.5288
72.3596
69.3982
67.3213
44.1735
86.2965
54.2623
84.197
83.8474
86.0733
51.04
82.82
47.0283
66.4068
71.0893
73.1778
70.5025
51.8707
68.9144
15.4856
86.2452
73.2051
85.4395
74.2427
73.2857
59.9463
83.7519
83.3351
44.7917
54.076
71.9877
71.6526
83.6871
52.0318
85.1627
70.7061
71.3336
53.6281
79.6364
85.8974
70.3641
79.8063
71.5914
73.3743
73.2981
80.736
84.9395
57.912
52.228
84.3977
72.9328
73.4133
71.0813
72.5489
73.6698
70.3741
74.4087
80.6596
72.3292
72.069
73.9697
61.3539
73.827
82.1137
73.3723
62.6788
80.9972
84.5967
74.7089
70.5162
82.0421
70.5616
72.5978
73.989
82.513
81.7607
59.3844
53.4021
71.8671
80.8987
81.4499
66.6374
68.7403
73.8587
70.6646
72.4649
67.58
68.5059
73.4332
80.7656
58.1812
73.2667
65.1802
73.8174
71.8175
51.3828
72.9728
80.7852
70.9684
71.5457
70.6393
48.2158
70.182
70.4356
67.484
79.152
80.1712
80.7668
83.2756
83.1287
83.8843
29.3078
54.6978
71.26
73.372
71.1563
71.6249
71.5334
77.3506
75.6707
72.7104
72.9446
76.8687
77.2381
67.4948
70.6488
70.8159
74.247
71.887
73.7906
)
;

boundaryField
{
    frontAndBack
    {
        type            empty;
    }
    wallOuter
    {
        type            zeroGradient;
    }
    inlet
    {
        type            zeroGradient;
    }
    outlet
    {
        type            fixedValue;
        value           uniform 0;
    }
    wallInner
    {
        type            zeroGradient;
    }
    procBoundary3to1
    {
        type            processor;
        value           nonuniform List<scalar> 
48
(
69.7327
71.3159
70.8396
69.9259
72.1528
69.6399
71.3159
66.7698
68.4177
71.0522
71.0522
71.906
71.906
66.6
66.7295
71.1372
68.5278
70.1332
68.5278
67.9496
66.8552
66.65
67.9496
70.9519
70.2973
70.1617
66.6456
66.65
66.7246
70.9836
70.9836
66.6556
66.6556
68.4177
68.9298
72.0024
66.7355
70.2973
69.3934
72.3947
66.6
67.1989
67.9546
67.9496
67.1922
72.9689
71.8578
66.6397
)
;
    }
    procBoundary3to2
    {
        type            processor;
        value           nonuniform List<scalar> 
29
(
71.1838
71.1838
79.6111
80.0014
69.924
74.1455
80.8278
73.235
79.862
79.9107
74.2778
69.7674
72.6067
80.6076
81.1005
80.7771
79.6698
79.5861
71.6581
80.6874
80.7783
79.6698
81.5352
79.5861
81.3376
79.6907
79.5861
68.1736
68.1736
)
;
    }
}


// ************************************************************************* //
