/*--------------------------------*- C++ -*----------------------------------*\
| =========                 |                                                 |
| \\      /  F ield         | OpenFOAM: The Open Source CFD Toolbox           |
|  \\    /   O peration     | Version:  v1912                                 |
|   \\  /    A nd           | Website:  www.openfoam.com                      |
|    \\/     M anipulation  |                                                 |
\*---------------------------------------------------------------------------*/
FoamFile
{
    version     2.0;
    format      ascii;
    class       surfaceScalarField;
    location    "0.38";
    object      phi;
}
// * * * * * * * * * * * * * * * * * * * * * * * * * * * * * * * * * * * * * //

dimensions      [0 3 -1 0 0 0 0];
oriented        oriented;


internalField   nonuniform List<scalar> 
2776
(
-0.000740485
-0.000120544
0.000634239
0.00022679
-0.00088569
0.000958257
0.000305309
-0.000377877
-0.000531556
-0.000221041
0.000323987
0.00042861
0.000175402
-8.02304e-05
0.00100576
-0.00110093
-8.87228e-05
0.000248731
-4.18588e-06
-0.000155822
-0.000115177
-0.000448791
0.000374813
0.000189155
-0.000217002
3.32766e-05
0.000616609
-0.000165623
-0.000777245
0.000326259
0.000993
0.000873696
-0.000877923
-0.000988774
-0.00093917
0.000743547
-0.000225737
0.000421361
-0.000357338
-0.00116239
0.000526453
0.000993276
0.000421497
0.000174122
-0.000551183
-4.44355e-05
0.000872067
0.000113326
-0.00134637
0.00036098
-0.000126513
-0.000133649
0.000171439
0.00010966
-3.54434e-05
-0.000189393
0.000492737
-0.000152394
-0.000697681
-0.000309916
0.000344381
0.000272745
-0.00030721
3.22659e-05
-0.000491543
0.000459277
0.000527589
-0.000157753
8.02e-05
-0.000450035
0.000775378
-5.91191e-05
6.20333e-05
-0.000778292
-0.000703309
3.86294e-05
-2.752e-05
0.000692199
2.00469e-06
0.000206753
-0.000297928
8.91707e-05
0.000590165
2.1998e-05
-2.23853e-05
-0.000589778
0.00074337
4.98252e-05
-3.55976e-05
-0.000757598
0.000304398
-0.000376055
-0.00115548
0.00122713
2.29298e-05
1.73118e-06
3.08135e-05
-5.54745e-05
-0.000224783
6.53799e-06
0.000120463
0.000654478
-0.000737591
-3.73503e-05
0.000136353
-0.000141489
0.000200267
-0.000195131
-0.000363677
0.000415053
0.000636281
-0.000687657
0.000566077
-0.000860508
-0.000109029
0.000403461
5.0237e-05
-5.50756e-06
4.78987e-06
-4.95194e-05
0.000206178
-2.66012e-05
-0.000216553
3.69755e-05
-0.000328953
0.000294866
-0.000746042
0.000780129
4.12415e-05
8.74131e-06
0.000388213
0.000318972
-0.000176116
-6.5033e-06
-0.000542776
-8.99498e-05
-0.000349462
0.000306693
0.000962592
-0.00023063
-0.000731962
0.000122972
-0.000605919
0.000482947
-0.000109815
0.000549015
-0.0004392
-0.000457413
0.000519801
-6.23884e-05
-0.000458104
0.000455408
2.69599e-06
-0.000255372
-8.64231e-05
0.000341795
0.000358649
5.06962e-05
-0.000409345
0.000939821
-0.000172748
0.000936165
8.60102e-05
0.000286282
-0.000321282
3.50008e-05
-0.000270243
0.000315428
-4.51848e-05
-8.72792e-05
0.000171167
-8.38882e-05
-0.00022364
0.00013884
8.47998e-05
-0.000214749
-0.000670941
-0.000362422
-8.63687e-05
0.000301123
-5.23923e-05
0.000324913
-0.000118734
-0.0010722
0.0013766
0.000676153
1.29559e-06
-0.000677449
-0.000956223
-0.000206169
-0.000101145
1.38052e-05
8.73398e-05
-0.000796234
-0.000142936
3.2394e-05
-1.39146e-05
1.44649e-05
-3.29443e-05
-0.000172854
0.000147413
-8.43743e-05
0.000470758
-0.000390113
4.23277e-05
-0.000206265
5.07777e-05
0.000600626
-0.000445139
0.000781589
-0.000679222
-0.000185271
8.29038e-05
0.0002707
-0.000333811
7.36243e-05
-1.05137e-05
0.00025284
1.01885e-06
-4.29086e-05
-0.00021095
-0.000203918
-6.60949e-05
-0.000485801
0.000881694
-0.00088543
6.76816e-05
-6.39459e-05
0.0001872
-0.00029018
-0.00015207
0.00025505
0.000160607
-0.000145594
3.59763e-06
-1.86105e-05
5.33557e-05
-0.000551123
0.000497767
5.91173e-05
-0.000595609
0.000536491
0.00104174
-0.000445654
-0.000796516
0.000200432
1.70647e-05
-4.10593e-05
5.63886e-05
-0.000647788
-7.52844e-05
0.000316213
0.00040686
-0.000125149
-0.000145109
9.74046e-05
4.66156e-05
0.000497744
-7.36014e-05
-0.000117881
5.32218e-05
6.46596e-05
0.000111555
-0.000397962
0.000348639
-6.22309e-05
-0.000597162
3.18223e-05
-5.44373e-05
0.000619777
-0.000307356
0.000490778
0.000343031
2.46926e-05
0.000266517
7.77462e-06
-0.000298984
-0.000335217
-6.10665e-05
0.000289938
0.000106346
-0.000602187
1.5431e-05
0.000594862
-8.1061e-06
-3.68363e-05
0.000595114
-0.000583645
2.53669e-05
-0.000627706
0.0010997
-0.000800945
4.39134e-05
-1.81788e-05
0.000334048
-0.000359783
0.000764412
-0.000398982
3.11003e-05
1.4486e-05
7.32728e-05
-0.000118859
5.81426e-06
1.24613e-05
4.65425e-06
-0.000224012
6.36389e-05
-6.44095e-05
0.000289631
-0.000832026
0.000717797
-0.000224183
0.000259287
-0.000397423
0.00036232
-9.08397e-05
-0.000294081
0.000219298
-0.000206644
0.000818177
0.000140081
-2.00581e-05
-7.92001e-05
5.70522e-05
-6.12381e-05
0.000151173
2.34727e-05
0.000115367
3.05972e-05
0.000255684
-4.13884e-05
-0.000228854
-0.000484188
2.60843e-05
-9.62389e-05
-0.000681007
-4.69946e-05
-2.01594e-05
0.000373483
0.000619793
-6.43324e-05
-7.08245e-06
-2.13944e-05
1.45623e-05
0.000541981
-0.000571608
2.56544e-05
3.97301e-06
7.07273e-05
-0.000638519
0.000447248
0.000273642
0.000469904
-1.28622e-05
-8.25243e-05
2.81387e-05
6.72478e-05
0.000407761
-0.000111973
0.000134612
-0.000425469
0.000712354
7.69682e-05
-0.000232774
-6.11959e-05
-7.96528e-05
0.000304355
0.000120065
-0.00103304
0.000919347
3.34661e-05
-0.000197837
7.79458e-05
5.0964e-05
6.89275e-05
-0.000308517
-0.000102352
0.000282035
0.000128834
-4.20773e-05
-0.000213295
-2.54124e-05
0.000384062
0.000402387
-0.000190494
-0.000691762
0.00018088
0.000618003
-0.000107122
-0.000213939
0.00071758
4.64961e-05
-0.000550137
-0.000332985
0.000962501
6.31661e-05
-0.000692682
-5.90325e-05
7.56132e-06
7.93448e-05
-2.78736e-05
0.000110763
0.000532758
0.000142264
0.000660223
-7.08447e-06
-8.61129e-06
3.45031e-06
1.22454e-05
-0.000439751
0.000455717
0.000205548
-0.000123511
0.000154153
-0.00011388
-8.49945e-05
0.000729404
2.12821e-05
-0.000665692
0.000711317
2.09828e-05
-1.73287e-05
-0.000714971
0.000510511
-2.61163e-05
3.21052e-05
-0.0005165
0.000204297
-0.00012536
-0.00013048
5.15431e-05
-0.000562872
-9.38442e-05
1.62976e-05
0.000640419
5.58836e-05
4.1852e-06
-9.83175e-06
7.77831e-05
-4.00795e-05
-3.04123e-05
-7.29128e-06
0.000132075
-0.00011264
3.19145e-05
-5.13495e-05
0.000175116
-0.000139485
-4.5305e-06
4.13147e-06
-1.11794e-05
0.000228672
-0.000423891
0.000500529
-0.000824702
-9.67445e-05
0.000229685
8.6945e-05
-0.000104327
-7.34575e-05
-0.000175351
-4.23098e-05
-2.23749e-05
0.000240035
0.000215058
-7.06931e-05
8.18558e-05
0.000709662
-4.99963e-05
-0.000741521
0.00077989
-0.000627847
-0.000779748
2.0024e-06
2.18313e-05
6.50367e-06
-3.03374e-05
-0.000733912
0.000236221
0.000476957
2.07342e-05
-6.45214e-06
-3.84e-06
6.61757e-05
-0.000637844
0.000197209
0.00055219
-0.000272348
0.000235512
0.000515467
-0.000790114
-0.000152532
0.00042718
-3.36136e-05
0.000112224
-0.000351288
0.000272678
7.915e-05
-0.000359042
0.000787522
-0.000729548
8.42896e-05
0.000549042
-0.000509553
7.12738e-05
0.000662638
-0.000559787
-5.40759e-05
-4.8775e-05
0.000100921
0.00153284
-0.00120484
-0.00042892
0.000611399
-0.000838554
0.000347618
-6.33887e-06
1.28039e-05
4.09482e-05
-4.74133e-05
0.000151924
-3.85338e-05
5.7777e-05
-4.12282e-05
9.82201e-05
0.000537246
-0.000647931
0.000110685
-0.000398957
0.000284696
-0.001258
0.00137226
-0.000447337
-2.98821e-05
0.000614614
-0.000137395
0.000224879
-0.000191567
-0.00039699
-6.83316e-06
-1.72257e-06
1.47327e-06
4.0391e-05
2.91543e-05
9.10613e-05
-0.00131282
0.00115606
-0.000248521
0.000405281
0.000383845
-0.000328379
-0.000130616
7.51507e-05
0.000146155
-0.000559447
0.000537571
-0.000124278
-0.000178866
-5.4992e-06
0.000119478
6.48875e-05
-2.4858e-05
-9.46581e-07
0.000369361
-0.000343556
0.000607933
3.19516e-05
-4.47702e-05
-0.0005923
1.1912e-05
-2.17992e-05
-0.000359082
-0.000192366
0.000216231
-0.00100107
-0.000169788
0.000285424
-5.21313e-05
2.7821e-05
-9.35711e-05
0.000697442
-0.000187146
-0.000595291
4.46322e-05
-3.41753e-05
4.00793e-06
-0.000441896
0.000333464
0.000398063
0.000305956
0.000366627
-0.000592502
-8.00797e-05
0.000115648
0.00015996
-0.00100952
3.82787e-05
-1.73704e-05
-2.77414e-05
-9.23581e-05
-0.000197822
-0.000405239
0.000331517
0.000534281
-0.00046056
-0.000252529
4.87789e-05
4.47165e-05
0.000159034
-0.000728885
0.000471969
-0.000423867
-0.000240498
0.00022247
0.000109676
-3.66335e-05
-0.000502566
0.000447679
0.000367842
-0.000312955
-0.000328891
0.000332795
4.08485e-05
-4.47531e-05
-0.000132477
-4.54703e-05
3.23536e-05
-0.000245752
-0.0004405
7.18781e-05
0.000735249
0.000495672
0.00078115
-0.000416822
-0.000860001
-6.15925e-06
8.2772e-06
1.3345e-05
-1.54629e-05
1.51374e-05
0.000768351
-8.11047e-06
4.52932e-05
0.000573014
-9.07183e-05
-3.15945e-05
1.30661e-06
-0.000602955
0.000633243
-2.29561e-05
2.30134e-05
-0.000257131
0.000257073
0.000428248
-0.000167218
0.000350369
1.1894e-07
-0.000702351
-1.0771e-06
2.74166e-05
-0.000601529
0.000812106
-0.000237993
0.000625807
0.000117091
-0.000134965
-0.00055618
-8.70294e-06
-0.000242878
-0.000452218
0.000336014
-0.000191267
0.00073359
0.000245199
-0.000155412
0.000522155
0.000182299
-4.56415e-05
-1.4554e-06
-3.54274e-05
-6.45322e-05
-2.15305e-05
5.84237e-05
-4.15394e-05
-4.56207e-05
-0.000466679
0.000336025
-0.000122175
-0.000155281
7.30463e-05
0.000204411
7.7551e-05
0.000120042
-1.36363e-05
-0.000183957
-3.31524e-06
-1.2324e-05
-8.73012e-05
4.38794e-05
-2.21971e-06
4.05053e-05
-6.59184e-05
2.90107e-05
-4.46459e-05
0.000312262
-0.00054085
0.000273233
8.21695e-05
-0.000434545
-0.000240127
-6.75335e-05
0.000414148
-0.000374621
2.80061e-05
0.000154768
9.56251e-05
-0.000135183
-0.00011521
-1.93426e-05
-0.00024502
4.34319e-05
-8.14734e-05
5.84776e-05
-2.04361e-05
5.04274e-06
0.000214233
0.000124486
-0.000112125
-0.000226595
8.61128e-05
-5.14699e-05
-0.000432605
0.000463388
-0.00030273
-0.000343986
2.45035e-05
1.80878e-06
-1.51221e-05
-1.11902e-05
8.00303e-05
-0.000631762
-3.0168e-06
2.95769e-06
-4.53862e-05
4.54454e-05
-0.000255787
0.000898568
-0.00028699
0.00024607
-2.89628e-05
6.98833e-05
-0.000312274
0.00074578
0.000601858
0.00020077
-0.000176821
0.000814976
-0.000422139
0.000891016
-6.61055e-05
8.569e-05
0.000500985
-0.000520569
-2.97208e-06
5.22376e-05
-5.54248e-05
6.54539e-05
1.43317e-05
-7.43435e-05
0.000631473
-0.000780073
-0.000958785
0.00118583
0.000553032
-0.000445148
0.000446455
-0.000267463
0.000384554
7.40733e-05
-5.10599e-05
-2.5779e-05
0.000403124
-2.59873e-05
0.000494944
-3.13584e-05
-6.30272e-05
0.000441241
-0.000440866
-0.000501465
0.000501089
-2.69418e-05
-0.000431121
0.000510931
-7.98093e-05
-5.81131e-05
7.08652e-05
-0.000591445
-0.000141192
-0.00128825
0.000649372
0.00020552
-0.000477869
-0.000432259
-1.28894e-05
8.07643e-05
-6.69098e-06
1.19361e-05
5.82341e-06
-9.48226e-06
-2.45844e-05
2.72605e-05
-4.22606e-05
6.77401e-05
3.72847e-05
-0.000702387
0.000246048
-0.00015837
0.000614708
-0.000591432
0.000459893
0.000170203
-0.000206271
-7.65718e-05
2.47108e-06
4.15496e-05
1.19213e-05
-5.5942e-05
-0.000311007
0.000232174
0.000170995
-9.21616e-05
0.000314924
-0.000183772
0.000434515
-0.000565667
-0.000566212
0.000513381
0.000220515
3.32359e-05
-0.000123027
-0.000130724
6.14001e-05
-0.000104116
0.000109428
-6.67116e-05
0.000343881
-0.000426996
2.50024e-05
-2.04945e-05
0.000322066
-2.16661e-05
3.59368e-05
-4.65472e-07
0.000927157
-0.000841855
-0.000502124
0.00054552
0.000381698
-0.000746338
0.000497387
0.000136853
-0.000816805
3.15558e-05
-0.00080347
0.000416007
-1.96977e-05
-0.000172668
0.000416828
-0.000404916
9.74401e-05
-0.000105103
-7.6225e-05
-4.44661e-05
9.91855e-06
3.1891e-06
-6.7272e-05
-8.6573e-05
8.96021e-05
6.42428e-05
-2.50544e-05
4.82099e-05
4.65585e-05
-6.9714e-05
6.84967e-05
-1.44774e-05
-5.40193e-05
-0.000556295
0.00138721
-0.00108671
0.000551707
-0.000599803
-0.000700214
-7.79941e-05
-0.00015775
0.000138935
-0.000129331
-4.75861e-05
2.85916e-05
0.000148325
5.29054e-05
-0.000112592
0.000301226
-0.00024154
-0.000882955
0.000911369
0.000368026
-0.000396439
-0.000164369
0.00010711
-0.000830405
0.000887664
-0.00110159
0.000539327
0.000759468
-0.000135118
0.000443334
-0.000373228
0.000773833
0.000132686
0.000286828
-0.000154333
-0.000265181
7.67589e-05
-0.000462625
4.94155e-05
0.000336451
0.000646341
-4.07692e-05
9.04211e-06
-6.2677e-05
5.57314e-05
4.42446e-05
-3.7299e-05
0.000698096
-1.12991e-05
0.000318284
-0.00100508
-0.00015392
0.000217169
-1.03435e-05
2.3419e-05
3.79455e-06
8.24461e-05
-4.35737e-05
-1.7531e-06
8.60684e-07
-0.000938458
-5.56336e-05
9.96934e-05
0.000894398
-0.000974235
0.000473996
0.000997273
-0.000497034
0.000120306
-0.000453858
0.000577051
0.000574903
-6.07963e-06
5.5339e-06
-6.67282e-05
0.000146736
0.000387276
-0.000467283
6.21505e-05
-0.000542446
0.000512561
-0.000469218
-0.000182223
0.000149201
-0.000188018
0.0007596
-0.000852767
0.000339215
-0.000209181
0.00029638
0.000354043
0.00120547
-0.000557384
0.000264143
-0.000912224
0.000444325
-7.40848e-05
-0.000254593
8.21195e-05
-2.67515e-05
-0.000204585
0.000118127
0.000220752
-0.000134294
5.38557e-05
-8.36455e-05
2.29644e-06
2.74934e-05
-0.000167867
-0.000140507
0.000211629
9.67454e-05
-0.000412994
-4.89082e-06
-0.000442116
0.000341269
0.00020866
0.000292477
-0.000450297
0.00051666
-0.00035884
0.00048453
0.00108953
-4.12211e-05
-1.09119e-05
7.94086e-05
-0.000586812
-2.06288e-05
0.000792974
-0.000682674
0.000384344
-0.000494644
-0.000150719
-0.000818808
-3.15386e-05
0.000239681
0.000498162
-0.000522669
-0.000696268
0.00153961
0.000362121
-2.5416e-05
-0.0011401
0.00130834
-0.00014283
-3.21775e-05
0.000104674
0.000107038
-0.00015598
0.000156852
0.000215495
0.00044507
-0.000341592
-8.05457e-05
-0.000476838
0.00132859
-0.000545926
-0.00147893
0.000355998
-0.00044598
6.552e-05
6.97605e-06
0.000346045
-6.98998e-05
5.56094e-05
-4.14352e-05
0.000600534
-6.39999e-05
-0.000335671
0.000392038
7.63284e-06
-5.44605e-05
-6.35231e-05
-5.00708e-05
0.00027752
2.53902e-05
0.000687628
-0.000634692
-0.000526407
0.000473471
0.00068663
-0.000871045
0.00065022
-0.000465804
-0.000173223
9.26774e-05
0.000208324
0.000606886
-0.000464152
0.000318219
0.0010573
0.000307505
-2.8952e-06
0.000503094
-0.000286079
-0.000217016
0.000582856
-0.000838684
-0.000239606
0.000119905
-6.25219e-05
-0.000553115
-8.40001e-05
2.40488e-05
0.000613066
0.000212001
0.000382206
-0.000420085
0.000711847
-0.000208753
-0.000412799
-0.000164695
0.000353311
0.000482622
-0.000694246
0.00026832
-9.02394e-05
2.43638e-05
-0.000202445
-1.05802e-05
0.00031537
-4.42745e-05
-0.000260515
0.000333809
-7.60693e-05
-1.41523e-05
0.000404811
-5.68496e-05
-0.000381695
-0.000102527
0.000434573
4.96484e-05
-8.04767e-05
0.000436808
-0.000208131
5.43452e-05
0.000228778
0.000153685
4.27768e-05
0.000312795
2.02144e-05
0.000239732
-1.22507e-05
5.94537e-06
4.77296e-05
-4.14243e-05
-0.000273236
4.95895e-05
0.000295324
-7.16771e-05
1.31637e-05
-0.000186192
0.000164559
8.46887e-06
6.97178e-05
-0.000291401
-5.15525e-05
2.47768e-05
-8.52934e-06
-1.53657e-05
-8.81762e-07
1.04208e-05
-2.8237e-05
9.65698e-05
-7.87536e-05
3.36732e-05
-0.000117575
-0.000258126
0.000969973
9.69078e-06
2.44594e-05
-9.3734e-06
5.81058e-05
-4.7685e-05
-1.24789e-05
6.03286e-06
4.01193e-05
9.97764e-05
-2.82739e-06
-0.000527632
0.000106558
-0.000516215
0.000937289
3.80598e-05
0.000161184
-0.00113608
-0.000216296
0.00112356
0.000228819
-7.08956e-05
2.63361e-05
5.47391e-05
-1.01795e-05
0.000577833
-0.00028287
-0.000822595
2.89784e-05
0.000140276
-0.000303897
0.000120802
0.000237092
-5.39976e-05
0.00014008
-0.000105934
-0.000140268
0.000106122
2.09468e-05
4.14093e-05
-7.1784e-06
-5.51778e-05
-5.28758e-05
0.000737266
-0.000496988
0.000473091
-1.3554e-05
8.27379e-05
-0.000230931
-0.000314826
0.000279305
0.000266453
0.000193439
0.00013604
0.000184674
4.68255e-05
3.33915e-05
-0.000124047
3.51139e-05
9.25193e-06
-0.000372774
0.000261611
-0.000372124
0.000483287
-8.73141e-06
-7.62278e-06
-8.95794e-05
5.09314e-05
-7.32168e-05
-2.89989e-05
7.39208e-05
-0.000417696
-0.000706585
-0.00018918
-1.46996e-05
0.000174881
-0.000107672
-2.75316e-05
0.000186122
-8.19842e-05
7.90164e-05
6.39847e-06
-3.8254e-05
6.44588e-05
7.07179e-06
-0.000120409
-2.36439e-05
0.000203713
4.56763e-05
-2.46125e-05
-7.33984e-05
5.23347e-05
-6.53511e-05
4.09703e-05
-3.85612e-06
3.33451e-05
-0.000206568
0.00110318
4.0001e-05
-0.00114318
0.000145579
-0.000165102
0.000248195
6.41736e-05
-6.0678e-06
-1.72576e-05
-0.000110661
3.8151e-05
-9.30145e-05
5.48636e-05
8.90014e-05
1.9298e-05
1.32386e-06
6.86625e-08
-1.12934e-05
4.62688e-05
-5.85195e-05
5.98991e-05
0.000112386
-0.000152987
3.24328e-05
-7.84343e-05
0.000138917
9.2955e-05
-8.62925e-05
0.000514629
0.000140614
-0.000584516
0.000175252
-0.000192959
0.00112361
0.00017257
-0.000237402
0.000203748
0.0003757
0.000313478
-0.000174549
0.000142314
-0.00023456
9.62681e-05
-4.02199e-06
-0.000115394
0.000256164
0.000135675
-0.000276446
0.000176307
-0.000213406
-5.34965e-05
6.51992e-05
-1.17027e-05
0.00140428
-5.35776e-05
-9.98803e-05
5.03225e-05
5.55032e-05
6.31482e-05
-1.68793e-05
-9.28842e-05
-2.35614e-05
0.000150323
-3.38772e-05
6.78393e-05
0.000327248
-0.00012857
9.65167e-06
0.000148107
-9.09309e-05
0.000122189
-2.59466e-05
1.58927e-05
1.49576e-05
0.000123737
-0.000148782
0.000165413
-0.00017504
0.000173657
0.000118935
-8.0591e-05
0.000206987
-0.000195375
-0.000408704
0.000439803
-0.000133626
-4.53307e-05
7.08751e-05
0.000110645
-2.05011e-05
0.000161373
-0.000251516
-0.00013263
-0.000356551
0.000130513
-0.000101262
0.000201437
-9.55218e-05
0.000147004
8.39822e-05
-0.000145776
9.49987e-05
0.000162137
-5.99048e-05
0.000104754
0.000177649
-0.000221423
5.46734e-05
-9.25789e-05
-0.000344417
5.86673e-05
0.000378329
0.000289382
-7.25163e-05
-0.000242801
2.59349e-05
0.00013817
0.000182458
-0.000101201
-0.000219427
0.000130974
0.00105877
-0.00042737
-0.000983244
-8.96842e-05
0.00034241
3.66564e-05
-0.000158529
0.000224183
0.00111475
0.000250259
1.31555e-05
-6.16943e-06
0.000155151
-0.000121708
0.000131091
-5.22868e-05
2.7928e-05
0.000331864
-9.88843e-05
-0.000104245
4.46001e-05
0.000493074
-5.81479e-06
-0.000174992
0.000108501
-0.000117851
0.000449153
-0.000306858
-0.000114611
-0.000446194
4.39362e-05
0.000451847
-2.15299e-05
0.000657379
-0.000551625
-8.42242e-05
8.5942e-05
0.000457132
0.000711801
-0.000275547
-4.16496e-05
0.000254807
6.2389e-05
-7.2134e-05
0.000526594
-0.000472504
-0.000144939
0.000545308
-0.000197881
0.000121031
-4.01531e-05
-0.0001764
-0.000207125
-0.000429104
-0.00011446
0.000479564
-0.000831234
0.000941134
0.000224089
0.000127074
0.000207421
0.000159046
0.000497199
-0.000515032
-3.69768e-06
0.000224511
-7.28641e-05
-0.000167923
1.62763e-05
0.000289318
-0.00015482
-5.31368e-06
2.43757e-06
-0.00110461
0.00107919
0.000347204
-4.52934e-05
0.000355468
0.000129655
0.00012511
-0.000222282
0.000168047
0.000700805
0.000715143
0.000203274
2.53337e-05
-0.000943751
-9.09111e-05
0.00010996
0.000453396
0.000159139
0.000215348
8.94687e-05
-0.000325318
-3.69839e-05
0.000489987
-0.000455755
2.75238e-06
-0.000839846
0.000704272
8.56308e-05
-0.000140729
0.000375838
-0.00015152
-0.000356948
0.000243289
0.000133431
4.38205e-05
-7.18476e-05
6.13723e-05
0.000367323
0.000391057
-2.83386e-05
-3.7313e-05
0.000103803
0.00109193
1.1246e-05
1.67373e-05
7.02149e-05
6.99575e-05
-0.000446433
-0.000470234
0.000492645
4.75465e-05
-0.000885943
0.000565095
-0.000683988
8.31246e-05
-0.000885071
-0.000525543
-0.000624592
0.000899499
-9.48789e-05
6.06285e-05
0.000156064
-0.000243147
1.44281e-05
-0.000192987
0.000332596
-0.000899499
0.000462739
9.15174e-05
-0.000954695
0.000660345
-0.000591594
1.38747e-05
-3.23592e-05
0.000685161
-0.000666677
0.000232541
0.000272475
1.9092e-05
-0.0003564
6.4833e-05
7.98927e-05
-1.8026e-06
-0.000149335
-9.42365e-05
8.11345e-05
-1.26741e-05
-0.000382589
6.93165e-05
-2.57571e-07
0.000123167
0.000400641
-0.000582013
2.12179e-05
0.000428507
6.39899e-05
-8.45516e-05
-0.00055592
-0.000672764
0.00123719
6.64769e-05
-6.05782e-05
0.000525079
2.63292e-05
0.000622691
-0.00057562
-7.34004e-05
-6.82577e-05
0.00010648
-0.00097668
-2.65178e-05
8.66322e-06
0.000542934
-0.000523889
0.000192072
-0.000200007
0.000217294
-0.000209359
0.0014695
-0.000882984
0.000313586
-0.000900101
0.000439635
-1.91936e-05
-0.000507592
2.15501e-05
0.000773158
-0.000584427
-0.000358912
0.000170181
0.000255515
-0.000227877
-0.00013379
0.000672481
-0.000506026
-0.00040253
-3.18876e-05
-0.000150407
0.00025231
7.14994e-05
-0.000173403
-0.0011807
9.00361e-05
5.76223e-05
0.000804953
8.57076e-05
0.000206573
-0.00109723
0.000459744
-1.15947e-05
7.57318e-05
-7.85988e-07
4.71934e-05
0.0004527
-0.000893796
0.000559392
-0.000146096
-0.000252339
0.000136866
0.000261569
-0.000477673
0.000658568
-0.000664709
0.000731188
-0.000442395
0.000500873
4.16261e-05
0.00113519
-0.00113681
-0.000134041
-0.000293842
0.000922857
-0.000913591
-0.000330497
0.00054656
-0.000436237
0.000958023
-0.000991003
0.000909549
-0.000895908
-0.000364293
-8.49059e-05
1.46538e-05
-0.000182105
0.000102027
0.000145599
-4.21842e-06
0.000184143
4.45867e-05
-0.000109632
-0.000127538
-0.00010715
0.000105996
0.000148158
-0.000126721
-0.000402633
0.000249821
-0.000147139
-0.000825879
-0.000246646
0.000666048
-0.000784751
-0.000538606
-0.000688057
0.000814401
0.000788509
-7.78878e-05
-0.000165101
0.000124429
-0.000879149
6.79167e-05
-9.56051e-05
8.81949e-05
-0.000868603
8.59995e-06
1.5518e-05
0.000861997
-0.000886115
5.68575e-05
2.58781e-05
0.000850546
-0.000876424
-0.000221163
7.28632e-05
-0.000164853
0.00071491
-0.000186068
-0.000135506
-6.45791e-05
-0.000567221
-0.000233047
0.000407614
-0.000463575
1.28411e-05
0.000806006
-0.000765667
-0.000666951
-0.000844859
0.000980896
0.000530914
3.26245e-05
-1.73222e-05
0.000907555
0.000145832
0.00022565
0.00101319
-0.00105557
0.000691268
-0.000104606
-0.00105194
0.00109456
6.19829e-05
-0.00112911
-2.36609e-05
7.41951e-05
-6.46519e-05
-0.000556969
-0.000164365
0.000576395
7.22152e-05
-0.000489541
-0.00013821
0.000513291
-0.000344866
4.04302e-05
-0.00102578
-0.000495068
0.000478389
0.000149364
-3.6374e-05
-2.0211e-05
8.45131e-05
-0.000531337
-0.000152353
-0.000172278
-0.000834332
-4.92202e-05
0.000883552
-5.59631e-07
-7.21318e-06
2.26525e-06
0.000274286
-0.00125442
-5.46514e-05
0.00103478
-0.000434326
1.52272e-05
-8.86106e-06
-8.32011e-06
0.000547526
-0.000530345
-5.90386e-05
3.01978e-05
-0.000940095
-5.23407e-05
2.31975e-05
-7.51019e-05
-4.25418e-05
-1.70493e-05
2.29576e-05
0.00066441
-0.000390593
0.000117467
0.0002684
0.000348738
0.000168079
0.000246054
5.5385e-05
0.000137966
-0.000411887
-3.70854e-05
0.000129825
-0.000243855
0.000100394
-0.000103235
0.000138514
3.77672e-05
3.93889e-05
-1.1846e-05
-1.3209e-05
5.26222e-05
-5.03251e-05
-0.000510853
0.000808523
-0.000293042
-4.6276e-06
0.000857944
-0.000871681
0.000614112
3.34995e-05
0.000224069
-3.97183e-05
0.000242549
-4.05411e-05
3.43283e-05
-1.83716e-05
1.13159e-05
-6.82696e-05
1.68006e-05
1.97732e-05
-3.53772e-05
1.5604e-05
-6.75354e-05
4.26734e-07
-4.77083e-05
2.61102e-05
2.15981e-05
-6.77098e-05
6.1606e-05
6.10375e-06
-4.34523e-05
-0.000310016
-5.61328e-05
5.12742e-05
4.8586e-06
3.09456e-05
-0.00109738
0.00116777
-0.000483532
-0.00150683
-3.2157e-06
2.29889e-05
-7.40486e-05
0.000184867
0.000108258
-2.06503e-05
-7.22274e-05
2.45191e-05
1.66468e-05
0.000672609
-0.000652305
-0.000184669
2.28945e-05
5.47323e-06
4.08857e-06
-0.00032761
-0.000151091
-0.000176819
0.00028122
0.000149193
3.14633e-05
-7.87065e-05
4.65791e-06
-0.00016554
0.000205101
-3.28601e-08
-0.000431553
5.10758e-05
0.000442627
-0.000422936
0.000522899
0.000718683
-7.72905e-05
-2.92048e-05
6.7071e-05
0.000653402
0.00117856
-0.000937281
0.000690874
7.18872e-05
0.000424527
-0.000321122
2.62502e-05
-2.74584e-05
-0.000104159
0.00012014
0.000111139
-0.000171022
-6.02565e-05
-0.000118516
-8.25441e-05
-0.00049613
1.62143e-05
-0.000626305
-0.000106104
5.71175e-05
0.000675291
0.000973769
9.71719e-05
-0.000320688
0.000142478
3.97533e-05
-6.41042e-05
8.79989e-05
-8.59029e-06
0.000199806
-0.000484406
-0.000379767
-8.24198e-05
-1.96828e-05
0.000210361
-0.00015525
0.000135467
-3.83259e-05
-0.000110614
8.06703e-05
-2.37907e-06
-0.000368252
-0.000664114
0.000614118
0.00085469
5.90077e-05
-6.48087e-05
-5.76247e-06
-0.000658162
0.000467001
-2.70625e-05
-0.00030498
0.000277605
-0.000160895
0.000361337
-0.000162599
0.000123545
-5.04315e-05
8.94854e-05
5.18841e-05
0.000173896
3.22247e-05
-0.000145443
0.000120103
2.53398e-05
5.85026e-05
-6.94547e-05
1.09521e-05
1.4551e-05
-9.16462e-05
5.28684e-05
-0.000118326
0.000628608
0.000262877
-4.70662e-05
8.67742e-05
0.000117004
-0.000104001
-0.00035935
0.000306578
3.8342e-06
-0.00111034
-2.45577e-05
7.93335e-05
0.00121265
-0.00115448
4.00445e-05
-4.58318e-05
4.76909e-05
0.000109292
-7.66365e-05
0.000128049
0.000434052
5.82153e-06
-1.20301e-05
0.000420357
-0.000293352
-0.000399196
1.02047e-05
-0.000805802
-0.00045577
-0.000264295
-0.000144735
5.77615e-05
-0.00032129
5.51606e-05
-1.587e-05
-1.69017e-05
-2.23889e-05
-0.000329966
-0.000106769
-0.000187785
0.000130561
-0.000154016
-0.000341976
9.8162e-05
0.000509353
-4.50456e-05
9.66839e-06
-0.000303654
-0.001015
-6.91185e-05
7.30692e-05
1.80683e-05
-7.37287e-05
-3.14434e-06
-0.000212311
-0.000114887
0.000289885
-8.10644e-05
0.000310097
-0.000331345
-3.50951e-05
-0.000201057
1.08747e-05
1.65156e-05
-7.9731e-05
-0.000156061
0.000567179
-4.54307e-05
3.10622e-05
-0.000196478
-0.000231632
-0.000769101
0.000985697
-0.000694729
0.000338544
-0.000488673
7.85437e-05
0.000837071
-8.70532e-05
0.000145973
9.02812e-05
-0.000109443
-0.000182605
0.000134299
9.99031e-05
-0.000134989
6.36773e-05
6.78789e-05
-1.56468e-05
-0.00012408
0.000739819
-0.000164019
-0.00070959
0.000233871
0.00012099
0.000151142
2.7869e-05
3.06336e-05
-0.000108222
0.00117562
5.30818e-05
-0.00015767
-0.000653909
-3.80489e-06
-0.000915548
0.000575819
-1.67527e-05
0.000158514
-2.44963e-05
0.000215253
-6.54454e-05
-0.000160791
0.000201138
3.76418e-05
1.64295e-05
1.71297e-05
0.000540739
7.00833e-05
-0.000189079
0.000347521
5.05447e-05
-9.07143e-05
-1.19618e-05
-0.000277698
-8.39994e-05
3.90387e-05
-6.65522e-05
9.02624e-05
0.000237901
0.000396494
-0.000493762
-5.87931e-05
-0.000696001
-0.000512523
0.000439424
-4.54749e-05
7.8848e-05
0.000111227
-4.95786e-05
-2.72889e-07
5.54006e-05
-0.000250867
0.000158687
-0.000253108
0.000682076
7.19026e-07
0.000128298
-9.16896e-05
8.24984e-05
-0.000125992
6.22864e-06
-2.03304e-05
0.00076964
-0.000458538
-0.000203992
0.000453817
-0.000710676
7.82436e-06
-0.000139053
7.5725e-05
0.000449071
-0.0011803
-0.000283769
-0.000163622
0.00025963
-0.000320755
-0.000127747
-0.000563341
0.000476338
-0.000152153
-7.00619e-05
1.76287e-05
-0.000492355
-0.000543988
-0.00125754
-5.07151e-05
-1.29657e-05
-0.000347954
1.82562e-06
6.34802e-05
-5.47818e-05
-1.0524e-05
0.000169323
-0.000144351
-2.50831e-05
0.000237802
-0.000264189
-0.000162761
0.000477688
-0.000381655
0.000158781
-8.01661e-05
-0.000477597
0.00106565
-0.000967737
4.01472e-05
0.00037743
-0.000247157
-9.26428e-05
0.000254169
5.92262e-05
-2.54394e-05
8.52299e-06
1.51939e-05
-0.000157447
-0.00149246
-0.000900982
-0.000383357
0.000313372
7.72999e-05
-3.51931e-05
1.89404e-05
-0.000120209
-2.19456e-05
-9.99811e-06
-9.22879e-07
-0.00019238
-0.0003158
8.45802e-05
-6.76122e-05
-0.000622644
0.000637782
-0.000560611
0.000631206
6.57541e-06
-0.000539774
0.000480635
5.91386e-05
-0.000488977
-7.16335e-05
-8.34202e-06
-0.000689927
0.000690046
-0.000558167
0.000573508
-1.53411e-05
-0.000512874
-0.000640731
-4.91959e-05
0.000662526
0.000635669
2.68574e-05
-0.000568853
-0.000432674
0.000497988
-0.000451656
-4.6332e-05
-0.000334479
-9.81946e-05
-0.000239756
-9.47234e-05
0.000176637
-0.000127858
-6.31191e-05
0.000622805
1.28636e-05
0.000641295
-1.84897e-05
0.000662577
7.33349e-07
0.000549847
-0.000367041
8.94224e-05
-1.42352e-06
-0.000106999
-0.000220127
0.000117767
-0.000234715
0.000142977
0.000306501
-0.000194741
0.000208649
-0.000229204
-0.000679927
0.000163108
-2.38874e-05
7.40149e-05
0.000462434
-0.000586316
0.000103894
-0.000143882
0.000135591
0.00013601
9.73105e-05
2.27925e-05
-0.000838358
-4.54271e-05
-0.000101941
0.000118683
-7.41207e-05
9.31613e-05
-0.000817403
-0.000195471
-0.00148668
0.000542393
0.000253209
-0.00019897
-2.81549e-05
0.000659432
-6.51022e-05
0.000100971
0.000313906
-0.000441671
0.00104591
-0.00124846
8.16786e-05
9.11564e-07
-8.25902e-05
0.00124432
3.46674e-05
7.55187e-05
0.000225489
-0.000136947
1.14349e-05
3.34823e-05
0.000216652
0.000788744
-0.000791057
-0.000161706
-0.000122536
4.91741e-05
-0.000377534
0.000209457
0.000705323
0.000799063
-0.000798687
6.88237e-05
-4.49217e-05
-0.000296246
6.02859e-05
0.000274973
-0.000164056
0.000175911
-0.000537018
-0.000802335
-0.000216796
-7.36944e-05
0.000175704
-7.6039e-05
0.000124063
-0.000223728
0.000237362
0.000229207
-0.000220499
8.93805e-05
-9.99436e-05
-9.00958e-05
-0.00026796
0.00069152
0.000103025
-1.57565e-06
-2.02211e-05
-1.84273e-05
3.45752e-05
0.000169632
0.000305972
-0.000441505
-4.73574e-06
-0.00013801
0.000690968
0.000586041
-0.000181858
-9.58941e-05
-0.000528992
-0.000622082
0.000616267
-0.000174673
1.1051e-05
-0.000785171
0.000577466
-0.000165524
-0.000328
0.000188891
3.99056e-06
0.000142815
0.000354658
-0.000511416
-6.89791e-05
0.000195644
2.61521e-05
-2.20296e-05
4.41038e-05
-0.000585491
-3.52209e-05
-4.20231e-05
-6.39327e-05
0.000399978
0.000119542
0.000424239
0.000444715
-0.000132623
0.000135219
0.000493565
-0.0005073
-0.00011962
2.18141e-05
-4.61234e-06
-1.63411e-05
-0.000499489
-6.76378e-05
3.47601e-07
-0.000505661
-0.00134913
0.00111613
0.00018262
-8.95811e-05
0.000676601
0.000203314
6.89324e-05
5.15608e-05
5.47865e-05
-0.000200365
0.000281701
-4.11618e-05
1.25241e-05
4.50671e-05
-8.09648e-06
-1.96529e-06
-9.95699e-05
5.82634e-05
-6.29373e-05
0.00011067
0.000760724
0.00049863
-0.000402776
-3.56969e-05
0.000242662
-0.000176396
-0.000343963
-0.000121055
0.000156077
-0.000241605
-6.4736e-07
-0.000130298
6.30241e-05
0.000257461
-0.000326819
6.33358e-06
-8.2198e-05
-4.28021e-05
7.64212e-06
3.28632e-05
-0.000269068
0.000172127