/*--------------------------------*- C++ -*----------------------------------*\
| =========                 |                                                 |
| \\      /  F ield         | OpenFOAM: The Open Source CFD Toolbox           |
|  \\    /   O peration     | Version:  v1912                                 |
|   \\  /    A nd           | Website:  www.openfoam.com                      |
|    \\/     M anipulation  |                                                 |
\*---------------------------------------------------------------------------*/
FoamFile
{
    version     2.0;
    format      ascii;
    class       surfaceScalarField;
    location    "0.45";
    object      phi;
}
// * * * * * * * * * * * * * * * * * * * * * * * * * * * * * * * * * * * * * //

dimensions      [0 3 -1 0 0 0 0];
oriented        oriented;


internalField   nonuniform List<scalar> 
2776
(
-0.000787159
-0.000125892
0.000701285
0.000211767
-0.000866232
0.000938126
0.000297748
-0.000369641
-0.000665871
-0.000214224
0.000400769
0.000479325
0.000182932
-8.51415e-05
0.000962179
-0.00105997
-0.000120849
0.000118215
0.00011542
-0.000112786
-0.000120504
-0.000455399
0.000382234
0.000193669
-0.000230264
-1.18143e-05
0.000711813
-0.000206505
-0.000847531
0.000342224
0.00098205
0.000865102
-0.000868721
-0.000978431
-0.000922352
0.000731894
-0.000222057
0.000412515
-0.000331564
-0.00112098
0.000506587
0.000945961
0.000411965
0.00017611
-0.000541912
-4.6163e-05
0.000868974
0.000113634
-0.00134064
0.000358032
-0.000129951
-0.000137185
0.000146287
0.000122189
-3.92046e-05
-0.000203489
0.00046249
-0.000136856
-0.000657198
-0.000335015
0.00044736
0.000260674
-0.00037302
3.11649e-05
-0.000464166
0.000433002
0.000513442
-0.000153244
7.79383e-05
-0.000438137
0.000751062
-6.18169e-05
6.31667e-05
-0.000752411
-0.000667649
3.55881e-05
-2.52679e-05
0.000657328
4.55782e-07
0.000225591
-0.000328083
0.000102037
0.000573221
2.32031e-05
-2.29889e-05
-0.000573436
0.000726487
4.0863e-05
-3.09909e-05
-0.00073636
0.000300683
-0.000373544
-0.00114511
0.00121797
2.22807e-05
-1.82866e-06
3.15392e-05
-5.19913e-05
-0.00024611
2.67887e-06
0.000112606
0.000622363
-0.000700708
-3.42617e-05
0.000170117
-0.000141201
0.000200131
-0.000229047
-0.000351493
0.000404045
0.000614531
-0.000667083
0.0005508
-0.000810549
-0.000110066
0.000369815
5.21411e-05
-5.05612e-06
4.35714e-06
-5.14421e-05
0.000337544
-0.000191398
-0.000261513
0.000115367
-0.000264468
0.000228683
-0.000666272
0.000702057
3.5683e-05
9.44751e-06
0.000361693
0.000353503
-0.000214535
3.11496e-05
-0.000471464
-0.000102488
-0.000249409
0.000376798
0.000933074
-0.000226712
-0.000706362
-3.34224e-05
-0.000166451
0.000199873
-5.27608e-05
0.000533548
-0.000480787
-0.000481155
0.000547417
-6.62611e-05
-0.000484589
0.0004807
3.88908e-06
-0.000446815
-1.72489e-05
0.000464064
0.000311975
-5.20131e-05
-0.000259962
0.000783563
-0.000147817
0.000913
8.32204e-05
0.000280129
-0.00026556
-1.45683e-05
-0.000278762
0.000322294
-4.3532e-05
3.10872e-05
7.3911e-05
-0.000104998
-0.000231697
0.000149376
8.2321e-05
-0.000210334
-0.000655898
-0.000367763
-8.7636e-05
0.000206536
-8.83211e-05
0.000456708
-0.000119164
-0.00106007
0.00136076
0.000688239
-5.28274e-05
-0.000635412
-0.0009294
-0.000191584
-0.00012633
-2.18263e-06
0.000128512
-0.000779353
-0.000142999
2.95536e-05
-1.0765e-05
1.19694e-05
-3.0758e-05
-0.000275029
0.00022501
-2.74127e-06
0.000235803
-0.000205872
-6.33539e-05
-0.00020279
5.06462e-05
0.000587615
-0.000435471
0.000783859
-0.000679794
-0.000188772
8.47071e-05
0.000288868
-0.000360303
6.73628e-05
4.07238e-06
0.00023638
1.48883e-05
-4.69625e-05
-0.000204306
-0.00023264
-4.08028e-05
-0.00045672
0.000857466
-0.000860085
6.75597e-05
-6.49406e-05
0.000191567
-0.000290958
-0.000141073
0.000240464
0.000153607
-0.0001384
3.8474e-06
-1.90542e-05
5.33327e-05
-0.000533388
0.000480056
5.40966e-05
-0.000602607
0.00054851
0.00103209
-0.000441379
-0.000788496
0.000197784
1.67299e-05
-3.85693e-05
5.1393e-05
-0.000617282
-6.89478e-05
0.0002992
0.00038703
2.41579e-06
-0.000294168
1.6723e-05
-0.000102421
0.000278135
6.00889e-05
-5.37318e-05
2.87853e-05
2.49465e-05
0.00010654
-0.000382206
0.000334924
-5.92572e-05
-0.000575855
3.41493e-05
-5.81172e-05
0.000599823
-0.000282421
0.000461128
0.00032788
2.61009e-05
0.000303106
2.46111e-05
-0.000353818
-0.00032257
-6.08737e-05
0.000280529
0.000102915
-0.000570764
1.19146e-05
0.000562505
-3.65534e-06
-3.65951e-05
0.000563408
-0.000551894
2.50809e-05
-0.000541535
0.00101296
-0.00073589
4.07725e-05
-1.67679e-05
0.000319297
-0.000343301
0.000745204
-0.000387985
2.9892e-05
2.11552e-05
7.85997e-05
-0.000129647
7.66611e-06
7.17064e-06
7.444e-06
-0.000240073
6.55058e-05
-7.15427e-05
0.000293711
-0.000807402
0.000696623
-0.000105768
0.000326531
-0.000488295
0.000267532
-0.000126356
-0.000312471
0.000232322
-0.000209164
0.000802016
0.00013611
-1.64005e-05
-7.80225e-05
0.000146086
-3.06662e-05
0.000150537
2.31008e-05
0.000126275
1.07357e-05
0.000269393
-3.9952e-05
-0.00023881
-0.000513004
2.84157e-05
-0.0001206
-0.000726931
-4.54689e-05
-5.90242e-05
0.000364484
0.000581478
-9.89202e-05
-3.75608e-06
-1.98886e-05
1.28797e-05
0.000510524
-0.000536121
2.4713e-05
8.84166e-07
1.27824e-05
-0.000515911
0.000377237
0.00027131
0.000460584
-8.0032e-06
-7.38838e-05
2.4422e-05
5.7465e-05
0.000427528
-0.000120185
0.000138521
-0.000414421
0.000687865
5.76534e-05
-0.00023113
-5.67874e-05
2.8116e-05
0.000120224
1.66282e-05
-0.000994627
0.000879025
3.04601e-05
4.45275e-05
5.68164e-05
-5.0505e-05
-5.08388e-05
-0.000337211
1.27525e-06
0.000166138
0.000169798
1.93653e-05
-0.000466181
-6.89355e-05
0.000380911
0.000395107
-0.000177439
-0.000670687
0.000174821
0.000597789
-0.000101923
-0.00020121
0.000691456
4.22093e-05
-0.000532455
-0.00034849
0.000961009
7.37234e-05
-0.000686242
-5.65184e-05
8.43032e-06
7.65121e-05
-2.84241e-05
0.00011008
0.000516474
0.000129357
0.000651227
-7.42929e-06
-1.28114e-05
4.32756e-06
1.59132e-05
-0.000390651
3.80737e-05
0.000250468
-8.82327e-05
-8.15258e-06
-0.000160311
-8.14646e-05
0.000692984
2.09206e-05
-0.00063244
0.000681554
1.44637e-05
-1.15157e-05
-0.000684502
0.000496035
-2.40535e-05
3.01654e-05
-0.000502147
0.000222917
-0.000130881
-0.000148364
5.63275e-05
-0.00053512
-8.93234e-05
1.63749e-05
0.000608069
5.74146e-05
3.88471e-06
-9.15824e-06
7.39243e-05
-3.82512e-05
-2.83964e-05
-7.27672e-06
0.000126701
-0.000108038
3.15117e-05
-5.01741e-05
0.000176681
-0.000143761
-3.02835e-06
8.78046e-06
-9.11755e-06
0.000222337
-0.000414297
0.000489708
-0.000801456
-9.1773e-05
0.000222542
9.35252e-05
-0.000110789
-0.000109092
-0.000169476
-3.94704e-05
-2.36612e-05
0.000232608
0.000237144
-7.78142e-05
7.25777e-05
0.000680419
-4.47594e-05
-0.000708237
0.000765694
-0.00057344
-0.000733789
1.07182e-06
2.34038e-05
6.73726e-06
-3.12128e-05
-0.000724165
0.000232768
0.000470946
2.04516e-05
-6.41925e-06
-3.9211e-06
6.7755e-05
-0.000615891
0.00019022
0.00053221
-0.000255973
0.000219378
0.000488317
-0.000756722
-0.000141235
0.00040964
-3.12324e-05
0.000107992
-0.000342734
0.000265975
8.4489e-05
-0.000374576
0.000768498
-0.000701567
6.2426e-05
0.000531287
-0.000494715
7.3508e-05
0.000629515
-0.000532021
-4.61806e-05
-5.13132e-05
0.000108236
0.0015211
-0.00119295
-0.000436385
0.000580817
-0.000794851
0.00032664
-7.10747e-06
1.39199e-05
4.12948e-05
-4.81073e-05
9.48272e-05
-4.66342e-05
2.57181e-05
-3.78987e-05
9.3909e-05
0.000527073
-0.000636501
0.000109428
-0.000394511
0.000282131
-0.00124256
0.00135494
-0.000435222
-2.8532e-05
0.000597515
-0.000133761
0.000215566
-0.000184582
-0.000382478
-6.01757e-06
-9.32e-07
3.19349e-06
3.78799e-05
2.84343e-05
8.72927e-05
-0.00130957
0.00115062
-0.000243316
0.000402258
0.000375676
-0.000321402
-0.00012853
7.42559e-05
0.000138831
-0.000528486
0.000503824
-0.000114169
-0.000122526
-1.67288e-05
8.90947e-05
5.01604e-05
-2.53403e-05
-1.12115e-07
0.000351743
-0.00032629
0.000576279
2.80781e-05
-4.09493e-05
-0.000561874
6.29527e-06
-1.51852e-05
-0.000349367
-0.000182455
0.000209252
-0.000969041
-0.000168588
0.000277544
-2.96281e-05
2.57417e-05
-4.98454e-05
0.000661761
-0.000177964
-0.000565261
4.1199e-05
-3.1983e-05
2.75346e-06
-0.000437969
0.000343861
0.000387819
0.000289792
0.000348732
-0.000563277
-7.52468e-05
0.000113485
0.00015777
-0.00099542
3.20956e-05
-1.23543e-05
-2.57589e-05
-8.24655e-05
-0.000208492
-0.000390029
0.000315219
0.000505385
-0.000430574
-0.000244543
4.80503e-05
4.25515e-05
0.000153941
-0.000693368
0.00044804
-0.000430606
-0.000243446
0.000236084
0.00010655
-3.63675e-05
-0.000488061
0.000432725
0.000357411
-0.000302076
-0.000287424
0.000290151
1.37452e-05
-1.64719e-05
-0.000124443
-4.52995e-05
3.13427e-05
-0.000237895
-0.00041759
6.87851e-05
0.000697537
0.000484165
0.000767788
-0.000409907
-0.000842046
-6.30887e-06
9.39304e-06
1.37053e-05
-1.67894e-05
1.77454e-05
0.000745182
-1.18661e-05
4.3669e-05
0.000557434
-8.76612e-05
-2.08497e-05
-7.77148e-06
-0.000569342
0.000597963
-2.45229e-05
2.35685e-05
-0.000248066
0.00024902
0.000402712
-0.000157211
0.000335317
8.68045e-07
-0.000666677
-1.83961e-06
1.86853e-05
-0.000573335
0.000777025
-0.000222375
0.000593664
0.00010994
-0.000127325
-0.000523953
-1.9236e-05
-0.00023636
-0.000441034
0.000328027
-0.000181454
0.000701006
0.000248945
-0.00015265
0.000509566
0.000174372
-4.05891e-05
1.93279e-06
-3.52275e-05
-6.865e-05
-1.63687e-05
5.19984e-05
-3.97914e-05
-5.46295e-05
-0.000457326
0.000328958
-0.000113358
-0.000168951
6.81907e-05
0.000214119
4.33088e-05
0.000150633
-4.05694e-06
-0.000189884
-1.84301e-06
-1.23399e-05
-8.0935e-05
3.97626e-05
5.8336e-07
3.78911e-05
-6.14042e-05
2.73605e-05
-4.11587e-05
0.000296398
-0.000514382
0.000259142
7.71891e-05
-0.000412826
-0.000227641
-7.20117e-05
0.000424975
-0.000384219
3.12553e-05
0.000158242
9.95036e-05
-0.000139928
-0.000117817
-2.05021e-05
-0.000236447
4.17925e-05
-7.84043e-05
5.80155e-05
-2.14037e-05
5.7413e-06
0.000179551
0.000113254
-9.04017e-05
-0.000202404
8.17532e-05
-4.86515e-05
-0.000415308
0.000452988
-0.000289151
-0.000327028
2.55533e-05
7.39391e-07
-1.61707e-05
-1.0122e-05
7.63153e-05
-0.000610453
-2.06619e-06
2.23438e-06
-4.80266e-05
4.78584e-05
-0.000252916
0.000890496
-0.00027585
0.000236484
-2.7717e-05
6.70836e-05
-0.000305845
0.000730301
0.000570245
0.000191
-0.000167581
0.000820084
-0.000415946
0.000877889
-2.71468e-05
4.3355e-05
0.000449861
-0.000466069
-3.08758e-06
5.30561e-05
-5.62774e-05
6.35769e-05
1.14193e-05
-6.88809e-05
0.000608065
-0.000771203
-0.000946157
0.00117109
0.000546272
-0.000403001
0.00039523
-0.000247456
0.000357396
6.97603e-05
-4.61918e-05
-2.65532e-05
0.000390377
-2.10873e-05
0.000490861
-2.84334e-05
-5.99309e-05
0.000435991
-0.000436603
-0.000495086
0.000495698
-2.76992e-05
-0.000423977
0.000502562
-7.85849e-05
-5.44959e-05
6.76584e-05
-0.000560495
-0.000139125
-0.00127408
0.000641999
0.000193177
-0.00044915
-0.000395375
-7.6269e-06
7.81703e-05
-8.40994e-06
1.27859e-05
6.74438e-06
-1.01373e-05
-2.2481e-05
3.31942e-05
-4.08041e-05
6.20445e-05
2.97496e-05
-0.000696089
0.000243594
-0.000158739
0.000611234
-0.000559809
0.0004305
0.000164025
-0.00019791
-7.41526e-05
2.10821e-06
4.00431e-05
9.79038e-06
-5.19417e-05
-0.000301373
0.000239181
0.000164713
-0.000102521
0.000312961
-0.000184991
0.000432231
-0.000560201
-0.000544101
0.0004931
0.000220607
4.50623e-05
-0.000141958
-0.000123711
8.57607e-05
-0.000116826
8.04869e-05
-4.94217e-05
0.000331507
-0.000411103
2.50997e-05
-1.88845e-05
0.000310921
-2.06534e-05
2.43901e-05
-5.91938e-06
0.000915302
-0.00082945
-0.000495759
0.000533129
0.000373726
-0.000732035
0.000543192
0.000158092
-0.000814136
8.13189e-06
-0.000794773
0.000411645
-1.72966e-05
-0.000165158
0.00038346
-0.000377165
4.67464e-05
-0.000113043
-3.87016e-05
-4.03574e-05
9.89612e-06
2.02795e-06
-8.11203e-05
-0.000122016
0.000121804
8.13323e-05
-2.90253e-05
6.3364e-05
4.77348e-05
-8.20734e-05
6.34328e-05
-1.27248e-05
-5.0708e-05
-0.000551011
0.0013785
-0.0010804
0.000562039
-0.000566356
-0.000629686
-0.000110965
-0.00019372
0.000198213
-6.22402e-05
-0.000130237
0.000148757
4.37203e-05
0.000148331
-0.000201345
0.0003619
-0.000308886
-0.000870264
0.000898829
0.000362147
-0.000390711
-0.00016589
0.000112966
-0.000797583
0.000850507
-0.00107628
0.000527402
0.000739098
-0.00012408
0.000432436
-0.000379767
0.000732283
0.000128354
0.000278594
-0.000149814
-0.000257134
7.46876e-05
-0.000446773
4.72092e-05
0.000324876
0.000628119
-4.02122e-05
9.60899e-06
-6.18245e-05
4.93519e-05
4.8533e-05
-3.60604e-05
0.000684356
-1.12707e-05
0.000312434
-0.000985519
-0.00016665
0.000227252
8.77285e-05
3.03862e-05
7.1991e-07
9.10834e-05
-3.90173e-05
7.05479e-07
-2.04561e-06
-0.000882784
-4.33917e-05
8.59772e-05
0.000840198
-0.000962824
0.000467948
0.000985893
-0.000491016
8.58729e-05
-0.00044683
0.000565933
0.000565253
-8.10067e-06
8.14268e-06
-6.62385e-05
0.000145015
0.000379047
-0.000457823
6.12319e-05
-0.000516877
0.00048681
-0.000463468
-0.000147813
0.000198108
-0.000264519
0.000752241
-0.000843425
0.000334778
-0.000209616
0.000293792
0.000351815
0.00118818
-0.000546686
0.000258658
-0.000900156
0.000439499
-7.43553e-05
-0.000251659
7.91229e-05
-2.45445e-05
-6.38874e-05
0.000184269
0.00012094
-0.000241322
0.000162592
2.822e-05
-0.000143767
-4.70446e-05
-0.000154501
-0.000178478
0.000207122
0.000125857
-0.000405151
-5.19454e-06
-0.000431701
0.000380323
0.000317506
0.000284748
-0.000442797
0.000506114
-0.000348065
0.000463662
0.00108841
-3.09675e-05
-9.71238e-06
7.31452e-05
-0.000563782
-1.82179e-05
0.000781311
-0.000671802
0.00037919
-0.000488699
-0.000150247
-0.00079144
-2.73542e-05
0.000235664
0.000491951
-0.000516091
-0.000687853
0.00151898
0.000357055
-2.82772e-05
-0.00112897
0.00128975
-0.000132497
-3.57763e-05
0.000104247
9.95816e-05
-0.000154477
0.000157334
0.000281486
0.000470903
-0.000398886
-7.64049e-05
-0.000470282
0.00131433
-0.000539714
-0.00146247
0.000351612
-0.000440566
6.13584e-05
7.11229e-06
0.000347199
-7.37072e-05
5.44103e-05
-4.28177e-05
0.000599641
-8.65907e-05
-0.000291299
0.000341494
3.63958e-05
-0.000137132
-5.12754e-06
-5.38195e-05
0.000259017
3.11824e-05
0.000675241
-0.000623729
-0.000514031
0.000462519
0.000674443
-0.000856056
0.000635155
-0.000453542
-0.000169126
9.27216e-05
0.000205142
0.000601509
-0.000455495
0.000311599
0.00104273
0.000312795
-8.41383e-06
0.00049046
-0.000276124
-0.000214336
0.000578535
-0.000828888
-0.000186608
0.000104431
-6.5636e-05
-0.000474629
-6.81854e-05
1.99311e-05
0.000522884
0.000214617
0.000369859
-0.000408365
0.000696759
-0.000206299
-0.000340313
-7.19773e-05
0.000306522
0.000477833
-0.000686219
0.000214416
-6.91107e-05
-8.16877e-06
-0.000137137
9.23619e-06
0.000270219
-6.56555e-05
-0.0002138
0.000284616
-6.09633e-05
-1.94329e-05
0.000352359
-4.83105e-05
-0.000319396
-6.42136e-05
0.000346224
3.73856e-05
-6.86094e-05
0.000467548
-0.00028857
9.65235e-05
0.000231119
0.000139906
9.63245e-05
0.000362099
6.06626e-05
0.000262914
-4.6278e-06
-1.3631e-05
7.04797e-05
-5.22209e-05
-0.000107133
3.35712e-05
0.000154129
-8.05671e-05
-1.74674e-05
-0.00014856
0.000122941
4.30869e-05
1.83032e-05
-0.000105609
-1.98276e-05
3.94703e-05
-5.76517e-05
-5.35886e-05
7.177e-05
4.16315e-05
-6.08871e-05
9.62292e-05
-7.69737e-05
5.42159e-05
-0.000110379
-0.000253294
0.000950053
6.20461e-05
2.35231e-05
-4.60989e-05
8.65125e-05
-4.4881e-05
3.12111e-05
-2.81951e-05
5.12e-05
7.79148e-05
3.37831e-05
-0.000520349
9.49244e-05
-0.000494805
0.000920229
1.38299e-05
0.000150509
-0.00112641
-0.000201565
0.00111683
0.000211141
-4.96608e-05
1.59738e-05
6.93819e-05
-3.56949e-05
0.000558247
-0.000283023
-0.000795573
3.78039e-05
0.000141593
-0.000283459
0.000114124
0.000212848
-4.3512e-05
0.00011701
-9.0179e-05
-0.000122817
9.59862e-05
8.2093e-06
4.35982e-05
2.6734e-06
-5.44809e-05
-6.00201e-05
0.000713191
-0.000475456
0.00045324
-3.27471e-06
7.06241e-05
-0.0002254
-0.000293787
0.000271861
0.000247326
0.000205469
0.000135782
0.000210636
8.6628e-06
2.47905e-05
-0.000108597
2.38114e-05
1.47841e-05
-0.000176806
6.25085e-05
-0.000176929
0.000291226
-3.10759e-05
-1.75962e-06
-5.73435e-05
5.9254e-05
-9.36046e-05
-5.84362e-05
6.64361e-05
-0.000184806
-0.00067988
-4.00202e-05
-1.23779e-05
-6.03811e-06
-0.000196897
-8.12635e-06
0.000234697
-0.000102911
7.54078e-05
8.62372e-06
2.70313e-05
3.79727e-05
-7.68184e-05
-0.000140015
2.28977e-05
0.000190687
3.17104e-05
-1.73624e-05
-6.33437e-05
4.89957e-05
-5.9483e-05
2.24169e-05
-2.38209e-05
3.26277e-05
-0.000201754
0.00107737
4.69377e-05
-0.0011243
0.000140929
-0.000161859
0.000243267
9.05601e-05
-4.04761e-06
3.23885e-05
-5.50392e-05
4.68928e-05
-0.00010141
5.45167e-05
0.000142684
1.24659e-05
-9.78083e-06
-1.53181e-05
1.95115e-05
4.67213e-05
-5.13491e-05
5.72346e-05
9.39283e-05
-0.000138697
2.91502e-06
-3.30078e-05
0.000136663
8.87949e-05
-8.45284e-05
0.000315654
1.74932e-05
-0.000320365
0.000171152
-0.000182961
0.00110032
0.000167244
-0.000230823
0.000200242
0.000271602
0.000170788
-0.000126736
0.000132537
-0.000222017
9.0868e-05
-1.3886e-06
-0.000114018
0.000249897
0.000133759
-0.000269638
0.000155319
-0.00022403
-7.15208e-05
1.10471e-05
6.04737e-05
0.00140013
-5.47168e-05
1.1898e-05
-5.70803e-06
-1.98209e-05
6.97362e-05
-2.30149e-05
-0.000113585
-3.07593e-05
0.000187629
-4.3285e-05
7.72576e-05
0.000347542
-0.000121694
-1.78466e-06
0.000143047
-8.98207e-05
9.85632e-05
2.02288e-06
6.44594e-05
-1.69946e-05
0.000143172
-0.000179499
0.000108607
-0.00021465
0.00017263
0.000102645
-6.06571e-05
0.00015387
-7.05278e-05
-0.000284588
0.000281994
-6.16195e-05
4.69366e-05
1.57381e-05
-1.08996e-05
3.06629e-05
6.96906e-05
-8.94539e-05
-8.49366e-05
-0.000268261
4.7084e-05
-0.000110877
0.000223289
-0.000113764
0.000173035
0.000127237
-0.00018769
9.30121e-05
2.96552e-05
6.78578e-05
5.63569e-05
0.000203377
-0.000187162
8.8691e-05
-5.90213e-05
-0.000316253
3.10112e-05
0.000344263
0.000292432
-5.64263e-05
-0.000250739
1.47339e-05
0.000114097
0.000169717
-9.96453e-05
-0.000184169
0.000132091
0.00104795
-0.000493592
-0.000926085
-6.58086e-05
0.000337467
2.07736e-05
-0.000160758
0.000218429
0.00110023
0.000245609
-0.000113916
8.55927e-05
5.79781e-05
-0.000118232
0.000167073
-5.19392e-05
2.49959e-05
0.000339739
-8.53329e-05
-0.00011086
3.54346e-05
0.000469269
-4.1168e-06
-0.000214504
5.36594e-05
-3.81812e-05
0.000266515
-0.00026894
-7.75056e-05
-0.000240147
2.2562e-05
0.000251156
-2.10391e-05
0.000508916
-0.000433624
-5.42534e-05
5.71882e-05
0.000342695
0.000691535
-0.000237172
-3.86309e-06
0.000204588
3.64478e-05
-6.69252e-05
0.00045667
-0.00041717
-0.000135185
0.00048543
-0.000193941
0.000117503
-5.407e-05
-0.000177198
-0.000174264
-0.000388167
-0.000128457
0.000430033
-0.000816281
0.000925134
0.000218291
0.000124618
0.000162219
3.0388e-05
0.000339442
-0.000349037
-1.14444e-05
0.000218337
-7.14113e-05
-0.000163504
1.65784e-05
0.000272217
-0.000119597
-2.9084e-05
2.7936e-05
-0.00106705
0.00103877
0.000242459
-4.3886e-05
0.000310343
8.68542e-05
4.23578e-05
-4.15581e-05
1.49385e-05
0.000699627
0.000702473
0.000198551
2.72244e-05
-0.000928248
-0.000125081
9.42854e-05
0.000382315
0.000131544
8.80993e-05
0.000120342
-0.000177779
-1.72766e-05
0.000488723
-0.000460833
-1.06133e-05
-0.000828722
0.000694325
5.70381e-05
-0.000101075
0.000178393
-7.35571e-05
-0.000189773
6.80312e-05
8.97587e-05
4.28855e-05
-7.08753e-05
6.06175e-05
0.000159132
0.000377228
-3.25868e-05
-8.15867e-06
8.76383e-05
0.00105922
1.81432e-05
9.76188e-06
7.38647e-05
2.59952e-05
-0.000247839
-0.000333732
0.000337277
2.24504e-05
-0.000875722
0.000558782
-0.000670968
9.84187e-06
-0.000867824
-0.000551853
-0.000617169
0.000888675
-0.000107022
5.55735e-05
0.000177024
-0.000200656
4.87371e-05
-0.000160901
0.000130792
-0.000889069
0.000457289
1.94753e-05
-0.000943701
0.000652748
-0.000584769
2.94126e-05
-4.3229e-05
0.000686114
-0.000672297
0.000222826
0.000272264
4.57877e-05
-0.000347422
2.93707e-05
-2.59646e-05
0.000125943
-0.000175925
-3.81518e-05
4.7115e-05
-7.82582e-06
-0.000270171
2.53846e-05
2.46383e-05
9.44392e-05
0.000394265
-0.000574978
-1.86336e-09
0.000408241
5.48639e-05
-8.11625e-05
-0.000548665
-0.000666323
0.00121855
3.37213e-05
-4.26359e-05
0.000518134
2.45466e-05
0.00055436
-0.000514784
-6.41232e-05
-5.61221e-05
9.48316e-05
-0.000921493
-4.14464e-05
2.84137e-05
0.000531167
-0.00050587
0.000141643
-0.000169506
0.000182278
-0.000154415
0.00142978
-0.000868515
0.000314931
-0.000876195
0.0004337
-9.24756e-06
-0.000440835
1.08018e-05
0.000731703
-0.000534308
-0.000340492
0.000143097
0.000228372
-0.000178251
-0.000111994
0.000598169
-0.000402891
-0.000365099
-5.21515e-05
-0.000137176
0.000189612
4.99255e-05
-0.000102362
-0.00114385
9.16416e-05
5.75858e-05
0.000797042
8.5748e-05
0.000204448
-0.00108724
0.000273254
-3.35418e-05
3.12019e-05
4.56063e-05
8.39007e-05
0.000362699
-0.000883236
0.00055295
-0.000139599
-0.000261314
0.00013901
0.000261903
-0.000389688
0.000625949
-0.00063131
0.000700023
-0.000430885
0.000486893
4.97676e-05
0.00112756
-0.00113039
-0.000118133
-0.000229624
0.00092375
-0.000917211
-0.000320598
0.000537785
-0.000430799
0.000946914
-0.000979583
0.000898059
-0.000884821
-0.00034479
-8.1113e-05
1.30776e-05
-0.000182438
9.85379e-05
0.000145259
-3.27687e-06
0.000179114
4.25001e-05
-0.000142078
-7.2123e-05
-0.000103966
0.000127263
0.000149739
-0.000117948
-0.000347533
0.000212226
-0.000107453
-0.000803295
-0.000247553
0.000658187
-0.00077529
-0.000570149
-0.000696561
0.000803847
0.000770152
-7.43481e-05
-0.000162674
0.000120034
-0.000868098
0.00010045
-9.22389e-05
8.44045e-05
-0.000858317
1.09956e-05
1.28823e-05
0.000833421
-0.000857298
3.97417e-05
1.55987e-05
0.000842153
-0.000857752
-0.000222456
6.16225e-05
-0.000161235
0.000615648
-0.000147018
-0.000121088
-6.38907e-05
-0.00055936
-0.000229813
0.000402419
-0.000408504
7.41044e-06
0.000795718
-0.000755462
-0.000663664
-0.000828312
0.000960307
0.000531669
4.355e-05
-2.58202e-05
0.00090602
0.000139898
0.000218233
0.000963468
-0.00100399
0.000688217
-9.11988e-05
-0.00103494
0.00108003
4.6117e-05
-0.00111989
-1.69096e-05
6.55707e-05
-6.15801e-05
-0.000505357
-0.000155683
0.000525855
5.97739e-05
-0.00046171
-0.000150877
0.00048413
-0.000310234
3.32739e-05
-0.00101878
-0.000482217
0.000465406
0.000145165
-4.61639e-05
-2.4865e-05
9.60248e-05
-0.000476543
-0.000146762
-0.000220089
-0.000834678
-5.6617e-05
0.000891294
-8.64114e-07
-9.04621e-06
4.8542e-06
0.000271234
-0.00124116
-5.38945e-05
0.00102383
-0.000443487
3.42703e-06
-1.08526e-05
-6.51666e-06
0.000519685
-0.000502315
-5.98897e-05
4.90403e-05
-0.00092907
-6.17452e-05
1.89356e-05
-6.805e-05
-4.07836e-05
-1.72842e-05
2.17003e-05
0.000647314
-0.000373901
0.000112389
0.000260116
0.000336768
0.000171611
0.000136831
5.4577e-05
0.000159439
-0.000398148
-6.26642e-05
0.000149
-0.000264
0.000110943
-0.000111816
0.000151433
2.85744e-05
-1.19796e-05
6.79705e-06
-1.21494e-05
4.78378e-05
-4.54008e-05
-0.000396642
0.00062177
-0.000254853
2.97256e-05
0.000846431
-0.000831787
0.000579922
2.19731e-05
0.000229893
-2.10543e-05
0.000254196
-4.21476e-05
3.63428e-05
-1.66761e-05
1.18074e-05
-7.06082e-05
4.73082e-06
1.80702e-05
-3.32951e-05
1.52249e-05
-6.58291e-05
-1.41385e-06
-4.73219e-05
2.65791e-05
2.07428e-05
-6.66568e-05
5.98251e-05
6.83165e-06
-4.14163e-05
-0.000260886
-5.38907e-05
4.88791e-05
5.01161e-06
1.9287e-05
-0.00108412
0.00115755
-0.000480814
-0.00147231
-4.28774e-06
2.23579e-05
-7.37642e-05
0.000193581
0.000131266
-5.25825e-05
-7.07382e-05
2.34163e-05
-7.09062e-06
0.000627129
-0.000608048
-0.000174764
2.22914e-05
5.9344e-06
2.39518e-06
-0.000269987
-0.000138509
-0.000161415
0.000228827
0.00014586
3.2292e-05
-7.89526e-05
5.1884e-06
-0.000149485
0.000173768
2.19857e-05
-0.000410028
5.10288e-05
0.000420231
-0.000396329
0.000451226
0.000702148
-7.6066e-05
-3.92612e-05
8.06343e-05
0.000646844
0.00109764
-0.000902093
0.000680751
7.0569e-05
0.000387054
-0.000306906
6.70671e-06
-1.93552e-05
-9.68177e-05
0.000115804
0.000107044
-0.000164496
-5.8352e-05
-0.00010339
-8.03259e-05
-0.000441582
7.47583e-06
-0.000573289
-9.63568e-05
5.28835e-05
0.000616762
0.000927552
9.73235e-05
-0.000197338
4.39007e-05
4.91423e-05
9.12264e-05
8.09782e-05
-7.83303e-06
0.000211062
-0.000514013
-0.000397083
-8.65493e-05
-9.52173e-06
0.000227337
-0.00015061
0.000173607
-4.65787e-05
-9.70581e-05
7.30287e-05
-4.07889e-06
-0.000359157
-0.000642469
0.00059771
0.000849849
1.00324e-05
-0.000115119
-1.60837e-05
-0.000666827
0.000372867
-3.13283e-05
-0.000285433
0.000258645
-0.000149243
0.000324439
-0.000190147
0.00018225
-8.76126e-05
9.551e-05
0.000163558
5.58592e-05
4.80032e-05
-0.000139829
0.00011605
2.37794e-05
5.46439e-05
-6.42359e-05
9.59209e-06
4.08027e-05
-8.70117e-05
3.91477e-05
-7.98174e-05
0.000594369
0.000217151
-4.38212e-05
7.34162e-05
5.89161e-05
-5.44175e-05
-0.000349922
0.000299882
-9.69263e-06
-0.00105421
-1.35654e-05
6.37797e-05
0.00119473
-0.00113878
3.79592e-05
-3.70939e-05
5.35473e-05
0.000100694
-7.49149e-05
0.000123743
0.000419366
1.24379e-05
-1.8658e-05
0.000431195
-0.000284049
-0.000388229
1.24705e-05
-0.000766888
-0.000437918
-0.000245898
-0.000136206
5.69787e-05
-0.000312722
4.56646e-05
-5.98443e-06
-1.88106e-05
-2.08696e-05
-0.000292733
6.72081e-05
2.80893e-05
3.39313e-05
-0.000176213
-0.000321523
8.83539e-05
0.000494681
-4.27409e-05
9.44576e-06
-0.000236593
-0.000984013
-6.20823e-05
2.24338e-05
9.45103e-05
-9.19472e-05
-1.98261e-06
-0.000166425
-7.00329e-05
0.0002283
-8.12307e-05
0.000262086
-0.000333772
-8.63579e-05
-0.000135611
-7.19684e-07
1.64239e-05
-7.74494e-05
-0.000153233
0.00053242
-3.58528e-05
3.10509e-05
-0.000191381
-0.000226194
-0.000759801
0.000970853
-0.000692716
0.000344178
-0.000479774
6.84046e-05
0.000787678
-4.83211e-05
0.000129517
0.000116912
-0.00014206
-0.000233344
0.000181684
0.000182344
1.65305e-05
-5.01174e-05
6.72705e-05
-1.52237e-05
-0.000122922
0.000675352
-0.000140398
-0.000646947
0.000223283
0.000119031
8.38918e-05
2.51463e-05
2.94976e-05
-0.000109485
0.00115945
6.68041e-05
-0.000158831
-0.000629999
-1.31241e-05
-0.000920171
0.000551351
-1.87663e-05
0.000158871
-1.17625e-05
0.000186723
-6.45531e-05
-0.0002504
0.000198457
3.76972e-05
2.09661e-05
2.46354e-05
0.000516008
7.10719e-05
-0.000195958
0.000319085
2.25841e-05
-5.87588e-05
6.54654e-06
-0.000266688
-6.55861e-05
9.82286e-05
-2.71973e-05
-8.89344e-06
9.85993e-05
0.000360058
-0.000453526
-5.97645e-05
-0.000685233
-0.000508868
0.000434299
-4.50723e-05
7.95465e-05
0.000106565
-4.74915e-05
1.97182e-05
4.79321e-05
-0.00022627
0.000138854
-0.000218765
0.000605686
-5.63013e-06
0.000129924
-8.86544e-05
8.13525e-05
-0.000132627
6.13826e-06
-1.94204e-05
0.000718934
-0.000429451
-0.000176516
0.000429564
-0.000568689
-4.61429e-05
-0.000136787
9.60255e-05
0.000448115
-0.00115634
-0.000275789
-0.000156597
0.000215121
-0.000275659
-0.000125025
-0.000550192
0.000464883
-0.000151612
-6.53658e-05
4.03182e-05
-0.000467558
-0.000521562
-0.00121588
7.98846e-06
-7.13768e-05
-0.000218016
-2.41625e-05
-2.24777e-05
-6.5735e-06
5.32137e-05
0.000165846
-0.000139666
-2.38082e-05
0.000228594
-0.000253437
-0.000160306
0.000468696
-0.000374628
0.000143779
-7.94342e-05
-0.00045233
0.00103386
-0.000942065
4.02272e-05
0.000374066
-0.000242225
-0.000193032
0.00018547
0.000128502
-2.42555e-05
8.45142e-06
1.48721e-05
-0.000111909
-0.00144577
-0.000871317
-0.0003738
0.000305754
3.16777e-05
-3.198e-05
1.9698e-05
-0.000120236
-2.09228e-05
-1.04535e-05
-6.6239e-07
-0.000202867
-0.000214475
0.00013748
-8.42973e-05
-0.000618546
0.000636291
-0.000555379
0.000633598
2.69295e-06
-0.000528829
0.00047372
5.5109e-05
-0.000483691
-7.16883e-05
-9.97049e-06
-0.000654472
0.00065534
-0.000542213
0.000556377
-1.41642e-05
-0.000498544
-0.000607237
-4.72354e-05
0.000630073
0.000605332
2.47401e-05
-0.000538452
-0.000420606
0.000470793
-0.000426458
-4.43357e-05
-0.000324708
-9.58979e-05
-0.000232031
-9.26773e-05
0.000170176
-0.000122126
-6.18546e-05
0.000593664
1.16681e-05
0.000611742
-1.8078e-05
0.000632663
1.83958e-06
0.00051968
-0.000364643
8.31688e-05
-2.19062e-06
-8.04904e-05
-0.000162432
8.85077e-05
-0.000241848
0.000147132
0.000211161
-0.000315653
0.00017977
-0.00024339
-0.000650851
0.000168199
-2.2368e-05
7.07541e-05
0.000438424
-0.000536662
9.67769e-05
-0.000133404
0.00014264
0.000142113
9.45464e-05
2.15034e-05
-0.000826788
-3.20856e-05
-0.000196347
0.000117312
-7.21355e-05
8.93905e-05
-0.000785811
-0.000190347
-0.00146058
0.000527503
0.000280515
-0.000222153
-2.99463e-05
0.00063068
-0.000201304
0.000277486
0.00022567
-0.00029333
0.00103184
-0.00123088
8.20402e-05
7.74048e-07
-8.28143e-05
0.0012357
3.33072e-05
6.96176e-05
0.00018335
-0.00012687
6.32434e-06
3.38402e-05
0.000221739
0.000733522
-0.000733917
-0.000140004
-0.000173468
5.38117e-05
-0.000369993
0.000206955
0.000690111
0.000742248
-0.000743773
0.000145984
-9.20649e-06
-0.000199188
-1.4836e-05
0.000267307
-0.000160261
0.000171548
-0.000509239
-0.000775068
-0.000207766
-7.39806e-05
0.000162706
-7.83957e-05
0.000123345
-0.000207656
0.000228024
0.000220378
-0.000211917
8.75782e-05
-6.9514e-05
-9.90692e-05
-0.000279928
0.000722859
0.000110243
5.22769e-06
-1.92793e-05
-1.71256e-05
3.73451e-05
0.000157956
0.000278767
-0.000396838
-4.74584e-06
-0.000130931
0.00067734
0.000568332
-0.000191705
-9.14409e-05
-0.000514751
-0.000596419
0.000592302
-0.000166374
9.77665e-06
-0.000737011
0.000526935
-0.00016969
-0.000319477
0.000184681
1.07163e-05
0.000100946
0.000340367
-0.000494169
-6.82545e-05
0.000208385
2.52756e-05
-7.65396e-05
9.70288e-05
-0.000547846
-4.47571e-05
-4.36795e-05
-7.00556e-05
0.000391785
0.00011765
0.000415893
0.000436769
-0.00012975
0.000125635
0.000491871
-0.00048539
-0.000144203
2.30235e-05
-5.63537e-06
-1.94337e-05
-0.000462267
-7.66224e-05
3.05135e-06
-0.00045449
-0.00133056
0.00110013
0.000180295
-9.20391e-05
0.000630678
0.000197926
6.82873e-05
6.00927e-05
4.42625e-05
-0.000208205
0.000293558
-4.13554e-05
1.38481e-05
4.84735e-05
4.31827e-05
-5.77635e-05
-0.000127497
5.57416e-05
-6.04541e-05
0.000131975
0.000751629
0.000485104
-0.000384301
-3.47445e-05
0.000233801
-0.000169626
-0.000330863
-0.000151603
0.00022115
-0.000248182
-3.67924e-05
-5.04192e-05
6.42744e-05
0.00023107
-0.000293702
-1.64187e-06
-6.78058e-05
-4.42709e-05
6.39876e-06
3.14923e-05
-0.000245879
0.000184492