/*--------------------------------*- C++ -*----------------------------------*\
| =========                 |                                                 |
| \\      /  F ield         | OpenFOAM: The Open Source CFD Toolbox           |
|  \\    /   O peration     | Version:  v1912                                 |
|   \\  /    A nd           | Website:  www.openfoam.com                      |
|    \\/     M anipulation  |                                                 |
\*---------------------------------------------------------------------------*/
FoamFile
{
    version     2.0;
    format      ascii;
    class       surfaceScalarField;
    location    "0.1";
    object      phi;
}
// * * * * * * * * * * * * * * * * * * * * * * * * * * * * * * * * * * * * * //

dimensions      [0 3 -1 0 0 0 0];
oriented        oriented;


internalField   nonuniform List<scalar> 
2708
(
-0.000200065
5.19577e-05
3.69217e-05
0.000111186
7.88393e-05
0.000408523
-0.00036749
-0.000119873
-4.98246e-05
-8.48661e-06
4.41439e-05
1.41674e-05
-0.000188772
0.000193954
-9.1258e-05
8.60758e-05
-0.000102531
-0.00012445
8.11053e-05
0.000145876
0.000662811
-0.000594375
0.00019472
-0.000263157
0.000275522
-0.000240702
0.000275288
-0.000310108
-4.1214e-05
0.000161606
-5.74967e-05
-6.28949e-05
-0.000286962
0.000289892
0.000408889
-0.00041182
0.000223496
0.000396228
-0.000344203
0.000902062
-0.000927537
0.000261882
-0.000236408
0.000202941
-0.000329091
0.000882901
-0.00075675
-0.00021628
0.000318148
-0.000207182
0.000105314
-0.000132485
-0.000374352
0.000404395
0.000102442
0.000234236
-0.000351806
-7.52481e-05
0.000192817
0.000334155
0.000188368
-0.000299027
-0.000748556
0.000534639
-0.000172038
0.000385955
-1.42102e-05
2.81601e-06
3.85796e-06
7.53621e-06
0.000347817
8.10942e-05
-0.000420722
-8.18848e-06
-2.01231e-05
1.78342e-05
9.86288e-06
-7.57402e-06
-0.00035609
0.000753161
0.000504991
-5.4158e-05
-5.71483e-05
-2.11782e-05
-0.00041744
-0.000170988
0.000348856
0.000239572
-0.000264289
-0.0013857
0.0014155
0.00023449
-0.000425744
-0.000278657
-4.40386e-05
-2.38525e-05
0.000140438
-7.25471e-05
-0.000892509
-0.000161205
0.000126176
-0.00012235
0.00010926
0.000108264
-9.5174e-05
2.90749e-05
-0.000242469
0.000213394
-3.22503e-05
-0.000457326
0.000489576
0.000435086
3.72323e-05
-4.02063e-05
-0.000432112
-0.000309181
2.37458e-05
-8.35969e-06
0.000293795
0.00042598
2.81218e-05
-1.90758e-05
-0.000435026
-0.000303356
0.000173937
9.48245e-05
3.45941e-05
0.00053499
0.000105583
-0.000608274
-3.22987e-05
-0.000122405
0.000310602
-0.000222964
3.47671e-05
0.000180062
0.00041416
-0.000144782
-6.68745e-05
5.02895e-05
5.2954e-05
-3.63691e-05
-9.6157e-05
0.000160034
7.29182e-05
-0.000136795
3.38486e-05
0.000284276
-0.000315241
-2.88332e-06
-0.00024461
0.000218298
0.000326602
0.000384273
-0.000125463
-0.000134856
-9.22545e-05
-0.000111419
5.84198e-05
0.000145254
-0.000474374
0.000482102
-0.000447651
0.000439923
1.72502e-05
1.07402e-05
-1.92116e-05
-8.77883e-06
0.000268292
-0.000306895
-0.000111973
0.000150576
-0.000831512
0.000104801
-0.000165798
0.000235457
-0.000268855
-0.000207304
5.7694e-05
4.56813e-05
-7.87945e-05
-2.45808e-05
-0.000152127
-0.000240877
0.000281455
0.000111548
0.000180606
-0.000180952
-8.34074e-05
8.37536e-05
0.000194421
-0.000227104
-5.56432e-05
8.83257e-05
-2.19048e-05
0.000180678
-0.000109129
-4.96448e-05
5.15745e-05
0.000399151
-5.90617e-05
-0.000391663
0.000102716
0.000117531
-0.000137795
-8.24514e-05
9.75037e-05
-0.000137235
-5.54846e-05
9.52154e-05
-0.000423855
-0.000355916
0.000556759
0.000223012
0.000932275
-0.00024422
-0.000688055
5.52444e-05
1.11597e-05
-6.64041e-05
0.000111887
-3.23218e-05
-8.81649e-05
0.000120487
6.9819e-06
2.40283e-05
-3.10102e-05
-3.33753e-05
-3.34992e-05
-3.57641e-05
-6.03929e-05
0.000199374
0.000169878
0.00012993
2.09968e-05
0.000229187
3.83621e-06
-1.46e-05
1.84296e-05
-3.82963e-06
-4.21739e-05
0.000119806
-7.76318e-05
-5.29126e-05
0.000232858
-0.000179945
-0.000320746
1.73902e-05
0.000118822
-1.70648e-05
7.79527e-05
9.59845e-05
-0.000231925
-0.000142427
4.15935e-05
-2.43433e-05
4.61777e-05
6.7937e-06
-5.29714e-05
0.000138228
-1.20289e-05
-0.000126199
0.000268713
0.000127515
-1.81595e-05
3.94934e-06
-0.000678699
-6.98569e-05
-6.96639e-05
6.61488e-05
3.51516e-06
-0.000103477
5.53726e-05
0.000573402
-0.000525297
-0.000411407
0.00047776
0.000201939
-7.8772e-05
5.13217e-05
0.00129729
-0.00126984
2.56426e-05
0.000324619
-2.95527e-05
-0.000320709
0.000334989
-1.1387e-05
6.94493e-06
-0.000330547
0.000178359
-0.000203793
4.66811e-05
-2.12463e-05
8.58566e-06
3.01483e-05
-0.000967539
0.000928805
-8.01798e-05
2.50065e-05
-0.000734752
0.000789925
2.07507e-05
0.000152073
-7.53196e-05
0.000125377
-0.000102066
-2.56026e-06
-3.50867e-06
-1.87683e-05
7.25665e-05
-0.000121411
0.000190064
-0.000280929
0.000212277
0.000392437
-0.00037686
3.59976e-05
2.35699e-05
-0.00034989
0.00032632
-0.000273827
-0.00018576
-0.000454465
0.000506225
0.000133999
-4.84111e-05
-0.000159961
0.000116118
0.000101208
-8.33576e-05
-1.78508e-05
0.000164892
2.11804e-05
-8.33568e-05
5.49883e-05
-0.000135721
-0.000683784
-2.70445e-05
4.62827e-06
0.0007062
-2.72534e-05
-6.92595e-06
8.4234e-06
2.57559e-05
9.90085e-05
7.05405e-05
-3.13207e-05
-0.000318755
-8.77725e-06
0.000322712
4.82028e-06
1.8566e-06
0.000306307
-0.000297137
-1.10269e-05
-0.000149039
0.00063058
-0.000681927
0.000200386
0.000364193
-0.000161451
-0.00037373
0.000705743
-0.000457252
2.50855e-05
2.90552e-06
-0.000283937
0.000246311
0.000355773
-1.28269e-05
9.51082e-06
-1.92739e-05
2.259e-05
-0.000228124
0.000215561
0.000230861
5.32921e-05
0.000424698
-6.09375e-05
8.3649e-05
-6.99498e-05
0.000218348
-0.000192705
-2.63934e-05
-3.61112e-05
-6.06261e-06
-4.99634e-05
-0.000301842
-0.000116503
9.4598e-05
-0.000112119
3.24704e-05
0.000200387
0.000223362
4.53508e-05
-3.64698e-06
-4.3677e-05
-0.000204236
0.000172665
7.72623e-06
-4.75028e-05
3.129e-05
-0.000183366
0.000318158
5.76757e-05
-0.000192468
0.000194594
0.000340045
3.52343e-06
-7.07418e-07
-0.000446404
-0.000105811
0.000368849
1.73168e-05
-0.000331856
0.000662356
3.87554e-06
8.28144e-06
-3.22801e-05
6.85417e-05
7.97173e-06
-7.25067e-05
-2.36088e-05
3.75926e-05
-9.39384e-05
7.99547e-05
9.28317e-05
-0.000143937
-3.70593e-05
0.00140939
0.000100891
-0.00136725
-0.000143036
4.94454e-05
5.70048e-05
0.000103029
0.00044526
3.39731e-05
2.4417e-05
-0.00050365
-6.38983e-05
0.000179271
0.000233482
6.56549e-05
0.000383895
-9.45501e-05
-1.85651e-05
0.000177965
5.49193e-06
0.000340259
4.22228e-05
-6.255e-05
-3.85974e-06
-4.93722e-05
0.000307365
1.66508e-05
-0.000274643
-6.11233e-05
0.000279471
-0.000273282
-6.16526e-06
-3.36136e-05
0.00031306
-0.000100237
8.80255e-05
-6.55642e-06
-0.00129875
-0.000146477
0.00127105
0.000174179
0.000254626
0.000468689
-0.000415479
-0.000307837
-0.000100393
5.54231e-05
-0.000641241
0.000686211
-0.000369256
0.000361
5.08714e-06
3.16864e-06
0.00101894
-0.000880612
0.00015713
-0.00029546
-0.00024088
-0.000280855
0.000314554
0.00037591
-0.000350334
-0.000177713
0.000152137
-2.85101e-06
-0.00037636
0.000375604
3.60755e-06
-3.0356e-05
-8.61468e-05
-0.000329299
9.9969e-05
2.92643e-05
0.000404812
4.09164e-05
6.16779e-05
-3.74831e-05
0.00046916
-0.000484573
-4.45555e-05
5.99686e-05
-0.000101321
-0.000879409
3.26505e-05
0.00094808
-8.03759e-05
-0.000177394
0.000239204
-8.99658e-06
0.000371745
-2.63712e-07
-0.000362485
0.000310086
-0.00174746
2.28446e-05
0.00141453
0.000482932
-0.000171161
9.67515e-05
0.000327742
-0.0013164
-6.76665e-05
-0.000387685
8.94704e-06
0.000564372
-0.000375935
-0.000137216
0.000231106
0.000100531
0.000395929
5.69266e-05
-0.00033682
-0.000116036
-0.000144829
8.06405e-05
0.000172883
4.51348e-05
-0.000121216
7.16806e-05
4.40112e-06
0.0012409
-0.00125592
-0.00024927
0.000285522
-0.000195
0.00047385
-0.000204759
0.000206616
-0.00023472
8.56817e-05
9.01777e-05
0.000647381
-0.0004243
0.00014283
-3.43455e-05
0.000315816
-4.75411e-05
-4.79015e-05
-0.00108334
0.00117879
0.000401053
-0.000416456
8.10582e-05
0.000332573
-0.000285973
1.99406e-05
-6.65408e-05
0.000298549
-0.00040344
0.00013874
0.000548104
-6.70348e-05
0.000149511
1.24882e-06
0.000290851
0.000654286
-0.000476447
-0.000325532
-0.000280011
0.000419784
0.000522665
-0.000510657
3.50736e-06
-1.55151e-05
8.77271e-06
-3.58981e-07
1.00159e-05
-7.06038e-05
9.4603e-05
0.000106822
-0.000130821
0.0002746
-0.000166001
-0.000127016
1.84174e-05
-9.38467e-05
0.000375925
9.38315e-05
-0.000546313
-0.000416902
0.000705832
0.000257383
-2.10814e-05
0.000355243
-0.000340622
6.46004e-06
-8.31156e-05
0.00020738
-0.000261285
0.000137021
2.51386e-06
0.000404523
-0.000399942
-7.09445e-06
9.52512e-05
-0.000296232
0.000270006
-6.90248e-05
-8.71853e-06
-1.91324e-07
1.5766e-05
-6.8561e-06
0.0012863
-0.00131687
-6.364e-05
9.42033e-05
-6.70837e-05
4.84377e-05
3.62266e-05
2.48367e-05
-6.10633e-05
-6.97915e-05
0.000110463
-0.000391005
0.000315678
2.33711e-05
-3.2742e-05
-0.000279527
-4.76146e-05
8.38669e-06
-9.63981e-05
-0.00128543
0.00130306
-4.72596e-06
-3.86563e-05
0.000144591
0.000326054
-0.000104414
-0.000271012
0.000102613
0.000523285
-0.000103232
0.000200368
-0.000135502
0.000187776
-0.000252641
0.000214568
-0.000542901
-0.00021798
0.000230278
0.000163355
-0.000318863
-7.47699e-05
-0.000113179
5.92331e-05
9.90807e-05
0.000321873
-0.000341922
0.000472774
-0.000452725
-1.48924e-05
0.000383618
1.24421e-05
-0.000381167
-0.000314058
0.000271055
-0.00126082
0.0012731
-0.00010868
-0.000502035
0.00066688
-0.000581747
-7.08917e-05
8.55873e-05
-0.000218513
1.84436e-05
0.000363424
-0.000434557
6.27257e-05
0.0005864
-1.30467e-05
-0.000242956
0.00035067
-9.46682e-05
-1.03592e-05
8.14844e-06
0.000437297
-2.15078e-06
-0.000320287
0.000324952
0.000171206
-5.73369e-05
0.00018468
-4.16583e-06
-0.000321648
1.66328e-05
-0.00074045
-0.000158197
0.000802459
9.61874e-05
0.000320306
6.21494e-05
-6.6777e-05
2.30335e-05
-0.000173447
-0.000129114
-8.11498e-05
0.000242208
0.000239994
-0.000319366
0.0002333
0.000197836
-0.000111771
-0.000361352
0.000373953
-8.02679e-05
-0.0001893
0.000177747
0.000205654
-0.000194101
0.000108692
-8.32084e-05
-0.00019837
0.000300182
-7.87784e-05
-0.000100723
-9.98296e-05
0.000106819
2.14725e-05
-2.84622e-05
-0.000228987
0.000214737
-0.000310938
0.000802033
0.000151106
-0.000269274
-0.000200695
-7.49287e-05
-4.06673e-05
8.56936e-05
-8.87033e-05
-0.000399972
0.00123207
-0.000823513
-0.000383004
1.08966e-05
0.000385253
-7.96418e-06
-2.10613e-05
1.61886e-05
-0.000453391
6.39924e-05
0.000367537
2.18612e-05
-0.000392928
6.56261e-06
3.36214e-06
-0.000162909
0.00127521
0.000160797
-0.000627413
0.000761202
-0.000329986
0.000196197
1.78647e-05
8.03463e-05
6.0396e-05
-1.96837e-05
-0.000121059
7.34641e-05
-0.000411536
-6.67079e-05
0.000145859
-3.78179e-05
-0.000370948
9.14172e-06
-0.000172094
-0.000456402
-0.000588535
0.000172397
-0.000355064
-0.000250436
0.000433103
-1.22348e-05
0.000145059
0.000415281
0.000111264
-0.000728039
-5.35912e-05
-8.36434e-05
0.000168776
0.000131519
0.000300846
9.93968e-05
-7.99376e-05
-0.000379993
-4.65581e-05
-0.000341461
0.000131324
-0.000109229
0.00121491
-0.000297285
-1.65508e-05
0.000353951
0.00151176
-0.000213059
-8.37954e-05
-0.00050374
-0.000168989
3.17004e-05
0.000641029
-0.000163782
0.000161631
-0.000229987
0.000292136
-0.000261765
0.000330591
-0.000149202
-0.000202189
0.000153964
-0.000266924
0.00031515
4.00941e-06
0.000298736
0.000261892
-0.000162951
0.000113966
-0.000212908
0.000385902
-7.60699e-05
-0.000375132
6.53001e-05
-0.000177367
0.000595834
-0.000521944
-0.000367329
0.000109565
-0.000195627
-0.000298555
6.26227e-05
-9.15285e-05
0.0012375
-0.0012086
0.000385453
-0.000249612
-0.000255715
5.41745e-08
-0.000247926
0.000229169
-0.000378694
0.000397451
8.01502e-05
-0.000476574
-5.09188e-05
-0.000194633
4.67371e-05
0.000198815
2.88144e-05
-0.000681351
1.66672e-05
-0.00030995
0.000325986
-0.000560706
3.22469e-05
-0.000237006
-4.9786e-05
-3.97701e-05
8.48301e-05
-0.000164068
2.8574e-07
2.83857e-05
0.000203544
-5.39647e-05
-0.00011506
0.000103423
1.16367e-05
5.96767e-05
-0.000406493
-3.31764e-05
-0.000144338
0.000186313
5.57062e-05
-9.76812e-05
-0.000235643
-0.000298919
0.000141037
0.000393525
-0.000397614
-1.02063e-05
-0.000201186
-0.000304921
0.000190153
0.000201125
0.00036321
-0.000462768
6.83726e-05
-0.000589875
0.000666407
0.000214319
1.97687e-06
0.000221385
-6.1742e-05
-1.86469e-05
6.41207e-06
0.000429332
-0.000404148
0.000264708
-0.000506904
0.000307043
-0.000142355
-0.000458027
8.97245e-05
5.39154e-05
-6.63896e-06
-1.29509e-05
5.78721e-05
-3.82822e-05
-0.000565167
0.000551308
0.000651522
-0.000637663
0.00033813
-0.000369021
-0.000170295
0.000273633
-0.000126251
5.62693e-05
-8.90714e-06
1.87866e-05
0.000120046
-2.77898e-05
-0.000143175
-0.000328756
0.000134837
0.000406179
-0.000212261
3.42753e-05
9.86858e-06
-2.70883e-05
0.000386751
-0.0002783
-0.000360458
0.000252007
0.000222027
-0.00025437
2.44178e-05
7.92494e-06
0.000485345
-4.11752e-05
-5.89177e-05
0.000172845
-0.000220459
2.82691e-05
-8.91467e-06
-2.31841e-05
0.00040258
-0.000274785
-0.000375721
-3.38613e-05
-0.0001391
0.000109875
6.30861e-05
-0.000356648
-4.25213e-05
-0.000152885
-7.45682e-05
-0.000289104
0.00025902
0.000247667
-0.000217583
-0.000167139
-0.000673704
-0.000361835
0.000386563
-0.000353485
-1.6051e-05
-6.31158e-05
-0.000179999
9.02297e-05
-0.000262156
0.000344939
-0.000617494
0.000534711
-0.000160398
0.000388425
-1.24656e-05
-0.000279517
0.000288272
0.000420577
-0.000465461
0.000260424
0.000447245
3.72363e-05
-0.000333406
0.000761842
-0.000507032
0.00125695
-0.000297097
-0.000554934
-6.27884e-05
0.000191096
5.42467e-05
-0.000182554
9.10549e-05
-0.000108839
0.00057075
-0.000552966
-6.51771e-05
3.08525e-05
6.08564e-05
-2.65317e-05
0.000129829
-2.92334e-05
1.94502e-05
0.000302827
0.000292222
-0.000313126
-0.000281923
-6.08862e-05
5.29442e-05
-5.72351e-05
0.0001787
-0.000192593
-0.000135488
0.000149382
0.000394904
-3.46621e-05
0.00113434
-0.00149458
-2.06962e-05
7.64949e-06
7.13089e-05
-0.0014002
0.00128135
-0.00010552
1.65341e-05
3.48281e-05
-0.000396415
-8.61486e-05
2.12712e-05
-0.000789618
0.00121544
5.48779e-05
-0.000480704
-0.000298689
0.000275525
-0.000510666
0.000416685
5.62704e-05
-0.000320604
0.000293408
-7.15151e-05
-0.000499036
0.000538301
0.000824927
-0.000836621
-8.11746e-05
-2.27089e-06
-4.10046e-05
-0.000548341
8.89904e-05
0.00105835
-0.000598994
-0.000180106
-0.000144473
0.000135279
0.000344163
0.000153827
0.00102082
-0.00104464
-8.48601e-05
0.000333119
-4.92705e-06
0.000167858
-0.000208928
4.59971e-05
0.000168389
-0.000112248
-9.18857e-05
3.57442e-05
-0.000142835
0.00100074
0.000318122
-0.000278953
-0.000280049
-0.000508787
0.000432474
-1.29977e-05
1.85509e-05
7.61952e-05
-8.17483e-05
9.05964e-05
-0.000856585
-0.000723663
0.000100332
0.000391957
-0.000116567
-0.000375722
0.000328933
-1.7183e-05
-9.71795e-06
-0.000302032
0.000358373
2.98773e-05
-0.000225405
-0.000162845
0.000589401
-0.000707066
0.000121173
-0.000193646
-0.000202914
0.000216454
0.000377577
-0.000109435
-0.000263767
-6.30888e-05
0.000102095
0.000224761
-0.000379714
-4.99782e-05
0.000165925
-0.000400346
-4.16347e-05
4.43662e-05
0.000831067
-0.000237004
-2.6384e-05
-0.000426722
0.000316791
-0.000204668
0.000314599
-0.000230785
1.50768e-05
-0.000211014
-0.000298184
0.000410151
0.000243622
-0.000434699
-0.000250882
0.000441959
0.000440425
-0.000441331
0.000293128
6.45745e-05
0.000343581
-0.000480331
0.00060156
3.97759e-05
0.000332517
-4.75562e-06
-0.000110861
1.02802e-05
0.000181761
-8.11799e-05
0.000348057
-0.000153249
3.38904e-05
-0.000228698
-0.000500224
0.000149472
3.68206e-05
4.69938e-06
-4.152e-05
-9.9882e-05
9.35988e-05
0.000368933
-0.00010867
8.77942e-05
0.000558527
-0.000313541
-0.000110148
0.000350309
-9.47496e-05
0.000113374
-0.000211146
4.68507e-05
-4.79603e-05
0.000212256
4.86894e-05
0.000410015
1.68854e-05
-6.75799e-05
4.17873e-05
0.000321845
0.000197578
-0.000316258
-0.000203164
2.38229e-05
-3.68382e-06
-0.000700103
0.000329405
-9.79231e-05
0.000118827
-4.42832e-05
0.000282034
7.81032e-05
-0.000229692
-0.000176627
-0.000161949
0.000271714
0.000254353
-0.000245635
-0.000108092
0.000128999
0.000308498
6.02713e-05
-6.41269e-05
-7.73191e-05
3.41811e-05
-2.12849e-05
4.93798e-06
0.000110619
0.000402453
-0.000431977
-3.04055e-05
-1.53424e-05
3.2921e-05
-0.000218869
-0.00132457
0.00015774
-0.000106771
0.00030798
1.91851e-05
-0.000220395
0.000299635
-0.000312325
0.000143092
-0.000130403
0.000350002
-0.000157138
0.000112381
6.26759e-06
0.000231431
0.000104768
0.000202718
4.25161e-05
-0.000335032
0.000296224
-0.000161447
0.000200254
7.7717e-05
-0.000129108
0.000278425
-0.000170181
2.08634e-05
0.000298751
-0.000131635
3.57441e-05
-9.49885e-05
0.00033767
3.32129e-05
-9.46825e-05
3.88146e-05
2.2655e-05
0.00121931
0.00056655
-0.000408424
-0.00137744
5.07014e-05
3.54557e-05
4.89677e-05
3.25862e-05
2.12493e-05
5.64926e-05
5.72661e-05
-2.56502e-05
-2.95953e-05
1.36933e-05
4.15521e-05
3.68096e-05
-4.58769e-06
0.000321181
-0.000382085
-0.000409811
0.000470715
-0.00027652
0.000239993
0.000149032
-0.000112505
-0.000323105
-0.000187334
0.000233919
-0.000138057
1.89708e-05
4.15282e-05
7.75576e-05
-0.000203167
0.000217211
0.000176587
-0.000190631
-6.01641e-05
-4.40572e-05
0.000104753
0.000211002
0.000241665
-0.00025975
0.000193994
-3.97649e-05
-0.00119495
4.88088e-05
0.00111173
3.44024e-05
2.90387e-05
-2.57046e-05
-6.34982e-05
-3.55987e-05
-6.71032e-05
4.0148e-05
4.89168e-05
-6.86731e-05
-9.09415e-05
0.000109095
-0.000107915
8.97609e-05
-0.0012822
0.000110096
0.000182632
-0.000182255
0.000210626
-2.97185e-05
-7.39089e-05
6.50155e-05
-1.68816e-05
-0.000139075
-2.86988e-05
-5.23566e-05
-0.00139893
0.000190196
6.20303e-05
-0.000135071
-0.000428907
-0.000869131
0.000204353
-0.000166815
-0.000148957
8.18209e-05
-2.73317e-05
-6.22172e-06
0.00025526
-6.37948e-05
-0.000249407
5.79421e-05
-0.0015713
0.000275362
0.000896815
-0.000645458
0.000967954
7.34081e-05
-7.33771e-05
-4.65494e-05
0.000105187
-8.22467e-05
4.0778e-05
-1.31072e-05
0.000213498
5.8387e-05
4.02369e-05
0.000181162
5.46167e-06
4.90097e-05
-0.00112947
0.000454987
-0.000208694
0.000221538
-0.000135249
-7.68709e-05
6.44819e-05
4.09145e-05
0.000343373
-0.00034405
-9.55771e-06
-1.68652e-05
-3.34856e-05
4.40695e-05
-5.21744e-05
-2.00662e-05
-7.10325e-07
-6.17772e-05
8.25538e-05
-0.000892014
0.000195528
-0.000104185
-0.000300037
2.94145e-05
-1.2272e-05
6.79076e-06
5.93316e-05
-7.82356e-05
1.21132e-05
0.000251967
-0.00036013
0.000118345
-1.01819e-05
2.10318e-05
-1.28352e-05
-1.77415e-05
1.41614e-05
-1.51523e-05
-0.00140952
0.000109078
0.000165964
0.000140217
-0.000110653
9.92574e-05
0.000184455
-0.000158336
-1.43627e-05
-0.00013168
0.000152144
-6.10163e-06
-5.09858e-05
9.06949e-05
-6.35615e-05
0.000102062
3.00498e-05
-6.75818e-05
5.32191e-05
-0.000327726
-0.000991632
-9.01587e-05
-0.00131768
-0.000459727
4.16545e-05
-2.54104e-05
0.000107198
0.000280304
0.000117338
-8.79818e-05
0.000106481
5.95694e-05
-6.67926e-05
4.98196e-05
-9.40147e-05
0.000105162
0.000299389
-0.000293932
1.00937e-06
-4.41581e-06
5.32155e-06
-7.29033e-05
0.000376125
0.000413776
-2.30774e-05
-0.000103281
6.45736e-05
4.45777e-05
0.00019083
-0.000185498
-0.000883564
-0.000418794
0.000391896
-0.000279997
0.000234816
-0.000245622
0.000190652
-8.33752e-05
-0.000410817
9.19848e-05
6.32837e-05
0.00042449
-0.00043112
-3.57676e-06
-0.0015776
-0.0002976
0.000217412
9.52674e-06
-4.36538e-05
-2.09028e-05
2.56022e-05
5.61209e-05
-8.82967e-05
-0.000133544
2.08827e-05
0.000200958
9.46222e-05
-6.57532e-05
2.03037e-05
0.000202973
-3.24474e-05
0.000282196
-0.000371132
-0.000270276
0.000359212
1.90144e-05
-1.19767e-05
-1.09925e-05
0.000535984
-0.000444929
7.16568e-05
7.38573e-05
-8.22304e-05
-3.31071e-05
0.00013075
-0.000294289
0.000378355
-0.000237314
-3.9952e-05
-6.41716e-06
4.63692e-05
3.17237e-05
0.000304319
-0.000271468
-6.64025e-05
0.000212921
-0.000307676
0.000246509
-3.78065e-05
-0.000168427
9.5635e-05
-0.000621721
0.00076784
-0.000146119
0.000222758
-0.000200257
-0.000346129
-5.69983e-05
-6.87243e-05
0.000471852
-0.000288752
0.000132169
-0.0001035
0.000260082
1.32671e-05
5.22773e-05
0.00033108
0.00019277
-0.000396698
0.000432122
-0.000228194
-4.19099e-05
-1.40709e-05
2.49705e-05
0.000145542
-1.84189e-05
0.000410233
2.08199e-05
-1.81062e-06
0.000167222
-8.57375e-05
-0.000733578
0.000556329
-0.000178842
-2.77188e-05
-0.000282666
-0.00140906
-0.000381593
0.000642251
0.00029779
-7.60812e-05
-0.000138309
0.000151602
-0.000447753
0.000635747
-6.25497e-05
-0.000100368
8.68368e-05
0.000119393
1.06194e-05
-2.06773e-06
-0.000213874
0.000214131
0.000117065
-0.000279458
-1.5945e-05
0.000178337
-0.000284026
0.000244866
-6.8932e-05
-0.000727704
0.000250358
0.000822284
-8.88748e-05
0.000292638
0.000243926
-3.00244e-05
-1.09736e-06
-1.65104e-05
1.76077e-05
0.000583175
0.000438171
-0.000447885
-7.36608e-05
5.41417e-06
0.000362082
-0.000367496
-2.42614e-05
0.000306574
-0.000413947
0.000130885
-0.000330829
-0.000310472
-7.14774e-05
0.000276708
-0.0003062
-0.000698212
-0.000589021
0.000597499
-0.000427272
0.000440084
0.000185253
-0.000427759
0.000253106
0.00030967
-0.000318666
0.000442978
-0.000134409
-1.97933e-05
6.97639e-05
-6.36471e-05
-1.16433e-05
8.44317e-05
0.000117864
0.000273249
-0.000299578
0.000249733
-0.000218009
-0.000264126
-0.000329052
0.000291346
0.000225482
-0.000277084
-0.00011191
0.000119719
-0.000265224
0.000261915
-0.00030137
0.000304678
-0.000138953
-0.00012928
8.27352e-05
6.27699e-05
0.000327879
-6.17159e-05
0.00104455
9.17107e-05
0.000338538
-0.000354408
0.00014487
0.000165748
0.000629876
-0.000604688
-0.000236803
0.000211616
0.000377381
0.000253132
-0.00024395
-0.00111238
0.00103747
0.000293818
-0.000555624
-1.17454e-05
0.000342108
-0.000242215
-8.81476e-05
-1.46107e-05
-3.45833e-05
6.94976e-05
-3.8537e-05
-0.000131329
-0.00010856
2.93267e-05
-0.00030048
-3.27569e-05
0.000250456
-0.00036479
0.000418894
0.000366183
-0.000289486
0.000252379
-0.000329076
0.000138136
0.00114094
-0.000951337
1.42056e-05
-9.85373e-06
0.000203198
3.84161e-05
-7.32245e-05
0.000478827
-0.0002446
0.000161702
5.86811e-05
-7.74076e-05
-0.000235493
-1.38073e-05
-2.70305e-06
-0.00040812
0.000486836
-0.000187276
-0.000106675
3.78636e-05
-0.000147703
0.000632715
-0.000329565
-0.000255139
0.000319481
7.2588e-06
6.29661e-05
-8.28688e-06
-3.81695e-06
0.00017111
1.902e-05
0.000192123
1.92242e-05
0.000143505
-0.000118682
0.000267814
0.000156177
0.000139002
-5.03129e-05
0.000169217
0.000539321
0.000727423
-0.000858796
-0.00011872
-0.000233214
-0.000368878
0.000294417
-8.72101e-05
0.00015451
0.000388736
-0.000300854
0.000468963
0.000351976
-0.000331741
-0.000100503
-0.000149625
0.000111114
0.000377049
-3.22815e-05
0.000282014
-0.000149029
-0.000290895
3.17365e-05
-0.000295388
-0.000206219
-0.000245998
-0.000212353
-7.62199e-06
0.000403358
-8.7179e-05
-0.000294317
0.000393837
-3.17554e-05
0.000492666
0.000368944
8.00525e-06
-0.000135572
-0.000919801
-0.000207742
0.00025009
-0.000218959
5.90069e-05
-6.25442e-05
-1.73414e-05
0.000178146
0.000410233
9.53716e-06
-1.93249e-05
1.91561e-06
3.65305e-05
-6.59541e-06
0.000315051
3.37323e-05
0.000429761
0.000944939
-0.000893617
0.000424176
-3.2233e-05
-3.58588e-05
3.4456e-05
2.28752e-05
0.00103099
-8.60509e-05
-0.000260043
0.000366931
0.000493599
-0.000381911
4.25581e-05
-0.0003971
-0.000216778
-0.000235076
-0.000828968
-6.46495e-05
-0.000114097
0.000156299
-3.27945e-05
-9.40761e-06
-6.11898e-05
7.58638e-05
-4.12202e-06
-1.0552e-05
1.43567e-05
0.000226135
-0.000405878
-2.30502e-05
3.64544e-05
-0.000303633
0.000326646
-2.30133e-05
-7.53857e-05
3.53485e-05
0.00024301
5.75022e-05
0.000105647
0.000324315
-0.000283668
-1.9965e-05
-0.000234327
0.000259419
-2.50923e-05
-0.000160918
-0.000439041
0.000481851
-4.28107e-05
-0.000246945
0.000227434
-0.00021399
-2.03372e-05
0.000999388
0.000400931
-0.000370488
-3.04432e-05
-0.00013013
-0.000400861
-6.65357e-05
-0.000338686
-2.42486e-05
-4.49477e-05
0.000326962
-9.83785e-05
0.00112937
-4.405e-05
0.000437887
-3.81093e-05
0.000171662
-0.000125038
8.86549e-05
0.000131738
-0.00013612
-0.000377653
0.000382035
-0.000256207
-7.87054e-05
-0.000174679
-0.00045428
-0.000120975
-0.000325358
7.9188e-05
0.00030244
-2.79017e-05
4.29031e-05
0.000318364
-0.000239477
0.000126765
-0.000361139
-0.000107088
-0.000278327
-0.000160931
4.32889e-05
-2.71011e-06
-0.000407592
-1.24376e-05
0.00059905
0.000246709
-0.000258998
7.39605e-05
-9.71474e-05
0.00012661
2.41686e-05
-0.000391025
0.000400589
-0.000165487
-0.000192268
-0.000107434
7.00106e-05
-7.57967e-05
-0.000458853
0.000473832
7.06078e-05
0.000310957
-7.64444e-05
0.000369307
0.000148474
-0.000276479
0.000163353
6.94477e-05
-6.45358e-06
-5.49192e-06
0.000355723
-7.63557e-05
0.000537224
-0.000766345
2.97238e-05
0.000391405
-0.000320757
0.000320494
-0.000193341
-0.000210454
0.000561008
-0.000275742
0.000333824
-3.88972e-05
-0.000632724
0.000200931
4.95143e-05
-0.000589118
0.000544232
-5.14049e-05
3.11294e-05
0.000460231
-7.30924e-05
0.000139742
6.00732e-05
-0.00010454
0.000118325
-0.000234755
0.000182217
-0.000367069
4.41243e-05
-0.000187034
0.000306875
-0.000103066
0.000519246
0.000146543
-0.000318582
2.8641e-05
2.62101e-05
-1.80415e-05
-0.000449193
-0.000154097
-0.000150856
-0.000199579
0.000355592
0.000203114
-2.49047e-05
7.50274e-05
0.000149606
9.18918e-05
-5.47944e-05
-0.000241518
0.000217926
0.00012915
-0.000364731
-0.000281017
3.27283e-05
4.61487e-07
0.000668257
0.000429505
7.27607e-05
0.000399039
0.000120858
-0.000168454
0.000215486
-0.000239738
2.42521e-05
-5.03273e-05
8.73016e-06
-0.000452995
0.000288736
0.000393428
6.42426e-05
-0.000166547
-0.000279841
9.2082e-05
0.000234239
6.29317e-05
0.000350815
-0.00131144
-0.000555455
0.000598132
-0.000274607
0.000378281
2.60552e-05
-0.0003686
-0.0001523
0.000249999
-9.97994e-05
-0.000187828
-0.000182808
1.66271e-05
1.49656e-06
5.33649e-05
0.000378368
-0.000402009
-0.000252219
0.000124199
-0.0001709
0.000410741
-0.000412946
-1.37175e-06
0.000170165
9.29213e-05
9.98855e-06
-6.67738e-05
4.20292e-05
-0.000353045
-2.40577e-06
7.66973e-05
-0.000661646
-0.000127959
0.000251572
0.000112271
0.000411425
5.41173e-05
-0.000144246
0.00056432
-0.000562909
-1.75082e-05
0.000381698
-6.96779e-05
0.000164685
-0.00127372
9.69818e-05
1.07984e-05
-0.000329986
3.68703e-05
0.000282317
-2.5265e-05
0.00107336
-0.000309605
5.98761e-05
0.000170076
-0.000288478
3.13413e-05
-0.000393412
0.000365032
-0.000140608
-7.39038e-05
-0.000214245
0.000270753
-1.96734e-05
-0.000294702
6.38576e-05
0.000457381
2.45382e-05
-3.66594e-05
-3.33226e-06
-0.000193066
0.000163054
0.000184038
0.000587712
-5.04879e-05
-0.00065982
-0.000106525
3.34923e-05
0.000132631
-9.84436e-05
0.000248766
0.000580644
6.24096e-05
-3.78429e-05
-0.000342218
0.000222923
-6.90018e-05
1.12254e-05
-2.6419e-05
-0.000301581
-1.55517e-07
-5.83365e-06
8.47796e-05
1.38513e-05
0.000131922
-0.000206682
-5.31999e-05
0.00011524
-3.20287e-05
0.000104045
-0.000670922
-1.65206e-06
0.000647309
-4.39911e-06
-1.61042e-05
-0.000766058
0.00103763
-2.88e-05
4.90685e-05
3.34043e-05
-7.50593e-05
5.41027e-05
-4.16923e-05
5.2169e-06
6.35233e-05
-2.05171e-05
0.000135607
0.000349346
6.24106e-05
-0.000354045
0.000262486
-0.000166044
0.000257602
-5.80929e-05
6.94311e-06
-0.000114307
-1.09517e-05
-0.000232587
-0.000458074
-0.000335091
0.00043912
-0.00023633
-0.00021925
-0.000162224
0.000368784
8.79853e-05
-0.000294546
-0.00015933
-0.000150618
0.000131508
0.00017844
0.000356237
2.93733e-05
-2.62902e-05
-0.000370658
0.000363688
-0.000227005
-0.000264903
0.000373479
-0.000231123
-0.000335399
0.000438349
0.000299599
-0.000137706
-0.000619145
2.83618e-05
-7.68611e-05
0.000285059
-0.000166489
0.000399723
-0.000120958
-0.000373262
-0.000341695
-0.000176109
0.000981972
0.000316861
-0.00024351
-4.50336e-05
8.89098e-05
-0.000247269
-0.00016188
0.000516055
-0.000388203
0.000270975
0.000770137
-0.000654393
-0.000115744
-0.000221799
0.00022996
-8.16183e-06
-0.000203355
0.000186688
-0.000177982
-8.70531e-06
0.000881401
0.000225795
-0.000280315
0.000287352
-7.03791e-06
0.000303943
2.36282e-05
0.000328409
-4.10569e-05
-0.000591667
0.000986202
0.000365642
0.000562853
-0.000527973
-3.48801e-05
0.00037379
0.000217435
0.000212565
4.86969e-06
0.000368966
4.82396e-06
0.000213812
-1.24643e-06
0.000227927
-1.41152e-05
0.000244578
1.88443e-05
0.000806515
0.000490662
4.92717e-05
6.38759e-05
8.39883e-06
-5.37307e-05
0.000190968
-0.000184362
-0.000118579
0.000921544
-0.000168802
-2.78092e-05
7.14074e-05
0.00024981
1.77843e-05
0.000552217
2.53824e-05
0.000111887
-4.59065e-05
0.000157951
-1.74418e-05
0.000214236
6.63417e-05
0.000696795
-0.000685143
-0.000180917
0.00050942
0.000453352
-0.00022743
5.0099e-06
-1.06429e-05
-5.44852e-05
-5.71585e-05
-0.000100392
0.000254566
0.000588233
-0.000174356
0.000196709
-0.000195072
-0.000149448
-6.95268e-05
-0.000117421
0.000941549
-0.00123566
4.24611e-05
6.65262e-05
-0.000329284
0.000877034
-2.57367e-05
0.000318309
-0.00116961
-2.54044e-05
-0.000183044
-7.49489e-05
-0.000362258
1.51275e-05
0.000255873
0.000212044
-0.000423922
-9.88629e-07
6.80475e-05
7.55481e-05
-0.000113201
0.000418074
0.000201828
-0.000470869
6.80521e-05
-4.04064e-05
-5.33503e-05
4.49682e-05
-7.10217e-06
-0.000339976
-0.000184718
0.000320025
-0.000215575
0.000253017
-0.000182841
-6.85872e-05
-1.04546e-05
1.42523e-05
-2.69938e-05
0.000321819
-0.000343689
-3.05735e-05
-0.000251683
0.00026121
6.76269e-05
-0.000121976
-9.77751e-06
-0.000245777
0.000250787
0.000177228
-0.000344543
-3.98592e-05
-0.000521684
2.65622e-05
0.000473021
-0.000609349
-3.57104e-05
1.4274e-05
-1.92507e-05
8.83465e-06
-0.000380736
-0.000128365
-0.000374189
0.000122832
-0.000108798
0.000259647
7.4376e-05
0.000155512
-7.97512e-05
0.000448619
-0.000242332
0.000118327
3.0418e-05
0.000366075
-7.13015e-05
9.79239e-05
-3.31854e-05
-0.000230849
-3.40268e-06
-1.083e-05
0.000139287
-0.00028341
-0.000148799
-0.000157281
0.000127507
-0.000152274
-0.000104514
-0.000388302
-7.58413e-05
8.41383e-05
-0.000120863
0.000143003
-0.000365162
-0.000151362
0.000318945
6.19295e-05
0.000346856
-2.37597e-05
7.03836e-05
-1.21569e-05
-0.000142156
0.000323088
-0.00012132
-5.43805e-05
0.000255599
-0.000190774
1.11629e-05
2.79882e-05
-2.33851e-05
3.83156e-05
0.000358744
-0.000406778