/*--------------------------------*- C++ -*----------------------------------*\
| =========                 |                                                 |
| \\      /  F ield         | OpenFOAM: The Open Source CFD Toolbox           |
|  \\    /   O peration     | Version:  v1912                                 |
|   \\  /    A nd           | Website:  www.openfoam.com                      |
|    \\/     M anipulation  |                                                 |
\*---------------------------------------------------------------------------*/
FoamFile
{
    version     2.0;
    format      ascii;
    class       volVectorField;
    location    "0.41";
    object      U;
}
// * * * * * * * * * * * * * * * * * * * * * * * * * * * * * * * * * * * * * //

dimensions      [0 1 -1 0 0 0 0];


internalField   nonuniform List<vector> 
1466
(
(0.191886 1.8054 0)
(-0.110134 1.47244 -1.02556e-16)
(0.563524 -0.159992 -1.38792e-16)
(-0.062628 0.968274 1.34553e-16)
(-0.0610177 -0.387164 -5.96621e-16)
(1.31937 -0.0806693 -3.96315e-16)
(-0.099899 -0.0247726 2.77597e-16)
(0.682166 -1.32263 3.11695e-16)
(-0.209851 -1.21363 1.28361e-16)
(-2.25615 0.19934 5.61067e-16)
(0.543932 -0.0349911 -1.52131e-16)
(-1.45457 0.250155 1.32533e-16)
(-0.0973853 -0.0874195 9.33665e-18)
(0.395024 1.18686 -1.06537e-16)
(1.23255 0.367196 -2.15776e-18)
(-0.00450305 0.438753 -9.69306e-21)
(1.03825 -0.0606757 5.82657e-17)
(0.228745 1.12632 -1.29609e-16)
(0.365252 -0.21557 -1.53745e-16)
(0.0352367 1.17107 0)
(-0.268336 -0.308643 1.3274e-16)
(0.0041104 0.190488 -3.36017e-16)
(0.709915 0.0927751 0)
(-0.0531358 1.63201 6.23434e-17)
(0.51051 1.17502 -1.57561e-16)
(-0.206161 -0.229451 1.73088e-16)
(-0.248832 -0.343752 1.87579e-16)
(-0.05624 0.42621 2.82348e-16)
(-0.121937 0.0241493 0)
(1.50693 -0.137859 3.4579e-16)
(-1.08774 -1.44127 0)
(1.16978 -0.4029 6.8263e-16)
(0.15408 0.521387 -2.89803e-16)
(0.0201522 -1.22089 -8.72357e-17)
(0.321442 0.811048 0)
(0.784653 0.364261 2.35075e-17)
(-0.650462 0.294657 -1.39813e-19)
(1.02175 -0.628849 0)
(0.913385 0.584698 -4.55656e-16)
(0.452372 0.206851 2.78915e-16)
(-1.42032 0.408823 -1.40429e-16)
(-0.503137 0.0327606 -1.63816e-16)
(-0.122343 -1.20236 -3.55333e-16)
(0.00324061 -1.61885 1.7805e-18)
(-0.0782014 0.449 0)
(-0.424291 -1.18035 1.97205e-20)
(1.27017 -0.835668 -1.37241e-16)
(0.148337 0.947909 9.58062e-17)
(-0.491064 -0.126521 -2.29829e-16)
(-0.0700364 -0.476786 -7.44701e-17)
(-0.179058 -0.342033 0)
(-2.07516 0.111283 -2.53059e-16)
(-0.0893943 -0.117847 3.7259e-16)
(1.09505 -0.047123 3.95591e-16)
(0.403349 0.143353 3.63719e-16)
(-0.651548 -0.0206669 -1.15718e-16)
(1.57873 -0.293093 0)
(0.595561 -1.43491 2.41129e-16)
(-0.580853 -0.0526321 1.3089e-17)
(-0.587726 -0.247903 0)
(0.0312829 0.504426 -2.32846e-18)
(0.26708 -0.670467 9.46349e-17)
(-1.05018 -0.972346 1.05689e-16)
(1.22633 -0.310867 -4.01669e-16)
(-0.172457 1.10404 1.83304e-16)
(0.187461 1.07578 -3.16529e-17)
(-0.739439 0.0696846 -3.54605e-17)
(-0.392772 -0.151377 -1.74295e-16)
(0.223162 1.38183 -1.14395e-17)
(0.0602808 0.0881694 0)
(0.126335 -0.26979 0)
(-0.0158471 1.29344 -5.48134e-17)
(0.447971 -0.366068 -4.92681e-16)
(-0.0302271 1.34381 -1.84716e-16)
(-0.188779 0.0109396 3.7563e-17)
(-1.76701 0.225852 -1.58289e-16)
(-0.0232824 1.33962 4.47041e-17)
(0.189145 1.41308 1.60035e-16)
(-0.229403 0.189725 0)
(-0.569161 -0.307355 0)
(0.440224 -0.398928 -3.08923e-17)
(0.0310462 1.18638 1.86328e-16)
(1.27183 0.116234 0)
(-0.456718 -0.256161 1.39105e-18)
(0.166818 -0.2541 1.87294e-16)
(0.419283 -0.717514 -8.32824e-17)
(0.031145 -0.160422 -2.52831e-16)
(-0.28209 0.704688 1.3599e-16)
(0.237956 1.23952 -3.33233e-17)
(-0.00685169 0.987514 5.86461e-18)
(-0.042273 1.14791 9.66721e-17)
(-0.708141 -0.221089 0)
(-0.444749 -0.70205 -5.37861e-17)
(0.068244 1.05208 1.83727e-16)
(-0.520371 -0.234206 0)
(-0.499504 -0.315658 -1.75286e-16)
(-0.0787038 0.985762 5.85174e-16)
(-0.525839 0.0704713 0)
(-0.051552 0.851743 1.44055e-16)
(2.67874e-05 1.08125 -1.53072e-16)
(-0.0985012 0.0750228 0)
(-0.207685 0.550277 -8.90954e-17)
(0.689724 0.036337 3.54307e-16)
(-0.106035 0.37873 -1.5276e-16)
(1.39037 -0.372627 0)
(-0.606108 -1.27372 -2.26732e-16)
(-0.459961 -0.0153837 1.60058e-16)
(1.30388 -0.0281911 -6.17926e-18)
(-0.0606006 1.36852 4.66882e-17)
(0.781256 0.965587 5.46415e-18)
(-0.502061 -0.0747718 1.83053e-17)
(0.351598 -0.305173 4.55583e-16)
(0.692512 0.283991 -2.94769e-16)
(0.939785 -0.676441 -2.96065e-19)
(-0.0988389 -0.230099 -1.84864e-17)
(-0.925046 -1.56195 0)
(0.158849 1.13614 -7.25043e-17)
(0.235545 1.22008 5.09084e-16)
(-0.0385157 0.94166 3.0163e-17)
(0.593732 -1.46591 -3.46653e-16)
(-0.855607 -0.0626986 1.62852e-16)
(0.357926 1.58826 0)
(0.0494055 0.434251 -7.09387e-17)
(-0.388725 0.709365 -7.06462e-17)
(0.302168 1.11506 2.68647e-16)
(-0.242771 -1.58777 -8.66373e-17)
(-0.00151744 0.0271452 2.66739e-17)
(-0.0116072 0.252678 0)
(-0.390989 -1.03748 5.04286e-17)
(0.846517 -0.697043 -2.64631e-16)
(-0.292681 -0.471504 1.07867e-16)
(-0.0139287 1.34631 9.65185e-21)
(0.18102 0.590017 2.10975e-17)
(-0.957837 -3.58982e-07 -5.79846e-17)
(-0.21789 -0.496053 -9.46145e-18)
(-0.52757 -0.339553 1.37342e-16)
(-0.472435 0.170448 0)
(0.192611 -0.155297 0)
(0.38249 0.246857 3.4249e-17)
(0.010355 0.845555 8.31355e-17)
(-1.6917 0.134618 -8.3527e-17)
(-0.946941 -0.185451 -1.39076e-16)
(-0.293419 -1.37994 5.68777e-17)
(-0.258941 -0.310646 -4.02023e-16)
(0.15723 0.35067 1.40384e-16)
(0.5704 0.484552 0)
(-0.456116 0.258142 0)
(-0.145091 0.439935 0)
(-0.703919 -0.336196 6.70356e-17)
(0.271013 -0.321752 2.38049e-16)
(-0.320684 -1.33283 -1.17537e-16)
(0.0994485 0.233888 4.02506e-18)
(0.055665 0.993188 1.09386e-16)
(-0.0824347 1.20919 -2.02999e-17)
(0.012331 1.32669 -1.54192e-16)
(0.353023 -0.299173 -7.7143e-17)
(0.099068 1.38719 -3.08808e-16)
(-0.0259745 -0.834011 1.68956e-16)
(-0.175229 -1.48389 -5.60223e-17)
(-0.132448 0.567884 0)
(-0.0719284 0.52833 1.0777e-16)
(0.0961029 1.064 -2.15069e-17)
(-0.0260095 1.04617 2.50505e-16)
(-0.71253 -0.18853 1.59084e-16)
(-0.316145 0.508036 -4.51111e-18)
(-0.488951 -0.355268 -5.82422e-19)
(0.874508 -0.831255 0)
(0.830514 0.204633 8.07224e-17)
(0.142431 0.950391 4.25713e-18)
(-0.385969 -0.382628 3.16358e-16)
(0.0820603 -0.505502 2.35045e-16)
(0.632075 -0.767017 2.13766e-16)
(0.113864 0.0932165 0)
(-0.340194 -0.202324 8.60385e-17)
(-0.344643 -0.226883 -7.15481e-16)
(-0.168751 1.20112 1.58986e-16)
(-0.415124 0.418923 1.41377e-16)
(-0.504131 -0.598501 -1.93464e-17)
(1.16203 0.464038 -1.12876e-16)
(-0.479324 -0.658823 1.87913e-17)
(0.274922 1.47795 -1.66484e-16)
(1.08024 -0.39896 1.73177e-16)
(-0.286783 -0.622468 -2.66589e-16)
(0.25405 1.17181 -4.59423e-16)
(-0.274588 0.967664 -3.40957e-16)
(0.329295 1.11194 4.96652e-16)
(0.914539 -0.021944 0)
(-0.26804 -0.448499 0)
(0.824615 0.253343 -4.38219e-17)
(-0.0509677 0.309171 0)
(-0.196918 0.717951 0)
(0.160227 0.747682 1.14744e-16)
(0.171948 1.12276 1.87665e-17)
(-0.147898 1.0254 -6.94522e-17)
(1.24074 -0.657533 1.58616e-19)
(0.0358634 1.43942 0)
(0.525807 0.125391 -4.45898e-17)
(0.924477 0.766593 -1.11394e-17)
(0.816841 0.818072 -1.09025e-17)
(0.669689 0.988238 -5.20917e-18)
(0.0657706 -0.637629 -8.69785e-17)
(-0.0972652 -0.333107 2.8747e-16)
(1.34078 -0.191554 -4.92699e-17)
(0.192686 1.03256 2.24091e-16)
(0.245628 0.366943 0)
(-0.508654 -0.113479 3.02855e-16)
(0.984214 -0.19441 1.35891e-16)
(-0.675239 -1.11885 1.1139e-16)
(0.750045 0.476636 4.21755e-17)
(0.620681 0.318155 9.29863e-18)
(0.800809 0.565865 4.48217e-17)
(0.129137 -0.805838 -2.43065e-19)
(-0.173426 -0.623318 -9.49324e-17)
(0.773183 -0.531898 -1.8545e-19)
(-0.0524751 0.880659 -7.11276e-17)
(0.864256 0.126307 2.28614e-17)
(-0.0945233 0.479989 -7.47752e-17)
(-0.191655 0.0741288 0)
(0.113073 1.28692 0)
(-0.0572799 1.35419 -1.8884e-20)
(0.497471 -0.158179 1.49181e-16)
(0.182986 1.43789 0)
(0.0577276 0.942352 5.40761e-17)
(1.15459 -0.82176 2.89791e-17)
(-0.378773 0.0497084 -4.58064e-17)
(1.0352 -0.830394 0)
(0.44745 0.862919 7.14917e-17)
(0.163196 0.650031 1.12689e-16)
(-0.931079 0.244769 2.31446e-18)
(0.561646 -0.946689 -3.26382e-16)
(0.452372 -0.258756 2.53907e-16)
(-0.256877 0.413422 0)
(0.158061 1.18289 -1.06525e-16)
(-0.266142 -0.192697 4.32268e-20)
(1.25135 0.247744 0)
(0.480524 0.664033 0)
(-0.195168 -0.272348 0)
(1.80881 -0.62126 -4.28393e-16)
(-0.15199 -0.411012 -1.07613e-16)
(0.594073 1.05804 0)
(0.184825 -1.0886 1.34925e-16)
(-0.145455 -0.56636 2.96142e-16)
(-0.392675 -0.231285 -3.48648e-17)
(-0.386718 0.298423 -6.62482e-16)
(-0.494275 0.26684 0)
(-0.992568 0.0729211 -1.4662e-16)
(-0.0984474 -0.00844579 -5.11216e-19)
(-1.10919 -0.13457 2.80978e-16)
(-0.481436 0.119366 0)
(-1.14914 0.00536148 -4.47771e-18)
(0.0777208 1.32777 -6.12185e-16)
(0.449022 -0.481034 -8.83186e-17)
(-0.467375 -0.300915 -1.12392e-16)
(-0.433496 0.343031 4.52225e-16)
(0.267068 0.996397 0)
(0.323983 -0.309649 1.50789e-16)
(0.521394 0.702975 -1.08931e-17)
(0.895948 -0.799591 -5.39039e-17)
(-0.105942 -0.47756 1.23529e-16)
(-2.40259 0.149565 -8.83535e-17)
(0.723337 -0.489169 -2.11075e-19)
(0.813905 -0.612386 2.35427e-16)
(0.25235 -0.156989 6.29862e-20)
(-0.0829764 0.640161 -2.26232e-17)
(1.12004 0.0460136 -1.83698e-16)
(1.43598 0.231589 -2.10582e-16)
(-0.711527 -1.33491 8.58272e-17)
(0.0609922 -0.167571 1.56986e-19)
(0.0565085 -0.348187 -6.2054e-17)
(-0.0494509 1.34663 -4.75596e-17)
(-0.0491409 0.293199 -9.02843e-17)
(0.375114 1.50581 5.03413e-17)
(0.261228 -0.14992 2.90177e-17)
(0.172422 0.497574 2.80703e-18)
(0.789236 -0.612334 -3.42471e-16)
(-0.51865 -0.0459001 5.4634e-17)
(-0.547852 0.301455 1.28574e-16)
(0.406322 0.738945 0)
(-0.0999754 0.300176 -5.66637e-18)
(-0.52006 0.08449 1.76402e-16)
(0.736616 0.805106 2.29191e-17)
(-0.744602 0.117662 0)
(-1.19136 -0.0669209 -1.78169e-19)
(-0.189007 -0.0480189 4.46781e-18)
(0.0675295 -0.768613 -7.91225e-17)
(-0.0411338 -0.00743361 -9.82454e-17)
(0.0906523 -1.37316 0)
(0.00332142 -0.242417 0)
(0.546159 0.00739879 2.91151e-16)
(0.0134286 0.764201 1.15342e-16)
(0.988344 -0.779825 -1.739e-16)
(-1.25799 -1.67169 -3.90311e-17)
(0.306454 -1.4883 -3.32271e-17)
(-2.02575 0.356669 0)
(-0.39056 -0.565249 -1.5451e-16)
(-0.0260091 -0.769149 0)
(-0.123392 -0.0828903 8.13779e-17)
(-0.669025 -1.97323 1.88023e-19)
(-0.119507 -1.03952 0)
(0.0565188 0.278431 -1.97511e-16)
(0.249617 -1.30556 -4.9464e-17)
(-0.0301841 -1.01148 3.36017e-16)
(0.0845616 -0.0333484 -3.79638e-17)
(0.179553 -1.54008 5.99836e-17)
(1.20062 0.405538 2.04926e-16)
(0.581559 0.314504 -3.48009e-16)
(-0.884769 -0.239973 -1.40004e-16)
(-0.316712 -0.344993 -1.20193e-16)
(-0.405423 -0.00127038 4.50167e-18)
(0.428585 -0.200305 2.5117e-16)
(0.494403 -0.862416 2.79247e-16)
(-0.739885 -0.132668 3.44147e-17)
(-0.0207359 -0.3902 -1.21221e-16)
(-0.941629 -0.521787 -1.98292e-16)
(-0.397795 -0.43432 5.58528e-17)
(0.0743379 -0.187708 -2.28623e-17)
(0.436924 -0.230415 -7.49922e-20)
(-0.248173 -0.13117 1.71522e-16)
(0.0694049 0.149523 0)
(-0.10514 0.110836 -3.4859e-17)
(1.06355 -0.914841 -2.41073e-17)
(-0.5504 -0.0766981 -1.50446e-16)
(-0.227672 -0.774285 4.64419e-16)
(1.41799 0.0178469 -1.38391e-16)
(-0.569434 -0.0900009 1.5271e-16)
(-1.03086 0.10492 -1.02773e-16)
(-0.197748 -0.114297 1.85011e-17)
(-0.774952 -0.110136 0)
(0.299686 -0.069388 0)
(0.500529 -0.198482 -1.28858e-16)
(-0.615331 0.113598 0)
(1.48375 -0.0668161 2.91145e-16)
(0.0147454 -0.101251 1.77744e-17)
(1.23165 -0.100847 0)
(-0.779852 -0.0687147 -1.01706e-17)
(1.50697 -0.0178138 0)
(0.116869 0.0523003 -4.34429e-17)
(-0.135516 0.00748495 -1.12094e-16)
(0.71086 -0.0329255 -1.28459e-17)
(0.2011 -0.130042 1.38745e-16)
(-0.359899 0.183646 0)
(1.28852 -0.13054 -2.23573e-16)
(-0.517503 0.149525 0)
(-0.648765 -0.0829161 0)
(-1.15459 0.0289603 -1.08532e-16)
(-0.0758072 -0.00678516 0)
(0.338808 0.140665 -7.50959e-17)
(0.546983 -0.152027 7.26356e-17)
(0.0246488 -1.43551 8.25065e-17)
(0.517594 0.0114365 -3.15943e-16)
(-0.483378 -0.36351 4.43043e-17)
(0.607377 -0.416979 4.67213e-16)
(-0.537558 -0.129024 -4.48252e-17)
(-0.424844 -0.17498 -3.73202e-16)
(-0.360453 -0.244792 2.19588e-16)
(-0.0805507 -0.163021 -4.31256e-18)
(0.380132 -0.566658 -3.32455e-16)
(-0.142293 0.532145 3.38603e-16)
(0.626533 0.398715 -7.66116e-19)
(0.136057 -1.06626 -1.5677e-16)
(0.403039 -0.116685 0)
(-0.617892 -0.0842131 1.56869e-16)
(-0.51401 -0.0506168 1.6432e-16)
(1.27786 -0.00204871 -2.12882e-16)
(0.0282932 -0.522566 3.1843e-17)
(-1.00387 -0.0705887 0)
(-0.431305 -0.111911 -1.85483e-17)
(0.175748 -0.0763107 -1.2885e-17)
(1.0135 -0.165638 1.05897e-16)
(0.00181223 0.204927 0)
(-0.0140766 -0.0354598 1.73492e-17)
(0.219737 -0.10722 -7.88402e-17)
(0.599058 0.0671081 -2.20676e-16)
(1.53844 -0.0491301 0)
(0.817883 -0.0588753 -3.44714e-16)
(-0.789799 0.0181777 0)
(-0.810571 0.150826 7.26136e-17)
(-0.434203 -1.62673 -7.11921e-18)
(0.473205 -0.36234 3.28915e-16)
(0.186807 -0.905987 -1.72654e-16)
(0.0304518 -0.0442844 2.58087e-17)
(-0.127138 -0.617191 -2.27817e-17)
(0.0879758 -1.59906 -5.23938e-18)
(-0.588289 -0.250241 -7.07305e-17)
(-0.133785 -0.282237 -2.03783e-17)
(0.238695 -1.33059 2.89808e-16)
(0.261356 -0.420437 9.17354e-17)
(0.0593343 -0.478836 0)
(0.00164721 -0.331242 0)
(-0.0986233 -1.60718 0)
(-0.164185 -1.67426 2.53247e-16)
(0.707112 -0.721455 0)
(-0.454573 0.19749 1.06663e-17)
(-0.868757 -1.7561 5.27138e-17)
(-0.356143 0.0872917 -3.63547e-17)
(0.764149 0.624709 -6.51108e-17)
(-0.482384 0.171069 1.45334e-18)
(-0.098058 -0.088221 -1.22214e-16)
(1.4453 -0.543639 -6.86853e-17)
(0.2919 0.0364195 4.60461e-17)
(0.626652 -0.108379 3.14289e-17)
(0.170822 -0.191592 -3.58053e-18)
(-0.463985 0.273367 -1.49988e-16)
(0.432061 -0.308949 -2.31148e-17)
(-1.33397 0.411708 0)
(0.0530151 -0.666999 2.35443e-16)
(-0.206571 -0.710638 -1.08404e-16)
(0.356511 0.167982 -2.55692e-16)
(0.70039 -0.246343 -8.1385e-17)
(-0.31692 0.638958 -8.40926e-17)
(0.0718247 -0.67883 1.84789e-17)
(-0.394805 0.232968 -3.09781e-16)
(0.545846 -1.04914 4.34095e-17)
(-0.24597 -0.760203 3.57505e-17)
(-0.368047 -1.01532 -3.63211e-17)
(-0.181605 -1.58186 1.10545e-16)
(-0.0403155 -0.753791 -2.71991e-17)
(0.659523 -1.13982 -9.88836e-20)
(-0.153213 -1.72264 0)
(-0.169614 -1.69059 0)
(0.599223 -1.21412 5.70637e-16)
(-0.040082 -1.01541 6.93352e-17)
(-0.170395 0.248895 -1.4425e-16)
(-0.359925 0.41173 5.05648e-16)
(-0.279303 0.190609 -3.16667e-16)
(-0.23398 0.029983 6.92013e-16)
(-0.194903 0.712501 -1.4092e-16)
(-0.164276 0.501432 -3.855e-16)
(-0.27996 0.115778 -2.79649e-16)
(-0.177835 -0.018602 -3.03144e-16)
(0.00423082 0.349876 -1.84792e-17)
(0.181682 -0.586082 -3.72023e-17)
(-0.0158619 -1.13035 3.1293e-17)
(-0.268696 -0.720475 -6.49879e-20)
(0.147741 0.260428 -1.09873e-16)
(-0.407255 -1.09317 -1.39535e-16)
(-0.189535 -0.78296 2.35611e-16)
(-0.0708385 -1.82431 1.76827e-16)
(-0.217934 -0.979619 3.91169e-16)
(0.175026 -0.660916 -1.7098e-16)
(-0.0879123 -0.22054 -4.80406e-17)
(-0.1431 -1.61316 0)
(-0.122752 -0.435215 3.59344e-16)
(0.29616 -1.47861 3.52672e-17)
(0.067311 -0.974691 -2.15783e-16)
(0.0874137 -0.509336 -2.35478e-16)
(0.637412 -0.429365 0)
(0.748797 -0.479984 2.85648e-16)
(-0.647912 -2.03485 0)
(0.650576 -1.27632 5.78055e-17)
(-0.526685 -2.08631 1.80254e-16)
(0.0690687 -0.66575 0)
(0.167192 -1.14319 -4.11931e-17)
(0.456449 -1.09582 -3.02106e-16)
(-0.0589722 -0.570699 -7.71386e-17)
(-0.374066 -0.836531 -2.75422e-16)
(0.681357 -0.419658 -5.79388e-19)
(0.347184 -0.377749 0)
(-0.280034 -0.429743 0)
(0.612522 -1.40397 -9.26382e-17)
(0.178451 -0.345764 1.73056e-16)
(0.128267 -1.14101 2.43387e-18)
(0.337782 -1.18247 2.62309e-16)
(0.609713 -1.35469 3.04391e-16)
(-0.14316 -0.329745 -6.22834e-17)
(0.210361 -0.202222 0)
(-0.404973 -0.968913 1.53262e-16)
(0.295668 -0.753977 -9.62812e-18)
(-0.0923678 0.77373 0)
(0.738731 -1.06613 8.76075e-17)
(-0.273055 -0.607229 3.03757e-17)
(0.0253904 -1.27144 -2.84739e-17)
(0.627698 -1.43537 -2.10611e-16)
(-0.140269 -0.976145 5.63851e-17)
(1.238 -0.305114 -8.05989e-16)
(-0.890379 -1.75263 -4.58678e-16)
(-0.179938 -0.142551 0)
(0.143396 -0.329023 -4.01093e-17)
(0.212816 -0.435855 -1.07552e-16)
(1.09455 0.451843 2.1516e-16)
(-0.19334 0.951145 -4.22134e-17)
(0.368865 -0.748815 -4.51193e-17)
(1.25703 0.135734 3.99596e-16)
(0.16274 -0.497467 -1.43979e-16)
(-0.137366 -1.11164 0)
(-0.258669 0.811446 1.11205e-16)
(0.464677 -0.402014 -4.66151e-16)
(0.30011 -0.656526 5.44174e-17)
(1.5269 0.436099 -1.77814e-16)
(0.0721266 -0.00122456 -5.20897e-17)
(0.0396776 -0.880924 -1.38322e-16)
(-0.301252 0.641919 -7.98496e-17)
(0.291717 -0.260611 8.26941e-17)
(0.297211 -0.674275 -3.69881e-17)
(-0.198366 -0.0325324 0)
(0.425969 -0.605365 1.40772e-16)
(1.19632 0.751474 -3.50091e-19)
(0.0476116 -0.401707 1.36804e-16)
(0.0135926 -0.0384678 -1.30396e-17)
(-0.0654073 -0.0932834 1.15632e-17)
(-0.405802 0.494436 1.62653e-16)
(0.62784 -0.0744547 1.04456e-17)
(-0.0949022 -0.358884 4.67363e-17)
(-0.329968 -0.0273598 -4.9183e-17)
(0.254835 -0.564231 3.91658e-17)
(-0.399434 0.23025 -1.13753e-16)
(-0.446276 0.0960133 3.17989e-16)
(0.417872 -1.45008 -1.58462e-17)
(0.674969 -1.0847 -3.25569e-16)
(0.232322 -1.27733 -8.64759e-18)
(0.637059 -0.634568 -3.74262e-16)
(0.203527 -0.827333 0)
(0.440634 -0.760569 2.43151e-16)
(0.551884 -1.52441 5.70698e-17)
(0.464145 -1.37062 -4.72359e-18)
(0.359675 -1.02302 -7.45365e-17)
(-0.275538 0.491909 2.41464e-18)
(0.262797 -0.0315099 -8.45246e-17)
(0.515895 -1.28629 -4.35075e-16)
(0.534597 -1.41503 -1.52226e-16)
(0.408514 -1.36227 7.06082e-16)
(-0.580035 -1.23496 4.03779e-17)
(0.00246335 -0.172262 1.2952e-18)
(0.0991332 0.260943 2.87887e-16)
(-0.146568 0.101538 0)
(-0.0898044 -1.60498 1.85527e-16)
(-0.101852 -0.241177 0)
(0.156812 -0.190219 8.58225e-17)
(-0.0046201 -0.95383 6.93436e-17)
(0.108399 -0.567775 -4.31751e-17)
(-0.319673 -0.534699 3.05097e-16)
(-0.475174 -0.0427692 -4.19436e-17)
(0.539555 -1.33888 -5.17835e-17)
(0.630008 -1.22346 1.0507e-16)
(0.514369 -1.60834 0)
(0.128248 -0.260563 0)
(-0.539443 0.564803 1.67104e-16)
(-0.196165 -0.487908 -3.01155e-17)
(0.160965 -0.618175 -3.79549e-17)
(-0.0525549 -1.51496 -3.26487e-16)
(-0.0468955 -0.344633 3.90417e-17)
(-0.267 -0.7846 3.78483e-17)
(0.63438 -0.298934 2.39054e-16)
(-0.143326 -0.562975 -1.16469e-16)
(0.427436 -1.21885 9.02115e-17)
(0.732864 -1.53362 -3.5385e-17)
(-0.795479 -0.0348163 0)
(-0.97361 -1.71431 0)
(-0.416877 -1.00932 0)
(-0.484002 0.311942 8.59805e-17)
(0.614518 0.094995 2.41885e-16)
(1.5892 -0.203344 -6.69798e-18)
(-0.320617 -0.770125 6.50794e-17)
(-0.26475 -1.0992 6.41068e-17)
(-0.440359 -0.366299 -1.15928e-16)
(0.570339 -0.31176 0)
(0.430507 0.241595 -1.27452e-16)
(0.247699 -0.412644 -5.04118e-17)
(0.136625 -0.868071 -1.13914e-16)
(0.403607 -0.398674 -6.05991e-17)
(-0.0205312 -0.409334 4.49843e-16)
(0.0837604 -1.28404 1.0164e-17)
(-0.393044 -0.730265 7.11717e-17)
(-1.17487 -1.86307 0)
(-0.976237 0.270581 -4.54302e-16)
(-0.51367 -0.521566 -7.83051e-17)
(1.02026 -0.851328 0)
(0.338281 0.523754 4.13115e-17)
(0.558677 -1.14166 -1.00101e-17)
(-1.07553 -1.95569 1.59013e-17)
(1.73254 0.029615 0)
(0.160896 -0.248398 0)
(0.633298 -1.04656 8.62789e-17)
(-0.273639 0.539277 1.98873e-16)
(-0.328096 0.394179 -6.50098e-17)
(0.695419 -0.965256 1.12012e-16)
(0.196483 -0.303188 1.21268e-16)
(0.18424 -0.414824 0)
(0.509602 -1.0228 -1.18877e-16)
(0.69177 -0.947323 8.78729e-17)
(-0.0220889 -1.05438 -8.66461e-17)
(0.878728 0.315174 7.36217e-17)
(-0.0983329 -0.360635 0)
(-0.437387 0.195621 2.20416e-16)
(1.33841 -0.726603 0)
(-0.236332 -1.78123 -6.4431e-19)
(0.00816116 -1.11181 -1.65819e-16)
(-0.241158 0.236369 7.75104e-17)
(-0.928624 -2.02879 0)
(0.719 -0.79072 9.32592e-17)
(-0.261077 0.0876792 -1.93224e-17)
(0.996925 0.206199 1.43539e-16)
(-0.245746 0.277062 4.38104e-16)
(0.375325 0.0912817 0)
(-0.280227 0.302873 0)
(0.223203 0.165254 -7.55983e-17)
(-0.643299 -0.0647409 -7.46883e-17)
(-0.345413 -1.21405 -8.922e-18)
(-0.747906 -1.4841 0)
(-0.42497 -0.0184749 -1.51971e-16)
(-0.765868 -2.08521 1.09995e-16)
(-0.553733 0.103926 -1.60682e-16)
(0.534379 0.262487 -3.11178e-16)
(-0.0453678 0.396821 3.48103e-16)
(-0.0685742 -0.195104 1.97976e-16)
(-0.0262626 0.261605 2.6104e-16)
(0.0906006 -0.474068 0)
(0.0410595 -0.509528 -1.43645e-16)
(-0.226393 -0.933036 2.31546e-21)
(-1.08372 -2.05531 3.31871e-16)
(-0.41695 -0.967289 -9.06313e-18)
(-0.942758 -1.01355 6.26432e-17)
(0.839255 -0.905094 2.23508e-16)
(0.0844421 0.00291022 -3.54129e-16)
(0.0815779 -0.108723 0)
(0.135772 -0.330025 -1.81353e-16)
(-0.770863 -1.43795 -7.30231e-18)
(0.164079 1.09529 -4.63464e-16)
(0.587857 -0.121108 4.58781e-21)
(-0.657181 -0.258399 -1.58792e-16)
(0.27876 0.446681 -1.65343e-16)
(0.908819 -0.647795 -1.17432e-16)
(0.310678 -1.10029 -3.08621e-19)
(-0.413772 -0.678647 0)
(-0.295239 0.42842 0)
(0.68859 -1.03301 -1.25028e-16)
(-0.437903 -0.121442 -9.89101e-17)
(0.540278 0.542397 -4.67821e-17)
(0.689832 -0.394548 -7.79154e-17)
(-0.557835 -1.2785 -9.01586e-17)
(0.388962 -0.357252 0)
(-1.22687 -2.04415 -1.29316e-17)
(0.0814189 0.135408 -2.07092e-17)
(1.11945 0.083224 1.84566e-17)
(-0.510501 0.0112804 7.07224e-17)
(-0.427831 -0.879317 1.9289e-17)
(-0.495396 0.120807 0)
(-0.420844 -0.988934 6.15552e-18)
(-0.299345 0.0828794 -7.80017e-17)
(0.152026 0.361763 7.38984e-17)
(0.57079 -0.178542 0)
(0.327778 -0.169405 5.93633e-20)
(1.68912 -0.186598 -5.00235e-17)
(-0.103232 -0.500638 -2.09398e-16)
(0.290729 -0.166912 3.40625e-17)
(-0.565857 0.542672 0)
(-0.0304524 0.227361 -3.36372e-16)
(0.521829 0.0335405 -3.21338e-16)
(-1.35444 -1.88725 1.27041e-16)
(0.491809 0.00222227 0)
(0.274772 0.324207 -3.87826e-17)
(-0.770511 -1.85543 0)
(-0.426059 -0.779195 0)
(0.33968 -0.232764 0)
(-0.0213367 -1.42767 -5.8955e-17)
(0.309836 -0.30877 2.36374e-16)
(0.19472 -1.12553 8.66475e-17)
(-0.345965 0.308086 8.73215e-16)
(0.445104 0.157668 -4.49653e-17)
(-0.264066 0.141093 -2.60582e-18)
(-0.00129864 0.383153 -7.67801e-21)
(-0.573019 -1.24056 -4.90544e-18)
(-0.430281 0.566964 -1.86459e-16)
(0.283706 -0.634759 1.20401e-16)
(0.528369 -1.04575 9.76242e-17)
(-0.456619 -1.01145 -7.87424e-17)
(0.649523 -0.706173 1.43047e-16)
(0.168623 -0.569861 -3.8084e-16)
(-0.707002 -1.53385 0)
(-0.298431 -0.83772 -6.71451e-18)
(0.40887 0.287247 3.32094e-17)
(-0.248794 0.240859 8.76221e-17)
(-0.367784 -0.0425936 9.49109e-17)
(-0.26752 0.374395 1.40311e-16)
(-0.333481 -0.0249297 -1.82799e-16)
(1.27295 0.0742353 -4.80962e-19)
(0.589544 -0.852857 -1.35508e-19)
(-0.573403 -1.22994 0)
(-0.309501 0.531914 0)
(-0.0786791 -1.54845 3.19048e-17)
(-0.347312 -0.280935 1.32081e-21)
(-0.00794186 0.522564 1.62383e-16)
(-0.266271 0.0593638 0)
(0.133639 0.273958 1.23097e-16)
(-0.468801 -0.156396 0)
(0.0241576 -0.255193 0)
(-0.160667 -0.970753 6.29638e-17)
(0.120042 -0.403581 -1.39153e-16)
(-0.551847 0.112375 -3.98126e-17)
(-0.0565033 0.723815 -3.87421e-17)
(0.0723763 1.3042 7.21335e-17)
(0.362065 0.387432 -1.10279e-17)
(-0.364097 -0.699719 2.56584e-16)
(-0.171602 -1.64003 8.26536e-17)
(-0.164317 -0.719259 -1.67473e-16)
(0.349763 0.515482 3.37215e-17)
(-0.565699 0.102825 8.32077e-17)
(0.463208 -0.482523 -1.65071e-16)
(-0.190969 -0.903292 7.64445e-17)
(-0.221019 -1.39288 -1.67314e-16)
(0.559382 -0.868314 2.27989e-16)
(0.161006 0.328677 -1.55831e-16)
(-0.503263 -0.439308 8.07064e-17)
(0.240144 -0.254439 8.52696e-20)
(-0.233689 -1.55985 9.54624e-17)
(0.0691398 1.44146 -2.31434e-17)
(-0.149859 -1.1091 0)
(-0.602368 -1.5371 0)
(0.610968 -0.951524 -2.44581e-16)
(-0.325086 -0.13085 7.96968e-17)
(0.0678715 0.494291 -1.57413e-16)
(-0.226303 0.0942846 9.70912e-18)
(0.822037 0.0775906 2.25737e-17)
(-0.616913 -0.106908 0)
(0.416165 0.390512 1.59393e-16)
(0.100329 1.33298 0)
(-0.571654 -0.178067 0)
(-1.05594 -2.11535 -9.28118e-17)
(0.315051 0.451729 0)
(-0.0188994 -0.363542 -3.90009e-16)
(-0.28557 0.0711378 4.70188e-16)
(0.277107 -0.921066 8.10656e-17)
(-0.186557 0.0283234 -7.8037e-17)
(-0.34453 -1.08065 -6.54992e-17)
(-0.53497 -1.21296 -1.5195e-16)
(0.889272 -0.699357 -2.06573e-16)
(-0.199133 -0.210556 1.76298e-16)
(0.587085 0.883393 -1.18165e-17)
(0.540242 -0.0552938 -2.88829e-16)
(0.457202 0.288586 -1.10026e-16)
(0.792345 -0.775558 5.8509e-17)
(0.157448 0.998451 0)
(-0.165594 -1.61247 -1.79115e-16)
(-0.52066 0.00329689 8.68782e-18)
(-0.497233 0.00624928 -3.25908e-17)
(0.1692 -0.880995 -7.09904e-20)
(-0.560054 0.00127011 -8.89053e-18)
(-0.452321 0.0389336 0)
(-0.212541 -0.0609614 -2.38104e-16)
(-0.480891 -2.01267 0)
(1.2741 0.0325186 3.04539e-16)
(-0.610537 0.00177662 -7.11988e-17)
(-0.482339 0.0400495 0)
(0.0856475 0.364444 7.03008e-16)
(-0.02275 1.0584 1.45263e-16)
(0.385248 -0.818652 -2.47385e-16)
(0.0897037 0.163351 -3.80592e-16)
(0.359148 0.323269 2.29757e-17)
(0.617389 -0.198289 0)
(-0.568507 0.454371 2.22179e-16)
(-0.455813 0.392349 7.00706e-17)
(-0.182748 0.149811 1.43939e-16)
(-0.387535 0.209883 1.23687e-16)
(-0.254572 -1.36363 3.80197e-17)
(-0.312925 -0.739492 3.3414e-17)
(-0.0503014 0.881269 1.06382e-20)
(0.262709 -0.269908 4.40236e-19)
(0.792299 -0.835097 0)
(-0.242041 0.495287 4.14721e-17)
(-0.0994446 0.29794 0)
(-0.506749 0.106235 3.27364e-20)
(0.641888 0.272353 -7.16079e-21)
(-0.195927 -1.05923 4.15523e-17)
(-0.670514 0.031091 -1.1783e-16)
(0.617416 0.403139 0)
(0.798474 -0.961711 -5.49516e-17)
(-0.140094 0.00629539 -3.37009e-16)
(-0.363852 0.130239 -2.81154e-16)
(-0.284212 0.466051 0)
(-0.793222 0.146423 3.31504e-20)
(-0.16516 0.386951 -1.62945e-16)
(1.10934 0.243393 4.28576e-16)
(-0.112782 0.0491711 4.79344e-16)
(-0.361935 0.0252536 -4.075e-16)
(-0.321653 -0.967228 -1.65295e-17)
(0.207071 -0.777883 1.56157e-16)
(0.171608 0.187196 -2.8709e-17)
(-0.57214 0.304499 -1.55202e-16)
(0.0412548 0.254058 1.15052e-20)
(0.683599 -0.831846 9.45635e-17)
(0.913482 0.798426 6.40904e-16)
(0.39487 -0.109725 6.2949e-20)
(-0.296027 -0.0736965 0)
(-0.202179 0.152515 7.70606e-17)
(-0.339272 -1.09942 6.70381e-20)
(-0.404973 -0.340733 -8.96983e-17)
(-0.727963 0.280675 -7.30364e-17)
(-0.230046 -0.419426 3.61353e-17)
(0.605281 -0.180872 -2.77735e-16)
(0.0291167 0.932101 1.00187e-16)
(-0.0607125 0.493217 -7.70895e-17)
(0.457628 0.364883 1.35577e-16)
(-0.824454 -0.224619 1.75317e-16)
(0.276758 0.928282 2.61872e-16)
(-0.513996 0.629619 -1.93575e-16)
(0.79392 -1.00644 -3.62227e-16)
(0.153488 0.221575 7.22008e-20)
(0.212102 -0.330727 -6.98932e-20)
(-0.154116 0.14119 2.63395e-16)
(0.0963968 0.579495 -2.29778e-16)
(-0.0137993 1.17247 0)
(-0.338923 0.0111102 2.528e-16)
(-0.677553 0.0774078 -8.05822e-17)
(-0.798267 0.00928037 3.32109e-17)
(-0.122435 0.532882 2.28089e-17)
(-0.307431 0.105791 3.70216e-17)
(0.534334 -0.220411 1.29015e-16)
(1.55161 -0.468279 -8.1547e-17)
(-0.717162 0.434481 7.28308e-17)
(0.0941407 0.0716823 2.50303e-16)
(0.708691 0.667321 -3.74541e-16)
(-0.0628484 0.0101581 -1.94603e-17)
(-0.917288 0.0557687 -2.92434e-16)
(0.436659 -0.0965027 0)
(0.0594289 0.958972 -6.13208e-17)
(0.385286 -1.01401 9.79971e-20)
(0.315139 1.4647 -5.34916e-17)
(-0.753681 0.0838008 -3.45878e-17)
(-0.0950804 0.905851 -2.44828e-16)
(0.473612 -1.17764 5.39257e-17)
(0.970562 0.942952 -1.73184e-16)
(-0.273118 0.513233 -2.42767e-18)
(0.391598 -0.532993 -7.02247e-17)
(-0.119767 -1.40594 6.63619e-17)
(1.38644 0.00605237 0)
(1.36015 0.0144157 0)
(-0.0479466 1.66765 -3.31498e-18)
(0.768461 -0.616953 -3.50524e-16)
(0.587466 -0.788331 1.94367e-16)
(0.702521 -0.505385 0)
(-0.0100585 0.425738 0)
(-0.215651 -1.64605 -1.34227e-17)
(-0.443046 0.408062 -7.50799e-17)
(0.428959 -0.0883281 1.18233e-16)
(-1.03463 -0.0514504 1.23354e-16)
(-0.139533 0.120114 9.08015e-17)
(0.0533731 0.109886 -8.51043e-16)
(-0.223205 -1.22356 0)
(0.219426 0.641753 -9.43583e-17)
(0.324818 -0.215745 -6.21776e-17)
(0.0335312 -0.291671 0)
(0.498721 -0.805753 -1.44225e-16)
(-0.587094 0.395174 -2.12432e-16)
(0.883705 -0.757412 6.42175e-16)
(-0.300089 -0.050624 -1.05141e-16)
(0.12697 -1.40145 -1.69884e-16)
(-0.623371 0.0633521 0)
(-0.683364 0.237368 0)
(0.657726 -0.796653 1.43877e-16)
(0.00804795 -1.42588 -5.92822e-17)
(0.374571 -0.129679 1.76629e-16)
(-0.0720228 -1.25859 0)
(-0.369341 -0.356488 7.49834e-17)
(0.494244 -0.0365708 1.47293e-19)
(-0.00480778 -0.0816962 0)
(0.0370665 -0.627495 0)
(0.05824 -1.60371 3.7518e-17)
(-0.452629 -0.154351 0)
(-0.316948 0.234926 2.48379e-17)
(-0.606067 0.0768206 1.38295e-16)
(0.132011 -1.21161 1.44625e-16)
(-0.248872 0.0234214 3.52663e-16)
(-0.280032 -1.36381 -9.32402e-17)
(-0.115216 1.19661 -1.70792e-16)
(0.728435 0.242711 1.59233e-16)
(-0.834728 -0.103902 0)
(0.349621 1.60449 -5.82113e-17)
(-0.9513 0.158002 1.53484e-16)
(-0.145996 0.00104493 0)
(-0.383686 0.215061 -1.29058e-16)
(-0.719139 -0.239295 0)
(0.486798 -0.208505 -2.10694e-16)
(0.395974 -0.04401 0)
(-0.267773 -1.42637 -1.53522e-16)
(-0.70813 0.243997 3.99539e-18)
(0.866438 -0.840522 1.03147e-16)
(0.0830229 1.16128 6.07387e-16)
(-0.155379 0.324054 0)
(0.682003 0.704324 1.88203e-19)
(0.611591 -0.969777 1.68851e-16)
(0.019382 0.810398 -1.51487e-16)
(-0.584233 -0.0299802 3.40289e-17)
(0.495907 -0.23238 -1.27733e-16)
(-0.224512 -0.666465 1.50103e-16)
(0.270928 1.79641 3.13151e-17)
(-0.532254 0.274466 4.372e-18)
(-0.0718146 1.10016 -4.9588e-16)
(0.185434 -0.0833602 -1.53246e-16)
(0.573004 -0.737761 2.60926e-16)
(-0.0950551 -0.584922 2.68531e-16)
(-0.0158457 -0.850143 -8.47747e-17)
(0.803803 -0.858885 -7.01252e-17)
(-0.277278 0.115274 -6.58378e-17)
(0.265717 0.224721 3.55909e-16)
(-0.630118 -0.108788 1.57359e-16)
(-0.393035 -0.518888 9.81727e-17)
(0.0596157 -0.278961 0)
(-0.0164265 -0.326933 0)
(-0.142496 -0.350003 -1.60163e-16)
(-0.0131084 0.265443 2.54606e-16)
(0.0082945 1.42429 -2.44677e-17)
(-0.258853 -0.382893 -2.59973e-16)
(-0.0116757 -1.45362 5.82324e-18)
(0.621548 -1.56539 -6.17886e-17)
(-0.0889022 0.101585 5.22412e-16)
(0.468751 -0.215705 9.01953e-17)
(0.611611 -0.759152 3.64007e-17)
(1.54333 0.0673324 0)
(-0.795739 0.318135 1.36551e-16)
(0.415058 0.233685 0)
(0.38304 0.675035 0)
(0.00227129 -0.0988238 -3.57744e-18)
(0.639465 -0.682025 0)
(1.14924 0.0748276 0)
(-0.139774 -1.4161 0)
(0.00680236 -0.148501 0)
(-1.74461 0.321544 -4.56213e-16)
(0.14609 1.29015 -1.72049e-16)
(-0.138703 0.687674 -1.33796e-16)
(0.293446 0.443018 -3.58041e-18)
(-0.498544 0.0648665 -4.518e-16)
(0.247644 0.772019 -3.30097e-16)
(0.714335 -0.763846 2.71958e-16)
(0.0296947 -0.980309 -4.94738e-16)
(0.504277 -0.167794 3.1847e-16)
(0.081115 0.995209 6.14391e-17)
(0.0303036 0.0117624 0)