/*--------------------------------*- C++ -*----------------------------------*\
| =========                 |                                                 |
| \\      /  F ield         | OpenFOAM: The Open Source CFD Toolbox           |
|  \\    /   O peration     | Version:  v1912                                 |
|   \\  /    A nd           | Website:  www.openfoam.com                      |
|    \\/     M anipulation  |                                                 |
\*---------------------------------------------------------------------------*/
FoamFile
{
    version     2.0;
    format      ascii;
    class       volScalarField;
    location    "0.67";
    object      k;
}
// * * * * * * * * * * * * * * * * * * * * * * * * * * * * * * * * * * * * * //

dimensions      [0 2 -2 0 0 0 0];


internalField   nonuniform List<scalar> 
1431
(
0.0497024
0.473743
1.4689
0.939066
0.0531324
0.360609
0.346636
0.196796
1.96939
1.01224
0.247189
0.111379
0.101471
0.943649
1.17572
0.420291
1.35425
0.125319
0.2884
0.235139
0.0342151
1.41286
0.52098
1.03327
0.882868
0.234691
0.86914
0.863313
0.499712
0.104417
0.943333
0.313227
0.816816
0.212303
0.220072
0.926632
0.211084
0.313405
0.431219
0.306386
2.01276
0.199399
0.211638
0.224283
1.16709
0.0820491
0.854537
0.211173
0.440482
0.397987
0.0966918
0.848086
1.35898
0.31266
0.286674
0.203188
0.709809
1.07479
0.764627
0.0335956
1.00787
0.19175
1.01599
0.292258
0.594806
0.108089
1.36762
0.300808
0.837115
0.322763
0.171144
0.17643
0.279662
0.362437
0.200637
0.610578
0.0445143
1.36042
0.223997
1.29635
0.269435
0.0957265
0.230003
1.03907
1.26864
0.0603736
0.058264
0.236658
1.13562
0.223263
0.181251
0.410319
0.056667
0.312429
0.0885394
0.0499105
0.17846
0.265716
0.067772
0.643957
1.04121
0.222968
0.197346
0.0491659
0.395837
0.172819
0.240091
2.36062
1.29423
0.0454854
1.50457
0.108705
0.215093
0.198332
0.361569
0.0451359
0.150791
0.644643
1.25635
0.926066
0.292565
1.24437
0.847665
0.943366
0.29355
0.233068
1.40414
0.131083
0.0509488
0.486962
0.0842859
2.03725
0.738536
0.218956
0.0528084
0.637481
0.280659
0.120211
0.165087
2.10794
1.21343
0.0426404
0.289783
0.463758
0.540117
0.373585
0.267188
2.39243
0.267005
0.373722
0.5065
0.640884
0.298466
0.160449
0.1586
0.104893
0.283074
0.195102
0.207152
0.263118
0.111947
0.23327
0.146472
0.18949
0.0609831
1.86383
0.0552134
0.304349
0.0981972
0.231618
0.649944
0.330069
0.896715
0.385775
0.282669
0.0727038
0.0854913
0.49865
0.121708
0.220075
0.316463
0.862496
0.206611
0.229972
0.348341
0.398066
0.231153
0.755857
0.244544
0.299193
0.398423
1.55501
0.0461246
0.25415
2.21545
0.276309
0.234243
0.259657
0.180587
0.169761
0.13806
0.729771
0.329248
2.08085
0.246273
1.00674
0.0594769
0.305094
0.244858
0.474419
0.264218
0.21571
1.21833
0.299664
0.353046
0.529377
0.200424
0.216168
0.314178
0.304256
0.291792
1.16157
0.4306
1.75535
0.318485
0.532037
0.554143
0.231639
0.420701
0.995975
0.057673
0.567765
0.302425
0.201044
0.196791
0.204779
0.287317
0.067035
0.274437
0.311551
0.311152
0.292224
2.19619
1.40022
0.0991729
0.108823
0.309228
0.254781
0.254426
0.554977
0.270008
2.11637
1.06581
0.475843
1.00991
0.664921
0.0624567
0.280531
0.622785
0.646405
0.678217
0.128367
0.0723351
1.26747
0.198718
0.407409
0.575632
0.249224
0.404815
1.79867
0.238693
0.508771
0.26729
0.265525
0.694445
0.271808
0.200796
0.135133
0.113213
0.972479
1.77605
0.322012
0.243851
0.19179
0.603749
0.744991
0.0589937
0.191355
0.490237
0.29245
0.391527
0.33371
0.193841
0.203103
0.294735
0.214077
0.0430269
0.250371
0.337096
0.241314
0.322627
0.572873
0.157033
0.23341
0.172325
0.394485
0.281581
0.654372
0.633149
0.0852822
0.304522
0.337375
0.775526
0.0590719
0.124789
0.412395
0.97837
0.2895
0.197859
0.693415
0.399397
0.503783
1.08878
0.383381
2
0.846043
0.257349
0.95033
1.29189
0.293921
0.334174
0.101079
0.254631
0.325844
0.277833
2.37772
0.0888976
0.344111
0.0846003
0.10311
0.153443
0.263594
1.0597
0.437906
0.87106
0.0610947
0.323244
0.0811457
0.0527746
0.0940236
0.0835357
0.0431214
0.0723951
0.0808908
0.0601276
0.0811566
0.0498371
0.039981
0.107402
0.119707
0.0633101
0.0872599
0.0710868
0.0198004
0.069634
0.080258
0.0623603
0.12482
0.447654
0.582088
0.454391
0.239997
0.604955
0.34084
0.151463
0.774542
0.33466
0.327887
0.362147
0.124658
0.0367192
0.0804604
0.0811611
0.0605992
0.117863
0.0648066
0.130273
0.0432605
0.0930117
0.0337714
0.0866468
1.3077
0.47271
0.362254
0.738575
0.0907379
0.207068
0.315572
1.60715
0.279562
0.0883281
0.308214
0.307959
0.081103
0.319282
0.32391
0.256018
0.252349
0.0786692
0.407434
0.617841
0.190846
0.0975212
1.12808
0.497703
0.664298
0.399696
1.67222
0.191393
0.11811
0.338204
0.567292
1.68282
0.317157
0.446401
0.460793
0.431989
1.17991
1.73082
0.667154
1.78113
0.23445
0.178527
0.936508
0.309126
0.594397
0.737333
0.868584
0.338363
0.392388
0.368765
0.922256
0.766748
0.645789
0.109125
1.20575
1.56507
0.21763
0.13016
1.24893
1.11143
1.49438
1.42362
1.65156
0.661251
1.579
1.38315
1.2686
1.5322
0.282751
1.26083
0.397786
0.415861
0.347757
0.253888
0.222343
0.0740906
1.57286
0.314208
0.214574
1.41249
0.106068
0.227749
0.697334
0.276675
0.192129
1.2364
1.17937
1.63856
0.235383
0.494824
0.113504
0.716526
0.207196
0.32409
0.288959
0.358067
1.65514
1.02284
0.116397
0.103328
0.324725
0.166604
1.34684
0.273383
0.119583
1.01578
0.415116
0.325231
0.398911
0.450318
1.30565
1.12458
0.753254
0.672859
0.169748
0.169244
1.68215
0.567406
0.775921
0.65947
0.189045
0.227148
0.372555
0.315545
0.610653
1.491
1.1675
0.53335
0.220479
0.1673
0.266454
0.234277
0.08782
0.138935
0.859734
0.306623
0.79492
0.24797
0.61319
0.324602
0.239603
0.396001
0.236704
1.25672
0.736873
1.32562
0.590547
1.13498
0.888705
0.819678
1.23748
0.347643
0.41813
0.0453536
1.7999
0.844196
0.217297
1.49244
0.145734
0.394215
0.0475344
0.616513
0.956412
0.264841
0.311747
1.45536
0.383811
0.612803
0.1936
1.17412
0.474203
1.76974
1.49914
1.0453
0.201293
0.881702
0.202446
0.910246
0.686458
0.0828887
1.8097
0.997419
1.80276
1.28312
0.16808
0.662695
0.130649
0.544639
0.429024
0.120565
0.223303
0.289747
0.659947
0.198409
0.567905
0.324423
0.311829
0.0960437
0.401841
0.588988
1.03935
0.359632
0.292081
0.272627
0.535747
0.0638355
0.454133
0.205335
0.124317
0.324332
0.365518
0.147389
0.809722
1.05826
1.61873
0.251406
0.127291
1.88874
1.24382
0.908849
1.26988
0.201804
1.35965
1.09207
0.205799
1.18923
0.939846
1.42515
1.44584
0.128241
0.317326
0.121075
0.0937532
0.235538
0.304623
0.11282
0.0579479
1.03202
0.229881
1.93986
0.106592
0.119831
0.238346
0.400754
1.19947
0.128118
0.1991
0.521661
0.110176
0.764127
1.43191
0.247101
1.44225
0.17782
1.20073
0.704866
1.50873
0.85301
0.105339
0.111067
0.425104
0.259087
0.598459
1.56753
1.11291
0.256773
0.33216
0.536067
1.35456
0.758243
0.0606951
0.128486
0.14778
0.28272
0.0951107
0.359069
1.78991
1.38286
0.69505
0.0537261
0.264314
0.122572
0.810419
0.329705
0.322489
0.459383
0.340911
0.0921829
0.473124
0.928765
0.053356
0.171991
0.079551
0.167646
0.297503
0.43929
1.06675
0.448733
0.334118
1.23926
0.867556
0.893896
0.082158
0.954587
0.10814
0.0180196
0.0875145
0.272535
0.204225
0.97715
0.105852
0.188411
0.0961866
0.05093
0.640248
0.567008
1.6955
0.362716
2.16459
0.109623
0.0702933
0.145599
1.78673
1.47929
0.421457
0.425032
2.38184
0.210869
0.105839
0.413648
0.299188
0.218117
1.47363
0.107226
0.427623
1.60979
2.12548
0.481191
0.0630184
0.555176
0.109205
0.471754
0.474543
1.42441
0.190237
0.14998
0.137185
1.60685
0.13803
0.941573
2.2252
0.315443
0.187661
0.59245
0.404731
0.210584
0.447708
0.771921
0.131849
1.3406
0.19087
0.485163
0.515086
0.154889
0.0894459
0.350117
0.521837
0.421585
1.58645
0.409078
0.794954
0.732666
0.766043
0.30647
0.788647
0.121336
0.835795
0.614498
0.499194
0.134109
1.42842
0.0613534
0.131408
0.256454
0.571151
0.0658186
0.90191
0.707708
0.0979791
0.207319
0.0556889
0.532527
1.13622
0.308592
2.33248
0.0687487
0.142779
0.0962025
1.81395
0.187708
0.192335
0.905838
0.587689
0.362676
0.309646
0.0542909
0.122506
1.49225
0.229754
0.868086
1.09853
0.221089
0.106114
0.0247189
0.387853
0.886009
0.103432
0.96694
0.0451305
0.280636
0.23445
1.14212
0.05504
1.19174
0.537757
0.527492
0.51859
0.52825
0.503213
0.508796
0.5092
0.551203
0.345628
0.185795
0.384873
0.23175
1.26024
0.107396
0.0520205
0.0894157
0.0716031
0.140188
0.0593716
0.113773
0.577322
0.529101
0.619904
0.0799165
0.578961
0.194452
0.264445
0.263786
0.505864
1.46954
0.237132
0.167044
0.414189
0.421767
0.237085
0.3733
0.486736
0.31367
0.110724
0.82724
0.154845
0.753839
1.207
0.320633
0.345002
0.225101
0.169525
0.104509
0.133756
0.224301
0.0478598
0.215677
0.203729
0.0434311
0.125568
0.325926
0.834252
0.185363
0.562556
0.088686
0.245702
0.257831
0.248184
0.113735
0.248243
0.0711623
0.0910119
0.0986838
0.100457
0.29324
0.0506813
0.126685
1.3337
1.3502
0.293112
0.447391
1.41941
0.398014
0.26967
0.259911
1.33962
0.0785842
0.156811
0.129615
0.0962963
0.106888
0.110244
1.15772
0.837173
0.806929
0.768482
0.490358
0.144675
0.0804663
0.245588
0.147736
0.223005
1.85764
0.0798193
1.22036
0.580016
0.357832
0.357119
0.166623
0.0849467
0.320457
0.219573
0.1129
0.233138
0.211543
0.713493
0.0895609
0.530279
1.36321
0.536818
1.77059
0.190708
0.237535
0.33145
0.278568
0.306766
0.354063
0.24366
0.198479
0.284612
0.0336606
0.0774472
0.250563
0.14154
0.0497017
0.0775257
1.54503
0.0463706
0.0962587
0.0309162
1.84042
0.0254148
0.446189
0.906073
1.8826
0.120197
0.0829471
0.100407
0.970732
0.102858
1.07949
2.10125
0.206405
0.0955514
0.395764
0.0282527
0.0511325
0.740995
0.0292637
0.54862
1.7343
1.18241
0.417324
0.567449
1.07758
1.38528
0.23989
0.0300144
0.0390014
0.0740782
0.479979
0.405234
0.688936
1.07375
0.838953
0.611225
0.0355074
1.34442
0.0306956
0.576064
0.031823
0.252571
0.599929
0.496395
0.328068
0.134995
1.96883
0.660754
1.66054
0.0492848
0.549246
0.849555
0.456369
0.271419
0.269116
0.198445
0.394688
1.48972
0.350427
0.182233
1.70538
1.70707
0.228222
0.26514
0.789508
1.311
0.885997
1.02312
0.098609
1.90378
0.587461
0.739896
0.263387
1.0015
0.730103
0.152026
0.433458
0.124697
0.39746
2.17326
1.77384
1.58807
0.459244
1.39845
0.16903
1.15271
1.16054
0.316444
0.226308
0.1144
0.60774
0.0504063
0.0366464
0.126074
0.364187
0.231215
1.40841
1.99692
0.19004
1.06219
0.183703
0.46107
1.73352
0.678353
0.233727
0.23635
0.151925
0.400339
0.0668343
0.206429
0.41938
1.64721
0.349467
0.576202
0.214678
0.191051
0.321206
0.309258
0.327414
1.63366
0.113505
0.202155
0.476627
0.797192
0.244083
0.117145
0.0286129
0.774283
0.353088
0.355094
0.0265947
0.198766
0.108621
0.146164
0.249894
0.0291366
0.513843
0.816809
0.449392
1.52625
0.470584
0.385007
0.106611
0.20873
0.507716
0.027198
0.167433
0.334496
0.0570575
1.08744
1.22933
0.0295761
0.327582
0.842672
0.0560869
0.3754
0.666032
0.0495775
0.116125
0.637345
0.176002
1.52358
0.275135
0.691521
0.0668048
0.901295
0.580338
0.183453
0.43911
0.247388
0.149449
0.116211
0.366571
0.0272092
0.978387
0.028903
0.113634
0.560381
0.31484
0.281915
0.355928
0.177949
0.049525
2.13199
0.0832752
0.213593
0.408001
0.552133
0.119808
0.0630794
0.135551
0.101072
2.47619
1.34324
0.186048
0.207085
0.71927
0.0326109
0.945735
0.259449
1.35441
0.0433827
0.131
1.29998
0.177059
0.0820721
1.69916
0.791458
0.52032
0.287295
1.29812
0.0257745
0.0972604
0.149084
1.73271
1.07961
0.990969
0.0541556
0.132734
0.0313937
0.336462
0.362419
2.04529
0.87397
0.602866
0.36632
0.204613
0.135891
0.0742436
1.06144
0.866914
1.25638
0.193132
0.0463028
0.85372
0.63398
1.49553
1.62958
0.432595
0.0775524
0.193651
1.07911
0.544605
0.0282171
1.85683
2.20485
0.751389
1.39563
0.173547
0.300857
1.01645
0.775465
1.04064
0.110642
1.80543
0.677582
0.345975
0.0821997
1.9897
0.351685
0.359977
0.818427
1.53037
0.217557
0.116339
0.13079
1.63073
0.33222
0.256604
1.02747
0.110987
1.81539
0.431007
0.0282267
1.47693
0.197632
0.256964
0.272327
0.412168
0.3441
0.610868
1.35131
0.049418
0.91425
0.0253055
1.90588
0.783449
0.0511882
0.258614
0.141886
0.0986822
1.30624
0.792664
0.259395
0.262803
1.53693
0.0626792
0.114702
0.60877
0.270641
0.0600831
0.21482
0.201861
0.11183
1.64876
1.86298
0.993257
0.462282
2.08928
0.0996935
0.0826641
0.228502
1.39078
1.08764
0.395654
0.340814
0.471409
1.20742
0.156789
1.92659
0.538189
0.119362
0.115593
0.264931
0.266803
0.226129
0.391732
0.25304
0.566571
0.681633
0.375915
0.432217
0.230426
0.388322
0.365848
1.28315
1.9958
2.44574
1.38337
0.120546
1.42023
0.72349
1.11562
0.104638
0.0527148
0.350865
0.126772
1.31359
0.0907229
0.0602976
2.27882
0.228913
1.11165
1.81955
1.73551
1.45298
1.63706
0.328318
0.377418
1.79784
0.333693
0.42061
0.047154
0.658827
0.434619
0.0349436
0.528852
1.84356
0.147861
0.114849
0.0437758
0.0310043
0.194368
1.76877
0.175048
1.21405
0.778088
0.355797
1.46772
0.19339
0.212616
0.405855
0.0562595
0.235474
0.213084
0.0968852
1.18081
0.231437
0.45899
0.0533981
0.240338
0.383181
0.111528
0.995491
0.0262694
0.130278
0.193589
0.212563
0.0496632
0.0946256
0.106065
0.522161
0.316816
0.396059
0.133874
0.224196
0.140807
0.536943
0.247284
0.567014
0.120876
0.227616
0.244628
0.248928
1.31556
0.485191
0.234994
0.204972
0.116414
0.394978
0.626338
0.116096
0.225354
0.103757
0.433666
0.186668
0.769501
0.0913577
0.243868
1.67302
0.288512
0.913306
0.243811
2.26831
0.234774
0.7117
1.19268
0.336532
0.372883
0.0462179
0.338722
0.199957
0.882662
0.435975
2.15436
0.0800825
0.766867
0.0861287
0.0360466
0.307458
0.0791827
0.342475
0.275935
0.914972
0.645173
0.875445
0.635514
0.587447
0.648708
0.206334
0.210971
1.28448
2.21815
1.62174
0.31294
0.29714
2.21938
1.63777
2.48758
1.35502
0.754557
0.460864
0.206564
0.739619
0.384899
0.16243
0.657708
1.45642
0.142586
0.423406
0.570671
)
;

boundaryField
{
    frontAndBack
    {
        type            empty;
    }
    wallOuter
    {
        type            kqRWallFunction;
        value           nonuniform List<scalar> 
90
(
0.420291
0.421457
0.413648
0.427623
0.481191
0.471754
0.474543
0.59245
0.404731
0.485163
0.515086
0.614498
0.499194
0.571151
0.532527
0.905838
0.537757
0.527492
0.51859
0.52825
0.503213
0.508796
0.5092
0.551203
0.505864
0.806929
0.768482
0.530279
0.536818
0.33145
0.278568
0.306766
0.354063
0.24366
0.198479
0.14154
0.0309162
0.0254148
0.446189
0.0829471
0.0282527
0.0511325
0.740995
0.0292637
0.0300144
0.0390014
0.0306956
0.576064
0.031823
0.660754
0.789508
0.39746
0.46107
0.576202
0.476627
0.0265947
0.0291366
0.513843
0.816809
0.385007
0.507716
0.027198
0.0295761
0.842672
0.637345
0.691521
0.901295
0.0272092
0.978387
0.028903
0.52032
0.0257745
0.990969
0.0313937
0.87397
0.866914
0.432595
0.544605
0.0282171
0.751389
0.431007
0.91425
0.0253055
0.462282
0.375915
0.0310043
0.995491
0.0262694
0.522161
0.394978
)
;
    }
    inlet
    {
        type            fixedValue;
        value           uniform 0.375;
    }
    outlet
    {
        type            zeroGradient;
    }
    wallInner
    {
        type            kqRWallFunction;
        value           nonuniform List<scalar> 
138
(
0.111379
0.2884
0.816816
0.212303
0.220072
0.199399
1.36762
0.300808
0.171144
0.17643
0.610578
0.738536
0.160449
0.1586
0.0727038
0.0854913
0.180587
0.169761
0.13806
0.729771
1.75535
0.664921
0.0624567
0.622785
0.646405
0.678217
0.575632
0.694445
0.603749
0.654372
0.633149
0.153443
0.0610947
0.0811457
0.0527746
0.0940236
0.0835357
0.0431214
0.0723951
0.0808908
0.0601276
0.0811566
0.0498371
0.039981
0.107402
0.119707
0.0633101
0.0872599
0.0710868
0.0198004
0.069634
0.080258
0.0623603
0.12482
0.124658
0.0367192
0.0804604
0.0811611
0.0605992
0.117863
0.0648066
0.130273
0.0432605
0.0930117
0.0337714
0.0866468
0.0883281
0.190846
0.664298
0.178527
0.922256
0.109125
0.13016
0.397786
0.697334
0.235383
0.716526
0.116397
0.103328
0.324725
0.273383
1.01578
1.30565
0.775921
0.65947
1.1675
0.0453536
0.0475344
0.616513
0.612803
0.0828887
0.124317
0.119831
0.0951107
0.053356
0.0180196
0.0875145
0.0630184
0.109205
0.315443
0.409078
0.121336
0.256454
0.0556889
0.587689
0.0247189
0.0894157
0.619904
0.0799165
0.110724
0.245588
0.713493
0.0336606
0.0774472
0.0775257
0.567449
0.611225
0.0355074
0.549246
0.849555
0.0668343
0.0286129
0.774283
0.0560869
0.177949
0.0832752
0.71927
0.0326109
0.135891
0.0742436
0.0282267
0.29714
0.739619
0.384899
0.16243
1.45642
0.142586
0.570671
)
;
    }
    procBoundary0to1
    {
        type            processor;
        value           nonuniform List<scalar> 
29
(
0.307702
0.444216
0.365994
0.365994
1.60383
1.60383
2.05324
0.27139
1.26514
0.478227
0.367924
1.09569
0.246349
0.253335
1.38985
0.650187
2.27353
2.12419
0.48183
0.479079
0.343007
0.227244
1.4249
0.294826
0.293062
2.12419
0.25993
0.831412
0.294826
)
;
    }
    procBoundary0to2
    {
        type            processor;
        value           nonuniform List<scalar> 
42
(
1.12732
1.42402
0.0671361
0.054735
0.354985
1.12732
0.0671361
0.0790245
0.216052
0.0766608
0.563978
0.814258
0.563978
0.952249
1.16234
0.88165
1.16234
0.0718135
0.112404
0.38402
0.38402
0.0718135
0.0697786
0.287947
0.287947
0.074739
0.340306
0.0687435
0.626353
1.54373
1.54373
0.0630258
0.0570935
0.0524806
0.0526948
0.0671361
1.44181
0.0265676
0.626353
0.0790245
0.0685893
0.0593067
)
;
    }
}


// ************************************************************************* //
