/*--------------------------------*- C++ -*----------------------------------*\
| =========                 |                                                 |
| \\      /  F ield         | OpenFOAM: The Open Source CFD Toolbox           |
|  \\    /   O peration     | Version:  v1912                                 |
|   \\  /    A nd           | Website:  www.openfoam.com                      |
|    \\/     M anipulation  |                                                 |
\*---------------------------------------------------------------------------*/
FoamFile
{
    version     2.0;
    format      ascii;
    class       volScalarField;
    location    "0.24";
    object      k;
}
// * * * * * * * * * * * * * * * * * * * * * * * * * * * * * * * * * * * * * //

dimensions      [0 2 -2 0 0 0 0];


internalField   nonuniform List<scalar> 
5794
(
0.906039
0.0721542
0.346732
0.0792574
0.576454
0.134188
0.890967
1.33213
2.46311
0.52232
0.997483
0.0997597
0.262073
0.218055
0.344695
0.0635304
2.83521
0.324583
0.236075
0.0925904
1.10548
0.367916
0.501728
0.138869
1.03441
2.26245
2.34659
0.528628
1.93834
0.18866
0.106138
0.352828
0.391874
0.122051
1.34093
1.56461
0.196865
0.116474
0.155569
0.572451
0.240981
0.553689
0.282739
0.385635
0.381514
1.05057
0.312772
0.602133
0.26907
0.536409
0.0595576
1.69949
0.479249
0.289075
0.0113338
0.883353
0.432195
0.739872
0.2129
3.73775
0.909213
0.103292
0.220238
0.638175
0.74522
0.0767383
0.533011
0.25728
0.223597
0.167072
2.21822
0.585754
2.16666
0.450806
0.262746
0.784281
0.0513136
1.72246
0.42164
0.0178503
0.330232
0.119262
0.168566
0.366764
0.109591
0.537794
0.226463
0.567075
0.232686
0.422741
1.30762
0.29057
0.949656
1.03807
1.03566
2.62421
0.947213
1.04882
0.247574
0.987815
0.927351
0.159609
0.246982
0.22413
0.245647
0.639098
0.0984812
0.324087
1.72225
0.460129
0.0926711
0.41335
0.974049
0.0555913
0.59594
0.839063
0.173615
0.137151
0.837611
0.499619
0.499476
0.22629
0.0637232
0.619126
0.706242
1.40815
0.180001
0.112635
1.831
0.808433
0.126671
0.300286
0.260081
1.52674
1.46221
0.442894
1.94245
0.102324
0.0613115
0.0853028
0.276231
0.541185
0.777673
0.460509
0.0993696
3.3839
0.0778368
0.806489
0.342443
0.618654
0.325809
0.311975
1.01415
0.0622864
2.96848
0.221656
0.156676
0.16163
1.39177
0.108347
0.298828
0.569719
0.088263
0.86025
1.07051
1.2821
0.654192
0.227908
0.0637531
0.346365
0.166513
0.663962
0.387256
0.508165
0.0987455
0.525778
0.164815
1.05337
0.090797
1.94074
0.0913761
0.428149
0.0738784
0.241209
0.194387
1.68516
0.191871
0.255179
0.320656
0.12744
1.00069
0.35285
0.344274
0.0805933
0.207736
0.112938
1.23052
0.0404031
0.221494
0.28002
0.726863
1.66453
0.510001
0.398717
0.269306
1.11281
0.0642066
0.637056
0.337561
1.7924
0.604827
0.316871
1.49692
0.634332
0.118614
1.02232
0.76404
0.215365
1.25157
1.55388
0.309248
0.378816
1.61539
1.01674
1.83467
0.838095
0.0861364
0.836741
0.241935
0.281036
0.703769
1.0192
0.0923549
1.76044
0.130722
0.650835
0.536783
0.813337
0.111834
0.411598
0.128639
1.30225
1.476
0.0847175
0.0984728
0.120354
0.486452
0.230391
0.711384
0.547786
0.210436
0.0603819
3.08912
0.0557794
0.210402
0.666537
0.263101
0.391118
0.354033
0.54564
1.36188
1.37518
0.492943
0.0362615
0.50859
0.0920286
0.392231
1.70579
0.354096
1.23566
0.314312
0.430275
0.66319
2.14431
0.401096
0.215585
0.285683
0.252421
0.110347
0.229578
0.0594171
0.947797
0.331644
0.515448
0.639582
1.61602
0.499823
0.902152
1.09783
1.43223
1.24412
1.12697
0.116941
0.478734
0.203846
1.89174
0.505035
0.255547
0.695583
0.0396123
0.10822
0.79265
0.227604
1.90688
0.424589
1.61654
0.089743
0.179452
1.29378
0.24738
0.305259
0.710857
2.02368
0.0495672
0.292238
0.589954
0.537014
0.469775
1.37559
2.40462
1.26942
1.02654
0.10434
0.383545
0.0650726
0.182572
0.635254
0.104674
0.214039
0.936526
1.7573
0.285576
0.0486933
0.336477
0.273783
0.408181
0.331721
0.07202
0.247272
0.177909
0.110697
0.923023
2.18506
0.369828
0.169664
0.0707439
0.200612
0.528877
1.48232
0.125586
0.194486
1.41737
0.2844
0.37748
0.0784735
1.14856
0.200317
1.57986
0.824079
1.28154
0.592393
0.1324
1.71184
1.05695
1.18458
0.214321
1.12882
0.937114
0.305864
0.68142
0.252588
0.0411664
0.246165
0.166929
1.09139
1.16385
0.715817
0.387546
0.886634
0.036293
0.288399
0.240221
0.322526
1.61685
1.17716
0.118659
1.57364
1.57304
0.720101
0.598737
0.194333
0.972542
0.150496
0.0984842
0.348112
0.472607
0.0898325
0.366446
0.356938
0.781998
0.115074
1.12728
1.13277
0.0830039
0.348352
1.06448
0.458912
0.167097
0.107071
0.942902
1.35996
0.248539
1.35947
0.554439
1.20241
0.248987
0.368549
0.193755
0.924866
0.867869
0.23672
1.12523
0.830295
0.254638
0.62551
0.752937
0.105531
0.0622417
0.0771616
0.529097
2.06691
0.223959
0.397168
1.4109
0.3082
0.191061
0.0916664
0.316893
0.987661
0.743287
0.116031
0.269418
0.243864
0.110238
0.265912
0.907622
0.740092
0.0339269
0.290563
1.9229
0.354386
0.0868454
1.559
0.472009
1.03816
0.0324579
0.98311
2.96644
1.05401
1.32619
0.406501
0.0925541
0.470709
0.150502
1.07623
0.83065
0.862559
0.728507
1.13057
0.512721
0.0207511
0.452052
1.65
0.303027
0.565162
1.35587
1.16589
0.409727
0.492428
0.0953552
0.552072
0.444713
0.341775
0.268532
0.66363
1.26521
0.316506
0.286644
1.32691
0.404028
0.10013
0.0826339
0.0960719
0.244318
0.603116
0.100112
0.214717
0.224462
0.0354723
0.948255
0.523969
0.888364
0.263086
0.177629
0.345953
0.0934803
0.274832
0.559117
1.52065
0.0656856
2.5176
0.0740217
0.31445
0.0307115
0.0417642
0.383292
0.847477
0.0298329
0.224079
1.09284
0.224414
0.08546
0.644629
1.44556
0.920253
0.112652
0.566895
0.764733
0.0892437
0.308736
0.565611
0.0300996
0.825452
0.197868
0.232355
0.734324
0.240046
2.16615
0.789459
1.10167
0.449719
1.66468
0.0818454
0.193336
0.605703
0.0680449
0.216677
0.497232
0.0463464
0.122001
0.219853
0.0651404
0.190972
0.521533
0.105285
0.70171
0.504901
0.264156
0.0934285
0.348185
4.08368
0.152565
1.41847
0.38547
0.170348
0.408539
0.0728746
0.574635
0.115477
0.0504127
1.17956
1.29734
0.61088
0.933108
1.16012
0.297161
0.698629
0.562471
0.360351
0.335733
1.15185
0.366084
1.66716
0.732584
1.75329
0.833079
0.0676225
0.997151
0.314093
1.08796
0.0604583
0.090473
0.101552
1.30915
0.433214
0.951542
0.0269877
0.293548
0.043419
0.451709
0.189456
1.30592
0.561556
1.23864
0.0352629
0.483912
2.54266
0.320112
0.0150766
0.382508
0.688364
0.82805
0.207564
0.437094
0.0894199
0.186864
0.857958
0.635293
0.269773
0.0559926
0.0860782
1.25463
1.65014
0.55201
0.0960795
0.109097
0.261493
0.70975
1.28136
0.0598327
0.66312
0.0906811
0.056579
0.223576
0.0893397
0.329943
1.96775
0.486912
0.221308
0.53707
0.364353
0.273979
1.27998
0.341753
1.91173
1.54198
0.62418
0.751467
0.0975849
0.0791273
0.0992014
0.547078
0.189836
0.135833
0.114587
1.6
1.3457
0.0635715
0.891122
0.403219
0.0500184
0.3514
0.466842
0.689773
0.0967186
0.829776
1.20385
1.64401
0.522355
0.686096
0.831121
0.392327
1.08242
0.552268
0.278717
0.723988
1.19494
0.685018
0.231955
0.46205
0.105863
0.625607
0.261117
0.0477451
0.270347
1.98354
1.87322
0.203203
0.145251
0.0308465
0.270053
1.60352
1.8569
1.2446
0.483352
0.726959
0.840139
0.0916028
0.115817
0.289674
0.204412
0.0799689
0.0321612
0.407104
0.437072
2.21508
0.245333
0.299526
0.164931
1.6698
0.467458
1.43611
1.05966
1.57697
1.515
0.373542
0.266259
1.90058
1.23896
0.984834
1.2073
2.1451
2.20733
0.16182
0.573308
0.423981
0.333555
0.506174
1.6525
0.633286
1.25863
1.12989
1.2308
0.824874
0.488713
0.296172
1.70328
0.823193
0.276373
0.967247
1.15331
0.0862747
0.129694
0.242052
0.30028
1.44743
0.525357
1.48933
0.536271
0.283061
0.10399
0.505604
0.205286
0.031219
0.51956
1.1415
0.208401
1.1049
1.11394
0.246053
0.446781
0.806225
1.14223
0.766457
1.30163
1.6557
0.554833
0.829447
0.439059
1.06216
0.295638
1.01682
0.675851
0.160502
0.319374
0.110815
0.116188
0.559013
0.314703
0.137503
1.26643
1.56626
0.472244
0.317483
0.089449
1.20507
0.447728
0.927184
1.26471
0.4002
0.0546814
1.21973
0.492686
1.05688
0.170793
0.517832
0.0875297
2.2194
0.477715
1.87354
0.308722
0.583371
0.355961
0.0418657
0.106417
0.423723
1.29333
0.892004
1.63938
1.68218
1.19834
0.261123
0.634714
0.588251
2.89054
0.0891655
0.137057
0.441028
1.49427
0.103401
0.199261
0.524771
0.778674
1.00409
0.0524425
0.385419
0.334885
0.312275
0.419044
0.328665
1.00481
1.03927
0.282573
0.186744
0.152035
0.322285
0.47336
2.43095
0.319411
0.0852601
0.144068
0.111304
1.05915
0.172081
0.502737
0.0390766
0.277577
0.212611
0.316465
0.923671
0.627345
1.27745
0.822834
0.633214
1.64985
1.12742
1.07165
1.232
0.039719
0.100694
0.209469
0.2839
0.564953
0.233873
1.37282
1.03634
2.36703
0.906264
0.156766
0.460812
0.0949791
0.348302
1.2952
0.156955
3.66613
0.284444
0.217541
1.47625
0.360863
0.233511
0.0674769
0.165138
0.691386
0.259779
0.0845351
0.206512
0.803509
1.7703
0.496542
0.299183
1.01701
0.541888
0.757866
1.24838
2.20818
1.76605
0.510428
0.3828
0.098779
0.67041
0.0521654
0.0569468
0.0956254
0.194482
0.761083
0.0972163
0.254119
0.0590657
0.416264
1.92377
0.337532
0.280955
0.511435
1.21207
1.18964
0.345304
0.815749
0.234219
0.0595732
1.161
0.36331
1.14705
0.271348
1.03633
0.333011
0.768476
0.100871
0.688137
0.537639
0.364358
0.305696
0.274994
0.156604
0.0920936
0.74472
0.380836
0.192047
0.816524
0.232585
1.2282
0.526547
0.298228
0.104647
0.18054
0.293766
0.0472125
0.544688
1.3284
1.9387
0.246208
0.138159
1.22815
0.0899661
0.517117
0.786842
0.822407
0.305094
0.363947
0.47817
0.983168
0.471287
0.737588
0.104354
0.134962
0.0418228
0.0841194
0.0889182
0.241451
0.0394754
0.0552062
0.108073
0.130092
0.264189
0.371103
0.215633
0.146584
0.0562958
1.07478
0.299664
0.646961
0.131818
0.647334
0.0644989
0.735211
0.201272
0.621109
0.112381
0.773722
1.6069
0.123576
0.304257
0.339006
0.0386476
0.291789
1.32449
0.430309
0.774122
2.37132
0.0351776
0.318483
0.53668
0.622238
0.48641
0.751002
1.37714
1.01511
0.106597
0.571077
0.0598932
0.0687709
0.402287
0.393242
1.46279
0.718935
1.0132
0.0334879
0.490558
1.10177
0.381755
0.384134
0.842266
0.101617
0.456253
0.0848241
0.674467
0.302186
0.370311
0.201488
0.492128
0.196794
0.204706
0.28627
0.21124
0.0891667
0.690653
0.470346
0.711079
0.779287
0.118943
0.27443
0.974731
0.0381736
0.333022
0.129831
0.398139
0.63402
0.0385311
0.935528
0.0861771
0.31124
0.841927
0.16113
0.736735
0.268805
0.0693143
0.544871
0.592163
0.0335066
2.76727
0.661945
0.223414
0.089268
0.567615
0.0365745
0.070807
0.309225
0.133249
0.0380583
0.108637
0.936674
0.708665
1.03365
0.509002
0.258382
1.35871
0.482666
0.0403049
0.112621
0.629325
0.566861
0.24781
0.313928
0.0423758
0.630677
0.0288312
0.490077
0.179479
1.656
0.23568
0.671864
1.89182
0.042424
0.674686
0.199415
0.0338438
0.365437
0.172418
0.63106
0.655378
0.0348292
0.68852
0.0372048
0.0416339
0.492356
0.0903121
0.286766
0.381777
0.286668
1.49949
0.230438
1.10686
0.106143
0.197443
0.0883273
0.198715
0.390801
0.394236
0.2534
0.582505
0.257445
0.513767
0.825185
0.206735
0.0745626
0.464933
0.45004
0.221532
0.315719
0.245965
2.71128
1.28036
1.44814
0.448458
2.78172
0.2595
0.260072
0.628859
0.128992
0.269052
0.0353072
8.56517
0.70542
0.0348401
0.297663
1.73788
1.70503
0.275883
0.107041
0.522268
0.797588
0.854795
0.0810531
0.646538
0.667665
0.239108
0.458412
0.496963
0.144303
0.043082
0.417627
0.494912
0.518598
0.610735
0.0854616
0.818629
0.474903
0.770412
0.426494
0.0630418
0.190777
0.455809
0.292448
0.391491
0.33659
0.191617
0.21414
0.410197
0.585505
0.27772
0.218294
0.0959561
0.399678
0.612176
0.159187
0.62837
1.40101
0.903824
0.266746
0.362819
0.243998
0.229237
0.0521607
0.467753
0.322682
0.495291
0.0333146
0.289584
0.0725555
3.92734
0.0344894
0.0466831
0.291098
0.19308
0.0983918
0.835088
0.384271
0.221035
0.100826
0.45227
0.445309
1.32956
0.54083
0.190093
0.119746
0.16229
0.301654
1.6945
1.22672
0.346331
0.281578
0.0405794
0.324395
0.331592
0.801159
1.1565
0.0518474
0.271105
0.663699
0.299142
0.0385403
0.666602
0.538361
0.641702
1.05715
0.752052
0.366521
0.0589765
0.245329
0.736255
0.15937
0.879272
0.0943119
0.068331
1.00012
0.304522
0.096728
0.0306982
0.337359
1.72836
0.0709978
0.0288154
0.528609
0.151507
0.0962207
0.253111
0.347538
0.6556
0.0377268
0.364053
0.163291
1.75406
0.564401
0.477247
0.842875
0.197985
0.11322
0.142364
0.355213
1.36935
0.45969
1.06587
0.34716
0.680498
1.37046
1.05095
0.350674
0.554006
0.0944902
0.526181
0.0402385
0.300538
0.226636
0.35838
0.390982
0.403522
0.178669
0.32388
0.74257
0.0427664
0.0796885
0.257328
0.340863
0.0278637
0.339122
1.12334
0.293919
1.5577
1.31501
0.15556
0.0977262
2.22648
0.125612
1.02924
0.833588
0.337741
0.114935
0.104674
0.440851
0.0773396
0.475938
0.0571839
0.406531
0.0449929
0.108689
0.19089
1.05872
0.365115
0.676038
0.908964
0.499106
0.277807
0.0296314
0.207836
0.530749
0.586861
0.131631
0.251746
0.0619137
0.6202
0.888197
0.294647
1.19066
0.85235
0.56085
0.452272
0.439148
0.0395177
0.230195
1.11878
0.215004
2.16296
0.0723956
0.0409731
0.187443
0.526811
0.0554141
0.242553
0.551009
0.12817
0.274751
0.278856
0.354866
0.0879078
0.263582
0.277888
1.04378
1.14771
0.0415113
0.730788
1.29059
0.299581
0.437041
0.187543
1.37094
0.0568616
0.0785638
0.0530077
0.256659
5.41793
0.323241
1.53847
0.319769
0.839122
2.08273
0.565901
0.260874
0.0292485
0.0471761
0.0346425
0.0221221
0.189919
0.267553
0.0338491
0.430473
0.0248649
0.045218
0.226122
0.372785
0.0264372
0.06869
0.0221615
0.134691
0.311701
0.0637846
0.306981
0.255443
0.0453454
0.0771664
0.0181155
0.0630834
0.28736
0.22725
0.226631
0.0268157
0.0522219
0.396091
0.210688
0.0577535
0.0299135
0.0422011
0.0331309
0.028277
0.2234
0.0482244
0.0204721
0.174805
0.0275124
0.19245
0.297638
0.138204
0.345838
0.660567
0.0353351
0.445988
0.750789
1.44631
0.332773
0.145072
0.0353592
0.373226
0.196984
1.09871
0.118396
3.73991
0.573754
1.56863
1.25626
0.0438746
0.042478
0.0382981
0.282398
0.133663
0.269937
0.0490123
0.328406
0.355958
0.525215
1.0171
0.292168
0.335592
1.00885
0.686358
4.65942
0.219636
0.885924
1.17003
0.314885
0.317527
0.459708
1.44597
0.161728
0.888847
0.195429
0.674623
0.407343
0.11042
0.327888
0.362149
8.04228
0.165302
0.28108
0.0676905
0.375477
0.35547
0.137181
1.69154
0.359113
0.0476975
0.0236871
0.302098
0.193642
0.0374433
0.371554
0.0227969
0.0443464
0.121437
0.0191079
0.326383
0.198334
0.0227201
0.308406
0.205839
0.34612
0.241449
0.0745042
0.0562215
0.0340339
0.0290597
0.292205
0.0447115
1.04499
2.42695
0.0519424
0.421038
0.215418
0.362255
0.154388
0.0327103
1.37991
0.31858
0.354224
1.13045
0.283719
0.359873
0.022595
0.271487
0.887228
0.344707
1.02496
1.37502
0.38504
0.0306782
0.459529
0.579771
0.160039
0.433473
0.347678
1.28506
0.175872
0.421205
0.0530675
0.275938
0.126573
0.275027
0.397765
0.0781078
2.05188
0.0292868
1.84785
0.114764
0.0439813
0.0369506
0.138277
0.0478618
0.0598168
0.442339
0.120819
2.003
0.315574
0.0846312
0.323932
0.277447
0.329295
0.91785
0.0433346
0.279436
0.301317
0.181111
1.08307
0.25438
0.0721103
0.970778
0.610136
0.501482
0.307961
0.133835
0.0378288
0.243205
0.735545
0.0467551
0.24947
0.0815821
0.0166324
0.259572
1.77046
1.70063
0.345883
0.270736
1.25087
0.0375778
0.505317
0.519048
0.172662
0.501514
0.467973
0.119998
0.891315
0.0351285
0.525721
0.299113
0.348903
0.252003
0.12433
0.393232
0.314486
0.0702086
0.110622
0.0841833
0.18853
1.02951
0.179573
0.485951
1.66982
1.0222
0.61732
0.471476
0.445304
0.785415
0.749623
0.557946
0.394557
0.331937
0.805314
0.456977
0.909776
2.22507
1.32638
0.769494
1.65533
0.754376
0.434292
0.357281
0.153954
1.48461
0.845626
0.594094
0.984553
0.901274
1.33764
1.0411
1.09694
1.64536
0.448375
0.49559
0.266564
0.0740883
0.09396
0.416972
0.938982
0.0833763
0.0534865
0.426989
0.456927
0.729275
0.753465
0.729914
0.463484
0.838231
1.00178
0.120805
0.3372
0.25591
0.958399
0.929664
0.332131
0.806537
0.204942
0.23569
0.220395
0.376949
0.383919
0.144253
1.14915
0.3749
0.122728
0.120415
0.336144
0.0229248
0.138338
1.23105
1.11891
0.390385
0.140681
0.190043
0.732293
1.11461
1.19815
0.79643
0.127356
0.264946
0.128411
0.297473
0.347526
0.265996
1.33614
0.390755
0.439303
0.316272
0.253553
0.0531454
1.19415
0.0887022
0.439445
0.278757
0.0273771
0.526718
0.223585
0.130348
0.235489
0.119371
0.17554
1.2534
0.276667
0.204645
0.354237
0.0868585
1.08799
3.92246
0.193479
1.3915
0.627671
0.280061
3.54606
0.103636
0.534731
3.24268
0.766476
1.5139
0.227849
0.124097
1.82756
3.65476
1.40148
0.456978
0.365961
0.562526
0.533328
0.19203
2.46821
0.238878
0.0910285
1.0237
0.234957
0.425722
0.0942185
0.11594
1.02386
0.996842
1.23719
2.32007
3.11682
0.584258
3.44627
0.223293
1.04515
1.12771
0.102279
1.81291
0.282669
2.21611
1.43412
1.04551
0.105402
2.63247
2.1359
0.683989
1.31447
2.41036
0.291856
1.33588
1.19309
0.73778
0.436816
1.46457
0.842831
1.84305
1.16671
1.05543
0.28061
1.04332
0.290324
0.778503
0.555621
0.125046
0.0910566
1.78911
0.096741
0.445576
0.0508105
1.587
0.38058
0.349924
0.273381
0.272205
0.555036
0.211743
0.348534
0.161639
0.402212
0.117442
0.267288
0.382016
0.121023
1.19542
1.04728
0.6833
0.159384
0.581612
0.573733
0.463956
0.526272
0.339756
0.422776
0.46062
0.365135
0.0389469
0.455515
0.942497
1.506
0.4534
0.241226
0.127584
0.401178
0.299191
0.551778
0.577658
0.389533
0.443439
0.406384
0.748289
0.5616
0.19736
1.21215
0.349947
0.174057
0.423655
0.185665
0.553128
0.338708
0.928306
0.236985
0.374085
0.356865
0.411021
0.410874
0.494313
0.239255
0.0910414
0.342296
0.352727
0.384445
0.214293
0.225195
0.206837
0.337746
0.272748
0.331989
0.299321
0.471162
0.372635
0.268904
0.0964859
0.303017
0.0618102
0.479841
0.107056
0.0418891
0.908919
0.474342
1.31765
0.39494
0.103842
0.362544
0.387191
0.306929
1.68033
2.18704
1.66069
0.989769
0.25962
0.154065
0.999829
0.168977
0.808829
0.0574947
0.324379
0.0496382
1.3508
0.558684
0.168831
0.857612
0.573785
0.495325
0.513458
0.125161
0.072532
1.69846
1.56052
1.10187
0.949291
0.644863
0.541398
0.110958
0.0873275
1.26968
0.929049
0.522522
1.65686
1.63391
1.34429
1.08055
0.864048
1.43176
0.308322
0.131575
0.723781
1.10031
0.855096
0.664921
0.124579
0.833993
0.227527
0.821929
0.852913
0.401429
0.123625
0.0776826
0.0667218
0.816034
1.14578
1.69576
1.60287
0.0580472
1.39315
1.10303
0.502303
0.215436
0.429435
0.148832
1.20423
0.902363
0.469238
0.834296
0.1286
0.291721
0.781332
0.0754115
1.23407
1.05006
0.389362
0.895638
1.56674
1.18745
1.27505
0.443962
0.337072
0.820516
1.21793
1.12102
0.729955
0.146902
0.778306
1.27867
0.902736
0.505968
0.796056
0.408632
0.0911092
0.0804635
1.28605
0.776472
0.223067
1.70406
2.51703
2.70162
2.57706
1.26024
1.22187
0.308993
0.469855
0.0459509
1.17233
0.458974
0.935152
1.44232
0.207922
0.292857
2.46754
0.156966
0.227412
0.86008
0.768543
0.587009
0.289592
0.23446
1.98746
0.767392
0.139304
0.804561
0.354326
0.379543
0.239444
0.609462
0.478754
0.163612
0.40306
0.431615
0.927641
0.414417
0.0597866
0.0698869
0.0888561
0.153313
0.410296
0.144925
2.23164
2.28845
0.713612
0.118502
2.86868
1.02662
1.15349
0.218812
0.0384454
1.35513
0.409537
0.124206
0.319852
2.53606
1.41642
0.548184
0.596463
2.5758
0.821257
0.54836
0.120889
0.366915
0.110918
0.325232
0.3958
0.399892
0.492472
0.43229
0.952969
1.10639
0.589867
0.244019
0.755581
1.15864
0.749829
1.41637
1.06308
0.840901
0.49714
1.35539
0.317425
0.158485
0.868385
0.790821
1.11717
1.31871
1.35508
0.755752
0.509679
0.267044
0.250378
0.627949
0.517915
0.40739
0.056574
0.0722571
0.251143
0.262022
0.233086
1.86246
0.715087
0.54248
0.300456
0.367692
0.361938
0.46248
0.242969
0.140057
0.144584
0.120428
0.123395
0.598319
0.233133
1.15034
0.918078
0.315536
0.0591827
1.53064
0.466909
0.465292
0.233563
1.7114
2.77904
0.952007
1.05095
0.171403
0.667228
0.323762
0.561989
0.0331631
0.0406282
0.693264
0.608623
1.28597
0.621986
0.0908996
0.0917766
1.4638
0.578901
0.291135
1.97795
0.152103
0.196162
0.424586
0.416148
0.451366
0.913085
1.649
0.992411
0.247418
0.399207
1.33333
0.835854
0.416995
0.243818
0.606001
0.379769
0.931778
0.577413
0.0449614
0.293563
0.227281
0.0465929
0.526726
0.39008
0.609013
0.290963
0.358039
0.239498
0.431586
0.292946
0.49959
0.446443
0.367852
0.277359
0.126563
0.559868
0.466077
0.512083
0.492259
1.20864
0.98947
0.855739
1.44833
0.27337
2.31492
0.846857
2.31952
0.130657
0.117575
0.497695
0.695997
0.194822
0.033778
1.6772
0.342247
0.340201
0.544794
0.742069
0.838675
0.217271
1.24911
0.719413
0.167719
0.199665
0.356476
0.276897
0.4223
0.0471749
0.070774
0.352268
0.215162
0.80649
0.581952
0.0501266
1.98487
0.914854
1.74368
2.51439
0.487569
0.258554
0.353441
0.185177
0.624027
0.27185
0.351357
1.13926
1.19781
0.202229
0.890166
0.672865
1.06834
1.69582
0.381449
1.00417
0.176232
0.324059
0.637385
0.132482
0.387934
0.165204
0.625934
0.664073
1.33209
0.499069
0.63924
0.175445
0.41356
0.761333
0.915796
0.411811
0.685178
1.04538
0.61981
0.193885
0.555991
0.76971
2.30821
0.517687
0.344613
0.129707
0.0473351
1.65558
0.197179
0.384194
3.66148
1.3476
4.7401
0.197622
0.710693
1.05113
1.15971
0.505391
1.69491
0.894007
0.0533427
0.0404957
0.355352
0.0412353
0.193824
1.27047
0.229309
1.28139
0.704819
1.2309
0.930166
0.374756
0.507172
1.76078
0.793145
0.855109
6.78995
0.199543
0.314993
0.859074
2.21318
0.21506
1.58957
1.66627
0.27258
0.216332
1.10659
0.283782
0.251719
0.539158
0.0442162
0.351137
0.143706
0.227991
0.470732
1.70201
0.303301
0.312623
0.415806
0.899858
1.07973
2.85284
0.0538417
2.14636
0.412701
0.446062
0.470596
0.0993923
0.486756
1.78105
0.510832
1.52494
0.27657
2.09016
2.0208
0.399837
1.22454
0.394743
0.277995
0.29829
0.0362972
0.715882
1.54558
0.493778
0.413243
0.231648
0.426438
0.540383
0.516729
0.361238
1.05314
0.223289
1.71668
0.571043
0.17536
0.0476764
0.394634
0.344787
1.38713
0.338782
1.23547
2.01832
0.24556
0.522331
1.62967
0.466658
0.10765
1.64698
0.166171
0.129934
0.219653
0.334785
1.34501
0.252871
0.315307
1.17335
0.0418568
0.150424
0.392475
0.967714
0.750784
0.360218
0.620032
0.745204
0.535672
0.359635
0.313963
0.292559
0.427659
0.0481358
0.073588
0.485821
1.31613
0.231221
0.503431
1.5812
0.306567
1.18712
0.847903
0.584632
0.202366
0.1804
1.04929
0.158117
0.0742501
0.0811675
0.312702
0.642828
0.341275
0.494061
0.362956
1.69498
1.27877
0.353349
0.977064
1.17183
1.11413
0.388795
1.01697
0.0652805
0.684441
0.762835
0.412359
0.0459371
0.0703669
0.133123
0.207278
0.519857
1.21082
0.165999
0.422494
0.479973
0.323555
0.2894
0.0825273
0.403434
1.34873
0.14471
0.652866
1.63352
0.35428
0.20492
0.429021
0.0476636
0.0717209
1.33432
0.436602
0.322324
1.84014
0.394658
0.747721
1.76071
1.12928
0.378392
0.0617891
1.50301
0.041109
0.24215
1.38082
1.58577
0.313452
0.178849
0.200987
1.00321
0.933608
0.0437093
0.0738993
0.328737
1.17762
0.42515
0.541629
0.290476
0.744303
1.19524
0.29391
0.193547
0.87848
1.64518
2.2895
0.814821
0.411885
0.203689
0.807811
0.632007
0.50346
0.251993
0.152696
0.474447
0.258979
0.0766399
0.475198
0.253323
0.587017
0.662267
0.0379441
0.395996
0.206647
0.989871
0.121603
0.328439
0.303065
0.145135
1.5131
0.808342
0.539361
0.521738
0.0576652
0.070968
0.419601
0.618127
1.34426
0.047684
0.677988
0.415506
0.360286
0.134215
0.610995
0.316336
1.63051
0.579369
0.0490717
0.0700622
0.357613
0.760548
0.147522
0.313932
0.0352318
0.40524
0.131047
0.0530366
0.289944
0.280439
0.229873
1.4843
0.471554
0.332371
0.972017
0.347778
0.350629
0.576099
0.0646052
0.0745661
0.330813
0.167478
0.275736
0.196819
0.292873
0.326726
0.816153
0.25875
0.144484
0.238333
0.369049
0.816544
0.255437
0.337577
0.42461
0.0456237
0.0692466
0.195704
0.0569722
1.25015
1.25848
0.296264
0.402501
0.0445907
0.544509
0.0398778
0.639513
0.375095
1.68554
0.862489
0.217204
1.98586
0.0618072
0.601372
0.47098
1.5567
0.483119
2.37042
0.399911
0.207662
0.0587267
0.247084
0.119273
0.238372
0.326462
0.679783
0.706726
0.729655
0.178989
0.393885
0.0621571
0.413841
0.405225
0.437668
0.668222
0.33582
0.262734
0.404574
0.913552
0.385792
0.677563
0.548586
0.343634
0.12794
0.194769
0.339937
1.34829
0.40178
0.05795
0.627888
0.0605111
0.170467
0.794208
0.131526
0.29143
0.330026
1.70854
0.449485
0.363716
0.42995
0.277231
0.69698
0.369338
0.730951
0.58104
0.514447
0.320037
0.274443
0.256758
0.332163
0.375882
0.564257
0.573974
0.0356582
0.283395
0.304228
0.0889732
0.302709
0.0559883
0.0779024
0.0885987
0.0244032
0.326766
0.0620734
0.567349
0.53627
0.282715
0.196543
0.0610262
0.0795427
0.243962
0.481229
0.359077
0.374323
0.55544
0.278311
0.307642
1.74773
1.64912
0.275441
2.46988
0.397087
0.200736
2.4204
2.3246
1.41218
0.0523617
0.0684365
0.0659869
0.0602976
0.0685426
0.264302
0.642506
1.43637
0.0215199
0.0618093
0.562311
0.354063
0.29806
0.243608
0.0568446
0.0364964
1.24368
0.292471
0.850486
0.817198
0.211139
0.519262
1.1441
0.590757
1.4638
0.0387385
0.422269
0.887869
0.467213
1.02986
0.377723
0.0304483
0.157536
0.522119
0.282622
0.0891224
0.719468
0.0551913
0.533585
0.26523
0.28053
0.458384
0.0454909
0.342634
0.0925143
2.07665
0.0637143
0.244094
0.0354575
0.349085
1.05227
0.135184
0.929436
0.223108
0.0583538
1.06816
0.313973
0.153867
1.51406
1.19573
1.24299
0.785872
0.184064
0.358919
0.454605
0.59949
0.477278
0.062773
1.34782
0.188432
0.179204
0.386261
0.12945
0.329497
0.205613
0.334146
0.0878743
0.703425
1.27978
0.179199
0.357763
0.208406
0.249176
0.289532
2.64112
0.466307
0.141679
0.442145
0.048105
0.0689224
0.0302082
0.293233
0.0390587
0.286138
0.421522
0.273764
1.41064
0.716916
1.04011
0.810206
0.272526
0.198687
0.453831
0.431884
1.25556
1.10223
0.248883
2.50833
0.428122
0.0485917
0.0718031
0.380303
0.18713
0.467593
0.430483
0.10049
0.232911
0.665349
1.75812
0.809428
0.484983
0.457646
2.74675
1.26072
0.676995
0.360186
0.25269
0.362742
1.85118
0.701719
1.98005
0.698286
0.0574916
0.119089
0.142471
1.45723
0.296834
0.886781
1.15327
0.783088
1.05934
0.861015
0.519673
0.20946
0.052826
0.604091
0.0800643
0.193933
0.253237
0.43681
0.504282
0.118068
0.390204
0.418783
0.267278
0.421447
0.685342
1.0267
0.0371691
0.153516
0.125598
0.249231
0.484938
0.703159
0.371748
0.46353
0.457813
0.436474
2.71054
0.202898
0.270132
0.749893
0.247133
0.512774
0.120154
0.0775732
0.413642
0.708384
0.34431
0.747052
1.1469
0.15829
0.621511
0.299295
0.218386
0.654853
0.681006
0.200285
0.662924
0.128009
0.0199593
0.339513
0.0197054
0.427609
0.672041
0.15501
0.508906
0.565231
0.0917501
1.07689
0.897755
0.0207496
0.479233
0.274179
0.0198964
0.0962667
0.577496
1.55723
0.391064
0.162481
0.268465
0.070588
0.334319
0.0223202
0.0201693
0.0574423
0.142935
0.477037
0.215341
0.482955
0.43019
0.151795
0.151267
0.645341
0.29072
0.0435007
0.0607876
0.189209
0.8114
2.13382
0.924841
0.499058
0.0704554
0.160074
0.929215
0.379534
0.352871
0.149504
0.441367
2.26683
0.149013
0.462476
0.185923
0.264637
0.189638
0.329841
1.70604
0.0680915
0.525828
0.202548
0.149154
0.0871543
0.0474823
0.130636
0.191405
0.106911
0.761466
0.287249
0.278748
0.165305
0.211832
0.490475
0.506198
0.293243
0.32784
2.49931
0.0978548
0.55306
0.0674261
0.507554
1.18855
0.0472363
0.39946
0.540416
0.179512
0.149222
0.0905607
0.411417
0.593427
0.103302
1.09802
3.70217
0.404729
0.741619
0.0787307
0.47867
1.2773
0.214122
1.56014
0.422224
0.196459
0.437861
0.222213
0.175736
0.689664
0.41798
0.340438
0.104313
0.0892255
0.440144
0.48182
0.190821
0.266789
0.494221
0.522354
0.0646519
0.0708264
0.528747
1.07627
1.02591
0.421185
0.057575
0.350117
0.378532
0.520445
0.424872
0.186793
1.46285
0.703137
0.185457
0.214712
0.868946
0.0224508
0.810242
1.2573
0.323569
1.08582
1.16704
0.716189
0.128951
0.0361152
0.124659
0.286915
0.11169
0.193245
0.308938
0.872609
0.179976
0.810711
1.5097
0.784382
1.29923
1.56706
0.968344
0.492077
0.322638
0.593136
0.0984276
1.29834
2.2967
0.0993955
0.500265
0.13519
0.397206
1.14457
0.614063
0.659416
0.0185687
0.0563599
0.709221
0.507667
0.705542
0.228167
0.0935985
0.16206
0.835396
0.352624
1.11274
0.978584
2.30767
0.0579103
2.35928
0.0513123
0.782062
0.0777955
1.6351
0.60678
1.18649
0.041895
0.347898
2.79347
0.186703
0.0865528
0.444509
0.202472
0.573679
1.34257
1.20198
1.00786
0.122936
0.100578
1.6649
0.551723
0.789824
1.85416
2.87695
0.536804
0.0777425
1.57379
2.17159
0.0766673
0.0762997
0.404649
0.097358
0.202815
0.331968
0.375111
0.70899
0.134022
0.780422
1.03588
0.0585569
3.42407
0.184101
3.36672
0.14619
0.538277
0.491703
0.279497
0.286104
0.512587
0.971365
2.5315
0.928902
0.175553
0.209556
0.658225
0.0616225
0.0356002
2.73715
1.43165
0.186084
0.410442
0.0618738
0.163134
0.238813
0.691387
0.326805
0.560832
0.143619
1.79785
0.0525195
0.786476
0.0856695
0.377304
0.0617798
0.160969
1.66162
0.527436
0.0657947
2.26854
0.0908419
0.512708
1.41666
0.137741
1.30807
0.559673
0.357052
1.36646
0.311781
0.4647
0.0636958
1.04029
0.999811
0.191694
1.07714
0.900639
0.53103
0.731539
0.552477
0.222729
0.108582
0.779318
0.0289646
0.671798
1.18144
0.467402
0.362675
3.00052
0.309647
1.84318
0.283001
0.0432368
0.0529556
0.0715742
0.760296
0.219406
1.21164
2.21907
0.264544
0.367545
0.230906
0.458373
0.33369
0.30371
0.210057
0.231128
0.347376
0.582208
0.0309693
0.0354474
0.0675162
2.10473
0.290401
0.29453
0.130589
3.16389
0.924871
2.29738
1.06139
0.36839
1.41002
0.0708913
0.502328
0.983012
1.15688
0.593997
0.495168
0.115259
0.443979
0.562477
2.38043
0.414014
0.374369
0.646886
0.419176
0.0757739
0.614064
0.0324071
0.150045
0.28063
1.22642
0.627775
0.235416
1.54614
0.505691
0.246234
0.176079
0.596414
0.21821
0.466516
0.514345
0.577726
0.433578
1.17813
0.0623717
0.0693628
1.52454
0.233303
0.157747
0.198813
1.28852
0.537641
0.527641
0.0401007
0.519009
0.0468883
0.528073
0.50311
0.508674
0.509089
0.493484
0.415751
0.0685155
0.0911923
0.31682
0.55534
0.0365143
0.0989318
0.0315181
0.324913
0.142855
0.384855
0.60451
0.116891
0.358493
0.154201
0.0660702
0.345708
0.0584724
0.085423
2.89201
1.22913
0.617623
0.0606211
0.0691336
0.476613
0.0291789
0.0564878
0.588425
0.0937745
0.0655684
0.464846
0.0890301
1.24643
0.302567
0.115266
0.587959
0.136225
0.509907
0.627834
0.238017
0.45857
0.437547
0.892433
0.433686
0.0879867
0.349705
1.92939
0.942718
1.74615
0.596176
0.353351
0.0183821
0.0328459
0.675928
1.39307
1.36449
0.194174
0.739764
0.243807
0.351619
0.610089
1.75665
0.40838
0.410234
2.72825
0.0241097
0.262259
1.53318
0.533557
0.150916
0.50577
0.665424
1.46513
1.36101
0.601569
0.695409
0.216114
0.266397
0.290188
0.222155
0.356436
0.342816
0.563922
0.682697
1.65266
1.14797
1.13522
0.209437
0.391632
0.61773
0.874999
0.663553
1.35374
0.340768
2.34828
0.216917
0.660301
1.17801
0.0699781
0.167827
0.0660864
1.19297
1.05461
0.893788
0.676353
0.694821
0.372883
0.248088