/*--------------------------------*- C++ -*----------------------------------*\
| =========                 |                                                 |
| \\      /  F ield         | OpenFOAM: The Open Source CFD Toolbox           |
|  \\    /   O peration     | Version:  v1912                                 |
|   \\  /    A nd           | Website:  www.openfoam.com                      |
|    \\/     M anipulation  |                                                 |
\*---------------------------------------------------------------------------*/
FoamFile
{
    version     2.0;
    format      ascii;
    class       volScalarField;
    location    "0.17";
    object      k;
}
// * * * * * * * * * * * * * * * * * * * * * * * * * * * * * * * * * * * * * //

dimensions      [0 2 -2 0 0 0 0];


internalField   nonuniform List<scalar> 
5794
(
0.242421
0.142496
0.361305
0.172402
0.248925
0.119039
0.459521
0.109149
1.47328
0.366688
0.99809
0.0885377
0.0472339
0.103442
0.1819
0.0859594
2.53901
0.0880268
0.169343
0.141799
1.2453
0.125784
0.184494
0.124027
0.103592
2.70671
1.87258
0.216406
0.153853
0.294455
0.0531475
0.32224
0.0608376
0.136498
0.123896
0.164926
0.19696
0.125948
0.0481323
0.558306
0.351008
0.227992
0.28849
0.279846
0.184744
0.0500423
0.336314
0.0408058
0.277998
0.778774
0.0486586
0.588859
0.37563
0.210897
0.0143067
0.224524
0.442935
0.0845826
0.224255
4.48485
0.950166
0.0702627
0.0586733
0.620281
0.0664496
0.0633723
0.889882
0.30664
0.111201
0.115516
0.785894
0.964948
1.60914
0.545384
0.0998373
0.226134
0.105627
2.09642
0.290207
0.024852
0.126981
0.137044
0.427658
0.0674225
0.116006
0.106502
0.183761
0.362286
0.153959
0.140105
0.483174
0.18505
0.239664
0.559739
0.139312
0.403174
0.437741
0.193765
0.175685
1.04144
0.989035
0.172891
0.264219
0.164085
0.138387
0.202131
0.0920751
0.0834113
0.354752
0.298172
0.0567355
0.241721
1.09607
0.0534464
0.13363
0.509062
0.181149
0.195891
0.868311
0.503359
0.215351
0.133758
0.0558283
0.228252
0.374038
2.41538
0.122724
0.125289
0.294414
0.330095
0.104924
0.0520562
0.266006
1.93981
0.297141
0.204513
2.01447
0.0688451
0.057286
0.137967
1.1206
0.203588
0.358909
0.232823
0.0907508
2.90613
0.0808745
0.918513
0.156502
0.213141
0.321258
0.207701
0.248664
0.0836467
2.46738
0.252801
0.0508489
0.0599708
0.263049
0.11947
0.235518
0.0528731
0.0885052
0.0895543
0.208072
0.138841
0.112988
0.0550895
0.0565798
0.186065
0.177041
0.192084
0.0844799
0.107655
0.103351
0.222089
0.173237
0.0598951
0.109189
1.13708
0.0425574
0.388109
0.0321525
0.0399044
0.0448663
1.42271
0.197274
0.0550524
0.117465
0.141355
1.15553
0.305204
0.0441161
0.0392238
0.0444276
0.0867546
0.0482658
0.0677659
0.159551
0.292272
0.31822
0.696961
0.0338114
0.119817
0.295173
0.0409312
0.0707568
0.114725
0.172938
1.50654
0.262785
0.315349
0.184355
0.0666568
0.126751
0.105769
0.207386
0.208583
0.617524
1.25999
0.308708
0.0706591
0.98315
0.204121
1.98716
0.578069
0.201509
0.418061
0.127604
0.19236
0.101338
0.122149
0.100523
0.364135
0.120207
0.348027
0.275437
1.32373
0.055121
0.13888
0.145471
0.191497
1.28077
0.156299
0.114759
0.0564038
0.204172
0.11727
0.336277
0.115261
0.15068
0.0619372
2.66743
0.061543
0.208904
0.313209
0.295443
0.431681
0.130998
0.424211
1.59721
0.207442
0.0659624
0.042723
0.301066
0.050224
0.196667
2.27263
0.26984
0.0722899
0.34706
0.0458123
0.23593
0.527851
0.404811
0.178366
0.220283
1.13465
0.151739
0.0680437
0.0588037
0.441603
0.317902
0.194211
0.147924
0.271988
0.370847
0.22187
0.725762
0.302149
0.170845
0.131824
0.11674
0.235153
0.20208
1.87047
0.185809
0.183525
0.0983904
0.0473199
0.128524
0.830247
0.114515
1.64832
0.117344
1.80111
0.140907
0.121202
0.133944
0.276558
0.0511162
0.484685
1.74725
0.0514823
0.292215
0.59568
0.0810121
0.183347
0.339918
0.1103
0.397168
0.701933
0.176647
0.172154
0.0847001
0.0528413
0.516238
0.0871644
0.0446993
0.819024
0.923644
0.293335
0.0473143
0.0515369
0.261174
0.186781
0.154191
0.0671051
0.107597
0.0580827
0.116783
0.0726579
1.31617
0.188587
0.177167
0.0331871
0.0436681
0.487359
0.125645
0.140449
0.0534926
1.36831
0.0391336
0.328372
0.0335849
0.93149
0.141093
0.404228
0.383182
0.0668019
0.0937404
0.123093
1.86394
0.420559
0.0989916
0.11455
0.178248
0.0652015
0.327095
0.033368
0.135098
0.0355662
0.1218
0.196018
0.112682
0.307041
0.340926
0.377751
0.143634
0.069618
0.48806
0.144693
0.322749
0.145266
0.094238
0.132237
0.420582
0.453188
0.158577
0.172679
0.0742983
0.0645392
0.123385
0.0803385
0.0751058
0.108882
0.0915767
0.175372
0.367773
0.206355
0.116334
0.096209
0.78986
0.0380306
0.0987383
1.78632
0.375574
0.129267
0.13373
0.574044
0.163203
0.192591
1.09299
0.181775
0.0576194
0.276907
0.0319497
0.147145
0.248024
0.420154
0.172412
0.1829
0.152561
0.130396
0.0906902
0.0781946
0.111176
0.0561636
0.140515
0.157982
1.16337
0.22437
0.2241
1.5491
0.164662
0.190208
0.101692
0.0712695
0.111115
0.0657391
0.11544
0.269403
0.046493
0.0577165
1.05897
0.568313
0.13937
0.0486238
0.161269
2.09428
0.16526
0.122806
1.79318
0.141508
0.174693
0.0382779
0.473061
0.266641
0.204821
0.690424
0.16006
0.109587
0.523184
0.0704673
1.14537
0.376382
0.566462
0.38855
0.846922
0.272653
0.0263643
0.230451
1.63943
0.144103
0.313925
1.13347
0.721605
0.188616
0.207489
0.109967
0.638796
0.163039
0.158472
0.129211
0.0898771
0.892546
0.313955
0.774443
1.22591
0.149984
0.118205
0.162355
0.174889
0.122099
0.512059
0.112108
0.215525
0.130843
0.0422731
1.61521
0.236758
0.488539
0.266216
0.0597137
0.207662
0.107538
0.151493
0.62807
1.43109
0.0564447
0.417343
0.127742
0.429748
0.0414197
0.049603
0.142131
0.363904
0.0415088
0.223495
0.747292
0.132836
0.101512
0.290293
0.334216
0.504286
0.153025
0.119946
1.34066
0.128571
0.125385
0.615246
0.0342359
0.536691
0.131132
0.11598
0.240644
0.240264
2.31381
0.399948
1.29649
0.135509
1.86033
0.136421
0.106468
0.342143
0.0795574
0.215413
0.225683
0.0471888
0.140091
0.206815
0.106679
0.168453
0.171522
0.155546
0.34024
0.547717
0.12317
0.134413
0.256935
3.31963
0.174754
2.32332
0.213984
0.110913
0.499923
0.0943549
0.783419
0.108851
0.0485078
1.26725
0.343821
0.727018
0.241632
0.714963
0.293358
0.333633
0.149414
0.217777
0.189999
0.292186
0.242229
0.37786
0.447223
0.159458
0.934583
0.0592993
0.153677
0.241634
0.588303
0.0531907
0.129074
0.0703988
0.355983
0.221567
1.44279
0.0483846
0.293505
0.0456897
0.292083
0.243876
1.41543
0.17765
0.426825
0.0442488
0.431825
3.05576
0.180713
0.017979
0.456163
0.396766
0.41949
0.222928
0.345238
0.0443804
0.0576905
1.45387
0.151558
0.302467
0.119828
0.0740812
2.19139
2.51713
0.0855752
0.0734375
0.157512
0.20985
0.354592
0.205118
0.0526121
0.202326
0.123788
0.0459571
0.130048
0.103391
0.154332
2.28914
0.486352
0.119808
0.212889
0.201654
0.332095
0.437246
0.268579
1.99936
0.469407
0.232805
0.773039
0.121727
0.0638394
0.104417
0.111662
0.149873
0.132809
0.056686
1.7639
0.942642
0.11528
0.757586
0.12824
0.0934453
0.16221
0.159054
0.807409
0.11254
0.220186
0.670262
0.287712
0.382232
0.303003
1.2706
0.170351
0.728567
0.380784
0.117656
0.179658
0.481361
0.326376
0.23659
0.130078
0.120923
0.146105
0.142711
0.0567335
0.139386
2.06127
0.0986802
0.118599
0.164767
0.0443748
0.440182
0.658077
2.42596
0.162146
0.218337
1.20712
0.0839098
0.109685
0.108779
0.289707
0.135368
0.0488251
0.0349203
0.457441
0.256352
2.26119
0.275737
0.142083
0.159202
0.300631
0.555508
0.764645
0.217168
0.0867003
1.31761
0.373309
0.267613
1.37827
2.36434
0.898096
0.144221
1.99674
2.3356
0.102687
0.259652
0.162174
0.365395
0.505787
0.272982
0.642084
0.15017
1.71157
0.606039
1.82936
0.227304
0.25581
1.46179
0.583314
0.183409
0.220497
0.470394
0.101199
0.0995385
0.155135
0.0843861
0.23884
0.386007
1.12219
0.442561
0.282999
0.125663
0.10984
0.122091
0.0397306
0.165771
0.423385
0.207375
0.572776
0.14314
0.262027
0.605797
0.425115
0.236478
0.216166
0.603787
0.30176
0.408168
0.362306
0.240767
0.152637
0.228293
0.551596
0.322296
0.154692
0.149008
0.0734989
0.147049
0.131936
0.165019
0.137308
0.14056
1.1144
0.500289
0.149772
0.114358
0.264337
0.351343
0.0897214
0.31319
0.252
0.0674094
0.435399
0.0952152
0.949008
0.100436
0.397757
0.124153
2.46662
0.149568
1.9985
0.305437
0.0821155
0.660375
0.0670166
0.130178
0.223113
0.166861
0.152202
1.77836
0.732105
0.170692
1.1355
0.14669
0.648985
0.938096
0.0907164
0.116786
0.153392
0.234658
0.13957
0.128541
0.527753
0.878705
0.648196
0.0493511
0.385631
0.199988
0.149031
0.187545
0.255026
0.162287
0.529552
0.282648
0.11114
0.120328
0.154484
0.114324
1.81792
0.111222
0.108273
0.138852
0.113252
0.886802
0.138464
0.511458
0.0457831
0.93114
0.22046
0.316395
0.508845
0.185401
0.443852
0.258211
0.601288
2.18944
2.14178
0.735805
1.2991
0.0492473
0.0678518
0.207214
0.178566
0.225895
0.116124
0.899834
0.25713
2.83459
0.696883
0.101584
0.094441
0.0716617
0.348144
2.14838
0.129749
4.56501
0.187129
0.146234
1.96702
0.394662
0.231646
0.0647702
0.141658
0.264338
0.302817
0.0675473
0.137417
0.880747
2.34666
0.302548
0.299084
1.99681
1.19794
0.202181
0.553147
1.51301
1.2986
0.216827
0.148001
0.119772
0.305676
0.0517941
0.107353
0.112751
0.130609
1.67342
0.0693143
0.254216
0.0567332
1.06618
0.319171
0.441856
0.276863
0.420745
0.611139
0.76719
0.141577
0.326469
0.234486
0.0609525
0.757071
0.637987
1.52315
0.262134
0.278705
0.249791
0.198339
0.10311
0.585908
0.386859
0.111319
0.0928947
0.132508
0.116395
0.107182
0.765205
0.190545
0.113823
0.410893
0.173568
0.180099
0.206231
0.323815
0.136601
0.129817
0.139899
0.0495284
0.262209
0.20692
2.07843
0.246378
0.139449
1.44144
0.117818
0.154082
0.396067
0.562097
0.305051
0.251855
0.48501
1.71128
0.208267
0.340242
0.0750749
0.0421571
0.0335312
0.0660766
0.0623736
0.417728
0.0521733
0.0505375
0.117644
0.0747907
0.264237
0.0826506
0.216199
0.155439
0.0541551
1.20297
0.299648
0.141605
0.136867
0.0962005
0.0627701
0.322762
0.200581
1.87328
0.0613745
1.11336
1.47629
0.077073
0.304204
0.735613
0.053874
0.291763
1.53492
0.430148
0.368414
1.68091
0.0480365
0.318428
0.547565
0.154677
0.542149
1.22257
0.141964
0.560073
0.15839
0.139954
0.0591752
0.0822868
0.421908
0.797095
0.95467
0.824637
0.274182
0.0359997
0.2028
0.311628
0.269703
0.214362
0.975613
0.0823916
0.14156
0.116045
0.750593
0.302487
0.2384
0.201136
0.374949
0.197088
0.205248
0.28764
0.0411274
0.122826
0.199706
0.203382
0.228349
0.641488
0.0985214
0.274391
0.9942
0.0476462
0.160459
0.0901359
0.341139
0.100042
0.0489516
0.105096
0.0577714
0.311169
0.0905436
0.0930792
0.36639
0.289367
0.0648803
0.155906
0.1896
0.0476365
2.16913
0.538911
0.134891
0.0991846
0.485708
0.0630607
0.0600092
0.309192
0.0785714
0.0636626
0.113299
0.10707
0.106762
1.29226
0.555433
0.270108
0.385208
0.209976
0.0693609
0.0716026
0.315178
0.189732
0.40054
0.177153
0.0772953
0.56426
0.0343517
0.221357
0.177519
1.97031
0.173654
0.444979
1.61695
0.040986
0.683025
0.762723
0.0317316
0.299992
0.119078
0.63
0.658614
0.0361437
0.699753
0.0400762
0.0393936
0.486045
0.106006
0.153276
0.136405
0.0756938
0.387522
0.204468
1.67534
0.143551
0.119093
0.0967456
0.19913
0.0838616
0.408518
0.0766259
0.574951
0.254431
0.453187
0.446759
0.219047
0.0562755
0.0988424
0.101498
0.413809
0.147454
0.242798
0.493577
1.42311
1.92158
0.497306
0.436555
0.267784
0.266096
0.347849
0.0790308
0.112233
0.0486613
8.82823
0.719816
0.0467993
0.083711
2.02493
1.91584
0.272692
0.128545
0.117497
0.116406
2.00663
0.0531365
0.370078
0.562925
0.22264
0.272082
0.917473
0.225381
0.0514253
0.349501
0.743809
0.119052
0.603954
0.117953
0.912252
0.140946
0.427536
0.193542
0.0603052
0.191724
0.491289
0.292416
0.391245
0.337379
0.194529
0.0956188
0.90831
0.129091
0.294474
0.215887
0.120794
0.156458
1.37907
0.16173
1.19758
0.159893
0.539329
0.258313
0.303525
0.277684
0.241197
0.0481034
0.222654
0.322551
0.556138
0.0481307
0.0832008
0.0514417
3.40568
0.0454327
0.087466
0.212336
0.118741
0.113783
1.33712
0.176084
0.230871
0.11574
0.124488
0.192541
0.405375
0.34829
0.16441
0.0778126
0.0859726
0.0805092
2.11244
0.218504
0.34369
0.281527
0.0416795
0.0831133
0.0530253
0.853391
0.0569667
0.0249279
0.346148
0.669376
0.141208
0.0377047
0.23799
0.246643
0.642707
0.356179
0.866551
0.126456
0.0553047
0.0879953
0.380236
0.14575
1.01259
0.0849547
0.0567091
1.7134
0.304462
0.0454452
0.0455744
0.337223
2.19935
0.0919692
0.0358517
0.252406
0.12306
0.114108
0.244481
0.341315
0.234313
0.0493731
0.333537
0.159405
1.83646
0.481737
0.358509
1.77447
0.198128
0.160705
0.171489
0.0875687
0.900077
0.327792
0.165737
0.617272
0.296375
1.57957
0.661213
0.3928
0.353439
0.140466
0.372012
0.0552501
0.664079
0.310517
0.432189
0.387761
0.156292
0.426232
0.513741
0.186263
0.0614221
0.0594723
0.257369
0.471255
0.0538916
0.66843
1.27115
0.293886
2.12436
2.15263
0.175419
0.0628508
0.904499
0.150484
1.8958
1.08375
0.17537
0.115414
0.0664245
0.156589
0.0778543
0.279365
0.0759958
0.241623
0.0826478
0.121112
0.114366
0.88053
0.293135
0.636238
0.597002
1.03154
0.277815
0.0310077
0.411727
0.184338
0.379458
0.16649
0.949895
0.0688754
0.734826
0.0847789
0.156059
0.352897
0.2146
0.649947
0.305497
0.194397
0.0522705
0.360734
0.269798
0.167614
0.345515
0.123129
0.0498989
0.370707
1.11272
0.0482133
0.959607
0.297227
0.0665658
0.089114
0.107739
0.212075
0.065895
0.263599
0.463141
1.89528
0.323692
0.0501407
0.681136
0.195696
0.0901606
0.438186
0.103122
1.19517
0.109765
0.090763
0.0716062
0.160017
4.74436
0.323214
0.142288
0.335739
0.476086
2.31431
1.2391
0.0546435
0.0365524
0.0492762
0.0407188
0.0294375
0.0788798
0.0888582
0.0333925
0.129713
0.0321107
0.0416676
0.596907
0.231588
0.0302794
0.0593836
0.0294378
0.0967423
0.0884735
0.0852804
0.198516
0.396252
0.0570902
0.0846193
0.0291415
0.0402569
0.195868
0.767967
0.313686
0.0295335
0.0381472
0.251224
0.665219
0.0474423
0.0397203
0.0510451
0.0379986
0.0341984
0.0530603
0.0456493
0.0291226
0.111261
0.0339032
0.742802
0.22229
0.123051
0.0546915
0.351727
0.0686361
0.315387
1.24462
1.67233
0.185677
0.153646
0.0492338
0.455375
0.158141
1.46215
0.143112
3.02348
0.341438
2.12633
1.33762
0.0817491
0.0781069
0.0509121
0.57977
0.113737
0.390263
0.0660824
0.320279
0.286247
0.218869
0.939792
0.132317
0.668934
0.300054
0.918138
3.87869
0.116867
0.642686
0.315861
0.33949
0.150419
1.60615
1.799
0.116121
1.95239
0.165642
0.986274
0.0914085
0.118521
0.327813
0.362142
7.70591
0.0960849
0.307469
0.0909392
0.0856253
0.220721
0.123133
3.04163
0.0955437
0.0390279
0.0307744
0.0857239
0.057828
0.0395485
0.0977523
0.0297766
0.0398598
0.0578872
0.0282427
0.236725
0.711827
0.0318608
0.21332
0.197486
0.217971
0.504121
0.0740178
0.0688253
0.0350735
0.0380349
0.0643055
0.0516808
1.38534
1.46776
0.0271483
0.465888
0.454671
0.362253
0.17638
0.045811
1.82205
0.15068
0.162617
2.0272
0.244647
0.533318
0.038
0.239978
1.28659
0.166168
0.585341
2.04074
0.184829
0.0448214
0.130273
1.11513
0.133188
0.121734
0.492878
2.89045
0.17726
0.211856
0.0581961
0.0918242
0.106185
0.0995202
0.248773
0.103552
1.43055
0.0371407
0.629419
0.163295
0.0517159
0.0575187
0.128322
0.0553041
0.0829281
0.0835616
0.0871835
1.23367
0.315556
0.122529
0.384364
0.49751
0.335716
0.507808
0.0368814
0.279574
0.514225
0.106789
1.89786
0.165826
0.0638488
0.277145
0.918367
0.135437
0.307928
0.0871699
0.0446492
0.946814
1.0206
0.0470553
0.0956673
0.0943636
0.0288003
0.418456
0.95734
1.1827
0.343807
0.131328
1.22048
0.0475054
0.142311
0.320705
0.188654
0.149938
0.256401
0.0868015
1.06
0.0497867
0.34565
0.194765
0.0927883
0.255442
0.102008
0.193426
0.172822
0.0774661
0.0736869
0.0642572
0.123089
1.17394
0.117709
0.159519
0.99545
0.206405
0.617638
0.226128
0.663117
1.74267
1.65859
0.590009
0.168106
0.185573
1.25759
0.170569
1.55876
1.0178
2.29412
0.248768
1.3336
1.29521
0.49937
0.0591497
0.138531
0.430432
0.803312
0.105827
0.219
0.914315
2.25087
0.36746
0.602462
1.17115
0.624616
0.104441
0.373028
0.0868929
0.0572846
0.422313
1.52216
0.107679
0.0530121
0.374699
0.159538
0.19898
1.17044
1.07179
0.165419
1.15709
0.263055
0.0982011
0.145608
0.122154
1.04812
0.863212
0.13617
0.985496
0.109366
0.120805
0.106883
0.0874158
0.0768272
0.147102
0.807683
0.0959571
0.133666
0.118753
0.1265
0.0348971
0.125895
0.652687
0.444098
0.441252
0.15559
0.12252
1.04479
0.524911
0.967708
1.02228
0.100755
0.172695
0.0957961
0.396977
0.460334
0.971938
2.19108
0.506434
0.545954
0.113456
0.942032
0.0825052
0.953681
0.120843
0.750586
0.130508
0.038621
1.07145
0.253545
0.0767236
0.170609
0.0704133
0.152068
2.05875
0.222331
0.219488
0.445818
0.0881082
1.60197
0.627633
0.135243
2.21523
0.382303
0.337363
0.566305
0.155522
0.330699
0.810356
0.149055
2.57022
0.154648
0.0918326
2.57758
0.741804
1.39516
0.392052
0.236882
0.269698
0.68325
0.0882701
1.92224
0.179557
0.0881574
0.0667214
0.279211
0.530302
0.129536
0.0848264
0.972023
0.116887
0.305668
1.80199
0.791634
0.340757
0.673385
0.257605
0.0774973
0.286983
0.125185
2.56531
0.0825995
1.71933
0.27215
0.0875143
0.14163
0.549258
1.66547
0.305946
2.30333
0.521836
0.585517
0.219646
0.115629
0.328384
0.0547283
0.0553659
1.02749
0.951763
0.820594
0.721927
1.03341
0.917574
0.469345
0.709716
0.913395
0.155254
0.0958277
2.92613
0.152847
0.354821
0.052053
0.714626
0.632003
0.469648
0.340002
0.233551
1.08
0.156745
0.656538
0.248186
1.27876
0.0810613
0.521661
0.458963
0.133563
0.191899
0.127132
0.254228
0.127142
1.08537
1.22481
0.215824
0.17208
0.767983
0.5758
0.739517
0.31438
0.0532968
0.05225
1.13173
0.0560941
0.785702
0.302834
0.0782628
0.27917
0.224596
0.179145
1.38183
0.397069
0.157432
0.167384
1.60612
0.930907
0.435828
0.856987
0.140562
0.417797
0.338754
0.174861
0.876639
0.440531
0.552513
0.126265
0.495178
0.214346
0.189382
0.293934
0.521565
0.485595
0.101229
0.402195
0.177956
0.440073
0.159656
0.145929
0.475437
0.429365
0.398979
0.164431
0.15927
0.764175
0.287194
0.475095
0.0694313
0.555068
0.0546004
0.362766
0.106677
0.0487569
1.05733
0.0519437
0.0630387
0.281469
0.0769471
0.679356
0.2264
0.191484
0.531513
1.28168
0.406425
0.116509
0.200722
0.598259
0.110669
0.153612
0.201578
0.0635387
0.0663105
0.0497013
0.981312
0.686249
0.115508
0.180632
0.15219
0.207652
0.376576
0.0866957
0.0606318
0.51326
0.465225
0.191004
0.126797
0.0734736
0.380901
0.0665912
0.0743179
0.119157
1.03338
0.0606263
0.353034
1.32418
0.530147
0.29592
0.928535
1.0685
0.36172
0.111502
0.178786
0.61009
0.636292
0.249202
0.146369
0.305738
0.0712953
0.0766664
0.151893
0.435843
0.0680442
0.0808095
0.0881385
0.753146
0.22037
0.375296
1.26953
0.0703965
1.0488
0.76145
0.749428
0.22736
0.0743738
0.137287
0.810007
0.128333
0.201989
0.274422
0.11778
0.075138
0.0935754
0.10118
1.297
0.174171
0.0935126
0.846968
0.559686
0.310782
0.300098
0.246306
0.199534
0.852367
1.01394
1.19861
0.958094
0.113361
0.170318
1.20216
0.322249
0.0781433
0.0908368
0.490616
0.057467
0.088418
1.26999
0.119066
0.0924518
0.281747
1.60865
1.87812
1.68913
0.632375
0.341271
0.590335
0.520041
0.0574664
0.834335
0.836401
0.878339
0.877526
0.20735
0.329266
0.724558
0.135225
0.114128
0.158725
0.196851
0.146131
0.403292
0.224906
0.701626
0.25316
0.129075
1.26896
0.170083
0.526211
0.377214
1.27964
1.01161
0.586043
0.421448
0.579264
0.151518
0.425721
0.0558636
0.0892914
0.165023
0.218338
0.194873
0.127689
0.80017
0.640717
1.52661
0.0996159
1.63759
0.709633
0.339071
0.580911
0.0521417
1.04903
0.938701
0.0870227
0.193676
0.941905
1.21594
0.729147
1.51535
0.645014
0.490828
0.133606
0.123448
0.0678517
0.0905908
0.325225
0.205179
0.105248
0.192412
0.140438
0.742468
0.777014
1.42082
0.126302
0.153227
0.463326
0.370336
0.390591
0.749893
0.25677
0.145916
2.04453
0.214724
0.161406
1.19002
1.14426
0.890251
0.944084
0.0820227
0.229475
1.10432
0.718609
0.74519
1.91102
0.150773
0.511852
0.0581106
0.0909416
0.153084
0.184092
0.174992
1.79395
0.189008
0.205977
0.100183
0.488663
0.414045
0.590447
0.561327
0.196319
0.221771
0.154459
0.177277
1.59094
0.230111
1.13732
1.27099
0.315418
0.0796038
2.60462
0.693373
0.480361
0.579916
0.256488
1.72402
0.664917
0.363151
0.172466
0.987289
0.544184
0.316274
0.0435384
0.0531628
2.3289
1.39616
0.406347
1.82433
0.0670001
0.0659334
0.953608
0.645458
0.334719
0.660448
0.0936565
0.218466
0.16652
0.133502
0.678612
1.00629
1.41481
0.141127
0.219583
0.536006
0.335536
1.13359
0.212329
0.458176
1.51845
0.669859
0.882053
1.26419
0.05027
0.323335
0.236005
0.0826413
1.28846
0.614798
1.6826
0.345072
0.544058
0.364382
0.180914
0.433057
0.70374
1.08115
0.57865
0.0579992
0.126142
1.19956
0.517981
0.165225
0.157083
0.767459
0.144491
1.09251
1.32012
0.95271
1.16081
1.6203
1.84689
0.158994
0.152364
0.789227
0.220008
0.0916133
0.0400343
0.743796
0.493675
0.401643
1.14849
0.960076
1.06775
0.217598
1.27213
0.245473
0.141691
0.17387
0.517213
0.395518
0.417569
0.0626512
0.0849068
0.218671
0.2424
0.854817
1.34863
0.0440351
0.923268
0.619068
2.51893
0.932174
0.14502
0.0896434
0.193807
0.0819881
0.619772
0.353939
0.599887
0.544488
0.556739
0.150489
1.00539
1.28788
0.165866
2.95143
0.304184
0.738375
0.116692
0.181817
0.903535
0.149982
1.06626
0.226459
0.880173
1.36048
1.14885
0.180716
0.241152
0.107458
0.222372
0.998307
0.736511
0.189445
1.24683
0.62231
0.614339
0.193761
1.14793
0.291669
1.29389
0.786337
1.16675
0.236218
0.0499262
0.187147
0.222219
1.0732
0.311032
1.18012
5.68552
0.122138
0.778151
0.352362
0.648411
0.175024
1.99276
0.229924
0.0896518
0.0459273
0.421019
0.0904099
0.12761
0.307476
0.0949152
0.357781
1.06203
0.943611
1.29791
0.480616
1.04933
1.04898
0.498172
0.136187
7.71277
0.203196
0.194549
0.10283
0.699766
0.148416
0.371902
1.6555
0.981583
0.15435
2.01813
0.135449
0.0975927
0.265807
0.0505984
0.454258
0.0750722
0.091741
0.132394
1.60745
0.497215
0.480023
0.598911
0.965996
0.638254
2.14406
0.0383166
1.21013
0.198693
0.11301
0.233743
0.103608
0.11505
3.16369
0.190385
0.482702
0.397699
0.343505
1.23163
1.24871
0.997297
0.0960386
1.01479
0.102549
0.0507002
0.703897
2.23617
0.132821
0.101726
0.122124
0.190442
0.47916
0.053278
1.05676
0.70543
0.223576
2.29668
0.825644
0.200002
0.0977981
0.200746
0.507638
0.504949
0.586975
0.474991
0.225226
0.210227
1.20747
0.680993
0.714151
0.0582669
0.413649
0.0988096
0.0879451
0.141171
0.329817
0.475645
1.10768
0.144202
1.08795
0.0466137
0.444257
0.402801
0.236471
1.11665
0.161751
0.218475
0.126297
0.187683
0.359621
0.306841
0.284391
1.17601
0.0704184
0.087314
0.50919
0.694768
0.473927
0.0888214
0.72859
0.565049
0.393669
0.997449
1.5082
0.20584
0.152759
0.27064
0.140719
0.0863474
0.0971744
0.216428
1.25009
0.220546
0.780193
0.602304
0.471052
0.562619
0.218354
0.185159
0.585581
0.209756
0.301014
0.438068
0.0904736
0.240091
0.076121
0.540531
0.0672401
0.0866916
0.115656
0.109938
1.1225
2.0212
0.153203
0.195297
1.09829
0.508214
0.405892
0.163163
0.232337
0.726424
0.092927
0.230493
1.45423
0.149577
0.433686
0.391917
0.0709279
0.0795879
2.15868
0.884209
0.507664
1.70587
0.730545
1.30204
0.871682
0.190851
0.126873
0.080255
0.577565
0.050687
0.0977982
1.18704
0.870193
0.235352
0.0996647
0.0599171
0.981706
0.0888098
0.0504842
0.11491
0.221427
1.13937
0.393569
0.979852
0.478844
0.35339
0.826101
0.320802
0.1523
0.743409
1.45692
0.0944451
0.213824
0.140412
0.206271
0.23989
1.26374
1.28096
0.356828
0.321475
0.0977812
0.391461
0.0578211
1.0707
0.35973
0.487971
1.31521
0.0511249
0.462388
0.2032
1.88998
0.0869955
0.328171
0.306414
0.133108
2.35372
1.53038
0.24107
0.467756
0.076849
0.0686837
0.355162
1.80212
1.71058
0.0513201
1.35424
0.315756
0.115649
0.156249
0.287508
0.305134
1.36921
0.507698
0.0797122
0.0783401
0.0958751
1.36829
0.107783
0.0975887
0.0629407
0.199901
0.0798406
0.053455
0.512566
0.274387
0.230083
0.887258
0.965328
0.0786773
0.130924
0.488923
0.464414
0.50671
0.0944115
0.0988116
0.15311
0.0949471
0.22662
0.156423
0.147705
0.11381
1.07954
0.0860259
0.0883684
0.238488
0.386089
0.550739
0.332206
0.564679
0.537671
0.0754152
0.078812
0.199529
0.0556751
0.657676
0.133509
0.140714
0.478828
0.0360344
0.196795
0.0489648
0.588961
0.193772
0.499918
0.271865
0.222148
0.543142
0.0883807
0.411381
1.13658
0.356206
0.243077
0.713348
0.44257
0.294274
0.0577301
0.247186
0.0719069
0.474657
0.210814
1.54847
1.50078
2.59166
0.159571
0.341575
0.0858101
0.0851239
1.07928
0.195383
0.360282
0.0602422
0.197244
0.809411
0.16257
1.10965
0.132344
0.166198
0.36308
0.0945389
0.222389
0.105187
0.585753
0.8239
0.058931
0.412355
0.0894247
0.110244
0.39597
0.108605
0.390667
0.5406
2.85527
0.226105
0.103747
0.398258
0.268743
0.690474
0.175401
0.217687
0.114722
0.135871
0.553275
0.299971
0.256798
0.332144
0.0779277
1.12001
0.229456
0.0544545
0.502656
0.254937
0.146773
0.720451
0.0585416
0.104022
0.0949958
0.0391769
0.203222
0.0832572
0.289782
0.264774
0.282698
0.133268
0.0792134
0.0942012
0.127854
0.193197
0.359045
0.377945
0.0972988
0.321819
0.535608
1.5709
1.85011
0.256034
2.04452
0.178786
0.133906
0.275043
1.33065
1.36727
0.0861948
0.0687135
0.102682
0.0873009
0.0628691
0.264336
0.329807
2.73387
0.0281992
0.0829735
0.385883
0.806218
0.324849
0.0945234
0.104918
0.0471834
2.4534
0.316593
0.134548
0.155173
0.13393
0.434252
0.0941483
0.530244
0.949821
0.0497912
0.855945
0.530001
0.204713
1.15236
0.155408
0.0462876
0.101384
0.507638
0.148885
0.112673
0.207764
0.0566036
1.59577
0.457648
0.543391
0.19657
0.0751581
0.631769
0.149039
0.463873
0.0536939
0.160396
0.0500648
1.06444
1.16976
0.176778
0.179601
0.243447
0.115988
1.22676
0.838822
0.171
1.23529
1.07614
2.15997
1.45653
0.164229
1.08222
0.277695
0.263881
0.129539
0.0799439
0.679262
0.158127
0.11586
0.477143
0.151169
0.446737
0.137537
0.279536
0.124852
0.198057
1.7208
0.113679
0.0796091
0.153083
0.486332
0.293248
0.748403
0.119435
0.145113
0.498608
0.0796787
0.0687772
0.0398114
0.0810413
0.0482332
0.0967308
0.187304
0.303302
1.21161
0.803848
0.348091
0.4415
0.272536
0.204626
0.164224
1.10136
0.424236
0.644027
0.311031
1.08457
0.36469
0.0743805
0.0733322
0.10841
0.188788
0.456561
0.152461
0.117547
0.154714
0.223562
1.916
0.748674
0.655768
0.957046
0.652242
0.906339
0.647108
0.224958
0.484111
0.362696
0.0784494
0.165631
2.15977
0.283076
0.0543293
0.126645
0.0891228
1.44983
1.26114
0.377835
0.985767
0.197479
0.376153
0.74074
0.230099
0.122537
0.0608301
0.444034
0.0918817
0.149659
0.435111
0.420226
1.02798
0.112142
0.135016
0.18364
0.130876
0.421541
0.49515
0.843051
0.0494937
0.0926548
0.0752757
0.108087
0.338488
0.263324
0.48042
0.215738
0.088988
1.15757
0.378228
0.211014
0.11198
0.525608
0.0732327
0.140536
0.141495
0.0932411
0.41369
0.51603
0.0572145
0.883254
0.0618022
0.115677
0.274717
0.299331
0.218543
0.285495
1.30748
0.115418
0.37718
0.0858237
0.0313343
0.191957
0.0299448
0.427765
0.47994
0.431828
0.249482
0.839507
0.105844
0.0524361
0.281433
0.0338085
0.489487
0.761498
0.0293977
0.0588294
1.29254
0.339882
0.196392
0.420657
0.716461
0.0942405
0.221503
0.0378256
0.0290879
0.0621997
0.0979019
0.478092
0.118991
0.479452
0.0669377
0.153187
0.10836
1.17144
0.085966
0.0552037
0.039675
0.190518
0.533518
2.24735
0.278777
0.144806
0.0845633
0.14197
2.03664
0.2908
0.198127
0.107302
0.226743
1.58801
0.106793
0.561182
0.193053
0.129531
0.12753
0.175759
0.748586
0.0821829
0.202189
0.189737
0.107063
0.0930014
0.0555709
0.138489
0.125433
0.150513
0.635361
0.975684
0.189851
0.116162
0.405457
0.139427
0.137431
0.219589
0.323869
0.794395
0.105438
1.2418
0.0534908
1.12361
1.8954
0.0701821
0.390108
0.181957
0.195399
0.106856
0.108619
0.1696
0.595214
0.138386
1.68644
0.345595
0.404749
0.543716
0.136355
0.593745
1.00535
0.211794
0.842901
0.448942
0.134791
0.495654
0.190619
0.121065
0.768111
0.260718
0.224223
0.0988855
0.106272
0.100962
0.111084
0.191344
0.254216
0.48919
0.518411
0.0822727
0.0845873
0.198339
0.297082
1.29256
0.185489
0.0769232
0.350115
0.0929366
0.521612
0.429454
0.097187
1.59665
0.160948
0.117001
0.142679
1.20196
0.0304534
0.836121
1.25808
0.115015
0.997725
1.05926
0.929143
0.155848
0.0602101
0.0706645
0.164676
0.0716582
0.197467
0.309152
1.32018
0.118879
0.813321
0.747932
0.921089
0.150271
0.287664
0.66565
0.124152
0.126778
0.27471
0.152258
2.96269
1.42281
0.166574
0.266538
0.167071
0.433008
1.05483
0.616945
0.301109
0.0223657
0.0397906
0.299472
0.502747
2.37309
0.110775
0.16178
0.156639
1.19404
0.278832
1.38664
0.630782
0.532366
0.106684
1.49758
0.0697712
0.293867
0.0876185
1.93885
0.210819
1.41107
0.0460327
0.148018
0.686667
0.351332
0.0932966
0.052275
0.114258
0.57413
1.34075
0.779118
0.267354
0.126555
0.116503
1.51039
0.255986
0.145825
1.54111
3.43727
0.883978
0.108665
0.510451
0.296227
0.0816924
0.0856509
0.294055
0.115411
0.127243
0.232986
0.177049
1.02703
0.0942853
0.934466
0.263074
0.0327678
0.384954
0.12962
0.41869
0.0751257
0.535735
0.107156
0.121477
0.390811
0.225722
0.520698
2.27813
0.315897
0.130792
0.136468
0.464218
0.101141
0.0443138
2.14165
0.313616
0.167334
0.184007
0.0696845
0.099824
0.122155
0.169186
0.10296
0.245875
0.0929845
1.77798
0.0621763
0.247036
0.0906059
0.210591
0.0767403
0.142898
1.82057
0.16684
0.0797008
1.27398
0.101199
0.139268
0.304919
0.148482
0.0874244
0.635924
0.0720238
0.781668
0.110307
0.412745
0.0658425
0.111104
0.232274
0.192559
0.133006
0.948309
0.638183
0.687854
0.293958
0.114972
0.070654
0.92986
0.0447874
0.369403
1.96128
0.189018
0.36268
2.39417
0.309632
0.307403
0.106996
0.0426902
0.0779056
0.07964
0.352484
0.0972159
1.17697
0.232165
0.0916654
0.34352
0.23044
0.620979
0.0817918
0.993831
0.220539
0.415223
0.123877
0.49186
0.0407544
0.0453069
0.0568098
0.0872735
0.0914768
0.351288
0.0954699
2.47037
0.67801
1.63377
0.382728
0.362225
1.26798
0.0833201
0.204114
0.224888
0.763966
0.240822
0.220803
0.103738
0.127998
0.273505
0.225986
0.698181
0.141674
0.133591
0.757808
0.144592
0.176764
0.0471288
0.13587
0.280638
0.764647
0.272904
0.235213
0.256051
0.381522
0.105653
0.116415
0.738199
0.100543
0.137401
0.317028
0.117798
0.171352
0.0995079
0.0943945
0.0650133
1.88692
0.0837929
0.109851
0.169172
1.41167
0.538963
0.528957
0.02952
0.520215
0.032143
0.52891
0.503896
0.509304
0.509594
0.137465
0.0890878
0.0935092
0.127902
0.178302
0.554316
0.0494283
0.0568144
0.0425697
0.556429
0.156034
0.384561
0.200121
0.152953
0.201488
0.110053
0.0786043
1.0495
0.0485351
0.115676
0.965013
0.927097
0.430704
0.0889276
0.0684
0.295198
0.035708
0.0552836
0.126726
0.076192
0.10124
0.192749
0.0986599
2.36262
0.0934263
0.148378
0.580626
0.121214
0.86687
0.62504
0.152525
0.704681
0.193301
0.412478
0.143846
0.059671
0.155923
2.55553
0.26633
1.61715
0.183882
0.582438
0.0321306
0.0464288
0.210375
0.507342
1.08933
0.194635
0.73581
0.260746
0.226196