/*--------------------------------*- C++ -*----------------------------------*\
| =========                 |                                                 |
| \\      /  F ield         | OpenFOAM: The Open Source CFD Toolbox           |
|  \\    /   O peration     | Version:  v1912                                 |
|   \\  /    A nd           | Website:  www.openfoam.com                      |
|    \\/     M anipulation  |                                                 |
\*---------------------------------------------------------------------------*/
FoamFile
{
    version     2.0;
    format      ascii;
    class       volScalarField;
    location    "0.08";
    object      nut;
}
// * * * * * * * * * * * * * * * * * * * * * * * * * * * * * * * * * * * * * //

dimensions      [0 2 -1 0 0 0 0];


internalField   nonuniform List<scalar> 
1431
(
0.00146165
0.00181303
0.00132711
0.00213046
0.0010189
0.000906459
0.00105731
0.000795528
0.00139124
0.00087485
0.000905906
0.000609977
0.00134796
0.00157975
0.00147161
0.000704021
0.00147751
0.00086107
0.000216074
0.000931315
0.00130083
0.000892631
0.00126488
0.00175878
0.00172975
0.00100707
0.00196858
0.00142542
0.00101807
0.00132834
0.00238945
0.000918724
0.00102222
0.000563511
0.000519988
0.00145537
0.00165496
0.000852906
0.000995508
0.000848429
0.0031317
0.00136097
0.000995155
0.00089244
0.00129447
0.00133048
0.00130865
0.000903506
0.00141833
0.000863041
0.000964682
0.00076181
0.00124963
0.00108571
0.000966604
0.00078924
0.000732986
0.000912314
0.00115621
0.000843988
0.00133401
0.0013091
0.00135722
0.000782656
0.000940322
0.000981558
0.00136435
0.000590728
0.00111347
0.000749455
0.000576275
0.000507862
0.00179872
0.00087715
0.00124788
0.00067843
0.00126124
0.00129455
0.000780885
0.00249996
0.000805135
0.000859929
0.00167218
0.00167692
0.00291028
0.0010684
0.00091779
0.000933227
0.00196841
0.00126944
0.00113518
0.000946229
0.000934334
0.000859038
0.000729472
0.00119688
0.00124032
0.000727296
0.00083458
0.00201014
0.00102432
0.000812405
0.00135867
0.000934421
0.00127544
0.00091058
0.000784806
0.00261469
0.00179855
0.0011047
0.00309506
0.000972526
0.000777355
0.00150026
0.00124624
0.000918488
0.000859759
0.00194829
0.00221121
0.00120432
0.000856899
0.00130078
0.000738251
0.00262035
0.000831055
0.0013355
0.00247363
0.00145996
0.00159695
0.000806808
0.000989449
0.00192288
0.00108474
0.00132991
0.000946552
0.00101094
0.00171732
0.000864941
0.00116071
0.00220161
0.000963737
0.000633695
0.0007686
0.00138614
0.00123561
0.00077456
0.000728547
0.00242131
0.00166278
0.00149295
0.000817397
0.00100875
0.00225194
0.000817793
0.000488104
0.00139737
0.00080257
0.00120725
0.000773624
0.000974903
0.000905264
0.00118613
0.00133768
0.00108135
0.00088635
0.00374833
0.00116183
0.000859984
0.00111992
0.00164475
0.00183638
0.00122577
0.0026274
0.000768882
0.000770202
0.000635047
0.000448655
0.000882884
0.00144813
0.000749201
0.000838527
0.00162452
0.000780457
0.00159265
0.000772666
0.00142308
0.000778837
0.00151342
0.00114337
0.000798985
0.00179098
0.00141775
0.00140326
0.000789962
0.00155084
0.000848091
0.000784072
0.000978561
0.000820816
0.000744542
0.000802309
0.000704958
0.00130573
0.00255424
0.000785244
0.00266429
0.00108694
0.00083381
0.00124344
0.000880233
0.000789145
0.000779054
0.00300523
0.000831444
0.000707572
0.000893476
0.000764793
0.00187485
0.00238471
0.000833647
0.000830004
0.00304316
0.000776112
0.00135378
0.00082656
0.000888831
0.00202385
0.00158004
0.00102721
0.00224135
0.000986911
0.00135775
0.000745936
0.000814889
0.000798914
0.000784238
0.00073454
0.00162063
0.000826341
0.00210992
0.000839603
0.00113277
0.00127376
0.0013623
0.00137042
0.0013327
0.00083089
0.000887904
0.000894728
0.00153187
0.000858554
0.00131661
0.000884305
0.00114958
0.00141275
0.00115241
0.0003858
0.00220802
0.00116473
0.00115049
0.00114546
0.00123828
0.000837182
0.00100951
0.000794239
0.00094576
0.0010378
0.000775447
0.000873752
0.00107765
0.000781061
0.00176684
0.000790744
0.000755161
0.00113937
0.000782262
0.00115094
0.000937041
0.000870714
0.000867228
0.00149674
0.00209427
0.00179688
0.0011235
0.00104218
0.00173374
0.00101288
0.000726941
0.0013087
0.00083151
0.000775648
0.000857671
0.000704617
0.00138849
0.000966305
0.000780668
0.001495
0.00082114
0.00230304
0.000849714
0.000842247
0.00220139
0.00182953
0.00101548
0.000967836
0.00210669
0.000828132
0.00115432
0.0011526
0.000873615
0.000835134
0.000783461
0.00253993
0.00073002
0.000966798
0.00207641
0.000867356
0.00186231
0.00080521
0.00106188
0.00237842
0.00103992
0.00108547
0.00249961
0.00119827
0.00102306
0.0008064
0.00103123
0.00320053
0.000830462
0.00226893
0.00136495
0.0017363
0.00156925
0.000785809
0.00140648
0.00112539
0.00100228
0.000906445
0.00128847
0.000747194
0.000822113
0.00098634
0.000937669
0.000987168
0.000770832
0.000826886
0.000395497
0.00035756
0.000367078
0.000509664
0.000273405
0.00035426
0.000367936
0.00041207
0.000574022
0.000312581
0.000682184
0.000437043
0.000496213
0.000430981
0.000441761
0.00036406
0.000374517
0.000437829
0.000379894
0.000368186
0.000474155
0.00256748
0.00184234
0.00189226
0.00165061
0.00102987
0.00116284
0.00156777
0.00272549
0.00227101
0.000841423
0.000848819
0.000633463
0.000292817
0.000400191
0.000456332
0.000333771
0.000482021
0.00036365
0.000595695
0.000553933
0.000383648
0.000356548
0.000443379
0.00130918
0.00173351
0.000848688
0.00105792
0.000775927
0.000940295
0.00083467
0.000982067
0.000770073
0.000599749
0.0024444
0.000832683
0.000807639
0.00268808
0.00076517
0.00139479
0.0010042
0.00086883
0.00195238
0.000830399
0.00105445
0.000770039
0.00179327
0.00131314
0.00093461
0.00210844
0.00111507
0.000914673
0.00089263
0.00232758
0.00125286
0.000913451
0.00244313
0.00139328
0.00205936
0.0021135
0.00186336
0.00141324
0.00181248
0.00132368
0.0029368
0.000848561
0.00182489
0.00207135
0.00189687
0.00109338
0.00195373
0.00239407
0.00107828
0.00100779
0.000565776
0.00193617
0.00204302
0.0010622
0.00125545
0.00132254
0.00290377
0.000890881
0.00179357
0.00175421
0.000949152
0.00144253
0.000913108
0.0012539
0.000928137
0.000971361
0.0009935
0.000951934
0.00179449
0.00140341
0.000379047
0.00103843
0.00105844
0.00128959
0.000943106
0.000870115
0.00117832
0.00097009
0.000903141
0.0014606
0.000908787
0.00102037
0.000972651
0.000870736
0.000915875
0.00169161
0.00169873
0.00139622
0.00055522
0.00129547
0.000880423
0.000973495
0.000816697
0.001007
0.000796949
0.000915445
0.000917163
0.00108815
0.000920175
0.000992343
0.000447441
0.00095208
0.00176732
0.00050875
0.000873256
0.00093207
0.00221269
0.000837228
0.00232559
0.000849619
0.00126232
0.00185408
0.00178115
0.00182083
0.00257781
0.000974277
0.000910784
0.00105665
0.000564955
0.000538747
0.0027448
0.000783863
0.00250224
0.000792172
0.00104854
0.00158964
0.00111629
0.00114146
0.00103353
0.00234587
0.00268801
0.00231832
0.000865325
0.000875422
0.00108781
0.00184729
0.00118217
0.00258171
0.00210379
0.00103617
0.00100937
0.00237713
0.00249814
0.000989559
0.00123211
0.00170522
0.0021439
0.00138393
0.00117807
0.00176936
0.00136712
0.0022441
0.000738046
0.000332948
0.00090044
0.00198413
0.000797449
0.000940641
0.00107483
0.00235679
0.000638237
0.00110427
0.0010913
0.00170184
0.00240066
0.00156523
0.00222392
0.0010616
0.000751201
0.00156691
0.00211085
0.0015402
0.00151235
0.00110687
0.000807505
0.00122565
0.00070221
0.00145493
0.00182068
0.000488806
0.00096797
0.00123193
0.000923047
0.00140822
0.00105663
0.0011279
0.00146087
0.00197618
0.000826057
0.00087932
0.000799113
0.00211004
0.00183566
0.00192335
0.00214584
0.00205296
0.000768196
0.000891008
0.000889327
0.000733308
0.000885838
0.00084812
0.000774637
0.000785305
0.00209472
0.000991192
0.0020754
0.000701021
0.000850196
0.0022308
0.00208483
0.0010649
0.0019795
0.0018352
0.000939319
0.00120524
0.00129535
0.000904476
0.00109909
0.000900137
0.00114425
0.000906612
0.0017931
0.000974179
0.000707475
0.0016836
0.000941964
0.00173506
0.000944013
0.0011624
0.00225784
0.000985628
0.00137927
0.00207673
0.00114786
0.00128258
0.00103393
0.00103281
0.000805415
0.000956939
0.0010688
0.000765435
0.000805732
0.00242803
0.000987
0.00125208
0.00070032
0.000810909
0.00112064
0.00195727
0.000859875
0.000806514
0.00109091
0.00206395
0.0016771
0.00190044
0.00118313
0.00080392
0.00109621
0.000799671
0.00268779
0.000801647
0.000889572
0.00112746
0.00099812
0.000820072
0.00084096
0.00189191
0.00101208
0.00179521
0.000961968
0.00111681
0.00111813
0.000827111
0.000822294
0.000847946
0.000892689
0.000965557
0.00157702
0.0010338
0.000821579
0.00106356
0.00173572
0.00107243
0.00117923
0.00088252
0.0007573
0.001375
0.000806502
0.00164595
0.000634656
0.00117095
0.00075005
0.00167144
0.00238169
0.00128555
0.00167061
0.00180243
0.000933652
0.00201322
0.00171817
0.00178939
0.00165619
0.00110508
0.00132202
0.000389665
0.000488491
0.000824031
0.000727961
0.00181175
0.00132004
0.000721483
0.00136622
0.00104983
0.00143767
0.000841327
0.00104222
0.00085007
0.00312046
0.0013733
0.000935355
0.0010093
0.000891169
0.00175906
0.000635799
0.0019266
0.00152291
0.000776012
0.0013096
0.000644629
0.000836406
0.000806356
0.00178325
0.00131016
0.000626811
0.000887069
0.00154492
0.000811016
0.000512592
0.000915045
0.000703346
0.000795779
0.000750504
0.00168758
0.000729941
0.0011179
0.00162606
0.00117061
0.00115608
0.00169878
0.00123567
0.000785764
0.00116106
0.000779634
0.000663576
0.000787497
0.00114567
0.00220678
0.00170333
0.00104158
0.000719772
0.000726304
0.000717459
0.00116464
0.00109032
0.00084506
0.000845947
0.000868426
0.00271329
0.000565296
0.00128895
0.00128209
0.00135892
0.000842732
0.000975669
0.00101437
0.00165406
0.000797201
0.000715942
0.00138556
0.00190095
0.000986226
0.00104778
0.00130222
0.000760414
0.000900251
0.00134413
0.00175862
0.00160313
0.00189117
0.000376131
0.000730937
0.00110966
0.000828788
0.00206608
0.000927029
0.000966584
0.00087778
0.00291325
0.00115732
0.000749352
0.00073555
0.000865384
0.000847872
0.000834337
0.00103509
0.00119213
0.0016508
0.00081119
0.00136384
0.00150169
0.000843238
0.00132343
0.000398879
0.00287136
0.0016307
0.000882692
0.000873946
0.00133837
0.000827834
0.000810352
0.0010146
0.00100858
0.00208292
0.000834909
0.000673567
0.00059584
0.000539245
0.000649528
0.000837809
0.000732366
0.000745978
0.00219876
0.00169134
0.000775658
0.00168225
0.00152659
0.00132241
0.00101418
0.000401399
0.000812591
0.000868885
0.000890891
0.0010865
0.00103342
0.00164148
0.00115627
0.00094564
0.00137922
0.000771199
0.00103614
0.000725374
0.000663863
0.0016617
0.000928196
0.000945866
0.00194482
0.00270205
0.000819638
0.00205635
0.00187709
0.00222755
0.000332642
0.0015908
0.000920736
0.000747506
0.00107105
0.000837572
0.000856059
0.000807253
0.00115607
0.0012697
0.000885866
0.00122721
0.00138863
0.000814236
0.000775509
0.000933107
0.00115075
0.00110762
0.00161831
0.00114644
0.00188772
0.000858746
0.000847531
0.00105749
0.000929224
0.00106403
0.000817718
0.000884931
0.00136062
0.00104829
0.000862106
0.000743946
0.00145072
0.00102486
0.00124696
0.00128578
0.000876254
0.000874482
0.00164599
0.000979107
0.000824447
0.00166192
0.00153622
0.000886332
0.000933715
0.00144227
0.0016003
0.00107049
0.000957525
0.00103059
0.00112462
0.000853872
0.000838729
0.000858308
0.00167957
0.000875618
0.000278854
0.00108477
0.000806978
0.0016165
0.000761543
0.0009798
0.00206432
0.00262884
0.000854047
0.00121956
0.00145831
0.00137813
0.000779855
0.00114579
0.000814537
0.000796298
0.00113548
0.00141273
0.00073059
0.000859996
0.00079936
0.00163402
0.000716751
0.00161598
0.000615797
0.000575804
0.00060262
0.000631104
0.000525913
0.000450458
0.00141783
0.000416765
0.000464842
0.000818662
0.000387325
0.00142356
0.000490013
0.00298097
0.0011731
0.00084561
0.00050871
0.000879389
0.000451579
0.000738916
0.00167684
0.00211184
0.00123885
0.000386669
0.000959986
0.00148484
0.00103453
0.00101461
0.00151348
0.000866993
0.000846369
0.00212268
0.000513523
0.000443776
0.00101746
0.000400486
0.00257866
0.00126591
0.000967673
0.00218905
0.00108882
0.000912318
0.000932493
0.000816029
0.000493376
0.000476361
0.000669599
0.00188328
0.000826659
0.00154135
0.001706
0.000756385
0.000824964
0.000622164
0.00161841
0.000561176
0.00108867
0.000547745
0.00082246
0.00123214
0.00178009
0.000830773
0.00104263
0.00155846
0.000915754
0.00306372
0.00106955
0.000443943
0.000600644
0.000818101
0.000954116
0.000928559
0.00077408
0.000851307
0.00144006
0.000845863
0.00116866
0.00166083
0.000895114
0.000813345
0.000736267
0.000914811
0.00164234
0.00123009
0.00104023
0.000726784
0.000941913
0.00197342
0.00122064
0.00161329
0.00110383
0.00117496
0.000844737
0.00284804
0.000894049
0.000682206
0.00317848
0.00150356
0.000896685
0.00197604
0.00136323
0.00145164
0.000929387
0.00130951
0.000837114
0.00133063
0.000852682
0.00152529
0.00100905
0.000969709
0.00115103
0.00126709
0.000965255
0.00134216
0.00101768
0.000710108
0.00148851
0.000853519
0.000623844
0.00100175
0.00174315
0.000997894
0.000927593
0.000954443
0.000850529
0.00063068
0.000835275
0.00123036
0.00168441
0.000846088
0.000851124
0.000976007
0.00115355
0.00110707
0.000776815
0.00084018
0.000931613
0.00114947
0.000806069
0.000830245
0.00137575
0.000820595
0.00132105
0.000568657
0.000836938
0.000791766
0.000803025
0.000467023
0.00138691
0.00114677
0.000786309
0.00100308
0.000556024
0.00105243
0.000935184
0.000816836
0.00151229
0.000924652
0.000743933
0.00123303
0.00088129
0.000534055
0.000579324
0.00132445
0.000833982
0.00162461
0.00113704
0.00127135
0.000516189
0.00119091
0.000998083
0.000453887
0.000857112
0.00187744
0.00103529
0.0012648
0.00082044
0.000874295
0.00150337
0.00134123
0.000645876
0.000730231
0.000699363
0.00184676
0.00120103
0.000982885
0.000896369
0.00154046
0.000901792
0.000790719
0.000438692
0.001027
0.000589784
0.000955499
0.000652987
0.00102818
0.000870322
0.000788888
0.000315731
0.00144228
0.00156211
0.000630026
0.0015987
0.00316134
0.000897262
0.00136407
0.000843972
0.000891837
0.00112109
0.00148296
0.000868965
0.00115267
0.000806042
0.000883711
0.000731564
0.00194782
0.000821279
0.00129564
0.00096208
0.0010316
0.00148957
0.000938604
0.000738777
0.00158614
0.00129032
0.000540766
0.000833046
0.00153274
0.000347915
0.000816287
0.000860248
0.000869884
0.00276159
0.000597671
0.000903887
0.000930478
0.00053574
0.00084058
0.000998239
0.00155273
0.000900382
0.000836293
0.000839731
0.000826322
0.000323111
0.000562152
0.0010776
0.000502475
0.00144846
0.000741072
0.00155824
0.00107032
0.000825448
0.0016425
0.00160373
0.000592805
0.000893774
0.000884689
0.00103555
0.000872167
0.000492985
0.00164798
0.00117402
0.000980153
0.00095514
0.00151373
0.000737612
0.00149161
0.000712682
0.0011923
0.00101443
0.00153658
0.000909715
0.000850383
0.00140032
0.00103372
0.000842573
0.000819858
0.000900759
0.000881492
0.00120266
0.000934734
0.000873532
0.00116676
0.00294265
0.00162858
0.00180221
0.000856873
0.0008925
0.000474553
0.00067795
0.00156927
0.000780628
0.00123569
0.00102448
0.000772171
0.000844256
0.000911954
0.00267174
0.00103986
0.00101869
0.000385874
0.00136746
0.00138213
0.000997722
0.00142311
0.00121433
0.000860426
0.00201523
0.00130793
0.000939024
0.000898567
0.000919886
0.00080418
0.00121383
0.0022194
0.000971836
0.000897788
0.000984346
0.000794535
0.000720956
0.0017974
0.00110086
0.00197243
0.000621949
0.00111629
0.0009964
0.00138952
0.00215664
0.00183205
0.00108793
0.000769405
0.000843799
0.00216985
0.00108732
0.00102509
0.00162304
0.00188351
0.000842943
0.00079055
0.000826722
0.000921618
0.000815829
0.000866771
0.00140445
0.000836929
0.0010833
0.000653828
0.00304164
0.00101169
0.00131237
0.002124
0.00192574
0.00144595
0.00143163
0.000885846
0.000919452
0.00190342
0.00105507
0.00116793
0.0011687
0.00182869
0.000845833
0.000716919
0.00148964
0.0013609
0.000959441
0.00135985
0.00078158
0.00153537
0.00167684
0.000884218
0.00162595
0.000907934
0.000774304
0.00200718
0.000872769
0.000844508
0.000814051
0.00133737
0.00106896
0.00200445
0.00133642
0.00203692
0.00165561
0.000834965
0.000900821
0.00145838
0.000521809
0.00166728
0.000873766
0.00151222
0.00111676
0.00109913
0.000854564
0.000937416
0.00115831
0.00221951
0.00195083
0.00148102
0.00122061
0.00074324
0.00104773
0.00240365
0.00081928
0.00128548
0.000977672
0.000992034
0.00225701
0.00133441
0.000900442
0.000352054
0.000676615
0.00148233
0.000806067
0.000480317
0.00109685
0.000856802
0.000683897
0.00142468
0.0020353
0.000877414
0.00100078
0.00072695
0.000878436
0.00147664
0.00188638
0.000904107
0.00156426
0.00102084
0.00124637
0.00150313
0.000566203
0.00130515
0.000722507
0.00141333
0.000696442
0.000959549
0.00172426
0.00124269
0.00141127
0.00189974
0.000890053
0.00176502
0.00162242
0.00107026
0.000866007
0.000964491
0.00110049
0.00110759
0.00288644
0.00081097
0.00105106
0.00147952
0.000842637
0.0020391
0.000915762
0.00123152
0.00176344
0.00157085
0.000796392
0.00128681
0.00146099
0.00130101
0.00143761
0.00123962
0.00103196
0.00178509
0.000837547
0.000829876
0.00148307
0.00101912
0.00143975
0.000878144
0.000919242
0.000916435
0.00079534
0.00218078
0.000949902
0.00156478
0.000878215
0.00073999
0.000783582
0.00156228
0.000870299
0.00145268
0.00087827
0.00176218
0.000808087
0.000737001
0.000893832
0.000806469
0.000595063
0.000693794
0.00117712
0.0005128
0.000528019
0.000579558
)
;

boundaryField
{
    frontAndBack
    {
        type            empty;
    }
    wallOuter
    {
        type            nutkWallFunction;
        Cmu             0.09;
        kappa           0.41;
        E               9.8;
        value           nonuniform List<scalar> 
90
(
8.90744e-05
7.67807e-05
7.78223e-05
7.57179e-05
9.39096e-05
9.22837e-05
8.82098e-05
9.36018e-05
8.00489e-05
8.64614e-05
8.64337e-05
9.55826e-05
8.59678e-05
9.14279e-05
8.80689e-05
8.56686e-05
9.99565e-05
8.13067e-05
7.21421e-05
6.53389e-05
7.84539e-05
0.000100268
8.81219e-05
8.97979e-05
8.01239e-05
9.95207e-05
9.34851e-05
8.79381e-05
9.35626e-05
7.90968e-05
7.4085e-05
7.75034e-05
8.08511e-05
6.77773e-05
5.85424e-05
5.04419e-05
6.30508e-05
5.42659e-05
9.30985e-05
4.94316e-05
6.40532e-05
5.70541e-05
0.000125501
4.81124e-05
6.16598e-05
6.02816e-05
6.84597e-05
0.000133543
6.55398e-05
0.000109026
0.000106058
8.66865e-05
7.53907e-05
0.00010335
0.000103838
5.62598e-05
6.67702e-05
0.000129676
0.000106622
8.94119e-05
6.46999e-05
7.19149e-05
6.16238e-05
0.000121629
9.82126e-05
6.33233e-05
7.80784e-05
5.22152e-05
0.000125193
7.25838e-05
6.65801e-05
4.14847e-05
6.81379e-05
6.47767e-05
0.000110968
5.98938e-05
7.16868e-05
0.00010419
5.8713e-05
0.000119214
5.74577e-05
0.000124196
4.59449e-05
7.51683e-05
8.3449e-05
6.25937e-05
0.000110767
4.21645e-05
8.24961e-05
8.38932e-05
)
;
    }
    inlet
    {
        type            calculated;
        value           uniform 0.000851986;
    }
    outlet
    {
        type            calculated;
        value           nonuniform 0();
    }
    wallInner
    {
        type            nutkWallFunction;
        Cmu             0.09;
        kappa           0.41;
        E               9.8;
        value           nonuniform List<scalar> 
138
(
6.77137e-05
2.58975e-05
0.000121271
6.88401e-05
6.38891e-05
0.000142112
0.000159904
7.17182e-05
7.0223e-05
6.26718e-05
8.23736e-05
0.000127041
9.85546e-05
6.59849e-05
8.07546e-05
5.64635e-05
0.000103839
9.44857e-05
9.84245e-05
8.44429e-05
0.00015871
0.000133783
4.70915e-05
0.000135006
0.000133434
0.000133148
0.000121485
0.000132634
0.000121803
0.000133903
0.000133664
9.34036e-05
9.28652e-05
4.95073e-05
4.42107e-05
4.60623e-05
6.23298e-05
3.31875e-05
4.34567e-05
4.61058e-05
4.64082e-05
6.78237e-05
3.83516e-05
8.22108e-05
5.70817e-05
6.19832e-05
5.12513e-05
5.36507e-05
4.54406e-05
4.64983e-05
5.48712e-05
4.75319e-05
4.55368e-05
5.55477e-05
7.90045e-05
3.56151e-05
4.97979e-05
5.73606e-05
4.10537e-05
5.91337e-05
4.5241e-05
6.83011e-05
6.45784e-05
4.85753e-05
4.40562e-05
5.53457e-05
7.29087e-05
0.000122695
0.00010958
0.000101531
6.88557e-05
0.000125835
9.62141e-05
4.5211e-05
0.000113656
6.61365e-05
0.000113914
0.000103168
0.000114868
5.15428e-05
5.96473e-05
0.000108249
0.000142309
6.89207e-05
6.53511e-05
0.000127117
4.10321e-05
7.93749e-05
0.000128472
0.000123851
6.11922e-05
0.000101874
9.63064e-05
9.87449e-05
7.92761e-05
4.85265e-05
6.09421e-05
5.93445e-05
8.83485e-05
9.84095e-05
6.77568e-05
0.000106744
0.00013989
4.68979e-05
0.000102505
4.97031e-05
4.8316e-05
0.000134105
0.00011951
4.15905e-05
3.44234e-05
0.000132392
5.18126e-05
5.83513e-05
6.12659e-05
0.000126543
0.000100602
7.57517e-05
5.35235e-05
7.47277e-05
7.26645e-05
7.11136e-05
9.96541e-05
5.70091e-05
3.9136e-05
6.86735e-05
0.000106054
8.89751e-05
4.01961e-05
6.20806e-05
8.48658e-05
9.61569e-05
0.000104697
9.97136e-05
7.2843e-05
0.000136381
6.36017e-05
6.97453e-05
)
;
    }
    procBoundary0to1
    {
        type            processor;
        value           nonuniform List<scalar> 
29
(
0.00101987
0.00103573
0.00110757
0.00110757
0.00146826
0.00146826
0.00175198
0.000604239
0.000894212
0.00100685
0.000870746
0.000814604
0.000587782
0.000572609
0.00168063
0.00117586
0.00152004
0.00133643
0.00105633
0.00104445
0.000981846
0.0010145
0.00123158
0.000963922
0.000869061
0.00133643
0.00100818
0.000725696
0.000963922
)
;
    }
    procBoundary0to2
    {
        type            processor;
        value           nonuniform List<scalar> 
42
(
0.00089133
0.000899422
0.000857338
0.0008861
0.00109454
0.00089133
0.000857338
0.000850833
0.00098025
0.000874214
0.0011045
0.00107223
0.0011045
0.000999158
0.000953899
0.000838745
0.000953899
0.000864521
0.000900361
0.000987051
0.000987051
0.000864521
0.000868417
0.000800815
0.000800815
0.00088899
0.000785092
0.000923542
0.000770087
0.00090678
0.00090678
0.00097384
0.00101843
0.00103164
0.00100502
0.000857338
0.000918374
0.000476083
0.000770087
0.000850833
0.00088644
0.000955856
)
;
    }
}


// ************************************************************************* //
