# vtk DataFile Version 2.0
track0
ASCII
DATASET POLYDATA
POINTS 2 double
0 0.210526 1e-06
2.46415e-19 0.631579 1e-06
LINES 2 4
1 0
1 1
POINT_DATA 2
 FIELD attributes 1
U 3 2 float
0 	0 	0
-6.55703e-17 	8.55203e-17 	-8.8296e-40
