/*--------------------------------*- C++ -*----------------------------------*\
| =========                 |                                                 |
| \\      /  F ield         | OpenFOAM: The Open Source CFD Toolbox           |
|  \\    /   O peration     | Version:  v1912                                 |
|   \\  /    A nd           | Website:  www.openfoam.com                      |
|    \\/     M anipulation  |                                                 |
\*---------------------------------------------------------------------------*/
FoamFile
{
    version     2.0;
    format      ascii;
    class       volScalarField;
    location    "0.49";
    object      epsilon;
}
// * * * * * * * * * * * * * * * * * * * * * * * * * * * * * * * * * * * * * //

dimensions      [0 2 -3 0 0 0 0];


internalField   nonuniform List<scalar> 
1431
(
126.694
49.9728
3.08038
5.30419
4.05671
39.2891
0.930814
323.159
53.9866
1.2951
83.694
313.311
19.9383
2.91708
37.4544
1.50631
12.3454
6.94817
6.82056
10.4757
161.416
3.93528
63.708
366.236
61.1146
10.3418
60.2022
13.6953
74.917
48.3495
32.1408
38.9573
29.2779
2.06561
35.9955
8.21457
81.1817
5.49329
2.94179
33.2326
82.7981
89.1113
16.0269
2.06499
73.719
4.77001
32.1232
52.6
0.882352
4.41846
21.6045
2.73922
23.5922
337.84
50.7696
12.7235
4.5306
357.535
34.4711
39.6486
19.334
1.77809
5.4909
6.44785
3.65683
1.39323
17.1335
2.07331
3.71699
4.21227
351.126
2.65401
6.98249
1.95208
3.41637
3.6946
6.58563
5.24123
2.84527
5.61989
16.1461
6.66343
219.44
42.8736
157.484
5.92572
25.4121
42.7917
204.241
259.832
57.2495
8.25284
5.10925
3.44685
61.4647
52.3127
337.311
146.938
1.67897
13.9762
20.0988
1.67833
21.065
22.105
5.8948
56.0402
57.8596
110.873
63.721
26.4373
32.4687
24.8957
2.55516
81.5871
61.0808
3.07689
3.28255
7.48307
7.54835
6.86115
5.49323
55.3067
243.357
3.87264
271.649
6.93747
3.83245
26.3587
4.09764
38.7962
10.6902
9.30921
29.3006
7.38128
19.9327
2.48768
4.33046
1.12832
177.585
7.49075
3.71114
28.5639
25.8451
18.8235
80.0923
29.5915
3.78877
20.9562
3.71065
7.3014
3.45955
4.05938
35.4852
6.5302
48.6488
4.12608
157.96
59.9621
250.783
14.4051
182.709
23.4812
11.7545
17.3838
268.14
98.9582
88.1937
73.5824
4.43659
111.139
215.193
21.211
30.946
184.521
60.1034
156.14
26.565
50.5216
23.8803
33.7035
1.35722
2.83633
23.0795
611.452
46.79
98.5128
143.134
73.4378
37.3353
190.322
32.04
40.5664
39.3142
134.538
7.71763
66.7779
123.612
32.7105
3.22655
108.194
30.1966
12.7366
69.8162
31.7236
20.3639
34.395
54.3671
3.74619
222.078
58.0882
163.487
11.6787
55.8532
57.0357
189.885
22.2167
41.7929
32.8286
21.0449
62.3237
46.6659
23.3052
76.8703
14.5171
51.8993
305.031
93.2536
130.909
43.9273
42.9371
341.391
30.7649
57.4117
36.3298
39.8354
224.646
53.2782
54.3396
30.5748
23.276
19.8217
31.3853
255.042
43.3206
39.8204
12.106
48.3654
72.9317
49.6386
4.26541
19.6227
152.824
13.2339
5.9878
33.1342
71.8543
12.2744
379.086
177.903
42.034
39.2582
175.114
22.2845
23.6405
58.0173
81.2068
44.489
184.476
50.9099
3.88715
73.5236
48.492
42.595
19.0018
169.083
31.4391
159.703
49.3556
70.9412
67.0604
23.8677
61.1958
29.5833
15.6988
36.3065
187.313
75.9214
162.37
177.28
42.1139
3.35154
52.3809
113.074
15.1543
34.9746
43.9629
166.119
112.92
20.1232
80.9008
23.0738
11.2646
35.2527
11.6139
69.205
11.4694
49.9117
42.2151
85.8554
90.442
68.8423
11.9558
1.14616
102.387
49.273
103.406
32.9821
42.5881
1.76046
755.105
42.091
84.968
9.85013
12.737
36.7161
3.07654
12.8427
60.2656
368.138
7.66935
113.914
2.67077
57.8084
5.00507
17.8226
12.3809
59.4404
217.792
38.1739
113.814
8.01679
13.3889
50.9664
76.3229
50.0081
46.3646
37.4485
162.559
53.8884
13.8345
43.884
4.25371
15.4917
41.8889
4.98744
18.3474
167.089
117.878
148.83
79.8441
5.69752
82.2167
95.3401
29.0394
2.19736
95.4257
59.7042
720.435
45.2348
28.3852
87.0999
7.33849
227.2
28.9391
71.3696
465.461
48.6013
17.9379
3.98923
570.413
28.29
40.5688
21.8009
7.04777
874.727
44.5502
29.0219
52.3986
33.593
28.258
22.0991
28.9429
28.4036
10.8122
191.415
18.0333
34.9862
37.6706
64.9642
39.4074
44.2535
67.074
136.018
68.2863
5.33562
34.3601
40.7849
26.3106
31.992
33.0268
52.8877
34.8321
32.0721
10.9934
49.382
6.63667
34.7157
31.413
37.7275
31.2351
56.9625
17.9564
17.445
37.6104
30.5478
12.0322
4.64504
7.64722
2.58667
280.174
38.117
48.6207
52.1548
57.795
52.2406
44.3634
39.8642
44.9938
36.9613
41.8076
6.05477
164.581
3.59985
3.02198
3.40267
1.74355
1.69399
1.76947
34.7278
7.29418
10.7086
3.91303
0.833365
13.4488
0.813088
0.87543
8.77308
322.857
14.1189
9.39613
6.75285
4.48241
304.093
0.940478
11.1232
3.73929
16.5479
295.011
3.39768
284.814
1.70048
2.54957
9.03332
10.308
177.563
153.254
1.91858
4.10463
1.53378
3.72903
7.54296
1.89404
181.545
5.22928
3.71383
8.17375
4.60684
2.85059
4.32739
4.17383
199.824
4.25291
3.39023
4.02508
8.93016
3.25314
2.82582
204.344
3.59315
55.8435
5.28878
5.48023
33.189
6.01573
189.536
153.211
3.68957
4.59665
3.53542
23.5526
4.23225
7.61342
2.27979
2.66511
7.56459
3.52852
4.67762
4.10256
8.95276
162.134
61.8118
4.91717
54.6587
10.3028
5.08586
8.89334
169.048
32.8113
8.30328
23.7289
35.9362
15.0076
8.99809
50.3348
43.5922
2.58145
21.6097
168.346
4.84067
25.0543
28.9822
8.25638
84.7842
9.7168
74.9514
20.6409
25.8618
138.671
31.9854
51.9931
29.9577
5.6146
63.6205
31.8885
3.94491
80.5609
9.32188
6.27422
149.984
237.792
52.6539
146.91
89.1892
10.2672
424.972
11.1722
19.9269
15.8906
6.96353
63.8437
25.587
57.3532
32.9354
7.65308
16.177
32.7031
8.21192
181.759
23.7469
44.2714
26.0708
47.6416
74.2973
35.2572
38.6978
43.2932
38.7435
13.5123
19.6601
34.7647
12.3062
292.609
20.0897
24.2662
53.676
36.1438
4.20924
30.1076
95.2585
199.722
134.105
7.84848
35.5067
12.6904
35.6276
42.1371
83.448
44.003
9.75913
2.49355
8.53252
9.46529
27.6243
22.3795
75.1245
58.8863
215.936
15.9622
4.78173
33.2278
74.0997
36.3974
14.0264
31.3195
9.70195
42.9258
41.9121
11.8061
41.7456
20.5424
12.5794
19.4377
2.43483
29.6746
25.4169
34.2205
324.6
24.9507
83.8548
27.3506
68.1361
112.267
15.4275
34.7388
229.315
8.72902
33.1014
34.7642
220.866
38.2125
6.0253
71.5815
159.068
37.5938
3.23858
37.9409
56.1943
42.7158
3.20672
206.207
194.915
40.9414
13.3478
14.2346
7.85084
19.8337
11.7593
2.69592
21.7537
6.12689
29.6508
89.3917
245.233
38.7247
5.38927
12.1721
250.767
6.06716
59.8324
24.6541
31.3034
15.8227
35.3918
251.929
4.0432
9.10133
13.1644
70.0912
5.02716
177.622
90.2348
39.6609
80.1846
153.172
116.582
56.1191
402.377
66.8416
104.27
65.7277
302.382
33.381
26.8532
132.636
184.09
263.181
137.987
352.791
29.7287
41.5137
68.6647
20.8063
48.1503
49.1434
2.66813
86.0378
8.48793
93.7211
15.0554
78.0001
87.5299
35.569
150.239
20.2813
9.01665
108.708
89.926
13.6432
103.6
123.476
4.41893
149.253
8.6439
17.4755
90.8787
34.1784
74.3769
450.016
263.6
9.86578
53.5736
57.6417
20.5337
74.5068
25.4889
43.3936
15.3359
20.9258
70.4137
1.15894
5.57702
23.1747
52.377
1.20947
466.565
66.0256
59.65
4.49473
43.4608
40.0516
475.079
107.223
40.8635
0.901522
7.96129
59.7955
1.6525
0.954326
36.4865
19.4461
10.3116
56.7935
65.483
67.1744
61.7455
23.4155
84.8785
14.0017
46.6635
37.1631
32.9301
4.93564
20.0325
2.61996
209.514
131.201
48.7328
26.7289
31.6866
27.9672
29.805
8.61546
52.2309
44.6901
48.4075
95.8477
7.35806
54.9539
6.94203
19.2565
33.8662
8.43252
19.9816
32.5698
25.205
620.355
46.2599
42.4516
12.0611
49.376
652.834
36.0514
26.8071
172.108
65.9808
349.701
11.9123
6.72853
64.8186
69.1727
2.50526
87.3268
20.1028
36.0557
254.504
54.633
65.5386
28.1892
5.27137
3.23975
51.2331
483.024
290.597
33.4982
32.7381
319.401
49.2023
65.2217
27.8059
11.9538
20.6563
4.25149
4.05187
46.4173
27.9113
222.508
4.52259
404.751
17.0424
147.413
45.6954
28.5998
7.62363
21.2142
12.382
2.5534
40.9609
69.6224
5.01641
4.8046
20.9418
33.2822
70.8426
25.0689
20.9793
43.3531
18.4964
6.11188
158.719
40.2094
34.2851
530.892
49.5775
132.981
26.782
28.2552
0.94162
143.525
42.7926
101.897
285.803
5.93252
86.213
134.298
552.74
374.984
377.728
70.4315
67.3505
71.7269
78.397
75.2474
71.7369
65.1267
62.3238
55.9352
60.1116
60.5616
66.0369
74.3614
55.1727
57.6813
60.8078
51.5533
65.7611
66.2619
50.36
66.2602
64.6533
50.6401
61.8468
14.412
97.6273
4.514
3.13449
44.6247
3.37948
6.97065
235.035
45.6601
28.2862
3.69341
53.4653
9.46376
375.328
6.20147
2.42016
124.057
70.3383
21.7846
21.978
28.1818
394.121
3.1486
59.0482
35.8715
30.3763
12.838
4.66306
146.787
28.4179
18.3947
15.032
61.1167
11.0967
13.5883
105.2
2.51468
2.48518
5.31663
5.47066
20.2334
72.3869
48.1925
3.779
25.0524
4.47426
19.8061
20.118
7.67013
14.3546
161.969
28.9341
26.7816
121.853
12.8489
13.3867
13.6144
60.0906
14.7207
51.1253
25.0165
56.1451
337.379
2.5187
13.5548
7.08744
11.859
0.920689
862.953
37.6551
49.4568
2.9997
313.472
39.9818
204.089
1.02077
6.7441
10.652
9.66879
2.83164
27.4547
57.7296
313.28
224.758
59.1882
39.0817
4.8882
64.2146
4.10267
51.7114
46.6429
33.8528
55.9287
77.2801
27.4526
80.0049
80.9873
7.84478
3.3637
3.98845
90.1628
77.034
6.73835
32.9033
34.3663
28.1704
13.1279
31.0991
29.8132
171.09
295.495
1.00388
77.9133
50.3464
19.1481
41.1836
402.11
48.2691
46.4201
29.6326
157.526
155.139
12.8541
7.67966
41.5044
32.8918
511.298
173.52
68.4007
31.1082
44.8467
93.9565
32.7817
55.9144
26.4237
342.3
77.3995
331.727
130.439
54.6978
3.07532
38.3256
21.1448
5.08469
18.3386
11.924
13.3782
32.0965
68.4128
40.6831
11.2936
60.9371
156.848
4.78475
6.65725
25.5728
428.546
41.6072
396.041
73.9064
29.9428
464.623
58.6829
525.93
518.66
527.782
362.961
365.452
340.087
513.252
302.596
2.96025
22.72
19.1541
5.50688
12.8485
18.4911
20.5967
47.4984
53.5922
64.9014
58.6828
49.4727
9.40445
23.2996
4.17103
0.841097
24.6235
3.53561
40.9372
76.7278
58.5545
33.0442
5.41823
152.047
41.4161
47.0397
39.5177
44.6726
15.1903
31.8664
761.314
41.2844
5.5363
45.6036
107.467
4.01345
19.5585
158.78
4.08093
48.9615
8.3602
19.7263
7.14131
53.4715
17.0503
19.1577
5.86771
10.9675
4.84319
3.21433
128.196
74.4845
5.24157
3.38414
18.4408
120.229
4.43511
165.235
257.97
45.5955
196.924
29.7955
32.6842
54.245
135.164
20.3924
34.9952
60.4076
107.787
60.4622
52.4774
46.3649
13.5464
4.94553
64.496
17.4286
23.3321
99.2742
222.674
205.339
169.033
35.2583
31.5307
63.9247
5.18615
3.78462
6.72293
16.6165
11.5955
266.676
24.7916
3.12133
124.024
26.0905
3.85116
53.161
4.06313
56.5354
128.983
48.4916
37.9757
4.40458
71.102
68.6751
193.42
61.8564
362.789
2.39226
4.09177
8.04311
287.068
237.112
100.04
54.8097
53.7862
5.06753
382.185
3.88943
54.7034
6.43126
10.1347
5.81966
60.1996
6.00406
68.4993
56.8467
214.326
2.48408
31.8172
13.1785
4.60052
7.51411
3.73909
69.7694
198.436
7.17166
48.3437
154.985
35.8444
22.5385
27.8964
32.9734
4.15989
8.39342
7.90019
40.4208
524.947
31.0912
844.34
51.5358
58.5968
31.9397
108.565
32.5004
1.01912
13.0414
9.91451
140.771
10.2101
95.5951
126.618
77.4174
7.76572
30.5049
3.43903
6.75428
35.3627
225.139
62.7749
230.232
47.0861
6.75598
34.8436
32.3366
25.3247
21.0069
3.87191
3.42503
6.42098
31.0416
263.968
32.1009
31.5564
3.83343
10.2433
43.6385
31.9512
18.2049
526.209
51.2748
63.077
146.83
2.32822
30.3171
39
20.8351
124.68
51.0725
79.3983
54.0064
81.4159
31.8709
61.9047
36.8819
45.7561
385.229
17.1549
7.26606
11.0005
36.9863
75.737
42.6727
54.332
17.0157
324.328
7.50021
7.47701
4.52203
698.104
37.8012
46.0332
2.8012
12.9833
254.254
66.4469
254.699
6.15577
6.13045
50.3708
530.356
27.544
352.175
258.579
4.42565
57.457
154.268
302.548
69.2974
294.567
53.2837
6.63606
89.9563
53.2212
4.42731
109.473
22.645
129.596
445.94
440.073
18.3678
8.02002
38.4783
181.561
10.8831
36.9959
40.5464
334.038
0.87425
42.5595
5.85794
175.453
80.278
48.49
7.76399
4.83209
9.43099
251.097
448.516
7.05498
38.453
7.01749
1.9505
21.6251
36.357
3.03991
44.2829
4.10989
33.5565
33.4768
38.2034
256.91
37.3176
16.1304
44.8676
34.2962
6.49399
8.94498
45.3788
3.29682
5.71563
29.5793
33.5014
39.8068
16.6481
15.1477
252.937
198.4
94.9688
9.72501
5.61935
5.86388
4.31718
44.8908
2.81375
2.03894
12.3229
15.2232
3.44081
5.06179
209.248
45.7902
28.5879
26.601
87.2203
173.237
32.8468
4.92705
2.20079
90.1658
108.126
182.1
5.67142
6.06539
4.50268
14.4003
4.01874
8.75573
21.4164
14.2019
7.01829
97.467
201.905
48.2072
105.89
6.40069
112.755
15.1397
55.5379
141.635
10.4184
15.5933
41.7001
181.127
12.0138
3.78638
55.599
87.9702
66.5191
4.6993
)
;

boundaryField
{
    frontAndBack
    {
        type            empty;
    }
    wallOuter
    {
        lowReCorrection 0;
        type            epsilonWallFunction;
        value           nonuniform List<scalar> 
96
(
74.917
48.3495
52.3127
245.233
250.767
251.929
177.622
153.172
116.582
402.377
104.27
302.382
132.636
263.181
352.791
450.016
263.6
53.5736
84.8785
209.514
95.8477
254.504
54.633
483.024
290.597
70.4315
67.3505
71.7269
78.397
75.2474
71.7369
65.1267
62.3238
55.9352
60.1116
60.5616
66.0369
74.3614
55.1727
57.6813
60.8078
51.5533
65.7611
66.2619
50.36
66.2602
64.6533
50.6401
61.8468
59.0482
72.3869
48.1925
60.0906
51.1253
337.379
59.1882
80.0049
77.9133
50.3464
48.2691
511.298
44.8467
32.7817
342.3
428.546
396.041
464.623
58.6829
525.93
518.66
527.782
362.961
365.452
340.087
513.252
302.596
2.96025
22.72
19.1541
5.50688
12.8485
18.4911
49.4727
58.5545
53.4715
52.4774
362.789
69.7694
524.947
526.209
79.3983
54.0064
27.544
294.567
445.94
38.4783
)
;
    }
    inlet
    {
        type            fixedValue;
        value           nonuniform 0();
    }
    outlet
    {
        type            zeroGradient;
    }
    wallInner
    {
        lowReCorrection 0;
        type            epsilonWallFunction;
        value           nonuniform List<scalar> 
126
(
34.4711
39.6486
19.334
1.77809
5.4909
6.44785
3.65683
1.39323
17.1335
2.07331
3.71699
4.21227
351.126
2.65401
6.98249
1.95208
3.41637
3.6946
6.58563
5.24123
2.84527
5.61989
16.1461
6.66343
13.9762
3.07689
3.28255
7.48307
7.54835
6.86115
5.49323
55.3067
243.357
3.87264
271.649
6.93747
3.83245
10.6902
9.30921
7.49075
3.71114
25.8451
18.8235
3.78877
7.3014
4.05938
6.5302
268.14
1.35722
98.5128
143.134
7.71763
163.487
3.88715
70.9412
67.0604
3.35154
166.119
112.92
80.9008
11.2646
11.9558
1.14616
102.387
3.07654
12.8427
113.914
113.814
8.01679
117.878
82.2167
95.3401
26.3106
31.413
6.01573
7.56459
23.7289
168.346
8.25638
138.671
5.6146
149.984
16.177
181.759
19.6601
292.609
134.105
14.0264
2.43483
229.315
159.068
184.09
137.987
40.0516
132.981
143.525
14.3546
222.674
18.3678
8.02002
90.1658
108.126
5.67142
4.50268
14.4003
4.01874
21.4164
7.01829
97.467
201.905
48.2072
105.89
6.40069
15.1397
55.5379
141.635
10.4184
15.5933
41.7001
181.127
12.0138
3.78638
55.599
87.9702
66.5191
4.6993
)
;
    }
    procBoundary3to1
    {
        type            processor;
        value           nonuniform List<scalar> 
48
(
87.0321
86.3861
87.5578
94.2797
57.9101
98.0617
86.3861
3.85368
55.7588
9.18579
9.18579
12.7555
12.7555
8.3241
10.8207
12.677
5.53608
7.5084
5.53608
3.20647
4.35157
3.02631
3.20647
58.3289
8.04854
2.40864
2.67462
3.02631
2.65139
11.4868
11.4868
2.95416
2.95416
55.7588
2.24653
53.3947
7.85283
8.04854
77.7318
46.858
8.3241
21.659
38.8315
3.20647
12.3269
71.8446
55.0539
6.04534
)
;
    }
    procBoundary3to2
    {
        type            processor;
        value           nonuniform List<scalar> 
29
(
1.9434
1.9434
0.794415
1.44317
29.53
2.13146
7.14889
1.41389
0.853267
0.948145
1.55755
19.4828
2.26781
3.05703
4.43582
4.12395
0.791091
0.804192
1.43878
3.0587
4.0722
0.791091
1.85674
0.804192
3.98706
0.822764
0.804192
15.2015
15.2015
)
;
    }
}


// ************************************************************************* //
