/*--------------------------------*- C++ -*----------------------------------*\
| =========                 |                                                 |
| \\      /  F ield         | OpenFOAM: The Open Source CFD Toolbox           |
|  \\    /   O peration     | Version:  v1912                                 |
|   \\  /    A nd           | Website:  www.openfoam.com                      |
|    \\/     M anipulation  |                                                 |
\*---------------------------------------------------------------------------*/
FoamFile
{
    version     2.0;
    format      ascii;
    class       volScalarField;
    location    "0.49";
    object      nut;
}
// * * * * * * * * * * * * * * * * * * * * * * * * * * * * * * * * * * * * * //

dimensions      [0 2 -1 0 0 0 0];


internalField   nonuniform List<scalar> 
1431
(
0.00554397
0.0148853
0.000925236
0.00258949
0.00114272
0.00659644
0.00109842
0.00828881
0.00629121
0.000703342
0.00319245
0.01125
0.00731689
0.00126378
0.00189839
0.00100919
0.00135552
0.000957314
0.00102209
0.00130822
0.0039751
0.00249161
0.00521143
0.013696
0.00538486
0.00344225
0.00290803
0.00153528
0.000916706
0.000849428
0.00233446
0.00276878
0.00218873
0.000788779
0.00894405
0.00300264
0.0127461
0.00121002
0.00121155
0.00247691
0.00733903
0.00996009
0.00580227
0.00155555
0.00299875
0.00124242
0.00235873
0.00279328
0.0013003
0.00217342
0.00864169
0.00180871
0.00866316
0.0124636
0.0143766
0.00367693
0.000708657
0.0129218
0.00163525
0.00161394
0.00167257
0.000628852
0.000761591
0.000961585
0.000512869
0.000366883
0.00125338
0.000580825
0.000715919
0.000680864
0.00389366
0.000725009
0.000853538
0.000560057
0.000856405
0.000657372
0.00085283
0.000758901
0.000746167
0.000942663
0.00139686
0.000795279
0.0126885
0.0030284
0.00552279
0.00378773
0.0042159
0.00314799
0.00928319
0.0122949
0.00164335
0.00119133
0.00127402
0.00148994
0.0130894
0.000796202
0.0114637
0.018803
0.00160561
0.00119365
0.00572775
0.00141472
0.00172146
0.00149237
0.00116189
0.00290181
0.00330483
0.00289459
0.00436114
0.00175496
0.00167547
0.00859957
0.00155641
0.00585929
0.0153249
0.0008989
0.000827305
0.00101033
0.000837146
0.000743016
0.00071576
0.00191167
0.00219935
0.000704675
0.00266718
0.000806682
0.000853701
0.00277241
0.00158423
0.00867945
0.000964851
0.000827156
0.0101101
0.000891299
0.00156659
0.00152844
0.00243868
0.00108039
0.0112503
0.000771918
0.000740297
0.00230303
0.00127595
0.00106101
0.00534795
0.00206036
0.000668374
0.00715633
0.00129944
0.000994546
0.0010792
0.000881161
0.00263581
0.000860964
0.00380259
0.00235584
0.00840307
0.0146975
0.0129261
0.00729
0.0142294
0.00843852
0.00199363
0.00589737
0.00290385
0.00516098
0.00472265
0.014039
0.00215459
0.0178835
0.0151811
0.008239
0.00245221
0.0115484
0.0155802
0.00788452
0.00906191
0.00454565
0.00897213
0.00934726
0.000393577
0.00178022
0.00936075
0.0168879
0.00472704
0.00133154
0.0015147
0.0162655
0.00296742
0.00636619
0.00281245
0.00301017
0.00308928
0.00307277
0.000861978
0.014173
0.0180434
0.00799377
0.000719114
0.00230086
0.0119002
0.00274811
0.00325885
0.0054319
0.00777821
0.00296099
0.00285702
0.000617089
0.0129643
0.00356527
0.00199835
0.00129973
0.0033577
0.00288416
0.0104656
0.00151213
0.00324903
0.00805608
0.00887225
0.00313631
0.00361035
0.00952532
0.00230858
0.00424407
0.00394708
0.014959
0.00356442
0.0185081
0.00308239
0.00262672
0.00543034
0.00232962
0.00302609
0.00295018
0.00294092
0.0168701
0.00342172
0.00318881
0.00267415
0.0102387
0.00930706
0.0110721
0.0139146
0.00311471
0.00304927
0.00191493
0.00325267
0.00314731
0.00379981
0.00229002
0.00265491
0.0112996
0.00667238
0.00195724
0.00291868
0.00949641
0.00597525
0.0158547
0.0176508
0.00315462
0.0015879
0.0111013
0.00917033
0.00815925
0.00415953
0.00356536
0.00888363
0.00349178
0.00277674
0.000502226
0.00472076
0.00341173
0.0140791
0.00875791
0.0129138
0.00224591
0.0121923
0.00300647
0.00113723
0.001574
0.00916428
0.0118029
0.00206179
0.00689196
0.0123475
0.0178831
0.00937717
0.018576
0.00485244
0.0138904
0.000528383
0.00845102
0.0180171
0.00717906
0.00248028
0.00277147
0.00176932
0.00149062
0.00181627
0.00118427
0.00833528
0.000825509
0.0130915
0.00557507
0.00305607
0.00518364
0.0143028
0.00299645
0.0108755
0.0170593
0.0123588
0.000838806
0.000422179
0.0013183
0.00725047
0.0168206
0.00831343
0.0133729
0.000990021
0.0112972
0.0131031
0.0156665
0.000904072
0.00505799
0.00709444
0.000654474
0.00087832
0.00755381
0.0142432
0.00227413
0.00130823
0.00107935
0.00731012
0.00252987
0.00856737
0.00552413
0.00896153
0.0173977
0.0066882
0.0013534
0.000754407
0.00551805
0.00899588
0.00672732
0.00651693
0.00291167
0.0133193
0.0123014
0.0111267
0.00669588
0.00474681
0.000932169
0.00574132
0.0120723
0.00105727
0.0073251
0.00503235
0.00180241
0.00999307
0.00853333
0.0024656
0.00134226
0.00123315
0.0120258
0.00104131
0.00307549
0.0060856
0.0162826
0.00279246
0.00231826
0.00320049
0.00142916
0.0106045
0.0108543
0.00716479
0.0176599
0.0131742
0.00499411
0.00279733
0.0177348
0.00932513
0.00603669
0.00496474
0.00114161
0.0149709
0.00688207
0.00995994
0.00617223
0.00665934
0.010546
0.0100989
0.00977814
0.00963843
0.00432236
0.0167002
0.00701452
0.00985398
0.0100021
0.00593355
0.00764795
0.0113563
0.0074024
0.0171627
0.0095305
0.00267088
0.00949666
0.00629625
0.000806689
0.0113226
0.00953631
0.0125504
0.00796656
0.00958241
0.00564396
0.00612136
0.00088975
0.010632
0.000841417
0.00751972
0.00963217
0.00396671
0.00713062
0.00765344
0.0112524
0.00969851
0.00155947
0.00134543
0.00137351
0.0018915
0.0126353
0.0100486
0.0112645
0.0116571
0.0122896
0.0117244
0.0109169
0.0104161
0.0108997
0.0101069
0.0107496
0.00121117
0.0107672
0.00100266
0.000925899
0.00095899
0.00098527
0.00100145
0.000960692
0.00313628
0.00242855
0.00219647
0.00202749
0.00115497
0.00205559
0.000960576
0.00131689
0.00241087
0.0149291
0.0021185
0.00332443
0.00255422
0.00174064
0.0141329
0.00139168
0.00380025
0.00173245
0.00195529
0.0134902
0.00186856
0.0127884
0.00135894
0.00160974
0.00134088
0.0023397
0.0111695
0.0108676
0.00189045
0.00242692
0.00109774
0.00174062
0.00236529
0.00108106
0.0110568
0.00296526
0.00110865
0.00211413
0.00117024
0.00108562
0.00238035
0.00262818
0.0106735
0.00238535
0.00202445
0.00235955
0.00158692
0.00129422
0.0017165
0.00989403
0.00252237
0.00249015
0.00201452
0.00165767
0.0022162
0.000487161
0.00930803
0.0107732
0.00112313
0.00323575
0.00238717
0.0019049
0.00205991
0.0017428
0.00128023
0.00203181
0.000444975
0.00249864
0.00179447
0.00218689
0.00192411
0.0102914
0.00311194
0.00297562
0.00336057
0.00347655
0.00197568
0.00526948
0.00813147
0.00244138
0.00131184
0.000770968
0.0128341
0.00547892
0.00379242
0.00329989
0.0107569
0.0021249
0.00490641
0.0017212
0.00229725
0.00175786
0.00939443
0.000746005
0.00607056
0.00449454
0.00373807
0.00483251
0.0103245
0.00153916
0.00962723
0.011368
0.0101074
0.000535167
0.00752229
0.00967361
0.00196577
0.00273933
0.00582984
0.00256072
0.00161735
0.0046858
0.0114311
0.00801461
0.0137553
0.00458227
0.00667678
0.0024652
0.00750294
0.00506973
0.00414802
0.00962477
0.00937593
0.00652889
0.00973481
0.00430549
0.000714407
0.00662669
0.00382238
0.00176004
0.00829721
0.0107578
0.00933293
0.00545625
0.00338932
0.00974799
0.0104357
0.00363544
0.0029638
0.00590644
0.000794072
0.00303942
0.0059557
0.00181456
0.00792113
0.00973576
0.00401983
0.0100586
0.00180541
0.0100232
0.0172629
0.0121815
0.00155677
0.00373262
0.00954454
0.00421654
0.00728579
0.00525372
0.00151293
0.0100196
0.00272372
0.000964907
0.00457846
0.00319354
0.00941972
0.00820104
0.00438036
0.00831525
0.00424585
0.00789532
0.00313342
0.00948179
0.0162104
0.0125447
0.000672273
0.0095867
0.00467924
0.00466698
0.0104725
0.00210073
0.00811835
0.00773962
0.00606687
0.00668043
0.000456172
0.00941767
0.00941582
0.00842289
0.00886774
0.0110238
0.00410121
0.0111459
0.00588133
0.0153586
0.00819537
0.00964852
0.00185679
0.00440379
0.0067983
0.00690517
0.00393422
0.0122135
0.0036605
0.0113549
0.00160785
0.00908193
0.00114314
0.00588463
0.00582989
0.00481889
0.00242819
0.0131794
0.015895
0.0101751
0.00508166
0.00686768
0.00328409
0.00208002
0.00174302
0.00208908
0.0078768
0.000925913
0.00975609
0.0149202
0.00167548
0.0105874
0.00335344
0.0017773
0.00169681
0.00250225
0.00361011
0.0110594
0.0123034
0.0067136
0.0115498
0.00167499
0.0011
0.00185959
0.00635904
0.00457376
0.00121287
0.0013698
0.00364475
0.00267893
0.00583191
0.00130886
0.00112602
0.0118159
0.00174091
0.00348214
0.001016
0.00883768
0.00155581
0.0092871
0.00932806
0.0012296
0.00193932
0.00175987
0.00150974
0.0016435
0.0111772
0.00822303
0.00521024
0.0051532
0.00292569
0.00371453
0.000987568
0.00574884
0.00479271
0.00315903
0.00702664
0.00460268
0.00643012
0.00296563
0.0110189
0.00833062
0.00236463
0.0102153
0.00321159
0.00572499
0.00299017
0.00353187
0.00228815
0.0170844
0.00387212
0.00884555
0.00401196
0.00271467
0.0058249
0.00185387
0.00166241
0.0062495
0.000889012
0.00605178
0.00987953
0.0036522
0.00807674
0.00501461
0.00245333
0.00189832
0.00429089
0.00147886
0.00269658
0.0097744
0.0121068
0.0014586
0.0143152
0.00420199
0.00816367
0.000847737
0.00613778
0.000916607
0.0163507
0.00417114
0.00325991
0.000867954
0.00190884
0.00330827
0.00122176
0.00122344
0.00943586
0.00807867
0.00436997
0.00296688
0.00367643
0.00612429
0.00693468
0.00932535
0.00102467
0.00282492
0.00924464
0.00282904
0.010182
0.00204367
0.00841028
0.00190431
0.00143726
0.00830483
0.00446827
0.00984229
0.00259138
0.010285
0.00287452
0.00129975
0.0029885
0.00984888
0.00300268
0.000964864
0.00513403
0.00277968
0.00477092
0.00762823
0.00260516
0.00243647
0.00212541
0.00913462
0.00831984
0.00887442
0.00304464
0.00706119
0.00250666
0.00435803
0.0156485
0.00595268
0.0108322
0.00962347
0.0110728
0.0158363
0.00561529
0.00128522
0.0122373
0.00500009
0.00088978
0.00371282
0.00847924
0.0101409
0.00150062
0.000897923
0.00956525
0.00229885
0.00132862
0.00210059
0.0113181
0.00194994
0.00160065
0.00262668
0.0114972
0.0131323
0.0023491
0.0125808
0.00934527
0.00572596
0.00825508
0.00204253
0.00262329
0.00267534
0.00952751
0.0160382
0.00258787
0.0167213
0.00329942
0.0149389
0.00307347
0.00231458
0.0039262
0.00764937
0.00147821
0.000849376
0.0100144
0.00428435
0.00165722
0.00158908
0.00761218
0.011017
0.00463041
0.0100496
0.00807329
0.00845752
0.00763089
0.0017331
0.0119433
0.00882459
0.0101421
0.00835141
0.00954012
0.0013019
0.00244916
0.00212276
0.00123368
0.00220573
0.00811795
0.00349947
0.011874
0.00371723
0.00416143
0.00275199
0.0101924
0.013741
0.00619756
0.000843272
0.000943817
0.000897803
0.000770138
0.000823731
0.000946759
0.000937902
0.000691496
0.000824139
0.000738589
0.00074882
0.000751496
0.00101816
0.000843474
0.000738221
0.000726994
0.000886731
0.000890577
0.000845895
0.00088174
0.000810472
0.000817937
0.000850544
0.000846918
0.00676387
0.0102828
0.00198249
0.00214614
0.00494881
0.00237809
0.00131994
0.00618109
0.00254033
0.00226988
0.00193656
0.00227507
0.00442672
0.0152558
0.00166623
0.0013434
0.012379
0.00375155
0.00816951
0.00242287
0.00487437
0.0168477
0.00106977
0.000860857
0.00860397
0.0106989
0.00147941
0.00207853
0.00903722
0.00148498
0.00249213
0.00677006
0.00774585
0.00471183
0.00652462
0.00632666
0.00179995
0.00169587
0.00137881
0.0035877
0.00856458
0.00100989
0.000855433
0.00207386
0.00941184
0.00243647
0.00279794
0.00216233
0.00265077
0.000598903
0.00892046
0.00931445
0.00956333
0.00219603
0.00149963
0.00231143
0.00754934
0.000794806
0.00204319
0.00100317
0.00894368
0.00302988
0.00143093
0.000888001
0.00163214
0.0010946
0.0053357
0.00116803
0.0126054
0.00934347
0.0031973
0.00148036
0.0101686
0.00921089
0.0177721
0.0013319
0.00214654
0.00657286
0.00185832
0.00122336
0.0096336
0.00309749
0.00519048
0.0115418
0.000828777
0.00927148
0.0031634
0.00267772
0.00212644
0.00382599
0.00283998
0.00295375
0.00406013
0.00337864
0.00810544
0.00109071
0.0113526
0.00512029
0.00189612
0.0019087
0.0030039
0.00201342
0.000847121
0.00941935
0.0119789
0.0100987
0.000887832
0.00985652
0.0103794
0.00709313
0.00481573
0.000912027
0.000823743
0.000810637
0.0066363
0.00949586
0.0139495
0.000854131
0.00609705
0.00229522
0.0130317
0.0101016
0.00656328
0.00168701
0.00305061
0.00949109
0.00201807
0.00580619
0.0112143
0.0102441
0.000934119
0.00257927
0.000815804
0.00947535
0.0105711
0.00210258
0.012621
0.0102448
0.00944027
0.00880069
0.00136204
0.00916997
0.0073955
0.00125691
0.00250314
0.00698114
0.0034339
0.00970357
0.0119028
0.00730194
0.00486914
0.0115704
0.0125935
0.00119557
0.00175685
0.00887636
0.00206698
0.00864419
0.00231423
0.0129793
0.00943897
0.00203494
0.00084009
0.00195495
0.00182599
0.00176968
0.00229272
0.00202419
0.0019246
0.00189921
0.00193492
0.000403802
0.000643796
0.000531325
0.000439126
0.000401935
0.000540065
0.00803542
0.00227932
0.01144
0.00289746
0.00995264
0.000841047
0.00264026
0.0070529
0.00212178
0.00127476
0.00902731
0.00200099
0.00338686
0.00887856
0.00107093
0.0028158
0.00151818
0.0112568
0.0102093
0.00352242
0.00866726
0.00288715
0.0056149
0.0105893
0.0137184
0.00352612
0.00112468
0.00373591
0.0157354
0.00246473
0.00839457
0.0062118
0.0027006
0.00825302
0.00125043
0.00248248
0.00504267
0.000755643
0.00276616
0.00210808
0.0011636
0.00159493
0.0012
0.00134611
0.0164592
0.0116593
0.00245372
0.0020499
0.00704434
0.00252003
0.00205227
0.00516222
0.00946245
0.0110993
0.00692852
0.00234696
0.00213905
0.00374586
0.00428415
0.00303798
0.00938112
0.00352166
0.00338773
0.0114091
0.000788302
0.00276442
0.00229734
0.00189727
0.0109471
0.00348816
0.00916902
0.00384377
0.00198175
0.00828689
0.0176112
0.00277833
0.0118379
0.00174552
0.00121084
0.000961706
0.00305943
0.00166583
0.00122181
0.0121493
0.00879755
0.00195231
0.0035488
0.00930016
0.00223263
0.0112164
0.0014164
0.00412566
0.00445307
0.00274822
0.0090555
0.00187203
0.00333292
0.00572356
0.00461833
0.0116842
0.00143111
0.0015857
0.00130441
0.00130402
0.00736345
0.0129538
0.00594808
0.010633
0.00725262
0.002238
0.0159433
0.00125071
0.00356135
0.0019957
0.00135475
0.00125171
0.0109374
0.00323511
0.00133838
0.00338272
0.0099702
0.00159195
0.00962501
0.00421948
0.00237591
0.00308968
0.000876564
0.00109842
0.0122767
0.00181753
0.0107162
0.00705952
0.00948891
0.00814221
0.00978776
0.00203907
0.00289505
0.00109899
0.00125988
0.00839597
0.0020609
0.00983471
0.0174451
0.00268885
0.00736985
0.00986643
0.00587732
0.00911103
0.000707177
0.00579907
0.00246367
0.00232249
0.00198115
0.00414914
0.00546051
0.00478165
0.000996894
0.0115076
0.00205073
0.0043568
0.00859023
0.00917434
0.0102383
0.00504527
0.00670485
0.00337431
0.00856029
0.00957512
0.00287844
0.00222556
0.00095823
0.00224539
0.00379311
0.00985879
0.00596015
0.00943823
0.00981906
0.00142884
0.00297598
0.00279214
0.00928547
0.00153923
0.00203403
0.0100945
0.0125074
0.00948408
0.00128934
0.00980976
0.00900923
0.00874672
0.00434934
0.00352191
0.000760086
0.00075782
0.00173786
0.0030485
0.0018456
0.00295931
0.00372875
0.0147338
0.00774317
0.00119639
0.00220307
0.00952149
0.00310601
0.00283545
0.00297389
0.00156588
0.0142273
0.00196255
0.00289599
0.0014697
0.016978
0.00759924
0.0102795
0.00168809
0.00398488
0.00353057
0.00814846
0.0078184
0.00178871
0.00350307
0.00560836
0.0172001
0.00073731
0.00665885
0.0127147
0.00256277
0.00402061
0.00487988
0.0100176
0.0124731
0.00189441
0.00650738
0.000846709
0.00956836
0.00171663
0.00138339
0.00566128
0.00365509
0.010764
0.00110049
0.012719
0.000768806
0.000648142
0.000878841
0.00604884
0.00585903
0.00232216
0.00219587
0.0146465
0.0013163
0.00620234
0.00137005
0.0117696
0.00208308
0.00265974
0.00188233
0.00247244
0.00405524
0.00992141
0.0173335
0.00344933
0.00808459
0.00166591
0.00171409
0.0014547
0.00259295
0.00157285
0.00806185
0.00290747
0.00204078
0.00230247
0.0026278
0.0116486
0.00256022
0.00189776
0.002782
0.00246721
0.00263141
0.00528502
0.00808978
0.00221347
0.00371061
0.00230933
0.0026313
0.00344123
0.00209015
0.00109254
0.0108084
0.00867699
0.00211198
0.00213195
0.00382037
0.00272112
0.00182248
0.00330019
0.00136606
0.00131443
0.00299126
0.00296231
0.000910467
0.00311211
0.0143942
0.00249325
0.00224685
0.0090375
0.00291712
0.00940854
0.00926444
0.00298308
0.00161827
0.00127811
0.00139416
0.00359873
0.000829843
0.0011507
0.000527449
0.000766959
0.000537203
0.00104771
0.000933824
0.00382109
0.00049734
0.0020545
0.00279923
0.00155802
0.00190465
0.000620532
0.00131573
0.000718752
0.00118333
0.00169852
0.000646806
0.000778317
0.0016059
0.00189527
0.000863052
0.000526288
0.00139134
0.00195038
0.00147581
0.000616336
)
;

boundaryField
{
    frontAndBack
    {
        type            empty;
    }
    wallOuter
    {
        type            nutkWallFunction;
        Cmu             0.09;
        kappa           0.41;
        E               9.8;
        value           nonuniform List<scalar> 
96
(
0.00011012
0.000101121
9.53712e-05
0.00018944
0.000191463
0.000189502
0.00015921
0.00015256
0.000132411
0.00019843
0.000120138
0.000179119
0.00014386
0.000197722
0.000188305
0.000210086
0.00018829
0.000106532
0.000121017
0.000166561
0.000114368
0.000173321
0.000107597
0.000219878
0.000181899
9.94167e-05
0.000113156
0.00010793
9.32455e-05
9.94405e-05
0.000110818
0.000112474
8.35502e-05
9.90534e-05
8.91097e-05
9.01904e-05
8.92597e-05
0.000118611
0.000101038
8.8088e-05
8.66615e-05
0.000105898
0.000107066
0.000101928
0.000105262
9.78284e-05
9.86624e-05
0.000101646
0.000101968
0.00010353
0.000120678
0.0001019
9.58595e-05
0.000118347
0.000164039
9.98169e-05
0.000126493
9.94633e-05
9.66282e-05
0.000101827
0.000226725
0.000110482
9.66082e-05
0.00023176
0.000231121
0.000256338
0.00022784
0.000101039
0.000219763
0.000206318
0.000200386
0.000254151
0.000226633
0.000216308
0.000213822
0.000217309
4.58385e-05
7.58931e-05
6.22136e-05
5.01061e-05
4.62438e-05
6.28379e-05
0.000100396
0.00012598
9.06578e-05
9.43962e-05
0.000164335
0.000129127
0.000230957
0.000228038
9.2086e-05
9.04989e-05
8.7228e-05
0.000211116
0.000128443
0.000104047
)
;
    }
    inlet
    {
        type            calculated;
        value           nonuniform 0();
    }
    outlet
    {
        type            calculated;
        value           nonuniform List<scalar> 9(0.0162826 0.0149709 0.00151293 0.0143152 0.00887442 0.00481573 0.00210258 0.00252003 0.00946245);
    }
    wallInner
    {
        type            nutkWallFunction;
        Cmu             0.09;
        kappa           0.41;
        E               9.8;
        value           nonuniform List<scalar> 
126
(
0.000182711
0.000184689
0.000182823
7.87431e-05
9.6666e-05
0.000118064
6.38308e-05
4.49245e-05
0.000142984
7.26664e-05
8.59683e-05
8.20392e-05
0.000413517
8.66367e-05
0.000103739
6.69273e-05
0.000102044
7.79919e-05
9.82259e-05
9.59697e-05
9.57876e-05
0.000108618
0.000155795
9.82164e-05
0.000143188
0.000103953
9.86325e-05
0.000121527
0.00010206
9.32918e-05
8.56157e-05
0.000214008
0.000243236
8.47469e-05
0.000292757
0.000101955
9.79322e-05
0.00010816
0.000101055
9.4939e-05
9.08897e-05
0.000144115
0.000119972
8.44765e-05
0.000111418
0.000104324
0.000105121
0.000311126
4.79937e-05
0.00015624
0.000174871
0.00010355
0.000224823
5.92695e-05
0.000134763
0.000182614
6.40914e-05
0.000201991
0.000173464
0.000139968
0.000101466
0.000105403
5.36879e-05
0.000152372
7.87131e-05
0.000107717
0.00015348
0.000157441
9.34009e-05
0.000204253
0.000157474
0.000145302
9.90533e-05
0.000103389
6.16644e-05
5.69339e-05
9.45116e-05
0.000197202
8.95481e-05
0.000177185
6.65182e-05
0.000185815
8.84594e-05
0.000201163
9.74519e-05
0.000207286
0.00017867
8.40017e-05
5.68166e-05
0.000211708
0.00018486
0.000220293
0.000174187
0.000112414
0.000151543
0.000247836
7.52266e-05
0.000223174
9.35047e-05
7.29864e-05
0.000146482
0.000162996
0.000100965
6.66755e-05
9.39526e-05
6.64146e-05
0.000116317
6.15596e-05
0.000229569
0.000299737
0.000186479
0.000214994
7.44127e-05
8.72817e-05
0.000140292
0.000194722
7.73409e-05
9.44194e-05
0.000185589
0.000216259
9.99782e-05
6.71516e-05
0.000157796
0.000219796
0.000171291
7.23555e-05
)
;
    }
    procBoundary3to1
    {
        type            processor;
        value           nonuniform List<scalar> 
48
(
0.0127139
0.00565624
0.00768747
0.01166
0.00382179
0.00408149
0.00565624
0.00240698
0.0120494
0.00188352
0.00188352
0.00194287
0.00194287
0.00338831
0.00380418
0.00182861
0.00120753
0.00135828
0.00120753
0.00121683
0.00272941
0.00221031
0.00121683
0.00269479
0.00161324
0.00119924
0.00217127
0.00221031
0.00218705
0.00115567
0.00115567
0.00226944
0.00226944
0.0120494
0.0012831
0.00305432
0.00328099
0.00161324
0.0130746
0.00338615
0.00338831
0.0062927
0.00967453
0.00121683
0.00381134
0.00107591
0.00389579
0.0030928
)
;
    }
    procBoundary3to2
    {
        type            processor;
        value           nonuniform List<scalar> 
29
(
0.00159504
0.00159504
0.00034229
0.000438137
0.00112777
0.000472379
0.00073181
0.00172266
0.00134539
0.00108007
0.00129886
0.00284014
0.00107672
0.00262746
0.00171023
0.00271676
0.000884495
0.00119951
0.00196379
0.00214095
0.00202972
0.000884495
0.000353666
0.00119951
0.00107549
0.000661676
0.00119951
0.00417182
0.00417182
)
;
    }
}


// ************************************************************************* //
