/*--------------------------------*- C++ -*----------------------------------*\
| =========                 |                                                 |
| \\      /  F ield         | OpenFOAM: The Open Source CFD Toolbox           |
|  \\    /   O peration     | Version:  v1912                                 |
|   \\  /    A nd           | Website:  www.openfoam.com                      |
|    \\/     M anipulation  |                                                 |
\*---------------------------------------------------------------------------*/
FoamFile
{
    version     2.0;
    format      ascii;
    class       volScalarField;
    location    "0.49";
    object      p;
}
// * * * * * * * * * * * * * * * * * * * * * * * * * * * * * * * * * * * * * //

dimensions      [0 2 -2 0 0 0 0];


internalField   nonuniform List<scalar> 
1431
(
100.86
95.1278
95.4848
93.3091
90.7393
88.4233
91.8784
36.5754
93.2255
91.9325
44.1707
41.2891
94.535
83.2271
91.3941
91.7119
85.0581
97.12
85.5817
95.8328
40.0733
83.2665
94.2874
22.4294
93.1666
94.8788
49.7806
92.5414
96.6154
81.0688
85.7484
93.244
86.1289
82.9662
90.1551
90.326
96.2596
93.6642
91.8149
92.3137
96.2413
96.3075
94.9037
91.6285
84.8886
92.7011
83.2435
53.5459
91.8827
93.5834
90.6743
91.4299
90.8666
50.7509
95.7128
91.8854
89.9066
45.2442
83.2209
94.5881
92.7748
91.8007
94.631
93.8493
91.9409
92.1426
94.7005
94.491
92.1453
85.0578
43.9549
82.9971
94.2182
82.9318
83.6606
93.0121
95.1605
93.8775
91.8671
97.4359
84.5091
92.8881
94.3175
83.7765
42.5207
91.9663
92.326
88.9643
51.4277
75.198
90.6639
89.4499
93.6052
91.408
96.5655
85.9333
41.6311
93.0172
91.6899
91.4671
91.9441
91.7593
83.5033
96.8152
93.1854
85.0143
92.5324
54.8947
91.2625
83.0616
96.5381
94.2081
95.3063
95.7025
96.2103
91.963
83.0767
93.9358
92.3492
94.3835
85.8716
90.248
51.923
84.3043
41.176
91.3563
95.3101
88.4438
95.4656
94.0239
85.1639
96.6272
93.4904
84.7704
96.3657
94.6844
92.2392
91.7774
48.3154
94.4431
91.9579
83.7617
84.0022
97.3787
97.8743
85.9067
94.7588
91.4931
91.6132
93.1851
94.6356
92.8056
92.4343
91.8167
92.4603
92.4152
49.8922
93.4816
86.2011
91.9469
66.3085
94.6093
93.3246
92.1273
53.5923
96.8064
94.7
97.2047
93.5595
95.9849
65.3857
91.6507
90.0021
50.7558
95.2075
48.4076
92.9616
86.678
90.8702
90.1615
91.9881
91.4578
91.5552
26.242
87.8558
90.8449
50.5025
94.8035
89.4781
49.7944
85.9686
90.447
92.2591
57.656
93.0417
90.8871
91.0378
89.4439
91.9844
96.5434
93.1982
93.1577
63.1902
92.8116
93.6307
86.0848
93.13
93.039
52.3719
95.3936
36.8905
93.4318
93.0258
85.1737
45.1994
91.9695
92.4973
88.9164
90.9286
66.5527
93.672
91.8684
88.7115
92.439
92.5145
49.3046
64.3502
94.9451
93.241
64.8655
36.0095
85.941
86.2988
91.9631
93.2394
77.5183
93.3403
87.042
86.0646
92.6301
92.5958
91.2758
51.5368
87.52
90.0825
85.7456
88.3615
58.927
94.7182
92.738
87.4801
49.4396
91.9375
93.8129
86.0987
96.0233
92.0385
44.8056
85.2673
92.2222
92.8351
50.6921
91.2299
92.5695
93.6993
70.5162
92.8894
59.456
57.7398
89.9575
92.7972
93.181
94.8411
92.4119
58.704
89.54
53.2969
79.6604
86.4458
93.4626
91.5675
95.4103
85.6068
90.5275
94.5085
92.0591
96.1888
89.7888
48.2194
94.0733
92.4019
93.3665
93.0926
91.9986
67.9291
93.6965
50.63
91.0189
91.7628
85.2627
91.132
93.0309
94.3166
93.1052
85.1078
92.2502
94.1192
91.433
96.5256
96.5046
87.0102
90.7983
92.096
58.0818
92.7298
91.2107
89.7963
95.1112
90.4235
34.3345
92.867
91.9666
92.3176
92.0734
90.0968
95.4039
91.6607
93.1646
58.0096
93.5926
82.7088
91.5069
93.1953
83.7303
92.2876
93.5911
94.1447
83.2089
89.45
55.6236
92.8175
94.0104
80.1822
96.2151
92.1166
86.199
94.1496
51.7768
86.2342
92.1734
89.1335
91.3435
92.0524
91.0202
92.2428
90.714
39.9364
37.206
48.6482
96.4094
82.984
92.2914
83.0936
93.8308
91.2066
42.4184
92.9776
12.8203
96.0528
81.3086
55.6244
90.5818
56.759
91.4504
96.8162
54.0289
92.0181
91.8245
95.7451
50.7755
94.6181
88.55
91.0011
93.0656
13.8458
92.1406
90.5138
91.9738
89.5525
91.1627
92.9856
90.4547
90.5873
92.559
79.8459
92.0938
93.5192
94.0128
92.7472
89.9884
89.1358
96.5017
87.2793
95.5048
91.1963
92.9534
89.2197
91.3197
93.9545
92.5818
89.9336
90.2077
92.268
94.8705
91.9463
91.6511
90.239
91.0452
88.6536
92.0227
96.5673
94.8798
90.6426
90.4415
91.8062
90.7336
95.393
86.2046
95.6423
33.0923
95.6907
96.2024
95.9235
96.5084
95.4746
95.2094
95.3221
95.1848
95.1684
94.9528
91.7903
45.3575
91.6932
90.7012
90.6251
90.0941
90.4975
90.7044
83.5152
82.8357
82.931
94.3221
91.8507
89.9367
92.0349
91.7168
82.9267
53.7815
89.3426
95.0426
82.7355
94.194
52.7638
91.6154
94.6034
94.5416
93.4238
51.4553
94.512
47.4567
91.5085
91.4379
95.759
83.5183
46.8227
46.5435
94.6483
92.2478
90.194
91.2397
83.9534
90.6487
45.7612
90.3673
90.9455
84.125
95.7554
90.5127
95.4541
91.9781
43.821
90.582
95.5705
92.4598
85.0286
95.2776
95.5791
41.6845
90.562
89.4862
94.1487
94.2205
91.5684
94.0868
42.1621
47.5429
91.9982
90.3339
90.8575
88.2885
93.1887
86.0011
95.1663
95.7517
93.6884
93.796
94.2851
93.0363
85.7988
45.1554
83.5493
90.6605
88.7315
92.9594
93.7725
92.1636
40.9033
91.9521
92.08
91.5679
93.8348
90.9845
94.2214
86.4623
94.5208
95.8598
91.2845
90.5077
93.1258
90.8439
92.8996
94.7263
96.2915
90.7439
89.7486
91.5585
91.5295
79.7519
93.2416
94.5067
90.5898
94.4332
95.6035
91.1108
94.37
86.4383
91.9061
94.3105
85.2899
54.5116
94.8085
44.5812
87.1382
92.045
39.3183
91.597
90.9799
92.2223
94.4928
94.9492
91.945
72.0798
94.9886
90.3922
91.3119
88.4746
92.883
90.032
94.8988
96.4648
92.0737
76.6351
84.7375
89.1883
88.9174
93.162
86.779
90.7245
90.8965
87.9793
94.7023
94.46
90.6489
90.8454
95.6167
94.15
85.2808
90.4748
93.9775
51.8621
70.6199
93.5003
91.5768
91.2593
83.9748
88.8781
19.8684
86.0686
91.7985
90.9116
92.4919
91.9749
91.0173
94.8746
90.8658
92.9145
45.3818
92.0638
95.3158
90.0245
96.4978
92.9432
91.8534
90.8295
92.2568
85.1264
94.1911
87.5295
81.9934
91.8478
92.767
91.5139
91.895
94.8752
91.9012
87.8705
37.9223
93.3806
90.9744
92.4809
92.5172
86.6425
92.2436
91.0504
93.8132
92.5137
86.3343
90.0333
37.4639
91.9293
94.4805
95.2175
89.2954
86.7459
91.7483
90.2111
93.5715
80.9088
95.9142
57.4589
73.3951
93.8484
94.3563
92.0375
94.6367
86.5129
95.931
95.5457
91.1179
92.4732
91.6936
97.6606
41.6132
94.894
94.7909
85.7935
36.4393
83.3282
86.1738
93.1736
93.5709
90.5582
91.2871
45.2446
94.3113
94.9869
94.7574
91.4632
92.0452
99.2866
86.6415
96.1693
95.5706
98.3575
96.4165
95.4347
98.9036
84.2332
95.5313
80.757
100.675
89.5919
92.3155
97.3729
94.9728
29.4093
89.3939
100.175
91.8132
91.5746
91.329
90.7576
82.8637
96.2104
95.3129
97.586
94.6746
90.6415
92.1101
91.9825
96.8452
85.7625
48.328
92.2546
92.9007
98.8955
86.6962
95.0827
56.0336
54.9974
92.7639
96.5508
96.3138
92.5016
86.7982
96.4207
95.3564
96.6985
46.7191
91.7616
90.5375
91.6744
92.8224
86.285
95.646
91.3338
82.8578
95.3022
90.3757
91.6327
92.8819
92.1974
95.8549
91.5724
11.3122
89.4437
94.8461
91.402
89.9713
90.7501
37.718
86.2812
97.4127
91.9901
89.4696
92.3113
91.5394
91.7032
91.905
92.1026
95.0049
85.8121
88.4043
95.04
93.2205
90.8614
93.8757
92.1069
93.316
93.0291
90.2061
92.3447
92.073
94.6131
100.045
48.2436
87.7847
90.6067
90.2538
90.9543
86.6113
95.6349
93.175
93.4301
91.3722
94.686
91.6445
84.5981
92.2181
93.1473
92.3195
83.038
90.1663
95.8557
95.2402
18.2477
91.5497
91.3316
91.8036
87.4616
57.1725
93.259
92.2129
48.1108
94.9677
54.7902
94.8727
91.486
95.8693
92.0624
91.6444
83.1536
91.9165
94.4392
100.576
90.3711
95.0735
83.2963
91.7659
90.9966
95.1941
93.4774
45.2628
91.0884
91.6702
52.9713
84.083
95.9769
92.7017
90.5638
92.5581
92.7888
91.9277
91.6141
91.2219
71.4997
92.1348
56.2369
92.3461
81.1861
96.3508
82.6934
93.1169
91.5631
94.833
94.4419
94.5279
92.7174
95.3304
92.9608
91.274
90.9131
91.3005
91.1839
94.8084
92.7013
94.8851
91.1099
51.4359
91.7865
94.5793
54.429
93.5632
88.8629
82.9487
93.6106
92.052
95.9142
92.0095
91.2145
44.5314
91.5986
92.4871
37.5093
60.6067
47.52
36.8955
59.0144
93.3657
93.2199
93.826
93.4404
53.6084
93.6965
87.118
90.2377
88.7548
86.0483
63.6634
47.1517
85.6459
71.7401
67.6013
86.1231
93.7147
93.2695
86.7513
92.728
92.3713
86.7099
92.2191
94.8172
79.1207
93.9346
95.2731
90.8103
83.6999
83.0084
38.515
95.5372
79.0263
82.9078
91.5974
90.3347
52.8811
85.3314
95.1297
80.1495
87.6442
94.9251
83.0683
92.4791
55.0683
89.5326
92.31
89.8214
91.0165
91.7863
91.6144
49.2256
91.9433
82.9851
94.9606
95.0636
92.004
92.4389
57.2395
94.596
91.7233
92.5172
93.1908
91.9743
97.0658
82.4071
94.8344
90.7231
92.8116
83.0053
90.0277
93.3149
92.1203
49.8041
93.8524
90.6779
90.7424
96.2716
83.3639
92.0036
91.6926
89.6666
92.756
90.96
85.773
42.4707
91.7106
84.2067
96.737
95.277
91.7704
31.9327
92.1773
91.4395
91.6253
38.6295
92.8886
88.2088
91.5762
90.5883
91.7377
89.1683
95.4656
91.3984
86.349
60.2672
40.2086
92.2517
92.3983
93.6548
85.671
84.6399
96.3408
83.5624
88.5178
96.184
85.3809
96.2276
37.7699
96.3941
91.563
94.5095
85.3492
94.3758
85.7223
91.2263
90.4872
92.2117
90.6998
92.8046
90.3228
90.8137
30.1958
18.8367
92.0129
95.4845
79.0087
92.1565
93.3454
48.7953
83.0515
91.0497
86.2393
74.1829
47.4297
91.9451
82.9657
93.093
90.3326
89.285
50.0698
95.3013
90.6627
92.6314
53.4366
92.7401
93.4681
91.8606
8.78193
96.459
38.7454
59.3426
93.4876
95.0534
91.1855
92.2949
94.244
92.6841
91.826
92.7695
90.618
95.7903
90.5145
95.8283
94.82
67.7702
93.8597
95.1741
94.747
53.6998
92.2249
52.5748
96.923
94.3719
55.0735
90.823
73.3407
68.2223
63.3018
50.9219
51.0689
50.3838
58.5892
51.5549
93.7522
93.0574
93.038
93.5519
93.4716
93.4984
92.9225
83.1988
94.9616
87.9487
93.9201
83.3659
93.3247
96.722
94.1172
91.9669
91.2582
91.0403
92.7036
97.4692
92.9529
91.7153
88.4774
99.1049
96.8937
95.7225
90.6703
74.9089
91.9519
90.7274
50.7887
93.2253
91.3019
89.2921
97.8322
92.0584
90.7846
37.3182
91.9386
93.054
93.58
88.8785
91.8746
84.9583
82.7402
91.1359
93.8215
84.4825
95.8939
95.4804
97.4789
95.8543
92.6227
84.8384
90.8804
16.832
94.1084
46.1372
9.39039
95.1504
47.4597
83.2503
91.8309
87.1154
42.2612
92.4305
90.6242
95.1184
71.1055
94.6102
84.0509
91.8589
88.0664
90.9929
94.6199
92.3251
91.7294
61.244
38.563
19.8995
94.8187
88.3616
92.7192
93.6212
91.6559
91.0242
95.1589
83.927
97.1344
47.0949
93.1636
91.2331
42.181
90.6567
82.8738
94.5608
91.9105
95.4885
77.6227
61.8135
90.5099
93.3125
86.6455
94.257
48.1268
95.0706
47.3793
91.8494
95.4185
85.3107
36.7078
90.7594
98.3293
94.1094
93.2027
93.7472
54.8451
89.6231
86.9217
84.6278
84.7411
96.0267
94.4785
93.3556
86.4729
90.1688
53.4673
82.9616
94.0735
95.1845
84.2201
93.2739
91.0222
93.2938
96.8095
85.671
94.2178
46.876
91.0064
94.2032
90.665
88.5798
93.984
84.9497
95.9347
91.0483
84.263
90.3644
33.0309
92.2351
95.7803
90.1804
62.2652
89.8838
92.041
90.4783
95.1904
94.0993
92.095
93.225
99.5061
94.8746
83.1922
92.2454
82.9206
92.5926
89.621
55.4295
94.5243
58.8424
92.3411
92.7143
90.011
90.8476
83.1081
89.8453
94.536
82.8582
92.9877
90.431
36.8034
90.0461
90.2775
94.3463
94.8498
83.5408
90.1576
91.3672
78.836
93.8095
96.3502
49.389
83.0335
90.5377
91.3862
91.8482
85.373
96.0045
94.4819
75.819
86.8881
87.8396
85.0259
85.6518
92.969
50.4661
91.9647
96.1915
83.7054
93.0803
56.2318
84.3509
92.7393
90.755
55.1217
95.3989
95.1446
93.7205
43.6192
89.7474
93.8792
94.6386
94.2766
42.7174
96.6138
50.196
91.6639
91.4741
94.4575
58.3012
92.9075
36.8658
80.9075
92.3764
95.9279
82.9295
46.6462
95.7525
18.8212
95.0368
92.2522
98.2705
93.4854
88.983
65.5853
92.3046
99.2431
43.7062
60.0683
96.3957
84.9349
92.6201
50.5367
91.7792
83.4581
90.9526
56.2243
92.1139
93.7112
94.9138
98.3549
82.6738
92.2127
87.9918
93.6212
91.7618
60.4479
57.5304
91.5537
89.2404
88.919
94.6257
91.364
92.6801
82.8921
92.0583
93.807
87.7053
86.7226
93.1847
69.4596
93.0164
93.31
94.3112
71.587
93.5692
91.6271
92.5967
84.2497
92.4316
84.6738
87.6068
93.2321
93.0126
93.4589
64.2658
50.0631
84.7571
92.1644
92.793
95.274
92.9101
95.2566
94.4778
94.5486
94.6363
94.5065
89.8359
93.6187
60.2722
95.0402
75.9583
93.4621
83.3793
46.8381
90.5643
93.538
82.965
86.5991
93.3556
36.91
94.97
95.4668
94.9519
93.7432
92.0144
92.1717
91.0008
90.7076
91.6918
30.821
56.8805
82.9457
101.969
82.7435
84.6589
86.0314
94.2772
103.782
90.3723
92.551
98.5979
108.573
95.04
94.3543
84.2239
91.2716
92.8475
90.6049
)
;

boundaryField
{
    frontAndBack
    {
        type            empty;
    }
    wallOuter
    {
        type            zeroGradient;
    }
    inlet
    {
        type            zeroGradient;
    }
    outlet
    {
        type            fixedValue;
        value           uniform 0;
    }
    wallInner
    {
        type            zeroGradient;
    }
    procBoundary3to1
    {
        type            processor;
        value           nonuniform List<scalar> 
48
(
96.8433
95.9552
96.2322
96.4013
96.3697
93.1387
95.9552
96.5605
96.9204
89.9452
89.9452
91.9599
91.9599
94.9139
94.3594
94.7218
96.0167
95.4418
96.0167
95.3876
95.5145
95.7196
95.3876
93.3791
90.5371
95.5405
95.9767
95.7196
96.0682
95.8526
95.8526
96.179
96.179
96.9204
95.4225
96.6708
96.808
90.5371
97.142
96.2786
94.9139
97.1688
97.2479
95.3876
93.8533
96.5622
95.915
95.32
)
;
    }
    procBoundary3to2
    {
        type            processor;
        value           nonuniform List<scalar> 
29
(
94.6715
94.6715
92.2857
92.3039
95.3082
94.6407
94.225
94.6594
92.2217
92.2207
94.5743
94.6955
94.7392
93.8999
93.9273
94.0125
92.1306
92.1068
94.7173
93.7888
93.858
92.1306
93.8885
92.1068
93.9531
92.1871
92.1068
93.9369
93.9369
)
;
    }
}


// ************************************************************************* //
