/*--------------------------------*- C++ -*----------------------------------*\
| =========                 |                                                 |
| \\      /  F ield         | OpenFOAM: The Open Source CFD Toolbox           |
|  \\    /   O peration     | Version:  v1912                                 |
|   \\  /    A nd           | Website:  www.openfoam.com                      |
|    \\/     M anipulation  |                                                 |
\*---------------------------------------------------------------------------*/
FoamFile
{
    version     2.0;
    format      ascii;
    class       volVectorField;
    location    "0.49";
    object      U;
}
// * * * * * * * * * * * * * * * * * * * * * * * * * * * * * * * * * * * * * //

dimensions      [0 1 -1 0 0 0 0];


internalField   nonuniform List<vector> 
1431
(
(0.787303 4.04077 1.02654e-16)
(0.583776 2.31312 2.70565e-17)
(1.39214 -0.139644 0)
(-0.135634 -0.37378 2.26527e-16)
(-1.31714 -0.480197 0)
(0.576717 7.7577 1.68356e-16)
(0.998232 -0.0865175 4.80945e-16)
(-0.246669 0.189187 4.97887e-17)
(0.262775 7.57628 1.19433e-16)
(0.85806 -0.21111 4.54294e-16)
(2.74242 11.463 2.03103e-17)
(4.67521 -0.56371 0)
(0.438486 2.31917 -1.65044e-16)
(-1.31813 -0.0167415 -5.41338e-16)
(2.56786 -0.711852 0)
(0.855955 -0.521825 -4.22279e-16)
(2.85803 -0.359778 -2.72265e-16)
(-0.588896 -0.467576 0)
(2.60906 -0.291504 -2.28898e-16)
(-1.14389 0.0082173 1.78669e-16)
(4.26053 10.9492 -6.99141e-19)
(-0.649005 -0.18245 2.30599e-16)
(0.457694 6.30461 -1.32701e-16)
(11.5076 2.14354 -3.96078e-18)
(0.377633 7.48606 1.18681e-16)
(0.855033 1.34803 -1.37346e-19)
(1.46826 11.3066 -2.08461e-17)
(1.18979 -1.38236 -3.89957e-16)
(-0.050112 5.8935 -4.10601e-17)
(0.19624 7.37448 2.64533e-17)
(0.0568417 8.30036 -7.35922e-17)
(-0.0146513 7.50673 3.12511e-17)
(-0.0388879 8.25882 0)
(-1.12744 0.0788151 -4.09591e-16)
(0.634352 6.31864 -2.3689e-16)
(-0.0661203 0.141495 0)
(0.1217 5.19529 0)
(2.345 -0.0355214 -1.44467e-18)
(0.923206 -0.272287 0)
(0.0390614 7.5786 0)
(0.182174 8.04145 -7.00021e-20)
(0.0196343 7.12472 1.16435e-16)
(0.467302 1.64834 -2.28825e-16)
(0.763026 -0.712182 2.09505e-16)
(0.82544 6.67918 0)
(0.521669 -0.71742 3.33513e-16)
(0.208872 0.975639 2.42911e-17)
(0.970299 11.0323 -6.19434e-17)
(0.83318 0.181755 0)
(1.55348 -0.814174 0)
(0.531146 3.16429 0)
(0.990303 -0.645538 0)
(0.645987 3.58143 2.63886e-16)
(0.8575 -0.281071 1.70312e-17)
(-0.0977738 1.53903 -1.83157e-18)
(0.670588 1.30583 4.33149e-16)
(-1.46778 0.154507 1.8573e-16)
(2.65001 -0.727066 0)
(4.03436 0.104823 0)
(2.84373 -0.263919 3.76099e-16)
(1.37487 -0.702454 -1.37827e-16)
(-0.111102 0.0157453 4.26134e-16)
(1.40763 -0.179492 0)
(2.0949 -0.133475 0)
(0.438486 -0.159822 9.61175e-19)
(0.752334 0.0552971 -2.38023e-16)
(1.87573 -0.00992016 -2.45268e-16)
(0.59173 -0.0386685 -9.35419e-17)
(1.58584 -0.146428 -5.29632e-18)
(-0.753334 -0.226701 0)
(-1.87134 -0.664776 5.98754e-17)
(-1.19516 0.0580879 -1.46757e-16)
(-0.94865 -0.258817 1.32056e-16)
(-1.16321 0.0341694 3.2992e-16)
(-1.30504 -0.0648356 3.93471e-16)
(0.156656 -0.153654 -5.73964e-16)
(1.59314 -0.125305 -2.27805e-17)
(-0.108133 -0.320115 -1.87698e-16)
(0.446722 -0.196046 -3.04057e-16)
(0.0865314 -0.48441 0)
(2.97196 -0.169985 -6.16665e-17)
(-0.30017 -0.445262 1.19762e-17)
(4.00348 1.3036 -6.67605e-18)
(1.05647 1.30228 9.70187e-17)
(11.7166 0.716987 2.25902e-18)
(0.0196116 -0.222562 -1.20429e-16)
(-2.65754 -0.044205 0)
(2.72031 0.249622 1.47059e-16)
(10.4908 0.208977 5.52882e-18)
(7.69202 1.17713 2.06151e-18)
(-0.637201 0.806428 -2.51423e-16)
(-1.00863 0.504976 2.79634e-16)
(2.34527 0.34986 2.48427e-16)
(0.771794 -0.837087 -1.41631e-16)
(-0.427665 1.07345 8.21474e-18)
(-0.024441 6.53633 0)
(1.1351 -0.562309 -8.13321e-17)
(3.67713 2.84269 -1.07906e-17)
(0.536044 -0.475981 0)
(-1.44151 0.0408401 -6.07819e-19)
(0.513511 2.08426 1.52728e-16)
(0.0906203 -0.16075 -7.5051e-16)
(3.22375 -0.240271 0)
(1.19792 -1.09807 -2.69681e-16)
(-0.625234 -0.206421 3.65484e-16)
(0.0607924 6.65359 1.15178e-17)
(0.107312 6.13157 0)
(0.911041 8.26644 6.77193e-18)
(0.620447 4.47121 2.50697e-16)
(3.70318 -0.0516906 0)
(1.96306 -0.661198 -5.6458e-16)
(0.383191 3.03106 -2.96955e-16)
(1.24418 -0.0500268 4.82379e-16)
(0.303728 7.69284 -7.87216e-17)
(0.349388 1.78226 -8.6207e-19)
(-0.799222 -0.257447 7.50297e-17)
(-1.35619 0.0581272 0)
(-0.393334 -0.276405 -2.45669e-16)
(0.509286 -0.286977 0)
(1.80797 -0.146131 0)
(-0.0704895 -0.209416 -2.53351e-17)
(3.19134 -0.156128 6.78277e-17)
(-1.27159 0.119602 2.38305e-16)
(-1.16835 -0.166552 1.59724e-16)
(-2.53906 -0.507704 0)
(-0.236973 -0.14335 1.82174e-16)
(1.31518 -0.0870617 0)
(1.72618 -0.930324 4.58098e-16)
(1.68852 -0.285419 -2.73543e-16)
(-1.8246 0.429132 3.3822e-16)
(2.17245 -0.278301 3.65185e-16)
(-0.914809 -0.104702 -1.0587e-16)
(-1.53637 0.570724 -8.47637e-17)
(1.87845 0.191195 1.01563e-16)
(-1.01164 0.353885 0)
(1.12471 -0.220368 -3.31975e-16)
(0.0741594 -0.324221 1.66863e-16)
(0.174345 0.152211 0)
(9.30132 -0.448782 3.1872e-17)
(1.99724 0.311948 1.77235e-16)
(0.920273 -0.00133265 0)
(0.157936 8.38995 0)
(3.48268 -0.160676 7.48133e-17)
(0.874252 -0.537979 0)
(0.510215 4.6791 1.63501e-16)
(-0.0488338 8.33338 -5.60118e-17)
(0.983873 -0.0356212 -1.98371e-16)
(0.59296 2.78075 -2.94063e-16)
(0.618868 -0.56315 3.14828e-16)
(0.376146 -0.385233 1.77072e-16)
(1.14689 -0.195181 2.25115e-16)
(1.18077 -0.346396 7.657e-17)
(0.0355789 7.5288 -2.85617e-20)
(0.723252 -0.130511 -2.22808e-16)
(0.130256 6.86667 -3.14058e-17)
(1.86003 0.228263 -3.41103e-16)
(10.6131 0.203067 -2.25751e-18)
(1.84646 3.98741 6.46969e-17)
(5.89506 1.35373 -5.33503e-18)
(-1.74025 0.102635 2.13282e-17)
(8.71958 2.92024 -2.91176e-18)
(0.329673 2.84672 1.79017e-16)
(-2.09871 -0.522841 -1.49858e-16)
(-2.23857 -0.0722784 8.91569e-18)
(-0.6139 -0.28069 -5.12709e-17)
(0.523397 5.56055 -1.37669e-16)
(0.306776 6.82285 4.13219e-16)
(0.0387436 1.24013 8.08681e-18)
(2.06704 -0.489645 1.98652e-16)
(2.17573 2.49411 2.33115e-17)
(8.9775 1.65573 -6.1227e-18)
(0.571939 3.40029 0)
(0.0669533 7.77688 -2.733e-17)
(9.32332 -0.183062 3.65659e-18)
(1.08225 2.72555 -1.08039e-17)
(10.9277 0.0202526 0)
(-1.80363 0.414769 0)
(0.65844 8.04236 -9.43005e-17)
(0.631338 3.61441 -2.50309e-16)
(0.731093 5.89692 -2.6117e-17)
(0.747807 0.000634567 -4.54039e-16)
(1.13033 -0.308372 0)
(0.32707 2.38628 7.00588e-18)
(9.70816 2.94173 -2.79377e-18)
(0.833342 8.14746 6.77213e-17)
(0.164668 4.16591 0)
(0.794868 4.60729 -9.44816e-18)
(1.75886 3.21846 -4.15037e-18)
(0.213646 7.49819 4.34303e-17)
(11.3268 -0.296471 2.03871e-17)
(-0.013635 7.97172 -4.63296e-17)
(0.150852 7.18713 -2.81827e-17)
(0.0877126 7.23922 -4.40947e-17)
(0.859274 7.61504 0)
(0.0393747 -0.317302 0)
(2.49395 4.91138 -6.3042e-17)
(3.79634 3.6461 0)
(0.891459 6.73772 -1.51308e-16)
(1.86008 0.121159 3.21099e-16)
(3.13824 0.645377 0)
(0.341599 2.4654 8.55726e-19)
(-2.40203 -0.630655 -7.85121e-17)
(1.04128 9.923 -3.22888e-17)
(-2.43627 0.140796 7.34207e-17)
(0.478149 2.90815 -5.43623e-17)
(-0.00606613 7.82337 3.11153e-18)
(0.106825 5.80846 8.70796e-17)
(1.32663 0.486158 2.73221e-16)
(8.78032 0.263874 -1.21912e-18)
(1.81531 2.16825 -1.45964e-16)
(-2.10498 0.238224 2.62676e-16)
(-1.72628 -0.355792 0)
(0.0157712 6.12945 2.74493e-17)
(0.298041 6.60549 2.8594e-17)
(10.5399 0.910521 0)
(-0.936824 0.366608 5.52751e-16)
(0.063839 7.17605 1.35375e-16)
(0.974736 6.92673 -4.06923e-17)
(0.378254 2.64532 -5.37054e-17)
(0.880466 9.89916 2.1068e-16)
(0.0589979 7.35037 2.21043e-16)
(0.291516 2.24296 0)
(3.57537 0.805561 2.02869e-16)
(-2.33381 -0.380913 0)
(0.229469 6.47049 -1.25386e-16)
(8.64997 1.03867 2.13737e-18)
(1.64309 8.25374 -2.7111e-17)
(2.88536 2.63595 2.30576e-17)
(0.103385 7.41918 1.48996e-16)
(0.572926 10.0664 3.66267e-17)
(0.789282 0.15208 3.60573e-17)
(0.0366643 8.27964 6.81899e-21)
(-0.028698 6.55416 -3.21534e-18)
(0.0697365 7.5313 5.90347e-17)
(0.023039 7.46966 -3.04215e-17)
(7.24963 2.16584 7.04924e-18)
(0.0109262 6.21779 0)
(0.540649 6.36987 -3.499e-17)
(0.0490566 8.24013 0)
(0.102145 1.96008 2.85068e-17)
(-1.35493 0.586011 6.17122e-17)
(0.777811 4.18541 1.21541e-17)
(8.64368 0.597548 -8.17159e-19)
(0.280689 7.3303 0)
(0.274007 7.14715 2.19812e-17)
(0.182174 -0.8717 6.32248e-16)
(0.375514 6.70877 2.21073e-16)
(0.919305 10.0314 0)
(0.102128 6.78888 -2.86942e-16)
(2.00145 -0.297915 1.51718e-16)
(0.660983 -0.410234 0)
(10.6044 0.357231 -2.91567e-19)
(-1.77521 -0.0430131 2.10071e-18)
(-1.50683 -0.495889 -1.62905e-17)
(0.00876556 7.84118 3.59067e-17)
(-0.00324367 7.01419 -4.95212e-17)
(-1.79419 -0.199394 1.5367e-21)
(8.78013 1.5985 -5.08872e-18)
(5.57982 3.34664 2.9097e-17)
(0.1327 7.02933 -4.46347e-17)
(0.232777 2.6067 1.24276e-16)
(9.43533 -0.370089 -2.04208e-17)
(0.354973 2.52972 0)
(-1.98694 0.273031 6.65143e-17)
(0.37297 5.52158 2.82703e-17)
(1.09452 8.68448 -4.97037e-17)
(0.282142 5.74337 -1.33295e-16)
(1.062 6.78788 0)
(0.76427 10.7479 5.77233e-17)
(-1.22125 -0.0633794 0)
(1.22985 3.2751 -5.27282e-17)
(0.0232027 6.66367 5.54374e-17)
(0.182263 1.99624 -1.25171e-17)
(-0.133332 1.51061 5.82392e-17)
(9.54037 2.3942 0)
(0.0197102 7.9465 2.19505e-20)
(9.98506 1.6641 -5.44562e-17)
(0.964948 8.28243 2.03368e-17)
(0.0287975 4.24631 5.59743e-20)
(0.0333536 4.21814 -7.5424e-17)
(0.555195 3.94101 0)
(0.0963719 4.87879 1.73183e-16)
(-0.00152156 8.2552 7.17871e-17)
(0.491391 2.32485 2.32345e-16)
(-0.827057 1.06793 0)
(4.32287 2.14613 0)
(0.083395 7.1073 1.19939e-16)
(4.55644 3.10542 -3.52548e-17)
(11.4996 0.417467 0)
(0.706773 2.73675 -2.84153e-17)
(1.30203 0.257078 -2.26543e-16)
(0.209244 6.48946 1.32541e-16)
(3.13695 3.4231 -2.70591e-17)
(0.469766 3.19459 -6.17178e-17)
(0.536001 9.7959 -1.14781e-16)
(0.112885 7.4618 -3.57521e-17)
(1.58165 5.52888 0)
(0.405232 4.26299 0)
(-0.306392 1.5095 1.99587e-16)
(0.0696764 4.24437 7.95028e-18)
(0.621794 3.41212 -1.75625e-16)
(-0.533831 0.271462 -2.1648e-16)
(-0.156655 1.70706 -3.5308e-18)
(0.631857 2.53937 8.07592e-17)
(0.413706 6.38299 -3.92353e-17)
(-1.82422 -0.37607 -4.95295e-17)
(1.15209 3.30171 1.91631e-17)
(0.0940504 6.87474 -2.527e-16)
(0.0631754 6.42448 -2.36671e-16)
(1.50353 2.32479 -1.73059e-17)
(3.12324 6.06837 2.19927e-16)
(-0.625279 0.00301977 0)
(0.112841 0.122965 -1.00667e-16)
(0.435324 2.30808 0)
(0.235942 7.14465 -2.27987e-16)
(3.55856 4.19637 0)
(0.858647 6.3991 -4.36848e-19)
(-0.482982 1.30233 1.49376e-17)
(0.999486 0.0984548 -2.29178e-17)
(6.31604 6.79533 1.21444e-18)
(1.14013 3.79079 1.8263e-17)
(2.9738 4.50161 0)
(-0.972594 -0.269282 0)
(0.429965 2.72122 0)
(0.889234 7.04593 2.81146e-16)
(0.921667 -0.106285 -2.48659e-16)
(-1.26535 0.0494345 0)
(0.107504 7.31824 2.55146e-16)
(1.41381 0.0495507 3.16876e-17)
(-1.79535 -0.607946 7.37718e-17)
(0.501022 4.55855 1.83089e-16)
(1.40847 -0.475033 1.62751e-16)
(0.187889 7.26406 -2.55124e-16)
(-0.301031 -0.403275 -3.90465e-16)
(-1.54821 0.40208 -1.47427e-17)
(0.619571 2.39982 -3.65205e-17)
(-0.0332048 7.24102 0)
(6.27407 2.26317 5.18795e-18)
(0.922469 7.3734 -1.33467e-16)
(0.536283 3.25404 0)
(-0.917258 0.116355 0)
(0.629089 2.21986 2.88007e-17)
(2.79381 7.56991 8.05583e-17)
(0.224828 7.77119 0)
(0.224329 7.52776 1.24143e-16)
(0.0853671 7.42418 0)
(0.38818 2.37481 1.70735e-17)
(10.347 1.03788 5.14516e-17)
(2.59246 6.47952 -1.49288e-16)
(0.494552 3.10249 0)
(0.660795 7.59703 1.48107e-16)
(-0.225328 -1.31299 -3.41272e-16)
(0.464544 2.64797 1.90581e-16)
(1.46393 4.98451 -6.32158e-19)
(0.107376 -1.54125 2.68248e-16)
(0.271341 2.09336 -1.59538e-16)
(6.37258 2.34275 1.80163e-18)
(-1.48335 0.595046 -6.40798e-17)
(10.574 -0.0999199 -2.10119e-20)
(0.13785 7.5661 2.08865e-20)
(-0.284974 -0.144674 -4.57741e-16)
(0.0443842 4.01191 -3.14954e-17)
(0.196932 4.47188 -6.03131e-17)
(-0.463075 1.40986 3.49072e-18)
(1.44073 0.167593 -3.92157e-17)
(6.07027 7.04391 1.64596e-17)
(0.259759 7.73754 1.19511e-16)
(11.2085 4.48027 -5.7322e-19)
(-0.0644441 7.29425 3.18445e-17)
(0.373082 8.58947 9.30253e-18)
(1.09373 9.91443 -7.98645e-17)
(-0.777594 -1.04485 -1.97487e-16)
(9.93176 0.512916 8.11257e-17)
(0.61396 3.57911 0)
(0.166339 7.71336 6.6275e-17)
(6.16382 1.05411 -1.19346e-18)
(1.64327 4.53966 -1.89408e-17)
(0.0808237 1.20236 -7.02024e-17)
(1.10161 1.00792 0)
(6.27795 1.87481 -2.38007e-18)
(0.258651 3.3595 3.4651e-16)
(0.89676 7.73794 6.47656e-17)
(0.162893 1.52186 0)
(0.228101 -1.04855 1.53955e-16)
(9.94136 6.31749 -1.28658e-17)
(0.234366 7.39669 3.32962e-17)
(0.699595 4.70672 -4.2255e-16)
(0.142794 7.5919 1.82909e-18)
(0.828985 7.29344 0)
(0.616431 3.78921 -2.31679e-17)
(-1.09431 0.814943 1.21476e-16)
(0.652843 4.75936 -1.29189e-16)
(0.645478 4.69133 1.38786e-16)
(-1.89357 -0.572503 1.65919e-16)
(6.69659 3.33372 -3.71971e-18)
(0.518026 2.89719 -1.38686e-19)
(0.32947 4.40117 5.84922e-19)
(0.304396 4.57192 -9.61393e-17)
(0.159094 7.89667 -2.41928e-16)
(0.40542 7.33504 -3.4903e-17)
(1.79274 5.84971 -7.62256e-17)
(0.0886316 7.6629 1.97034e-17)
(4.61642 4.1126 1.01552e-16)
(-0.0353863 7.02587 -2.06406e-17)
(0.921179 1.13172 -7.90901e-17)
(0.348314 4.59114 5.61048e-20)
(0.40802 7.85048 6.20453e-17)
(0.0121715 0.728766 9.43207e-17)
(-1.15646 0.827557 3.15928e-17)
(0.364695 4.61952 1.22382e-17)
(2.15123 5.45279 0)
(0.841116 6.58598 0)
(0.377253 4.65854 5.94112e-18)
(0.196808 2.02677 1.58653e-16)
(0.207418 7.63818 -1.19617e-17)
(-0.98691 -0.628133 1.96401e-16)
(1.10409 5.48192 -1.54638e-19)
(-0.0073654 0.845226 0)
(0.77234 7.34415 -1.27051e-16)
(0.390498 4.69011 0)
(0.133225 5.18563 -7.22518e-17)
(0.320273 2.23364 -4.29765e-16)
(0.437319 2.48262 -8.90762e-17)
(1.27364 5.29387 3.1498e-17)
(0.422508 4.69693 1.25207e-17)
(-0.0678605 -1.57615 3.55476e-16)
(-0.43962 0.384779 2.75639e-20)
(1.78776 -0.43741 1.06334e-16)
(1.44763 -0.27495 -2.56618e-16)
(11.1252 1.7291 2.3772e-18)
(0.382228 3.2116 1.39565e-16)
(0.316898 3.29671 2.11418e-16)
(0.256434 3.74032 -1.17947e-19)
(0.241992 3.38974 0)
(0.210766 3.97776 -1.1602e-16)
(0.208476 3.87889 -9.09011e-17)
(0.301883 3.45864 -9.72275e-17)
(0.167052 4.19081 -1.71536e-16)
(0.207437 3.6138 2.89251e-16)
(0.171658 4.15242 7.42936e-17)
(0.342077 -1.8155 0)
(9.6341 0.103659 6.25201e-19)
(0.394546 -1.5938 -9.92194e-17)
(0.381639 -1.2728 2.89728e-16)
(-0.353755 -0.694744 -4.24232e-16)
(0.321956 -0.260959 1.16752e-18)
(0.417848 0.99681 0)
(0.879476 0.868574 -9.13867e-17)
(2.17954 0.545363 4.59343e-17)
(0.289439 0.103075 7.01578e-17)
(0.403314 0.238351 6.38663e-17)
(1.21984 -0.736628 -2.39557e-16)
(0.584898 0.36052 -1.92544e-16)
(-0.0281182 -0.886267 0)
(0.477423 0.514805 -9.87792e-17)
(0.751693 0.0494999 3.09473e-16)
(0.306932 -0.146787 9.96817e-17)
(6.62499 -0.183535 -2.41003e-18)
(0.565551 -0.196729 0)
(1.95606 -0.423536 2.4376e-16)
(0.153163 0.00867695 -1.35975e-16)
(0.767714 -0.813122 2.18688e-16)
(6.71839 -0.404155 -3.11406e-17)
(0.597267 -0.0879105 -2.90968e-16)
(2.04303 -0.476855 -1.50852e-16)
(0.88551 -0.515086 2.64162e-16)
(0.24369 -1.94165 3.09285e-16)
(6.6591 -0.557106 1.61815e-19)
(1.02961 -0.528236 -2.4147e-16)
(6.84069 -0.606788 -2.63507e-17)
(0.789685 -0.77866 -6.62061e-16)
(0.860681 -0.824031 0)
(0.23276 -1.89106 -2.81833e-19)
(0.678003 -0.535295 0)
(9.33223 -0.327851 3.39281e-17)
(10.4217 0.0288845 1.00355e-16)
(1.15311 -0.130064 1.30753e-16)
(0.852636 -0.451291 -1.20377e-16)
(-0.132866 0.423998 6.97262e-16)
(0.760059 -0.83632 0)
(0.304183 -0.542751 0)
(-0.142096 0.748796 0)
(8.91238 -0.242557 2.27282e-17)
(0.220366 0.0811368 2.45104e-16)
(-0.805059 0.393754 1.72446e-17)
(0.799282 -0.702174 2.6048e-16)
(0.10298 -1.33102 0)
(-0.615509 -0.00135379 0)
(1.64756 -0.42725 2.19637e-17)
(0.348602 0.550023 1.68993e-16)
(7.80895 -0.198267 -7.01775e-17)
(0.57459 -0.293065 2.28627e-16)
(1.57408 -0.420057 1.59615e-16)
(0.868184 1.15681 2.84552e-16)
(1.43923 -0.746048 -3.12146e-16)
(-0.0848354 -0.604922 -1.99437e-16)
(1.48219 -0.361702 1.44584e-16)
(7.39603 0.127629 1.55959e-17)
(0.831948 0.200806 -2.75522e-16)
(-0.287157 1.77466 -4.20719e-16)
(0.378252 1.31008 1.64237e-16)
(1.45801 1.5096 -3.82306e-16)
(-0.00949229 2.05433 7.60032e-16)
(0.0692812 0.399073 -2.09323e-16)
(7.70614 0.551189 -3.32099e-17)
(10.2957 0.40718 -8.25072e-17)
(0.508598 -1.43012 -2.92585e-16)
(0.565508 0.622952 2.24273e-16)
(0.97984 0.608941 1.92624e-16)
(-0.356149 0.836923 0)
(1.42617 1.31507 2.09065e-16)
(0.971486 -0.769129 2.95717e-16)
(0.180588 0.473658 0)
(1.4939 -0.36462 0)
(0.574107 0.684141 2.17828e-16)
(-1.25588 -0.783343 -1.98523e-16)
(0.657702 1.2608 -8.3048e-17)
(0.950545 1.49059 1.24338e-16)
(0.362524 -1.0075 1.8777e-16)
(9.59226 0.679466 -2.54142e-17)
(0.524077 2.64756 0)
(0.81496 1.08942 -3.59471e-16)
(0.388158 2.33521 -1.64619e-16)
(-2.01848 -0.73439 -6.46256e-17)
(1.17549 1.80685 -9.23914e-17)
(-1.26502 -0.385686 -9.51226e-17)
(8.07207 1.16217 5.42616e-17)
(0.0448552 7.55718 -3.0094e-19)
(0.506595 -1.71964 0)
(0.0138801 0.673791 2.50515e-17)
(0.589635 2.77413 1.09011e-16)
(0.629933 1.98755 -2.27659e-16)
(0.834673 1.94194 0)
(0.182627 -0.237318 0)
(0.165753 4.58677 0)
(1.41676 -0.0511297 3.9935e-16)
(0.14127 1.41087 2.35774e-18)
(0.420373 6.37772 2.35646e-17)
(0.841259 1.93929 6.07305e-17)
(1.39543 -1.42507 2.16708e-16)
(0.394577 3.97313 1.29751e-16)
(-0.126854 0.304342 -3.51032e-16)
(-0.00813576 7.52346 -4.59311e-17)
(0.628216 1.58992 4.11644e-16)
(0.226623 4.29593 2.96749e-16)
(0.115667 1.30952 5.34343e-17)
(0.463752 2.97838 -6.50732e-18)
(0.743823 7.86229 -4.11551e-17)
(0.365346 4.16298 0)
(0.126502 4.91842 0)
(0.764514 4.98139 1.84211e-16)
(-0.092303 0.265869 4.07324e-16)
(0.0424528 7.6665 0)
(0.524159 5.03681 -2.65495e-16)
(1.52912 -0.498424 -3.45969e-16)
(0.186922 0.744608 -6.26907e-16)
(-1.24886 -0.20855 1.59631e-17)
(0.206385 1.26524 -1.64518e-16)
(0.485217 7.11637 2.78831e-18)
(2.6979 8.6116 0)
(0.126339 4.83042 3.22904e-17)
(9.25529 1.85284 -5.04466e-18)
(3.77694 5.59853 6.58461e-17)
(0.496465 2.77073 0)
(5.46794 9.37891 0)
(0.533998 2.46537 7.94853e-17)
(0.253532 2.04704 0)
(-2.28715 -0.214626 -9.02458e-18)
(0.28144 1.93084 -1.09372e-16)
(-0.0531616 6.98205 1.22002e-16)
(0.434984 4.14106 -2.81349e-17)
(3.51741 8.42366 -3.28028e-17)
(0.192574 3.52618 -5.61098e-17)
(0.437891 1.16422 -1.0244e-16)
(0.253303 1.24979 9.1581e-17)
(0.825163 7.49796 3.68383e-17)
(-1.4905 -0.760047 1.23115e-16)
(-0.191941 5.69374 0)
(0.284386 3.02433 1.20499e-17)
(0.390002 2.83473 7.88654e-19)
(0.412126 4.11692 0)
(1.81599 8.7366 1.59071e-18)
(1.02249 5.39483 1.3691e-16)
(1.19667 6.23879 -1.0638e-16)
(1.46319 6.11962 1.47796e-16)
(0.0376015 6.97442 -1.04224e-20)
(0.111884 7.71958 -9.68885e-17)
(0.551405 2.09706 -5.31204e-16)
(0.484723 1.68649 0)
(0.540256 1.02688 1.10269e-16)
(0.313672 2.49112 -3.15895e-17)
(-0.394604 6.44102 2.7615e-17)
(0.563468 2.93823 -2.01836e-21)
(0.51447 3.34358 -1.15517e-16)
(0.13422 6.08064 -4.37527e-19)
(0.266405 4.17282 0)
(0.17787 -0.825424 -2.05718e-16)
(0.730552 5.04705 3.39272e-16)
(2.50151 3.44232 0)
(9.00831 0.0200271 2.29042e-18)
(1.06895 9.033 2.72973e-17)
(0.785725 2.14035 7.51453e-18)
(0.389371 5.33966 3.63134e-17)
(0.725477 1.55378 0)
(1.46221 7.83503 9.82245e-17)
(1.12475 7.66612 -1.67155e-16)
(2.493 12.8781 4.56999e-18)
(2.01681 6.83781 5.52105e-17)
(-0.0726398 0.689616 -5.42502e-17)
(0.963656 -0.735525 -2.60248e-16)
(-1.33823 -0.578071 6.24716e-17)
(0.70221 2.43106 -9.93138e-17)
(0.628059 4.44228 2.25297e-16)
(0.233114 2.988 -1.63161e-17)
(-0.0510397 7.38603 -4.98572e-17)
(0.0265761 7.30092 1.26656e-16)
(11.658 0.0143919 -1.00937e-17)
(-1.67048 0.247205 -3.40396e-17)
(0.897281 1.43654 -1.30368e-16)
(0.778225 5.87953 -1.97848e-17)
(0.874269 2.05618 -1.24173e-17)
(0.779934 3.26469 -2.22461e-16)
(0.158624 0.83619 -9.35673e-17)
(0.611462 5.0387 1.28266e-16)
(0.580837 2.70348 9.80579e-17)
(0.783457 7.97444 -6.32587e-17)
(0.209123 4.66957 -1.56682e-16)
(-0.0770603 0.243065 0)
(2.09074 7.85269 -5.24938e-17)
(0.168307 1.7168 0)
(0.579432 2.75987 1.10677e-16)
(0.602665 2.36958 0)
(-0.00647288 -0.0808049 5.10189e-16)
(0.191707 3.42675 -1.7088e-16)
(0.454535 4.14649 3.46188e-17)
(1.1911 7.02712 7.94512e-17)
(3.00397 -0.0469899 -6.67945e-17)
(-0.777173 1.10205 1.1541e-16)
(0.243126 6.44127 -1.29265e-16)
(0.308869 2.42697 6.98343e-17)
(0.0138266 7.98279 -1.19592e-16)
(4.3442 4.97768 -2.01554e-16)
(-0.943546 0.731236 5.27589e-17)
(0.446744 5.26975 0)
(-0.229261 6.64001 -2.58055e-17)
(0.633565 2.52089 7.56113e-17)
(1.04 7.69857 -1.85942e-17)
(0.911541 7.00717 9.98286e-17)
(-1.37102 -0.966827 1.88727e-16)
(1.11863 4.26831 1.68497e-17)
(0.441355 1.90368 1.39138e-16)
(0.0501543 5.94612 -4.89787e-18)
(-0.0408085 5.69228 1.10148e-16)
(1.55009 7.01645 -9.37464e-17)
(1.10865 -0.961844 6.12894e-17)
(1.00573 7.43341 -5.9377e-17)
(0.25652 7.33731 -1.29867e-16)
(1.13987 8.35472 -4.3418e-17)
(1.27299 0.612092 0)
(9.91398 0.821991 -1.31841e-16)
(7.78561 3.16494 9.70382e-18)
(0.258268 4.78049 1.01975e-16)
(0.674171 1.8721 5.56308e-16)
(0.468724 3.16395 3.09323e-17)
(0.109266 1.2526 0)
(1.29754 0.171864 -1.76497e-16)
(-0.596376 0.988558 6.89532e-17)
(1.28334 0.221468 -2.94622e-16)
(0.615952 3.01147 2.83312e-19)
(-0.534787 -1.00999 -1.52638e-17)
(0.47555 4.70502 4.48151e-17)
(0.579163 1.41241 -7.71661e-18)
(9.49215 0.490882 0)
(0.175531 4.15522 0)
(0.662047 1.75294 -6.69031e-17)
(0.368056 -0.537378 2.28588e-16)
(10.1161 0.577365 0)
(-0.0504359 -0.347356 8.14026e-19)
(1.05696 7.55072 -2.2664e-16)
(-0.126518 1.74587 0)
(0.136786 2.11312 0)
(0.278267 1.90155 -1.15871e-16)
(1.03787 4.58539 1.83669e-17)
(8.89663 0.409955 0)
(0.572681 -0.45025 1.99959e-16)
(2.03089 -0.199291 -1.24789e-16)
(0.244125 2.49844 0)
(0.440994 6.47163 0)
(0.183556 -1.54355 1.68343e-16)
(-0.82464 0.373516 -7.89337e-18)
(0.368255 2.1758 1.19056e-16)
(0.136803 2.54726 -2.65393e-16)
(0.0939024 7.63093 4.37887e-17)
(-1.28957 0.319634 0)
(-2.05264 0.221232 0)
(0.135191 4.32924 -1.2281e-16)
(2.60174 0.580817 -2.99338e-18)
(1.10245 3.31199 -1.86044e-16)
(-2.35141 0.166021 1.43403e-17)
(3.53512 7.37209 -3.20654e-18)
(1.01058 0.510987 0)
(1.01882 6.22917 0)
(0.403951 4.0596 -6.21918e-18)
(-1.7015 0.270774 0)
(-0.102904 6.54654 0)
(11.0373 0.678291 -1.43707e-18)
(0.0111368 5.69928 -2.20399e-16)
(1.76758 0.545605 0)
(0.610596 3.36752 -3.22408e-18)
(0.297734 6.7295 2.16413e-17)
(-0.127224 7.23974 5.89999e-17)
(0.19767 1.63031 -1.82065e-16)
(0.568141 8.05911 -2.8442e-18)
(0.0583061 6.74644 2.85541e-17)
(1.12092 -0.112345 -8.61413e-20)
(0.261441 7.25016 -2.60664e-16)
(0.1982 1.94576 -3.12078e-19)
(-0.0216357 3.75596 1.73249e-16)
(-0.334308 1.10982 -2.5106e-16)
(0.145502 7.86741 1.19938e-16)
(-0.0683974 7.29337 0)
(0.00297576 7.85691 1.53367e-18)
(10.7579 0.233649 -7.18917e-18)
(0.447625 3.53198 0)
(-0.409718 0.539909 5.66393e-16)
(0.213746 0.856654 1.72855e-17)
(0.310083 3.77744 0)
(0.252727 1.71111 3.90898e-16)
(1.31096 8.53108 0)
(1.74376 9.58138 2.54868e-17)
(1.32698 -0.648705 0)
(2.60932 1.84759 1.61176e-17)
(0.971227 1.50602 -3.08238e-16)
(-0.693283 1.00531 -9.4556e-17)
(0.659206 1.25818 -2.06918e-17)
(0.0559692 2.08319 2.26231e-16)
(0.104347 7.66153 -4.08297e-17)
(3.48035 0.61667 1.03824e-17)
(8.46961 0.330565 0)
(-1.259 -0.032068 -1.85733e-17)
(0.0183904 6.66845 0)
(0.0974475 7.44219 0)
(-0.422571 1.34682 -1.14893e-16)
(1.28084 5.92453 0)
(0.457251 2.74633 0)
(0.826381 7.36877 -2.72579e-17)
(1.42059 -0.389795 0)
(0.831149 -1.83465 1.63562e-16)
(0.0957691 7.47499 4.60173e-17)
(0.376742 -0.155815 2.58055e-16)
(0.760302 1.85503 1.41674e-16)
(0.221285 2.09826 1.49797e-17)
(-0.837176 0.906624 -5.0601e-17)
(0.649275 -0.509664 -4.21822e-16)
(12.6419 2.98691 0)
(0.193792 7.52569 0)
(-0.0459568 7.51343 -1.25102e-16)
(0.551334 1.29441 -1.062e-18)
(0.331899 7.78439 9.49215e-18)
(0.00614536 0.988985 2.19214e-17)
(9.16527 2.27689 3.43544e-18)
(1.28398 1.54965 4.94285e-17)
(0.100163 1.88619 -8.40754e-17)
(0.345761 0.456495 4.43642e-16)
(-0.185468 0.435076 -2.9942e-16)
(0.247672 6.1997 0)
(0.839595 -0.726701 4.53755e-16)
(0.907283 -0.302258 -2.49019e-16)
(0.34904 5.32173 -2.3572e-17)
(0.0647585 1.61141 -1.52208e-17)
(0.154165 1.3557 -4.46599e-16)
(-0.0331198 6.60039 -4.81417e-18)
(0.262142 7.90286 1.32236e-16)
(-0.0323878 7.73831 6.62365e-17)
(-0.0496158 7.75174 0)
(0.539828 3.38318 7.34149e-17)
(-2.68513 0.068099 5.07847e-17)
(0.300112 2.03937 0)
(0.260556 5.68804 -1.2276e-16)
(0.738021 2.61353 -5.18322e-16)
(0.982838 5.56688 0)
(-0.514834 -0.142496 -1.61889e-16)
(0.442631 3.60794 0)
(1.16093 -0.320262 2.55942e-19)
(-0.28915 0.431574 -4.33425e-18)
(9.25742 3.00184 1.63535e-18)
(1.26231 7.3579 0)
(0.643179 4.06045 1.41645e-16)
(0.0822832 7.69055 -8.43943e-17)
(0.64307 4.05251 0)
(0.629911 -0.287846 -1.28078e-16)
(-0.0756538 1.13284 -1.43138e-16)
(0.0724529 6.18564 -8.95013e-17)
(0.280949 5.1929 9.13902e-17)
(0.160538 6.03753 1.97905e-16)
(-2.55632 0.109013 -2.85338e-17)
(-0.656339 -0.047275 0)
(0.238581 7.26202 0)
(-0.660693 -0.398811 3.25625e-17)
(0.501407 2.94155 1.4434e-16)
(0.0408206 7.51197 -2.99678e-17)
(0.327475 -0.241326 1.38277e-16)
(0.697158 0.999609 -2.2419e-16)
(0.476057 2.81383 0)
(0.36272 2.96639 9.66701e-17)
(10.0724 9.1065 -1.36112e-18)
(0.195742 6.06539 2.63855e-17)
(0.25856 7.4052 -1.06e-17)
(0.369042 2.29884 -8.49383e-17)
(1.07086 7.81333 1.28442e-16)
(3.75259 2.309 2.71777e-18)
(-2.3018 0.216115 -1.13602e-16)
(0.398136 2.62868 0)
(10.4371 0.604026 2.50547e-18)
(-0.00576484 6.25903 4.79e-17)
(6.43524 0.0945028 1.25549e-18)
(0.434032 2.43574 -1.19968e-16)
(-0.085634 -1.59728 -1.53051e-16)
(0.120491 4.62314 -2.23124e-16)
(0.296202 7.70722 1.14121e-18)
(1.57544 0.391462 3.61368e-16)
(0.841912 6.76213 -1.06107e-16)
(0.519944 3.50778 -2.96148e-16)
(0.227344 3.99361 -2.06449e-19)
(0.327911 0.478332 1.68593e-17)
(0.0450411 6.62698 -4.37783e-17)
(-0.037558 7.0167 2.38419e-17)
(0.198474 8.40419 -1.70709e-18)
(-0.526945 -1.12625 0)
(1.05845 -0.135318 0)
(0.144699 4.40329 -6.3095e-17)
(4.42609 0.644148 2.25028e-18)
(8.1176 0.199376 -1.478e-17)
(0.0730923 7.57031 1.16593e-16)
(0.809052 3.95458 -2.41411e-17)
(1.32671 -0.45835 7.00556e-17)
(3.84192 0.11411 9.01681e-18)
(0.167555 4.2787 4.61768e-17)
(0.399742 3.97408 -9.90362e-17)
(0.425548 1.79829 3.85553e-16)
(0.461655 3.39051 -9.70224e-17)
(1.73685 0.902781 0)
(1.03056 0.0666244 -1.13936e-16)
(0.174835 4.13627 -9.5239e-17)
(0.576884 4.46307 0)
(8.16561 1.97943 -8.50857e-18)
(-0.289423 0.206273 9.69973e-17)
(3.91701 -0.114812 0)
(0.318506 1.8477 0)
(5.82857 4.6613 -2.60822e-17)
(-0.0376259 7.18341 1.46683e-17)
(0.260158 8.4571 -4.77409e-18)
(0.724173 2.27274 0)
(0.209025 1.83336 6.46853e-17)
(2.04665 -0.0867006 6.95465e-16)
(0.658067 -0.137481 -6.54922e-16)
(-1.51776 0.584822 -3.70591e-17)
(1.80527 2.3237 6.65481e-17)
(1.7708 -0.232245 2.29053e-16)
(-0.108308 -0.603665 0)
(0.235538 1.9486 -6.3014e-17)
(0.95034 4.80976 -1.49422e-18)
(1.36837 5.23313 6.60906e-17)
(0.48354 3.16213 -2.41543e-17)
(0.263894 2.7658 0)
(0.29866 6.11141 6.99329e-17)
(0.219093 2.72867 8.64927e-17)
(-0.0158214 -0.433565 0)
(10.5567 0.657126 1.16331e-16)
(0.322379 6.04087 0)
(0.199781 3.86005 0)
(3.65984 6.58847 -2.7357e-18)
(0.213842 5.86775 1.49231e-16)
(0.0976856 5.92661 1.1856e-16)
(2.49075 -0.286012 -2.15607e-16)
(1.96026 -1.55454 1.98156e-16)
(0.812393 0.219138 2.65411e-16)
(-0.139073 6.87976 0)
(0.278599 6.72914 -9.94023e-21)
(0.150428 6.41171 -1.42621e-16)
(5.9223 -0.638406 -6.72014e-17)
(0.00676375 -0.0490947 6.54146e-17)
(-0.0183684 7.98696 2.2639e-16)
(-1.55979 0.373776 -1.0429e-16)
(2.03989 3.53129 1.43157e-17)
(4.54233 -0.655713 4.20795e-17)
(0.91624 0.102126 -7.57091e-17)
(0.101038 9.62169 7.63431e-17)
(0.0922178 6.27343 1.92464e-19)
(0.0981239 6.12677 7.90385e-17)
(0.0690576 5.7876 7.42067e-19)
(0.0916039 5.96396 0)
(0.104955 10.2747 -6.82234e-17)
(0.070719 6.33394 -1.50063e-16)
(-0.015242 6.32303 -6.87834e-19)
(-0.0292724 6.55568 -1.85047e-17)
(-0.0500948 6.33699 0)
(0.0350371 6.44204 3.87579e-17)
(0.11531 9.18201 0)
(0.234143 10.9567 0)
(0.051821 6.66346 -5.15865e-17)
(0.228644 8.33313 -3.60587e-18)
(0.173062 8.79206 -3.41282e-18)
(0.0501766 6.77886 1.65311e-17)
(0.0296137 6.25371 7.79912e-17)
(-0.00162957 6.18676 0)
(0.0198229 6.76441 -2.29673e-17)
(-0.00120919 6.15907 0)
(0.0121125 6.20538 0)
(-0.0197046 6.6884 1.71188e-17)
(0.0300005 6.27636 0)
(0.215 2.50977 1.00693e-16)
(4.7414 6.77026 -5.55976e-17)
(1.07102 -0.95077 2.47068e-16)
(1.13665 0.579923 0)
(1.15965 7.27643 -9.17334e-17)
(-0.7988 -0.251838 1.08734e-16)
(-0.394199 0.261265 5.76373e-16)
(5.17168 1.19122 -1.84752e-17)
(-0.0499621 7.41447 -1.77514e-17)
(0.485687 8.87369 0)
(-0.785967 -0.056234 5.33515e-16)
(3.18799 0.256194 2.23719e-16)
(0.170187 0.856884 0)
(3.88835 -0.586857 3.29427e-17)
(0.73534 -0.768711 -2.66352e-16)
(0.331343 -0.212284 -1.95563e-16)
(5.72834 5.69456 9.00676e-17)
(1.40242 4.50427 -4.40013e-17)
(0.212165 2.94266 8.90585e-17)
(0.781421 0.505493 -5.35282e-17)
(-2.54658 0.0507999 -7.57559e-17)
(6.24675 0.486729 -3.16255e-19)
(-1.59296 0.113693 -2.76004e-16)
(0.0360633 6.38132 0)
(0.752491 6.6633 2.51044e-16)
(0.753966 4.39443 9.24211e-20)
(0.0871417 0.568954 6.77723e-17)
(1.0819 0.730039 0)
(10.7794 -0.255318 2.74997e-17)
(0.177706 2.32186 -1.32603e-16)
(1.48428 -0.220868 4.01788e-18)
(0.235652 2.30592 1.36906e-16)
(0.0030988 7.61863 0)
(0.436708 2.76588 8.48185e-18)
(0.532307 2.97559 -6.51649e-17)
(8.25059 4.72404 2.16577e-17)
(1.0809 -0.19091 2.97992e-16)
(0.845954 -0.582932 -2.85556e-16)
(-0.0668965 -1.0984 2.06594e-16)
(-0.533748 -0.622887 -6.67294e-17)
(0.45301 3.66003 3.1128e-17)
(-0.0150585 6.06423 1.91298e-20)
(0.161433 7.13324 -1.53825e-17)
(0.974379 0.944399 0)
(0.630416 3.82709 9.6395e-20)
(0.468035 1.36731 5.67004e-17)
(1.38283 -0.00441888 1.22281e-16)
(1.60768 -0.74477 0)
(0.367803 1.19121 -3.6534e-16)
(0.103931 0.640238 0)
(10.473 0.377388 2.2258e-18)
(0.370329 3.62201 0)
(0.663419 4.22727 -5.21976e-17)
(0.0657165 3.24344 1.18395e-16)
(0.39008 -1.70049 2.4442e-16)
(1.45645 -0.547539 0)
(-1.12148 0.513482 -2.80313e-17)
(0.0412022 6.37848 3.19294e-19)
(0.0820032 -1.47658 0)
(-2.96118 -0.00877609 0)
(0.636658 3.91171 -1.69105e-16)
(0.0553935 6.53026 -9.06169e-18)
(7.67746 -0.0060937 0)
(1.31847 0.906089 -1.12815e-16)
(2.41639 -0.639645 -2.19236e-16)
(-0.14708 -1.10849 0)
(0.610077 2.26366 3.02715e-16)
(0.428447 0.247847 -1.69205e-16)
(8.06146 6.69325 1.97191e-17)
(0.32893 5.30336 2.3205e-17)