/*--------------------------------*- C++ -*----------------------------------*\
| =========                 |                                                 |
| \\      /  F ield         | OpenFOAM: The Open Source CFD Toolbox           |
|  \\    /   O peration     | Version:  v1912                                 |
|   \\  /    A nd           | Website:  www.openfoam.com                      |
|    \\/     M anipulation  |                                                 |
\*---------------------------------------------------------------------------*/
FoamFile
{
    version     2.0;
    format      ascii;
    class       volScalarField;
    location    "0.44";
    object      epsilon;
}
// * * * * * * * * * * * * * * * * * * * * * * * * * * * * * * * * * * * * * //

dimensions      [0 2 -3 0 0 0 0];


internalField   nonuniform List<scalar> 
1431
(
146.778
45.1381
6.65983
8.9517
2.40308
41.9697
1.65421
212.104
56.5348
3.44889
73.1008
137.793
23.4926
2.7835
10.6537
5.69052
3.16744
11.6467
2.94934
15.4239
148.029
3.2063
72.0074
133.277
66.9509
15.1503
48.0198
4.7863
85.8514
36.4143
32.8978
44.8024
29.9043
1.72492
35.6925
18.9488
69.277
9.92296
4.77351
37.9397
83.7449
85.5167
19.3147
4.8999
72.3724
3.70756
12.4193
39.2994
1.44075
10.6249
31.2259
5.47452
34.2183
152.161
46.2841
25.6996
2.67589
155.168
12.5626
19.2131
2.92733
3.28914
15.9917
11.6396
5.88752
2.03965
5.19162
8.47657
3.71577
5.04876
112.169
2.26877
10.3751
1.67854
3.4816
3.28026
3.92986
13.8943
8.79592
8.21125
4.10464
10.5781
127.836
20.9322
69.8935
8.94507
12.2644
26.3216
90.2633
126.474
48.7925
5.32271
8.21052
9.08519
53.7563
41.5187
167.198
94.1518
3.49002
24.0456
33.0597
3.27794
5.60406
7.45547
12.2997
45.1524
63.1105
83.1715
68.9677
8.52526
10.0911
27.7673
7.1163
87.3744
52.523
2.29834
2.97701
10.5834
13.2366
15.6247
7.04308
20.9787
139.415
4.24377
90.798
18.9024
5.60444
10.7868
5.90941
33.6381
3.66182
16.9073
28.0897
5.54239
27.8473
10.4528
9.93196
2.23032
66.5002
9.102
6.07374
26.1355
6.68478
5.37931
84.9937
29.8205
14.9574
33.4749
10.8864
5.63319
12.7453
3.76961
40.4771
13.8148
53.4253
8.83164
62.9797
48.7046
132.545
12.8586
97.6477
24.8962
2.26961
9.25279
87.7532
115.065
98.1371
61.5215
9.81713
79.4062
104.259
35.3889
33.8209
65.8377
51.2449
63.989
24.3697
58.2709
33.7769
35.098
1.8159
4.82175
31.2931
229.398
53.7553
115.487
111.396
57.5466
32.8829
84.8569
24.5443
37.4152
38.5373
103.385
12.2879
48.8753
79.7774
29.9812
3.39198
116.944
33.3519
2.65809
48.0423
21.1869
27.2879
26.7825
55.347
4.0635
77.6645
69.4963
86.9915
2.34836
59.8486
47.2777
70.8254
39.0429
42.603
28.5742
31.1682
41.6527
52.3363
30.3938
52.0607
4.73028
57.4316
106.622
65.8501
88.5447
50.8298
30.3907
190.212
31.6384
41.3063
36.3346
45.9318
115.331
55.7659
46.3044
24.2838
28.2822
22.8774
34.2131
89.0054
36.5787
35.0657
16.9756
41.7153
51.7359
55.7703
9.1956
9.0554
71.5934
9.77142
2.78283
25.3701
68.9141
7.17574
134.641
101.009
41.5454
51.6205
64.6435
31.5981
20.0713
64.321
52.6821
44.047
148.234
37.0024
2.48201
72.5308
50.3179
40.5705
24.589
89.7881
33.9982
82.6347
28.9207
70.6548
76.0335
36.7845
54.6141
29.8778
26.428
35.0569
112.068
72.9887
97.6331
80.4425
40.3506
3.46886
50.0658
77.1023
31.3089
25.1638
51.7619
131.816
131.167
30.6404
80.4372
34.9886
20.3321
35.7283
21.4499
44.8673
5.13678
44.9684
40.4066
79.8085
68.9404
45.8115
31.9097
2.67701
70.3814
49.1514
68.12
31.3262
40.1685
1.71148
450.777
39.5489
58.9123
16.0711
29.6118
34.8785
10.6743
22.0736
58.4658
142.334
2.67234
111.299
2.19629
56.1654
3.24356
19.865
20.8535
57.2491
116.936
37.3589
85.9926
16.7875
20.5946
35.46
80.0173
53.377
30.1855
37.4893
80.2314
37.4244
27.699
46.7013
4.65701
31.8967
36.401
4.44481
30.953
84.4103
63.9101
62.9998
78.3709
3.82609
96.0171
94.2036
30.5129
2.02309
67.1296
61.115
306.92
52.626
23.4359
66.5733
2.72606
103.059
34.0342
73.9005
176.485
41.1652
25.9039
6.66897
222.681
28.4612
41.7592
37.0015
6.29017
444.401
46.2457
35.0922
59.0083
31.9147
33.887
25.1829
37.0627
37.1617
3.78503
104.036
33.536
36.5845
38.1217
65.8023
37.5586
34.5896
68.8716
81.9676
65.3767
12.0874
37.9558
46.0456
43.9129
31.5003
37.6149
40.1076
32.2473
37.5169
11.9455
56.6011
9.97496
32.219
55.9994
34.9913
37.6231
65.4984
19.548
28.1368
33.6654
37.9482
3.31768
7.03615
5.48241
6.53429
101.89
33.9166
39.2628
43.296
43.1954
44.2946
39.9618
35.91
41.5739
34.7124
39.2755
3.22332
71.1887
3.09616
2.59365
4.41284
1.61391
2.22111
1.99399
20.9374
4.98083
6.27671
9.34611
1.5073
13.7174
1.52872
1.53407
4.17337
120.736
19.6728
4.36437
4.31021
8.5061
115.113
1.757
5.02679
8.83932
9.15713
112.461
8.58459
110.526
4.93364
6.11683
5.6373
3.95859
68.5319
66.0927
7.46073
10.4324
2.43365
8.48823
3.78409
3.73917
72.665
11.7819
8.43223
3.33668
4.88017
6.02314
5.52122
9.03776
81.5788
8.67805
6.0185
7.45898
3.33218
4.27026
6.69247
86.4565
6.94591
52.8083
8.40834
6.74526
44.5558
13.5875
84.6517
71.3492
3.02233
10.2157
7.24521
15.112
6.92044
10.43
3.02836
6.29477
21.2069
5.29284
7.82984
6.7902
18.5721
76.2037
34.8979
10.896
52.0285
3.07767
8.03335
5.50558
83.6087
37.9479
3.89276
36.7907
36.8432
26.572
15.4081
66.2044
41.5949
6.23182
33.9347
138.583
9.02558
5.72249
34.0697
11.7223
93.0901
19.5491
79.0728
30.2466
32.8031
110.739
35.1898
48.6413
33.25
10.3167
64.8914
38.5508
11.2739
81.4546
7.49175
9.03032
120.59
198.717
48.7492
76.163
56.7657
25.1747
333.677
26.7685
31.8779
6.71107
8.29353
60.7244
35.5528
43.5519
31.7503
16.5803
46.9307
30.3299
3.66226
170.798
23.639
34.8995
34.9651
40.5674
61.2472
30.0132
31.4368
46.7711
32.9044
24.0405
57.8454
23.5046
13.3067
311.431
30.2852
32.4384
60.6913
36.0636
6.49938
34.2664
68.7332
70.3209
106.589
15.1532
39.6209
25.4073
28.6641
43.7886
71.483
31.7649
17.5077
2.13694
4.26596
21.575
37.0476
22.5717
83.4896
57.5338
99.8559
16.3449
6.74567
34.176
60.2493
37.4472
40.1578
37.5653
22.907
43.7616
40.4352
5.86462
30.6535
27.9975
23.3666
31.6475
4.52513
29.2203
36.2901
27.947
170.46
27.35
89.195
31.8774
68.9812
68.7807
21.4588
39.5716
241.5
19.7955
28.9953
33.0417
131.247
36.6577
7.51039
65.561
140.036
28.7487
2.59017
38.1592
62.8288
40.5318
6.8295
95.7015
103.461
40.0575
18.7695
29.4723
10.2223
27.0763
16.2846
6.19769
33.0152
8.08315
38.1662
70.4664
116.867
36.9108
7.02287
14.4099
117.638
3.50251
64.9818
28.2311
33.6573
28.5759
34.7478
119.894
10.2872
3.90203
14.0608
77.5356
2.95271
133.736
73.608
45.8605
87.6557
116.693
91.6263
48.772
236.057
39.599
81.1532
45.3694
196.607
29.8634
34.4366
103.156
191.239
120.021
113.455
217.762
34.1741
39.3966
75.4901
37.5995
29.1074
56.2259
7.91033
96.0195
9.60126
93.554
21.5915
81.9968
97.0294
28.5089
69.1057
31.266
14.8799
82.6316
64.1289
15.2393
76.3969
102.857
11.6431
99.5559
11.6706
22.8223
99.1084
40.5583
81.0671
252.144
125.122
10.1292
48.422
64.2584
24.8918
61.8635
24.5311
46.6432
4.89413
9.47408
81.8301
2.28683
11.2503
29.2871
46.5954
2.61504
180.32
79.9307
59.0527
6.22902
49.9836
75.8478
174.503
123.868
47.0501
1.69197
11.7273
65.9092
5.65812
2.32508
39.9419
25.8736
12.199
43.4053
78.1074
72.1877
63.7287
32.1571
59.2298
30.0663
45.1677
49.1463
31.7214
11.3889
32.3123
8.47729
152.945
76.0498
52.5501
34.2784
34.7907
33.8849
43.7269
10.8026
53.4734
43.4332
46.7774
71.6434
10.1959
36.6964
6.11689
27.4681
38.5449
3.8648
24.3993
29.1849
24.6816
434.805
43.8573
43.1362
28.5291
52.7192
286.36
26.6541
32.103
65.602
61.1788
131.635
13.1269
2.89115
55.9121
73.7422
2.57703
53.6673
35.1121
35.4204
173.48
50.3296
62.5631
25.3365
3.02943
5.75294
46.3454
259.456
137.049
36.7427
34.8994
143.947
31.4144
53.2188
34.0877
22.8689
30.2794
7.45241
9.03987
51.1891
37.9135
110.616
10.673
178.044
31.3263
84.7377
53.0388
24.5125
15.9755
30.0977
3.95233
11.0625
36.6848
48.0027
5.26366
9.87628
31.4849
33.5939
57.9239
32.7274
21.6985
43.374
19.1194
13.9017
76.5242
40.3842
33.3647
347.433
47.2024
101.764
10.6924
18.6862
1.50887
146.439
41.2014
106.038
116.771
10.4637
90.0947
95.8433
288.432
150.494
247.173
52.3181
72.2456
78.0492
87.2736
82.8919
54.0668
69.0856
52.6925
49.4901
51.9901
51.4231
48.6111
57.1945
46.6757
42.3834
44.6121
42.9374
68.9635
68.6703
41.1787
67.8457
65.4043
40.753
61.7558
15.2167
61.078
9.35232
6.2451
47.2964
2.89052
4.00905
116.448
53.3712
22.8496
2.93943
60.5017
20.0209
166.132
3.92958
2.58379
73.026
50.0432
22.1551
10.9587
16.3821
148.943
1.5566
57.8992
34.1138
33.78
22.2665
10.3528
60.6855
40.8907
6.82184
15.9023
61.6492
27.3216
25.7846
73.8575
7.85112
4.81669
3.72207
5.74649
33.3455
83.405
36.7339
6.53204
33.9833
7.59731
9.88482
22.6297
11.2041
37.2108
63.1289
32.1957
36.0906
119.402
6.55748
4.15981
19.3945
57.1918
4.13908
21.6458
35.7252
35.4467
159.243
2.81602
3.32518
8.27074
13.4111
1.72512
499.625
40.3969
45.9122
5.04735
187.146
41.2926
115.465
2.5028
15.2298
13.242
3.26413
7.28151
37.6076
39.1325
226.806
82.2836
57.253
40.9886
5.82924
45.853
3.30665
59.4791
29.4982
16.862
63.729
48.2771
25.4895
63.8462
74.1114
12.9474
10.6548
6.08719
66.6495
69.9554
11.2319
36.2473
35.9417
33.838
18.6211
34.7055
33.4807
70.936
256.899
1.57333
88.672
37.5041
12.3179
41.5446
168.414
37.2184
53.4913
30.5751
90.4133
67.2877
20.1406
4.22468
47.8849
33.1516
264.656
76.8457
63.1413
32.8256
14.3858
72.0699
5.11636
53.0072
32.5309
139.716
66.5015
158.482
81.3331
51.9798
8.04025
38.8454
15.966
6.40743
3.98796
16.5422
3.38947
35.9661
60.9996
40.1521
13.5615
55.9329
90.6562
9.78242
4.50069
25.7248
195.254
41.7462
177.291
59.0971
30.7741
212.279
55.2414
251.785
247.778
247.924
163.58
166.361
156.332
236.337
140.189
2.59114
2.29248
2.04702
2.20879
2.223
2.4235
28.8582
17.1811
49.0471
62.5494
55.1814
38.6246
2.74845
22.9212
10.6243
1.46312
36.783
7.01762
42.8134
63.3035
30.5599
40.4294
2.52987
103.483
32.3036
53.5968
36.9612
27.3698
22.2352
33.0366
379.961
44.2122
12.3242
32.3007
80.1222
7.99631
30.1171
68.5022
9.65213
47.4416
2.32816
6.27385
7.85401
42.0253
7.44036
16.3564
2.34007
3.06794
6.33119
6.42546
90.2895
67.1756
11.1991
3.77243
29.2457
112.811
10.549
74.2448
99.6113
41.0044
87.9425
14.6458
29.8585
33.6018
77.8824
5.96903
36.8468
69.7705
86.3227
55.8351
41.2616
52.8845
5.24252
10.8031
59.9181
30.61
35.8341
73.5327
71.9707
81.1602
106.967
31.6709
34.8652
72.2512
9.7091
6.19447
4.6581
3.992
7.72988
104.322
31.44
5.79898
76.0787
36.1628
3.14223
49.7043
8.18236
63.8237
86.6082
34.6054
36.7026
10.1791
81.9962
76.4956
88.3821
56.2014
170.723
4.63608
6.25704
3.01809
162.171
131.435
113.158
51.2335
52.7542
3.62287
171.059
2.05491
33.2268
3.21476
2.84591
8.67177
55.9107
4.23839
66.868
52.4623
95.8273
2.05812
33.384
16.2474
3.1156
3.46427
5.60962
42.6526
121.594
9.42336
45.6506
66.3945
38.7153
27.6813
35.7587
35.4016
5.93205
2.87835
12.1732
37.9018
262.945
32.9468
350.482
54.4311
48.9458
31.7788
77.1784
30.6225
2.00662
25.651
13.1842
143.1
20.5116
96.916
141.229
63.6636
3.79855
34.3157
3.10742
5.01392
32.8839
87.9349
58.9422
111.63
49.6385
14.8847
32.1327
36.2778
14.418
27.3171
9.8394
3.00933
4.50906
32.3567
292.689
32.1591
33.7952
9.65958
4.14632
28.5657
31.7074
29.6827
256.857
48.3822
49.8529
61.2708
1.8335
35.9278
39.3066
34.4834
90.0811
58.697
89.5765
39.8976
71.7387
16.2589
76.9342
30.5106
49.8792
167.67
33.292
6.52949
3.67236
38.9531
55.1928
28.1562
60.5612
4.06052
144.24
10.5846
4.47619
9.07477
290.956
36.4541
43.97
8.70128
6.05117
119.561
55.3704
135.214
12.7754
11.7371
40.3814
220.996
3.17792
255.862
130.728
8.92021
65.6023
114.962
140.661
58.9819
127.439
43.9209
9.01837
72.7674
64.3687
1.88814
77.5498
8.73902
93.0494
211.707
182.529
29.7414
3.59678
8.69101
80.7534
18.187
21.1444
42.662
137.349
1.52159
33.734
6.10887
113.206
37.8848
52.4348
3.44095
4.47996
16.3783
114.942
189.976
13.7967
35.9123
2.59109
8.10041
33.5905
42.0087
2.54031
43.1634
5.22202
36.7131
34.4357
43.9678
121.562
43.2408
2.25417
52.6246
24.4402
3.33891
15.8156
45.0103
3.0268
7.59567
27.1455
31.0994
42.4228
2.81541
1.88118
118.018
86.8722
79.5226
21.6179
6.47132
4.91082
9.47203
51.2536
9.86019
8.79332
4.60177
5.81716
1.95452
4.85733
98.9516
54.1411
22.8312
31.5317
59.046
77.0222
32.2145
4.61098
1.8703
52.6603
101.92
87.6192
5.16825
6.57558
12.2805
25.2373
6.89348
21.122
53.2492
29.556
13.0462
69.8361
76.9174
55.953
79.2055
4.16665
77.5571
17.2141
68.7076
123.749
8.46658
22.2761
50.3618
197.015
4.14808
13.1883
26.4875
48.5111
49.7407
3.00761
)
;

boundaryField
{
    frontAndBack
    {
        type            empty;
    }
    wallOuter
    {
        lowReCorrection 0;
        type            epsilonWallFunction;
        value           nonuniform List<scalar> 
96
(
85.8514
36.4143
41.5187
116.867
117.638
119.894
133.736
116.693
91.6263
236.057
81.1532
196.607
103.156
120.021
217.762
252.144
125.122
48.422
59.2298
152.945
71.6434
173.48
50.3296
259.456
137.049
52.3181
72.2456
78.0492
87.2736
82.8919
54.0668
69.0856
52.6925
49.4901
51.9901
51.4231
48.6111
57.1945
46.6757
42.3834
44.6121
42.9374
68.9635
68.6703
41.1787
67.8457
65.4043
40.753
61.7558
57.8992
83.405
36.7339
57.1918
21.6458
159.243
57.253
63.8462
88.672
37.5041
37.2184
264.656
14.3858
5.11636
139.716
195.254
177.291
212.279
55.2414
251.785
247.778
247.924
163.58
166.361
156.332
236.337
140.189
2.59114
2.29248
2.04702
2.20879
2.223
2.4235
38.6246
30.5599
42.0253
41.2616
170.723
42.6526
262.945
256.857
89.5765
39.8976
3.17792
127.439
211.707
8.69101
)
;
    }
    inlet
    {
        type            fixedValue;
        value           nonuniform 0();
    }
    outlet
    {
        type            zeroGradient;
    }
    wallInner
    {
        lowReCorrection 0;
        type            epsilonWallFunction;
        value           nonuniform List<scalar> 
126
(
12.5626
19.2131
2.92733
3.28914
15.9917
11.6396
5.88752
2.03965
5.19162
8.47657
3.71577
5.04876
112.169
2.26877
10.3751
1.67854
3.4816
3.28026
3.92986
13.8943
8.79592
8.21125
4.10464
10.5781
24.0456
2.29834
2.97701
10.5834
13.2366
15.6247
7.04308
20.9787
139.415
4.24377
90.798
18.9024
5.60444
3.66182
16.9073
9.102
6.07374
6.68478
5.37931
14.9574
5.63319
3.76961
13.8148
87.7532
1.8159
115.487
111.396
12.2879
86.9915
2.48201
70.6548
76.0335
3.46886
131.816
131.167
80.4372
20.3321
31.9097
2.67701
70.3814
10.6743
22.0736
111.299
85.9926
16.7875
63.9101
96.0171
94.2036
43.9129
55.9994
13.5875
21.2069
36.7907
138.583
11.7223
110.739
10.3167
120.59
46.9307
170.798
57.8454
311.431
106.589
40.1578
4.52513
241.5
140.036
191.239
113.455
75.8478
101.764
146.439
37.2108
71.9707
29.7414
3.59678
52.6603
101.92
5.16825
12.2805
25.2373
6.89348
53.2492
13.0462
69.8361
76.9174
55.953
79.2055
4.16665
17.2141
68.7076
123.749
8.46658
22.2761
50.3618
197.015
4.14808
13.1883
26.4875
48.5111
49.7407
3.00761
)
;
    }
    procBoundary3to1
    {
        type            processor;
        value           nonuniform List<scalar> 
48
(
74.7268
90.7985
88.8611
86.841
66.9402
111.509
90.7985
8.14049
40.8885
9.30847
9.30847
8.63704
8.63704
4.4434
5.55639
6.59404
4.63575
4.83318
4.63575
3.36427
5.43062
5.92425
3.36427
78.4081
8.36722
3.09456
6.05015
5.92425
6.29386
13.4402
13.4402
6.65704
6.65704
40.8885
2.6514
61.5943
11.9511
8.36722
61.7124
54.331
4.4434
21.6312
30.0232
3.36427
7.00033
83.1302
63.6192
4.97488
)
;
    }
    procBoundary3to2
    {
        type            processor;
        value           nonuniform List<scalar> 
29
(
8.21435
8.21435
1.65808
2.34669
10.3243
5.47451
10.3406
7.46307
1.64028
1.62661
7.19705
7.89452
10.2729
5.95603
3.05103
5.92246
1.63508
1.47334
6.90765
5.3954
3.94517
1.63508
2.88982
1.47334
2.46134
1.98289
1.47334
7.72353
7.72353
)
;
    }
}


// ************************************************************************* //
