/*--------------------------------*- C++ -*----------------------------------*\
| =========                 |                                                 |
| \\      /  F ield         | OpenFOAM: The Open Source CFD Toolbox           |
|  \\    /   O peration     | Version:  v1912                                 |
|   \\  /    A nd           | Website:  www.openfoam.com                      |
|    \\/     M anipulation  |                                                 |
\*---------------------------------------------------------------------------*/
FoamFile
{
    version     2.0;
    format      ascii;
    class       volScalarField;
    location    "0.44";
    object      nut;
}
// * * * * * * * * * * * * * * * * * * * * * * * * * * * * * * * * * * * * * //

dimensions      [0 2 -1 0 0 0 0];


internalField   nonuniform List<scalar> 
1431
(
0.00566472
0.0115967
0.00137316
0.00165974
0.00110963
0.00538236
0.00123329
0.00671516
0.00559521
0.000898334
0.0030175
0.00739985
0.00736239
0.00122119
0.0011975
0.00150253
0.000965776
0.00109733
0.00090549
0.00151175
0.00376091
0.00280577
0.00504427
0.00816022
0.00504132
0.00465388
0.00270049
0.00100177
0.000970519
0.000779944
0.00226232
0.00278461
0.00217803
0.000761266
0.00746913
0.00431308
0.0116403
0.00129968
0.00146467
0.00248473
0.0070025
0.00952836
0.0058222
0.0018578
0.0032869
0.00105847
0.00207409
0.00254458
0.00154965
0.00320837
0.00912197
0.0022396
0.00942199
0.00797346
0.011291
0.00497066
0.000552848
0.00811969
0.00125596
0.00135617
0.000886026
0.000792328
0.00113068
0.00121612
0.000612824
0.000417635
0.000888435
0.000905317
0.000709214
0.000715698
0.00288738
0.00068716
0.00098201
0.000524551
0.000853432
0.000613788
0.000639134
0.0010803
0.00115951
0.000989103
0.000880833
0.000971886
0.0100667
0.00275292
0.00364982
0.00371571
0.00263037
0.00221226
0.0070139
0.00938408
0.00149494
0.000850934
0.00124656
0.00229232
0.0106366
0.000749023
0.00759163
0.0140365
0.0017552
0.00146578
0.0074761
0.00139443
0.00119502
0.00114142
0.00156219
0.00270283
0.00335047
0.00256532
0.00431889
0.00120528
0.00116173
0.00846885
0.00384551
0.00567263
0.0119262
0.000779498
0.000799004
0.0011393
0.0010096
0.00101274
0.000758156
0.00144385
0.00186369
0.000719058
0.00206015
0.00116844
0.000831373
0.00159412
0.00232114
0.00724148
0.000623921
0.00100669
0.00792771
0.000850785
0.00173659
0.00253016
0.00331772
0.00134575
0.0076276
0.000874118
0.000869181
0.00219069
0.000850185
0.000649649
0.00519175
0.00208093
0.00106533
0.0087553
0.00216825
0.000842186
0.00160277
0.000844908
0.00264423
0.00109114
0.00379366
0.00237706
0.0056598
0.0112699
0.0100363
0.00484252
0.0111937
0.00801539
0.00117429
0.00339853
0.00203052
0.0052571
0.00473178
0.0112881
0.00250681
0.0135304
0.0115838
0.00995313
0.00241126
0.00754243
0.0120036
0.00542439
0.00700663
0.00421804
0.00948118
0.00802706
0.000430681
0.00213117
0.00926876
0.00999244
0.00428009
0.0014123
0.00141595
0.0123051
0.00267626
0.00469361
0.00246021
0.00277548
0.00293636
0.0027509
0.00099173
0.0106464
0.0132961
0.00648429
0.00072037
0.00236074
0.0101671
0.00152866
0.00285248
0.00407911
0.00865008
0.00259337
0.00274525
0.000624655
0.00805166
0.00384268
0.00174785
0.000765258
0.00336494
0.00273216
0.00658241
0.0015245
0.00314699
0.00643192
0.00923043
0.00271024
0.00359972
0.00916929
0.001978
0.00230903
0.00395009
0.00889207
0.00313346
0.0139146
0.0031053
0.00234076
0.00443955
0.00226696
0.00266202
0.00281327
0.00295251
0.0127965
0.00338117
0.00296455
0.00237784
0.00909746
0.00704619
0.00969751
0.00843393
0.00279186
0.00275982
0.00209351
0.0029501
0.0027704
0.00380681
0.00255545
0.00162108
0.0085561
0.00410205
0.0023144
0.00254587
0.00874053
0.00346658
0.00932428
0.013228
0.00302252
0.0017451
0.0074166
0.00931405
0.00602705
0.00419343
0.0029933
0.00777825
0.00315158
0.00250458
0.000422061
0.00456062
0.00334394
0.0110819
0.00771402
0.0103
0.00222639
0.00974985
0.00244017
0.00116133
0.00165904
0.0102151
0.0107352
0.00208263
0.00800998
0.00969635
0.0135894
0.00868121
0.0138187
0.00333123
0.0110847
0.00053391
0.00732164
0.0133834
0.00983944
0.00221773
0.00281179
0.00166294
0.00157517
0.00212359
0.0012078
0.00947412
0.000999768
0.0104182
0.00775133
0.00240556
0.00294987
0.0112724
0.00280343
0.0101571
0.0130098
0.0092497
0.00119716
0.000580282
0.00116901
0.00624073
0.0123465
0.00681485
0.010538
0.00116718
0.00823268
0.0105805
0.0115892
0.00105943
0.0086576
0.00561898
0.000920964
0.00109
0.00663962
0.00749217
0.00207462
0.00132382
0.00114333
0.0063566
0.00311489
0.00638829
0.00732463
0.00806355
0.0131836
0.00535003
0.00125397
0.000963351
0.00693272
0.00693586
0.00636963
0.00577797
0.0024798
0.010748
0.00956295
0.00834295
0.00923115
0.00470676
0.00104241
0.00892346
0.00957172
0.000990498
0.00833466
0.00422607
0.00162897
0.00725535
0.0079953
0.00282206
0.00142431
0.00125363
0.00951856
0.00111182
0.0028403
0.00542709
0.00986451
0.00284715
0.00214153
0.00286988
0.00108859
0.00799206
0.00987682
0.00670492
0.0103025
0.0103035
0.00509611
0.0029042
0.0104868
0.00868869
0.00497516
0.00594878
0.000975882
0.00985526
0.00583193
0.0093321
0.00555964
0.00553418
0.0097322
0.00770353
0.00955572
0.00959834
0.00255614
0.012717
0.00952736
0.00928541
0.00925607
0.00532083
0.00612463
0.00871435
0.0068585
0.0126774
0.00873329
0.00359682
0.00894509
0.00524096
0.000960167
0.00883217
0.00903835
0.00953589
0.00634213
0.00915757
0.00518457
0.00540037
0.00102117
0.00868935
0.00103046
0.00592705
0.00929081
0.00407428
0.00673725
0.00853529
0.00904811
0.00945911
0.00103999
0.00156609
0.00156787
0.00384447
0.00761261
0.00900265
0.0097983
0.010324
0.0104797
0.0104949
0.00993745
0.00943299
0.00999105
0.00930018
0.00987889
0.00101184
0.00796476
0.000998771
0.001061
0.0011991
0.00125827
0.00114789
0.00106596
0.00292215
0.00219206
0.00211366
0.00304367
0.00156216
0.00155635
0.00126184
0.00159039
0.00250101
0.00896885
0.00175831
0.00222817
0.0023792
0.00302046
0.00860889
0.00163137
0.00260413
0.0025453
0.00131461
0.00830252
0.00263156
0.00797241
0.00172186
0.00212073
0.00119193
0.00302696
0.0077223
0.00797506
0.0021442
0.00342018
0.00123275
0.00246917
0.00317455
0.0012154
0.00781103
0.00416613
0.00135533
0.00284917
0.00138979
0.00127986
0.00292936
0.0030487
0.00764757
0.00361346
0.00339193
0.00273625
0.00214251
0.00163931
0.00376554
0.00726964
0.00343712
0.0024008
0.00244846
0.00258911
0.0025222
0.000662143
0.00707645
0.00818715
0.00115378
0.0042294
0.00314316
0.00147938
0.00229866
0.0020618
0.00141899
0.00372073
0.000656195
0.00383664
0.00261981
0.00283593
0.00210667
0.00792293
0.00281176
0.0039083
0.00319456
0.00227788
0.00362743
0.00342452
0.00647523
0.00245287
0.00100663
0.000894612
0.0105955
0.00673883
0.00564764
0.00314641
0.0098472
0.00329799
0.00561078
0.00164465
0.00445862
0.00106948
0.0094476
0.000802532
0.00583313
0.00577942
0.00374035
0.00527255
0.00979512
0.00145721
0.00934284
0.0103849
0.00900608
0.000659553
0.00691174
0.0091909
0.00226026
0.00248058
0.00384745
0.00265542
0.00153446
0.00417871
0.0104453
0.00664429
0.0102568
0.00814383
0.00570586
0.00530255
0.00831974
0.00280134
0.00395308
0.00874447
0.00999235
0.00550227
0.00899578
0.00557566
0.00101051
0.00550627
0.00299437
0.00174893
0.0076482
0.00915138
0.00984165
0.00486949
0.003559
0.00771131
0.00811498
0.00358613
0.00266073
0.00717154
0.00111184
0.00244747
0.00548796
0.00185635
0.00872678
0.00959329
0.00406278
0.00935386
0.00190664
0.00905531
0.0129181
0.00775739
0.00146831
0.00601642
0.00861545
0.00549078
0.00581176
0.00462604
0.00148448
0.00755349
0.00238634
0.00114645
0.00315115
0.00639303
0.00960491
0.00757205
0.00412165
0.00741484
0.00300849
0.00563678
0.00320997
0.00806882
0.0124989
0.0105005
0.000961623
0.00910625
0.00798019
0.00457943
0.0095788
0.00147683
0.00630845
0.00770517
0.00829349
0.00816966
0.000557816
0.00871878
0.0101266
0.00658143
0.00637381
0.00855461
0.00403591
0.00986375
0.0053243
0.0113746
0.00643777
0.00875991
0.0018943
0.00736501
0.00557072
0.00561991
0.00319984
0.0100266
0.003633
0.0103657
0.00156707
0.00695091
0.0011588
0.00498572
0.00541303
0.00456154
0.0026863
0.00989539
0.0122726
0.00929457
0.00617147
0.00955189
0.00315345
0.00270341
0.00198202
0.00337323
0.00899966
0.00098815
0.00968409
0.011872
0.00134487
0.00974085
0.00343554
0.00188192
0.00135197
0.00320047
0.00382697
0.00923604
0.010191
0.00792813
0.00961946
0.00134713
0.00183149
0.00115044
0.00584363
0.00449545
0.00109722
0.00125993
0.00312505
0.00276708
0.00558671
0.0012076
0.00105351
0.010696
0.00152762
0.00326541
0.000956151
0.00702658
0.00139576
0.00748987
0.00969414
0.00114233
0.00197046
0.00138585
0.00144037
0.00145822
0.0100069
0.00680545
0.00494005
0.00637365
0.00238347
0.00377731
0.00280671
0.00564817
0.00444645
0.00313063
0.00601283
0.00435503
0.00619008
0.00261937
0.00828126
0.00968848
0.0020944
0.00864469
0.00256209
0.00533302
0.00263898
0.00323081
0.00342733
0.013207
0.00363313
0.00697933
0.00412638
0.00285223
0.00554016
0.00161007
0.00133913
0.00438938
0.000877973
0.00558999
0.00805728
0.00387783
0.00737031
0.00487962
0.00214835
0.00128588
0.0039644
0.0016789
0.00518346
0.00909473
0.00988907
0.00154448
0.00849401
0.00386459
0.00739049
0.000931891
0.00528173
0.00115246
0.00959394
0.00472267
0.00338952
0.00118474
0.00169806
0.00335948
0.00173151
0.0013028
0.00849161
0.00760454
0.00405294
0.00268546
0.00357947
0.00573964
0.0063302
0.00941871
0.000961275
0.005406
0.00813192
0.00321002
0.00846402
0.00301883
0.00992206
0.00260439
0.00132139
0.00713314
0.00437349
0.00956322
0.00255925
0.00958401
0.00362611
0.00141537
0.00289783
0.00883156
0.00281963
0.00090905
0.00434955
0.00224078
0.0037346
0.00879939
0.00261128
0.00291111
0.00232871
0.00808314
0.00765212
0.00710409
0.00285295
0.00586241
0.00535706
0.0041775
0.00960097
0.0049361
0.00983238
0.00620297
0.0100742
0.00938701
0.00520667
0.00106171
0.0110803
0.0047018
0.00090764
0.00295243
0.0102948
0.00938446
0.00135895
0.000892208
0.00872641
0.00217693
0.0012192
0.00272735
0.0103213
0.00167631
0.00129021
0.00258834
0.00992494
0.00816949
0.00194265
0.0111708
0.00957173
0.00705935
0.00944477
0.00208838
0.00274895
0.00269894
0.0097616
0.012208
0.0032147
0.00990063
0.00524604
0.0113042
0.00314504
0.00216291
0.00650979
0.00793588
0.000953998
0.00126455
0.0082456
0.00410922
0.00171594
0.00269629
0.0081747
0.00931483
0.00471526
0.00972141
0.0075125
0.00720674
0.00704245
0.00265394
0.0091491
0.00742876
0.00936694
0.00634592
0.00842068
0.00121334
0.00154105
0.00152101
0.00146409
0.00222794
0.00681255
0.00346148
0.00766841
0.00388346
0.0039828
0.00306432
0.00670259
0.0084884
0.00533701
0.000752595
0.000982993
0.000938577
0.00081
0.000863975
0.000845357
0.000974037
0.000667703
0.00080828
0.000718932
0.000723023
0.000673161
0.000912526
0.000812602
0.000667102
0.000654226
0.000849126
0.000922077
0.000872952
0.000838821
0.000833489
0.000837866
0.000804384
0.0008639
0.0062083
0.00807988
0.00345656
0.00338946
0.00471189
0.00254478
0.00150675
0.00485214
0.00258583
0.00209055
0.00193634
0.00222626
0.00567034
0.00941914
0.00226257
0.0015671
0.00952183
0.00376674
0.00755272
0.0023475
0.00327791
0.00985494
0.000857867
0.000873033
0.00696235
0.00949275
0.00138422
0.00282814
0.00639129
0.00170705
0.00180021
0.00624899
0.00706301
0.00838435
0.00883942
0.0057519
0.0019083
0.00195783
0.00131119
0.00343537
0.0101268
0.00107025
0.000790345
0.00330753
0.00955501
0.00357157
0.00223406
0.00175469
0.00369847
0.000835907
0.00588361
0.0092
0.00968034
0.00218769
0.00120518
0.00240606
0.00596424
0.000798437
0.0011114
0.000874606
0.00959567
0.00255128
0.00115677
0.00092749
0.00159744
0.00116128
0.00496562
0.00154014
0.00903782
0.00839777
0.00298498
0.00179908
0.00721492
0.00826647
0.0134598
0.00140544
0.00342762
0.00497895
0.0010939
0.00331305
0.00994781
0.00264735
0.00418862
0.00708826
0.000836994
0.00832252
0.0033301
0.00213744
0.00244465
0.00391884
0.00234442
0.00186835
0.00413668
0.00265319
0.00711919
0.00098618
0.0104795
0.00466459
0.00256175
0.00206191
0.00274431
0.00177763
0.00104584
0.00843545
0.0101909
0.0093993
0.000986458
0.0088132
0.00928164
0.00441918
0.00446217
0.00100461
0.000870908
0.000740344
0.00412522
0.00857118
0.00880866
0.000793423
0.00531281
0.00225337
0.0103766
0.0074496
0.00555895
0.00187498
0.00307101
0.00797648
0.00171867
0.00423144
0.0102215
0.00887792
0.000771528
0.00236662
0.000548994
0.00840672
0.00981954
0.00158715
0.0115029
0.0069415
0.0079741
0.00770163
0.00341452
0.00772681
0.00503439
0.00127482
0.00143182
0.00552768
0.00188367
0.00873931
0.0108315
0.0059457
0.00458932
0.0105294
0.010276
0.00205617
0.00138644
0.00822893
0.00168716
0.00731712
0.00187777
0.011495
0.00890627
0.00166537
0.00084055
0.00162762
0.00151642
0.00146176
0.00186004
0.00164276
0.00156191
0.00155963
0.00156866
0.000334556
0.00033115
0.000254472
0.000277474
0.000204196
0.000261155
0.00913104
0.00181287
0.0104427
0.00295093
0.00892948
0.000785471
0.00207136
0.00614391
0.00288654
0.00153482
0.00993419
0.00275763
0.00330334
0.00776599
0.000966233
0.0030819
0.00102522
0.00929505
0.00848256
0.0035556
0.00706158
0.0024082
0.0052645
0.00908322
0.00898648
0.00345733
0.00142094
0.00309603
0.0123976
0.00259465
0.00899563
0.00398576
0.00308927
0.00710883
0.00109929
0.001275
0.00400736
0.000707936
0.00212904
0.00157206
0.00133924
0.00191245
0.00147896
0.00281463
0.0128407
0.0106599
0.00299268
0.0021432
0.00814254
0.00254477
0.00237101
0.00348347
0.0056769
0.00909605
0.00517369
0.00159341
0.00176579
0.00350891
0.00383321
0.0017701
0.00823441
0.00371706
0.00322404
0.0103691
0.000738386
0.00286456
0.00128854
0.00275389
0.00994745
0.00488744
0.010271
0.00355544
0.00152106
0.00504563
0.0134872
0.00252023
0.0102516
0.00180214
0.00256756
0.00114615
0.00247701
0.00130112
0.00116777
0.00775467
0.00934978
0.00253084
0.00314556
0.00966677
0.0021205
0.0101967
0.00185138
0.0041885
0.00375339
0.00246173
0.00753585
0.00352552
0.00344044
0.00547756
0.00321314
0.0106347
0.00116264
0.00180635
0.00160849
0.00137355
0.00566354
0.0101579
0.00588405
0.00956409
0.00626548
0.00308418
0.00970184
0.00105579
0.00338753
0.00271473
0.00121669
0.00147645
0.00990089
0.00349714
0.0012993
0.00318786
0.0075126
0.00138005
0.00918914
0.00414503
0.0028742
0.0029297
0.00100538
0.00101498
0.00986442
0.00196322
0.00970027
0.00501716
0.00834996
0.00855625
0.00954316
0.00205574
0.00328404
0.000900414
0.00147705
0.0068679
0.00173965
0.00855477
0.0107239
0.00262002
0.00655725
0.00832564
0.00547932
0.00750362
0.000980259
0.00715809
0.00233327
0.00233822
0.00444615
0.00407161
0.00537435
0.00481616
0.00102296
0.0101281
0.00195683
0.00357364
0.00690257
0.00435618
0.0092771
0.00307783
0.00580359
0.00609545
0.00687975
0.00864245
0.0025241
0.00193574
0.00225207
0.0020748
0.0035294
0.00850597
0.00631184
0.00794796
0.00857157
0.00207012
0.00185115
0.00235325
0.0078201
0.00189167
0.00170398
0.00899888
0.0109496
0.00678627
0.00123604
0.0091247
0.00757396
0.0102783
0.00367036
0.0036203
0.000802076
0.000688813
0.00154649
0.00202243
0.00186027
0.00263775
0.00370073
0.00918375
0.0101078
0.00117048
0.00264109
0.0088206
0.0027508
0.00243045
0.00310263
0.00103269
0.00839143
0.00300277
0.00197937
0.00294316
0.0102528
0.00602322
0.00925746
0.00185118
0.0028359
0.00258469
0.00719603
0.00688606
0.0025121
0.00395547
0.00498612
0.0101068
0.000430427
0.00576315
0.00977917
0.00330914
0.00410792
0.00433268
0.00741175
0.0112698
0.00146214
0.00582434
0.000911877
0.00825273
0.00181659
0.00100209
0.00520607
0.00216264
0.00901422
0.00089377
0.00728312
0.000893282
0.0004468
0.000666294
0.00442422
0.00497534
0.00175928
0.0019446
0.00791503
0.00152637
0.00536075
0.00167518
0.00958803
0.00173833
0.002642
0.00116221
0.00350188
0.00343699
0.00747304
0.0100385
0.00365006
0.00645249
0.00106227
0.00167143
0.00174342
0.00261155
0.00143509
0.0068504
0.0038027
0.00207246
0.00223572
0.00264864
0.00883209
0.00258148
0.000909521
0.0028164
0.00219477
0.00288747
0.00484469
0.00693907
0.00231603
0.00355007
0.00219533
0.00242165
0.00336052
0.00113733
0.000488378
0.00806978
0.00658082
0.00231206
0.00275418
0.00349243
0.00231255
0.00329393
0.00331494
0.00166407
0.00141005
0.00186593
0.00200508
0.000795057
0.00367838
0.0108495
0.00253118
0.00207136
0.00926026
0.00289493
0.0070992
0.00766224
0.00369116
0.00140797
0.00109845
0.00141111
0.00333055
0.000847439
0.00160027
0.000756782
0.000897264
0.000637964
0.00116434
0.00129906
0.00497674
0.000615178
0.00186409
0.00203417
0.00182759
0.0017552
0.000546015
0.00122391
0.000763251
0.00128734
0.00166036
0.00060308
0.00087528
0.00170462
0.00196374
0.000580352
0.000812661
0.00114581
0.00166412
0.00140402
0.000515425
)
;

boundaryField
{
    frontAndBack
    {
        type            empty;
    }
    wallOuter
    {
        type            nutkWallFunction;
        Cmu             0.09;
        kappa           0.41;
        E               9.8;
        value           nonuniform List<scalar> 
96
(
0.00011528
9.25758e-05
8.89056e-05
0.000151533
0.000152341
0.000151605
0.000146133
0.000140494
0.000123171
0.000170139
0.000111607
0.000158031
0.000133312
0.000155903
0.000163755
0.000177849
0.000150591
0.000103691
0.000109472
0.000151789
0.000105235
0.000154923
0.000105358
0.000183935
0.000145239
9.00853e-05
0.000116164
0.000111283
9.68383e-05
0.000102928
0.000100852
0.000115082
7.95361e-05
9.57479e-05
8.54846e-05
8.59727e-05
8.07076e-05
0.000108607
9.62167e-05
7.97742e-05
7.83626e-05
0.000100341
0.00010918
0.000103574
9.91421e-05
9.90439e-05
9.95058e-05
9.52229e-05
0.000102416
0.000103391
0.000126495
9.37018e-05
9.48339e-05
9.33526e-05
0.000130964
9.9261e-05
0.00011712
0.000103952
8.8088e-05
9.40145e-05
0.000187666
8.03326e-05
5.55743e-05
0.000176581
0.00018394
0.000203031
0.000181539
9.96041e-05
0.000177674
0.000166552
0.000160895
0.000201595
0.000180068
0.000172197
0.000170739
0.000173272
4.21435e-05
3.56088e-05
2.83551e-05
3.48794e-05
2.36208e-05
3.04639e-05
9.30832e-05
0.000105413
8.42039e-05
8.77019e-05
0.000131262
0.000112844
0.000189352
0.000185504
9.60199e-05
8.21994e-05
4.44565e-05
0.000163758
0.000102501
6.78593e-05
)
;
    }
    inlet
    {
        type            calculated;
        value           nonuniform 0();
    }
    outlet
    {
        type            calculated;
        value           nonuniform List<scalar> 9(0.00986451 0.00985526 0.00148448 0.00849401 0.00710409 0.00446217 0.00158715 0.00254477 0.0056769);
    }
    wallInner
    {
        type            nutkWallFunction;
        Cmu             0.09;
        kappa           0.41;
        E               9.8;
        value           nonuniform List<scalar> 
126
(
0.000135803
0.000149872
0.000101119
9.65827e-05
0.000136714
0.000143347
7.50038e-05
5.12532e-05
9.94202e-05
0.000113479
8.57662e-05
8.6756e-05
0.000297595
8.23358e-05
0.000117812
6.34277e-05
0.000102421
7.4501e-05
8.09157e-05
0.000131481
0.000138883
0.000120181
0.000101215
0.000114984
0.000170458
9.37029e-05
9.55538e-05
0.000135629
0.000121895
0.000122132
9.21683e-05
0.000160208
0.000205941
8.70655e-05
0.000214493
0.000140996
0.000106547
7.52426e-05
0.000121973
0.000102466
0.000106254
9.50815e-05
7.9041e-05
0.000130907
0.000100688
0.000101478
0.000132712
0.000221794
5.29185e-05
0.000164369
0.000162411
0.000119536
0.000188435
5.06218e-05
0.000135299
0.000190306
6.48088e-05
0.000188748
0.000181909
0.000140425
0.000122143
0.000144476
7.1825e-05
0.000135712
0.000115123
0.000128836
0.000153074
0.000144867
0.000118044
0.000173163
0.000165535
0.000145454
0.000116606
0.000124394
8.12584e-05
8.08537e-05
0.000108729
0.000186551
9.91235e-05
0.000166046
8.12689e-05
0.000174511
0.000123814
0.000198003
0.000136249
0.000211396
0.00016711
0.000117658
6.97086e-05
0.000215241
0.000178415
0.000223052
0.000164634
0.000137909
0.000140031
0.000249556
0.000102588
0.000161632
0.00010873
5.44817e-05
0.000124611
0.000161222
9.92458e-05
9.29535e-05
0.000111497
7.90836e-05
0.000155641
7.56097e-05
0.000207881
0.000223201
0.000200274
0.0001973
6.48656e-05
9.1335e-05
0.000150381
0.000187745
7.22663e-05
0.000105739
0.000196567
0.000222301
7.0194e-05
0.000100999
0.000126756
0.000184666
0.000158249
6.19895e-05
)
;
    }
    procBoundary3to1
    {
        type            processor;
        value           nonuniform List<scalar> 
48
(
0.0117279
0.00551969
0.00751245
0.0111783
0.00394855
0.00418409
0.00551969
0.00248915
0.0101286
0.00145271
0.00145271
0.00135379
0.00135379
0.00248676
0.00286965
0.00124919
0.00131924
0.00121223
0.00131924
0.00150228
0.00319658
0.00353139
0.00150228
0.00304781
0.001538
0.00129631
0.00334007
0.00353139
0.00298853
0.00121663
0.00121663
0.0026723
0.0026723
0.0101286
0.00143085
0.0031548
0.00315651
0.001538
0.0115881
0.00347976
0.00248676
0.00528221
0.00778674
0.00150228
0.0030231
0.00114104
0.00401574
0.00286571
)
;
    }
    procBoundary3to2
    {
        type            processor;
        value           nonuniform List<scalar> 
29
(
0.00232429
0.00232429
0.000435002
0.00051718
0.000838389
0.000630679
0.000840088
0.00173617
0.00156416
0.00135906
0.00141102
0.00213818
0.00172309
0.00356155
0.00257692
0.00298263
0.00106847
0.00137566
0.00207726
0.00374372
0.00324711
0.00106847
0.000367249
0.00137566
0.00158429
0.000947498
0.00137566
0.0031468
0.0031468
)
;
    }
}


// ************************************************************************* //
