/*--------------------------------*- C++ -*----------------------------------*\
| =========                 |                                                 |
| \\      /  F ield         | OpenFOAM: The Open Source CFD Toolbox           |
|  \\    /   O peration     | Version:  v1912                                 |
|   \\  /    A nd           | Website:  www.openfoam.com                      |
|    \\/     M anipulation  |                                                 |
\*---------------------------------------------------------------------------*/
FoamFile
{
    version     2.0;
    format      ascii;
    class       volScalarField;
    location    "0.87";
    object      k;
}
// * * * * * * * * * * * * * * * * * * * * * * * * * * * * * * * * * * * * * //

dimensions      [0 2 -2 0 0 0 0];


internalField   nonuniform List<scalar> 
1431
(
0.0441549
0.435182
1.53571
1.00177
0.0564643
0.717697
0.159404
0.196655
2.80861
1.29722
0.400931
0.0885352
0.0694636
0.934178
1.72155
0.455961
1.76467
0.14254
0.118116
0.357108
0.0455217
1.01491
1.0691
1.02048
0.89387
0.315427
0.909264
0.856415
0.497998
0.112198
0.899592
0.314492
0.821309
0.119187
0.0947664
1.00537
0.280249
0.312759
0.468286
0.30579
1.95814
0.244121
0.116878
0.0986727
1.16376
0.0658047
0.977656
0.211247
0.425078
0.397282
0.111799
1.1137
2.0431
0.184472
0.120923
0.203507
0.862709
1.2882
0.770325
0.0523479
1.22712
0.192877
1.11485
0.292392
0.59373
0.146241
1.41613
0.623062
0.309111
0.322902
0.0936172
0.0778861
0.124768
0.643593
0.361475
0.612147
0.0416848
1.40827
0.22413
1.33697
0.269544
0.114031
0.0478552
1.29269
1.37819
0.0517529
0.0658082
0.353364
1.11852
0.286567
0.204048
0.648303
0.0657105
0.31181
0.124469
0.0452737
0.341931
0.265242
0.0699
0.617303
0.388373
0.222805
0.291438
0.0727231
0.513665
0.0938316
0.240211
2.29608
1.22083
0.0456192
1.55732
0.200452
0.214866
0.211829
0.486147
0.0743781
0.129862
1.1032
1.23375
0.91925
0.292064
1.73054
1.08729
0.912363
0.293611
0.112488
1.37461
0.130156
0.0511317
0.487349
0.226638
1.98895
0.736451
0.253607
0.0630308
0.881073
0.15074
0.212438
0.127262
2.06482
1.72121
0.0876411
0.289918
0.444432
0.510429
0.373794
0.267107
2.33082
0.192882
0.362812
0.506903
0.639115
0.181398
0.023769
0.131297
0.108313
0.283199
0.201428
0.206942
0.259072
0.136758
0.333053
0.211212
0.347424
0.072968
2.01178
0.0454112
0.303771
0.11249
0.276732
0.633785
0.493695
0.860885
0.385963
0.282801
0.0421112
0.126404
0.49769
0.124255
0.218425
0.316528
1.32193
0.207001
0.244514
0.348516
0.388642
0.230863
0.789685
0.28789
0.299329
0.131201
1.88852
0.0426069
0.254272
2.99579
0.275913
0.234372
0.262305
0.122102
0.0721598
0.0462399
0.730161
0.321264
2.03614
0.246383
1.09551
0.049017
0.305127
0.343743
0.473717
0.264342
0.215839
1.17606
0.299681
0.509147
0.623609
0.200218
0.112676
0.491317
0.304308
0.291827
1.21837
0.430892
1.85019
0.318536
0.530921
0.535639
0.228988
0.416372
0.943425
0.0626985
0.718099
0.302543
0.200867
0.196735
0.204844
0.287214
0.0785252
0.274515
0.13366
0.311352
0.286462
2.6301
1.58618
0.115262
0.129436
0.309279
0.111038
0.147768
0.543328
0.267446
2.81935
1.20297
0.501956
1.13562
0.662105
0.0522631
0.134075
0.619927
0.643499
0.675479
0.194863
0.0739343
1.84963
0.198735
0.404365
0.572883
0.250183
0.423933
2.06525
0.239515
0.49091
0.265592
0.264377
0.691814
0.271313
0.288525
0.139341
0.179849
1.37454
2.58339
0.133152
0.360947
0.234225
0.600796
0.790331
0.0564885
0.191073
0.481767
0.292522
0.391735
0.333004
0.193385
0.118894
0.290783
0.21449
0.042621
0.253326
0.171107
0.238539
0.322794
0.551264
0.0461784
0.22963
0.181724
0.223657
0.281656
0.651503
0.630277
0.0657173
0.304596
0.337512
1.17974
0.0798149
0.116495
0.259699
1.44071
0.149663
0.197779
0.220533
0.196783
0.13403
1.55547
0.158975
1.20099
0.320235
0.257439
0.379629
1.24084
0.293953
0.655607
0.0703275
0.115681
0.127522
0.277959
2.35257
0.122662
0.0774656
0.120827
0.0617627
0.0483955
0.263637
0.431593
0.437129
0.966903
0.0395085
0.323277
0.0237433
0.0200188
0.055023
0.0824739
0.094436
0.0800847
0.0564508
0.0595934
0.105567
0.0850024
0.0470022
0.0652419
0.0622772
0.0526732
0.0668528
0.053947
0.0318049
0.0300621
0.0272136
0.0521437
0.0719748
0.75091
0.876766
0.357622
0.113834
0.20029
0.334524
0.114522
1.02027
0.644197
0.327939
0.36215
0.0737747
0.103711
0.0505318
0.0461318
0.0819411
0.0766815
0.0526153
0.0709833
0.0537795
0.0606246
0.023755
0.026475
1.40309
0.459068
0.362255
0.28172
0.241154
0.0651471
0.315587
0.623844
0.279688
0.0523025
0.576997
0.30799
0.119243
0.587558
0.328156
0.141376
0.250901
0.0635085
0.745122
0.618014
0.265793
0.187309
1.2228
0.473879
0.701933
0.631711
2.27532
0.104736
0.0645666
0.155413
0.196684
0.700738
0.170261
0.148846
0.70801
0.247243
0.922481
1.71742
0.765425
1.78463
0.149674
0.218034
0.395716
0.137636
0.813728
0.241254
0.444231
0.137893
0.253849
0.159497
1.39454
0.302489
0.240051
0.060725
0.392793
0.667694
0.120747
0.0770906
0.749262
0.501759
0.557253
0.624369
0.723086
0.231827
0.694787
0.524272
0.442209
0.615653
0.138043
1.29614
0.147028
0.319814
0.512016
0.132125
0.118728
0.0568652
1.62323
0.263236
0.11436
1.5136
0.120863
0.223534
0.741034
0.30081
0.0939208
1.34901
1.27871
1.87065
0.076526
0.174667
0.114359
0.763602
0.20701
0.312244
0.33279
0.552555
0.657729
0.334102
0.0437061
0.037875
0.101367
0.0931279
1.47208
0.0739178
0.108856
1.14608
0.132723
0.325237
0.129236
0.651742
1.46138
1.00518
0.963675
0.640468
0.0810588
0.082829
0.680261
0.19706
1.18815
1.02962
0.0971257
0.227792
0.608804
0.315678
0.222604
1.63427
1.30716
0.182447
0.130664
0.0802468
0.112361
0.0932081
0.0654535
0.133189
0.286918
0.402957
0.263838
0.0953603
0.23947
0.313966
0.236268
0.145946
0.0893415
0.4244
0.247195
1.69588
0.250389
0.375876
1.01167
1.03509
1.46155
0.586233
0.639343
0.100136
0.841665
0.498099
0.21734
0.540181
0.0859634
0.134249
0.0533815
0.613558
0.313502
0.123922
0.506069
2.17391
0.709602
0.609794
0.193388
0.469625
0.242645
2.5972
1.76196
1.04491
0.097793
0.249281
0.201889
1.11783
0.601711
0.0389102
0.824327
1.15707
0.83118
1.40528
0.180513
0.203106
0.110616
0.380487
0.449095
0.104374
0.223355
0.433685
0.910155
0.165375
0.263913
0.442559
0.31622
0.112083
0.39972
0.763416
1.26149
0.35964
0.296144
0.276221
0.267745
0.0423129
0.144853
0.20479
0.0263051
0.511935
0.406648
0.0761387
0.544629
1.06447
0.633655
0.335561
0.0807448
1.08995
1.37071
0.998193
0.409547
0.0834946
1.05727
1.20247
0.205433
1.41909
1.3112
1.64382
0.512891
0.0666966
0.176405
0.151312
0.0690655
0.10599
0.307674
0.0661553
0.0494032
0.324067
0.229931
1.12341
0.147498
0.044528
0.23841
0.168185
0.399508
0.072974
0.19828
0.545189
0.158441
0.572274
1.50421
0.247176
0.515116
0.0921285
1.65039
0.569819
2.354
1.11025
0.15682
0.172488
0.220967
0.262323
0.621788
2.38544
0.365939
0.256814
0.332171
0.167556
0.458257
1.10629
0.066597
0.17828
0.209658
0.28275
0.0326073
0.359088
0.850681
0.480952
0.974275
0.0533658
0.264333
0.166104
1.30009
0.319739
0.314165
0.604555
0.46716
0.0637217
0.495218
1.43603
0.0707694
0.337503
0.201648
0.115327
0.176448
0.156023
1.53787
0.818335
0.10042
1.17659
1.33444
1.0682
0.148518
0.277866
0.0708238
0.0411014
0.0296114
0.27256
0.202968
1.08077
0.0755956
0.188104
0.0675221
0.0519325
0.670134
0.590936
0.719955
0.362757
2.10738
0.103872
0.039221
0.0700822
0.867507
1.48651
0.421411
0.541422
3.20488
0.209097
0.109843
0.413625
0.299372
0.218084
1.70299
0.0617536
0.427543
1.0013
2.07461
0.477645
0.0524521
0.202609
0.0433512
0.471048
0.475205
1.70612
0.189962
0.171904
0.0950414
0.648484
0.175871
1.40769
2.31672
0.316449
0.0853867
0.592156
0.404722
0.210998
0.44159
0.749632
0.0451141
1.99361
0.190663
0.486306
0.516051
0.226892
0.198053
0.350118
0.52183
0.420915
1.54856
0.836567
0.793797
0.80794
0.857382
0.305896
1.18364
0.196493
0.910491
0.613969
0.500361
0.121453
1.55733
0.0412464
0.0597923
0.248795
0.571147
0.069927
1.0987
0.22239
0.061038
0.0715101
0.0986464
0.533183
1.67436
0.117035
2.47521
0.0380581
0.064641
0.2392
1.76637
0.284573
0.192116
0.892747
0.613542
0.362675
0.309657
0.0499235
0.0604389
1.73835
0.229597
0.243847
1.75117
0.21863
0.0654781
0.0516425
0.18916
0.973426
0.131025
1.23532
0.0407257
0.280698
0.2343
1.80473
0.0540344
1.22926
0.537618
0.527341
0.518457
0.52819
0.503138
0.508773
0.509201
0.551524
0.380048
0.189775
0.385062
0.122569
1.95052
0.0630706
0.0610847
0.0829796
0.0387503
0.0672317
0.0872486
0.0595514
0.574614
0.154384
0.616996
0.0488277
0.170538
0.194279
0.259294
0.26357
0.505863
1.53827
0.233681
0.0788621
0.266003
0.304185
0.237132
0.511831
0.360467
0.1766
0.0642215
0.890241
0.160344
0.916535
1.81721
0.320644
0.344297
0.225135
0.225583
0.0795072
0.1376
0.146622
0.0415795
0.215507
0.204069
0.0748472
0.0665309
0.317046
0.918847
0.125133
0.582189
0.0552282
0.248437
0.150852
0.118108
0.132991
0.248274
0.0666474
0.0570858
0.189019
0.0731353
0.293292
0.0432034
0.161429
1.2872
1.33794
0.292263
0.44675
1.63908
0.627427
0.269722
0.260637
1.4076
0.0443671
0.0765068
0.114995
0.0597685
0.0972228
0.0987083
0.420259
0.291293
0.796382
0.749834
0.48999
0.2762
0.0573823
0.105425
0.166848
0.222994
2.41059
0.11982
0.4721
0.994858
0.698511
0.356423
0.334648
0.0649658
0.132221
0.219704
0.164241
0.233159
0.21158
0.711037
0.0659422
0.530166
1.42832
0.527411
2.34434
0.190219
0.235118
0.365227
0.326976
0.346139
0.385083
0.306117
0.281832
0.363503
0.0658827
0.0580788
0.250597
0.251205
0.0424107
0.0577138
1.59152
0.0432734
0.121193
0.0435067
1.06786
0.0545868
0.486958
0.314669
2.0573
0.0881842
0.211095
0.128604
0.305165
0.151902
1.68673
1.76245
0.120417
0.117171
0.351964
0.0501349
0.160667
0.785873
0.0288708
0.924595
0.835259
0.467731
0.304532
0.583128
1.52467
0.61697
0.239918
0.0596937
0.100077
0.240272
0.592494
0.404199
0.208841
1.28112
1.12477
0.638026
0.072915
1.46804
0.0165512
0.639741
0.0356791
0.252643
0.181419
0.422845
0.328081
0.0964788
2.81077
0.659931
1.73391
0.0494567
0.891076
0.979175
0.456207
0.200481
0.213089
0.198384
0.842434
1.8959
0.350439
0.267935
1.35375
0.868235
0.228236
0.264378
0.774945
1.53774
1.02278
1.44046
0.127064
1.44572
0.919557
1.30022
0.128407
0.974816
0.726622
0.103555
0.200703
0.123466
0.42971
2.11311
1.08344
0.908086
0.292396
1.61026
0.102455
1.61786
1.35189
0.316473
0.126286
0.205739
0.7079
0.0605341
0.0617447
0.0555624
0.144278
0.119866
1.45454
1.55163
0.18972
1.68202
0.113893
0.461133
1.88051
1.10268
0.132114
0.101457
0.144894
0.398869
0.0527271
0.204896
0.15516
2.00489
0.349499
0.582642
0.213424
0.161439
0.500268
0.309397
0.32744
1.71779
0.16462
0.202077
0.523877
0.900259
0.244139
0.119037
0.0475528
0.77527
0.353122
0.355108
0.0477021
0.0757048
0.108173
0.0857227
0.245773
0.0413297
0.569139
0.796674
0.448804
2.30284
0.14607
0.385007
0.0973232
0.207213
0.507787
0.0206988
0.144214
0.334496
0.0620483
1.23975
1.34703
0.0203469
0.503133
0.865208
0.0899671
0.374695
1.04375
0.0568107
0.0619367
0.636641
0.0764599
2.12274
0.136213
0.676999
0.218492
0.8891
0.548838
0.0821893
0.464191
0.249987
0.0782169
0.100925
0.366696
0.0233673
1.00825
0.0149169
0.150239
0.200163
0.200693
0.137173
0.356
0.0875608
0.0536488
2.92444
0.15654
0.251689
0.246387
0.571573
0.0802434
0.0335105
0.0528159
0.175115
3.2377
1.34368
0.244979
0.207021
0.727242
0.0614136
1.06829
0.259491
1.34505
0.0486326
0.0501122
2.02493
0.11044
0.121705
2.37549
0.786524
0.511239
0.287448
1.30061
0.0246643
0.0629369
0.0831466
1.31251
1.03364
0.976413
0.037427
0.0477933
0.0182743
0.336466
0.411536
2.76788
0.910728
0.603371
0.366323
0.204931
0.0745981
0.129273
0.356751
0.855103
1.28803
0.192413
0.0462157
0.333963
0.63444
1.58727
2.31898
0.432472
0.0462346
0.0938559
1.21504
0.544493
0.0214538
2.25938
1.94522
0.768542
0.554295
0.136898
0.300758
1.63856
0.965086
1.20105
0.113492
2.46188
0.676704
0.346104
0.0566376
1.21452
0.351679
0.359983
0.898431
1.5997
0.317151
0.118505
0.0780252
1.63395
0.223527
0.160678
1.12259
0.192381
1.37329
0.43083
0.0438194
1.83145
0.196598
0.333464
0.266867
0.41242
0.344111
0.610883
1.42071
0.0536056
0.941223
0.0240152
1.11203
0.800215
0.0594993
0.124561
0.067359
0.125815
1.60619
0.857354
0.195024
0.214629
0.717875
0.0691948
0.0792521
0.956393
0.270028
0.0683904
0.339573
0.201884
0.129191
1.9276
0.930371
1.18956
0.462303
1.54948
0.137569
0.0603027
0.12833
1.57145
1.709
0.395865
0.340848
0.839382
1.16111
0.123725
2.39578
0.675057
0.156236
0.0739957
0.265033
0.439184
0.226147
0.390567
0.270893
0.567048
0.67916
0.406495
0.280471
0.229958
0.391838
0.23747
1.53605
1.3998
2.73854
1.12692
0.14159
1.5946
0.771719
1.68196
0.0650906
0.157407
0.350871
0.130736
1.84266
0.0601435
0.0578057
1.94525
0.229045
1.61111
1.83674
0.948622
0.828062
0.798458
0.328471
0.229908
1.04846
0.333767
0.419943
0.0448498
0.258373
0.342981
0.0436642
0.809748
2.18817
0.087185
0.165836
0.0488046
0.0194207
0.101346
1.03399
0.0995709
1.37641
0.776529
0.355887
0.625314
0.257796
0.148262
0.26697
0.0589998
0.11229
0.21305
0.088301
1.22166
0.231478
0.595338
0.0686014
0.23976
0.35033
0.106031
1.03216
0.0251119
0.107483
0.126877
0.212515
0.180635
0.0769432
0.0985187
0.522054
0.12914
0.426003
0.128411
0.117929
0.129223
0.536323
0.282909
0.44678
0.209555
0.109862
0.243095
0.126856
1.4165
0.196725
0.281574
0.204765
0.0536321
0.394976
0.62594
0.260207
0.36374
0.118294
0.417119
0.122195
1.26879
0.0543259
0.243471
1.25792
0.467834
1.02692
0.124084
2.20494
0.234669
0.710885
1.30667
0.33656
0.327462
0.0736904
0.481936
0.291868
0.890816
0.159878
1.54876
0.0571057
0.767814
0.0626051
0.0447126
0.489411
0.245069
0.342469
0.27606
0.91427
0.248627
0.938594
0.635674
0.587237
0.648798
0.206365
0.129687
0.533733
2.56368
1.1014
0.312846
0.29731
2.85067
1.19276
3.06562
1.24129
1.25632
0.460794
0.206449
0.754953
0.387818
0.128075
0.716408
1.57385
0.132485
0.6256
1.03176
)
;

boundaryField
{
    frontAndBack
    {
        type            empty;
    }
    wallOuter
    {
        type            kqRWallFunction;
        value           nonuniform List<scalar> 
90
(
0.455961
0.421411
0.413625
0.427543
0.477645
0.471048
0.475205
0.592156
0.404722
0.486306
0.516051
0.613969
0.500361
0.571147
0.533183
0.892747
0.537618
0.527341
0.518457
0.52819
0.503138
0.508773
0.509201
0.551524
0.505863
0.796382
0.749834
0.530166
0.527411
0.365227
0.326976
0.346139
0.385083
0.306117
0.281832
0.251205
0.0435067
0.0545868
0.486958
0.211095
0.0501349
0.160667
0.785873
0.0288708
0.0596937
0.100077
0.0165512
0.639741
0.0356791
0.659931
0.774945
0.42971
0.461133
0.582642
0.523877
0.0477021
0.0413297
0.569139
0.796674
0.385007
0.507787
0.0206988
0.0203469
0.865208
0.636641
0.676999
0.8891
0.0233673
1.00825
0.0149169
0.511239
0.0246643
0.976413
0.0182743
0.910728
0.855103
0.432472
0.544493
0.0214538
0.768542
0.43083
0.941223
0.0240152
0.462303
0.406495
0.0194207
1.03216
0.0251119
0.522054
0.394976
)
;
    }
    inlet
    {
        type            fixedValue;
        value           uniform 0.375;
    }
    outlet
    {
        type            zeroGradient;
    }
    wallInner
    {
        type            kqRWallFunction;
        value           nonuniform List<scalar> 
138
(
0.0885352
0.118116
0.821309
0.119187
0.0947664
0.244121
1.41613
0.623062
0.0936172
0.0778861
0.612147
0.736451
0.023769
0.131297
0.0421112
0.126404
0.122102
0.0721598
0.0462399
0.730161
1.85019
0.662105
0.0522631
0.619927
0.643499
0.675479
0.572883
0.691814
0.600796
0.651503
0.630277
0.0483955
0.0395085
0.0237433
0.0200188
0.055023
0.0824739
0.094436
0.0800847
0.0564508
0.0595934
0.105567
0.0850024
0.0470022
0.0652419
0.0622772
0.0526732
0.0668528
0.053947
0.0318049
0.0300621
0.0272136
0.0521437
0.0719748
0.0737747
0.103711
0.0505318
0.0461318
0.0819411
0.0766815
0.0526153
0.0709833
0.0537795
0.0606246
0.023755
0.026475
0.0523025
0.265793
0.701933
0.218034
1.39454
0.060725
0.0770906
0.147028
0.741034
0.076526
0.763602
0.0437061
0.037875
0.101367
0.0739178
1.14608
1.46138
1.18815
1.02962
1.30716
0.100136
0.0533815
0.613558
0.609794
0.0389102
0.0263051
0.044528
0.0326073
0.0707694
0.0411014
0.0296114
0.0524521
0.0433512
0.316449
0.836567
0.196493
0.248795
0.0986464
0.613542
0.0516425
0.0829796
0.616996
0.0488277
0.0642215
0.105425
0.711037
0.0658827
0.0580788
0.0577138
0.583128
0.638026
0.072915
0.891076
0.979175
0.0527271
0.0475528
0.77527
0.0899671
0.0875608
0.15654
0.727242
0.0614136
0.0745981
0.129273
0.0438194
0.29731
0.754953
0.387818
0.128075
1.57385
0.132485
1.03176
)
;
    }
    procBoundary0to1
    {
        type            processor;
        value           nonuniform List<scalar> 
29
(
0.139068
0.208374
0.235981
0.235981
1.588
1.588
2.00825
0.549416
1.29647
0.514015
0.589477
1.09142
0.148265
0.112249
1.30824
0.610256
2.23739
2.11577
0.389957
0.212237
0.328053
0.223652
1.4617
0.293171
0.291822
2.11577
0.258225
0.81915
0.293171
)
;
    }
    procBoundary0to2
    {
        type            processor;
        value           nonuniform List<scalar> 
42
(
1.09684
0.909479
0.0779074
0.0748932
0.0620973
1.09684
0.0779074
0.075421
0.0531553
0.0573896
0.146807
0.26491
0.146807
0.371442
0.500943
1.05682
0.500943
0.058717
0.0542803
0.190047
0.190047
0.058717
0.0496819
0.225738
0.225738
0.0463641
0.524573
0.040396
0.803405
0.817158
0.817158
0.0422166
0.0469355
0.0484777
0.046884
0.0779074
0.707673
0.060316
0.803405
0.075421
0.0619569
0.0501809
)
;
    }
}


// ************************************************************************* //
