/*--------------------------------*- C++ -*----------------------------------*\
| =========                 |                                                 |
| \\      /  F ield         | OpenFOAM: The Open Source CFD Toolbox           |
|  \\    /   O peration     | Version:  v1912                                 |
|   \\  /    A nd           | Website:  www.openfoam.com                      |
|    \\/     M anipulation  |                                                 |
\*---------------------------------------------------------------------------*/
FoamFile
{
    version     2.0;
    format      ascii;
    class       volScalarField;
    location    "0.42";
    object      nut;
}
// * * * * * * * * * * * * * * * * * * * * * * * * * * * * * * * * * * * * * //

dimensions      [0 2 -1 0 0 0 0];


internalField   nonuniform List<scalar> 
1431
(
0.00169628
0.00250858
0.00233994
0.00171794
0.000880163
0.00229314
0.00336988
0.000787785
0.00439993
0.00643637
0.000791282
0.000999145
0.00137477
0.00132532
0.00418571
0.000680377
0.00440886
0.00265959
0.00045744
0.000925555
0.000738145
0.00408676
0.00388549
0.00142242
0.00148109
0.00107227
0.00154476
0.00123545
0.00100175
0.0017462
0.00143236
0.000723804
0.00194856
0.00101771
0.000886905
0.00209501
0.00146979
0.000859319
0.00288723
0.000858599
0.00230894
0.000510619
0.00157192
0.00241678
0.00367113
0.00183814
0.00252793
0.000813695
0.000878396
0.00087042
0.00209273
0.00600646
0.00408003
0.00213162
0.00339595
0.00077283
0.0048901
0.00295773
0.00102325
0.000558824
0.00362476
0.0009043
0.00245267
0.000783665
0.000905083
0.00191872
0.0023725
0.00142241
0.00348419
0.000751276
0.000908044
0.000818742
0.00117774
0.0024096
0.000955815
0.00117799
0.00109378
0.00302457
0.000786173
0.00224553
0.000806302
0.00282371
0.00117536
0.00306455
0.00239427
0.0010023
0.00125323
0.0008428
0.00152694
0.00152941
0.00206689
0.000848019
0.00120731
0.00086254
0.00267216
0.000956021
0.000894893
0.000730414
0.0012577
0.0010895
0.00351916
0.000808086
0.0022987
0.000948499
0.00110525
0.0019487
0.000786877
0.0029035
0.00199891
0.000888578
0.00266078
0.0014763
0.000757339
0.00171323
0.0010474
0.000910956
0.00250489
0.00357849
0.00164116
0.00283988
0.000860052
0.00382159
0.00596713
0.00136221
0.000831451
0.00260002
0.00177205
0.0010615
0.00188178
0.000811162
0.00094961
0.00274125
0.00100876
0.00219383
0.00109543
0.000904483
0.00111367
0.00202197
0.00207891
0.00271127
0.00460143
0.000631655
0.00077047
0.000930561
0.00107351
0.000776108
0.000735122
0.00300382
0.00112536
0.000800427
0.000820614
0.000956549
0.00281244
0.000595477
0.000309341
0.000941464
0.000803673
0.00193477
0.000758099
0.000711564
0.00262369
0.00127555
0.00229976
0.000901302
0.00124016
0.00329208
0.000997898
0.000864012
0.00179929
0.0022892
0.00106908
0.000887151
0.00134256
0.00077017
0.000772306
0.000426468
0.000587885
0.000874399
0.00161
0.000715106
0.000840112
0.00453091
0.00075451
0.00186534
0.000773775
0.000811196
0.000755013
0.00125125
0.00114723
0.000799939
0.00568817
0.00453753
0.0010343
0.000791379
0.0048529
0.000846926
0.000786444
0.000840129
0.000346658
0.00032206
0.000486894
0.000663144
0.000752758
0.00225799
0.000787012
0.00202511
0.00102339
0.000834643
0.00106496
0.000879718
0.000790432
0.000784792
0.00161778
0.00083184
0.00210173
0.00133831
0.000758825
0.00496711
0.00170192
0.000833892
0.000830596
0.00235995
0.000778378
0.00216353
0.000825247
0.000872468
0.000965047
0.00210719
0.000831133
0.00155202
0.00115438
0.00113245
0.000747998
0.000798387
0.000791692
0.000785207
0.00073794
0.00222395
0.000827451
0.00223009
0.000844214
0.000726134
0.00431382
0.00379709
0.000926949
0.000966379
0.000830167
0.00216026
0.00158914
0.000973384
0.000725435
0.0042131
0.00565193
0.00115514
0.0027631
0.00108696
0.000621411
0.0024344
0.00112111
0.00109558
0.00107569
0.000982046
0.00131261
0.00443095
0.000791453
0.000811311
0.00102189
0.000746669
0.000987052
0.00476148
0.000745036
0.00093322
0.00072836
0.000728346
0.00106562
0.000765841
0.00213922
0.00322993
0.00248678
0.00659151
0.00475441
0.002301
0.00178412
0.00199326
0.00101885
0.00135676
0.00109316
0.000756824
0.000907222
0.000833605
0.00077713
0.000870116
0.000750217
0.00407353
0.00073343
0.000745883
0.0011896
0.000766444
0.00216505
0.00070775
0.000845697
0.00100243
0.00121181
0.000742972
0.00141971
0.00195726
0.00082906
0.00109386
0.00110346
0.00145278
0.00083707
0.000783963
0.00302262
0.000949857
0.00111355
0.00197855
0.00614737
0.00207929
0.000796682
0.00281174
0.00179191
0.00228087
0.00363141
0.00184304
0.0065668
0.00330418
0.00080754
0.00345065
0.00173142
0.000831413
0.00295572
0.00118821
0.00273459
0.00548558
0.000786916
0.00475541
0.00144312
0.00212384
0.00158367
0.00191388
0.000362353
0.000823159
0.00356294
0.000932569
0.0018714
0.000401977
0.000825919
0.000733213
0.000219146
0.000492135
0.000871959
0.000617144
0.000819367
0.000677083
0.00047139
0.000840808
0.000714549
0.000387448
0.000606528
0.000506692
0.000596951
0.000692464
0.000679214
0.000226646
0.000258054
0.000714731
0.000642592
0.000682131
0.00234662
0.00296236
0.00220376
0.00265298
0.00271854
0.000761961
0.00370967
0.00165827
0.00329751
0.000842554
0.000848865
0.000614995
0.00060027
0.000731637
0.000405348
0.00077274
0.000780442
0.00066426
0.00072112
0.000395716
0.000656078
0.000220494
0.000770161
0.00289785
0.000883855
0.000848695
0.00316335
0.000933843
0.00202215
0.00083467
0.0066496
0.000772916
0.000596277
0.00290091
0.000832762
0.00194173
0.00238946
0.000786163
0.0021918
0.000724302
0.00130762
0.00330007
0.000832287
0.000574692
0.00245306
0.00223273
0.000993315
0.00103785
0.00320429
0.00429441
0.00239285
0.00169944
0.00192592
0.0041654
0.00499702
0.00255994
0.00277671
0.00325529
0.00254897
0.00432693
0.00600782
0.00274847
0.00512273
0.00207006
0.000484039
0.00575744
0.00243668
0.00308189
0.00504585
0.00469431
0.00216624
0.00365408
0.00357673
0.0010954
0.00539166
0.00484815
0.00053966
0.00687541
0.00694464
0.00151622
0.000858183
0.00542098
0.0060719
0.0044166
0.00683372
0.00443762
0.00406218
0.00377026
0.00381352
0.00412975
0.00381679
0.00257797
0.00314306
0.000612116
0.00318573
0.00251414
0.00260349
0.00236743
0.00119206
0.00301566
0.00237574
0.00265283
0.00265218
0.00247316
0.000742213
0.00108471
0.0023244
0.00224116
0.00277825
0.00279796
0.00427869
0.000590517
0.00288424
0.00265735
0.00109628
0.000802261
0.000820014
0.00348473
0.00237707
0.00609776
0.00407453
0.00073836
0.000629519
0.000607542
0.00191
0.00338481
0.000599286
0.00277505
0.00128661
0.00405595
0.000837179
0.00308814
0.00206074
0.00153555
0.00353409
0.00278773
0.00259938
0.00184951
0.00189947
0.00562313
0.00289795
0.00106008
0.000985455
0.00155432
0.000744299
0.00205022
0.000792828
0.0029907
0.00377593
0.00140868
0.00288669
0.00213181
0.00247567
0.00192951
0.00360716
0.00116838
0.00249877
0.00470463
0.0022898
0.00371504
0.00216693
0.00400795
0.000805743
0.000744894
0.00214051
0.00270374
0.00447396
0.00387709
0.003034
0.00308633
0.00684302
0.00235125
0.00259517
0.00398058
0.00317163
0.0046146
0.000624987
0.00668774
0.00377168
0.000797513
0.00496739
0.00174286
0.00242985
0.000507893
0.00107008
0.0043658
0.00290935
0.00225822
0.00321976
0.00340238
0.00103114
0.000759816
0.00665178
0.00226619
0.00396773
0.00433378
0.0024989
0.00140348
0.0064061
0.000742645
0.00299903
0.0023853
0.000762791
0.00689458
0.00278294
0.00684769
0.00319458
0.00170563
0.00537107
0.00288904
0.0023934
0.000998371
0.00279819
0.000799443
0.00210564
0.00311761
0.0012467
0.00243552
0.00255758
0.000785765
0.00252452
0.000797566
0.00481956
0.00304386
0.000848236
0.000776269
0.00076679
0.00218011
0.000785984
0.00506677
0.000741191
0.000591872
0.00276615
0.00228636
0.00171324
0.00296377
0.00290229
0.00642859
0.0011183
0.00161693
0.00701119
0.00211648
0.00174865
0.00676819
0.00193771
0.00457209
0.00197397
0.000746128
0.00303052
0.00362239
0.00344519
0.00546034
0.00153416
0.0015075
0.00241162
0.00115001
0.00471873
0.000933333
0.00141088
0.000872685
0.00578801
0.000805849
0.00684338
0.00217012
0.00057408
0.000806555
0.00180883
0.004871
0.0015478
0.000734808
0.00107933
0.00193392
0.00241107
0.00655417
0.000807553
0.00672147
0.00422585
0.0027996
0.00221505
0.00416784
0.00556509
0.00181743
0.00263179
0.00156605
0.000763676
0.00111987
0.00421716
0.00530328
0.000821127
0.000841201
0.00569881
0.00632675
0.00308595
0.000957121
0.00179514
0.00198479
0.000828071
0.000506156
0.000848226
0.00637
0.005898
0.00325792
0.000902816
0.000822583
0.00211837
0.00324679
0.000796679
0.000758895
0.00174564
0.00296159
0.00142323
0.00103895
0.00450972
0.000574244
0.000907013
0.00214631
0.00461273
0.00287551
0.00362349
0.00275846
0.00364143
0.00225075
0.00186326
0.00318108
0.00239835
0.00228669
0.00615216
0.00133512
0.000235059
0.000789342
0.000825043
0.000724258
0.00249902
0.00135159
0.000764647
0.00122587
0.000882619
0.00136519
0.00110958
0.00686457
0.000850593
0.00236591
0.00213967
0.000716012
0.00166218
0.00592884
0.00396216
0.000635367
0.00282109
0.00464079
0.00071747
0.00218464
0.000644409
0.000841339
0.000805411
0.00369937
0.00200728
0.000626083
0.00501057
0.00482689
0.000683522
0.00056437
0.00277643
0.000616232
0.000701175
0.000718114
0.00438877
0.000767078
0.00155679
0.00348344
0.00695806
0.00153525
0.00290675
0.0047224
0.000686304
0.00190492
0.000784382
0.000663485
0.000749406
0.000862111
0.00119252
0.00110725
0.00435533
0.000755925
0.000738312
0.000760116
0.00181048
0.00101708
0.000845061
0.000843228
0.000874087
0.00192322
0.00122052
0.00119912
0.00177239
0.00200613
0.00085534
0.00359925
0.000490993
0.00194624
0.000792835
0.000752855
0.003936
0.0037014
0.000793521
0.00171336
0.000481606
0.000775897
0.00109714
0.00312626
0.00614039
0.00107942
0.00125531
0.000595222
0.000768038
0.00411605
0.00183363
0.00394344
0.000711769
0.00175873
0.000931684
0.00210509
0.00200324
0.000772619
0.000872107
0.000933692
0.000847831
0.000834644
0.000846232
0.00168127
0.00442259
0.000810081
0.00656395
0.00318375
0.000713577
0.00139153
0.000245155
0.00152369
0.00219567
0.00270104
0.00325125
0.00121718
0.000829896
0.000811876
0.00412214
0.000934353
0.00188167
0.000833535
0.00067336
0.000596937
0.000538619
0.000648847
0.000837417
0.000732313
0.000772871
0.00183374
0.000855445
0.000777167
0.00128207
0.00318792
0.00163828
0.00091241
0.000880597
0.0005474
0.00188579
0.000825321
0.00164903
0.00104488
0.00615527
0.00111703
0.000705612
0.00612952
0.000779517
0.000725439
0.000733339
0.00066386
0.00232397
0.000713506
0.00181998
0.00217366
0.0014368
0.000822035
0.00283119
0.00243874
0.00253255
0.000528508
0.00179712
0.00123745
0.00555015
0.00409528
0.000837836
0.00086784
0.000807313
0.00184131
0.00141822
0.0023641
0.00184995
0.00137731
0.000805472
0.000761901
0.000797989
0.00206927
0.000779608
0.00208456
0.00216896
0.0027371
0.000812544
0.000776137
0.00213487
0.00305648
0.00273855
0.000818913
0.00122078
0.00191879
0.00141609
0.00129335
0.000747007
0.00163177
0.00118635
0.00304544
0.00386633
0.0007043
0.000878026
0.00317711
0.00249491
0.000826424
0.00201197
0.0032212
0.000668205
0.00182998
0.0024136
0.000997353
0.00190061
0.00218891
0.00373408
0.00359224
0.000948471
0.000942801
0.000846517
0.00229473
0.00104954
0.000533103
0.00225416
0.000807189
0.00498604
0.00235859
0.00349037
0.00361132
0.00258969
0.000864898
0.000890335
0.0010347
0.0053519
0.000785414
0.00121122
0.000815408
0.000795707
0.00105815
0.00125074
0.000729751
0.00698784
0.000687842
0.00350331
0.000750621
0.00112887
0.000291534
0.000253008
0.000245268
0.000409048
0.000260433
0.000257483
0.00182835
0.000271465
0.000689189
0.000820256
0.000246494
0.00153238
0.000352434
0.00267355
0.000998836
0.002873
0.000260682
0.00707115
0.000308902
0.000733955
0.00642616
0.0040718
0.00163371
0.000237126
0.00231315
0.00667746
0.00182424
0.00416621
0.00542676
0.00226495
0.00289691
0.00178959
0.000260731
0.000246604
0.000963841
0.000261714
0.00268979
0.00688906
0.00340029
0.00162923
0.00096741
0.00548239
0.00319066
0.000817216
0.000256636
0.000258216
0.000960437
0.00290423
0.000781996
0.00638729
0.00269788
0.00404359
0.000780314
0.000265934
0.00334075
0.000313008
0.00108553
0.000346255
0.000825899
0.00577478
0.00243791
0.000829973
0.00159889
0.00389785
0.000896409
0.0026541
0.000845251
0.00081477
0.0010427
0.00081176
0.00242515
0.00288354
0.000778001
0.0022928
0.00465008
0.000846078
0.00196526
0.00530567
0.0047929
0.000813828
0.000729035
0.000975503
0.00310197
0.00256736
0.00349814
0.00269438
0.00635572
0.00328711
0.00411097
0.00305284
0.0026397
0.00107539
0.00168932
0.00150481
0.00240936
0.000622813
0.00254171
0.00635189
0.00393917
0.00266119
0.00298149
0.00149401
0.00494118
0.00293458
0.000837789
0.00366652
0.00220035
0.00131595
0.000915936
0.000770111
0.00200214
0.00494692
0.00296906
0.00305045
0.00602989
0.000753341
0.00374364
0.00232387
0.000624402
0.00504491
0.00424352
0.00151149
0.0027801
0.00247696
0.000787438
0.000633035
0.000754249
0.00453404
0.00471659
0.000846602
0.000804433
0.000781692
0.00205972
0.000858876
0.00077766
0.000840717
0.00543749
0.00161369
0.000799217
0.000832937
0.00220536
0.00082357
0.00314457
0.00023219
0.000782925
0.000791148
0.000802598
0.000312751
0.000853572
0.00217659
0.001127
0.000748884
0.000363177
0.00105549
0.0010249
0.00079619
0.00394241
0.00243222
0.00074393
0.00189782
0.000772876
0.0005345
0.000286661
0.00128264
0.000833364
0.0020992
0.0025974
0.00198506
0.000325731
0.000856725
0.000937656
0.000547478
0.000866415
0.00322277
0.000878257
0.00170502
0.000808607
0.00114043
0.00473689
0.00329587
0.000690657
0.00181401
0.000898161
0.00257699
0.002485
0.00107556
0.000798782
0.00266225
0.00257811
0.000790656
0.000288881
0.000972129
0.000310068
0.00252024
0.00231038
0.00258269
0.00366769
0.000788345
0.000557676
0.00167281
0.00382034
0.000500197
0.00147885
0.000964177
0.00103205
0.0028045
0.000568234
0.00192221
0.00147123
0.00432801
0.00702884
0.00216593
0.000801368
0.000828177
0.000304722
0.00177091
0.00082309
0.00309949
0.000726442
0.00197738
0.00381293
0.00189494
0.00257888
0.0049476
0.00115153
0.000510819
0.000837909
0.00136213
0.000239368
0.000894281
0.00184041
0.00707765
0.00154149
0.000762956
0.000646982
0.00196638
0.000314429
0.000840552
0.00249961
0.00494926
0.000860528
0.000840327
0.000839721
0.000788202
0.000550797
0.000636936
0.00384354
0.000614896
0.00335066
0.000749325
0.00148008
0.0034179
0.000828894
0.00333263
0.00330958
0.000591737
0.000849217
0.00207625
0.00231659
0.000870358
0.000317711
0.00484957
0.00538242
0.000917418
0.00347711
0.00119199
0.000740411
0.0033942
0.00428616
0.00256312
0.0020671
0.00488702
0.000881898
0.000852468
0.0014205
0.00660078
0.000842382
0.000819683
0.00165306
0.00598636
0.00140486
0.00219278
0.00151994
0.00281033
0.000906357
0.00166235
0.00160659
0.0024632
0.00675102
0.000473329
0.000340402
0.00461734
0.0007497
0.000976648
0.000742291
0.000774184
0.000844467
0.000908459
0.00232131
0.000846176
0.000960878
0.000260196
0.00658134
0.0011645
0.000973892
0.00296258
0.00175625
0.00279231
0.00334705
0.00163051
0.00234198
0.00207261
0.00329803
0.0011454
0.00133382
0.0028687
0.000726795
0.0012422
0.000872282
0.000792388
0.00265196
0.00344445
0.00688051
0.00223399
0.000622155
0.00599127
0.00224502
0.00131782
0.00281289
0.00394003
0.00430905
0.000770879
0.000844431
0.00351086
0.00243193
0.00151062
0.00495442
0.0030741
0.0028736
0.00101157
0.00083102
0.000708692
0.000816483
0.000872858
0.0016175
0.000840813
0.00101161
0.000532178
0.00108005
0.000820866
0.000960217
0.00274351
0.00284453
0.00609651
0.00427856
0.00535273
0.00212371
0.00282564
0.00117797
0.00367735
0.00116937
0.00169761
0.000845926
0.0025451
0.00441098
0.00176052
0.000988303
0.00540693
0.000786438
0.0043144
0.00442946
0.00570416
0.0061493
0.00385338
0.000775192
0.00224272
0.00691539
0.000846074
0.000784166
0.00068286
0.00316744
0.00195429
0.00077371
0.00331827
0.00385961
0.0016278
0.00246615
0.00110244
0.000319213
0.00299111
0.00653988
0.00294133
0.00257777
0.0010341
0.00085569
0.00339432
0.00205701
0.0028229
0.00235554
0.00185265
0.00228962
0.000760176
0.00132535
0.00213173
0.000821062
0.00112367
0.0010789
0.000727838
0.00127736
0.00249122
0.000858511
0.00023776
0.00101
0.00182352
0.000803395
0.000978567
0.00133953
0.000990447
0.00068317
0.00168716
0.00231922
0.00254066
0.00234
0.00240168
0.000858005
0.00131915
0.00257898
0.00167761
0.00301708
0.000722687
0.00311079
0.00314737
0.00246763
0.001175
0.000754582
0.00110094
0.000696416
0.000947418
0.00139336
0.00105563
0.00116743
0.00232745
0.00208606
0.00341198
0.00103717
0.000798143
0.00718497
0.000795051
0.00214599
0.0030346
0.00270859
0.000813923
0.0010279
0.00188842
0.00084318
0.000690142
0.000970644
0.000960095
0.00201398
0.00138679
0.00205241
0.00606711
0.00107226
0.00118905
0.00108893
0.000969633
0.000871529
0.0015329
0.000837147
0.00083453
0.00133952
0.0032446
0.00160544
0.000879014
0.000911365
0.000915039
0.000793919
0.00305143
0.0033286
0.00413429
0.00612437
0.000742347
0.00066397
0.00384268
0.0069256
0.00411948
0.00647898
0.00353852
0.000804192
0.000760627
0.00115628
0.00073839
0.00105047
0.00107403
0.00167848
0.00095561
0.00124007
0.00116875
)
;

boundaryField
{
    frontAndBack
    {
        type            empty;
    }
    wallOuter
    {
        type            nutkWallFunction;
        Cmu             0.09;
        kappa           0.41;
        E               9.8;
        value           nonuniform List<scalar> 
90
(
8.16654e-05
7.67319e-05
7.77971e-05
7.56363e-05
8.23694e-05
8.44636e-05
8.6451e-05
9.40818e-05
8.00384e-05
8.87987e-05
9.13119e-05
9.50492e-05
9.0479e-05
9.31108e-05
9.2219e-05
0.0001041
9.97171e-05
8.11954e-05
7.21867e-05
6.52214e-05
7.83187e-05
0.000100161
8.80652e-05
9.27689e-05
8.00825e-05
0.000112805
0.00011203
8.77674e-05
8.28037e-05
3.38499e-05
3.10356e-05
2.96111e-05
4.77685e-05
3.20215e-05
3.15849e-05
3.00789e-05
3.14034e-05
3.77552e-05
8.81354e-05
2.86937e-05
3.1491e-05
2.98983e-05
0.000114768
3.12255e-05
3.10678e-05
3.14123e-05
3.7819e-05
0.000128349
4.24983e-05
0.000106864
0.000115779
7.4509e-05
7.54393e-05
9.63746e-05
9.968e-05
3.82229e-05
4.4731e-05
0.000124917
0.000121212
8.94115e-05
6.47273e-05
3.44044e-05
3.91929e-05
0.000111611
9.68562e-05
8.31869e-05
0.000107065
3.44723e-05
0.000115539
3.7513e-05
6.18194e-05
2.80267e-05
9.15654e-05
3.78924e-05
0.000102949
7.42824e-05
7.15674e-05
0.000103916
3.81788e-05
0.00010929
5.73169e-05
0.000114257
3.07479e-05
7.51734e-05
6.31039e-05
3.84055e-05
0.000102697
2.78954e-05
8.23427e-05
8.38902e-05
)
;
    }
    inlet
    {
        type            calculated;
        value           uniform 0.000851986;
    }
    outlet
    {
        type            calculated;
        value           nonuniform 0();
    }
    wallInner
    {
        type            nutkWallFunction;
        Cmu             0.09;
        kappa           0.41;
        E               9.8;
        value           nonuniform List<scalar> 
138
(
0.000121272
5.67293e-05
0.000220694
0.000121122
0.000108564
6.21825e-05
0.000265332
0.000166614
0.000109128
0.000103809
0.000138398
0.000119478
6.90239e-05
3.74643e-05
5.10313e-05
7.1615e-05
4.31258e-05
3.87315e-05
5.78728e-05
7.99736e-05
0.000243795
0.000128189
7.61921e-05
0.000131979
0.000129148
0.000126938
0.000120952
0.000125817
0.00012061
0.000128956
0.000130024
4.40945e-05
4.80768e-05
8.93454e-05
2.53121e-05
5.94394e-05
0.000105516
7.58791e-05
0.000100395
8.22651e-05
5.8467e-05
0.000101753
8.77301e-05
4.75941e-05
7.29061e-05
6.2208e-05
7.33151e-05
8.49687e-05
8.28993e-05
2.63124e-05
3.04223e-05
8.7224e-05
7.87029e-05
8.37517e-05
7.36952e-05
7.36772e-05
8.92007e-05
4.74925e-05
9.47651e-05
9.52937e-05
8.13498e-05
8.82763e-05
4.89247e-05
7.92758e-05
2.54813e-05
9.34875e-05
7.27255e-05
6.96596e-05
0.000123009
5.88684e-05
0.00012794
6.46397e-05
0.000104516
7.53634e-05
0.000128211
7.33893e-05
0.0001295
8.99626e-05
7.62254e-05
7.50896e-05
7.4334e-05
0.000150359
0.000177374
0.000123997
0.000115647
0.00016361
7.61089e-05
6.29049e-05
0.000126319
0.000121981
9.26098e-05
6.86755e-05
6.8968e-05
5.86963e-05
7.02385e-05
2.72869e-05
9.57081e-05
6.94659e-05
7.39723e-05
8.27194e-05
0.000143571
6.00613e-05
5.88048e-05
7.19857e-05
0.000111339
2.8203e-05
0.000107628
0.000131528
8.5134e-05
6.47353e-05
6.60193e-05
0.000124986
3.092e-05
8.38193e-05
4.3567e-05
0.000114869
9.36885e-05
3.17113e-05
9.63579e-05
0.000123604
7.84005e-05
2.62342e-05
9.38836e-05
6.62235e-05
6.89031e-05
6.10059e-05
9.91098e-05
3.636e-05
6.78844e-05
7.76533e-05
3.99947e-05
8.00982e-05
0.000136169
8.87905e-05
0.000124134
0.000192889
0.000116324
0.000137198
)
;
    }
    procBoundary0to1
    {
        type            processor;
        value           nonuniform List<scalar> 
29
(
0.00311025
0.00322304
0.00347402
0.00347402
0.00509963
0.00509963
0.00285431
0.00163727
0.00193427
0.00338895
0.0025965
0.00194698
0.00137327
0.00113141
0.00216603
0.001243
0.00775023
0.00554473
0.00429022
0.00313327
0.000856226
0.000731445
0.00315014
0.000738558
0.000722905
0.00554473
0.000726054
0.000906318
0.000738558
)
;
    }
    procBoundary0to2
    {
        type            processor;
        value           nonuniform List<scalar> 
42
(
0.00447294
0.00310941
0.00128228
0.00106055
0.0019123
0.00447294
0.00128228
0.00129952
0.00192021
0.00154122
0.00222377
0.00310643
0.00222377
0.00350898
0.00367899
0.00475097
0.00367899
0.00138765
0.00174528
0.00361552
0.00361552
0.00138765
0.00118841
0.00377927
0.00377927
0.000853844
0.00438679
0.000750864
0.0050528
0.00318825
0.00318825
0.000766894
0.000836936
0.000883641
0.00090521
0.00128228
0.00297109
0.00034058
0.0050528
0.00129952
0.00108106
0.000960078
)
;
    }
}


// ************************************************************************* //
