/*--------------------------------*- C++ -*----------------------------------*\
| =========                 |                                                 |
| \\      /  F ield         | OpenFOAM: The Open Source CFD Toolbox           |
|  \\    /   O peration     | Version:  v1912                                 |
|   \\  /    A nd           | Website:  www.openfoam.com                      |
|    \\/     M anipulation  |                                                 |
\*---------------------------------------------------------------------------*/
FoamFile
{
    version     2.0;
    format      ascii;
    class       surfaceScalarField;
    location    "0.73";
    object      phi;
}
// * * * * * * * * * * * * * * * * * * * * * * * * * * * * * * * * * * * * * //

dimensions      [0 3 -1 0 0 0 0];
oriented        oriented;


internalField   nonuniform List<scalar> 
2776
(
-0.000231969
-1.05572e-05
0.000158603
8.3923e-05
-0.000865978
0.000935068
0.000301152
-0.000370242
-0.00034343
-0.000216992
0.000216966
0.000343456
0.000106711
-1.99032e-05
0.00101343
-0.00110023
-0.000172564
-3.151e-05
0.000239656
-3.55828e-05
-0.000118174
-0.000447442
0.000376863
0.000188754
-0.000105373
-3.25929e-05
0.000370138
-7.25537e-05
-0.00055619
0.000258605
0.00101419
0.00089189
-0.000895988
-0.0010101
-0.000952962
0.000757282
-0.000230348
0.000426028
-0.000358241
-0.00119005
0.00053324
0.00101506
0.000430111
0.000176701
-0.000561492
-4.53201e-05
0.000889581
0.000114917
-0.00137317
0.000368677
-0.000152499
-9.68113e-05
7.67467e-05
0.000115726
-3.7898e-05
-0.000196003
0.000488059
-0.000149927
-0.000696373
-0.000231601
0.000128036
0.000254673
-0.000151108
3.05167e-05
-0.00048153
0.000451013
0.000525054
-0.000155093
7.83901e-05
-0.000448351
0.000714343
-4.20327e-05
5.19068e-05
-0.000724217
-0.000704244
3.79447e-05
-2.71126e-05
0.000693412
-1.36026e-06
0.000224934
-0.000327645
0.000104071
0.000587239
2.2692e-05
-2.2704e-05
-0.000587227
0.000674709
4.80687e-05
-3.09882e-05
-0.00069179
0.00031071
-0.000384149
-0.00117957
0.00125301
1.33401e-05
3.39945e-06
2.09145e-05
-3.7654e-05
-0.000240577
5.64311e-06
0.000127667
0.000650599
-0.000736391
-4.18756e-05
0.00013974
-9.72083e-05
0.000159378
-0.00020191
-0.000353021
0.000405876
0.000622218
-0.000675073
0.000577623
-0.000873238
-0.000112739
0.000408354
4.16962e-05
-5.70648e-06
4.99015e-06
-4.09799e-05
7.22463e-05
9.55841e-05
-0.000145802
-2.20283e-05
-0.000371457
0.000335233
-0.000709258
0.000745482
3.86088e-05
9.01938e-06
0.000372865
0.000260361
-0.000117149
-3.47121e-06
-0.000492891
-3.56322e-05
-0.000396855
0.000138537
0.000970741
-0.000234133
-0.000736608
-0.000107043
0.00028091
-0.000173867
-4.70616e-05
0.000211394
-0.000164333
-0.00047809
0.00054208
-6.39901e-05
-0.00048909
0.00047945
9.64028e-06
-8.22516e-05
-4.20196e-05
0.000124271
1.30713e-05
-8.31719e-05
7.01006e-05
0.000376915
-5.17366e-05
0.000962993
8.71972e-05
0.000219474
-0.000176662
-4.28121e-05
-0.000272239
0.000315643
-4.34036e-05
-0.000168208
0.000222981
-5.47738e-05
-0.000229617
0.000149182
8.04358e-05
-0.00020965
-0.000656329
-0.000361068
-8.63745e-05
8.51511e-05
-0.000116661
0.000165418
-9.31713e-05
-0.0010952
0.00140591
0.000234691
1.53055e-05
-0.000249997
-0.000982821
-0.000207234
-9.17387e-06
-8.83613e-05
9.75352e-05
-0.000806113
-0.000146849
2.45332e-05
-1.942e-05
2.09999e-05
-2.61131e-05
-9.4233e-05
8.43783e-05
-3.72068e-05
-9.64209e-05
0.000107735
-0.000118357
-0.000203264
4.95196e-05
0.000590539
-0.000436795
0.000790553
-0.000686495
-0.000187621
8.35628e-05
0.000195214
-0.000228846
5.54052e-05
-2.17739e-05
0.000255156
4.51322e-06
-4.49325e-05
-0.000214737
-0.000190642
-6.29828e-05
-0.000453685
0.00087098
-0.00087386
6.89244e-05
-6.60443e-05
0.000174599
-0.000273974
-0.000158396
0.000257771
0.000164043
-0.00014579
-1.06783e-05
-7.57472e-06
5.33826e-05
-0.000542894
0.000489512
5.14151e-05
-0.000519439
0.000468024
0.00106398
-0.000454802
-0.000813567
0.00020439
7.66008e-06
-2.38556e-05
4.07287e-05
-0.000631165
-7.20335e-05
0.000305679
0.000397519
-5.06181e-05
-8.36766e-05
4.00616e-05
-0.000149003
-5.11837e-05
0.000103766
-0.000278867
0.000172285
0.000106582
0.000106068
-0.000389774
0.000342682
-5.89768e-05
-0.000601126
3.35289e-05
-5.71402e-05
0.000624737
-0.00030696
0.000496325
0.000343875
4.39397e-05
0.000216673
-2.47677e-05
-0.000235845
-0.000343268
-6.39264e-05
0.000300428
0.000106767
-0.00055527
1.8662e-05
0.000551496
-1.48876e-05
-3.94e-05
0.000599377
-0.000587082
2.71057e-05
-0.000659407
0.00107232
-0.000784369
4.02898e-05
-1.64079e-05
0.000327125
-0.000351007
0.000772584
-0.000402969
2.80126e-05
2.48122e-05
7.70302e-05
-0.000129855
8.23231e-08
1.05282e-05
2.72955e-06
-0.000236659
6.38114e-05
-6.77296e-05
0.000206958
-0.0007735
0.000673254
5.18213e-05
8.91887e-05
-0.000112091
-2.89191e-05
-2.26494e-05
-0.00021611
0.000166205
-0.000178012
0.00079715
0.000137919
-1.98274e-05
-8.10023e-05
0.000222718
1.69386e-05
0.000147245
2.2439e-05
0.000126743
-3.02216e-06
0.000222496
-3.98309e-05
-0.000232408
-0.000523749
3.46586e-05
-5.10554e-05
-0.000505134
-4.54253e-05
-9.1511e-05
0.000382046
0.00063301
2.7222e-06
-1.25719e-05
-1.88959e-05
1.20479e-05
0.000522617
-0.000550433
2.48946e-05
2.92083e-06
6.34628e-05
-0.000190046
0.000116026
0.000277709
0.000479573
-7.90517e-06
-8.66739e-05
3.22777e-05
6.23013e-05
0.000421998
-0.000116577
0.000136795
-0.000434252
0.000727568
3.88024e-05
-9.55024e-05
-4.86733e-05
6.54863e-05
-0.000143521
-0.000101974
-0.00107354
0.000964229
8.94057e-05
-2.7542e-05
5.00758e-05
-5.28403e-05
3.03065e-05
-4.02992e-05
5.78559e-05
-6.5265e-05
4.77083e-05
-2.85538e-05
-5.36979e-05
-4.76401e-05
6.07114e-05
0.000369602
-0.000151064
-0.000680383
0.000176292
0.000605956
-0.000101865
-0.000212494
0.000714257
4.52075e-05
-0.00054697
-0.000302813
0.000869817
5.63528e-05
-0.000623357
-6.31349e-05
5.77238e-06
8.56313e-05
-2.82689e-05
0.000111408
0.000529213
0.000130987
0.000595137
-8.03036e-06
3.77838e-07
4.63527e-06
3.01725e-06
-0.000176507
-0.000261196
0.000129363
-6.06147e-05
-0.000123807
-7.26236e-05
-8.20876e-05
0.000729508
1.90551e-05
-0.000666476
0.000659979
2.37623e-05
-1.87884e-05
-0.000664953
0.000515963
-2.629e-05
3.15244e-05
-0.000521197
0.000224356
-0.000146485
-0.000143011
6.51395e-05
-0.000566818
-9.62061e-05
1.91825e-05
0.000643842
4.66969e-05
4.51364e-06
-9.51433e-06
8.93312e-05
-4.66352e-05
-3.61238e-05
-6.57225e-06
0.000137103
-0.000114798
3.00973e-05
-5.24026e-05
0.000178878
-0.000143004
-7.86178e-06
-2.74788e-06
-5.07496e-06
0.000229417
-0.00042034
0.000492074
-0.000813699
-9.19252e-05
0.000225241
5.40215e-05
-6.76747e-05
-8.9962e-06
-0.000178253
-4.47202e-05
-1.94872e-05
0.00024246
0.000235121
-7.41769e-05
0.000100049
0.00068213
-5.89098e-05
-0.000723268
0.00071659
-0.000617776
-0.000758221
3.7771e-06
1.37124e-05
6.2529e-06
-2.37424e-05
-0.000744442
0.000238301
0.000484349
2.1792e-05
-6.04903e-06
-2.60994e-06
5.53559e-05
-0.000624132
0.000190587
0.000539613
-0.000271133
0.000231733
0.000507294
-0.000749351
-0.000163548
0.000405605
-4.21198e-05
0.000119955
-0.000347
0.000269165
9.29667e-05
-0.000392359
0.000723581
-0.000674821
8.22269e-05
0.00055238
-0.000514973
7.40016e-05
0.000650457
-0.000549105
-7.22086e-05
-2.91436e-05
0.000103223
0.00154969
-0.00121904
-0.000433877
0.000605729
-0.00083833
0.000360268
-6.4631e-06
1.26391e-05
3.48515e-05
-4.10276e-05
0.000169053
-1.95669e-05
7.34952e-05
-3.76607e-05
9.49418e-05
0.000524334
-0.000632127
0.000107793
-0.000406992
0.000290988
-0.00128413
0.00140014
-0.000440271
-3.01195e-05
0.0006028
-0.000132409
0.000223164
-0.000186888
-0.000389296
-8.28825e-06
-2.13094e-06
-2.15273e-06
5.17436e-05
2.02619e-05
9.20378e-05
-0.00133852
0.00117583
-0.000250936
0.000413628
0.000378269
-0.000322896
-0.000129474
7.41006e-05
0.00013774
-0.000564511
0.000544943
-0.000118172
-0.000185803
7.31496e-06
0.00011706
6.14278e-05
-2.64337e-05
4.47253e-07
0.000359285
-0.000333299
0.000612547
3.08024e-05
-4.39731e-05
-0.000546505
2.99981e-05
-3.8763e-05
-0.000366298
-0.00019139
0.000214421
-0.000984765
-0.000170982
0.000281887
-8.36314e-05
3.49355e-05
-0.000230171
0.000700667
-0.000184259
-0.000598496
3.22397e-05
-2.38777e-05
1.26379e-05
-0.00038169
0.00025455
0.000334097
0.000303643
0.000367969
-0.00059423
-7.73823e-05
0.000116065
0.000164111
-0.00102462
3.8575e-05
-1.77702e-05
-2.90931e-05
-9.96096e-05
-0.000174364
-0.000409871
0.00033198
0.000530808
-0.000452918
-0.000253694
4.3337e-05
4.95011e-05
0.000160856
-0.000737643
0.000474467
-0.000359443
-0.00015944
0.000137193
0.000111722
-3.77534e-05
-0.000494861
0.000438905
0.000359742
-0.000303786
-0.000312013
0.000319858
3.34175e-05
-4.12627e-05
-0.000131299
-3.76402e-05
2.31491e-05
-0.00024407
-0.00043857
7.28519e-05
0.000733687
0.000492234
0.000780314
-0.000419402
-0.000853145
-5.29177e-06
5.31281e-07
1.19655e-05
-7.20506e-06
1.17929e-05
0.000704768
-2.2185e-06
4.42309e-05
0.000570401
-8.95782e-05
-3.32269e-05
4.81416e-06
-0.000560286
0.000588699
-2.3682e-05
2.3746e-05
-0.000266309
0.000266245
0.000439057
-0.000172528
0.000339199
9.07146e-07
-0.000702651
-2.50049e-06
5.55759e-05
-0.000574211
0.000762855
-0.00024422
0.000629519
0.000119026
-0.000135997
-0.000532589
4.16603e-05
-0.000250144
-0.000446793
0.000330639
-0.000173083
0.000674742
0.000221922
-0.000155275
0.000526339
0.000181315
-5.05723e-05
3.55432e-06
-3.96559e-05
-3.13434e-05
-3.55733e-05
5.91161e-05
-3.9437e-05
1.15475e-06
-0.000460429
0.00033024
-0.000115804
-0.000162812
6.95483e-05
0.000209067
3.82328e-05
0.000110542
8.94126e-07
-0.000149669
-8.52372e-06
-5.84706e-06
-9.67698e-05
4.50779e-05
1.11967e-06
4.01276e-05
-6.88675e-05
1.80615e-05
-4.20775e-05
0.000301758
-0.000524422
0.000264742
7.83253e-05
-0.000436078
-0.000236478
-6.88326e-05
0.000414908
-0.000373324
2.7249e-05
0.000153642
9.66598e-05
-0.000135707
-0.000114595
-8.68265e-06
-0.000242962
4.96317e-05
-9.0519e-05
6.09231e-05
-2.00358e-05
7.75348e-08
0.000215551
0.000114553
-0.000103266
-0.000226838
8.08779e-05
-4.79983e-05
-0.000422653
0.000457839
-0.000311167
-0.00034815
2.43749e-05
9.49441e-06
-1.5592e-05
-1.82773e-05
7.52959e-05
-0.00061855
-3.14532e-06
2.84845e-06
-3.63343e-05
3.66312e-05
-0.000260395
0.000917383
-0.000283366
0.000242185
-2.59345e-05
6.71157e-05
-0.000311867
0.000739587
0.000607455
0.000200618
-0.000178553
0.000824943
-0.00042651
0.000894956
-5.31859e-05
7.11829e-05
0.0005057
-0.000523697
-2.43198e-06
4.52039e-05
-4.80636e-05
6.97811e-05
2.33273e-05
-8.00201e-05
0.000598602
-0.000792807
-0.000975928
0.00120516
0.000563577
-0.000412545
0.000417359
-0.000262535
0.00038156
6.66588e-05
-4.29128e-05
-2.60971e-05
0.000400036
-2.21671e-05
0.000444221
-3.75924e-05
-6.72077e-05
0.000445538
-0.000446823
-0.000508054
0.00050934
-1.67496e-05
-0.000419285
0.000497083
-7.77981e-05
-6.07584e-05
7.16735e-05
-0.000587625
-0.000145465
-0.00130816
0.000660818
0.000208821
-0.000479954
-0.000397574
-1.49716e-05
7.4488e-05
-7.82921e-06
1.11868e-05
-2.09777e-06
-8.55778e-06
-1.17666e-05
1.25731e-05
-3.65931e-05
6.95961e-05
3.42822e-05
-0.000711466
0.000250784
-0.000160837
0.00062152
-0.000581042
0.000470994
0.000168772
-0.000206689
-7.68806e-05
-2.17221e-07
4.79998e-05
1.58407e-05
-6.36233e-05
-0.000326169
0.00025112
0.000180236
-0.000105187
0.000320334
-0.000185008
0.000436586
-0.000571912
-0.000552411
0.000500776
0.000234654
3.73461e-05
-0.000134838
-0.000137161
8.25315e-06
-3.99399e-05
0.000111706
-8.00193e-05
0.00033972
-0.000422033
2.15545e-05
-2.23921e-05
0.000317392
-0.000114186
7.16225e-05
-4.57979e-05
0.000936121
-0.000845814
-0.000509709
0.000541785
0.000379678
-0.00074517
9.73749e-05
6.12285e-05
-0.00083309
5.80989e-05
-0.000815253
0.000424121
-1.05616e-05
-0.000180829
0.000378912
-0.000348914
0.000128884
-8.06251e-05
-0.000103033
-5.51057e-05
1.29495e-05
4.56379e-06
-0.000115579
-8.67074e-05
0.000151167
5.11191e-05
-2.68153e-05
5.67162e-05
4.67829e-05
-7.66838e-05
5.48943e-05
-9.57328e-06
-4.53211e-05
-0.000564908
0.00141327
-0.00110876
0.00049316
-0.000566496
-0.000660717
3.52224e-07
-5.1137e-05
6.66959e-06
-3.87238e-05
-6.36532e-05
5.74672e-05
4.49098e-05
-6.71327e-05
2.14318e-05
0.000246486
-0.000200785
-0.000891316
0.000920809
0.000374858
-0.00040435
-0.000220907
0.00014965
-0.000857465
0.000928722
-0.00109313
0.000534056
0.000749656
-0.000135963
0.000449808
-0.000345644
0.000717573
0.00012811
0.000285611
-0.00015209
-0.000261631
7.28782e-05
-0.000451009
4.98025e-05
0.000328328
0.000632605
-3.79624e-05
8.1573e-06
-5.44434e-05
6.59249e-05
3.93166e-05
-5.07981e-05
0.000692414
-9.89734e-06
0.000316447
-0.000998964
-0.000151925
0.000194086
-0.000109294
2.60317e-05
1.35417e-06
8.83406e-05
-4.94847e-05
-1.12887e-05
5.66776e-06
-0.000949205
-8.66046e-05
0.000142867
0.000892942
-0.000987082
0.000480897
0.00101253
-0.000506343
0.000117571
-0.000455142
0.000574897
0.000572659
6.5553e-07
-4.01807e-06
-6.51655e-05
0.000146085
0.000383572
-0.000464491
6.04555e-05
-0.000537471
0.000507532
-0.000477471
-0.000212148
9.71452e-05
-0.000101989
0.000769689
-0.00086492
0.000346015
-0.000209295
0.000295564
0.000359269
0.00122612
-0.000564407
0.000265205
-0.00092692
0.000447692
-7.43429e-05
-0.000257284
9.2464e-05
-3.16455e-05
1.9438e-05
1.86064e-05
9.54994e-06
-4.75943e-05
2.99481e-05
-5.78631e-05
-2.24311e-05
5.03461e-05
-1.22902e-05
-5.54067e-05
1.55088e-05
5.21881e-05
-0.000413462
-3.18029e-06
-0.000436503
0.000251947
5.45173e-06
0.000289613
-0.000451709
0.000513079
-0.000350984
0.000486198
0.00110284
-3.9352e-05
-6.80019e-06
6.16945e-05
-0.000572468
-1.76037e-05
0.000799219
-0.000685545
0.000389832
-0.000503506
-0.000151939
-0.000804525
-2.8301e-05
0.00023917
0.000506881
-0.000530587
-0.000705959
0.00156617
0.000365913
-3.82113e-05
-0.00115146
0.00131617
-0.000126491
-2.45688e-05
0.000117743
0.000120665
-0.000172483
0.000149873
0.000161437
0.00035534
-0.000256416
-8.02258e-05
-0.000484181
0.0013527
-0.000552029
-0.00150663
0.000363151
-0.000455248
7.74488e-05
1.57256e-05
0.000344202
-6.84532e-05
5.7113e-05
-4.21873e-05
0.000606594
-7.13933e-05
-0.00033292
0.000404332
-1.81519e-08
9.77986e-05
-0.000178101
-5.10897e-05
0.000278291
2.79549e-05
0.000686002
-0.000636476
-0.000519629
0.000470103
0.000685284
-0.000872516
0.000645114
-0.000457882
-0.000176024
9.5798e-05
0.000211963
0.000614839
-0.000471616
0.00032319
0.00106923
0.000303139
-1.12444e-06
0.000497103
-0.000277258
-0.000219845
0.00058971
-0.000849363
-0.000277989
0.000100426
-3.45844e-05
-0.000480813
-0.000145909
9.58792e-05
0.000530843
0.000213951
0.00038714
-0.00042439
0.000709823
-0.00021272
-8.68455e-05
2.66001e-05
0.000112067
0.000491285
-0.000703928
0.000231958
-0.000147982
9.6007e-05
-0.000179984
-9.28885e-05
0.000183213
5.83551e-05
-0.00014868
0.000280861
-0.000141792
8.22159e-05
0.000331155
-0.000132509
-0.000218223
3.7284e-05
0.000243256
-6.23168e-05
4.72062e-05
0.000333739
-6.03597e-05
-1.09104e-06
0.000183815
0.000151014
-9.28429e-06
0.00025468
-2.56819e-06
0.000187369
-1.21477e-05
6.19599e-06
2.63842e-05
-2.04325e-05
-0.000113174
-1.36146e-05
0.000138454
-1.16654e-05
1.58996e-05
-0.000201866
0.000189472
-3.50553e-06
-1.10231e-05
-9.2515e-05
-9.6358e-06
-1.63772e-05
2.65254e-05
3.41436e-05
-4.42918e-05
-3.73079e-05
3.27602e-05
9.36293e-05
-8.90816e-05
1.55708e-05
-5.80789e-05
-0.000261902
0.000971725
-4.51382e-05
-5.91146e-07
2.93521e-05
6.14366e-05
-9.87445e-05
-6.04728e-05
5.41124e-05
2.19312e-05
9.23356e-05
-4.11023e-05
-0.000530865
0.000105722
-0.00051722
0.000942364
-5.62315e-05
0.000104
-0.00114589
-0.000215071
0.00113404
0.000226924
-5.72605e-05
2.55746e-05
5.99771e-05
-2.82913e-05
0.000580161
-0.000284898
-0.000826129
3.07038e-05
0.000147751
-0.000297834
0.000115775
0.000234911
-5.2853e-05
0.000126725
-0.000100182
-0.000130312
0.000103769
1.34624e-05
4.09121e-05
-2.1888e-06
-5.21857e-05
-5.36131e-05
0.000739496
-0.000502551
0.000479641
-1.08958e-05
8.03601e-05
-0.000237778
-0.000315887
0.000284894
0.000268771
0.000174443
5.50882e-05
0.000179557
-6.1346e-05
3.46986e-05
-0.000124726
2.91164e-05
1.03777e-05
-5.8277e-05
6.2664e-05
-9.84188e-05
9.40317e-05
-2.53183e-05
-6.82805e-06
-6.80355e-05
5.36569e-05
-8.9871e-05
1.54319e-05
-3.53813e-07
-7.3355e-05
-0.000710418
-1.23245e-05
2.45612e-05
3.19514e-06
-2.64611e-06
7.80383e-05
6.83213e-06
-9.76439e-05
8.04261e-05
1.23558e-05
6.14185e-06
-4.95445e-06
-3.37803e-05
2.12869e-05
-2.49609e-05
-6.4614e-05
3.87443e-05
-2.07899e-05
-6.95842e-05
5.16298e-05
-4.74062e-05
5.13471e-05
2.88194e-05
3.23245e-05
-0.000208348
0.00110177
4.66785e-05
-0.00114845
0.00014925
-0.000167218
0.000247386
5.43116e-05
7.12499e-06
-6.94312e-05
-9.79412e-05
2.6142e-05
-7.91273e-05
5.29853e-05
0.000152809
1.72374e-05
-5.30832e-06
3.10503e-05
-4.63691e-05
5.31897e-05
-6.53374e-05
6.12033e-05
0.000103804
-0.00014777
0.0001658
-0.000157159
0.000141722
9.82465e-05
-9.07183e-05
9.79793e-05
0.00010724
-0.000141757
0.00017826
-0.000189818
0.00112
0.000174908
-0.00023732
0.000204134
5.7912e-05
0.000132655
-9.25874e-05
0.000138301
-0.000232579
9.85322e-05
-4.25393e-06
-0.000118226
0.000257123
0.000135941
-0.000274837
8.78152e-05
-0.000116749
-6.5944e-05
-4.78188e-06
7.07259e-05
0.00142755
-5.40623e-05
-2.14636e-05
-3.99519e-06
3.16547e-05
5.98061e-05
-6.61639e-06
-5.22559e-05
9.05339e-06
8.422e-05
-4.10175e-05
2.91433e-05
0.00027531
-8.77809e-05
-6.13796e-06
0.000153443
-9.67615e-05
0.000148932
-4.00541e-05
2.62112e-05
-6.44341e-06
0.000100922
-0.000124035
0.000158365
-0.000215305
0.00017243
0.000115137
-7.3616e-05
0.000116347
-1.93186e-06
-0.000128805
0.000144021
2.20678e-05
2.68787e-05
-6.80546e-06
-2.48025e-05
1.39436e-05
8.70876e-07
9.98807e-06
2.38996e-05
-0.000105498
-2.70571e-06
-5.10365e-05
0.000161012
-0.000104386
0.000161013
7.71779e-05
-0.000129985
9.9185e-05
2.79535e-05
2.49181e-05
6.34755e-05
1.31458e-05
1.11224e-05
3.37982e-05
-8.18984e-05
-0.000341498
5.04137e-05
0.000372983
0.000290923
-7.39473e-05
-0.000242226
2.52496e-05
0.000141299
0.000183136
-0.000101826
-0.000222609
0.000132175
0.00107237
-0.000338362
-0.000861195
-8.80909e-05
0.000344551
3.44637e-05
-0.000159235
0.000226586
0.00112463
0.00025122
-9.18262e-05
4.38697e-05
7.591e-05
7.30067e-06
2.84853e-05
-5.22743e-05
2.69463e-05
0.000328467
-0.000103691
-0.000102729
4.71853e-05
0.00048885
-1.07784e-05
-8.36759e-05
-2.89652e-05
1.81695e-05
0.000154816
-0.000294286
-9.96254e-05
-0.000182882
-3.38101e-05
0.000203077
5.24669e-05
0.000505506
-0.00040546
-0.000152512
-3.31853e-05
0.000247476
0.000695586
-0.000295898
-3.65874e-05
0.000275859
5.66258e-05
-0.000162923
0.000431761
-0.000447948
-0.000210053
0.000495077
-0.000135169
0.000117423
-4.51424e-05
-0.000176666
-0.000194166
-0.000429212
-0.000126227
0.000484046
-0.000833497
0.000946452
0.000228058
0.00012825
7.56965e-05
-5.5456e-05
0.000297475
-0.000294016
4.90077e-05
0.000229965
-7.37141e-05
-0.000171239
1.49879e-05
0.000290369
-0.000151874
-1.00166e-05
-3.04581e-06
-0.00108509
0.00104688
0.000281915
1.52702e-05
0.00020832
0.000124333
-1.09638e-05
-1.2781e-05
1.69394e-05
0.000709382
0.000715475
0.000203392
2.62882e-05
-0.000945155
-1.64862e-05
0.000123984
0.000351278
4.72979e-05
-1.10182e-06
3.21954e-06
1.18259e-05
-3.22747e-05
0.000494491
-0.000460179
-2.03721e-06
-0.000848248
0.000709553
7.97988e-05
-0.000130928
6.20375e-05
8.72438e-06
-4.68623e-05
6.76231e-06
-6.99325e-06
4.55976e-05
-7.49514e-05
6.16783e-05
7.31415e-05
0.000392075
-3.00015e-05
-2.89821e-05
8.51256e-05
0.00108208
1.96966e-05
2.28799e-05
5.85401e-05
-2.8752e-05
-0.000165153
-0.000252221
0.000269474
-4.60048e-05
-0.000899968
0.000576
-0.000683066
-1.09676e-05
-0.000748463
-0.000451095
-0.000635118
0.000911503
-0.000100594
5.52051e-05
0.000148873
-0.000232497
-9.22325e-06
-0.000192661
8.03434e-05
-0.000913055
0.000472256
-1.61668e-05
-0.000970194
0.000672552
-0.000602327
2.06144e-05
-3.87265e-05
0.000694713
-0.0006766
0.00023348
0.000280097
2.63319e-05
-0.000362261
5.58327e-05
-3.08745e-05
6.78471e-05
-1.64032e-05
2.65031e-05
-3.12485e-05
-3.01796e-06
-0.000227865
8.48807e-05
1.48672e-06
0.000151398
0.000406601
-0.000592784
1.4193e-05
0.000428295
7.22334e-05
-0.000100152
-0.000562356
-0.000678865
0.0012424
0.000100836
-8.35336e-05
0.000529298
9.29269e-05
0.000593291
-0.000554469
-0.000131749
-0.000108241
0.000156675
-0.00099764
-3.50253e-05
1.74174e-05
0.000546906
-0.000511363
0.000174141
-0.000185624
0.000192842
-0.000181358
0.00149201
-0.000939806
0.000358336
-0.000910544
0.000444774
6.17049e-05
-0.000449591
-5.83517e-05
0.000786512
-0.000588116
-0.000366679
0.000168283
0.000251072
-0.00021981
-0.0001895
0.000636882
-0.000367933
-0.000398267
-4.09616e-05
-0.000190834
0.000256803
0.000120769
-0.000186738
-0.00121677
2.59391e-05
0.000117292
0.000817932
8.95655e-05
0.000208693
-0.00111619
0.000221199
3.08858e-05
0.000110857
-1.35273e-05
2.28074e-05
0.000483017
-0.000907287
0.000570232
-0.000162189
-0.00026266
0.000140113
0.000284736
-0.000352233
0.000662419
-0.000668447
0.000682059
-0.000444681
0.000504009
4.77712e-05
0.00114609
-0.00114718
-0.000128238
-0.000277197
0.000935732
-0.000926688
-0.000320472
0.000542147
-0.000444985
0.000973671
-0.00100616
0.000924283
-0.000907699
-0.00036605
-8.24785e-05
1.24514e-05
-0.0001947
0.00011554
0.000156609
-5.90486e-06
0.000189073
4.67965e-05
-0.000100263
-2.90402e-05
-0.000104201
0.000117795
0.000147419
-0.000190839
-0.000389618
0.000213892
-0.000120676
-0.000763286
-0.000169655
0.000676768
-0.000796915
-0.000449145
-0.000555734
0.000823965
0.000782144
-7.382e-05
-0.00016654
5.43395e-05
-0.000890691
2.6725e-05
-9.9832e-05
9.5899e-05
-0.000882817
9.75658e-06
1.53549e-05
0.000848466
-0.000873577
-3.22033e-05
5.00201e-05
0.000705005
-0.000755025
-0.000236225
8.06058e-05
-0.000180855
0.000616844
-0.000238513
-0.000140556
-6.49607e-05
-0.000573274
-0.000235685
0.000415489
-0.000427871
-5.39235e-05
0.000815938
-0.000771398
-0.000699955
-0.000845214
0.000976249
0.000568919
4.09798e-05
-2.61355e-05
0.000920888
0.000147494
0.000219701
0.000975096
-0.00103332
0.000700667
-0.000101613
-0.00105836
0.00110303
5.69385e-05
-0.00113965
-1.4829e-05
7.11409e-05
-6.59517e-05
-0.000563979
-0.000225582
0.000579509
7.90346e-05
-0.000491285
-0.000152412
0.000517469
-0.000370646
-9.92681e-06
-0.00104038
-0.000486443
0.000470272
0.000144282
-2.07506e-05
-2.68613e-05
7.45582e-05
-0.000542127
-0.000212691
-7.50896e-05
-0.000672252
-3.18673e-05
0.000704119
1.9929e-06
-1.90273e-07
-7.5091e-06
0.000278539
-0.00127976
-5.43393e-05
0.00105556
-0.000438003
1.22873e-05
-1.01873e-05
-7.06224e-06
0.00052988
-0.000512631
-4.89273e-05
2.41116e-05
-0.00095229
-4.84144e-05
2.69121e-05
-8.1227e-05
-4.90151e-05
-1.82859e-05
2.95476e-05
0.00061253
-0.000330709
0.000122664
0.00026729
0.000353394
0.000170542
-4.13569e-05
5.77943e-05
0.000150759
-0.000425719
-5.1209e-05
0.000126343
-0.000221184
9.57356e-05
-0.00010693
0.00014434
3.21383e-05
5.20144e-05
-1.97167e-06
-7.958e-06
3.71549e-05
-3.5997e-05
-0.000186173
0.000264183
-6.90198e-05
-8.99032e-06
0.000864746
-0.000813706
0.000578616
4.54329e-05
0.000189657
-4.07499e-05
0.000184511
-2.8321e-05
2.88556e-05
-1.23012e-05
8.02765e-06
-6.83192e-05
1.51492e-05
1.16425e-05
-2.81838e-05
1.65414e-05
-6.56684e-05
7.05103e-06
-5.58071e-05
3.49574e-05
2.08498e-05
-6.43231e-05
5.77306e-05
6.59247e-06
-4.0297e-05
-0.00031055
-5.1609e-05
4.59881e-05
5.62087e-06
3.6665e-05
-0.00110986
0.00117691
-0.000486089
-0.00151695
-1.20274e-05
2.36698e-05
-7.07862e-05
0.0001943
0.000117497
-3.17005e-05
-7.93498e-05
2.35426e-05
8.13325e-06
0.000697101
-0.000680121
-0.000242562
2.293e-05
6.12165e-06
5.20757e-06
-0.00032192
-0.00020949
-0.000200675
0.000285701
0.000151942
5.1827e-05
-7.51677e-05
4.38149e-06
-0.000213098
0.000186792
-1.41629e-05
-0.000431038
4.98207e-05
0.000441673
-5.18416e-05
3.71255e-05
0.000704585
-8.83748e-05
-3.91333e-05
7.79813e-05
0.000661819
0.001089
-0.000821559
0.000701033
7.14812e-05
0.000451801
-0.000338908
1.14407e-05
-2.94791e-05
-0.00011403
0.000118891
0.00011614
-0.00017364
-6.13908e-05
-0.000116735
-8.80529e-05
-0.000469385
3.27526e-05
-0.000633526
-0.000161744
0.000114662
0.000680609
0.000921244
-2.86226e-05
-2.52329e-05
6.20801e-05
-2.1032e-05
-2.24417e-05
6.65774e-05
-4.88288e-06
0.00021022
-0.000384533
-0.00028835
-8.03425e-05
-2.65951e-05
0.000224435
-0.000186021
0.000205526
-3.92713e-05
-0.000109012
7.99639e-05
7.36947e-06
-0.000363052
-0.000631271
0.000572361
0.000866926
-1.44906e-06
-0.00014805
-1.03831e-05
-0.000668255
0.000459186
-2.84989e-05
-0.000301813
0.000273172
-0.000219342
0.000343772
-0.000170652
0.000218895
-0.000119997
7.17532e-05
-3.82724e-06
1.1312e-05
-5.70307e-06
-0.000147981
0.000124387
2.35938e-05
4.86651e-05
-5.39379e-05
5.27281e-06
-8.9147e-06
-8.64142e-05
7.56706e-05
-0.000110464
0.000639342
0.000257634
-3.06665e-05
7.40733e-05
0.000129248
-0.000110986
-0.000285924
0.000313814
3.08989e-07
-0.00112012
-5.40072e-05
0.000140815
0.00121853
-0.00116186
3.8276e-05
-4.13839e-05
3.5494e-05
0.00010689
-7.51862e-05
0.000122544
0.000425485
5.90853e-06
-1.36187e-05
0.000422618
-0.000284911
-0.000393342
1.48939e-06
-0.000796966
-0.000461975
-0.000263782
-0.000141315
5.65774e-05
-0.000327648
5.12184e-05
-3.01199e-05
-6.05535e-06
-1.50432e-05
2.34837e-05
0.000124155
1.16554e-05
6.8043e-05
-0.000172201
-0.000334737
0.000113963
0.000497658
-3.88271e-05
1.06433e-05
-7.57655e-05
-0.00101763
-3.38767e-05
5.58957e-05
-5.48333e-05
-3.77111e-05
-6.80504e-06
-0.000201035
-0.000101491
0.000273544
-9.29657e-05
0.000307752
-0.000334282
5.18124e-05
-0.000104485
1.78729e-05
2.17072e-05
-8.79945e-05
-0.000123424
0.000565274
-2.34148e-05
3.3858e-05
-0.000194979
-0.000231266
-0.000776935
0.000990073
-0.000713371
0.000360228
-0.000492071
7.32582e-05
0.000837235
-0.000143607
0.000170722
7.00306e-05
-3.68611e-05
-3.68108e-05
2.25349e-05
9.08399e-05
-8.57611e-05
5.23884e-05
6.86033e-05
-1.07564e-05
-0.000132798
0.000730919
-0.000211937
-0.000708482
0.00021069
0.00012119
0.000174316
2.09977e-05
2.76674e-05
-0.000111248
0.00118267
4.67936e-06
-0.000111378
-0.000629781
-8.75035e-06
-0.00092832
0.000571645
-1.70991e-05
0.000159711
-2.23436e-05
0.000197839
-6.10022e-05
-6.93116e-05
0.000201763
3.10834e-05
1.40706e-05
2.70637e-05
0.000543478
7.33964e-05
-0.000207084
0.000352222
9.11728e-05
-0.000102589
-7.22155e-05
-0.000274687
8.38493e-05
8.211e-05
1.713e-05
2.34745e-05
2.20595e-05
0.000408056
-0.000498885
-3.25943e-05
-0.000698601
-0.000522641
0.000444306
-4.43744e-05
7.85484e-05
0.000106433
-4.71173e-05
-2.60406e-05
6.30962e-05
-0.000240353
0.000149193
-6.82451e-05
0.000258987
-1.4691e-07
0.000131505
-8.60409e-05
7.86101e-05
-0.000128276
7.161e-06
-2.1876e-06
0.000809123
-0.000474092
-0.000185382
0.000453846
-0.00022446
3.71364e-05
-0.0001379
8.38898e-05
0.000449858
-0.00118542
-0.000282064
-0.000164389
0.000310889
-0.000364339
-0.000124854
-0.000553513
0.000468717
-0.000161101
-5.80038e-05
2.30015e-05
-0.000495727
-0.000529978
-0.00124395
-6.34281e-05
3.49828e-05
-0.000167918
-1.38007e-05
8.40705e-05
-1.5252e-05
-5.50179e-05
0.000171871
-0.0001502
-2.37787e-05
0.000237601
-0.00026182
-0.00015897
0.000468912
-0.000375108
0.00015619
-8.08788e-05
-0.00047828
0.00101223
-0.000975787
3.87054e-05
0.000384329
-0.000248881
-8.19757e-06
4.23689e-05
-2.46214e-05
-1.55251e-05
4.37283e-06
9.02133e-06
-0.00014805
-0.00147553
-0.000809032
-0.000381058
0.000312782
9.85435e-05
-2.50759e-05
1.53239e-05
-0.00012674
-3.0862e-05
-3.49916e-06
-6.48916e-08
-0.000189132
-3.5975e-06
-1.84159e-05
-7.84004e-05
-0.000544444
0.000556237
-0.000492537
0.000550427
5.80957e-06
-0.000492341
0.000430033
6.23079e-05
-0.000431829
-6.07083e-05
-1.79625e-06
-0.000688381
0.000689288
-0.0005509
0.000565598
-1.46988e-05
-0.000506669
-0.000638162
-5.02189e-05
0.000662176
0.000635217
2.69589e-05
-0.00056531
-0.000428279
0.000493637
-0.000446362
-4.72745e-05
-0.000332597
-9.56813e-05
-0.00024074
-9.1857e-05
0.00018091
-0.000137573
-5.98303e-05
0.000621757
1.34597e-05
0.000639102
-1.73445e-05
0.000658157
1.38647e-06
0.000530987
-0.000373921
6.65897e-05
-1.23239e-08
-8.93613e-05
-0.00018157
8.95729e-05
-0.000238273
0.000146116
-2.35877e-05
-6.53635e-05
0.000111252
-0.000235594
-0.000695252
0.000196123
-2.20388e-05
7.14048e-05
0.000458166
-0.000592033
0.000159886
-0.000201379
0.000137787
0.000139307
0.000103129
2.12584e-05
-0.000843954
-3.95164e-05
-3.53828e-05
0.000128913
-7.70221e-05
9.8877e-05
-0.000794013
-0.000193198
-0.00150097
0.000546487
0.000281666
-0.000222474
-2.45341e-05
0.000651352
-3.61311e-05
5.76531e-05
1.50669e-08
1.02006e-05
0.00106523
-0.00127087
7.75997e-05
2.61064e-07
-7.78607e-05
0.00126754
3.44846e-05
6.01633e-05
0.000229461
-0.000135245
2.5919e-05
2.45082e-05
0.000234309
0.000786523
-0.000800899
-0.00019756
-0.000220225
-5.96696e-06
-0.000370569
0.000202348
0.000692555
0.000817655
-0.000822724
5.78924e-05
-3.41289e-05
8.85498e-05
-0.000104622
0.000276873
-0.000163995
0.000172733
-0.000525904
-0.000788424
-0.000213599
-6.70033e-05
0.000175212
-7.62744e-05
0.000126235
-0.000225173
0.000236278
0.000222649
-0.000216742
9.17815e-05
-7.93909e-05
-6.93595e-05
-0.000202998
0.000526908
0.000114617
-6.57803e-07
-1.17569e-05
-1.17262e-05
3.67995e-05
0.000166788
0.000296074
-0.000422662
-3.72356e-06
-0.000128014
0.000682517
0.000590887
-0.000196812
-0.000104444
-0.000523178
-0.000609476
0.000598698
-0.000173713
9.32488e-06
-0.000730864
0.000540674
-0.000155453
-0.000338618
0.000196627
6.02854e-06
0.000140529
0.000354988
-0.000514688
-7.06478e-05
0.000212618
3.77366e-05
-0.000133683
0.000142588
-0.000584254
2.0321e-05
-3.63382e-05
-1.78254e-05
0.000395962
0.000118248
0.000413878
0.000432791
-0.000135019
0.000131369
0.000441288
-0.000480448
-7.19506e-05
1.65325e-05
-3.18865e-06
-7.67607e-06
-0.000107362
-5.9938e-05
1.62838e-06
-0.000493731
-0.00135624
0.00112066
0.000246327
-0.000143764
0.000706561
0.000200178
6.7466e-05
5.48428e-05
5.37308e-05
-0.00019155
0.000262838
-3.17666e-05
1.12974e-05
3.45397e-05
7.32676e-05
-9.98247e-05
-7.37057e-05
5.55287e-05
-6.00335e-05
0.000122299
0.000766019
0.000503623
-0.00040358
-3.79386e-05
0.000235303
-0.000172309
-0.00033768
-0.000161119
0.000250154
-0.000243878
6.70266e-05
-0.000126242
7.13585e-05
0.000265466
-0.000334222
-2.60239e-06
-9.23789e-05
-4.52414e-05
2.52733e-05
1.48543e-05
-0.000180419