/*--------------------------------*- C++ -*----------------------------------*\
| =========                 |                                                 |
| \\      /  F ield         | OpenFOAM: The Open Source CFD Toolbox           |
|  \\    /   O peration     | Version:  v1912                                 |
|   \\  /    A nd           | Website:  www.openfoam.com                      |
|    \\/     M anipulation  |                                                 |
\*---------------------------------------------------------------------------*/
FoamFile
{
    version     2.0;
    format      ascii;
    class       volScalarField;
    location    "0.96";
    object      epsilon;
}
// * * * * * * * * * * * * * * * * * * * * * * * * * * * * * * * * * * * * * //

dimensions      [0 2 -3 0 0 0 0];


internalField   nonuniform List<scalar> 
1431
(
0.465448
4.80017
93.878
61.9951
1.40227
26.4292
1.90355
4.42768
93.8066
26.5127
14.0384
2.17166
0.81677
59.6225
55.4266
28.132
61.9214
2.20752
1.56303
12.2923
0.988069
15.0171
31.0149
66.3354
50.9986
10.8583
55.2262
53.7179
22.0854
1.3492
51.0163
12.232
30.7243
3.13141
1.66071
45.5391
9.42454
10.263
8.71188
9.82657
148.992
7.67326
1.95225
1.24466
32.8
1.50675
36.5106
4.95807
18.736
16.3705
1.39718
26.4383
69.3041
2.45874
1.33717
4.82913
29.0181
55.6568
54.3333
1.21676
42.0926
4.75306
48.1349
9.82967
35.1505
2.03787
77.5093
27.5991
1.18883
12.514
1.9249
1.14082
2.92235
20.4507
13.5817
28.2674
1.18633
60.1246
5.76614
81.1206
8.11949
1.4821
0.610929
54.344
89.2714
1.18457
1.14323
16.2729
74.2881
8.73511
3.9758
38.955
1.07748
10.1558
1.96325
0.933723
12.5869
8.71115
1.22782
31.737
1.72945
5.54628
6.58469
1.37554
22.5552
0.8902
6.61333
161.427
66.2138
1.35308
97.7387
3.01165
5.49661
5.24465
19.9577
1.44036
2.2148
21.9992
84.1362
26.6711
8.93034
63.8465
28.7425
55.682
9.33568
0.510665
96.753
3.51605
1.10979
26.4214
3.52712
127.211
48.4654
5.86299
1.07177
62.8191
3.4937
2.90194
2.61165
139.101
40.6293
1.13839
9.83226
19.2553
21.7568
16.2244
8.76277
160.455
4.69408
15.0712
28.2571
38.5571
1.98561
0.380362
3.56757
2.31534
8.99155
4.56992
5.09368
8.64956
2.00482
10.4342
5.03627
13.158
1.42236
134.963
1.12953
9.6186
1.36084
7.04452
34.2926
19.2542
50.1082
17.447
9.33381
1.10023
3.19962
25.5173
1.47812
6.0823
10.7444
33.4663
5.1049
6.67834
14.1439
17.0533
6.36284
49.8855
10.1162
10.0907
1.19389
75.4963
0.937256
7.36544
105.672
8.09171
6.30041
7.34177
3.51151
1.62088
0.75914
73.0062
12.5854
165.007
6.95492
65.0974
1.02898
10.0446
12.5432
23.0304
7.9683
5.35872
77.5999
9.71942
27.4446
32.6704
4.76399
1.07996
11.2756
9.99752
9.23196
64.5923
21.5179
145.34
11.0618
29.0588
27.1638
5.74054
18.9552
51.5625
1.19276
40.1642
11.0343
4.55834
4.40909
4.82217
10.0906
1.26369
8.20417
0.707619
10.3671
10.3762
76.5795
65.3025
2.64131
3.27013
10.3692
1.60104
3.21439
27.674
8.9865
88.1208
22.9048
19.3498
44.7422
36.1932
0.620309
0.834794
30.7019
33.8811
38.092
6.52668
1.44709
45.4877
4.50147
18.2805
28.7125
7.52515
16.0925
53.214
6.91318
23.5381
8.79879
8.70127
40.3691
8.64884
6.33325
1.49132
1.92541
29.6723
91.985
0.595622
4.50876
4.97196
31.6834
46.5621
1.16391
4.35783
23.3257
9.25215
17.794
11.4984
4.51469
1.22272
10.5333
5.54448
0.994542
7.48016
1.45324
7.35512
11.1143
27.6937
0.295674
6.49478
4.1481
2.14319
8.61845
34.8014
32.2584
0.234142
9.98842
13.0867
41.1561
1.02221
2.68935
2.47405
32.4245
0.765338
4.42788
0.520835
1.59528
0.269453
41.6655
0.831441
23.4971
1.00762
7.3961
1.48013
80.6537
9.35952
11.5847
0.257863
0.488375
1.18731
8.84773
61.2302
1.42343
0.175428
1.5146
0.307931
0.796032
7.60591
1.77214
18.3719
45.4925
0.565451
11.3852
0.178219
0.443539
0.322885
1.43104
2.81638
2.36577
0.964611
0.847058
1.82932
2.4863
0.666195
1.38304
0.956789
0.558003
0.829663
0.847986
1.00779
0.205679
0.499689
0.687606
0.845804
18.4097
26.0015
3.8489
0.550509
0.458583
13.4435
1.07004
58.8197
9.06878
11.496
13.9057
1.67184
3.51904
1.08371
0.189684
2.42701
0.771486
0.761034
0.84207
0.762625
1.14194
0.739108
0.174322
63.8192
21.8237
13.9163
0.838353
3.68105
0.176094
10.7398
7.48615
9.12326
0.664637
7.35961
10.2532
1.61646
8.6913
12.2303
0.779704
7.84631
0.23969
15.2851
41.3887
11.4204
2.56345
62.5591
20.3874
42.3262
8.01705
63.197
0.577816
0.206631
0.773988
0.91247
6.57454
2.26154
0.803534
9.8794
2.24988
12.1062
42.8785
10.9884
53.0674
2.59479
7.45756
3.54867
0.601033
12.6874
1.11472
4.09737
1.39816
3.28257
1.71323
129.818
2.44785
1.96643
1.33951
3.27807
8.48477
2.1292
1.9204
9.03007
4.72834
3.92944
6.83751
6.6899
0.983137
5.82979
3.20032
2.49479
4.48071
0.63662
50.0055
1.98011
4.24636
11.6727
0.669686
0.673213
0.199152
80.121
3.72294
0.59987
79.4654
1.50475
6.15372
45.3679
5.29176
0.6392
62.5121
56.7788
79.6341
0.925254
0.832293
1.36896
47.7915
4.81951
10.7988
11.0458
15.1834
6.69469
1.60285
0.646671
0.836792
1.3275
0.52805
62.8077
1.00288
1.26385
95.8152
1.27599
11.3718
1.19731
23.0464
129.525
13.8332
15.5003
7.75622
1.65539
0.565424
6.64179
0.985388
98.233
80.8734
1.64154
6.26154
14.1841
11.3214
1.00222
69.5805
113.024
0.899017
0.830839
1.47603
1.59412
1.20812
0.268106
1.53989
1.31298
3.84583
1.15942
1.34396
1.95233
11.148
6.86418
1.22813
1.25167
2.43725
1.07656
33.1372
1.95281
2.90051
41.4577
16.7641
53.6885
6.98615
19.2236
2.72352
11.1794
4.77642
5.34256
3.97945
0.452934
1.15991
0.672791
31.4862
1.47747
0.517592
6.53214
54.5055
10.1478
32.2654
4.44063
4.05658
1.86262
78.3424
68.8222
38.7198
0.348063
1.53185
4.97608
42.2512
6.76493
0.557071
12.3282
47.2079
11.6436
60.3624
3.69049
1.10613
1.13306
3.63185
17.8352
1.18578
5.62823
5.19777
14.7803
2.39592
1.96871
4.31005
11.353
1.43259
18.1427
24.6093
50.3833
13.7243
10.0788
8.8805
1.97168
0.317813
1.34506
5.12847
0.393049
5.52888
3.78563
0.473834
5.39385
15.3651
6.86141
10.977
0.360419
18.9161
80.7021
51.3654
3.65734
0.227233
15.7315
66.3897
5.11951
67.1654
37.0174
30.9248
3.87784
0.387428
1.12523
2.30915
0.220922
1.18911
9.10151
0.256912
0.321087
1.89807
5.91517
20.7536
2.17613
0.689839
6.35303
1.04905
2.293
0.359665
4.85499
24.3098
2.47499
5.83386
31.5197
6.81934
5.54551
1.36183
33.0176
5.90874
74.2325
23.779
2.3878
2.2085
1.65078
8.04561
30.6036
70.2193
2.09165
7.23569
11.8067
1.39319
3.99153
20.0384
0.6405
3.04741
3.81495
8.69503
0.470707
13.6839
10.8487
3.78702
29.696
0.297161
7.65076
2.66157
27.5841
11.7216
11.9264
24.0367
21.0538
0.184299
20.8301
38.4954
0.990938
12.3815
2.91904
1.08459
2.21459
1.05086
31.0443
15.6783
0.236286
66.1818
26.7737
16.6527
3.35058
1.64065
0.261798
1.22555
0.293336
8.10981
5.178
16.1848
0.278437
4.1831
0.20506
0.990338
29.2432
27.8194
10.4264
13.9291
169.568
1.17316
0.27863
0.535315
10.9249
26.3706
25.1483
6.37943
110.357
5.56542
2.41044
23.8909
9.6204
5.32782
73.431
0.189537
26.2642
14.3989
46.6569
29.9591
0.501745
0.502216
0.69003
28.3426
28.1372
61.937
4.25012
3.24043
1.5383
8.95678
3.14745
28.1883
62.5431
13.0156
1.48018
40.1614
22.2178
5.33874
20.5932
42.9937
0.237601
51.6831
4.34214
28.6584
31.3768
4.34046
3.18779
13.0553
29.1513
18.3061
113.099
51.3237
47.5317
33.8325
34.2516
9.87521
38.7206
6.44317
39.2108
42.7465
29.764
1.17613
65.0392
0.409703
0.415221
7.6104
37.741
0.873084
39.1447
1.75474
0.221696
1.00264
2.26133
33.1741
42.679
0.371674
149.18
0.357716
0.625137
3.66884
134.26
6.0603
4.31285
81.6607
35.6029
13.9624
10.3417
0.43781
0.243059
65.9353
5.87598
1.58233
41.9245
6.1375
0.20077
1.41169
1.1748
40.0252
1.84293
45.4163
1.10754
8.558
6.10677
52.4857
0.30226
80.3412
31.1955
37.1385
40.4819
46.6153
35.1055
27.8212
31.871
35.3017
3.41894
3.68857
17.1902
3.12728
47.8968
0.178405
0.493316
2.3143
0.338943
0.921272
0.792557
0.398012
28.2247
1.34076
30.512
0.538572
1.27771
4.36896
8.5223
8.55837
34.6965
92.7783
7.03113
0.639089
2.72923
2.606
6.17913
5.54127
3.86227
1.72025
0.451853
40.1018
3.11557
22.5214
58.2323
11.0458
12.3261
5.66229
4.46452
0.319164
1.70557
0.97241
0.97344
5.20451
4.91834
0.659952
0.279005
11.8056
37.6042
2.1371
7.32551
0.288509
7.11018
1.92579
1.37517
1.13753
6.78345
1.01197
0.24574
2.94697
0.285563
10.3861
0.529155
2.82915
49.4859
40.6576
10.8533
20.5349
80.6779
18.9043
7.93555
7.35935
58.4698
0.304602
0.76589
1.31235
0.422237
1.07115
1.09561
2.07549
1.2133
59.5391
53.3948
25.602
6.32229
0.228638
1.00161
2.78706
5.55799
95.7251
1.7297
2.45062
18.1094
13.5951
13.2566
12.2669
0.491091
1.24741
5.54697
2.76734
6.01212
5.07484
42.9924
0.566944
34.6508
28.7966
36.4525
56.0679
4.36938
5.99436
20.6683
17.0101
18.7179
22.5386
15.5122
14.2269
3.89085
1.68105
1.16643
6.90212
12.8203
0.741557
0.803396
97.8068
1.23388
1.62026
1.43727
17.5335
1.85807
30.4804
2.35461
101.546
0.400508
10.5722
1.68152
2.0801
2.22003
45.7425
38.0701
0.557532
1.5435
3.16965
1.54444
7.12852
64.3289
0.933601
26.0792
12.9019
2.29439
2.80865
31.6715
33.9541
3.72844
6.35052
1.81248
3.90569
3.74789
7.61228
18.8841
1.50037
61.1712
37.7418
49.1554
2.05109
62.6108
0.174412
36.3285
1.04154
6.97892
1.21482
4.77364
11.6689
0.484314
84.2282
43.7384
121.684
1.3848
76.1766
87.8491
23.1426
3.26766
4.18316
4.56405
35.6506
71.1663
13.0651
5.65376
23.0596
10.4766
5.77227
8.68053
55.0108
74.8532
39.4613
38.7512
2.06557
30.3373
15.4522
41.0915
0.554018
32.4662
44.3678
0.546554
1.30193
1.23261
25.895
157.167
17.207
11.324
2.82415
83.2644
1.02405
36.9037
60.8777
10.7638
1.35174
2.62911
36.9961
1.32004
0.624355
0.19915
1.27933
0.547642
62.5321
34.3241
4.32079
46.9772
0.566133
30.6634
45.8735
24.5503
2.52675
1.36128
2.37741
18.2767
0.50516
5.10049
1.12278
75.2436
12.9901
39.9783
5.32011
3.22079
19.42
11.0901
11.4815
39.6922
2.69844
4.60826
31.41
34.6762
6.53646
1.03482
1.63824
69.8368
14.1826
14.1385
1.59725
0.642923
0.979889
0.344341
7.41438
1.18526
29.3905
55.57
22.8428
67.6846
0.326576
17.9327
1.06112
5.08712
43.4381
0.664875
1.78276
12.0807
1.13098
56.2508
83.1005
0.357904
19.5549
78.838
1.68345
14.6265
19.1864
0.453075
0.18616
45.0969
0.6505
69.0315
1.26401
59.2291
3.36775
78.398
6.74515
0.538353
17.7264
7.00519
0.465159
1.12966
15.3103
0.565529
103.938
0.241921
1.35392
0.642325
2.37546
1.65134
14.4678
0.74008
1.12726
84.8128
4.4329
6.6978
2.09431
28.1824
0.509707
0.44822
0.691538
2.80183
106.079
25.9117
5.67521
4.82423
59.3012
1.57267
60.0084
7.37498
53.5467
0.590437
0.202543
57.4763
1.0418
1.8472
90.2387
48.5774
46.0116
8.90636
114.307
0.488483
0.28855
1.02391
24.9122
62.6235
111.62
0.538549
0.382215
0.236648
12.1216
7.94004
98.0492
96.4155
39.0917
14.3826
4.81116
0.578573
2.89719
1.71003
106.505
45.7225
4.49195
1.11106
1.24776
43.7977
72.6766
57.3809
28.4255
0.231904
0.708357
59.0761
30.6543
0.456546
90.5821
48.2614
63.1039
3.41041
3.88447
11.0261
40.2712
34.3341
57.4777
1.02536
84.6326
46.802
12.6662
0.223055
24.173
13.2127
14.2277
43.8914
35.1473
9.70613
1.11263
0.263023
86.5222
2.07133
1.03926
71.7116
2.25689
27.368
35.2557
1.31869
66.1476
4.70445
11.5293
8.81854
19.8183
12.6215
37.088
93.4909
1.39414
91.4778
0.456236
20.119
54.7234
1.0787
0.545397
1.38998
1.71611
75.6406
41.446
3.9936
4.44445
5.97753
1.02754
1.27102
30.0798
9.03233
1.26326
13.4677
4.63977
2.15479
105.607
16.1281
60.4131
30.9235
34.9263
1.90567
0.183182
0.888083
61.3147
46.6457
18.3375
12.3872
13.4823
49.8456
1.33464
97.3479
9.34878
1.83652
0.334957
7.6349
15.7983
5.65405
15.6668
8.33405
34.5114
41.1853
24.2488
2.25164
5.82567
14.3329
2.73296
80.3741
26.8946
77.0276
18.8262
1.86735
85.1085
45.6257
51.8934
0.319158
4.08321
13.0987
2.23778
59.4999
0.184108
0.408297
46.4371
6.01859
51.1348
37.0537
12.9031
10.3486
8.24488
12.5395
2.41682
16.4523
11.8628
20.3111
1.13863
0.764417
3.48023
0.925861
12.4442
49.2826
1.65328
1.61944
1.11082
0.304162
0.462666
15.754
0.514549
69.057
52.4477
13.3359
4.3347
5.80212
1.90644
2.89707
1.37864
0.536793
5.3924
0.483649
70.9044
5.8959
29.4972
1.27801
7.14876
3.02821
1.02341
123.852
0.657382
0.590862
1.26501
5.07147
2.90842
0.394363
0.56368
35.8894
0.991931
4.20592
1.37876
0.548654
2.27273
30.2596
9.90832
4.69588
3.02282
0.492281
7.37937
0.59226
60.7334
0.830796
10.2482
5.02323
0.265896
20.1608
37.3124
8.32112
13.7278
1.25421
4.32587
2.2193
28.3941
0.217789
6.71532
22.8149
17.4141
45.729
0.550501
160.061
6.11077
44.3622
82.4657
12.0946
3.36109
1.44189
19.1342
8.34007
53.9184
0.486028
33.7621
0.217276
45.3188
0.199309
0.891979
18.6541
7.16841
12.6071
8.2484
56.6475
0.834469
50.0897
41.4809
34.1384
41.5243
4.8387
1.05524
2.83133
64.8867
17.6139
11.8985
11.8842
78.2524
20.5645
93.5009
22.5779
28.8226
23.8318
5.06155
44.1346
18.1405
2.60375
50.7802
136.418
2.60119
42.7913
76.3385
)
;

boundaryField
{
    frontAndBack
    {
        type            empty;
    }
    wallOuter
    {
        lowReCorrection 0;
        type            epsilonWallFunction;
        value           nonuniform List<scalar> 
90
(
28.132
25.1483
23.8909
26.2642
29.9591
28.3426
28.1372
40.1614
22.2178
28.6584
31.3768
42.7465
29.764
37.741
33.1741
81.6607
31.1955
37.1385
40.4819
46.6153
35.1055
27.8212
31.871
35.3017
34.6965
59.5391
53.3948
34.6508
36.4525
20.6683
17.0101
18.7179
22.5386
15.5122
14.2269
12.8203
1.43727
1.85807
30.4804
10.5722
1.54444
7.12852
64.3289
0.933601
1.81248
3.90569
0.174412
36.3285
1.04154
43.7384
55.0108
25.895
30.6634
39.9783
31.41
1.59725
1.18526
29.3905
55.57
17.9327
43.4381
0.664875
0.357904
78.838
45.0969
59.2291
78.398
0.565529
103.938
0.241921
46.0116
0.488483
111.62
0.236648
96.4155
106.505
28.4255
30.6543
0.456546
63.1039
35.2557
91.4778
0.456236
30.9235
24.2488
0.304162
123.852
0.657382
35.8894
20.1608
)
;
    }
    inlet
    {
        type            fixedValue;
        value           uniform 14.855;
    }
    outlet
    {
        type            zeroGradient;
    }
    wallInner
    {
        lowReCorrection 0;
        type            epsilonWallFunction;
        value           nonuniform List<scalar> 
138
(
2.17166
1.56303
30.7243
3.13141
1.66071
7.67326
77.5093
27.5991
1.9249
1.14082
28.2674
48.4654
0.380362
3.56757
1.10023
3.19962
3.51151
1.62088
0.75914
73.0062
145.34
36.1932
0.620309
30.7019
33.8811
38.092
28.7125
40.3691
31.6834
34.8014
32.2584
0.796032
0.565451
0.178219
0.443539
0.322885
1.43104
2.81638
2.36577
0.964611
0.847058
1.82932
2.4863
0.666195
1.38304
0.956789
0.558003
0.829663
0.847986
1.00779
0.205679
0.499689
0.687606
0.845804
1.67184
3.51904
1.08371
0.189684
2.42701
0.771486
0.761034
0.84207
0.762625
1.14194
0.739108
0.174322
0.664637
11.4204
42.3262
7.45756
129.818
1.33951
1.9204
1.98011
45.3679
0.925254
47.7915
0.646671
0.836792
1.3275
1.00288
95.8152
129.525
98.233
80.8734
113.024
2.72352
0.672791
31.4862
32.2654
0.557071
0.393049
0.689839
0.470707
0.990938
1.22555
0.293336
0.501745
0.69003
13.0156
51.3237
6.44317
7.6104
2.26133
35.6029
1.41169
2.3143
30.512
0.538572
0.451853
1.00161
42.9924
1.68105
1.16643
0.803396
31.6715
49.1554
2.05109
76.1766
87.8491
0.50516
1.63824
69.8368
1.68345
0.74008
4.4329
59.3012
1.57267
0.578573
2.89719
1.31869
11.8842
44.1346
18.1405
2.60375
136.418
2.60119
76.3385
)
;
    }
    procBoundary0to1
    {
        type            processor;
        value           nonuniform List<scalar> 
29
(
1.78408
2.79893
3.71954
3.71954
43.5655
43.5655
124.313
19.1644
79.5662
9.10449
16.4307
54.179
4.25608
1.99733
69.877
26.6595
56.1328
68.6536
5.5943
2.77615
11.352
6.21468
60.2048
10.44
10.5231
68.6536
8.26518
65.9819
10.44
)
;
    }
    procBoundary0to2
    {
        type            processor;
        value           nonuniform List<scalar> 
42
(
18.9274
11.3157
1.57683
1.45798
0.154966
18.9274
1.57683
1.42732
0.154072
0.194983
0.29753
0.700361
0.29753
1.26831
2.21161
20.6944
2.21161
0.200305
0.173275
2.73816
2.73816
0.200305
0.172907
5.4614
5.4614
0.192129
14.1703
0.220268
19.4523
8.28045
8.28045
0.249735
0.2448
0.215343
0.207275
1.57683
5.21361
1.91103
19.4523
1.42732
0.738803
0.345866
)
;
    }
}


// ************************************************************************* //
