/*--------------------------------*- C++ -*----------------------------------*\
| =========                 |                                                 |
| \\      /  F ield         | OpenFOAM: The Open Source CFD Toolbox           |
|  \\    /   O peration     | Version:  v1912                                 |
|   \\  /    A nd           | Website:  www.openfoam.com                      |
|    \\/     M anipulation  |                                                 |
\*---------------------------------------------------------------------------*/
FoamFile
{
    version     2.0;
    format      ascii;
    class       volScalarField;
    location    "0.96";
    object      nut;
}
// * * * * * * * * * * * * * * * * * * * * * * * * * * * * * * * * * * * * * //

dimensions      [0 2 -1 0 0 0 0];


internalField   nonuniform List<scalar> 
1431
(
0.000573183
0.00415194
0.00226426
0.00150806
0.000606594
0.00160962
0.00134517
0.000786257
0.00755757
0.0064085
0.00128993
0.000513232
0.000672182
0.00132856
0.00553156
0.000695907
0.00493854
0.00100222
0.000215671
0.00116207
0.00052916
0.00692716
0.0030007
0.00142753
0.001434
0.00101027
0.00138447
0.00123731
0.00100899
0.00121777
0.00148148
0.000726672
0.00194271
0.000586008
0.000458314
0.00197399
0.000804633
0.00085808
0.00200431
0.000856927
0.00236415
0.000659825
0.000804998
0.000625887
0.00364406
0.000683682
0.00234241
0.000811824
0.000893071
0.000869048
0.00115052
0.00462952
0.00533516
0.00144769
0.00092514
0.000771918
0.00246766
0.00279769
0.000994937
0.0004546
0.00327989
0.000956106
0.00228401
0.000783001
0.000904268
0.00108515
0.00233101
0.00115663
0.00349756
0.000750234
0.000529657
0.000414033
0.00096877
0.00165531
0.00163123
0.00117301
0.000759008
0.00296336
0.000784417
0.00206104
0.000805547
0.00109795
0.000432039
0.00282068
0.00200818
0.000702753
0.000964527
0.000793444
0.00153458
0.00114701
0.001229
0.00102146
0.000932166
0.000861525
0.00107838
0.000745399
0.00152996
0.000728655
0.00101
0.00111769
0.00439111
0.000805484
0.001239
0.000806033
0.0011337
0.000865325
0.000785544
0.00299424
0.00210558
0.00066828
0.00232768
0.0013404
0.000755304
0.000999005
0.00115994
0.000785894
0.000952289
0.00606797
0.00165214
0.00279253
0.00085895
0.00428052
0.00394229
0.00138479
0.000831187
0.00145491
0.00178741
0.00109802
0.000844406
0.000809454
0.00133888
0.00283757
0.00101147
0.00101612
0.000878839
0.00111285
0.00107301
0.00150594
0.00102987
0.00279361
0.00659336
0.000951712
0.000769678
0.000952928
0.00111714
0.000775358
0.00073353
0.00309958
0.00118256
0.000807483
0.000818952
0.000956011
0.00183605
0.000169486
0.000453017
0.000957881
0.000802999
0.000910769
0.000756141
0.000709439
0.00101152
0.00151104
0.00130159
0.00114374
0.000998417
0.00282242
0.000745861
0.000863041
0.00118496
0.00101471
0.00107866
0.00129457
0.00137613
0.00076889
0.000771455
0.00034099
0.000416556
0.000875444
0.00125504
0.00071177
0.000839366
0.00517077
0.000754189
0.00103709
0.000773155
0.000815499
0.000753047
0.001146
0.000874019
0.000799366
0.00142144
0.00440847
0.00076125
0.000790286
0.00841332
0.000845698
0.000784964
0.000841415
0.000510402
0.000355705
0.000279047
0.000661337
0.000755431
0.00229603
0.000785835
0.00172887
0.000723525
0.000834257
0.00163964
0.000878823
0.00078949
0.000782825
0.00165135
0.000831643
0.000895556
0.00110035
0.000756955
0.00125052
0.00192773
0.000833728
0.000830296
0.00214367
0.000777043
0.00212603
0.000825614
0.000875067
0.000979973
0.000944538
0.000831602
0.00161689
0.000759741
0.00119989
0.000746927
0.000796581
0.000790227
0.000783482
0.000736522
0.000905196
0.00082684
0.00182746
0.000842012
0.00072583
0.00810757
0.00345876
0.000955553
0.000916466
0.000830314
0.000694804
0.000932154
0.000979243
0.000723715
0.00801678
0.00656539
0.00114791
0.002558
0.00109305
0.000304158
0.00169851
0.00112855
0.00110241
0.00108125
0.00091491
0.0010494
0.00664371
0.000789852
0.000811089
0.0010294
0.000746401
0.000985902
0.00737996
0.000744688
0.000949446
0.00072656
0.000726521
0.00107055
0.000764894
0.00128411
0.00125969
0.00138316
0.00617464
0.00667361
0.00199732
0.0025934
0.00101162
0.00102636
0.00123245
0.000721491
0.000754715
0.000910538
0.000832526
0.000776437
0.000868801
0.000747695
0.00131936
0.000732483
0.000745181
0.000795526
0.000768055
0.00201871
0.000704711
0.000844085
0.00102194
0.000749736
0.000741968
0.000871936
0.0025703
0.000828559
0.00110037
0.00111053
0.000758725
0.000836124
0.00078362
0.00316974
0.000991644
0.000408955
0.0029405
0.00601729
0.00210429
0.000795142
0.00146178
0.00233553
0.00107478
0.00514567
0.00210524
0.00623905
0.00259041
0.000806664
0.00379034
0.00177501
0.000830956
0.0036577
0.0011833
0.00183108
0.00139677
0.000786148
0.0082558
0.00108316
0.00103402
0.00107051
0.000853636
0.00027359
0.000822534
0.00399565
0.00093543
0.00180686
0.000234383
0.000826193
0.000181001
0.000264494
0.000243134
0.000498304
0.000371717
0.000451761
0.000353461
0.000273907
0.000541795
0.000414735
0.00024464
0.0003856
0.000228053
0.000299416
0.000368324
0.000338668
0.000325038
0.000259806
0.000259753
0.000312976
0.00030936
0.00284997
0.00281193
0.0035759
0.00164489
0.00154169
0.000763045
0.00122833
0.00160866
0.00465664
0.000842034
0.000848847
0.000451745
0.000399708
0.000355899
0.000256555
0.000438131
0.000380492
0.00032508
0.00031462
0.000253512
0.000371447
0.000296936
0.00018345
0.00277989
0.000892839
0.000848692
0.00249803
0.00157853
0.00104292
0.000834641
0.00510398
0.000771996
0.000242449
0.00454075
0.000832685
0.00106981
0.00383914
0.000789274
0.00198552
0.000725635
0.000647225
0.00357779
0.00083089
0.000553009
0.00148987
0.0021504
0.00102514
0.00103593
0.00539052
0.00724739
0.00135806
0.000927734
0.00213953
0.00226278
0.00641768
0.00153269
0.0015654
0.00564661
0.00207368
0.00463632
0.00608496
0.00541272
0.00533776
0.00133276
0.000549646
0.0027697
0.00217822
0.00596316
0.00295847
0.00278875
0.00114675
0.00215788
0.00147828
0.00133245
0.0022294
0.00180622
0.000341782
0.00338506
0.00449872
0.00109018
0.000382612
0.00427241
0.00338783
0.00575543
0.00410303
0.0065312
0.00265468
0.00637318
0.00559471
0.00502493
0.00604464
0.00220166
0.00299772
0.000332398
0.00206421
0.00179258
0.0020642
0.00171218
0.000609583
0.00294617
0.00145621
0.00163578
0.00260448
0.000976919
0.000742249
0.00108002
0.00115001
0.00115815
0.00262512
0.00257189
0.00401056
0.000264963
0.00164219
0.000983257
0.00108979
0.000800141
0.000833248
0.000932205
0.00167198
0.00579584
0.00408192
0.000261226
0.000289131
0.000308805
0.00107692
0.00311021
0.000281115
0.000994524
0.00126735
0.00110194
0.000837181
0.0010117
0.00165345
0.00151753
0.0050482
0.00619871
0.00460313
0.00060276
0.000935018
0.00613286
0.00176994
0.00129899
0.00120051
0.00074551
0.000743826
0.00239873
0.000792404
0.00199829
0.00345614
0.00139436
0.00167673
0.00168883
0.000556247
0.000962202
0.000763403
0.000592286
0.00112176
0.00349704
0.00390832
0.00309648
0.000796588
0.00172628
0.000815681
0.000742918
0.00113618
0.000721206
0.00487652
0.00287542
0.00757094
0.00173559
0.00303731
0.0022027
0.00629123
0.00362222
0.00512691
0.00207951
0.00042961
0.0063326
0.00298426
0.000795975
0.00555975
0.000979253
0.0010274
0.000454732
0.00107761
0.0038287
0.00204004
0.00367885
0.00879391
0.00519246
0.00103859
0.000757951
0.00333519
0.00185824
0.00889789
0.00420312
0.00249069
0.000781223
0.00254614
0.000739871
0.00271765
0.00413202
0.000285894
0.00576218
0.00255447
0.00604209
0.00291252
0.00088338
0.0022907
0.00121862
0.00286737
0.000998935
0.00101109
0.000797965
0.00330256
0.0062633
0.00085911
0.00181802
0.0043392
0.000788801
0.00112175
0.000796904
0.00230765
0.00295643
0.000848188
0.000778826
0.000768808
0.00192058
0.000643794
0.00131861
0.000738644
0.000199263
0.00472643
0.00423205
0.000833325
0.0032259
0.00544031
0.005426
0.0015938
0.000986549
0.00663721
0.00206863
0.00170699
0.00376294
0.00105747
0.00541678
0.0019251
0.000743868
0.00282549
0.00418383
0.00723088
0.00523458
0.000726961
0.00195148
0.00100116
0.00118211
0.00100818
0.000934994
0.00081399
0.000701544
0.00373939
0.000804568
0.00645329
0.000993714
0.000389032
0.000805396
0.00211255
0.00459939
0.000835457
0.000731894
0.00108437
0.00100502
0.00347692
0.0071188
0.000806518
0.00442693
0.000730102
0.00769972
0.00367177
0.00645121
0.00531623
0.00103718
0.00142607
0.00264339
0.000765403
0.00112842
0.00698435
0.00422347
0.000820444
0.0008411
0.0016207
0.00443939
0.00681169
0.000835416
0.0010265
0.00115993
0.000827582
0.000218906
0.000848104
0.00659407
0.00484067
0.00302126
0.000725485
0.000821993
0.00101862
0.0069147
0.000804409
0.000762334
0.0013187
0.00098876
0.0012059
0.00104142
0.00538776
0.000519614
0.00127951
0.00153343
0.00123839
0.00167257
0.00159183
0.0076754
0.00425645
0.00111263
0.00195049
0.00737094
0.0060554
0.00106933
0.00312018
0.000936054
0.00034973
0.000229978
0.000824493
0.000720778
0.00575868
0.00106401
0.00076262
0.00110604
0.000783862
0.00135997
0.00111719
0.00520553
0.000850315
0.00240429
0.00118107
0.00059084
0.00073668
0.00679183
0.0066846
0.000635502
0.00499494
0.00893874
0.000713538
0.000973708
0.000644478
0.000838903
0.000803538
0.00369137
0.00108155
0.000626311
0.00709325
0.00798466
0.000686611
0.000294173
0.00166709
0.000352695
0.000702996
0.000719347
0.00444716
0.000765251
0.000897529
0.000710028
0.00476296
0.00096075
0.00752356
0.00789718
0.000691179
0.00072673
0.00078527
0.000663514
0.000749044
0.000863699
0.00120737
0.000811231
0.00664713
0.000753892
0.000739344
0.000761121
0.00112955
0.00113
0.000845058
0.00084144
0.000872581
0.00194431
0.00113525
0.00119965
0.00171316
0.00191464
0.000853453
0.00323067
0.000501376
0.00189191
0.0007936
0.000753847
0.00119503
0.00336406
0.000585207
0.000626416
0.000693211
0.000776865
0.000915786
0.00282258
0.00196151
0.00117639
0.00078514
0.000445021
0.000769062
0.00572577
0.000919809
0.00370052
0.000535274
0.000646926
0.00149364
0.00213391
0.00131568
0.000770959
0.000879295
0.000936635
0.000847844
0.000834497
0.000671018
0.000687586
0.0042628
0.000807405
0.00231876
0.00799375
0.000709448
0.000969394
0.000379406
0.00215804
0.0021052
0.00102336
0.00312573
0.000761981
0.000828753
0.000809182
0.00519507
0.000702786
0.00174754
0.0008338
0.000673731
0.000597343
0.000538643
0.000648961
0.000837383
0.000732225
0.000773885
0.00392805
0.000763253
0.000776531
0.000975321
0.0084365
0.0010636
0.00079216
0.000473123
0.000437396
0.0005689
0.000890891
0.000585296
0.00105191
0.00159549
0.00112468
0.000271513
0.00174231
0.000777972
0.000723832
0.000731664
0.000663798
0.00229585
0.00070982
0.000836681
0.00287091
0.00331877
0.000819367
0.00491075
0.00326631
0.0019443
0.000246578
0.00176207
0.000815364
0.00373346
0.0048819
0.000837718
0.00086648
0.000805814
0.00104037
0.00116254
0.00111913
0.00171199
0.000729719
0.000803027
0.000761359
0.000816683
0.000708208
0.000784627
0.0020059
0.000899347
0.00477778
0.000507078
0.000777675
0.00115735
0.000812399
0.00119633
0.000817912
0.000931279
0.00104905
0.00122087
0.00067946
0.000745899
0.000582903
0.000881504
0.00294279
0.0038938
0.000708716
0.000876496
0.00311316
0.00175931
0.000825218
0.000935535
0.00304652
0.000524094
0.000713676
0.00125614
0.000895851
0.00108946
0.00106023
0.00480237
0.00339554
0.000955066
0.000955364
0.000845037
0.00114135
0.000564173
0.000251542
0.00103239
0.00080538
0.00585102
0.00107494
0.00507677
0.00590351
0.00347585
0.000863489
0.00141888
0.000913967
0.00144334
0.000783551
0.00096071
0.000813941
0.000794128
0.00106228
0.000850236
0.000729969
0.00711549
0.000693559
0.00888988
0.000747679
0.00123167
0.000610861
0.000594808
0.000606094
0.000622117
0.000570887
0.000526925
0.0031117
0.000414614
0.000340513
0.000818982
0.000465386
0.000650079
0.000343483
0.00242469
0.000727241
0.00105665
0.000212705
0.00681883
0.000322033
0.000731426
0.00256359
0.00377639
0.00114542
0.000404182
0.000976948
0.00259641
0.00106398
0.00519505
0.00741104
0.00144512
0.00107656
0.00380939
0.000223244
0.000364647
0.000893549
0.000216164
0.00307846
0.00524072
0.00483228
0.00334511
0.000967192
0.00635356
0.00562412
0.000815888
0.000230794
0.000306576
0.00160345
0.00514094
0.000780867
0.00199985
0.00253729
0.00306329
0.000757531
0.000365786
0.00311058
0.000122945
0.00105409
0.00030908
0.000823481
0.00189117
0.0038688
0.000830208
0.00115398
0.00933752
0.000896877
0.00231732
0.000644684
0.000964976
0.00100934
0.00081021
0.00103051
0.000888581
0.00077648
0.00162709
0.00486098
0.00084599
0.00136356
0.00627152
0.00688849
0.000812335
0.00072723
0.000984428
0.00296512
0.00237911
0.00478637
0.00106563
0.0070774
0.00625547
0.00351094
0.00210544
0.00257692
0.0010756
0.00120924
0.00237861
0.00110638
0.00067255
0.00260967
0.00561364
0.00691146
0.00259599
0.00279941
0.000631296
0.00650884
0.00270702
0.000837488
0.00135377
0.00149964
0.00127152
0.00063649
0.00069167
0.000602943
0.00150238
0.00173461
0.00304521
0.00708865
0.00075097
0.00655615
0.00140829
0.000624196
0.00729343
0.00489247
0.00087492
0.000651709
0.000988129
0.000786493
0.000295914
0.000748833
0.00157711
0.00515261
0.000846344
0.000779652
0.000777266
0.00114487
0.001371
0.000777086
0.000840483
0.00718882
0.00100492
0.000797562
0.000820373
0.00208383
0.000821018
0.00118161
0.000283983
0.000779981
0.000791338
0.000802733
0.000312944
0.000615106
0.00110869
0.000614561
0.000746304
0.000343845
0.00103373
0.00103779
0.000794893
0.00832304
0.00122763
0.000743931
0.00111708
0.000767667
0.000534304
0.000174156
0.000881287
0.000833552
0.000853391
0.00243357
0.00195288
0.000172535
0.00135076
0.000883477
0.000460062
0.000865039
0.00644765
0.000757638
0.000849441
0.000809218
0.000464589
0.00673324
0.00130781
0.000699214
0.00156695
0.000907605
0.00433353
0.000658796
0.00106854
0.000800152
0.000728194
0.00103269
0.000790613
0.000186318
0.000911539
0.000140135
0.00125337
0.0013426
0.00152956
0.00098365
0.000788493
0.00026021
0.000646497
0.00958046
0.000435734
0.00118173
0.00226391
0.00103949
0.000837887
0.000450797
0.000525119
0.00109464
0.00919913
0.00713489
0.00140444
0.000799601
0.000813054
0.000389655
0.00172619
0.000821848
0.00299241
0.000563447
0.000498646
0.0077195
0.000991642
0.00107856
0.0058772
0.00115241
0.000515304
0.000835399
0.0013471
0.000150967
0.000497396
0.0006525
0.00717074
0.00158974
0.000771478
0.000487174
0.000480801
0.000137269
0.000840554
0.00159526
0.00791032
0.000802832
0.000838669
0.000839723
0.000786718
0.000254775
0.00047082
0.00429403
0.00061975
0.00323878
0.000745628
0.000841918
0.00356745
0.000827544
0.00312144
0.00897734
0.000592072
0.000566034
0.00109613
0.00220855
0.000870463
0.000188309
0.00546117
0.00750012
0.000869301
0.0056037
0.00110798
0.000739077
0.0073954
0.0025387
0.00239429
0.00109798
0.00734123
0.000881559
0.000851416
0.00115931
0.00640191
0.000842443
0.000819739
0.00161285
0.007141
0.00135473
0.00109901
0.000837927
0.00275255
0.00182657
0.0018141
0.00158712
0.00144184
0.00711448
0.000473714
0.000319128
0.00487802
0.000745105
0.00161801
0.000741365
0.000772876
0.000844381
0.000906412
0.00202939
0.000588184
0.000902097
0.00015714
0.00596287
0.00107508
0.000864638
0.00180952
0.000627431
0.00103813
0.00313226
0.00158048
0.000890529
0.000809527
0.00632614
0.000978763
0.000466753
0.00288493
0.000728179
0.000981833
0.000960244
0.000790789
0.00103925
0.00320303
0.00567894
0.00213672
0.000622057
0.00691472
0.000983459
0.0012658
0.00148717
0.00369303
0.0053165
0.000769584
0.000844148
0.00556485
0.00238645
0.000925151
0.00572424
0.00542008
0.00134333
0.000532417
0.00082843
0.00137115
0.000814315
0.000875177
0.000991063
0.000839079
0.00101136
0.000643552
0.00297955
0.00081869
0.000961537
0.00236631
0.00267635
0.00661033
0.00874782
0.00705892
0.00110512
0.0027459
0.00116816
0.00475209
0.000989864
0.000819878
0.000845889
0.00100316
0.00583813
0.00121392
0.000712026
0.00762438
0.000784812
0.005082
0.00754934
0.00700649
0.00470551
0.00668615
0.000774626
0.00253737
0.0069735
0.000845318
0.000782898
0.000423548
0.00247836
0.00359528
0.000583999
0.0059529
0.00843482
0.000728172
0.00131836
0.000701903
0.000155003
0.0014298
0.00706861
0.00134529
0.00244255
0.00103942
0.00085494
0.00595723
0.00142958
0.00129956
0.00272759
0.000823987
0.00128587
0.000758319
0.00109204
0.00196376
0.00081828
0.00115434
0.000807706
0.000726866
0.0036994
0.00115183
0.000802456
0.000170308
0.0011653
0.00118515
0.000801544
0.00130846
0.00104984
0.00110169
0.000683373
0.00118451
0.00434969
0.00111578
0.00138004
0.000956019
0.00085673
0.000803929
0.00351521
0.00144057
0.00151765
0.000724225
0.00202371
0.0029798
0.00134393
0.000794936
0.00075257
0.000913635
0.000696424
0.00094605
0.000782454
0.00166463
0.00103443
0.00419592
0.000910969
0.00633132
0.00110274
0.000796159
0.00723051
0.00139523
0.00204262
0.00180467
0.00278898
0.000811292
0.00102668
0.00186159
0.000842945
0.00276997
0.000800015
0.00121462
0.000968057
0.00134644
0.00105892
0.00694111
0.00118513
0.00118095
0.00125597
0.000457264
0.00139341
0.000868502
0.000837272
0.000831968
0.00133708
0.00245641
0.00157842
0.000877251
0.000909957
0.000913052
0.000792319
0.00126531
0.00517002
0.00891616
0.00720697
0.000741051
0.000668828
0.00945471
0.00725743
0.00912417
0.00712557
0.00599209
0.000802603
0.000758813
0.0011506
0.000743864
0.00062459
0.000962234
0.00164697
0.000567101
0.000867575
0.00118632
)
;

boundaryField
{
    frontAndBack
    {
        type            empty;
    }
    wallOuter
    {
        type            nutkWallFunction;
        Cmu             0.09;
        kappa           0.41;
        E               9.8;
        value           nonuniform List<scalar> 
90
(
8.37938e-05
7.67484e-05
7.78056e-05
7.56642e-05
8.2743e-05
8.4659e-05
8.65639e-05
9.41836e-05
8.00419e-05
8.88848e-05
9.1403e-05
9.5141e-05
9.05632e-05
9.32166e-05
9.23186e-05
0.000104929
9.97484e-05
8.12395e-05
7.22351e-05
6.52248e-05
7.83329e-05
0.000100158
8.80551e-05
9.2874e-05
8.00752e-05
0.000113504
0.000113521
8.77937e-05
8.35459e-05
7.38024e-05
7.19036e-05
7.32396e-05
7.51328e-05
6.90621e-05
6.37986e-05
5.63409e-05
2.38831e-05
3.8216e-05
8.79256e-05
4.88044e-05
2.54152e-05
4.38592e-05
0.000106523
2.41419e-05
2.64784e-05
3.64561e-05
1.14905e-05
0.000124548
3.6303e-05
0.000106927
0.000116796
8.10637e-05
7.54142e-05
9.35233e-05
9.81734e-05
3.69814e-05
4.07889e-05
0.000122275
0.000122756
8.94116e-05
6.4703e-05
1.83339e-05
1.8395e-05
0.000105384
9.69334e-05
8.42091e-05
0.00010814
2.04942e-05
0.000108563
1.35211e-05
6.2406e-05
1.5427e-05
9.25884e-05
1.34986e-05
9.61753e-05
7.4885e-05
7.16087e-05
0.000103929
2.07291e-05
0.000103775
5.73657e-05
0.000107495
1.64783e-05
7.51616e-05
7.76599e-05
1.59206e-05
9.61337e-05
1.79495e-05
8.23674e-05
8.38912e-05
)
;
    }
    inlet
    {
        type            calculated;
        value           uniform 0.000851986;
    }
    outlet
    {
        type            calculated;
        value           nonuniform 0();
    }
    wallInner
    {
        type            nutkWallFunction;
        Cmu             0.09;
        kappa           0.41;
        E               9.8;
        value           nonuniform List<scalar> 
138
(
6.20003e-05
2.49725e-05
0.000220134
7.02296e-05
5.5251e-05
7.93533e-05
0.000260236
0.000136371
6.36403e-05
4.99312e-05
0.000137784
0.000119833
1.82535e-05
5.45573e-05
4.01209e-05
5.03695e-05
6.11867e-05
4.21915e-05
3.26627e-05
7.97852e-05
0.00023912
0.000128923
3.61017e-05
0.000132854
0.000129961
0.000127613
0.000121839
0.000126424
0.000121499
0.000129735
0.00013086
3.18559e-05
2.71892e-05
1.98193e-05
3.02326e-05
2.88346e-05
6.03325e-05
4.47639e-05
5.45503e-05
4.22715e-05
3.23731e-05
6.56062e-05
5.00671e-05
2.85707e-05
4.62152e-05
2.63387e-05
3.55476e-05
4.45802e-05
4.04248e-05
3.83275e-05
2.98846e-05
3.01131e-05
3.7194e-05
3.71387e-05
5.42342e-05
4.83083e-05
4.2624e-05
3.04406e-05
5.29096e-05
4.62171e-05
3.87149e-05
3.77805e-05
2.97375e-05
4.44773e-05
3.45542e-05
2.02749e-05
2.82238e-05
6.68301e-05
0.000122575
6.63889e-05
0.000155398
4.09571e-05
4.60156e-05
4.02286e-05
0.000127483
3.12909e-05
0.000128567
3.0373e-05
3.39792e-05
3.69968e-05
3.33064e-05
0.000148045
0.000175077
0.000151717
0.00014091
0.000161836
5.20443e-05
5.50714e-05
0.000127208
0.000122864
3.36046e-05
2.23832e-05
4.64988e-05
2.50751e-05
6.30291e-05
4.15793e-05
2.63413e-05
3.49416e-05
4.1994e-05
8.32798e-05
0.000133931
6.05692e-05
8.33002e-05
5.39747e-05
0.000111439
4.53579e-05
5.71452e-05
0.000132426
3.20512e-05
2.92601e-05
2.99194e-05
0.000125504
4.97403e-05
4.06928e-05
4.11177e-05
0.000114854
9.09748e-05
4.36479e-05
0.000114703
0.000119555
3.51993e-05
3.30923e-05
9.35722e-05
5.58411e-05
3.10734e-05
5.266e-05
9.73671e-05
4.65461e-05
3.03399e-05
5.69994e-05
3.74841e-05
8.06647e-05
0.0001353
8.94053e-05
7.52657e-05
0.000188926
6.86076e-05
0.000139502
)
;
    }
    procBoundary0to1
    {
        type            processor;
        value           nonuniform List<scalar> 
29
(
0.00111008
0.00196303
0.00197028
0.00197028
0.00511832
0.00511832
0.00295486
0.00130138
0.00190188
0.00244006
0.00174065
0.00193769
0.000777559
0.000601792
0.00229024
0.0013058
0.00789168
0.00580772
0.00280731
0.00186922
0.000876427
0.000733039
0.00319032
0.000742449
0.00072875
0.00580772
0.000728766
0.00091642
0.000742449
)
;
    }
    procBoundary0to2
    {
        type            processor;
        value           nonuniform List<scalar> 
42
(
0.00659737
0.00672656
0.00102661
0.000869284
0.000917343
0.00659737
0.00102661
0.00105432
0.000959744
0.00079644
0.000899959
0.00158535
0.000899959
0.00280441
0.00438849
0.00561748
0.00438849
0.000676334
0.000919273
0.00138512
0.00138512
0.000676334
0.00065957
0.00088551
0.00088551
0.000605483
0.00192664
0.000645722
0.00335372
0.00662101
0.00662101
0.000701656
0.000740903
0.000737268
0.000676151
0.00102661
0.00613578
0.000360077
0.00335372
0.00105432
0.000787393
0.000646701
)
;
    }
}


// ************************************************************************* //
