/*--------------------------------*- C++ -*----------------------------------*\
| =========                 |                                                 |
| \\      /  F ield         | OpenFOAM: The Open Source CFD Toolbox           |
|  \\    /   O peration     | Version:  v1912                                 |
|   \\  /    A nd           | Website:  www.openfoam.com                      |
|    \\/     M anipulation  |                                                 |
\*---------------------------------------------------------------------------*/
FoamFile
{
    version     2.0;
    format      ascii;
    class       volScalarField;
    location    "0.88";
    object      p;
}
// * * * * * * * * * * * * * * * * * * * * * * * * * * * * * * * * * * * * * //

dimensions      [0 2 -2 0 0 0 0];


internalField   nonuniform List<scalar> 
1466
(
92.6122
90.497
92.3091
92.7992
91.7527
89.3034
92.8282
91.7071
91.9711
93.2004
91.8956
93.1289
92.9553
92.8445
92.6521
92.8628
92.4648
92.6016
91.7297
92.8228
92.6099
92.8466
93.2415
90.9399
92.8669
92.0678
91.9898
93.1464
92.8151
91.7585
91.5678
88.7352
92.8216
91.6696
92.5781
92.6091
92.6952
92.7341
91.6639
92.8146
93.1454
93.0429
92.0473
91.5842
93.1808
92.004
92.7528
92.6251
93.0443
92.6687
92.2448
93.2079
91.8146
89.3215
92.8342
93.0965
92.6498
92.9731
93.0267
93.089
92.8612
91.7397
91.684
88.9293
90.502
92.8357
93.1023
92.5605
92.6104
92.8737
92.1137
92.7443
92.7702
92.8456
92.7794
93.2114
92.8189
92.6376
92.8173
93.0754
92.2149
92.8527
92.5475
93.0518
92.8362
92.7803
92.8691
90.4575
92.8315
92.4511
92.8619
92.7332
93.0403
92.6832
92.2416
92.6871
90.3543
93.0606
91.8923
92.875
92.8232
93.1369
92.3624
89.8557
92.6026
91.8707
92.5316
92.5398
92.0761
92.8708
93.0197
92.9205
90.7022
92.7785
92.9449
90.8291
92.773
92.8249
92.3449
92.9593
92.572
92.5677
92.7045
90.4943
92.8012
93.0279
92.9087
91.0534
93.037
92.5091
93.0454
92.7714
92.5207
93.1056
92.1846
93.0599
93.0578
92.8872
93.216
92.7204
93.1768
92.6736
93.0281
92.9922
93.1991
92.8536
90.5531
92.1146
93.1031
92.8009
93.0336
92.9217
92.5127
90.3342
92.8703
91.8708
92.6704
90.7986
93.0094
92.2924
93.1566
92.8724
90.7133
92.6259
93.1146
93.0451
92.3971
92.5318
92.8257
92.0434
92.7987
92.818
92.905
93.0879
92.03
90.4151
93.0879
93.0663
92.7421
93.0523
92.6085
92.5889
93.052
92.8199
90.4841
92.8325
92.5083
91.1708
92.5486
89.2246
89.9556
92.7496
92.8405
90.6338
92.654
92.7075
93.2311
92.8892
92.8093
92.8264
90.6979
92.9654
92.5611
92.8271
92.9125
93.0637
92.5378
91.8508
92.6801
93.0367
92.9829
90.7701
92.9875
92.854
92.1666
92.5138
92.3562
92.7082
92.8248
92.8253
91.239
92.5679
92.8461
92.7922
93.0678
92.8074
92.8045
92.888
92.587
92.2149
92.8873
90.5442
92.8503
93.0127
92.5851
92.9309
93.0217
91.7274
93.0248
92.8903
92.0802
93.0275
92.7885
93.081
93.0717
92.6062
92.1529
92.6233
92.6837
92.5845
92.8675
92.7935
93.0675
90.4559
92.8245
92.8277
92.7687
92.5008
90.9708
93.2229
92.8699
92.832
92.7969
92.4007
90.6985
92.6883
91.8341
90.6302
92.9468
92.7946
92.8685
92.5817
92.9216
92.7635
92.8177
93.0277
90.4918
92.8128
91.8341
93.0626
92.9289
92.6439
92.5901
92.9151
92.8062
92.9618
92.9898
92.8268
91.5025
92.7899
92.8331
91.6677
92.9827
93.1884
93.0764
92.9606
91.3821
90.6712
92.9925
92.7655
93.0127
90.783
92.9081
92.989
92.8552
92.6348
90.5713
93.0394
92.9425
90.8748
92.0907
92.2511
92.9436
93.1015
93.0626
92.9724
90.6815
92.0599
93.2254
92.9336
92.7675
93.0695
93.0641
92.6551
90.7054
92.6809
92.1818
92.794
92.0363
92.2387
90.883
92.5846
92.1368
92.3529
90.7916
92.5869
92.9426
92.0656
90.8163
92.206
90.853
92.6487
92.7065
92.2531
92.685
92.1602
90.7795
92.8405
93.0175
91.2764
93.0836
92.8938
93.0841
93.0203
93.0295
92.9936
90.737
89.9633
90.9858
92.9629
91.6834
93.0853
93.0521
92.3943
93.077
92.7279
92.2219
92.0919
92.7454
90.8028
92.1729
92.902
90.762
92.561
92.3304
90.8556
92.6842
90.8214
92.8488
93.0164
92.9246
93.097
92.995
92.2278
93.0739
92.9843
92.8453
92.9012
93.0001
93.0223
93.0221
92.6184
93.0455
90.5284
92.9642
92.7442
93.0397
92.1095
92.6472
92.9752
90.8558
92.0704
93.0229
92.9273
93.1846
92.7287
92.9989
91.1381
92.5537
90.7678
92.864
93.0167
93.0066
93.1088
90.7751
93.0171
92.9759
92.8492
93.0159
93.0184
92.8973
93.0264
92.8508
92.8317
92.8467
92.8443
92.8196
92.8348
92.8318
92.8314
90.5871
92.9105
92.984
90.6626
91.3544
90.6174
90.7834
91.5922
92.7866
92.5082
90.8189
93.0163
90.7513
93.0598
92.8191
90.9358
92.261
92.1584
90.645
92.8941
90.6774
91.0956
93.1856
92.9198
90.7758
92.8713
91.9402
91.2704
93.5838
92.9365
90.9211
92.9683
92.9415
92.9218
90.6984
91.0459
90.5647
92.8472
90.588
93.0575
90.6234
93.0373
92.9442
93.244
88.806
91.5491
93.3196
93.1952
91.6509
89.9783
90.6267
92.7364
89.1119
92.6417
91.5607
90.6978
92.5918
92.2212
89.3027
93.2361
91.6334
90.7512
92.5241
92.1866
93.0087
91.7294
89.9458
90.8006
90.8774
90.8153
90.7787
92.4975
93.046
93.0482
92.1501
92.9979
93.2281
92.9853
92.8013
92.9627
92.5155
91.7311
92.6362
92.9766
93.0969
92.8079
90.7728
92.4893
92.9306
92.9456
92.9538
90.6615
90.7932
91.4643
91.8719
93.0212
90.693
90.9886
93.0235
92.1475
92.6984
93.0344
92.928
92.872
93.0246
90.8696
93.1332
90.6192
92.727
93.0186
90.717
90.6405
92.0144
90.6679
92.9087
93.0284
92.2731
90.6401
90.6264
90.7588
92.4844
92.5932
90.5889
93.0166
93.0305
91.6649
90.6332
92.9344
92.9541
92.2805
92.7648
93.0236
93.0287
90.75
93.2066
93.08
92.7187
92.9064
92.847
90.5929
92.6354
91.8331
92.7695
93.1664
92.1672
92.7421
92.7061
92.1157
92.7884
92.7075
93.0327
92.9923
92.9631
93.0179
92.7093
90.8412
91.9137
92.5007
90.5706
92.5417
90.5734
92.8118
93.208
92.3397
90.7514
92.4791
93.0943
93.0423
90.5764
93.0154
90.5919
90.708
92.4998
92.3437
92.0958
92.8466
92.9361
92.8334
90.9424
90.6718
93.0467
91.8329
92.4422
91.2534
92.9069
92.0894
90.7524
92.8455
91.5463
90.5332
92.6351
92.667
92.5523
93.0746
92.5291
92.815
93.0234
92.986
92.5888
90.5576
92.7579
90.6793
92.3076
92.4928
93.079
93.0585
93.0601
90.5798
90.7051
92.5008
92.5353
91.0339
92.6291
92.3726
92.0105
93.116
92.3111
91.5424
91.165
92.5084
93.0375
90.5726
93.0703
91.1303
93.0042
92.726
92.0939
92.9807
92.509
92.2874
92.8701
90.5471
93.1502
92.6377
92.2112
90.5358
92.6875
92.9875
90.5392
93.0637
92.5424
92.7767
93.0135
92.3022
90.6184
92.7391
92.5438
90.5184
92.5984
93.0237
90.5368
92.6541
92.8156
92.3441
93.0295
92.1091
91.7485
92.8588
92.2059
90.7385
92.8705
92.5992
92.5552
93.019
90.7303
92.7196
93.0844
92.9359
93.0451
93.0168
92.7006
92.3803
93.0868
90.9531
93.0234
92.5596
93.0019
90.5772
92.7013
90.6318
92.5624
92.7263
93.2396
90.6316
92.5525
92.6779
93.0938
90.6243
92.6635
91.9183
92.9776
92.9373
92.5107
93.0283
90.8619
92.8561
92.9784
92.909
91.265
93.2119
92.5772
92.5511
93.0251
93.0137
93.006
91.6347
93.0191
92.9994
91.9168
90.7537
92.4455
93.0258
93.0002
92.8739
90.7637
92.9054
93.0688
92.4452
91.3997
93.0996
92.217
93.1719
92.7311
93.0382
93.0153
91.438
90.909
92.4261
92.2847
92.7732
93.112
92.5114
93.0489
90.495
92.7935
92.3187
92.8316
93.143
92.2914
92.2547
92.8996
91.9464
91.7458
92.8536
93.0609
93.0222
92.9052
93.0892
92.9775
91.9231
91.122
91.0748
92.9425
93.0082
93.0518
93.0493
92.553
92.7464
91.6672
92.8156
92.8381
92.7125
90.4814
92.7801
90.5328
92.3285
91.4967
92.7156
92.8713
92.8897
90.7832
92.9927
92.5536
92.262
92.3727
92.074
92.006
92.6627
92.5908
92.8275
91.1265
92.7287
92.5428
91.8644
92.8341
91.896
92.591
92.2598
90.0285
92.0688
90.8117
92.6892
92.8596
93.0044
92.6474
92.636
91.9475
92.893
92.9389
92.2688
92.7256
93.0238
92.7264
91.881
92.6114
92.7623
92.8106
93.0451
92.8067
90.9008
93.0051
92.9632
93.1882
92.5741
93.0086
92.9792
93.0978
93.1019
92.7361
92.9905
91.0802
93.0356
93.0138
91.3314
92.7474
92.1819
92.9977
92.8328
92.0403
93.0813
92.0135
93.0043
90.8293
90.2815
92.5606
90.6647
92.5833
92.5487
92.9474
92.7393
92.5993
92.8256
91.7407
91.5838
92.2213
92.8169
92.8438
90.5401
91.7906
92.8404
92.8337
92.2597
91.7702
92.7705
92.5977
92.1474
90.4233
92.7785
92.8026
91.6224
93.0286
92.7809
92.7706
93.0445
92.5713
91.2273
92.0516
92.0239
91.9588
93.1659
92.5144
92.6011
93.0242
92.9938
92.9257
92.7397
92.7201
92.5922
93.1094
92.3992
92.9035
92.1408
92.5893
92.7875
93.032
92.887
93.1461
92.8607
90.5664
92.9545
90.4572
92.798
92.635
90.8134
91.4533
92.8269
92.5156
93.0046
93.0285
92.05
92.8264
90.4591
93.0379
92.7627
92.7579
91.2642
92.6624
92.7153
92.5686
92.8786
92.875
92.852
92.8623
90.735
90.7882
90.6418
90.6318
92.8738
90.7486
90.9273
92.867
92.8633
92.8649
92.4255
92.8707
92.879
93.1633
92.7275
93.1207
92.6846
91.1565
90.7159
93.0043
92.8987
92.5879
91.7494
91.7948
92.6482
92.2585
92.5519
92.5645
92.9878
92.886
92.2
92.9751
92.6345
92.5157
90.7396
91.438
92.8617
91.6487
92.1611
91.5289
91.8818
92.5442
92.2681
93.161
90.7625
92.6617
92.9554
90.9364
93.1071
92.4474
91.7606
92.1039
92.1575
92.7912
90.6625
92.4056
91.5105
92.2781
92.0519
92.8633
92.5176
93.119
92.8599
92.8546
92.0183
92.9025
92.6724
92.5333
92.6396
92.8257
93.0327
93.0049
93.2267
92.5093
90.7925
93.0237
92.611
92.6252
92.7274
91.9761
92.7695
91.6515
93.1748
92.8256
93.0533
91.7286
90.2218
92.5972
92.4091
91.3671
93.227
92.7968
92.6641
91.4171
92.9439
93.0081
91.8702
93.0801
92.9392
92.877
90.6239
93.0404
92.9674
90.6574
92.926
92.8792
92.5203
90.8044
92.2544
92.0887
91.7999
93.0562
93.0097
90.669
92.1528
93.0162
90.8903
91.293
92.8343
92.7177
92.894
92.6685
90.696
92.6252
90.7383
93.1806
93.1464
93.0171
93.2446
92.5728
90.7818
90.9759
92.9837
93.1936
91.6538
92.3643
91.9699
92.8154
92.8977
93.2125
91.9302
92.4859
93.1616
91.0447
93.1719
92.2552
92.6728
91.7092
92.914
92.8934
90.9274
92.6138
92.878
92.8447
91.9325
93.1099
92.7866
92.856
93.2395
92.845
92.634
92.8842
92.934
92.9007
93.1959
93.2074
92.664
91.9977
92.9534
92.9225
92.5657
92.1101
92.6065
92.8521
90.7656
92.6424
93.2191
92.7155
92.2776
92.8743
92.6591
92.654
92.9294
90.7849
92.1586
93.2804
92.2396
92.9786
90.8382
92.9497
92.7584
92.9515
90.7844
92.9973
92.6506
90.7258
92.0981
92.661
93.0406
93.0095
92.732
92.6096
91.5405
92.9062
91.2214
92.9082
92.6816
92.6122
92.8057
92.6786
92.8993
93.045
92.9688
93.101
93.0011
90.8952
92.6139
92.2663
92.6587
91.4794
93.2597
92.914
92.47
92.6536
92.8602
92.673
92.1721
92.7158
92.6915
91.227
92.6316
92.6189
91.5606
89.1599
91.8123
92.8606
92.9656
92.8137
93.1197
92.5675
92.8587
92.7065
92.9061
92.9743
90.7683
92.5242
90.5991
92.5475
92.9494
92.8927
92.6223
92.7353
90.8302
92.4255
92.6947
92.9113
92.8396
92.972
91.9988
92.0316
92.9102
92.7976
90.4308
92.7391
90.6388
92.0458
91.0713
93.0265
92.814
92.1253
92.1921
90.8616
92.5801
92.9254
92.8256
92.921
92.5984
92.8045
90.095
90.742
92.9609
92.0488
92.7621
92.6806
90.8071
92.2587
92.7328
92.8687
90.6702
92.924
92.5518
92.8208
92.9703
92.2371
91.7501
92.8262
92.2986
92.8194
92.8625
90.8438
90.5965
92.6524
90.7287
92.7451
90.4572
92.2816
92.9662
92.2315
92.0385
93.0139
90.7448
92.8837
92.9057
93.0012
90.8568
92.9163
91.9195
92.8385
93.0185
92.7584
93.0984
92.8749
92.9061
92.6272
92.8389
90.6996
92.8624
92.9267
92.5988
93.1667
92.9111
90.8123
92.0961
91.9025
93.0212
92.6925
92.9178
92.2149
92.2021
92.8017
92.1084
92.6484
90.626
92.8977
92.948
92.5014
92.7606
93.2206
90.8224
92.2681
92.3068
91.1682
91.5109
92.8982
92.9142
92.8556
92.5867
92.623
90.7555
92.9369
92.5794
91.9883
92.8583
92.9543
90.7977
92.9731
93.0097
93.1306
90.5534
92.5582
92.6058
92.9854
92.885
92.4007
90.8186
92.9951
91.0451
92.979
90.7613
92.8578
92.6256
93.1177
92.9692
92.4373
92.8255
93.0162
90.8814
92.5624
90.9847
92.8767
90.7178
92.8427
93.0379
93.0472
92.5387
90.7917
92.8486
91.3622
91.825
92.7529
92.5603
90.8536
92.6555
92.9983
92.1965
92.5791
90.7176
92.8364
92.8574
92.6434
92.5348
90.8414
92.6438
92.9858
92.8117
92.1127
93.0309
92.7957
90.7349
92.8137
92.3351
92.8902
91.5949
92.2159
93.0069
90.6732
92.9094
92.946
90.7051
92.7735
90.6496
92.6615
92.7963
92.9696
92.7974
92.7244
90.536
92.7085
92.8168
93.1141
92.8699
92.8242
92.8883
92.8355
93.1671
92.9659
93.1406
92.6556
90.5191
92.4593
92.2623
92.884
92.9072
92.7767
90.4352
92.8935
92.9824
93.168
93.2458
91.017
92.7816
90.6902
92.8933
92.9898
92.8526
92.8793
93.0864
92.8787
92.8195
92.2827
92.8461
90.5658
92.8895
92.7158
92.9466
90.7777
92.3787
88.5462
92.7738
90.4142
92.8035
92.7054
92.8549
92.8302
92.8945
92.7172
90.4377
90.6562
92.5781
92.688
92.8535
90.6447
92.3755
90.301
92.7876
92.9572
90.1368
90.5253
93.2532
92.9054
92.8727
92.8765
92.3024
92.9247
93.1866
92.8235
93.0078
90.9338
92.9477
92.9739
91.439
91.2823
92.7931
93.0753
91.703
92.2849
94.8024
91.8189
91.9419
91.6135
92.827
92.895
93.0968
)
;

boundaryField
{
    frontAndBack
    {
        type            empty;
    }
    wallOuter
    {
        type            zeroGradient;
    }
    inlet
    {
        type            zeroGradient;
    }
    outlet
    {
        type            fixedValue;
        value           nonuniform 0();
    }
    wallInner
    {
        type            zeroGradient;
    }
    procBoundary2to0
    {
        type            processor;
        value           nonuniform List<scalar> 
42
(
90.8994
90.8994
90.8891
90.8699
90.6738
90.9299
90.7149
90.7149
90.6036
90.5793
90.8133
90.8133
90.7479
90.8449
90.8614
91.0381
90.8059
90.6203
90.5706
88.5575
89.055
90.6642
90.6642
89.4229
89.055
90.7775
89.9383
90.794
89.9383
90.9224
90.8694
90.7726
90.733
90.6709
90.5957
90.8699
90.8059
90.9624
90.4507
90.5699
90.5699
90.5403
)
;
    }
    procBoundary2to1
    {
        type            processor;
        value           uniform 88.4244;
    }
    procBoundary2to3
    {
        type            processor;
        value           nonuniform List<scalar> 
29
(
91.8086
91.646
92.7929
92.812
89.0467
91.8204
93.2496
91.6579
92.8108
92.8048
91.7749
88.7778
91.8574
93.2383
93.2643
93.2481
92.8079
92.8079
91.646
93.2383
93.257
92.806
93.2987
92.8063
93.2704
92.7995
92.8108
88.4073
88.7778
)
;
    }
}


// ************************************************************************* //
