/*--------------------------------*- C++ -*----------------------------------*\
| =========                 |                                                 |
| \\      /  F ield         | OpenFOAM: The Open Source CFD Toolbox           |
|  \\    /   O peration     | Version:  v1912                                 |
|   \\  /    A nd           | Website:  www.openfoam.com                      |
|    \\/     M anipulation  |                                                 |
\*---------------------------------------------------------------------------*/
FoamFile
{
    version     2.0;
    format      ascii;
    class       volScalarField;
    location    "0.81";
    object      p;
}
// * * * * * * * * * * * * * * * * * * * * * * * * * * * * * * * * * * * * * //

dimensions      [0 2 -2 0 0 0 0];


internalField   nonuniform List<scalar> 
5794
(
90.7306
92.2216
89.0764
91.5187
92.2493
90.1695
88.3107
89.5658
87.6897
93.1296
123.403
87.5581
85.6914
89.4285
93.0573
91.8598
38.8378
90.3852
93.1074
92.4411
90.6779
90.5533
86.33
91.3282
88.6818
44.7913
44.6222
91.089
90.3245
92.7806
90.0969
84.5033
103.654
91.3673
87.9442
86.361
96.4751
88.1829
86.0841
90.1641
89.8234
91.6004
114.649
88.7113
93.1237
104.956
86.0631
88.7068
92.9136
88.844
91.6306
82.1085
88.7975
92.851
92.7285
107.228
87.8506
87.8296
114.812
39.841
102.149
92.5469
89.4274
84.3511
103.206
92.36
88.7949
89.1749
90.3823
92.5731
81.2531
89.1475
19.5668
89.3412
90.0452
91.0819
90.4877
50.8687
88.9979
92.2016
90.3437
92.1972
89.6783
87.0915
89.2913
90.1652
84.1075
109.074
91.1355
88.3428
112.202
87.0572
88.8108
91.3034
89.9912
80.9898
107.937
89.5982
87.2895
103.064
78.8591
85.1449
114.823
91.2884
93.4545
89.1529
92.5385
124.674
80.4334
89.4618
91.2765
93.0718
72.2765
92.3794
89.5799
89.6896
92.9188
89.4596
101.288
90.2326
89.3681
92.9633
89.0954
91.0585
93.0923
121.432
87.0341
90.6265
84.0224
123.211
90.0192
89.5905
85.653
55.0441
89.5904
93.0186
114.748
92.5851
91.756
91.4196
89.8116
93.0228
93.1371
92.9964
91.733
52.1677
89.6161
112.691
92.8489
93.3288
119.449
92.9311
89.5478
88.5398
47.6368
84.8732
88.1918
90.0159
104.513
89.3914
93.0119
88.9068
91.5423
86.6982
80.4162
82.1032
87.6735
89.7966
91.3745
93.0758
92.9129
81.7114
86.5854
88.5334
91.4199
86.3846
93.0081
88.5416
91.4808
84.1888
89.5651
86.471
88.2617
105.56
89.4289
46.4586
84.8831
104.519
92.9908
85.2554
123.145
84.8222
103.665
90.3741
89.8094
90.3597
89.4447
91.4996
93.1825
113.064
87.2366
81.288
89.7147
89.7392
85.5568
104.584
89.9758
124.964
85.3226
87.2139
90.6664
95.5354
86.682
88.7859
91.1449
88.1633
86.3137
86.1392
123.792
96.2398
95.6262
84.4283
110.814
88.8778
109.564
39.3171
89.2036
93.2627
93.1799
92.9539
86.7087
88.8186
91.2426
81.0753
87.2408
51.9024
69.0313
117.378
86.6208
90.3664
92.1269
125.068
90.526
89.2228
87.93
91.2051
93.1787
92.9797
108.978
90.0035
87.2284
92.2592
44.261
92.3082
117.751
85.4012
113.764
113.696
125.013
93.0674
115.209
87.002
89.3018
92.4892
88.5819
88.806
93.2802
120.903
93.0476
104.023
84.9541
90.1076
90.3754
80.5102
96.9396
92.9665
92.8582
89.6283
92.8402
85.656
91.4642
103.296
89.8759
91.4963
89.6487
89.2099
87.0037
90.2631
87.0549
89.6297
86.403
88.2177
91.163
92.9038
110.659
54.9325
89.4957
91.5666
87.4419
92.4861
92.2409
78.9208
90.3208
89.3403
88.5504
119.328
92.8312
88.7221
103.327
84.4172
90.3249
103.945
90.1083
92.4126
96.3683
98.4081
124.62
91.0367
80.326
91.413
89.1364
88.7572
89.0975
92.5051
91.8294
83.4513
89.1226
88.943
87.5458
123.656
82.164
115.939
90.3568
104.065
84.63
93.0684
93.2834
91.4715
92.9388
104.775
91.4131
88.692
86.3714
86.1499
92.9769
88.1791
107.689
87.6251
82.8411
87.6502
85.492
54.0755
104.147
85.4835
89.2096
43.0889
93.2498
83.2706
87.7892
89.595
124.867
86.3761
115.771
87.7089
89.6243
93.0906
81.2276
105.761
86.678
88.3451
92.9064
92.4406
93.0961
92.7675
124.562
80.378
107.526
87.5274
89.0551
92.829
89.9956
92.9094
96.78
86.4276
88.1119
91.4727
90.0703
87.6651
89.4463
88.2378
89.7252
87.9446
92.5499
91.3339
86.7032
88.7369
91.392
88.4334
93.0106
86.6507
91.2953
88.3941
49.1517
91.2234
93.0924
118.715
88.6586
90.2207
92.5125
108.581
88.9121
86.1675
122.559
81.8923
104.269
85.129
90.1343
91.988
80.638
108.149
87.1789
89.5915
124.186
92.8981
86.4763
88.3411
91.5141
92.3508
92.2206
90.4953
81.7472
96.7897
93.2588
73.4839
93.1895
92.9177
89.9441
89.4017
86.5302
88.4218
91.5033
96.3933
90.146
90.2361
89.4538
89.4921
89.4761
91.7779
88.4803
89.5039
93.3649
92.388
81.0692
90.5135
89.4944
92.5269
106.416
84.2971
89.4905
91.8109
90.6297
92.5009
88.7891
91.2093
104.009
123.068
47.8612
89.9923
122.865
89.3734
92.5493
77.8709
122.531
93.1861
92.9298
105.668
62.4421
90.9007
89.87
92.4809
89.2299
90.612
93.0771
93.2067
124.569
122.912
95.2667
89.3833
53.4392
90.4262
92.2604
90.0082
88.7404
92.745
88.7355
91.3956
92.8869
92.9025
91.8266
118.11
89.536
61.7755
98.5862
82.961
93.0553
92.5087
90.635
112.658
122.573
92.3506
80.2123
92.8329
89.958
92.5885
92.4973
88.7819
89.1279
92.627
95.4261
49.6445
90.1889
92.4892
91.524
90.0925
122.806
92.0322
90.8065
94.7619
92.4938
90.5723
89.274
92.4718
47.4378
92.8752
93.0825
88.714
96.5094
112.921
122.89
114.604
90.4893
75.3453
92.3148
88.2167
88.9963
91.8219
96.9998
93.1353
92.4184
90.0458
91.735
92.8872
93.0795
89.0475
91.4686
93.1278
89.0213
90.5559
92.5139
93.2925
22.8317
92.841
120.094
92.9093
88.9934
89.3528
91.8899
88.9485
89.6469
92.4243
104.915
82.1342
81.832
89.7704
50.3096
93.9014
90.1011
88.5916
91.5631
89.7238
89.7284
88.7835
122.425
50.4548
83.5359
107.783
92.3262
89.4943
87.1934
107.519
92.3761
91.6515
92.5843
88.6143
88.8471
99.9157
92.7917
96.0922
92.6022
88.3898
90.0627
105.753
89.5135
89.5666
92.5179
122.515
57.2245
93.2033
92.7186
90.3147
86.8576
84.1524
90.5026
88.5747
89.3634
89.0182
117.689
123.379
111.945
89.2225
92.451
122.486
121.826
124.799
92.532
91.9173
92.7711
93.0281
125.767
92.3362
90.5869
92.1661
92.336
90.0685
92.463
93.1241
66.0672
96.2303
93.0961
91.2745
88.7507
115.292
124.007
87.2343
113.885
89.6633
89.8276
103.18
92.8431
92.6953
90.7193
90.5575
92.8672
89.2903
89.6712
118.478
49.0871
88.5384
37.7351
92.2179
92.8478
93.056
90.5595
89.9891
92.4411
90.0436
89.2038
89.3078
87.2216
103.472
117.463
88.4376
41.165
88.9638
89.6487
89.414
89.2499
89.1231
89.6441
90.4157
92.0727
125.223
92.8823
91.8163
93.0087
113.443
93.2405
92.8926
92.8659
92.6492
91.0373
98.8061
70.2385
89.7232
92.9307
93.768
124.766
92.4079
90.5966
95.5099
92.8938
85.8679
92.4187
113.796
93.3798
116.209
90.5174
93.192
92.8562
124.158
115.025
92.7071
89.5556
86.7477
122.498
94.37
98.0495
44.5415
120.642
89.3738
124.905
66.9697
113.368
92.8573
87.7632
88.473
112.185
97.0718
124.161
99.5219
89.5553
68.3435
96.7147
118.997
92.9184
88.4522
36.0917
122.633
87.1799
89.1802
109.49
92.5481
90.1108
88.5862
88.4071
89.7035
87.2573
105.547
88.6342
96.3988
91.672
89.6552
92.8946
92.5547
89.5236
89.4403
97.7797
92.6127
89.9202
107.026
89.2773
70.7174
89.9124
89.9371
89.9657
89.7517
87.908
110.443
88.6182
89.5008
87.4498
108.486
93.3337
92.8586
93.1306
92.7103
92.1005
90.8065
92.1688
89.98
124.586
47.4171
88.843
90.5889
92.5145
90.0853
88.0287
124.821
89.0049
88.9237
91.6108
118.677
107.097
86.7585
88.1337
88.1696
92.3066
71.6845
90.4669
60.5247
94.6674
124.721
89.9581
92.815
91.8523
92.9127
124.164
125.507
117.414
103.51
90.0519
89.7383
90.7279
105.638
95.2051
91.3041
86.0046
104.809
124.403
92.5221
90.4529
88.7316
111.541
50.5284
92.3709
97.2773
92.9036
93.2032
92.9934
87.2253
89.5884
106.863
96.018
92.8832
89.9453
93.197
91.8799
39.7847
88.8824
92.0702
88.3402
92.5341
122.576
91.8248
97.9582
92.526
90.0134
103.648
96.4134
77.7553
89.3745
89.1265
89.6253
89.0326
120.581
120.963
50.3228
89.2336
92.5399
92.6922
103.826
93.1608
89.6542
93.103
100.788
89.7179
74.246
122.523
92.9021
91.0185
91.7422
95.7865
119.885
90.0364
58.1982
92.8855
92.8965
59.9209
106.698
95.4749
88.0542
89.1955
123.524
113.32
92.4231
92.8842
86.188
121.393
89.9978
96.3675
120.912
89.7229
89.7208
89.9419
89.1864
96.5672
92.7636
90.4392
92.214
93.4503
92.4116
92.8822
92.4909
90.084
118.388
92.515
96.1972
92.3478
89.6076
89.332
90.678
93.6038
122.611
122.832
57.677
88.7294
89.529
96.5195
92.2694
53.6336
103.148
83.2631
116.17
89.9544
87.2848
89.9558
89.1754
89.4436
104.306
88.4942
88.4644
88.4216
89.5976
92.5075
116.071
92.7492
89.899
108.8
87.0435
89.6311
93.0746
110.612
92.4968
90.3619
93.1004
92.4396
83.6035
124.22
108.263
96.4293
89.6943
75.5006
92.3529
90.4798
82.0805
45.8029
96.8246
88.5232
100.373
93.6791
92.9475
91.9747
92.614
89.1105
89.4333
92.4622
92.4876
90.0187
92.7786
92.4016
92.5231
92.6997
96.1936
90.6652
97.0759
92.8567
92.3827
108.479
96.7308
89.5416
91.4369
87.0649
92.289
123.54
98.7046
89.2199
92.7941
89.1177
122.461
92.7432
96.4308
90.0646
92.8105
96.4282
69.0125
95.6758
86.5182
100.64
92.5822
97.1078
91.1934
92.5365
109.529
71.6816
89.3686
100.183
91.7337
90.0396
92.3057
91.8918
101.372
105.316
49.4091
79.0322
90.36
92.3299
89.3159
89.6398
86.7979
102.84
113.023
92.5406
90.5703
92.4739
89.9899
96.6669
93.0452
94.8614
91.1383
96.1486
96.8
97.8158
91.3148
92.1755
90.7689
93.0321
91.3208
122.605
92.568
96.3444
88.4766
92.5152
93.1699
92.8991
88.2761
124.499
92.5251
124.901
92.4388
98.2335
124.653
92.6313
91.5307
108.895
92.3058
91.6815
90.5649
92.6474
89.087
88.7379
90.4281
92.4918
88.824
92.7765
92.3382
95.6847
92.712
92.8008
91.3681
88.295
86.4724
95.9542
104.518
102.364
88.9511
89.1706
92.8336
92.637
90.4926
91.5974
89.785
89.6046
92.8602
116.439
92.5304
90.9563
92.8939
122.337
92.8704
83.2613
90.0523
92.3183
97.2916
89.6941
91.8439
88.286
93.3434
96.1347
96.6458
92.3773
97.1309
92.3165
92.3303
88.913
92.5136
90.5606
90.8963
92.6779
123.632
92.9607
56.6746
92.861
90.2073
92.4792
96.3755
90.4823
100.471
92.7222
91.55
95.3282
102.458
85.0018
91.0702
92.3592
92.0769
90.6797
90.1621
93.0274
96.521
93.415
93.5897
119.066
112.61
91.7783
101.337
100.339
92.9456
88.7626
88.1189
92.6099
31.3486
96.7422
92.5622
92.689
122.518
122.784
93.4982
91.9652
90.5742
89.4776
88.9457
92.4228
91.2592
89.1192
89.8567
91.6756
89.6941
89.9688
92.7158
88.2629
89.364
90.241
93.5083
92.4466
88.2844
90.5611
86.6399
89.6375
89.8068
102.276
103.335
97.5416
94.2809
96.3435
102.151
92.7941
89.9253
92.7181
103.867
98.9855
92.1676
90.4571
114.913
91.41
116.964
89.4337
88.6585
101.768
88.3839
115.329
105.254
89.2672
89.3042
96.55
111.186
92.7011
89.9509
92.3406
56.0132
92.5498
92.8197
88.5905
90.095
92.4768
97.7644
93.0281
115.551
91.4036
88.6594
100.038
89.4278
86.1855
92.8585
92.686
89.3361
89.0759
122.31
123.866
88.5986
96.5084
92.3114
90.2973
88.3749
84.7124
103.398
125.236
114.481
97.0001
93.1365
92.3486
91.1842
89.599
96.3599
89.1756
88.9517
89.2758
92.6992
90.5211
75.4013
90.7901
55.0783
89.9139
92.4324
113.656
97.3332
91.3695
92.7595
95.8461
89.3625
92.8132
92.5768
91.4828
90.6999
92.4676
88.6649
88.8034
90.9874
92.5472
91.6085
90.2583
89.0638
78.0829
88.407
118.026
95.7478
89.0811
92.793
89.9486
108.576
87.8268
89.3306
89.9161
92.7683
124.027
51.7526
88.5458
92.8995
92.8986
83.7358
92.8021
90.0223
91.4324
91.0485
88.3415
90.5693
89.6148
89.8337
92.0495
92.8306
92.4113
96.2913
89.8219
92.8405
89.9958
110.054
97.04
123.778
123.205
90.0161
92.6848
91.5675
92.8086
124.567
89.341
88.8051
89.2755
92.5837
92.8814
92.3701
88.6725
90.2969
89.8171
92.816
89.5738
92.9805
41.6776
88.2425
36.7019
49.6511
89.8574
96.1269
92.7234
89.6988
91.7398
90.5987
89.5176
89.9713
91.8179
84.1901
103.122
102.275
89.2692
89.7078
86.9909
85.9983
93.145
92.7725
89.9856
123.87
92.8691
89.9754
92.86
92.7342
90.025
112.248
91.7699
89.7862
88.7896
89.0895
88.6081
88.436
92.9426
92.7212
96.3849
89.7595
129.491
123.456
92.4868
40.3558
124.166
90.1218
88.9606
92.9003
101.272
92.9086
92.3766
90.3277
88.6891
10.8029
97.0634
89.728
84.527
109.414
55.9753
113.602
88.6798
90.4062
92.3413
90.0802
91.8267
88.7545
89.1706
92.4294
89.0365
91.7008
91.8223
89.3559
88.7705
90.2981
92.2261
91.7967
88.7298
89.1376
91.8968
88.7082
89.4113
90.3604
92.2967
92.6575
91.7847
88.3761
89.856
90.1427
91.8078
90.1899
88.7672
89.4036
92.2597
90.5249
92.3848
90.2979
91.8338
88.7039
92.3135
91.8182
90.0884
92.4741
89.5664
88.6393
87.3048
85.1535
55.6251
92.8358
91.2976
101.207
92.08
92.69
92.8937
92.6511
93.9906
92.886
89.4443
89.952
49.0058
89.7828
90.2467
89.3684
92.7957
92.7928
92.7942
90.059
89.6191
89.9094
92.7973
88.8732
88.2467
91.6128
122.708
93.7161
89.9836
89.0888
89.0036
45.1138
92.9058
88.375
89.4208
105.278
90.6618
89.4498
89.1532
90.0415
118.728
93.0937
89.2257
89.386
90.0381
95.7969
95.0431
11.5228
92.8914
89.4901
91.9301
90.7648
92.4505
92.8828
138.914
89.8563
92.3425
91.8384
89.0932
88.7369
90.1838
89.095
91.7546
92.3582
90.1046
91.7993
88.73
89.4713
92.5674
88.5167
90.0884
88.7387
89.3468
92.2384
91.8943
90.353
90.4637
88.674
92.3641
99.4024
88.1814
125.091
108.191
89.6981
95.7919
90.6729
92.5993
118.609
92.6906
93.1489
128.537
92.3569
89.888
92.8257
92.3452
116.92
93.1319
72.5994
91.5506
93.1176
92.7086
91.146
97.6015
92.8959
91.4346
97.4546
93.0925
92.8207
89.0219
91.8277
89.8888
92.8946
90.3838
87.6993
92.8027
91.031
92.6067
91.1582
89.9445
92.6714
92.8149
90.043
92.8126
92.8243
92.3783
92.8907
92.0866
96.7664
89.1561
86.4074
89.8575
90.4431
80.6105
92.7482
96.4556
106.164
90.0547
121.374
88.3417
92.3569
93.332
89.3495
91.6212
96.6905
92.8875
91.7977
89.6455
89.4568
92.4434
89.4541
93.1822
92.7084
90.1924
90.538
93.413
93.2494
93.1087
95.4043
91.7266
91.649
87.3319
91.67
91.7981
90.4336
92.8805
89.2787
92.7078
88.4965
92.8955
90.2651
115.315
89.4986
89.4334
90.5084
92.8843
89.9428
92.322
92.858
89.2142
90.0816
91.9888
112.127
89.4883
93.599
90.8899
89.2571
117.926
117.29
90.9282
93.1024
90.0797
98.8033
92.1494
106.96
93.8481
141.388
89.0992
86.0199
103.783
114.416
85.148
87.4383
89.3415
129.362
87.32
107.65
88.5195
131.221
89.1875
88.5678
29.2445
89.1518
90.6667
90.2149
92.1741
90.1115
88.6972
94.8788
89.916
92.5602
88.3441
89.415
89.3462
88.9398
88.8223
89.4727
88.8962
89.0817
92.8797
89.2873
89.7398
88.8944
88.857
89.4648
88.8078
90.2193
90.1103
90.251
88.446
88.023
88.9671
47.5434
88.8762
89.2636
88.9444
88.473
92.822
92.887
89.0633
89.306
90.7129
92.8404
92.8405
88.9689
89.2292
88.8022
88.5011
88.8984
87.8904
88.5872
90.3282
90.0288
88.4996
119.878
90.285
89.099
92.7006
88.6082
92.8175
88.7261
92.8295
88.2077
92.747
92.8044
89.8937
87.7201
88.5119
87.9945
88.7023
92.9082
106.967
92.8914
85.8924
84.5449
87.5772
104.644
80.5887
92.884
106.67
104.961
84.8981
81.6054
91.4641
93.0041
80.2596
103.246
109.225
92.8531
87.9466
106.869
80.2704
105.84
92.9703
92.9344
93.0358
84.3761
88.7675
51.8034
92.9209
87.2474
88.4236
92.857
84.258
91.4839
88.5909
104.754
103.348
86.4786
51.9268
79.8425
93.0438
80.0125
92.8127
87.9976
86.1591
91.4629
106.519
89.1728
51.6654
86.3683
87.9351
91.4506
79.9834
48.8495
93.108
145.809
80.6541
88.8989
86.3064
87.7956
93.136
88.3734
103.291
84.603
80.9036
48.5262
48.4203
88.4439
88.6248
89.4768
90.4335
90.1885
91.2985
91.3295
84.1811
89.9297
88.2946
92.6084
123.341
88.286
88.9121
90.3263
88.1211
89.916
92.8336
89.8992
91.2293
88.5721
88.3616
89.7726
90.718
91.2006
86.3214
87.9026
93.1785
92.365
89.8986
89.6221
92.5615
92.3743
88.2758
88.5103
90.363
90.5025
92.8003
87.6948
84.8567
103.458
90.0597
87.8121
88.4517
90.5277
92.8225
92.6096
88.3431
90.9698
92.168
92.0449
88.0246
90.3897
89.5504
47.945
92.7253
89.5033
91.2046
92.9336
90.3737
90.0829
88.7315
92.7794
90.6519
92.6414
91.9343
91.4054
90.5598
89.9065
93.259
90.2413
92.7456
90.8943
92.8134
92.7934
89.7609
89.9297
90.1166
93.3521
92.7537
90.1811
91.1253
89.8514
88.6025
89.8705
92.4715
88.3851
89.9185
92.8778
85.0626
87.1464
103.537
88.4239
88.5934
90.0231
92.7918
92.7586
123.605
83.6165
87.3265
89.4698
92.9792
89.776
88.2147
91.11
86.3838
93.0653
91.1543
93.0143
46.6803
115.41
91.0446
89.2212
86.7886
93.2771
88.5009
89.9367
92.3201
123.839
87.7672
89.4405
88.6188
91.1146
88.6094
89.9816
92.2303
104.517
86.0476
86.8082
124.067
84.6415
88.2328
89.3311
88.5752
45.1091
115.277
90.9946
86.5506
89.0859
88.712
93.2628
88.1558
89.8741
83.4342
85.6357
91.116
88.6395
90.0155
92.1888
87.4189
88.6489
90.1936
123.905
85.3239
91.8334
45.3786
49.3179
89.2364
115.265
89.1448
89.5625
88.8195
88.8007
93.3274
93.241
86.6938
84.0988
91.1044
88.4168
88.0007
106.792
87.1498
112.68
88.1998
89.2549
89.9921
92.962
92.9553
88.7816
88.6777
88.6856
88.7341
91.0342
86.6815
88.6097
89.5536
84.3326
91.0877
88.6645
90.0993
92.1318
87.4145
106.634
87.4328
124.092
88.177
87.8406
89.1082
88.3307
89.2506
90.0625
90.1609
91.8209
47.7799
89.2717
99.0239
90.5107
94.7282
115.223
94.4266
92.8343
91.0943
88.9652
89.3041
86.7774
90.2986
85.9981
93.6976
93.2765
87.2915
99.2652
93.0886
90.6445
90.1845
88.1991
88.2018
90.024
90.8222
90.5497
91.0787
88.6854
90.2046
92.1385
87.6833
89.6134
93.1639
92.8604
93.5598
94.12
118.268
92.8894
92.4601
88.5525
89.1744
90.1021
91.7999
44.3789
89.3115
92.8644
92.947
94.6086
95.9227
87.6249
89.1072
94.7657
89.7329
89.4245
89.0246
85.98
93.2896
96.8389
92.7638
92.6261
92.7318
92.3518
88.8754
89.6653
88.8648
91.1306
86.7534
89.247
92.6885
89.4928
88.8733
93.3799
92.4423
124.829
92.7735
92.8887
83.258
88.7783
89.0237
88.9351
85.3916
91.3544
89.6406
88.7989
88.8567
88.2635
92.5844
88.6702
90.2208
92.1225
92.7746
92.7723
92.7889
89.1234
108.736
87.8641
90.559
90.4256
90.1797
90.6141
90.117
91.212
91.419
90.8382
91.6851
88.2162
97.559
89.4008
89.316
96.4456
92.8255
117.532
90.3609
90.9
90.0354
124.223
89.9547
88.7399
89.1193
93.2957
83.967
90.15
88.6081
92.8193
91.7952
88.3729
88.4739
89.2909
88.7633
89.9809
92.296
123.023
89.2492
90.2852
92.9699
92.8818
91.5322
92.7208
92.6822
89.3304
89.2524
92.6683
91.1329
92.8133
90.7221
89.315
89.0961
92.8891
90.1705
88.4732
90.1938
88.7246
89.3642
92.4509
115.208
116.06
92.8277
88.6681
90.461
88.5477
115.511
90.3663
90.1971
92.0094
90.2174
116.526
89.3818
90.3858
84.7167
87.5632
89.0987
90.5459
91.4236
92.6825
88.9217
90.6541
88.7363
94.6748
88.7483
93.1654
123.825
88.9066
92.8317
89.3349
89.2444
89.3548
89.0178
91.8179
91.5978
90.2484
90.3149
89.5539
88.6868
88.6689
96.3066
90.1533
93.3867
88.3227
93.4564
90.3691
90.1947
88.6693
90.2962
92.1536
93.0469
81.0956
88.7517
88.7224
92.4168
92.3945
88.5596
81.2735
92.6448
91.2815
90.0663
92.0932
88.5822
95.6837
90.2562
90.1433
89.1727
89.1693
92.8584
88.6536
101.17
90.4255
126.902
88.2897
88.8637
89.8665
92.1745
89.4343
91.494
89.1216
88.8879
89.1381
118.382
88.0469
108.118
88.6199
92.8754
91.7712
88.9635
88.8688
93.1996
105.049
89.0417
94.6826
100.088
105.793
90.1472
92.74
90.5036
88.6834
89.9786
92.6347
124.347
86.8201
89.1705
85.8601
90.2061
53.3138
92.8197
88.8449
89.1261
89.0184
92.2267
88.7418
81.1878
90.0088
92.5122
90.4953
92.8621
92.8692
89.1958
90.0575
89.0884
89.114
47.4696
90.5203
90.4356
109.969
91.2625
82.1504
92.1959
37.539
101.463
92.9209
92.3805
92.3838
93.1226
123.763
89.6146
88.7924
92.9085
131.553
93.2098
88.6769
89.931
92.4547
90.4549
92.6883
90.5899
92.63
90.7453
89.9849
90.4058
116.532
88.8369
89.0217
88.287
92.4205
91.9295
91.7115
92.5629
92.8983
91.705
89.3208
135.688
92.3161
89.3725
90.433
89.4844
90.8674
89.6509
122.585
92.5567
88.7347
92.5653
91.7734
69.8783
123.159
92.556
92.4901
90.2287
93.3853
98.2024
92.8072
89.339
89.6961
96.369
88.7302
89.3839
89.3792
92.8823
93.08
99.6021
89.2457
88.9409
89.2544
85.4297
88.5418
88.9045
92.1957
89.3348
92.7334
89.436
92.8436
92.8771
88.8589
94.6686
89.288
89.5339
89.7773
89.6204
92.467
89.6102
99.6055
89.1795
88.9945
91.3624
89.426
87.5898
92.1007
94.044
95.1957
96.2394
88.7791
90.3651
92.1623
76.7244
90.6355
89.7244
92.2216
88.9999
111.695
89.2406
88.8898
89.4244
100.423
86.8823
88.9317
88.647
90.1977
92.5069
89.3454
110.19
88.3997
89.3507
89.2911
89.2211
89.1831
92.9218
90.0547
90.5761
89.0832
87.8329
108.807
91.8744
93.3296
92.6432
88.6561
90.3234
92.1436
86.7757
92.9031
89.2429
93.7713
92.8699
89.8095
89.3316
90.1257
90.3807
87.3067
88.5221
91.2761
92.8721
93.051
94.0171
92.7823
89.5515
88.6598
90.3423
92.2034
131.7
106.886
90.456
89.8681
99.7403
107.755
107.466
90.0412
90.9486
91.8768
90.2097
91.7717
92.7724
94.0501
123.412
90.4474
92.8201
87.097
86.4519
105.205
92.5956
89.9647
92.2308
88.9693
90.9958
90.111
89.9472
88.2425
49.635
71.0265
92.8763
88.9215
91.7735
87.825
91.2442
91.8494
99.4493
93.1483
115.054
89.4457
91.7042
90.2374
91.9577
90.5989
92.6893
89.7142
90.2893
88.6463
97.9558
91.7486
90.5764
89.2261
122.59
92.5714
88.4363
84.1329
90.2748
122.721
123.649
91.4433
89.3238
90.3473
92.3762
88.6766
89.0887
20.673
92.4369
118.034
84.7631
92.3402
92.9058
93.5284
121.796
87.4539
88.6583
90.4249
92.2339
92.6673
113.77
89.0902
88.6758
92.7919
93.1214
92.7592
92.3995
89.8097
90.3576
96.2296
123.016
102.337
92.6343
92.0234
90.1505
90.5562
89.1287
91.8504
92.0245
89.3979
92.9036
92.7671
92.8903
90.089
89.4411
116.451
89.6025
92.8973
96.2196
88.3906
44.7772
90.2759
90.1567
88.6489
90.3815
92.2048
103.776
92.3692
89.0657
88.6481
93.1579
90.9381
92.4306
92.2581
91.6826
92.8193
92.8878
90.4238
89.192
91.775
91.8134
91.8478
88.981
89.016
89.3113
91.5945
94.4739
91.0634
90.3888
92.3338
96.2633
92.813
89.6721
90.443
116.368
118.134
88.7284
92.9056
91.2156
92.8341
92.5878
89.0893
91.9008
92.2207
92.9054
92.2804
99.8679
91.8541
88.8718
90.3581
91.5141
89.9634
92.8568
86.2128
90.7343
89.2474
109.649
92.2908
88.9295
91.8292
92.5868
89.0387
86.0704
88.6628
90.1037
89.5912
92.8922
92.4292
81.1761
98.6252
93.4829
93.6133
91.7413
90.5651
91.5975
89.9104
90.3217
96.5351
96.2065
92.5191
89.8041
93.4263
92.82
89.8226
90.409
92.9079
88.7164
92.249
90.6865
92.4673
92.7848
93.0624
91.83
89.278
89.6656
96.8084
88.676
90.2539
92.4496
90.3343
92.5436
92.6157
90.1848
92.2761
90.3556
89.9262
91.3521
123.162
88.1528
41.3899
93.1663
89.0746
90.0176
91.122
89.2085
90.4666
92.3328
92.8383
90.4405
92.3936
96.4413
92.9168
114.181
92.5868
91.8801
89.2929
88.7909
115.075
89.5991
92.8106
91.7638
92.5303
114.382
86.8151
89.3897
91.2183
88.7085
124.718
95.1896
89.1126
92.681
105.413
80.7525
93.2154
88.8619
91.6188
91.6881
88.5605
88.8551
90.5431
92.5105
89.1421
92.2236
89.3061
88.4276
90.2725
92.4105
92.817
89.9203
88.1471
90.7948
92.2771
92.8812
92.7317
88.8622
89.1678
90.022
91.716
86.9942
92.8935
113.393
88.6831
91.278
89.7399
35.4353
91.0384
119.986
92.8502
88.8778
91.2262
89.6442
92.4721
91.9157
89.3943
92.9079
89.1652
90.8821
92.8433
115.881
88.7644
86.3821
92.1619
90.8465
125.128
89.5173
89.2939
92.85
89.6716
90.4373
94.4792
92.4753
91.3397
88.6582
90.4102
92.3009
90.5991
88.7432
92.3963
90.3033
92.9569
81.767
89.049
88.9157
89.0547
56.0057
96.5469
105.339
90.1594
89.0692
123.189
67.2904
109.567
94.1958
88.6626
90.3528
92.2886
90.849
100.512
88.6818
90.4137
92.3136
92.9053
91.0797
117.111
127.765
88.3851
109.177
94.9738
122.432
92.4813
90.4694
89.8573
90.9066
86.9867
92.3454
108.254
90.4179
92.2319
91.694
92.8573
123.025
89.6683
110.026
90.0063
88.2396
89.07
88.859
93.2491
92.8006
90.2629
88.6543
92.1388
92.8631
90.0097
90.8298
89.9981
89.8447
89.8587
92.403
92.2939
97.1537
38.9435
122.619
92.5819
92.8542
92.6767
90.5456
91.2134
89.3476
89.1459
92.9371
92.2681
89.9561
91.183
107.44
89.1391
86.2528
106.771
90.6955
92.1312
92.8345
96.9851
33.7572
88.8204
84.4341
103.177
87.9241
93.2103
97.9852
96.1361
93.1174
88.5511
93.0036
88.732
124.965
92.7871
91.2905
92.7809
97.5868
42.7743
89.806
91.5908
90.4746
91.5175
88.8482
86.6206
92.7992
106.543
90.0226
92.7761
91.654
114.658
91.4959
90.0653
89.5614
90.0708
91.9824
89.372
92.8196
92.7765
92.5236
90.44
105.977
89.0841
105.343
88.4926
89.3218
93.5289
89.3521
124.512
92.7373
92.8408
99.5306
110.447
90.3661
88.3994
89.2307
91.9744
89.6027
88.5829
121.867
90.5314
93.4892
91.3207
90.6812
93.289
121.193
122.41
89.6718
89.5626
92.884
93.1826
91.7414
89.2612
86.5413
93.1995
92.9865
92.331
92.8654
92.864
91.0497
77.8534
88.7464
122.246
92.4477
89.8487
91.8669
90.5609
90.2307
116.605
93.3986
91.8289
114.864
92.3721
111.743
105.556
92.9519
121.704
91.9133
122.469
93.3945
92.0356
89.7267
98.8052
90.1193
103.015
87.7023
97.6442
26.9748
92.8954
120.846
89.9162
101.228
89.3177
102.302
88.9313
121.489
122.338
91.2938
106.7
92.6958
88.6449
90.1538
92.4781
90.5738
91.7296
102.839
92.765
104.661
103.07
92.9747
91.8236
89.7769
123.686
88.9509
88.5617
91.7661
96.2746
91.1754
96.5838
96.9541
92.8337
106.522
90.5263
91.1968
89.1201
89.0655
92.6294
104.764
122.785
89.4059
109.628
101.267
88.4709
92.9022
92.8765
92.6895
92.881
92.7613
122.519
96.0364
89.006
92.9373
88.9616
110.289
86.1212
89.8488
89.3991
88.9148
89.2243
91.302
90.0808
88.8739
94.3209
90.4753
90.4415
90.1987
89.1646
91.0298
108.097
98.3624
93.4283
92.7186
92.7879
89.5876
103.894
88.9394
89.5277
89.3317
92.8856
91.2015
87.1459
89.6029
49.53
92.6081
92.8288
96.8387
90.403
88.6514
92.2253
122.212
91.9526
115.082
92.4709
91.4684
81.0998
89.5958
92.592
91.4149
92.8277
100.235
89.6089
109.841
88.8342
90.6745
92.5134
89.2103
90.8617
89.6854
56.5393
54.7834
90.1874
91.363
89.381
90.545
92.43
90.2584
88.6783
92.4807
90.0537
88.5459
88.7578
88.7069
88.8837
88.9712
89.1438
124.925
90.1512
89.6526
86.9231
89.4698
102.238
91.8642
91.3999
90.9101
93.2462
111.495
90.8795
88.8659
90.3369
87.1603
44.6676
90.0917
92.5172
104.661
123.335
92.9051
93.2174
92.545
90.4344
89.1585
90.1107
89.4732
93.2724
92.8619
90.6421
90.3229
88.6655
92.1868
88.906
91.7973
88.0946
107.246
89.6168
87.1674
94.4127
91.9192
90.2838
89.5631
91.9705
103.149
84.3272
89.8135
89.1301
89.4432
93.0463
88.7371
87.7597
86.278
98.5961
91.2633
109.617
119.624
139.446
93.3871
93.085
125.177
88.9516
91.5696
93.075
119.439
92.0384
95.6095
9.62082
96.6526
90.9905
89.0996
92.4499
90.4571
92.2985
88.6624
90.6032
91.414
86.0343
92.7334
90.111
95.8069
90.5213
124.604
88.7554
109.68
88.2203
88.8128
88.6829
90.6874
92.4021
92.3176
86.3381
89.708
88.4821
92.5593
32.9485
111.939
90.2942
90.4861
92.9851
92.847
86.8001
91.9013
90.4001
86.1848
93.1257
93.0741
92.5508
91.8069
93.5933
89.8857
89.2859
91.2867
88.1476
115.997
92.1897
90.5311
91.751
89.6371
97.0642
104.063
90.7091
95.916
89.531
87.1466
88.727
90.7615
88.4704
90.2038
91.4581
89.9013
89.8311
93.0188
124.77
90.5137
92.4181
124.156
92.7467
93.0996
92.8419
78.618
97.7843
97.5533
92.4219
94.978
92.3976
95.1066
95.2378
98.4943
96.642
92.8517
90.879
87.8022
91.5409
90.9199
101.382
92.6447
91.3081
92.7321
89.2772
88.6215
97.2562
92.2109
91.4516
88.461
93.4335
91.8476
88.8717
92.2802
92.8356
95.1405
50.6175
88.7023
90.5808
92.4328
88.9661
91.648
90.2511
88.7199
92.2131
90.7585
88.7994
92.4466
121.087
92.7111
92.8822
90.6756
89.4791
90.1365
96.0402
88.3566
90.4239
92.6375
88.7896
88.713
92.4486
92.7061
112.458
109.576
89.9721
87.7133
90.1695
92.76
92.775
89.6865
89.5073
123.2
97.7755
88.6017
113.563
92.9017
89.3986
87.2956
90.6392
92.2091
79.8061
92.7891
98.2354
88.5987
88.8915
93.1338
94.9753
93.2525
84.9423
126.808
87.4811
93.1765
92.814
92.8989
92.8914
111.784
122.008
92.5924
91.2738
88.7611
107.211
89.3391
88.6989
92.828
91.0982
88.6699
89.4353
89.4899
88.7441
88.7667
93.3742
89.1748
84.322
103.155
92.8755
92.8672
86.8266
89.5577
89.1961
99.2554
89.3046
88.8692
89.7788
88.8618
91.4192
92.5162
96.3093
89.256
17.0552
94.8972
88.8163
89.2091
89.3284
88.406
91.816
88.4925
92.8209
90.0316
92.5057
90.6706
92.6485
120.298
89.1217
123.015
91.5668
88.5304
92.9199
91.4432
89.6481
89.0082
51.7576
115.262
96.4503
92.7925
89.7991
89.9653
81.9234
83.5677
93.0777
89.9238
96.563
96.2135
89.9655
93.073
44.5145
92.2886
88.6688
90.3241
89.2721
88.8091
89.2078
90.1545
88.5496
51.7065
89.6147
89.9642
89.6564
92.1823
90.5829
88.359
86.9043
92.3104
94.9691
107.026
93.3428
89.8344
89.4988
89.1186
88.6278
86.6467
92.8404
125.15
115.86
92.8404
79.8503
90.7892
90.6372
88.7135
92.419
90.7343
114.937
93.1135
97.4998
89.6529
88.9064
89.1807
90.2501
97.0202
88.9811
109.747
89.1245
85.9445
90.1407
92.191
124.803
92.6341
88.6161
87.1919
93.2002
89.9033
84.0624
43.8648
105.667
89.8767
91.7409
86.5742
88.7101
91.0942
89.0186
89.2182
91.7223
92.5309
92.5019
90.5142
124.244
90.7074
91.3483
92.1263
92.71
52.9389
89.0643
86.5709
107.65
89.2449
91.8293
93.4034
96.4672
89.4943
92.4979
90.591
88.778
91.8122
88.8802
88.4754
122.199
91.5593
91.7133
92.4
89.9423
88.4735
86.5443
91.0957
91.2244
88.7075
89.207
92.5802
96.7798
90.6957
92.2089
113.934
66.158
91.2419
53.8718
91.6534
88.4792
83.0913
81.7034
90.0653
93.1662
74.9299
92.6648
115.975
89.5987
85.5558
110.074
121.267
113.935
91.4456
92.6819
93.4535
90.6541
88.6594
80.808
86.6226
88.7611
91.5491
104.502
104.071
98.246
87.0501
91.0884
86.6717
96.6888
92.8853
92.4926
93.1032
92.3862
90.3539
122.133
88.5545
88.6135
88.7649
93.5418
88.8625
90.4521
86.6266
92.8079
90.2148
88.6951
92.1792
89.5909
87.3551
91.4185
89.9066
91.1222
85.1864
88.6531
89.4723
89.4049
93.3048
105.297
91.7318
90.0018
90.1009
91.72
110.777
119.177
91.7867
92.9599
113.028
89.6948
98.3895
92.1052
90.8301
90.0377
92.1938
90.3111
92.8487
92.791
91.454
92.8335
92.5116
123.707
92.1935
92.447
92.942
92.3904
90.2185
92.884
84.661
89.5345
91.9288
96.1363
118.122
89.8011
88.5198
89.1922
88.9127
90.6267
89.5306
91.4218
90.3718
93.2613
92.678
89.8532
91.8058
51.6982
89.1202
122.707
92.3351
91.5684
90.3471
120.748
89.4256
51.4074
96.8557
92.5171
92.8589
92.6321
92.846
92.5061
90.4102
88.8099
92.74
88.7134
90.3033
92.467
90.1562
92.3896
96.928
123.4
90.6112
88.7804
89.9826
91.5794
92.5441
88.5964
103.748
84.5517
89.7298
96.2887
90.3532
95.0114
89.4813
96.3225
115.505
92.3299
92.9902
92.825
88.9076
124.852
87.7921
92.8466
86.5132
88.6402
91.7229
91.7951
91.0913
123.289
98.1663
92.4911
90.4149
88.7725
96.6858
92.8109
89.1913
88.8762
92.6059
92.3896
89.3478
47.2314
91.2344
90.2259
107.369
124.651
90.0013
93.3018
92.4179
122.716
89.873
94.9129
89.7808
37.3477
56.9054
92.57
49.4932
92.2905
36.6192
88.7725
107.482
88.5719
89.9945
92.5477
92.5544
92.5282
92.5495
90.4029
90.4431
90.327
90.3234
92.5453
90.4224
62.1147
89.7775
89.4113
88.9715
89.1319
56.1199
90.1672
89.2743
87.5937
89.1214
88.3849
87.1575
67.2281
49.0754
86.9974
75.6853
71.5015
87.2969
90.2166
88.7835
89.2446
88.9368
88.7762
88.427
90.5881
89.6353
90.1068
92.5507
89.3203
88.1922
90.2654
88.4768
90.024
93.2732
109.435
110.701
89.9025
94.8456
92.2624
87.67
91.292
96.9682
109.137
113.468
102.594
99.8256
117.452
121.505
125.562