# vtk DataFile Version 2.0
track0
ASCII
DATASET POLYDATA
POINTS 181 double
2.01419e-18 0.210526 1e-06
3.07409e-05 0.210237 1e-06
0.000133121 0.209964 1e-06
0.000237858 0.209693 1e-06
0.00034291 0.209421 1e-06
0.00048567 0.209053 1e-06
0.00121814 0.207168 1e-06
0.00207986 0.205338 1e-06
0.00294154 0.203509 1e-06
0.00380321 0.20168 1e-06
0.00479672 0.19957 1e-06
0.005724 0.197601 1e-06
0.00647365 0.195558 1e-06
0.00695418 0.193436 1e-06
0.00690834 0.19126 1e-06
0.00679064 0.190057 1e-06
0.00659398 0.188045 1e-06
0.00622235 0.186057 1e-06
0.00568735 0.184106 1e-06
0.00505398 0.182186 1e-06
0.00446951 0.180414 1e-06
0.00391116 0.178717 1e-06
0.00335052 0.177021 1e-06
0.00278882 0.175326 1e-06
0.00222683 0.17363 1e-06
0.00166497 0.171937 1e-06
0.00133198 0.170929 1e-06
0.00226309 0.171439 1e-06
0.00194057 0.170427 1e-06
0.00222051 0.169403 1e-06
0.00354604 0.171044 1e-06
0.00354604 0.171044 1e-06
0.00354604 0.171044 1e-06
0.00354604 0.171044 1e-06
0.00354604 0.171044 1e-06
0.00354604 0.171044 1e-06
0.00302591 0.169469 1e-06
0.00290702 0.167816 1e-06
0.00382545 0.169196 1e-06
0.00347337 0.167576 1e-06
0.00557215 0.170082 1e-06
0.00557215 0.170082 1e-06
0.00557215 0.170082 1e-06
0.00557215 0.170082 1e-06
0.00557215 0.170082 1e-06
0.00557215 0.170082 1e-06
0.00505011 0.168502 1e-06
0.00463705 0.166889 1e-06
0.00606993 0.166043 1e-06
0.00602655 0.164379 1e-06
0.00942247 0.167012 1e-06
0.00942247 0.167012 1e-06
0.00942247 0.167012 1e-06
0.00942247 0.167012 1e-06
0.00942247 0.167012 1e-06
0.00942247 0.167012 1e-06
0.00898903 0.165624 1e-06
0.00860798 0.16422 1e-06
0.00836075 0.162787 1e-06
0.00853884 0.162199 1e-06
0.00938169 0.161169 1e-06
0.0106928 0.160941 1e-06
0.0119103 0.160403 1e-06
0.0131243 0.159858 1e-06
0.0172862 0.157983 1e-06
0.019415 0.157022 1e-06
0.0216143 0.156235 1e-06
0.0238532 0.155568 1e-06
0.0260491 0.154772 1e-06
0.0283305 0.15372 1e-06
0.0301417 0.152706 1e-06
0.031858 0.151539 1e-06
0.0334958 0.150263 1e-06
0.0351348 0.148989 1e-06
0.0390311 0.145968 1e-06
0.0390913 0.145921 1e-06
0.0391514 0.145875 1e-06
0.0392114 0.145829 1e-06
0.0392714 0.145782 1e-06
0.0393327 0.145735 1e-06
0.0414516 0.14409 1e-06
0.0435698 0.142444 1e-06
0.0456862 0.140796 1e-06
0.0477988 0.139144 1e-06
0.0498273 0.137528 1e-06
0.0498619 0.137479 1e-06
0.0498963 0.137431 1e-06
0.0499308 0.137382 1e-06
0.0499652 0.137334 1e-06
0.05 0.137284 1e-06
4.34675e-19 0.631579 1e-06
0.000499543 0.630697 1e-06
0.000836878 0.629742 1e-06
0.00117403 0.628786 1e-06
0.0015111 0.627831 1e-06
0.00178296 0.6272 1e-06
0.00271952 0.625309 1e-06
0.00365658 0.623418 1e-06
0.0045935 0.621528 1e-06
0.00542466 0.619588 1e-06
0.00595199 0.61778 1e-06
0.00630679 0.615878 1e-06
0.00666156 0.613976 1e-06
0.00689595 0.612056 1e-06
0.00695253 0.610122 1e-06
0.00684371 0.608365 1e-06
0.00657451 0.606555 1e-06
0.00630494 0.604746 1e-06
0.00608531 0.60293 1e-06
0.00595671 0.601105 1e-06
0.00593894 0.599263 1e-06
0.00605401 0.597401 1e-06
0.00616885 0.595539 1e-06
0.00648807 0.593701 1e-06
0.00720903 0.59198 1e-06
0.00834643 0.590335 1e-06
0.00850333 0.59017 1e-06
0.0086592 0.590004 1e-06
0.0088141 0.589838 1e-06
0.00896808 0.58967 1e-06
0.0091085 0.589516 1e-06
0.0105043 0.587967 1e-06
0.0117484 0.586295 1e-06
0.0128853 0.584548 1e-06
0.0139178 0.582737 1e-06
0.0152963 0.579005 1e-06
0.0153397 0.578731 1e-06
0.015381 0.578457 1e-06
0.0154204 0.578182 1e-06
0.015458 0.577907 1e-06
0.015502 0.577567 1e-06
0.0156875 0.576038 1e-06
0.0158598 0.574508 1e-06
0.0160178 0.572976 1e-06
0.0161607 0.571443 1e-06
0.0162816 0.569978 1e-06
0.0164381 0.567795 1e-06
0.0167124 0.565623 1e-06
0.0171212 0.563473 1e-06
0.0176816 0.561356 1e-06
0.0183949 0.559332 1e-06
0.0185493 0.558991 1e-06
0.0187049 0.558651 1e-06
0.0188617 0.558311 1e-06
0.0190197 0.557971 1e-06
0.0191838 0.557622 1e-06
0.0204504 0.554953 1e-06
0.0214608 0.552177 1e-06
0.0221658 0.549307 1e-06
0.0225194 0.546374 1e-06
0.022479 0.544991 1e-06
0.0223698 0.543488 1e-06
0.0222398 0.541987 1e-06
0.0220875 0.540488 1e-06
0.0219554 0.538987 1e-06
0.0218497 0.537472 1e-06
0.0217597 0.535789 1e-06
0.0214033 0.534142 1e-06
0.0207101 0.532606 1e-06
0.0199168 0.531119 1e-06
0.0185995 0.528524 1e-06
0.0174035 0.526 1e-06
0.0160521 0.523556 1e-06
0.0146032 0.521169 1e-06
0.0130876 0.518823 1e-06
0.0110675 0.515835 1e-06
0.0109719 0.5157 1e-06
0.0108767 0.515564 1e-06
0.0107819 0.515428 1e-06
0.0106875 0.515291 1e-06
0.0105889 0.515148 1e-06
0.00853819 0.512142 1e-06
0.00649132 0.509134 1e-06
0.00445123 0.506121 1e-06
0.00242542 0.503099 1e-06
0.000534265 0.500191 1e-06
0.000427412 0.499984 1e-06
0.000320743 0.499777 1e-06
0.000214134 0.49957 1e-06
0.000107646 0.499363 1e-06
0 0.499153 1e-06
LINES 2 183
90 0 1 2 3 4 5 6 7 8 9 10 11 12 13 14 15 16 17 18 19 20 21 22 23 24 25 26 27 28 29 30 31 32 33 34 35 36 37 38 39 40 41 42 43 44 45 46 47 48 49 50 51 52 53 54 55 56 57 58 59 60 61 62 63 64 65 66 67 68 69 70 71 72 73 74 75 76 77 78 79 80 81 82 83 84 85 86 87 88 89
91 90 91 92 93 94 95 96 97 98 99 100 101 102 103 104 105 106 107 108 109 110 111 112 113 114 115 116 117 118 119 120 121 122 123 124 125 126 127 128 129 130 131 132 133 134 135 136 137 138 139 140 141 142 143 144 145 146 147 148 149 150 151 152 153 154 155 156 157 158 159 160 161 162 163 164 165 166 167 168 169 170 171 172 173 174 175 176 177 178 179 180
POINT_DATA 181
 FIELD attributes 1
p 1 181 float
3.34536e+17 3.33265e+17 3.32008e+17 3.30753e+17 3.29498e+17 3.27798e+17 3.28442e+17 3.29862e+17 3.31282e+17 3.32703e+17 3.34339e+17 3.21587e+17 3.09169e+17 2.97433e+17 2.92806e+17 2.91432e+17 2.87753e+17 2.85299e+17 2.86484e+17 2.92392e+17 2.9784e+17 3.25521e+17 3.53209e+17 3.80568e+17 4.0793e+17 4.35261e+17 4.49158e+17 4.33103e+17 4.46898e+17 4.53684e+17 4.21794e+17 4.21794e+17 4.21794e+17 4.21794e+17 4.21794e+17 4.21794e+17 4.43495e+17 4.6067e+17 4.36723e+17 4.56875e+17 4.0729e+17 4.0729e+17 4.0729e+17 4.0729e+17 4.0729e+17 4.0729e+17 4.2907e+17 4.49864e+17 4.41245e+17 4.58169e+17 3.91978e+17 3.91978e+17 3.91978e+17 3.91978e+17 3.91978e+17 3.91978e+17 4.10815e+17 4.29171e+17 4.46235e+17 4.49915e+17 4.51748e+17 4.4063e+17 4.32472e+17 4.23545e+17 3.92982e+17 4.00407e+17 4.05808e+17 4.0285e+17 3.97751e+17 3.92898e+17 4.01461e+17 4.13303e+17 4.32712e+17 4.52123e+17 4.98226e+17 4.98766e+17 4.99299e+17 5.00005e+17 5.00718e+17 5.01438e+17 5.15129e+17 5.28822e+17 5.42534e+17 5.56287e+17 5.69727e+17 5.69776e+17 5.6982e+17 5.69864e+17 5.69908e+17 5.69947e+17
-2.13221e+17 -2.12684e+17 -2.12065e+17 -2.11446e+17 -2.10782e+17 -2.10341e+17 -2.07793e+17 -2.05245e+17 -2.02806e+17 -2.00432e+17 -1.98158e+17 -1.95239e+17 -1.92471e+17 -1.8971e+17 -1.86865e+17 -1.84221e+17 -1.82196e+17 -1.80198e+17 -1.78222e+17 -1.76269e+17 -1.74336e+17 -1.7307e+17 -1.71723e+17 -1.70374e+17 -1.69208e+17 -1.68197e+17 -1.68088e+17 -1.67978e+17 -1.67867e+17 -1.67756e+17 -1.67652e+17 -1.66449e+17 -1.65109e+17 -1.637e+17 -1.6237e+17 -1.5948e+17 -1.59329e+17 -1.59179e+17 -1.59028e+17 -1.58876e+17 -1.58689e+17 -1.58389e+17 -1.58071e+17 -1.57734e+17 -1.57374e+17 -1.5701e+17 -1.55669e+17 -1.54515e+17 -1.53579e+17 -1.52898e+17 -1.52514e+17 -1.51873e+17 -1.51228e+17 -1.50583e+17 -1.49938e+17 -1.49269e+17 -1.4719e+17 -1.4534e+17 -1.43772e+17 -1.32207e+17 -1.27296e+17 -1.32577e+17 -1.37949e+17 -1.41239e+17 -1.43904e+17 -1.46431e+17 -1.59074e+17 -1.72954e+17 -1.84561e+17 -1.94798e+17 -2.124e+17 -2.08158e+17 -2.05144e+17 -2.02939e+17 -2.01302e+17 -2.04672e+17 -2.0347e+17 -2.02263e+17 -2.01057e+17 -1.99852e+17 -1.9858e+17 -1.74172e+17 -1.49771e+17 -1.25375e+17 -1.0099e+17 -7.77814e+16 -7.63759e+16 -7.49797e+16 -7.35837e+16 -7.2188e+16 -7.07821e+16
