/*--------------------------------*- C++ -*----------------------------------*\
| =========                 |                                                 |
| \\      /  F ield         | OpenFOAM: The Open Source CFD Toolbox           |
|  \\    /   O peration     | Version:  v1912                                 |
|   \\  /    A nd           | Website:  www.openfoam.com                      |
|    \\/     M anipulation  |                                                 |
\*---------------------------------------------------------------------------*/
FoamFile
{
    version     2.0;
    format      ascii;
    class       volScalarField;
    location    "0.78";
    object      nut;
}
// * * * * * * * * * * * * * * * * * * * * * * * * * * * * * * * * * * * * * //

dimensions      [0 2 -1 0 0 0 0];


internalField   nonuniform List<scalar> 
5794
(
0.000465959
0.000733343
0.0050741
0.00464206
0.0127938
0.000555365
0.00090618
0.0008109
0.00225223
0.000823327
0.00204133
0.00142553
0.00133381
0.00804399
0.00202439
0.00129248
0.00961837
0.00687025
0.00128761
0.000466345
0.00142799
0.000466739
0.00151199
0.000966868
0.000934679
0.00394764
0.0128696
0.0145975
0.00409162
0.000823376
0.00148556
0.00224018
0.00242255
0.00162066
0.00166249
0.00218349
0.000786012
0.00159118
0.00193271
0.00685539
0.00645099
0.00244407
0.000742794
0.000941238
0.00182196
0.00233674
0.00195589
0.00115024
0.000722171
0.000426563
0.000776899
0.00302383
0.000754954
0.00213653
9.82383e-05
0.00233777
0.00199139
0.00157958
0.000729748
0.00525786
0.00132301
0.000515355
0.00128225
0.00530551
0.0057383
0.000742255
0.00471035
0.00067269
0.00549784
0.000594977
0.00628944
0.004353
0.0151161
0.000921197
0.00578695
0.011156
0.000441583
0.00350079
0.000849609
0.00023618
0.000438714
0.000487988
0.0082488
0.00178259
0.00154386
0.00090083
0.000709711
0.00101738
0.00202058
0.00283617
0.00500633
0.00206167
0.00344137
0.00548181
0.00259598
0.00814074
0.00394957
0.00319145
0.00195493
0.00142045
0.00140872
0.0012458
0.00075362
0.0123475
0.00226669
0.0121131
0.000455449
0.00409861
0.00516986
0.000758848
0.00106201
0.000655095
0.00131542
0.00158271
0.00234313
0.00412835
0.00212008
0.00588101
0.001233
0.001011
0.00810006
0.000258962
0.000708576
0.0129384
0.00125786
0.00359287
0.0037832
0.000730978
0.00355399
0.00391482
0.00184257
0.00164866
0.00345625
0.00330881
0.0105779
0.00225025
0.0029138
0.000569047
0.00385653
0.00124446
0.000945061
0.0136096
0.00123426
0.0144567
0.00535401
0.0125155
0.00186064
0.00144736
0.00963994
0.00806833
0.00072602
0.00194441
0.0116341
0.000867895
0.0135788
0.00171528
0.00172313
0.0010112
0.00214644
0.00140288
0.000446613
0.000732149
0.000437308
0.000749563
0.00198178
0.00192776
0.000654015
0.000610647
0.000420289
0.000248084
0.000399294
0.00196449
0.000546262
0.000533749
0.000473703
0.00120104
0.000332319
0.000788721
0.000548123
0.0018965
0.000734944
0.00122121
0.00065779
0.00154733
0.000722741
0.00366845
0.00116092
0.00111845
0.00040915
0.000851125
0.00166175
0.00147235
0.0017198
0.000905468
0.00086824
0.000891148
0.000560563
0.000354243
0.00057302
0.00100926
0.000861237
0.0021069
0.00105758
0.000837377
0.00166342
0.00201961
0.000677752
0.00573204
0.0125884
0.00194201
0.000744184
0.000857697
0.00238338
0.0015861
0.00133277
0.00161381
0.00196121
0.00401493
0.0035373
0.00572843
0.000856379
0.00225286
0.00836791
0.00369104
0.00232734
0.00660448
0.000674263
0.00174374
0.00108486
0.00241405
0.000898134
0.000782555
0.00130966
0.0036895
0.00291288
0.0104135
0.0130862
0.00201096
0.000916474
0.000564384
0.000548724
0.00755943
0.00224821
0.00146826
0.00139912
0.00241433
0.00170484
0.0084269
0.00113683
0.000955296
0.000670882
0.000703286
0.01202
0.000583705
0.000809745
0.0206395
0.000905196
0.00088067
0.00383348
0.00113472
0.00247347
0.00227687
0.00143442
0.000741271
0.00117608
0.00128595
0.0111681
0.00365722
0.000825677
0.0029216
0.00260675
0.00112839
0.00252433
0.00522458
0.000868254
0.00191852
0.00215123
0.000980466
0.00150377
0.00121092
0.000509692
0.00322468
0.00422222
0.00150202
0.00481559
0.00528035
0.00240558
0.00302786
0.00534185
0.00839425
0.00176265
0.00118644
0.00185013
0.0021934
0.000771048
0.00313398
0.0022293
0.00107589
0.00255795
0.000987376
0.00041335
0.000981472
0.000361871
0.00302226
0.000822156
0.00308557
0.00126998
0.00419111
0.00251908
0.00220682
0.00108079
0.00279029
0.00223613
0.00165995
0.000782854
0.000903115
0.00503802
0.0152547
0.00463998
0.00426254
0.00545845
0.00121614
0.0048856
0.0119064
0.00173208
0.00195051
0.00100931
0.00116387
0.00112329
0.00187532
0.00179937
0.000821956
0.000831517
0.00150548
0.00137347
0.000497511
0.000491731
0.000355799
0.000347202
0.000915332
0.000537823
0.000692539
0.00232049
0.0010906
0.000441353
0.000605883
0.00171877
0.00127329
0.00225784
0.00155562
0.00203255
0.00248589
0.00148999
0.00123347
0.000723055
0.00254127
0.000419622
0.00190129
0.000889218
0.000558248
0.00569932
0.00249757
0.002913
0.00125448
0.000956018
0.00326105
0.00177765
0.00156509
0.00128499
0.0010813
0.00231168
0.000480401
0.00353671
0.00296276
0.00644543
0.00304758
0.00168959
0.00152701
0.00174803
0.000954285
0.00521845
0.00217144
0.000749991
0.00174757
0.0013848
0.00144969
0.00671947
0.00210805
0.00203252
0.00070795
0.00066501
0.00167695
0.000448158
0.00116604
0.000510817
0.000492268
0.00047539
0.000994317
0.00123787
0.00151323
0.000922121
0.0010564
0.0137523
0.000472773
0.00037033
0.00255249
0.000941202
0.000525921
0.000485802
0.00406098
0.00336675
0.00196015
0.00445118
0.00118584
0.00175762
0.00144552
0.000668316
0.0053713
0.00196694
0.0034774
0.00184907
0.00293052
0.00524702
0.00236139
0.000686114
0.000672884
0.00051396
0.00139216
0.000554212
0.00069173
0.00294839
0.000784111
0.0131545
0.00198882
0.00155703
0.00134513
0.00089491
0.00123346
0.00109417
0.0010026
0.00094512
0.000805373
0.000906233
0.000931491
0.001001
0.00467072
0.00248085
0.00283379
0.000791459
0.00258627
0.000542299
0.000555425
0.00185596
0.000728949
0.00494713
0.000564939
0.00450256
0.0084583
0.00338196
0.00724759
0.000783012
0.000651874
0.000610944
0.00259694
0.00152559
0.00395656
0.0101791
0.0179786
0.00533224
0.000848333
0.000171143
0.0134442
0.00446588
0.00206958
0.00171545
0.00310967
0.019177
0.0153593
0.000929716
0.000624562
0.00087044
0.000920832
0.000666813
0.00132515
0.00534615
0.00344953
0.000861251
0.0010875
0.00274757
0.000721695
0.000615578
0.00442457
0.00414205
0.0103055
0.000863411
0.00125461
0.000969593
0.00234861
0.0014669
0.00232531
0.0180473
0.0181926
0.000728563
0.00165936
0.0147506
0.0006771
0.000695442
0.00109628
0.00488541
0.000761994
0.00814178
0.00107635
0.00676825
0.000642782
0.00158374
0.00222958
0.00380762
0.000636574
0.000804883
0.013728
0.000545988
0.000691637
0.01533
0.0065538
0.00453104
0.000717457
0.00102998
0.00213729
0.000497239
0.000564608
0.000986528
0.000291719
0.0095675
0.0024223
0.00302448
0.00117658
0.000785286
0.00294806
0.00394904
0.00205058
0.000616732
0.00221494
0.000451945
0.00590231
0.00115367
0.00148575
0.000754817
0.0145622
0.00129145
0.000427995
0.0135102
0.0011723
0.000392129
0.000824839
0.000836965
0.00113561
0.000994773
0.000508164
0.000463661
0.0103304
0.0178942
0.000504096
0.00328031
0.00220803
0.00636208
0.000825091
0.000792268
0.00530433
0.000231305
0.000837436
0.00164082
0.00283988
0.00147945
0.00133623
0.00150024
0.000859002
0.0177489
0.00382256
0.00132659
0.00360653
0.00490303
0.00243109
0.0077658
0.0074788
0.00338362
0.00136296
0.00116473
0.00446112
0.00226818
0.00483811
0.000790236
0.000889508
0.000679934
0.00537879
0.00247924
0.00320524
0.00072653
0.000831126
0.000737282
0.00209649
0.000814971
0.00177325
0.00261373
0.00562583
0.0008063
0.00283243
0.00348335
0.000477218
0.000112903
0.0051416
0.0192811
0.0212898
0.0124292
0.000703804
0.000808077
0.000763115
0.00213599
0.00104051
0.00086454
0.00164465
0.000285701
0.00327951
0.00408023
0.00548078
0.000410458
0.000750395
0.00358702
0.0113773
0.00611846
0.00104694
0.00068888
0.00074005
0.00024706
0.000557855
0.00070141
0.000723745
0.0039229
0.000808986
0.00178597
0.015342
0.00104428
0.000835392
0.00396522
0.00238869
0.00279526
0.00539275
0.00238381
0.00101053
0.00209889
0.000611514
0.000384046
0.00100971
0.00244293
0.000585778
0.000665151
0.002999
0.0148351
0.00244313
0.00203197
0.00505535
0.000859785
0.000538911
0.000905855
0.00102911
0.000580826
0.0030058
0.00563778
0.00549481
0.00242485
0.0027571
0.00199647
0.0010948
0.0122411
0.0014402
0.00149225
0.00279724
0.00590223
0.00127151
0.0127702
0.000781099
0.00054057
0.00507292
0.00228188
0.00217354
0.0111798
0.00275433
0.00405484
0.00238072
0.00171526
0.000614865
0.00643202
0.00823001
0.0037631
0.00320271
0.00189678
0.00192923
0.00619059
0.000293572
0.000795617
0.000769532
0.000360046
0.000656787
0.000275245
0.000937291
0.00972747
0.00328044
0.00250047
0.000884908
0.00241363
0.00691144
0.00109423
0.00780926
0.00351732
0.00319846
0.00443938
0.000775158
0.000733337
0.01635
0.00306233
0.00617636
0.00758171
0.00417864
0.00305353
0.00246252
0.0193969
0.00112245
0.000799094
0.000818465
0.00803359
0.000954415
0.00282827
0.00288192
0.00645366
0.00220696
0.00202237
0.00246081
0.00620594
0.00451517
0.00205888
0.00341979
0.00459603
0.000245209
0.000257735
0.000227932
0.000486949
0.00489782
0.00240302
0.00459588
0.000669069
0.000802842
0.000779105
0.000835394
0.00204172
0.000603189
0.0025374
0.00522229
0.000755676
0.00598053
0.00271805
0.000708467
0.000956615
0.0196503
0.00495277
0.00298997
0.00590536
0.00590786
0.00267402
0.00344035
0.00111005
0.00407321
0.00218316
0.00456829
0.0077715
0.0023679
0.00310691
0.000770292
0.000696727
0.000825357
0.0149639
0.000481634
0.00636363
0.015559
0.000735571
0.00057893
0.00063158
0.00512399
0.00255306
0.00659291
0.00528073
0.00248655
0.0047038
0.00571103
0.00699471
0.00400136
0.00101775
0.0026883
0.000573887
0.0026278
0.000744235
0.00369089
0.000862943
0.00551069
0.00486933
0.00114038
0.000722977
0.0021977
0.00632735
0.00559417
0.00303864
0.00882885
0.00338066
0.000954296
0.000992372
0.00106632
0.0102175
0.00145124
0.00243066
0.00303674
0.00805493
0.000487742
0.000488524
0.00104511
0.00134944
0.0144467
0.00122601
0.000768511
0.00215034
0.00168064
0.00138614
0.00234758
0.00479699
0.00475093
0.000771306
0.00232523
0.00770392
0.00137373
0.00375358
0.017041
0.000253991
0.000145837
0.00037321
0.000452967
0.00460423
0.00567454
0.000874974
0.00132751
0.000915175
0.000712798
0.000839192
0.0215338
0.00267
0.00583205
0.00170515
0.00231626
0.00351784
0.00293683
0.0134292
0.00452047
0.00153246
0.000673503
0.000753604
0.0107307
0.000841172
0.00258678
0.0076405
0.00374723
0.00440766
0.00395774
0.00168519
0.0108464
0.00414357
0.000772996
0.00302636
0.000562046
0.00426331
0.002033
0.00224071
0.00325627
0.000808554
0.000752625
0.0006077
0.00440015
0.00384635
0.000893062
0.000751689
0.00237343
0.00110634
0.00390403
0.000700004
0.000799232
0.00268205
0.00164772
0.00296159
0.00598613
0.00401811
0.00622879
0.0104257
0.000718339
0.000623484
0.00472845
0.00104069
0.0010284
0.00058782
0.000576468
0.00206471
0.000434665
0.00079005
0.00095523
0.00736607
0.00346682
0.00424303
0.000845844
0.00305752
0.00560685
0.017842
0.00206338
0.00330962
0.000784683
0.000775621
0.0168004
0.00104311
0.00297917
0.000839977
0.00136251
0.00101943
0.00153083
0.000224627
0.00196278
0.0012587
0.000530552
0.000403406
0.000352521
0.000196613
0.000226724
0.000659549
0.0154532
0.0129058
0.00321404
0.0018422
0.00280286
0.0112651
0.000750148
0.000504144
0.000499056
0.00573343
0.00101865
0.0192029
0.00613892
0.00227095
0.000785603
0.00755404
0.00159292
0.000604073
0.000744852
0.0215067
0.00576318
0.000834168
0.00107725
0.000877981
0.00354396
0.00172683
0.013352
0.000772004
0.00052129
0.00052526
0.000636934
0.00056471
0.00187576
0.00162802
0.000819276
0.000462599
0.000830033
0.000789283
0.00913498
0.000782511
0.00138771
0.00101543
0.00162319
0.000831597
0.000901705
0.00112082
0.00107413
0.00066021
0.000942138
0.000756558
0.00109898
0.000809955
0.00184051
0.00475967
0.000909897
0.000833688
0.00248775
0.00150437
0.000830225
0.00204718
0.000776659
0.0203664
0.00210954
0.000928349
0.000825719
0.000874819
0.0151596
0.000964967
0.0025246
0.00260209
0.00536436
0.000800382
0.000866874
0.000870066
0.000804368
0.000827975
0.00120392
0.00180583
0.00168936
0.00149904
0.00016641
0.00219458
0.00144252
0.00106392
0.0010831
0.00157634
0.000464296
0.000720188
0.000605007
0.00108963
0.000746703
0.0143391
0.00079614
0.00620004
0.000789942
0.0007832
0.000736287
0.000957681
0.000788076
0.000720754
0.00822478
0.0147209
0.00429597
0.000533865
0.000826694
0.00278908
0.00102901
0.00118756
0.00129607
0.00236871
0.00509216
0.0011421
0.00682924
0.000492905
0.000841484
0.0060712
0.000785896
0.0158438
0.000723023
0.000568271
0.00281453
0.00776446
0.000702863
0.00328591
0.000627463
0.000534271
0.000741728
0.00058822
0.00077424
0.000744707
0.00083036
0.000857969
0.000702222
0.000945967
0.000844389
0.00095791
0.0042469
0.000970057
0.000723082
0.00549521
0.00248936
0.00075924
0.00067826
0.00748329
0.00249431
0.00679805
0.0091548
0.000927519
0.001151
0.000317666
0.0163949
0.00186225
0.00430265
0.00185047
0.0189001
0.00247691
0.000200654
0.00109336
0.000410599
0.000651297
0.00217228
0.000364907
0.0011295
0.00110307
0.000259863
0.00108134
0.000169922
0.000223012
0.000566387
0.00068943
0.000588386
0.00643165
0.00390382
0.00601166
0.000378121
0.0013028
0.00117147
0.000500064
0.000752961
0.000789551
0.00813398
0.000808403
0.0035647
0.00103076
0.000746466
0.000990874
0.0210869
0.0126412
0.000574263
0.00426374
0.00728741
0.00491311
0.00755814
0.000744651
0.00675925
0.00508158
0.00307414
0.000935146
0.00957642
0.000726273
0.000726371
0.00123868
0.00134909
0.00114459
0.000925073
0.0133172
0.00107038
0.000904245
0.00336393
0.0047031
0.00480535
0.000764964
0.000655142
0.00109314
0.000901196
0.00116879
0.000773581
0.0160114
0.00130215
0.00608068
0.00250428
0.00589473
0.00138057
0.00153175
0.00255698
0.00258393
0.00101359
0.00102758
0.000586075
0.00117874
0.000747367
0.0203624
0.00086679
0.000853201
0.00075481
0.000903737
0.000832277
0.000776253
0.000868179
0.000748406
0.00304127
0.00101271
0.0130653
0.000730721
0.000744795
0.000639246
0.000710431
0.00170112
0.0102133
0.00169319
0.000880649
0.000688149
0.000768542
0.00274602
0.000781062
0.000704951
0.00089007
0.000738908
0.0008437
0.00100384
0.000625862
0.00725538
0.000578961
0.0124478
0.000849478
0.00123414
0.000645035
0.000435541
0.000706366
0.00331842
0.00118344
0.00073853
0.000798159
0.000734321
0.00103256
0.00160165
0.0011759
0.00162685
0.000812534
0.00154134
0.00131728
0.00442903
0.00603227
0.00347576
0.000828439
0.000178628
0.00747633
0.00130554
0.00599384
0.00669567
0.000477341
0.000853983
0.00110087
0.00283865
0.000243582
0.0145254
0.00611084
0.00111132
0.0104683
0.00502209
0.00130893
0.000502366
0.00744
0.0198882
0.00942703
0.00128792
0.0014993
0.00166332
0.00285053
0.000835905
0.000678818
0.000516106
0.000783538
0.00282378
0.00189333
0.000377947
0.00698202
0.00112604
0.000535287
0.000552359
0.00396335
0.0142533
0.00119675
0.0025459
0.00587671
0.0089811
0.0154451
0.00232493
0.00218355
0.000794809
0.00542205
0.00226776
0.0073272
0.00554739
0.00232151
0.00400324
0.00525383
0.0112253
0.00456619
0.0161638
0.00324517
0.0015234
0.00116522
0.017638
0.00192202
0.00370378
0.00492481
0.00357348
0.00289219
0.00713009
0.00766294
0.00659293
0.0152152
0.00176605
0.000381774
0.000806466
0.00716411
0.000878723
0.00377217
0.00174066
0.00083085
0.00424973
0.00348873
0.00700228
0.000623027
0.00986983
0.00202667
0.00276878
0.00321402
0.00115007
0.00106048
0.000888691
0.013155
0.00114729
0.00105967
0.000948836
0.0168956
0.000808066
0.00139653
0.00840689
0.00821517
0.00233094
0.00184179
0.0123687
0.00133908
0.000785979
0.000140672
0.00711381
0.00349733
0.00818417
0.00677784
0.000919304
0.00104039
0.00554985
0.00585965
0.000953531
0.00151995
0.00133514
0.00152196
0.00110905
0.0060612
0.00189584
0.00234725
0.00576444
0.00151264
0.00678027
0.000997444
0.0011683
0.00106445
0.00151285
0.00260532
0.000997359
0.00104432
0.00145941
0.00125273
0.000331245
0.00193192
0.000657616
0.000822389
0.00774905
0.0027581
0.00546687
0.00130491
0.00540833
0.00518746
0.0064133
0.000936324
0.00231123
0.0017897
0.00111574
0.000246305
0.000184488
0.000218651
0.0174038
0.000826269
0.00265326
0.00200223
0.00390906
0.00373779
0.00159622
0.000265381
0.000274284
0.000301053
0.000432821
0.000377693
0.000383616
0.000213923
0.000353275
0.000322491
0.000572734
0.000364905
0.000417478
0.000310923
0.000232667
0.000253925
0.000452571
0.000479075
0.000254722
0.000293906
0.000245454
0.000379784
0.000203532
0.000245918
0.000161257
0.000839763
0.000303331
0.000403435
0.000171195
0.000378507
0.000308351
0.000430279
0.000425092
0.000333985
0.00016568
0.000229025
0.000401364
0.000271901
0.000253806
0.000386644
0.00054364
0.000252516
0.000267014
0.000419634
0.000417796
0.00199023
0.00176058
0.0117309
0.00097188
0.00722977
0.0029518
0.00552767
0.0140034
0.00136244
0.000863715
0.00084232
0.00159778
0.00259545
0.00569739
0.0182041
0.0174825
0.00568978
0.00242644
0.00104334
0.000891225
0.00125747
0.00132732
0.000215353
0.00522271
0.00181681
0.00457577
0.00204544
0.00672916
0.00482034
0.00352259
0.00491481
0.011789
0.00627353
0.0183432
0.00238957
0.00221223
0.00318152
0.000759046
0.0155928
0.000985729
0.00152285
0.00813915
0.00233528
0.00443325
0.00431091
0.00167677
0.00135798
0.000841914
0.000848843
0.0165251
0.00213892
0.000396981
0.000273035
0.00787399
0.0150593
0.00022794
0.00360425
0.00698999
0.000419051
0.00031787
0.000221557
0.000262115
0.000464671
0.000287367
0.000521658
0.000340785
0.000315916
0.000446544
0.000507179
0.00042511
0.000247763
0.000424115
0.000242804
0.000272196
0.000403255
0.00024473
0.000244426
0.000216748
0.000192007
0.000285186
0.000264756
0.00349561
0.00271911
0.000431971
0.000882128
0.00830195
0.000848691
0.01037
0.000762126
0.00291489
0.01429
0.00338498
0.00285328
0.0150242
0.00605361
0.000213353
0.0150053
0.00205715
0.00112356
0.021116
0.00505699
0.0139551
0.000540206
0.0140921
0.00170916
0.0010762
0.0137159
0.000896894
0.00360813
0.00197719
0.00107478
0.0012747
0.00599394
0.000759362
0.00921342
0.0170764
0.00202727
0.00761996
0.000594497
0.0107772
0.00175227
0.0017692
0.00071011
0.00581236
0.00116752
0.00163833
0.00462506
0.00104381
0.00747141
0.000834636
0.00295844
0.000640133
0.00744898
0.00714011
0.021687
0.000165317
0.000771853
0.00101871
0.00774449
0.00286603
0.000311349
0.000636967
0.00661773
0.00435427
0.0135848
0.000832668
0.00156784
0.00223644
0.00105914
0.00363108
0.000838385
0.00748472
0.000662139
0.000162476
0.000213054
0.0098909
0.00667299
0.000790146
0.00436212
0.00507094
0.00279978
0.0138718
0.0181825
0.0115659
0.014179
0.014041
0.00106466
0.00826042
0.000765415
0.00200151
0.00196522
0.00697806
0.000722852
0.000879335
0.00112869
0.0156062
0.000715333
0.00149405
0.0017138
0.00254834
0.00312985
0.0096241
0.0144643
0.00947486
0.00375204
0.000830449
0.014624
0.000533222
0.00208205
0.00199509
0.00120871
0.0114783
0.0162365
0.00325663
0.0147508
0.00284336
0.00815312
0.00143849
0.00115749
0.00211318
0.00276688
0.00100609
0.00172093
0.00182246
0.0127278
0.00103588
0.00168165
0.00389752
0.00359645
0.00143693
0.00523501
0.00141376
0.0141839
0.00540448
0.00694859
0.00446541
0.0016336
0.00112687
0.00217388
0.00361299
0.00154562
0.00168145
0.00269737
0.0149116
0.0146514
0.0102697
0.0105238
0.0145314
0.0107646
0.0145112
0.000750717
0.0145757
0.0147503
0.0112303
0.0117245
0.0150434
0.0111246
0.014428
0.0151957
0.0147043
0.00170353
0.00167795
0.00161605
0.0141366
0.00128775
0.00145173
0.00118199
0.00111757
0.000198357
0.00022986
0.00622187
0.0128313
0.00646554
0.00214453
0.0025377
0.00856929
0.0124712
0.00714099
0.00291128
0.00104595
0.00113938
0.00112319
0.00272441
0.00876819
0.00217014
0.00147791
0.00176789
0.00557697
0.00455778
0.00321119
0.00144369
0.00641993
0.00182557
0.000579712
0.00391997
0.000278119
0.00596658
0.00118985
0.00141497
0.00110527
0.00138044
0.00264154
0.00277223
0.0024877
0.00435039
0.00466689
0.00107693
0.0029391
0.0114847
0.00274363
0.00271262
0.00305858
0.00419038
0.00964457
0.00140228
0.0021442
0.0096684
0.00487173
0.0030227
0.00264053
0.00107897
0.00316139
0.0108007
0.00333626
0.00209953
0.00243738
0.00214163
0.00562118
0.00113685
0.0162786
0.002606
0.00105517
0.00144866
0.00220987
0.00514233
0.000980611
0.00119059
0.00306177
0.00573522
0.00208
0.0156556
0.00975546
0.00189453
0.0105395
0.00187286
0.00176749
0.00270307
0.00114347
0.00291672
0.00116416
0.0150651
0.00304492
0.00198551
0.00137977
0.00794705
0.0143922
0.00153705
0.00147324
0.00612722
0.00587054
0.00294325
0.00214949
0.00142136
0.00120785
0.00672088
0.00614871
0.00530661
0.0138757
0.0139546
0.00144241
0.00476163
0.000544415
0.00169505
0.00428598
0.00159729
0.00121563
0.00171173
0.00131
0.0026269
0.00146676
0.00489082
0.000506864
0.00599654
0.00373768
0.00125223
0.00434029
0.0023767
0.0069647
0.0011462
0.00194418
0.00130154
0.00824179
0.00702372
0.00179617
0.00244217
0.00183242
0.00153013
0.00126793
0.00359282
0.00305581
0.00626449
0.0065425
0.000365296
0.000757439
0.00072878
0.00512075
0.000982936
0.00133927
0.00626713
0.00702603
0.00467155
0.00148124
0.00138749
0.00609311
0.00480813
0.00641292
0.0011116
0.00701048
0.00599624
0.00552321
0.00034635
0.0057703
0.00888856
0.0139667
0.00479115
0.00885905
0.00621741
0.00350783
0.00502136
0.00802968
0.000841111
0.00316674
0.0075159
0.00523979
0.00554607
0.00639438
0.00580761
0.0089921
0.000650554
0.00314051
0.00476091
0.00743432
0.00234416
0.00266645
0.00901494
0.00809532
0.00679996
0.00194583
0.00410435
0.00488785
0.000838662
0.0087054
0.00137024
0.00823455
0.00147575
0.00246626
0.00136087
0.000436724
0.00589031
0.00140622
0.00663227
0.00136914
0.00124795
0.007372
0.0055294
0.00417674
0.00562448
0.00296536
0.00176504
0.00110367
0.00408281
0.000621518
0.00174875
0.00169778
0.00210346
0.00055128
0.00433605
0.000495878
0.0137226
0.00127628
0.00206206
0.00160131
0.00183159
0.00162227
0.0022206
0.00141927
0.00155369
0.00525261
0.00149837
0.00175726
0.00136597
0.00679296
0.00188606
0.00141798
0.0017516
0.00540911
0.00471949
0.00160763
0.00547465
0.00292265
0.00122264
0.00265841
0.000784628
0.0131674
0.000865336
0.00205706
0.00158457
0.0100173
0.000842001
0.00239918
0.00207375
0.00871096
0.00145477
0.00158261
0.00887528
0.00213589
0.00124743
0.00168695
0.00148459
0.000799913
0.00115712
0.00585973
0.00255835
0.00209207
0.0128928
0.0143788
0.000952354
0.000738671
0.00143675
0.00167123
0.00620871
0.00107413
0.00402823
0.0042184
0.00181049
0.00129279
0.00732181
0.00210193
0.00494585
0.00535706
0.00132434
0.00107767
0.00143597
0.00390063
0.00105181
0.00180088
0.00181979
0.0114727
0.00577722
0.0052929
0.0107516
0.00196293
0.00128147
0.00520173
0.00900976
0.00166422
0.00869659
0.00197833
0.00116149
0.001798
0.00507313
0.00651326
0.00125036
0.0062522
0.00256083
0.00251455
0.00376832
0.00169647
0.00447628
0.000380875
0.00204312
0.00240715
0.0140555
0.000983808
0.00108637
0.00830772
0.000799633
0.000824049
0.0117564
0.000415329
0.00206414
0.000997216
0.00159981
0.00174007
0.00795417
0.00391257
0.00691405
0.00632567
0.00281591
0.00316046
0.00114142
0.00760992
0.00489255
0.000279088
0.000281889
0.000527775
0.000791079
0.000769357
0.0106648
0.00216074
0.000994135
0.00160068
0.00358474
0.00473689
0.00147089
0.000278642
0.0112771
0.00991589
0.00196036
0.000640073
0.00301238
0.00224644
0.00621841
0.000427941
0.00275978
0.0121879
0.00100632
0.00161456
0.00191533
0.00914087
0.00545933
0.00123031
0.0018566
0.0108369
0.00394786
0.00231179
0.00157567
0.00175585
0.000644343
0.000837183
0.00525352
0.00544188
0.00590387
0.00589127
0.0121956
0.00550617
0.00185063
0.00174242
0.00166932
0.0138274
0.0129451
0.0137097
0.0123745
0.0106902
0.00617852
0.00369156
0.00457864
0.00299934
0.00148366
0.00950765
0.0116738
0.0114221
0.00240669
0.0127603
0.0061699
0.00632147
0.00547206
0.000609043
0.00618551
0.00204872
0.000942247
0.00166762
0.00329032
0.00344718
0.00274506
0.00568694
0.00771475
0.00122754
0.0139409
0.00666508
0.0083653
0.00501005
0.00191145
0.00123393
0.00102995
0.00113886
0.000721385
0.000773391
0.000743634
0.00957195
0.00222133
0.000792306
0.00139582
0.00336726
0.00502421
0.00505771
0.00224823
0.00618503
0.003324
0.00205199
0.00731036
0.00451028
0.00135955
0.00190246
0.0016096
0.000269392
0.00278697
0.000597232
0.00131614
0.0142629
0.000957175
0.0014531
0.00169118
0.00579964
0.00121958
0.00427874
0.00903916
0.00199357
0.00170715
0.00538116
0.00539208
0.00421639
0.00717726
0.00165424
0.0112523
0.00413261
0.00703566
0.0140304
0.00898365
0.00232502
0.00343789
0.00105742
0.00738333
0.00897752
0.00306198
0.00164436
0.000807209
0.000739632
0.00110003
0.00216256
0.00714868
0.000939022
0.000853225
0.00769976
0.00636141
0.00595594
0.00320792
0.00129575
0.00756411
0.00778952
0.00186104
0.00162758
0.00316055
0.00477091
0.0149494
0.00589516
0.0122547
0.00154155
0.00637203
0.00212701
0.00644146
0.0111974
0.00226554
0.00337277
0.00256369
0.00520303
0.00512499
0.00185492
0.000277813
0.000239924
0.00845553
0.00625289
0.00830843
0.00454666
0.00991146
0.0076036
0.000795671
0.00465079
0.00893292
0.00349041
0.00464668
0.00725852
0.00759543
0.00208781
0.00092435
0.00149293
0.0125029
0.00156429
0.0106947
0.00196914
0.000695919
0.0108649
0.00160421
0.00171139
0.00941858
0.0145269
0.0131072
0.0149123
0.000391337
0.00107869
0.00455503
0.00804722
0.0134192
0.0135463
0.00252054
0.00823771
0.00246915
0.00125739
0.00353705
0.00253601
0.00962914
0.00590596
0.0144648
0.00366483
0.0013587
0.00794401
0.00400504
0.00481272
0.00185406
0.00345551
0.00818221
0.00127085
0.00228832
0.00592334
0.00765493
0.0114221
0.00166313
0.00251402
0.0120289
0.00103969
0.000757718
0.0018069
0.00886092
0.00931861
0.00508915
0.0031639
0.00110166
0.00113499
0.00653702
0.00160668
0.00778723
0.00843883
0.00388488
0.00607738
0.00252995
0.00330316
0.00885995
0.0130052
0.00639443
0.00169529
0.00252293
0.00175201
0.00114627
0.00381747
0.00121085
0.00245973
0.0143982
0.0132894
0.0144849
0.00922563
0.012711
0.00196343
0.0055472
0.00149291
0.0106418
0.0200849
0.0134599
0.00879698
0.000740602
0.00196598
0.00909342
0.0111183
0.00800252
0.0059559
0.00248703
0.00518807
0.00198269
0.00279614
0.00105832
0.000307323
0.0131997
0.00130313
0.00750662
0.000876195
0.00797671
0.00580582
0.00242207
0.00654542
0.00791113
0.0011513
0.0076518
0.0128659
0.00282029
0.000491594
0.0111789
0.00652113
0.00572752
0.00229151
0.000803435
0.000813662
0.00363887
0.0155955
0.0117045
0.00293902
0.00703809
0.0111518
0.000949948
0.00459623
0.00545089
0.00409475
0.000702033
0.00319579
0.0116404
0.00411623
0.00595887
0.0055861
0.0155074
0.00661635
0.00100395
0.00125341
0.00101352
0.00319156
0.000797661
0.00650982
0.00334603
0.0104901
0.00131481
0.00142466
0.000920469
0.0125615
0.00621018
0.0139641
0.00408596
0.000991598
0.00328961
0.00586749
0.00472723
0.000823409
0.011645
0.00260973
0.00156162
0.00165075
0.000789946
0.0135356
0.000994281
0.015564
0.00903428
0.000894971
0.00898533
0.000794881
0.0147028
0.00996565
0.00129916
0.00212126
0.00271416
0.0154615
0.000848176
0.00078005
0.000769913
0.00337051
0.000730086
0.0013377
0.00933681
0.00537329
0.00768861
0.00411047
0.00665069
0.00101753
0.0141425
0.00836442
0.00200668
0.000739409
0.00425365
0.00825451
0.000214905
0.000186117
0.000250809
0.015028
0.00212512
0.015981
0.00492006
0.0049397
0.00977908
0.0132055
0.00204872
0.0031997
0.00666468
0.00499471
0.00243917
0.00458179
0.00119741
0.0106369
0.00145564
0.00207636
0.000832676
0.00147581
0.00262241
0.00230939
0.00472323
0.00305639
0.00221032
0.0150608
0.00630538
0.00707235
0.00752629
0.00168612
0.00116443
0.00346244
0.00200196
0.0132569
0.00574883
0.0135465
0.00855652
0.00190067
0.000963803
0.00135718
0.00349411
0.00127676
0.0079797
0.0020387
0.00114577
0.00258938
0.0095958
0.00362979
0.0144688
0.000935027
0.0100629
0.00349492
0.00302746
0.00169729
0.0059445
0.00553651
0.00271648
0.00141234
0.00499225
0.00616501
0.00163718
0.00202852
0.0149292
0.0111292
0.0059988
0.00653351
0.00616752
0.0193684
0.0142256
0.00168829
0.00232031
0.00366499
0.00190561
0.00386681
0.0131384
0.0133339
0.000744413
0.00917245
0.00187666
0.00256847
0.00187809
0.00400735
0.00375795
0.0041494
0.000518714
0.00753207
0.00715347
0.00191541
0.00230908
0.00374798
0.00590426
0.00354662
0.00263346
0.000569762
0.00249929
0.012289
0.00771383
0.00391905
0.00221174
0.00642829
0.000915043
0.00107222
0.00112023
0.001213
0.00109654
0.0017809
0.00127356
0.00180699
0.0162123
0.000611352
0.00143532
0.0011769
0.000932628
0.0065601
0.00175203
0.000779267
0.00111746
0.00502439
0.00241805
0.00134409
0.0011617
0.000925302
0.00139853
0.000910745
0.00129394
0.00847995
0.00514573
0.000804287
0.0059672
0.00142199
0.00370193
0.0113736
0.0058364
0.00762162
0.000898234
0.00136874
0.000164499
0.000320583
0.00210034
0.0149431
0.00210191
0.0157498
0.00499094
0.00181039
0.00730579
0.00180737
0.000805139
0.00299223
0.00491383
0.00595284
0.00792619
0.00196602
0.000892899
0.00128141
0.000732977
0.00125932
0.0127649
0.00185265
0.00247933
0.00716189
0.000484127
0.00669563
0.00305971
0.00108786
0.00227476
0.0104366
0.0126882
0.0137427
0.0111204
0.00120923
0.000884031
0.00485129
0.0126966
0.00697245
0.00843366
0.00386554
0.00743006
0.00119678
0.000806287
0.000811597
0.00847282
0.00642052
0.00185561
0.0018872
0.000819118
0.0017863
0.00705774
0.00179071
0.00299076
0.00745489
0.0142522
0.0143819
0.0011549
0.0144572
0.00121539
0.0138779
0.00490746
0.0059612
0.00172955
0.00476815
0.00153715
0.00705093
0.0136741
0.0122667
0.00123418
0.00111009
0.000899837
0.00127191
0.000654257
0.00118055
0.002121
0.00360393
0.00755274
0.00641892
0.00233526
0.000788502
0.0139157
0.000766259
0.00112813
0.00683776
0.014914
0.00657685
0.00221879
0.00830739
0.00557049
0.000820286
0.000841075
0.00473876
0.00232929
0.0123504
0.000944377
0.00820555
0.00637081
0.00128964
0.00649606
0.000992697
0.00122783
0.000720641
0.000511047
0.000282549
0.00104128
0.00092172
0.00101422
0.000827469
0.000201089
0.000167599
0.000247244
0.0157654
0.0156679
0.000848074
0.00864545
0.00322072
0.00673946
0.00812386
0.00629821
0.00479988
0.0135632
0.0106967
0.00426124
0.0042873
0.00411735
0.00963166
0.0026599
0.001042
0.000968081
0.00150567
0.00120083
0.0010183
0.000821858