/*--------------------------------*- C++ -*----------------------------------*\
| =========                 |                                                 |
| \\      /  F ield         | OpenFOAM: The Open Source CFD Toolbox           |
|  \\    /   O peration     | Version:  v1912                                 |
|   \\  /    A nd           | Website:  www.openfoam.com                      |
|    \\/     M anipulation  |                                                 |
\*---------------------------------------------------------------------------*/
FoamFile
{
    version     2.0;
    format      ascii;
    class       volScalarField;
    location    "0.68";
    object      p;
}
// * * * * * * * * * * * * * * * * * * * * * * * * * * * * * * * * * * * * * //

dimensions      [0 2 -2 0 0 0 0];


internalField   nonuniform List<scalar> 
1431
(
96.0061
93.9762
94.3475
95.3682
91.1641
94.3489
97.2682
36.232
96.7496
97.3013
45.1276
42.276
98.2728
88.2236
92.5821
97.3171
89.5963
95.4941
91.4393
93.2719
40.4877
87.9787
96.7734
20.5341
96.2688
98.3098
50.9727
93.2422
95.8448
88.5083
91.1124
96.7974
91.3679
89.1094
95.9416
97.3493
94.1513
98.0903
97.49
96.0887
94.5585
94.4056
98.2227
97.3652
91.6989
95.5873
89.8994
55.1903
97.2101
97.8659
96.3744
97.4803
96.962
50.5361
94.4019
97.816
93.999
45.7203
88.7823
93.6541
94.0987
97.165
97.7159
98.0298
97.4134
97.2179
92.1951
97.3924
96.9292
90.1295
44.4553
88.8105
95.904
89.2045
88.4248
94.9948
93.8325
97.8202
97.3959
95.7939
89.2158
95.6973
88.6221
90.7126
39.9221
94.9134
94.6016
92.9022
51.2156
71.2752
94.6389
93.6015
98.1783
97.4044
94.626
91.4704
42.2082
88.396
97.3139
95.591
97.7948
97.2836
88.7041
94.9589
97.961
90.2473
97.369
53.7745
94.8789
88.0989
94.5909
98.175
94.0601
94.4318
94.2751
92.4658
88.4657
95.6448
95.0531
97.8769
91.6307
92.6935
52.059
89.0045
41.1056
97.3839
94.3248
90.8015
94.3153
94.4571
90.1849
94.7643
94.4186
90.8364
94.6106
97.3431
98.0257
97.1615
47.973
98.1493
97.5687
90.6669
88.9173
95.4359
98.7434
91.3609
97.2783
97.712
97.3769
95.237
97.5
97.1101
96.2331
94.8342
96.4638
98.1579
47.7446
92.0509
80.9532
94.5765
63.8244
98.0338
95.4729
94.6745
52.2036
95.1478
94.2592
94.6117
97.9486
92.1414
63.0352
97.6783
94.456
49.1477
93.4744
46.8594
94.4136
93.1565
96.8925
95.9351
97.2911
97.5471
95.0812
24.0921
93.9311
97.3182
48.3558
92.349
93.915
49.5196
91.3128
94.9737
96.1248
56.3371
95.2751
89.1101
87.0077
93.6323
96.6178
94.3061
94.5052
95.2787
67.7765
94.4862
98.2713
91.1288
96.7301
96.6953
49.4557
94.094
36.1301
95.6095
97.0238
90.3819
42.0542
95.8545
96.2668
92.4169
95.3598
72.8541
96.3544
95.1497
96.7677
94.9246
96.5238
45.663
68.6782
90.6043
96.2654
70.485
34.7014
91.1673
91.0765
95.9337
96.7142
73.2418
96.8634
91.9237
91.7892
94.7597
94.4121
94.205
48.1807
92.4258
94.5924
90.8639
93.0278
60.8999
96.4474
98.0475
90.6743
49.6165
94.6662
95.7462
91.2116
95.2115
94.7738
41.1605
80.6659
96.1598
96.6138
49.6056
95.1378
94.4603
96.4238
77.4538
97.3954
57.5952
60.5851
93.2491
95.4366
96.6536
94.2795
94.7186
58.0029
94.0018
53.2676
87.4357
90.9472
96.9638
97.5036
95.869
91.4013
96.8101
94.4082
86.8112
94.9096
85.1046
45.9688
93.7222
96.692
97.1355
89.2818
97.7168
74.4995
95.9062
46.7921
97.9541
95.8096
90.2123
97.3314
98.2293
94.3898
98.1971
93.2399
94.9036
93.3676
95.6192
94.6238
93.2835
85.4788
97.3172
97.0143
55.4777
96.865
87.6492
94.3887
94.4245
95.7049
32.5334
93.1145
89.0595
95.6593
97.7796
95.5103
94.3372
95.6008
96.0219
55.4986
95.64
88.3712
96.5583
96.5427
88.2714
94.4516
98.2877
96.2248
78.3402
95.2007
53.7175
98.051
98.1596
80.218
94.0802
96.4034
92.3858
94.2977
51.2087
85.8728
97.7039
93.2095
95.5275
97.7709
91.7956
94.8503
95.6292
39.9557
35.8757
48.4783
94.5384
87.8687
96.8902
88.5888
94.3987
96.2195
40.6515
96.3022
11.5465
95.5233
89.0441
55.7214
90.2975
55.7094
94.6734
94.8607
50.0962
91.7681
95.3374
94.0375
46.6134
97.6966
94.6038
94.7583
95.3108
12.3625
96.8498
95.7772
96.353
94.2825
94.9063
94.4021
96.3035
96.4912
95.0598
75.3818
97.9084
97.9359
98.2743
95.8309
95.5947
89.769
94.8693
83.3447
95.4898
97.7298
97.9489
94.7674
94.5909
94.3952
97.7394
89.4316
95.3713
97.6001
97.2994
96.5525
95.5787
92.6889
94.516
94.696
97.5152
94.9325
97.9997
96.4427
92.1192
97.436
90.4983
92.4383
92.2423
94.078
30.3648
94.9628
94.5139
94.9131
93.8405
94.9146
95.8351
95.304
96.5997
96.4706
96.8127
92.7888
45.9041
94.8905
95.5617
95.3788
95.3527
95.4438
95.7283
90.3939
88.4661
88.9493
97.6808
97.1645
91.428
97.0587
97.2277
88.1136
51.5216
91.4327
91.9919
88.0394
97.7141
51.2604
97.2349
91.3745
97.5463
92.7206
50.6906
97.4868
47.3419
97.3601
97.4155
94.0594
88.1916
47.0296
46.9779
97.0543
98.0092
95.2891
97.4365
88.3885
95.3253
46.2818
97.4589
95.3419
88.5619
93.8295
95.2654
94.0579
98.2239
44.7295
97.4834
94.1588
98.3676
89.5632
92.6895
94.1296
42.7696
97.572
93.9811
96.3039
98.4192
93.1006
96.8896
43.0448
48.0314
95.3769
97.5201
97.665
92.2229
98.4026
91.7141
92.1538
94.0497
96.2505
95.7844
95.5625
98.4297
91.3
46.0444
90.3037
97.6187
93.1725
95.2466
98.4409
94.9132
42.049
95.785
92.5217
94.4952
94.2877
97.6238
98.6004
93.2534
97.3584
93.896
94.7835
94.2605
98.4362
91.1468
97.8769
97.6005
93.8105
97.6111
94.2423
95.012
94.9518
83.0995
97.9517
96.6246
94.82
97.3221
94.8012
96.9758
97.7486
92.3136
94.7861
96.8378
88.6872
53.7597
96.4634
45.8062
84.5466
97.6685
38.5689
97.4301
95.1874
94.7876
96.4327
96.3078
97.5999
72.1115
96.8198
97.406
97.217
92.4215
95.2374
96.0436
96.0862
94.0648
97.6127
78.9524
91.4106
91.6409
90.5321
96.9507
91.7542
97.3217
96.8936
92.3928
96.197
91.6347
96.8092
95.2934
96.1274
97.9389
90.0807
95.3447
90.7652
49.5531
73.0007
98.4516
97.1592
97.5998
86.3975
94.8816
20.9827
86.903
94.8417
95.9659
95.063
97.798
97.0023
96.673
96.1269
95.4777
44.0671
94.505
94.5237
95.7266
93.9339
93.9281
97.5515
96.7367
97.8145
88.7285
97.6264
91.1305
83.3537
95.3731
98.1385
97.812
97.3526
97.0946
97.6407
90.5666
38.4392
94.3875
94.7697
94.4983
95.3166
83.3045
94.4558
96.7523
92.7368
98.0282
89.5071
94.9564
35.2745
93.1092
95.8355
94.7046
95.4654
88.5944
96.399
95.5354
96.7689
84.1219
93.8332
56.1973
69.5362
97.7288
98.3151
97.6979
97.2678
93.9162
93.393
93.9204
97.403
95.7785
97.4446
94.4255
39.3414
97.2995
95.1192
90.2162
34.2472
88.0358
92.7963
94.5053
94.5041
96.029
93.2489
43.0361
97.6835
92.7084
96.6851
95.1201
93.3896
95.6331
94.7929
93.5574
94.1762
95.3616
94.8809
95.5548
92.8602
91.2433
94.7116
79.9326
95.3186
92.7802
97.7135
95.1067
94.7235
27.4866
94.8933
94.4077
94.5381
96.8502
96.1333
95.043
90.7823
95.6113
94.2546
95.3873
96.9159
94.6806
94.6212
95.1416
93.9783
90.9238
48.432
97.7102
98.3738
95.0677
94.1263
97.9008
55.8133
54.7959
97.9585
91.705
93.9797
94.451
95.162
94.0584
95.0689
90.5608
44.692
94.6788
94.6982
96.0524
94.4706
93.0904
95.2653
96.2594
88.0066
93.7549
95.6661
97.2449
98.3426
95.0196
94.5745
97.299
10.179
94.7591
95.9383
95.8078
95.3137
94.0641
34.425
94.3676
95.9094
97.082
91.6444
97.5656
97.3436
97.2748
97.3557
95.1092
97.6582
90.8014
93.8122
95.6311
95.5212
95.8861
94.5194
97.7445
97.5029
93.5553
93.3114
98.0661
97.6704
97.3827
95.7724
49.5059
94.3183
95.7235
94.7416
95.2234
94.0301
92.7397
96.6436
97.3572
95.6216
94.5935
94.7181
92.2133
94.9696
98.0875
96.1546
87.9728
92.1596
94.6412
95.8221
18.0107
95.6938
96.4788
97.5616
94.0337
53.0459
94.4714
94.7698
45.1326
96.1183
51.8823
95.6944
91.5255
95.5002
95.4217
96.2512
90.8566
97.738
97.7246
95.7158
94.7679
95.8595
90.4979
91.7615
97.5783
96.0707
87.4518
43.5151
95.3888
94.0223
51.7018
91.4256
94.4784
97.9632
97.2355
97.8453
98.2846
98.135
95.9006
97.1785
68.1098
98.157
53.6184
97.8966
77.4304
95.2247
90.137
98.4302
95.1203
92.45
97.575
94.4681
100.43
94.1646
97.9242
95.0328
93.5489
98.0666
95.0828
97.647
97.5085
97.2325
97.402
51.0834
97.1507
97.2286
52.4376
97.2105
94.18
88.3882
92.8664
97.1809
96.1394
97.0262
94.6356
45.2421
94.7613
95.0785
36.3368
57.5175
47.7685
35.3336
63.401
96.477
96.099
95.4115
95.7157
56.7305
96.8371
92.3883
94.4158
93.4726
91.572
69.2604
49.2991
91.1484
78.9207
74.1941
91.3623
96.9069
96.6744
91.7876
96.3997
96.2412
91.8515
96.1553
96.9797
77.2962
97.765
94.1172
96.4304
88.2906
89.5228
38.4707
95.638
86.7963
87.8754
92.8375
97.1394
51.5829
90.1016
92.3685
77.3342
94.8791
97.1057
89.5246
94.5255
51.6076
92.9708
96.1458
95.6304
94.489
94.9836
97.7535
48.2257
96.1221
88.376
97.5781
95.2718
97.6993
97.8593
57.3753
97.1977
97.4291
93.6961
95.3493
97.6517
95.8451
89.7027
94.6408
96.3586
98.4473
88.7405
91.6739
98.5486
97.6632
47.1429
98.2331
96.5593
94.1724
94.4209
88.3576
94.4752
95.697
89.9485
94.5878
97.0277
91.0719
41.0933
96.0719
88.7668
94.983
94.9299
97.1692
29.3339
97.4432
95.6208
97.6296
38.8629
97.6778
83.0401
97.2873
97.3896
94.5893
89.6253
94.2817
97.2591
91.1028
58.1522
37.1405
96.0469
97.3632
95.5731
92.6629
89.1219
95.056
91.291
91.7309
95.5092
93.8015
94.2412
39.4075
95.265
94.6255
97.5973
90.2197
96.3473
91.2606
95.4435
96.3393
93.9323
95.289
96.3975
95.7054
94.7383
27.9646
19.563
97.2606
95.4495
86.5383
94.5847
97.7954
48.8059
90.1743
96.0711
91.3697
70.9118
47.6684
94.5626
89.349
96.3275
95.7617
83.5914
49.0899
95.7234
94.319
94.6539
51.891
94.8604
96.133
94.8767
8.11946
95.0703
39.6159
58.1179
96.7212
94.1299
96.8296
94.5124
98.2728
94.963
94.5224
95.0911
96.3627
95.7239
95.9544
94.459
96.1974
64.7061
97.801
93.5384
97.2338
53.1341
97.3612
52.131
94.5668
98.0184
54.2335
95.1788
69.7875
65.5097
61.3287
50.5153
50.5465
49.769
57.2467
50.7642
95.7702
95.1531
95.2954
95.706
95.6147
95.5122
98.1559
89.8533
96.0661
92.7533
96.2852
90.2771
95.4661
93.9415
97.7965
97.1479
97.3288
97.4978
96.4247
94.9665
94.5402
92.8985
91.4454
94.1652
93.8883
95.9573
96.3107
82.0293
94.9843
93.9432
47.3191
96.8073
95.5227
93.5115
93.9859
98.2573
95.8709
34.7976
98.1237
97.1932
95.7035
90.1058
94.8353
90.9893
88.1579
91.8589
95.7783
88.8296
93.9735
94.2867
93.0781
95.1882
98.2805
89.533
97.3247
17.908
97.8595
43.6402
8.56704
94.5078
47.5607
89.1044
92.346
94.9297
42.3286
94.8169
96.5121
97.8537
74.4634
96.5338
90.5745
96.0401
89.8975
97.4439
96.2939
97.8662
97.5274
60.581
38.1948
18.3373
89.6851
93.0898
94.402
97.0941
94.7697
95.4309
92.9191
88.9318
95.35
47.4338
98.1714
97.6741
41.3625
96.616
88.1662
97.1234
97.6998
96.5032
84.5456
66.2735
96.2835
97.8463
92.6172
97.0651
46.2904
95.7949
46.5756
97.3681
92.7521
90.0442
36.6187
85.1752
94.8273
96.677
96.9102
95.7105
52.8241
90.8056
94.4839
89.0514
88.8374
94.1208
96.75
95.4437
90.7285
94.6303
52.8945
88.7526
98.1746
98.1287
88.7485
95.4296
95.5213
94.509
91.2019
90.7425
97.206
45.5985
96.85
98.5212
96.2881
93.268
95.8178
89.3457
93.7046
96.5285
79.1102
94.8846
30.3986
96.1911
94.6683
93.7796
62.4305
93.66
97.0406
96.768
97.9383
95.3392
97.8702
96.8599
94.6745
100.373
89.7221
94.4509
89.0379
95.1195
95.4022
53.7986
96.5961
56.2666
96.6793
98.117
95.5322
96.6612
89.2706
91.8684
94.6737
88.537
95.2845
94.3519
36.393
94.8813
95.3434
97.6159
91.8276
91.0596
94.331
95.6297
74.4191
96.9082
94.3645
48.7782
89.4709
96.1927
96.9176
97.5641
93.9648
94.1578
95.2542
83.3267
91.1195
91.7995
89.5018
90.9278
96.9366
49.9579
97.7099
94.3742
88.3153
97.8279
56.736
91.4652
96.6016
90.782
53.3953
98.2692
92.8065
97.7913
39.717
95.5682
97.4273
97.3913
91.182
41.7901
94.8116
50.5919
94.7649
94.659
94.5266
54.5184
94.9997
35.7665
76.2155
98.3409
95.338
91.4059
46.9793
94.8
17.502
94.5697
96.1879
95.0922
96.9881
91.0808
65.5603
94.6958
94.8097
42.6812
56.8443
94.6268
90.3619
94.743
49.8888
94.534
89.9121
92.3991
54.1056
97.1133
94.4524
98.3285
93.0115
89.149
96.2859
90.2593
95.665
94.6344
58.8683
54.3785
94.6206
95.1706
89.9012
97.2117
95.7138
96.3595
88.1826
96.8184
95.7413
92.5847
91.9043
96.6844
66.4446
96.5158
95.2838
96.0248
78.391
95.5888
94.571
97.1626
88.8354
95.0671
91.0862
92.4887
96.663
95.13
95.4364
62.1074
49.9279
91.2397
97.7749
95.1982
93.584
97.8964
96.2512
97.4875
97.324
91.5785
91.7052
92.1901
95.5825
58.6999
95.7211
83.3871
98.1448
90.0899
46.9392
95.5793
95.5864
89.1579
94.5359
93.2285
36.6091
98.1682
98.2186
93.6593
98.5232
97.6159
97.6816
97.0347
96.3822
94.8397
23.7402
55.184
88.2696
109.062
89.0388
90.9278
90.2227
97.4876
102.469
93.7013
96.0522
99.1352
98.654
93.1381
97.6648
90.7632
94.2221
93.0474
92.1586
)
;

boundaryField
{
    frontAndBack
    {
        type            empty;
    }
    wallOuter
    {
        type            zeroGradient;
    }
    inlet
    {
        type            zeroGradient;
    }
    outlet
    {
        type            fixedValue;
        value           uniform 0;
    }
    wallInner
    {
        type            zeroGradient;
    }
    procBoundary3to1
    {
        type            processor;
        value           nonuniform List<scalar> 
48
(
94.3366
94.8349
94.7076
94.1451
94.2099
93.755
94.8349
93.7815
93.7847
91.5924
91.5924
92.2052
92.2052
92.1249
91.3256
93.4492
94.2531
93.9498
94.2531
93.0927
93.9353
94.0913
93.0927
94.3324
92.4262
92.5826
93.9993
94.0913
93.9184
92.8758
92.8758
93.8195
93.8195
93.7847
92.8105
93.9605
93.7147
92.4262
94.1971
94.6262
92.1249
93.7012
93.6437
93.0927
91.1018
95.1803
94.1363
93.2925
)
;
    }
    procBoundary3to2
    {
        type            processor;
        value           nonuniform List<scalar> 
29
(
96.9263
96.9263
96.9043
97.2062
92.5639
97.3066
96.0724
97.015
97.075
97.1466
97.1915
92.0791
96.7495
95.9251
95.7935
95.9416
96.963
97.063
96.7301
95.8009
95.7771
96.963
95.8158
97.063
95.8134
96.894
97.063
91.3161
91.3161
)
;
    }
}


// ************************************************************************* //
