/*--------------------------------*- C++ -*----------------------------------*\
| =========                 |                                                 |
| \\      /  F ield         | OpenFOAM: The Open Source CFD Toolbox           |
|  \\    /   O peration     | Version:  v1912                                 |
|   \\  /    A nd           | Website:  www.openfoam.com                      |
|    \\/     M anipulation  |                                                 |
\*---------------------------------------------------------------------------*/
FoamFile
{
    version     2.0;
    format      ascii;
    class       volVectorField;
    location    "0.67";
    object      U;
}
// * * * * * * * * * * * * * * * * * * * * * * * * * * * * * * * * * * * * * //

dimensions      [0 1 -1 0 0 0 0];


internalField   nonuniform List<vector> 
1466
(
(0.778585 -0.215516 -2.45699e-16)
(4.64376 -0.110825 -3.38707e-19)
(-2.03626 -0.37751 5.47282e-16)
(-0.216109 9.28291 -3.89945e-17)
(-1.52178 -0.570492 -6.0352e-16)
(-2.10642 0.114135 -9.21382e-16)
(-1.02159 0.161398 2.11583e-16)
(2.36492 -0.451462 1.48783e-16)
(7.45068 0.114218 -8.97368e-19)
(4.90015 -0.166738 1.36012e-16)
(6.32021 -0.209871 -1.7904e-16)
(5.16119 -0.491932 0)
(8.4859 0.0701019 0)
(-0.863557 -1.31036 -1.5981e-16)
(-1.20313 0.14079 0)
(4.92218 -0.481306 1.39025e-16)
(1.30058 -1.42228 -1.01142e-16)
(0.0409377 5.21876 -2.56532e-17)
(0.898037 5.5377 -8.183e-17)
(-0.12786 7.20864 1.42176e-16)
(0.11637 7.63199 5.9064e-17)
(-2.14223 0.0533277 5.42907e-18)
(0.0118667 6.13605 -5.72289e-17)
(-0.135953 6.91044 -1.54321e-17)
(8.36274 0.148331 7.42163e-17)
(-0.261796 0.0745686 -2.84116e-16)
(-1.35445 0.575614 -1.253e-16)
(-0.144525 7.74761 0)
(-1.32989 0.161549 0)
(4.6865 2.32425 5.17059e-17)
(6.57208 -0.578671 1.17757e-16)
(-0.419327 -0.0486475 1.72084e-16)
(0.067294 -0.848833 2.26095e-16)
(-0.703737 6.82589 1.40501e-16)
(4.19441 -0.20275 9.54611e-17)
(-0.796536 0.747107 2.52476e-16)
(-0.673428 6.16228 0)
(1.33561 -0.614691 -2.83616e-16)
(5.28375 0.179829 -2.69645e-16)
(-1.91148 -0.16827 -3.60285e-16)
(-1.44019 -0.125276 -1.48555e-16)
(-2.94734 0.0232939 -3.08207e-16)
(-3.09808 -0.0763999 1.6741e-16)
(-0.855102 -0.224631 1.38266e-18)
(-0.714906 -0.330301 -4.29689e-18)
(1.67869 0.0194416 0)
(6.48467 0.130933 6.84871e-18)
(0.830645 -0.281779 0)
(-1.86996 -0.321682 1.2795e-16)
(1.19054 -0.248906 0)
(-1.21389 0.294434 -1.03389e-16)
(4.54887 -0.0733246 -3.50931e-16)
(-2.24901 -0.0841637 6.1329e-16)
(-0.889526 -0.325724 6.31847e-16)
(-0.363662 -0.342912 -1.07184e-16)
(6.46667 -0.046398 1.24037e-16)
(1.35451 -0.149094 -2.22062e-17)
(6.1814 0.0216598 0)
(-0.291965 -0.356156 1.14568e-17)
(4.8316 0.0225195 0)
(0.355331 0.00104201 2.08081e-19)
(-1.07444 -0.237457 -1.14584e-16)
(-1.42708 -0.639729 1.69062e-16)
(4.05154 -0.197119 1.36519e-16)
(1.3948 5.62798 -1.78726e-16)
(1.6409 0.400025 2.3815e-16)
(-0.345193 1.97538 0)
(-0.17126 5.18382 2.87718e-17)
(7.22217 0.503863 2.93625e-17)
(-2.09235 -0.00171542 -1.62805e-16)
(1.18002 0.858303 1.19617e-15)
(-0.117488 5.91165 0)
(-0.029612 5.3877 0)
(8.27649 0.217125 -1.52527e-16)
(0.0847804 -0.307448 2.99416e-16)
(5.84976 -0.0598203 -1.15343e-16)
(-0.964742 -0.33812 9.99092e-17)
(-1.03265 -0.851423 -9.94259e-17)
(-2.06955 -0.0775341 0)
(3.72874 0.763656 0)
(4.41621 0.0155518 -1.26733e-16)
(5.16303 -0.328429 -1.67491e-16)
(-1.48813 0.897596 -2.62215e-16)
(0.922744 3.33063 2.63145e-16)
(-0.150988 5.12583 1.20213e-16)
(0.634931 5.90591 4.20857e-17)
(-0.740763 8.02264 0)
(3.51979 0.253046 1.67966e-18)
(5.06164 0.104496 2.50066e-16)
(-0.155455 0.496007 -3.13449e-16)
(-0.0330819 0.0675526 -1.01454e-16)
(-2.03273 0.381826 -2.2433e-16)
(-0.101054 6.72338 -4.40542e-17)
(-0.0655847 -0.711165 -2.06224e-16)
(1.22652 -0.655615 0)
(-1.30225 -0.286101 -3.63899e-16)
(4.41832 -0.129539 3.07553e-16)
(6.55767 -0.0174526 -7.10405e-18)
(6.63596 -0.125145 3.10183e-16)
(-1.72493 -0.24178 8.5911e-17)
(-1.81045 0.251801 5.07887e-16)
(-0.601765 0.0180094 0)
(1.19382 0.0148197 3.92849e-16)
(-1.07675 -0.519254 3.32985e-16)
(-3.05296 -0.116918 -1.24938e-16)
(2.80888 0.0405354 6.76083e-17)
(-2.33537 -0.161676 -2.31458e-17)
(0.0241949 -0.41728 0)
(5.64084 -0.418264 1.71336e-16)
(0.964763 -0.11698 8.08487e-17)
(0.221528 0.0252948 -2.80112e-16)
(4.61064 -0.0840989 3.76633e-17)
(0.701794 -0.523845 -4.14524e-17)
(-3.20406 0.000115783 -3.87124e-17)
(4.33309 -0.335423 0)
(0.545852 0.0711141 9.11966e-17)
(-2.76127 0.168291 1.43359e-16)
(3.89746 -0.00682171 0)
(-1.28759 0.0100403 1.52171e-16)
(-1.93283 0.0430842 -5.62928e-16)
(-0.533345 9.31381 -2.9614e-17)
(-0.340315 -0.67128 3.06995e-16)
(-0.0502207 -0.969429 -1.1256e-15)
(-0.362904 -0.247228 0)
(-0.0599488 -0.205103 -8.44666e-16)
(-1.23488 0.918995 -6.27266e-19)
(6.34587 0.938401 4.74052e-17)
(-0.24505 5.74754 -6.26686e-17)
(-0.133929 6.6748 2.48216e-17)
(0.882462 0.471511 1.7765e-16)
(5.11425 -0.0310795 2.06218e-17)
(-2.39761 0.183822 0)
(-0.153764 6.26139 3.95501e-17)
(-0.163862 6.918 3.24966e-17)
(0.037156 -0.0322778 -1.64478e-17)
(-1.39887 -0.020152 0)
(-1.97066 0.0210557 0)
(0.100743 -0.39222 -1.09024e-17)
(-1.51424 -0.0801891 -9.85497e-17)
(-2.17111 -0.0999454 1.84103e-16)
(0.631741 -0.474377 0)
(-0.0603605 7.76723 -5.80277e-17)
(-0.147327 6.3664 -2.85058e-17)
(0.352044 5.2363 -2.27541e-18)
(-1.65224 -0.403745 -2.21071e-16)
(1.00212 6.58408 8.87971e-17)
(-0.421069 -0.0506339 -2.95493e-16)
(0.573689 0.0608481 -4.52652e-16)
(1.54751 0.703122 -7.01482e-17)
(-1.01046 -1.05444 1.16563e-15)
(0.0672656 0.0412664 1.88522e-16)
(3.35332 -0.130954 -4.3886e-20)
(6.80072 0.806051 -1.36025e-19)
(0.429286 -0.181903 0)
(1.58657 0.688424 0)
(-2.07104 0.14632 2.1156e-16)
(-0.288661 7.50549 -1.43359e-17)
(-0.675267 8.57163 -1.37343e-16)
(-0.156997 0.00177951 1.10653e-15)
(5.54111 3.79336 6.69296e-17)
(-0.405924 -0.0112194 1.30058e-16)
(5.26924 1.26223 0)
(0.594265 3.03525 7.42848e-17)
(-0.316984 6.74944 9.05715e-19)
(2.53996 2.62251 0)
(-2.74589 -0.186173 1.39647e-16)
(-0.148243 6.4056 0)
(-0.211795 4.88369 1.91359e-16)
(-0.25855 6.60332 -2.89013e-17)
(2.05441 8.83968 5.74267e-17)
(-0.148976 6.83 1.9279e-16)
(-0.369091 0.0724655 -1.24208e-16)
(1.50797 0.0187214 4.38832e-17)
(7.12758 0.654689 -1.53453e-17)
(3.80115 -0.00501058 -2.40503e-16)
(7.76346 0.140303 -2.94412e-16)
(5.04064 2.89674 1.64485e-16)
(3.55903 1.62215 -7.53252e-17)
(0.0897607 0.0464236 -3.79404e-16)
(0.913544 1.17895 -2.4928e-16)
(8.74584 0.170615 3.61632e-16)
(3.89393 -0.132365 -2.49106e-17)
(-0.103704 4.87394 -1.79482e-16)
(1.11134 0.371264 2.77992e-16)
(3.76956 0.170201 -4.24928e-17)
(0.215515 5.60976 -2.83343e-18)
(-0.21963 5.0221 -1.18053e-16)
(1.99356 4.5924 -1.45678e-16)
(7.05739 0.332317 7.27049e-17)
(-1.99599 0.15235 3.5753e-16)
(-0.065453 6.96874 -1.29643e-16)
(0.38766 -0.0431097 1.41923e-19)
(0.338729 3.71191 7.0347e-18)
(0.815669 6.18068 2.32762e-16)
(5.92659 3.31588 -3.95952e-17)
(0.350831 0.122596 0)
(-1.47843 0.114502 3.42396e-18)
(3.49293 1.21623 -3.59844e-16)
(1.27381 2.31435 -2.65139e-16)
(1.78336 5.9321 -4.69989e-16)
(0.147713 2.79769 0)
(1.18342 0.552856 0)
(5.28122 2.12821 -8.02067e-21)
(0.45861 2.64971 0)
(1.34881 0.636716 2.10278e-16)
(1.63043 1.86424 -1.88396e-16)
(0.61412 6.89832 -1.04308e-16)
(6.72499 3.59657 0)
(-0.00835026 0.0744511 1.41208e-16)
(-0.0916523 7.08436 2.62453e-19)
(0.537426 5.94235 7.66014e-17)
(-0.102406 5.24441 -1.12177e-16)
(-0.235034 2.4186 0)
(-0.217602 7.24316 1.42279e-16)
(0.266812 7.40431 -3.65688e-17)
(-0.287142 6.43582 1.52457e-20)
(0.00452361 5.61243 2.95595e-18)
(-0.317162 4.89866 -1.01199e-16)
(3.54119 4.12164 1.46536e-16)
(-0.164933 6.65748 2.24007e-16)
(-0.275345 5.39641 -1.4518e-16)
(0.588737 0.0146622 -1.2766e-16)
(-0.295766 6.29832 -2.20648e-16)
(0.590626 0.175119 2.5356e-16)
(-0.303575 6.43845 9.35668e-17)
(3.45759 3.6009 -1.54735e-16)
(-0.865716 -1.35258 5.03425e-16)
(0.72953 0.535798 -2.85843e-16)
(0.0610585 0.0872607 -3.07143e-16)
(0.557375 -0.0220162 -3.12843e-20)
(0.679974 0.400892 -6.35506e-16)
(4.03854 0.0782748 2.3013e-16)
(1.06328 5.03814 1.16626e-16)
(0.500821 3.1965 2.12504e-16)
(-0.920423 0.768734 5.61907e-17)
(2.04977 1.37443 -7.59132e-16)
(-0.14317 6.35885 4.1891e-17)
(0.0133316 5.03168 1.81785e-17)
(0.642742 0.265279 2.49888e-16)
(-0.0792919 6.62838 2.47015e-17)
(0.163053 1.87021 0)
(4.1119 0.704023 4.81444e-17)
(5.63826 3.06551 8.76686e-17)
(2.42242 4.41755 2.12238e-16)
(0.179064 0.196551 0)
(5.68581 1.15773 0)
(-0.37512 -0.0363421 0)
(8.68151 0.339358 0)
(2.87241 0.792488 -1.25917e-16)
(5.91292 3.5401 -7.94925e-17)
(-0.0539096 6.25343 -5.37108e-17)
(1.19911 6.0503 -2.54918e-16)
(6.93727 4.21245 3.33987e-18)
(4.20266 -0.692888 -1.01129e-16)
(-0.446254 0.0420267 3.16852e-16)
(0.407224 -0.000453869 -2.82581e-16)
(-0.33885 7.57165 0)
(9.04676 4.01082 -1.85364e-16)
(-0.0995091 3.81723 -7.64307e-17)
(-0.107556 2.40813 1.14636e-16)
(-0.0239974 -0.53494 0)
(-0.195376 6.36364 -2.51144e-17)
(-0.148567 6.82379 -4.16901e-17)
(0.586695 -0.0613018 3.24712e-21)
(4.34698 3.87039 1.06084e-17)
(1.148 0.117842 -3.01159e-16)
(3.98047 -0.0722503 2.4498e-16)
(1.56244 0.761976 -1.24305e-16)
(0.519657 6.70559 -1.90325e-17)
(9.37891 3.62449 -8.92567e-17)
(1.85695 4.23193 -1.24024e-16)
(-0.13435 3.72131 0)
(-0.294042 -0.602986 7.24776e-18)
(0.0500428 0.0956991 -1.80528e-16)
(-0.0482821 -0.0143987 -4.14012e-16)
(0.744568 0.247575 4.89273e-16)
(0.28949 0.096279 -2.63616e-16)
(2.7194 5.31952 -1.29234e-16)
(-0.258635 6.27242 -1.28804e-16)
(1.99156 0.839799 1.91435e-16)
(0.437875 -0.0594851 2.28931e-16)
(2.05187 -1.05512 2.49008e-17)
(2.46396 3.74328 0)
(5.14543 0.497968 -4.31511e-17)
(0.00208274 -1.67398 4.88827e-16)
(0.735848 -0.0767669 -1.80312e-16)
(2.58751 1.24384 0)
(2.65566 1.22012 -3.46812e-16)
(-0.974416 -0.36502 0)
(7.88458 4.08084 -2.96373e-16)
(7.59191 1.15824 1.52776e-16)
(0.310437 -0.191901 -3.3121e-19)
(8.67539 0.133562 -3.78985e-16)
(-1.28507 -0.0438915 0)
(3.90234 5.85855 1.11779e-16)
(1.04586 2.48931 -3.98476e-16)
(-0.222419 3.23968 1.42118e-16)
(0.956963 -0.463471 4.26342e-17)
(2.50914 1.20013 8.53439e-17)
(0.400596 -0.0487723 -2.80034e-16)
(-0.339373 -1.55083 0)
(-0.789889 -0.0336356 1.98631e-16)
(-0.420936 -0.201152 0)
(8.85974 0.403434 -2.28299e-16)
(-0.66635 8.30183 0)
(-0.0579519 0.233754 9.9009e-17)
(-0.0146095 -0.521165 1.40984e-16)
(-0.414435 -1.45339 -2.46547e-17)
(3.28385 8.45255 -2.83543e-17)
(-0.415256 7.58254 6.99893e-17)
(6.96453 1.85816 1.66953e-16)
(-0.387581 4.39965 0)
(-0.173072 6.37175 -2.69374e-19)
(3.02777 0.324709 -1.53261e-16)
(3.74902 1.81156 -2.03924e-16)
(4.76983 2.81848 -3.06776e-16)
(-0.278288 -0.0409753 0)
(5.25774 3.50635 2.29794e-16)
(-0.763143 -1.14459 0)
(-0.630841 0.176154 3.2819e-16)
(0.0199843 -1.29481 0)
(-0.165907 3.50815 -1.48439e-16)
(0.0652394 1.85285 -7.12573e-17)
(0.29797 -0.0329713 3.57876e-16)
(-0.519372 8.90649 -2.06326e-17)
(7.90028 5.2944 -9.24393e-17)
(1.06796 0.014336 -8.96896e-17)
(4.82361 3.70709 -2.29918e-16)
(0.0153029 -0.059255 -2.97752e-16)
(3.03521 0.128986 1.86467e-16)
(0.0728381 5.71211 1.02878e-16)
(7.94875 4.68528 5.61317e-16)
(-1.30767 -1.21774 -4.09728e-16)
(3.60832 7.23888 2.41586e-17)
(2.37344 2.72987 -1.68139e-16)
(7.24552 1.77289 6.87642e-17)
(2.46183 1.45064 -4.37013e-16)
(0.680015 0.157302 4.35647e-16)
(-0.161675 -0.342121 -2.19581e-16)
(-0.109347 -0.701026 -2.00258e-16)
(0.246524 -0.52 -6.86161e-21)
(6.46449 3.13682 7.41182e-17)
(0.132259 -1.08701 4.81663e-17)
(3.21989 3.23845 -3.6146e-17)
(1.65 8.75821 -6.21071e-17)
(-0.603638 -0.1196 -1.00331e-16)
(5.39808 0.400611 -2.02935e-17)
(3.93528 6.10988 -8.40696e-17)
(6.74746 0.207431 2.70543e-17)
(2.84222 2.29018 1.81776e-16)
(6.36314 4.63277 -2.18444e-18)
(8.70023 2.7828 -5.2245e-17)
(-0.067216 10.4253 -6.4517e-17)
(0.78887 0.911152 1.35635e-17)
(-1.0179 -1.00715 0)
(0.902906 1.58572 2.41289e-16)
(-0.48241 2.75479 -2.67609e-16)
(3.5795 0.448376 6.63798e-18)
(9.65176 2.52881 0)
(3.57875 7.42796 2.53645e-17)
(-0.493168 -0.361262 0)
(1.31312 2.88213 1.13122e-16)
(1.93243 4.94545 1.15786e-16)
(0.0825947 2.91354 0)
(-1.33247 -0.881489 -2.75847e-16)
(0.00727292 2.02696 4.90219e-19)
(7.06209 2.93263 5.91894e-17)
(7.25019 2.49439 5.13143e-17)
(-1.03731 -2.06153 1.71353e-16)
(2.84214 6.92751 4.14801e-18)
(3.09705 8.95646 0)
(0.69036 2.34583 1.21654e-16)
(1.38059 2.89822 -3.52869e-17)
(3.08264 8.46349 -3.35204e-18)
(-0.353609 -1.74006 6.12889e-16)
(-0.505299 4.65742 4.16163e-17)
(3.1489 -0.496419 -2.69838e-17)
(1.24367 5.32503 7.8231e-17)
(-0.0696452 -0.824986 6.31664e-16)
(4.08301 4.67808 -9.0529e-17)
(-0.188013 1.88466 1.04597e-16)
(-0.218138 1.47611 -3.33064e-16)
(-0.22476 2.35037 -2.0163e-16)
(-0.269926 2.71826 2.81826e-16)
(-0.279616 1.99295 0)
(-0.248803 1.7768 1.57488e-16)
(-0.13061 -1.65352 -2.27899e-17)
(-0.139131 -1.87187 -2.21333e-16)
(-0.0775473 -1.54424 1.79423e-16)
(-0.0649058 -1.19379 -4.70276e-17)
(0.0148375 -0.45741 1.93915e-17)
(-0.0615803 0.903791 4.86185e-17)
(-0.0113008 1.84193 -6.63629e-17)
(-0.0820561 0.720891 -5.72022e-17)
(0.200127 0.248356 8.12334e-21)
(0.309952 -0.770288 1.48765e-16)
(0.0903983 -0.219416 -6.32267e-17)
(1.24673 7.06653 -3.15482e-17)
(0.24654 0.102717 8.05346e-17)
(0.456175 -0.861728 0)
(0.116516 0.471292 -2.08075e-16)
(0.646431 0.561468 2.3162e-16)
(1.65725 8.9715 0)
(-1.06901 0.242256 2.77659e-16)
(1.23769 9.71889 -2.09444e-17)
(0.0283552 -0.113963 5.82453e-19)
(1.6844 7.78583 -3.30729e-16)
(-0.205321 0.501414 -1.26131e-16)
(2.49242 -0.311025 0)
(1.69789 -0.0859276 1.08077e-16)
(-0.00851691 0.391067 -1.52784e-16)
(1.44175 6.91541 -1.47807e-16)
(1.14242 3.61135 2.66443e-16)
(0.87388 -0.130672 6.13465e-16)
(2.97097 1.50599 -1.18116e-16)
(-0.811182 -0.725055 0)
(-1.64388 -0.165829 0)
(1.06258 0.970914 1.37529e-16)
(0.221999 0.169764 0)
(0.363312 -0.265759 0)
(0.316114 0.172508 -1.84923e-16)
(-0.469037 0.106726 4.11064e-16)
(0.255209 -0.198061 0)
(1.07198 4.6185 1.08746e-16)
(-0.260189 -0.140926 1.4817e-16)
(-0.369477 -0.39511 -3.04929e-19)
(-0.218337 0.567482 4.53988e-16)
(2.05154 0.403545 2.77034e-17)
(-0.533906 0.0376526 -7.97572e-16)
(-0.827892 0.116373 3.84261e-16)
(0.660791 -0.102545 0)
(0.297169 -0.433191 3.43167e-20)
(-0.446494 -1.06639 5.80113e-16)
(-1.65837 10.3094 1.94178e-17)
(2.1645 -0.0432548 -5.18373e-16)
(0.097088 -0.563659 -4.44144e-16)
(-0.785098 -0.319618 7.77507e-17)
(-0.252118 -0.805063 -8.12574e-17)
(-0.263123 -1.71365 3.12917e-16)
(0.0407064 -0.130383 -3.84817e-16)
(-0.429573 0.381588 4.5515e-17)
(0.286045 -0.823422 -9.63591e-17)
(0.927813 -0.270362 2.82719e-16)
(-1.7769 -0.425416 0)
(1.36552 -0.0374306 -3.12489e-16)
(0.222892 -0.650629 1.84164e-16)
(8.58022 0.101231 8.12077e-17)
(2.18617 -0.0992941 0)
(0.21061 -0.68824 -1.20298e-16)
(1.74675 -0.401064 1.66083e-16)
(2.54378 -0.139437 -1.32501e-20)
(0.18751 -0.72189 -1.59729e-16)
(-0.0524373 -1.04288 -4.5121e-17)
(8.83303 0.146945 3.68437e-17)
(-0.0489717 0.00947122 -2.09615e-18)
(-0.00665124 -0.84173 5.8665e-18)
(0.135437 0.741225 0)
(-0.837725 1.53414 0)
(-0.0715044 -0.906562 0)
(1.48705 -0.0886525 2.76004e-16)
(0.0275552 -1.41603 -4.83785e-16)
(-0.106731 -0.519763 -2.37594e-17)
(-0.441716 1.10343 -2.219e-16)
(-0.734735 1.89262 6.14455e-16)
(1.09738 -0.961835 2.25784e-16)
(-0.0508059 -0.872903 -1.59423e-16)
(-0.244302 1.13711 -1.12554e-16)
(-0.130368 -0.558103 -3.46649e-17)
(-0.16522 -0.613047 -5.82065e-17)
(-0.227613 0.989868 5.97389e-17)
(-0.137947 -0.602124 1.34936e-16)
(0.0912004 1.16497 -9.20935e-19)
(-0.50137 -1.34002 -6.34913e-16)
(0.429936 0.36391 8.37096e-19)
(1.09871 -0.0879839 1.595e-16)
(-0.0877378 -0.90344 -6.39488e-21)
(0.0838693 -0.63057 -2.42003e-16)
(0.656798 3.11703 0)
(0.618413 2.25145 0)
(1.72786 1.27226 -9.24564e-18)
(2.55684 7.55396 -9.2275e-17)
(-0.42641 3.89745 2.16448e-16)
(-0.398961 7.66689 -1.42128e-16)
(0.621619 2.73513 8.29761e-17)
(1.10045 1.54999 -3.2687e-17)
(6.87028 4.77424 -1.82868e-16)
(-0.0614489 -0.919218 -1.61786e-16)
(0.0804815 -0.44839 2.1282e-16)
(0.490038 2.35898 -1.1378e-16)
(1.55724 5.15406 1.08138e-16)
(0.950835 0.969828 1.42592e-16)
(-0.155485 7.7911 3.65808e-17)
(0.459886 -1.85819 -2.05228e-16)
(-0.2453 1.23403 1.08805e-16)
(0.786699 2.59901 0)
(-0.210933 1.60012 2.57268e-17)
(-0.469453 3.74632 0)
(-0.300905 2.10497 6.11438e-18)
(4.47175 2.70386 0)
(-0.1028 2.71854 6.44869e-17)
(-0.307692 3.08303 0)
(-0.374079 4.24355 0)
(-0.44585 2.4387 -1.14974e-18)
(-0.0458296 -1.27731 2.67926e-16)
(-0.0815615 1.30339 -2.64469e-16)
(0.0770347 3.82382 0)
(2.34448 8.07171 0)
(1.9946 -0.0633278 2.30136e-16)
(-0.109079 -0.917888 1.19111e-16)
(-0.368079 2.66444 0)
(1.7675 -0.063786 2.87748e-16)
(1.09721 2.1705 -1.50287e-17)
(0.235946 2.72116 5.51303e-17)
(-0.716036 9.31704 -6.75816e-17)
(-0.535131 3.77363 -8.73241e-17)
(-0.0304614 2.92516 -9.89698e-17)
(-0.164172 -0.112151 -2.26993e-17)
(8.90336 0.151443 -3.42231e-16)
(8.16674 0.248133 8.62544e-18)
(1.41926 -1.18407 6.64899e-16)
(-0.359906 3.17043 -5.16459e-18)
(-0.186628 -0.439303 2.2171e-16)
(0.181156 4.31909 6.41806e-18)
(5.78856 4.84654 0)
(0.918003 2.7259 0)
(-0.203733 0.347782 3.53213e-17)
(-0.185334 -0.225675 0)
(0.22475 -0.97676 -4.34028e-16)
(-0.204247 0.444914 -4.81033e-17)
(0.533505 3.23804 -1.07468e-16)
(0.435643 -0.38799 2.02133e-16)
(-1.18936 10.3415 -2.2458e-17)
(0.113521 0.734394 -2.67354e-16)
(-0.21611 1.43284 0)
(-0.320943 2.29151 0)
(-0.17519 -0.171319 -4.15836e-17)
(5.32026 6.26272 0)
(2.36397 6.63877 0)
(-0.136617 -0.0594602 0)
(-0.277926 6.80682 -1.5442e-16)
(6.8215 5.52494 7.34704e-17)
(-0.635364 -1.10033 -2.59053e-16)
(0.100646 1.60176 -2.46257e-16)
(0.0438918 1.76932 1.85803e-16)
(-0.191009 0.51665 6.04833e-17)
(4.55532 7.24325 -3.30123e-17)
(-0.150466 0.594776 1.81328e-18)
(6.66219 6.2935 -3.84482e-17)
(-0.175843 6.43304 -4.61085e-17)
(1.34919 -0.00745272 1.28074e-16)
(2.42826 -1.07269 1.9865e-16)
(-0.0491673 -0.775961 8.59734e-17)
(-0.0350521 -0.101635 -4.30861e-17)
(-0.315344 2.18242 -9.20956e-18)
(-0.818225 9.82925 2.74055e-17)
(-0.484424 3.21911 1.45515e-16)
(-0.423991 2.80175 4.72449e-20)
(-0.0633231 1.93953 2.83044e-17)
(2.07818 -0.300753 1.31748e-16)
(7.55362 5.89992 -1.64141e-16)
(0.399884 3.69225 1.31715e-17)
(-0.579211 -0.619578 2.00021e-16)
(0.819102 -0.0580021 2.93782e-16)
(4.37749 4.74632 2.76588e-17)
(8.25514 0.330691 -2.98177e-16)
(0.101073 0.87759 6.9626e-17)
(-0.237626 1.3147 6.60027e-18)
(0.088009 4.74026 -1.22623e-17)
(2.6169 4.91106 6.02505e-17)
(-0.522628 5.67403 8.7089e-17)
(-0.516484 8.991 1.8903e-17)
(0.0391405 5.11595 0)
(0.836915 0.406334 0)
(3.80934 1.94893 4.91278e-16)
(1.35655 1.89252 -6.08349e-18)
(-0.677807 9.21996 4.82585e-17)
(8.85432 3.61989 -4.02232e-17)
(-0.46363 4.44912 2.24883e-17)
(-0.334968 2.45245 -1.18982e-17)
(5.59233 -0.544835 2.42755e-16)
(1.63457 1.94427 -5.25058e-17)
(-0.578487 5.91369 -4.01938e-17)
(-0.434975 3.46519 8.87584e-17)
(0.248621 3.58577 -1.52151e-16)
(-0.139872 2.17433 1.96722e-16)
(1.24536 2.42036 6.04774e-17)
(-0.566675 9.48495 -2.17996e-21)
(9.09235 1.85224 1.10648e-17)
(-0.244073 1.81274 -1.54621e-16)
(0.0502612 1.03489 -1.09659e-16)
(-0.752048 8.1829 -8.04394e-17)
(5.57652 7.00678 0)
(-1.44802 -1.33287 0)
(-0.406801 3.30256 -9.30903e-17)
(0.231186 6.84162 2.5889e-19)
(-0.223223 6.48778 3.20187e-17)
(1.53886 5.42634 7.57936e-17)
(-0.478654 10.5547 5.12121e-18)
(2.08646 1.64284 2.19928e-18)
(-0.291741 8.60205 1.61104e-17)
(4.2305 2.30901 0)
(8.64138 4.75655 -5.48564e-18)
(8.42792 4.40649 -7.85928e-17)
(3.75967 8.2099 3.14976e-18)
(0.953883 3.76638 -7.17214e-17)
(-1.23726 -1.09414 -1.79739e-16)
(1.8036 -0.0447194 -2.08509e-16)
(0.658612 -0.398633 -1.34406e-16)
(-0.782426 -0.917201 -1.05553e-16)
(-0.293278 3.82367 0)
(0.662655 1.68771 7.12707e-18)
(-0.109953 6.21656 0)
(6.41094 6.39695 0)
(5.88824 5.34766 4.11864e-17)
(-0.187242 5.43137 0)
(5.74702 3.92771 1.09303e-16)
(4.06824 2.07535 -1.33328e-16)
(5.58449 5.88102 4.89307e-17)
(7.29654 1.32921 0)
(-0.64707 9.59521 -6.75329e-18)
(4.38944 7.74275 1.14276e-17)
(0.487866 -0.753548 3.53206e-16)
(1.11753 -0.0717164 -1.5028e-16)
(7.40736 5.50609 2.2552e-16)
(7.13034 0.11353 -5.70729e-18)
(-0.391015 3.20121 9.75484e-17)
(-0.481561 6.19321 1.06882e-16)
(-1.38216 -1.43716 1.04165e-16)
(-0.951277 -1.34698 -1.76951e-16)
(-0.574458 4.9366 0)
(1.53879 0.64451 -4.87049e-17)
(7.61996 3.50289 1.0748e-16)
(7.34044 1.66566 -1.11496e-16)
(7.74237 4.79429 6.3592e-17)
(-0.426042 4.33663 -4.83797e-17)
(9.1304 2.89448 5.72232e-17)
(-0.640043 9.44008 -1.24801e-18)
(-0.260738 8.8747 -2.1862e-17)
(2.79677 1.091 3.94206e-16)
(-0.333117 8.90641 3.74928e-17)
(-0.187715 6.75389 4.655e-17)
(0.563769 8.85181 2.95846e-17)
(0.124837 10.705 5.36152e-18)
(0.670531 0.152698 2.19205e-16)
(-0.435547 5.58549 -8.23697e-17)
(8.29968 5.25054 -9.59002e-17)
(-0.939538 -1.65931 1.02967e-16)
(0.011657 4.78662 0)
(-0.0440458 10.7989 2.4099e-18)
(5.0481 6.91409 -2.41644e-17)
(-0.397754 4.33962 -4.70236e-17)
(8.70214 0.386003 4.1625e-16)
(3.95383 0.291337 2.50189e-19)
(0.642743 -0.863427 2.61259e-16)
(-0.0149096 0.240487 2.31081e-16)
(-0.360616 5.06911 1.60462e-16)
(-0.124373 -0.646756 1.39786e-16)
(-0.166003 5.45621 1.31264e-16)
(0.010999 -0.067874 3.74625e-16)
(9.5293 1.17868 6.8456e-17)
(0.295938 3.95655 -7.89948e-17)
(4.49803 0.00683112 5.04988e-18)
(0.04455 -0.483823 4.60991e-16)
(8.73576 4.19935 0)
(0.743971 0.4143 0)
(0.501055 0.265889 1.6604e-16)
(-0.631196 3.50034 9.63635e-19)
(1.93325 0.678344 0)
(2.91041 -0.255485 0)
(-0.17529 -0.864064 0)
(-0.536947 -0.964683 -4.64177e-17)
(0.581382 0.123912 5.71093e-17)
(2.56115 -1.26071 0)
(0.830173 0.227257 8.92808e-16)
(-0.701548 -0.900757 -9.18665e-16)
(-0.458318 -1.76183 1.35787e-16)
(-0.245547 0.0467757 -2.85521e-16)
(-0.421519 -0.125002 2.62765e-17)
(1.35865 -0.16729 1.31314e-16)
(8.10015 3.04609 2.67611e-16)
(-0.271729 8.31274 3.98369e-18)
(-0.290166 -1.63657 -2.01103e-17)
(-0.358434 -0.00728763 9.15436e-16)
(0.0295406 -0.53817 0)
(-0.176612 0.106741 -3.95688e-16)
(0.344913 -0.0365979 2.77457e-16)
(0.556985 0.191459 0)
(-0.638786 0.0493341 2.17287e-16)
(2.36457 1.03915 9.481e-18)
(-0.529191 0.0474317 0)
(-0.161948 0.175258 1.19042e-16)
(8.17443 2.45474 -3.92867e-17)
(8.64956 3.66903 -1.79302e-16)
(2.06766 9.35794 -1.17753e-16)
(0.0368787 0.130307 3.77921e-16)
(-0.692463 0.0467038 -7.53481e-16)
(1.82787 9.89629 -6.8637e-17)
(1.54557 -1.31086 -9.76934e-17)
(0.797668 0.191098 -5.67329e-18)
(0.427496 3.36956 8.22116e-17)
(-0.510179 6.97604 1.22948e-16)
(0.312693 0.157385 0)
(-0.585099 0.0477079 2.01198e-16)
(0.0257274 -0.0551211 0)
(-0.240673 3.34032 0)
(-0.159098 3.0099 1.12665e-16)
(1.24666 0.303569 -1.77186e-16)
(0.151058 -0.72876 9.96504e-17)
(-0.742645 0.0397714 3.64465e-16)
(-0.194298 2.80821 -9.70887e-17)
(0.307422 1.55327 0)
(0.238051 4.37286 1.05766e-18)
(0.321784 -0.10374 4.06349e-16)
(-0.259369 10.5587 1.97294e-17)
(-0.197596 7.0036 4.72761e-17)
(-0.386241 7.97974 1.27788e-16)
(4.35057 1.32463 -4.98916e-17)
(-0.0591799 3.96945 -2.93342e-19)
(-0.525443 -1.4292 -1.54268e-16)
(1.67314 0.607015 -1.19008e-16)
(6.54948 -0.0664469 6.19091e-17)
(3.69106 -0.385269 -1.65215e-16)
(-0.536914 0.108804 0)
(-0.141867 3.63107 0)
(-0.332529 5.81871 0)
(-0.530717 6.78369 2.3772e-16)
(-0.310209 8.67447 -2.21882e-17)
(-0.202887 0.192032 0)
(-0.0970302 0.156536 0)
(-0.718842 -0.0670559 5.98396e-17)
(0.884015 -1.54919 8.22723e-17)
(-0.114039 3.30986 1.98614e-16)
(-0.228362 -1.21142 3.51661e-16)
(-1.34243 -0.798442 0)
(1.08051 -0.433543 -4.88041e-17)
(3.05241 1.98148 6.97176e-16)
(-0.156723 6.66951 1.84061e-20)
(-0.311281 8.88419 0)
(-0.944853 1.12408 -2.44807e-16)
(-0.0428917 6.10807 4.31627e-17)
(-0.636949 5.5668 7.53293e-17)
(1.7652 -0.0188466 1.15246e-16)
(-0.425556 4.86598 0)
(-2.27109 0.45812 1.44716e-16)
(-0.205311 0.258651 6.48763e-16)
(-0.12437 0.0786617 3.46292e-16)
(1.52501 0.167628 0)
(0.0540005 -0.703251 2.96404e-17)
(0.135711 1.63611 -1.25516e-16)
(5.96819 1.04282 -1.01405e-17)
(-0.28576 8.44338 -1.27215e-17)
(5.25217 -0.713152 -2.9514e-16)
(-0.269083 0.0400169 1.56603e-19)
(0.408767 1.01465 1.38606e-16)
(-0.374572 5.39557 2.44096e-16)
(2.52613 0.473595 -1.14366e-16)
(1.35038 6.20331 1.14928e-16)
(-0.355737 9.10747 0)
(8.48095 0.908337 -1.22719e-16)
(0.181409 2.70357 -8.88827e-17)
(-0.121868 5.20984 5.93247e-17)
(0.151241 -0.374178 2.02249e-16)
(1.03274 0.26734 -4.21449e-20)
(3.33061 1.27479 -4.30723e-17)
(0.464948 3.48063 -5.35423e-17)
(5.48928 2.64041 0)
(-0.211102 7.50923 -1.92761e-17)
(2.81873 3.12624 0)
(1.24696 -0.924009 0)
(-0.0766127 5.4105 1.80653e-16)
(1.88804 -0.0362622 -7.81355e-17)
(0.284652 0.223469 6.76855e-21)
(-0.10382 -1.29146 2.59221e-16)
(-0.322206 -0.627268 1.91227e-16)
(-0.937112 0.375643 4.16052e-19)
(-0.186898 5.31007 -2.94202e-16)
(4.00993 1.84723 2.96667e-17)
(-0.342951 0.0800992 4.05936e-16)
(-0.212865 0.755179 -2.58545e-19)
(1.37942 6.45539 1.64686e-16)
(0.0856286 0.146993 0)
(0.347437 -0.335227 3.91475e-17)
(-0.0994381 7.67445 2.49139e-17)
(2.32197 -0.00208439 -1.91817e-17)
(-0.431389 -0.885568 -7.14332e-17)
(-0.769981 -1.36177 -2.33213e-16)
(0.299373 0.0785421 3.58271e-16)
(-0.60617 4.80891 0)
(-0.12961 3.7154 5.53987e-17)
(2.32105 8.17413 -1.42227e-16)
(-0.190639 1.07684 1.1465e-16)
(0.53684 -0.139369 -4.40314e-16)
(-0.25925 5.47267 0)
(0.174803 -0.446932 -4.97212e-16)
(2.82226 -0.111336 -1.03755e-17)
(8.29843 1.47303 -6.15042e-17)
(-0.471918 8.10351 7.85844e-17)
(6.27843 -0.0909074 8.30277e-18)
(-1.24021 -0.795897 -2.37385e-16)
(0.153878 0.0478547 -5.25826e-17)
(0.146437 -0.602233 -2.6779e-16)
(-0.392592 -0.884806 -1.67352e-16)
(-0.623114 7.17097 8.07336e-17)
(-0.546321 -1.7177 -2.69822e-16)
(5.94517 2.66606 1.97619e-16)
(1.2771 0.226907 -3.26186e-16)
(-0.064169 -0.615477 1.92276e-16)
(8.4561 0.506316 8.23899e-17)
(-1.58649 0.24731 3.35879e-19)
(-0.31734 9.12546 7.76566e-17)
(-0.0992051 6.9279 4.51935e-17)
(-0.142895 8.27035 -5.83355e-17)
(-0.191504 5.60314 3.86162e-18)
(-0.185635 6.66066 9.86011e-17)
(1.26316 0.439254 -9.30799e-20)
(-1.13511 -1.22169 2.18174e-16)
(1.04295 -0.235523 -8.0203e-17)
(-0.177378 7.58911 0)
(-0.0494744 -0.00535829 -1.97243e-16)
(-0.507904 8.96727 -4.793e-17)
(4.68559 0.639225 -6.94247e-17)
(-0.0226612 4.35294 1.58421e-19)
(-0.944171 0.623349 -2.52279e-16)
(2.65135 1.08546 -1.00156e-16)
(-0.00144623 -0.96429 1.80549e-16)
(-0.0841868 -0.303459 1.87671e-16)
(-0.218704 3.62241 0)
(8.79544 1.43205 0)
(8.16987 1.0484 4.51704e-17)
(-0.0851517 5.59738 0)
(3.33102 0.810832 0)
(2.0596 0.727404 -2.10254e-16)
(0.203778 0.5164 0)
(1.68909 -0.301475 9.51868e-17)
(1.6652 -0.0240748 2.0078e-16)
(0.0585024 0.676043 6.76774e-19)
(-0.896342 0.645438 -1.05812e-16)
(-0.456009 0.0608216 -4.10154e-16)
(0.267185 -0.256374 -3.04028e-19)
(0.250708 -0.0133695 0)
(0.143206 0.708859 -7.21895e-17)
(-0.229569 5.72206 8.44216e-17)
(0.270203 4.06034 2.58812e-17)
(0.985582 -0.411025 -3.11758e-19)
(0.709038 -0.932679 0)
(2.12423 8.66281 2.7061e-18)
(1.72777 0.134641 -1.55963e-16)
(-0.696598 7.50949 1.47955e-16)
(4.32356 -0.0607954 0)
(-0.826433 -1.16979 -6.4218e-16)
(3.24342 -0.837612 1.63635e-16)
(5.4832 0.295683 4.1553e-17)
(-0.157354 9.41952 -5.074e-17)
(-0.195682 1.34575 0)
(0.00729406 0.551048 1.39033e-16)
(1.2394 0.0968633 6.37623e-16)
(2.67626 0.365917 -9.43482e-19)
(3.95745 0.109243 4.57512e-16)
(3.31489 0.0596519 5.95786e-17)
(-0.624193 10.4999 -9.82387e-17)
(0.494716 2.75547 -3.28212e-16)
(-0.650137 6.29912 -2.95684e-16)
(8.73959 0.248005 6.46506e-19)
(-0.18859 0.0247264 -5.2569e-16)
(-0.165398 -0.0238845 -1.30333e-17)
(1.37912 -0.13592 1.76757e-16)
(-0.156816 9.37173 5.43544e-17)
(-0.631849 6.51229 -1.96184e-16)
(2.97807 -0.0699022 2.39534e-16)
(-0.306599 2.05934 5.02272e-17)
(-0.028088 1.16739 -7.93174e-17)
(-0.502464 0.0546628 5.44001e-16)
(-1.19849 -1.03954 -9.43662e-17)
(-0.0641656 0.0385271 -6.87094e-17)
(0.535648 1.8052 -1.24614e-16)
(-0.204696 -0.0763235 -2.38525e-19)
(0.145447 4.39729 0)
(0.079202 5.73014 0)
(0.0455114 5.68916 0)
(0.0646625 5.67076 -4.06015e-17)
(-0.190608 5.74609 2.36234e-17)
(-0.00769597 5.57216 0)
(-0.207856 6.22839 0)
(-0.0945337 5.56498 0)
(0.101288 7.52012 -7.8432e-17)
(0.0619813 6.07128 0)
(0.163684 5.83277 0)
(0.16024 7.19704 7.91762e-17)
(0.0205818 7.57417 0)
(-0.0441223 7.52829 -3.59528e-17)
(0.197639 6.82442 1.9374e-17)
(-0.0368254 6.10592 0)
(0.296324 5.33184 -1.03553e-16)
(0.2296 5.97351 -3.76511e-17)
(0.228157 6.41354 2.29236e-17)
(0.438768 4.56511 1.15681e-16)
(0.532291 3.59842 3.53224e-17)
(0.631702 1.86385 1.90674e-17)
(0.584556 2.69459 -2.08315e-17)
(-0.066098 7.47107 3.74832e-17)
(-0.0670882 7.45054 0)
(-0.0583401 7.42984 0)
(0.0128156 5.58024 4.06558e-17)
(4.60834 -0.0688249 4.42552e-17)
(8.44649 0.0320278 -2.42392e-18)
(-0.717356 -0.00953714 -3.14529e-16)
(-0.702548 -1.49417 -8.70225e-17)
(1.27452 1.08079 -1.72522e-16)
(-1.38888 0.570025 -2.06194e-16)
(-0.266878 -0.715273 2.54788e-16)
(-0.563249 -1.18499 2.59202e-16)
(-1.63403 0.00889341 0)
(-0.365141 6.96349 -1.45463e-16)
(0.232093 5.93936 -6.88939e-17)
(-0.510468 6.53366 -4.39573e-17)
(-1.31722 0.280364 -4.30844e-16)
(1.30044 0.18682 0)
(8.84161 2.19875 -1.04452e-17)
(0.471021 -0.582525 -1.53011e-16)
(-0.225626 -0.444717 1.42237e-16)
(-1.42887 -1.13805 7.97614e-17)
(1.48755 -0.071151 8.51267e-16)
(-0.0860336 8.32994 1.02836e-16)
(3.10894 -0.0978848 0)
(2.37616 9.76108 3.17606e-16)
(-0.0211823 5.47706 0)
(-1.87111 -0.201184 0)
(-0.0678669 7.41401 0)
(-0.547523 -0.470866 8.37858e-17)
(-0.21711 -0.726582 1.82412e-16)
(9.04302 0.926598 -2.63576e-16)
(-0.820639 0.0340816 -2.12544e-16)
(8.88493 0.585804 -8.07906e-17)
(0.048445 1.84224 0)
(1.82586 0.0857167 0)
(-1.84227 -0.832886 -1.09122e-16)
(-0.619252 8.22835 1.68727e-16)
(-1.32976 1.15579 0)
(-0.150551 -0.0672257 -3.41223e-16)
(-0.0970772 -0.03527 0)
(-0.564625 -1.12051 0)
(0.0771114 0.144324 3.75625e-17)
(4.40385 0.285697 5.70447e-19)
(-0.556324 8.05778 -3.97404e-17)
(-0.984838 -0.146955 -3.89762e-16)
(-1.45358 -0.412125 2.51154e-16)
(2.70299 0.134223 -1.52927e-16)
(-0.019896 5.27935 0)
(6.85178 0.167535 3.33384e-17)
(8.45065 1.90439 0)
(2.108 0.934572 -3.61786e-16)
(1.64951 0.339412 -2.78177e-16)
(3.19952 1.01884 -3.23936e-16)
(0.966771 0.320929 -1.89341e-16)
(2.25955 0.817791 -1.81528e-16)
(0.88839 -1.42733 -5.50833e-16)
(-0.185705 -0.116599 -1.43593e-17)
(1.83682 -0.18159 5.70053e-17)