/*--------------------------------*- C++ -*----------------------------------*\
| =========                 |                                                 |
| \\      /  F ield         | OpenFOAM: The Open Source CFD Toolbox           |
|  \\    /   O peration     | Version:  v1912                                 |
|   \\  /    A nd           | Website:  www.openfoam.com                      |
|    \\/     M anipulation  |                                                 |
\*---------------------------------------------------------------------------*/
FoamFile
{
    version     2.0;
    format      ascii;
    class       volScalarField;
    location    "0.55";
    object      p;
}
// * * * * * * * * * * * * * * * * * * * * * * * * * * * * * * * * * * * * * //

dimensions      [0 2 -2 0 0 0 0];


internalField   nonuniform List<scalar> 
1431
(
103.357
96.7652
99.9332
95.9505
93.2535
93.9882
97.0271
36.2217
98.854
96.9392
45.7435
41.8398
100.356
87.0412
94.3998
96.8571
88.6028
101.681
91.0473
100.754
41.3491
86.6814
100.119
22.1625
98.9297
100.509
51.4686
95.5587
101.12
88.3861
90.6533
99.2072
91.0555
88.0079
95.6131
96.3035
100.758
99.7603
96.8861
98.152
100.442
100.62
100.664
96.7663
90.7207
98.338
88.6841
55.568
97.0593
99.5235
95.5407
96.7808
96.2687
50.7795
97.3524
97.3589
95.3835
45.6825
87.1262
96.5147
96.5094
97.0511
99.547
99.6222
96.8796
97.1347
96.9052
99.4156
98.9331
89.2473
44.4005
87.6406
96.8618
88.1852
87.1607
98.0917
98.921
99.321
96.9099
101.262
87.9286
98.2131
93.5258
89.2101
41.9895
95.2593
95.4698
94.6956
51.8304
74.8549
96.4483
95.122
99.8438
96.7393
97.9765
91.2256
42.0761
92.8399
96.8429
97.6095
97.2901
97.0047
87.0527
98.6589
99.2831
89.4085
98.8798
54.6909
97.3533
86.3341
97.9123
99.9192
100.527
99.9379
97.5288
95.0972
87.293
96.3649
95.4617
99.5497
91.4076
94.508
52.1049
87.7584
41.2136
96.7021
99.5257
92.14
99.8157
96.4586
89.5271
101.348
96.0854
90.9015
101.119
99.4677
99.3063
97.08
48.55
100.085
97.0387
90.3923
87.4005
100.087
103.742
91.0838
99.4942
97.1341
96.7852
97.8196
99.5221
99.4997
98.4168
95.19
98.6634
99.6067
49.4244
94.9377
85.5093
95.2568
66.3984
100.394
96.0939
95.3724
53.0294
100.74
99.1359
98.2703
99.5797
96.2526
65.42
97.1101
95.5693
50.4415
96.5434
48.1479
95.784
92.4758
96.1478
95.4858
97.0276
96.8986
94.9652
25.9471
93.5421
97.7371
49.0383
95.7777
94.7173
50.119
90.9855
96.2789
98.1808
57.6406
95.7413
92.2461
91.1833
93.765
98.6706
100.024
95.8658
95.9292
67.7314
95.7498
99.1993
90.7026
99.0454
99.0787
51.5193
99.4604
35.77
96.2565
99.1331
89.6217
44.388
97.6412
98.5088
92.8254
94.7441
72.5085
99.403
95.1574
95.5251
95.5275
98.6732
48.1855
68.8455
94.9347
99.1173
70.1793
34.2939
90.7461
90.667
97.7895
99.2003
77.1575
99.2956
91.9004
91.621
95.5653
95.5337
94.6014
50.505
92.5321
95.6532
90.4407
93.591
61.312
100.079
99.5809
92.0788
49.9684
95.2775
96.6885
90.8355
100.903
95.3469
43.7381
85.0455
98.2428
98.8702
50.6683
94.7932
95.5757
99.3861
77.2589
98.3131
59.2016
60.7537
94.603
98.8204
99.1278
96.7565
95.4287
59.0954
94.8586
53.7053
87.5084
90.5363
99.4201
96.9604
100.865
91.2135
95.7919
96.6934
91.5192
100.853
89.5578
47.7981
96.0554
98.8354
98.9255
93.38
97.0853
74.1162
99.3087
48.0303
98.0014
97.5282
89.5454
96.6883
98.8182
96.5268
98.5062
93.2299
95.4581
95.8861
97.3518
100.985
97.1097
88.573
96.3749
97.0923
57.0807
98.2569
91.6527
94.3679
97.0458
97.6436
34.1997
95.0866
92.7671
98.1299
97.075
95.232
100.18
97.8493
98.6896
56.8974
96.3586
86.8453
98.6126
98.7697
86.8316
95.3884
99.2003
99.4634
82.7302
94.8401
54.9056
99.1867
99.7233
82.484
100.292
97.744
92.2872
96.3324
51.9678
88.3245
97.2071
93.5981
98.0158
97.1697
93.48
97.5342
94.6789
39.2112
35.8731
48.9611
100.722
86.5343
98.6228
87.3102
96.2494
98.2659
41.8805
98.6275
12.7349
100.744
88.9797
56.6123
92.4756
57.0367
94.8501
101.034
52.6256
94.0273
95.1851
101.328
49.3632
100.404
94.0664
94.3466
97.9932
13.6549
97.5309
95.2825
97.5483
94.3099
94.8176
95.7388
95.7309
95.9454
95.6062
79.6749
97.3729
99.0316
99.5909
98.3308
95.4685
91.5858
100.934
87.4362
100.601
97.1864
98.2883
94.7648
94.5224
96.352
97.8495
91.8774
95.1421
97.4951
100.62
97.3877
98.0481
93.4569
94.0166
94.1801
97.2442
101.106
100.637
95.3685
93.2991
97.054
92.4952
100.303
91.8636
100.569
32.4941
101.075
101.201
101.129
100.945
100.771
100.807
100.876
100.9
100.958
100.69
95.4167
45.8131
97.4886
97.7549
97.603
97.3302
97.189
97.5719
88.7005
87.0539
87.5489
99.4791
97.0697
93.771
97.0842
97.0222
86.6317
53.0398
94.1788
98.1444
86.5894
99.4358
52.3719
96.9979
97.0989
99.4542
94.9393
51.4625
99.4664
47.71
96.7847
96.7454
98.5068
86.6104
47.2548
47.0326
99.4404
99.4095
97.0825
96.732
86.8964
97.0252
46.3262
96.5894
97.1249
87.0412
100.223
97.2353
99.7196
99.1305
44.4524
96.7253
100.076
99.2899
88.3586
100.405
100.308
42.1949
96.8518
95.4873
100.073
100.096
97.0935
100.008
42.485
48.0562
97.9493
96.6543
97.0183
93.6272
99.6948
91.2588
99.9509
100.388
99.7275
96.6822
100.334
99.302
90.8456
45.5385
89.1315
96.8679
94.6821
95.805
99.6704
95.4207
41.0681
97.7381
94.966
94.8212
96.1493
96.9294
100.008
93.3215
100.235
100.837
94.5999
94.854
98.8991
92.7759
98.2385
100.158
100.364
96.7733
95.8543
94.8715
94.9599
83.1712
98.6811
100.158
94.7231
100.033
100.347
96.5179
99.5043
92.0987
95.2849
100.038
88.8641
55.0845
100.433
44.8294
88.1728
96.9612
39.9362
96.4351
94.5815
95.4248
100.381
100.234
97.1358
74.2938
100.782
96.368
96.2071
92.7113
95.7653
95.5054
100.709
101.176
97.2408
79.8642
90.3155
92.4707
91.8031
99.194
91.4964
96.3787
95.6583
93.8292
100.609
98.7012
95.9699
94.8206
100.65
99.8119
89.1186
95.0082
94.5872
51.2537
73.4527
99.1469
96.8757
97.0635
87.3178
94.4138
21.0625
88.6826
95.1738
98.0547
95.5774
96.9419
96.4126
100.683
96.41
98.3878
45.2294
95.2921
101.222
95.2465
97.4697
95.4591
96.7536
96.2407
97.2599
89.0118
99.8606
92.5373
84.892
95.1617
97.9686
97.2638
96.9318
100.661
97.124
91.3352
37.7533
95.9664
96.8354
95.4053
98.0353
87.2099
95.3153
96.4132
98.5503
97.5399
90.0627
94.9173
36.1159
94.5307
100.531
100.228
94.8065
89.8003
98.6092
95.3481
99.2382
84.5202
101.159
57.617
73.2354
99.4574
100.186
97.0694
100.249
94.1896
100.587
100.891
96.7309
98.4171
96.9817
98.3583
41.2202
100.658
100.878
89.824
36.0757
86.5459
91.9324
95.8478
96.0787
94.9131
94.2246
44.8669
99.4135
98.1535
100.579
97.4385
96.2025
99.9519
95.0961
100.52
100.031
99.4027
98.1367
100.884
97.9725
89.8026
97.5369
82.7638
100.235
93.2569
97.4861
98.7744
99.5515
29.1322
94.9331
99.4475
94.9954
96.9352
96.9155
94.2679
90.8757
100.929
100.388
101.433
100.437
96.5534
95.2279
97.5916
100.602
90.3662
48.7811
97.3711
98.4871
99.3672
94.199
100.778
56.584
55.884
99.4924
96.2814
101.407
95.4274
95.7589
100.888
100.005
95.6714
46.3834
95.1871
95.9208
97.3406
95.624
91.9575
101.325
96.5714
86.3476
96.3835
95.8987
97.0051
98.1716
95.3396
97.5804
96.8767
11.2058
94.9611
99.9474
97.8114
95.4361
93.5039
36.8701
95.0165
101.888
97.0841
94.7763
98.7511
96.7998
96.9553
97.1818
95.3051
100.651
90.2371
93.8852
99.7876
98.436
95.1929
96.4365
97.0115
98.836
98.0557
93.7611
99.1579
97.1795
99.4796
100.338
48.6988
93.4509
95.1729
96.064
94.9171
94.3568
100.145
99.1022
98.9967
97.4961
96.9694
95.1209
92.0768
95.4353
98.5826
98.2585
86.459
95.6741
101.107
101.049
18.9639
97.3802
96.7218
96.6622
93.1793
55.7216
96.0159
95.3011
47.3358
100.358
53.775
100.841
93.9348
101.21
97.8091
98.3283
91.3269
97.192
100.18
100.476
96.0274
100.303
90.3094
94.3708
96.9094
100.768
92.4648
44.9581
96.8968
94.7353
52.4762
89.5589
100.898
97.9178
96.1202
97.7415
99.6863
99.3915
97.6686
96.6483
71.3351
99.0541
55.2045
97.2983
81.4026
100.837
90.0472
98.4883
94.9268
97.6911
99.409
96.7628
100.023
99.4422
99.3615
94.7071
94.1606
97.701
94.8375
100.599
98.0386
100.671
96.6843
51.8094
97.1015
100.337
54.339
99.1366
94.4048
86.7252
95.1441
97.1008
100.217
97.3901
96.7536
45.0979
95.063
97.7187
36.1986
59.6245
47.876
35.2628
63.207
99.2241
99.066
99.3281
99.1341
56.7106
99.5033
92.3975
95.4676
94.0288
91.1892
68.9383
49.4256
90.6462
78.5819
73.8005
91.0076
99.5259
99.177
91.6285
98.7441
98.4308
91.7333
98.2411
100.605
80.6848
99.4641
100.971
96.2349
86.9705
88.3763
37.7375
100.443
86.694
86.6039
96.6212
95.9891
52.443
89.0129
100.098
81.0787
93.6995
100.722
88.1152
95.5557
53.8225
94.4605
98.2134
95.2287
94.616
95.1556
97.2625
49.2259
98.1586
86.7338
100.729
100.035
96.9309
97.5339
57.9499
99.4365
96.7872
96.5628
95.8981
97.1158
101.363
89.5547
100.789
95.6719
98.7538
87.2058
94.1632
98.4157
97.0297
49.1473
99.4391
95.9314
96.0538
98.4781
86.6665
95.2131
97.5138
91.6545
95.71
96.3756
90.6952
42.2263
98.2185
87.2246
100.993
101.115
97.0641
31.8843
97.4647
96.9912
97.0728
38.8429
98.2431
87.6657
96.9061
96.5294
95.1393
91.5013
100.187
96.7683
90.744
59.7926
39.453
98.0706
97.7227
96.2181
92.5477
87.8397
100.882
91.2484
93.1709
100.966
94.0151
101.28
39.5607
101.277
95.0369
99.4781
89.4836
100.362
90.8909
97.6749
95.8741
95.0158
94.9531
98.82
95.2608
94.6953
29.807
19.9585
97.0872
100.356
86.3897
95.3771
98.8027
49.006
89.9176
96.4755
91.0352
74.6011
47.8747
95.1729
88.1219
99.0339
95.353
88.3821
50.0926
100.596
94.4567
95.6173
54.1166
95.6505
98.9987
95.1173
8.74674
101.395
39.0347
59.664
99.0395
100.592
96.5445
95.435
100.043
95.608
95.1515
95.6954
95.8117
101.093
95.9567
101.358
100.319
67.8838
99.3849
98.8861
100.536
54.0246
97.5437
52.8876
101.435
100.103
55.3808
96.6332
73.0607
68.1385
63.3737
51.1849
51.2801
50.5617
58.8065
51.7035
96.853
95.9189
95.9849
96.6037
96.4188
96.3764
98.1841
88.8742
100.512
92.8316
99.4008
89.8649
96.0562
101.333
99.5223
97.0862
96.7307
96.7792
98.71
98.6893
95.8436
96.916
93.0145
98.8591
101.235
100.657
96.091
81.9733
95.2386
94.2688
49.9462
99.1875
97.2348
95.4878
98.1625
99.3635
94.9826
36.8249
99.2577
98.5488
96.5454
91.5898
95.2643
90.6056
86.5768
93.9702
96.8713
87.3917
100.87
100.002
97.479
100.978
98.8055
88.4855
96.5318
18.0228
99.559
45.6287
9.32389
97.1509
47.9316
87.4929
94.8908
93.4711
41.6638
95.4894
96.076
100.689
75.2634
100.154
90.1036
97.6421
91.5243
96.7125
100.028
97.352
97.0141
62.5774
38.1663
19.7168
94.3667
93.4489
95.4997
99.5329
95.1072
97.1487
98.7655
87.318
100.297
47.5673
98.5497
97.0914
41.5897
96.0201
86.8433
100.215
97.2151
100.652
84.9223
66.1589
95.9514
99.4529
92.2969
99.9293
47.8359
100.479
47.4657
96.8199
100.569
89.1027
36.0393
89.9748
101.563
99.6742
98.7735
96.5621
54.0875
92.656
93.0026
87.6594
87.7044
101.247
100.016
96.0716
90.3237
95.562
53.8112
87.5585
99.7086
100.79
87.3591
96.0143
97.341
96.0633
96.1075
90.3262
99.8504
46.7188
96.4196
99.878
95.6847
93.7596
96.693
88.594
101.083
96.437
83.5373
94.7382
32.6458
98.3244
97.6356
94.0245
63.3907
93.881
97.0836
95.544
100.627
98.5332
96.9463
98.7829
102.271
101.126
88.7772
95.2229
87.7715
95.6205
94.9422
54.7861
99.9497
57.7142
97.8344
97.6249
95.1462
96.1297
87.7061
94.9735
100.368
87.2542
95.801
94.4375
35.8452
94.6803
95.0162
99.4264
97.699
90.8325
94.3775
97.3694
78.3277
99.3859
101.158
49.5567
88.3645
95.631
96.7242
97.0512
94.4332
100.593
99.7023
83.1026
90.7737
93.2231
88.9719
90.3077
99.0827
50.4208
97.1362
99.7687
86.6922
98.4828
57.422
91.2363
98.1197
92.6215
54.4433
100.686
98.6352
99.4274
42.4654
95.2823
99.4891
99.4436
96.3591
42.6584
98.1702
50.5134
95.1126
94.9604
96.7806
56.7983
95.7665
35.5079
80.3682
98.89
100.815
91.9777
47.0219
100.862
18.6846
97.1506
98.4493
99.1258
99.3756
92.8063
67.0498
95.4413
99.3269
43.6287
58.6398
101.051
89.9556
95.5893
50.7059
95.0887
88.191
95.6064
55.3196
97.1173
96.2876
100.282
97.8401
88.2795
98.2896
91.9344
96.4388
95.0887
60.5843
56.2524
94.9925
94.7712
91.8088
99.4478
97.5556
98.6571
86.955
97.5148
96.5097
92.783
91.6618
99.1279
69.3223
98.9548
96.0585
99.7419
78.0956
96.2738
95.0385
98.0267
87.5652
95.4901
90.772
92.493
99.1372
95.8152
96.3106
64.2973
50.44
90.502
97.2951
95.7145
99.1495
99.422
100.389
99.4204
99.4219
97.0419
96.4399
93.7504
96.2322
60.4055
100.13
83.2787
98.9596
89.118
47.2702
95.3319
96.2543
87.9943
92.9479
97.5092
36.1489
100.306
100.621
100.386
98.1632
97.1348
97.1578
95.8809
95.1846
95.1481
28.2599
56.3208
88.8749
110.499
88.1464
90.2269
89.8974
99.0202
109.687
95.5006
98.634
103.137
108.845
98.2981
99.4362
89.129
97.0499
96.3227
93.766
)
;

boundaryField
{
    frontAndBack
    {
        type            empty;
    }
    wallOuter
    {
        type            zeroGradient;
    }
    inlet
    {
        type            zeroGradient;
    }
    outlet
    {
        type            fixedValue;
        value           uniform 0;
    }
    wallInner
    {
        type            zeroGradient;
    }
    procBoundary3to1
    {
        type            processor;
        value           nonuniform List<scalar> 
48
(
101.033
100.211
100.45
100.483
100.697
98.2378
100.211
101.26
101.091
94.4381
94.4381
94.4901
94.4901
98.1148
96.8251
96.3982
99.9563
97.8137
99.9563
100.33
99.6669
100.165
100.33
98.738
96.0052
100.042
100.536
100.165
100.72
100.182
100.182
101.063
101.063
101.091
100.196
100.819
101.281
96.0052
101.201
100.593
98.1148
101.216
101.074
100.33
95.8316
100.876
100.331
99.0562
)
;
    }
    procBoundary3to2
    {
        type            processor;
        value           nonuniform List<scalar> 
29
(
99.3945
99.3945
97.1052
97.24
97.0397
99.5454
97.3914
99.4976
97.1733
97.1779
99.4617
96.1216
99.4512
97.0728
96.9325
97.0715
97.0701
97.1054
99.4576
96.8822
96.8249
97.0701
96.9952
97.1054
97.0265
97.0329
97.1054
95.55
95.55
)
;
    }
}


// ************************************************************************* //
