/*--------------------------------*- C++ -*----------------------------------*\
| =========                 |                                                 |
| \\      /  F ield         | OpenFOAM: The Open Source CFD Toolbox           |
|  \\    /   O peration     | Version:  v1912                                 |
|   \\  /    A nd           | Website:  www.openfoam.com                      |
|    \\/     M anipulation  |                                                 |
\*---------------------------------------------------------------------------*/
FoamFile
{
    version     2.0;
    format      ascii;
    class       surfaceScalarField;
    location    "0.55";
    object      phi;
}
// * * * * * * * * * * * * * * * * * * * * * * * * * * * * * * * * * * * * * //

dimensions      [0 3 -1 0 0 0 0];
oriented        oriented;


internalField   nonuniform List<scalar> 
2708
(
-0.000526793
3.24777e-05
0.000188248
0.000306067
0.000204687
0.00012827
-7.98513e-05
-0.000253106
-0.000247303
-3.70419e-05
0.000200453
8.38918e-05
-0.000128945
0.00014158
-2.84885e-05
1.58529e-05
-0.000499901
-0.000202298
0.000366762
0.000335436
0.000866736
-0.00107348
0.000492243
-0.000285499
0.000128574
-0.000105485
5.08521e-05
-7.39415e-05
-7.85929e-05
3.2122e-05
-2.67883e-05
7.32592e-05
-0.000644461
0.000638535
0.000752722
-0.000746795
5.745e-05
0.000203509
-0.000132385
0.00100495
-0.00103712
0.000277295
-0.000245125
0.000225379
-0.000334602
0.000640372
-0.000531149
-0.000213566
0.000305998
-0.000201077
0.000108645
-0.000127766
-0.000430454
0.000385047
0.000173174
0.000555187
-0.000702679
-0.000198366
0.000345858
0.000178964
3.24663e-05
-0.000153981
-0.000873634
0.000669344
-0.000199558
0.000403848
-0.000125975
-3.45504e-05
0.000101035
5.94903e-05
0.000369933
0.000173508
-0.00049656
-4.6881e-05
-9.56452e-05
2.08502e-05
0.000104583
-2.97879e-05
-0.000383264
0.000861813
0.000526398
0.00011467
-4.53422e-05
-0.000197094
-0.000790461
-0.000411561
0.000657353
0.000544669
-0.000276223
-0.00125634
0.00129542
0.00023715
-0.000814774
-0.000620149
-2.24067e-05
-6.48955e-05
0.000231016
-0.000143714
-0.00101364
-0.000156135
0.000132653
-0.000313118
0.00023566
0.000331348
-0.00025389
4.62794e-05
-0.000470754
0.000424474
-1.6349e-05
-0.000618995
0.000635344
0.000740547
6.0867e-05
-6.13166e-05
-0.000740098
-0.000613624
4.59978e-05
-2.31904e-05
0.000590817
0.000710655
5.60719e-05
-3.42786e-05
-0.000732448
-0.000258216
0.000193519
8.01766e-05
-1.54794e-05
0.000751542
0.000320514
-0.000776635
-0.000295422
-4.69431e-05
0.000149906
-0.000111436
8.47259e-06
0.000251433
0.000704165
-0.000152122
-0.000206375
0.000132101
0.000160283
-8.60085e-05
-2.20907e-05
5.36311e-05
1.43054e-05
-4.58458e-05
8.79853e-05
0.000563574
-0.000633492
-1.80673e-05
-0.000528539
0.00049565
0.000825352
0.000901466
-9.73772e-05
-0.000138596
-7.07322e-05
-2.34386e-05
4.75335e-05
4.66373e-05
-0.000541819
0.000811727
-0.000639171
0.000369263
0.000209763
-3.89774e-05
-0.000217723
4.69377e-05
0.000178567
-0.000104563
-7.80806e-05
4.07648e-06
-0.000964534
0.0001069
-0.000156001
3.71953e-05
-5.58833e-05
-8.67969e-05
8.34962e-05
0.000150974
-9.34197e-05
-0.00014105
3.0738e-05
-0.000387183
0.000432846
-7.64002e-05
8.59243e-05
-7.9404e-05
-4.27626e-05
3.62423e-05
0.000476984
-0.000276922
-0.000226533
2.64709e-05
5.81614e-06
0.000181259
-0.000138419
-4.8656e-05
0.000127476
5.95993e-05
-0.000172406
-1.46699e-05
-5.65801e-05
0.000185694
-4.04288e-05
-8.86849e-05
0.000124091
-0.000206705
-8.83836e-05
0.000170998
-0.000255973
-0.000339353
0.000384109
0.000211217
0.000904425
-0.000210074
-0.000694351
0.000552852
-6.62962e-05
-0.000486556
0.000242069
9.77087e-05
-3.06479e-06
-9.46439e-05
0.000137655
-0.000184268
4.66134e-05
-0.000146532
-5.98434e-05
-1.10676e-05
-1.10231e-05
6.92357e-05
3.38375e-05
0.000484542
-5.84902e-05
0.000135437
-2.50915e-05
-7.52423e-05
0.000159625
-8.4383e-05
-0.000217169
0.000280525
-6.33568e-05
-9.199e-05
0.000312235
-0.000220245
-0.000271732
1.35162e-05
8.74231e-05
-5.21947e-05
4.13602e-05
0.000152158
-0.000337433
-9.30216e-05
0.000315512
-0.000105749
0.000241362
3.1343e-05
-0.000272705
0.000157416
-3.54301e-05
-0.000121986
0.000154521
4.89878e-05
-0.00022691
0.000100935
-0.000745532
-0.000128102
-6.45425e-05
-8.70987e-06
7.32524e-05
-0.000180415
9.00489e-05
0.000458588
-0.000368222
-0.000225391
0.000172246
0.000231711
-7.37204e-05
5.41769e-05
0.00125183
-0.00123229
5.10079e-06
5.89547e-05
-2.56903e-06
-6.14864e-05
-0.00020536
1.8423e-06
-6.88518e-06
0.000210403
0.000247606
-0.000282584
2.36786e-05
1.12995e-05
2.27591e-05
3.00795e-05
-0.00106791
0.00101508
-0.000149465
5.92415e-05
-0.000742914
0.000833137
1.58117e-05
0.00025874
-0.000150461
0.000232484
-0.00023397
1.7297e-05
6.49723e-06
-6.65344e-05
0.000192138
-4.04514e-05
8.77747e-05
-0.000164101
0.000116778
2.59345e-05
1.95908e-05
8.19512e-05
4.56763e-05
-0.000561473
0.000515797
-0.000122584
-0.000310988
-0.000339998
0.000410426
0.00024056
-7.55301e-05
-2.44426e-05
2.92405e-05
-0.000113002
0.000113961
-9.59346e-07
0.000334258
-0.00019605
-0.000194789
3.48213e-05
-1.26427e-05
-0.000558922
2.90048e-05
-5.57736e-05
0.000585691
-0.000303682
-7.67654e-05
8.47947e-05
0.000295653
0.000106143
9.65419e-05
-4.5269e-05
-0.000617338
-6.11267e-06
0.000627519
-4.06858e-06
-2.53747e-06
0.00058515
-0.000569043
-1.35691e-05
-0.00011819
0.000729818
-0.00078075
0.000169122
0.000645886
-0.000363716
-0.000693732
0.000716527
-0.000371024
0.000303676
-5.45052e-05
-0.000315535
0.000235658
0.000385875
-8.01143e-05
9.98423e-05
-0.000133267
0.000113539
-0.000631654
0.000570336
0.000556968
0.00014782
0.000116467
-0.000184388
0.000113315
-4.15217e-05
0.000149234
-0.000144133
-8.87743e-06
-5.79335e-05
-0.000159235
-0.000124067
-0.000578613
-5.21055e-05
5.79217e-05
-5.69074e-05
-3.07442e-05
0.000342979
0.000119913
3.46087e-05
-5.94022e-06
-0.000135488
-0.000260749
0.000197871
5.07048e-05
-0.000259392
0.000171645
8.27923e-06
-0.000113887
-2.00276e-06
0.00010761
0.00026348
0.000405863
3.02767e-05
-6.48272e-05
0.000155748
-4.5887e-05
-0.000101581
9.35908e-05
-0.000358982
0.000635325
-7.12767e-05
9.4615e-05
-0.000118984
-4.16356e-05
0.00011562
9.76787e-05
-4.25853e-05
4.21565e-05
-0.00013899
0.000139419
0.000127027
-7.57206e-06
-0.000122519
0.00120326
0.000138811
-0.00116337
-0.0001787
0.00016678
6.32021e-06
4.73109e-05
0.000697633
3.15921e-05
8.94157e-05
-0.000818641
-0.000196078
0.00041696
0.000436471
0.000125701
0.000630631
0.000152659
-0.00024737
0.000310546
0.000271082
0.000187501
0.000177527
8.4012e-05
-0.00011422
-8.64087e-05
0.000621387
2.42881e-05
-0.000559267
-5.36674e-06
0.0001546
-0.000523882
-2.09563e-05
-5.19501e-05
0.000596788
-0.000234702
0.000202681
-3.45137e-05
-0.00123896
-0.000108301
0.00118684
0.000160428
0.000522565
0.000242023
-0.000208766
-0.000555823
-0.000181745
9.368e-05
-0.000567262
0.000655326
0.000137023
-0.000128907
-1.57528e-05
7.63722e-06
0.00109679
-0.000931682
0.000261792
-0.000426904
-0.000255342
-0.000240524
0.00029479
-0.000181885
0.000149923
0.000143452
-0.00011149
1.40272e-06
0.000178053
-0.000174952
-4.50381e-06
-6.48922e-05
1.27867e-05
-0.000830647
0.000330539
-2.66845e-05
7.89974e-05
9.47571e-05
0.000187466
-0.000163813
0.000319819
-0.000279471
-0.000218966
0.000178618
-0.000177083
-0.000955894
8.45718e-05
0.0010484
-0.000264713
-0.000371378
0.00038872
2.23283e-05
0.000684139
-2.04424e-05
-0.000686025
0.000250438
-0.00151088
6.08954e-05
0.00119955
0.000235935
-0.000354427
0.000246762
0.000316977
-0.0013055
-3.00808e-05
0.000151191
3.46373e-05
0.00108832
-0.000763402
5.77139e-05
0.000444533
-2.52633e-05
0.000589854
-0.000105893
-0.00044286
-4.11007e-05
-6.31493e-05
1.87391e-05
8.14905e-05
0.000265545
-0.000290596
8.20553e-05
-5.70041e-05
0.00112907
-0.00109518
-0.000310114
0.000600708
-8.3459e-05
0.00057107
-0.000414344
0.000411806
-0.000365279
0.000247089
0.00026562
0.00049288
-0.000814763
0.000334568
-9.82234e-05
0.000578418
-2.22297e-05
-6.124e-05
-0.00114764
0.00123111
0.000682811
-0.000734164
0.000177054
0.000663674
-0.000564385
-1.24759e-07
-9.91636e-05
0.000579752
-0.000796382
0.000304616
0.000659022
-6.59268e-05
0.000136723
-2.5524e-06
0.000107101
0.000822031
-0.000687108
-0.000264338
-0.000364141
0.000317491
0.00072012
-0.000675489
-0.00018606
0.000141428
0.000131296
-3.46986e-05
6.30283e-05
-0.000244039
0.00015787
0.000362375
-0.000276206
0.00016626
-0.000229663
0.000224135
-0.000160731
8.55102e-05
-0.000183392
-8.40029e-05
-0.00069895
-0.000410766
0.000844401
0.000265315
-1.14216e-05
-0.00019192
0.000198762
4.57954e-06
-0.000100995
0.00028366
-0.00031514
0.000132476
1.23396e-05
0.00072392
-0.000720306
-1.59531e-05
0.000174746
-0.000585807
0.000574546
-0.000163484
-0.000154907
4.8902e-07
0.000111648
4.27702e-05
0.00106505
-0.00110024
-3.24259e-05
6.76133e-05
-0.000221794
1.02321e-05
0.000275056
-1.47841e-05
-0.000260272
1.07655e-05
-7.87423e-05
0.0002179
0.00060186
4.13702e-05
-5.80803e-05
-0.000542357
-6.00671e-05
-1.49139e-05
-8.39096e-05
-0.00117269
0.00118288
-9.18633e-05
-5.33447e-05
3.22063e-05
0.000642229
-0.000193685
-0.000534953
-2.49166e-05
0.00072583
1.92069e-05
0.000318693
-4.44963e-05
6.15661e-05
-0.000335763
0.000241127
-0.00062751
-0.000312568
0.000418952
0.000322183
-0.000609104
-0.000132031
-5.10606e-05
0.000243305
7.33008e-05
0.000319274
-0.000310709
0.000518517
-0.000527082
2.41546e-05
-0.000183264
-2.43691e-05
0.000183479
-0.000618072
0.000513142
-0.00104049
0.00105713
-0.000100548
-0.000660456
0.000781273
-0.000531583
-0.000215505
0.000195326
-0.000423494
4.28741e-05
0.000702802
-0.000542155
6.05944e-05
0.000722688
-6.79181e-05
-3.67773e-05
0.000126718
-2.20228e-05
-1.46866e-05
1.44381e-05
0.000740796
2.76789e-06
-0.000625282
0.000634854
0.000369757
-0.00013012
0.000340114
-9.85985e-06
-0.00063051
2.67462e-05
-0.000743208
-0.000273182
0.000843567
0.000172824
0.00061185
0.000118809
-0.0001288
4.47162e-06
-0.000368285
-0.000178544
-0.000148637
0.000455882
0.000375566
-2.48336e-05
2.11131e-05
0.000231295
-0.000227575
0.000106414
-9.16933e-05
-4.48013e-05
-0.000135492
0.000399906
0.000143762
-0.000408176
8.66624e-05
-6.21079e-05
-0.000367614
0.000553116
-0.00018103
-0.000128761
-0.000153695
-0.00013606
0.000105425
0.000184329
-0.000401331
0.000208658
-0.000277555
0.000913298
0.000270427
-0.000518231
-0.0003613
-0.000133244
-0.00011271
3.67915e-05
-5.95695e-05
-0.00038551
0.00128678
-0.000878514
0.00014452
-6.09485e-06
-0.000183799
-5.99313e-05
8.02202e-05
4.58278e-05
-0.00104363
7.05799e-05
0.000830134
0.000142914
0.000149507
5.35385e-06
-1.03401e-05
-0.000171126
0.00107753
0.000150732
-0.000559798
0.000739027
-0.000498631
0.000319402
2.05922e-05
0.000248611
0.000158012
-0.000107652
-0.000298971
0.000114644
-0.000422264
-5.89511e-05
8.7048e-05
-1.88794e-05
0.000158649
1.19817e-06
-0.000348843
-0.000692788
-0.000595177
0.000340275
-0.000484522
-0.000498124
0.00064237
-5.3273e-05
0.000162413
0.000549882
0.000113121
-0.000868997
-6.58988e-05
-0.000140807
0.00029601
0.000153798
0.000581684
0.000189236
-0.000159069
-5.11509e-05
-0.000201106
7.2956e-07
0.00015162
-0.000177183
0.00129488
-0.00037517
-4.45713e-05
0.000630487
0.0015868
-0.000230325
-6.15935e-05
-0.000749996
-9.00135e-05
-2.25212e-05
0.000862531
-0.000390042
0.00039281
-0.000453176
0.000571986
-0.000372146
0.000425315
-0.000317881
-0.000259375
0.00024646
-0.000466063
0.000478977
-3.85133e-06
0.000485845
0.000347518
-0.000193925
-4.76473e-05
-0.000105945
-2.77302e-05
-0.000117885
6.63074e-05
7.93081e-05
-0.000292531
0.000513754
-0.000401637
-0.000886894
0.000170187
-0.00032692
-0.000441903
6.59012e-05
-8.08007e-05
0.00121196
-0.00119706
7.61539e-05
-6.11841e-05
-0.000268075
-2.36112e-05
-0.000534602
0.00046284
-0.000621225
0.000692987
-5.52447e-05
-0.000424598
-8.95999e-06
-0.000324019
1.17621e-06
0.000331803
1.95888e-05
-0.000874312
4.06594e-05
-0.000596184
0.000277032
-0.000642311
7.68575e-05
-0.000491201
-1.27456e-05
-0.00015903
7.99128e-05
-0.000385719
-4.32313e-06
0.000267759
0.000320362
-0.000277575
-0.000109423
8.53044e-05
2.41185e-05
0.000147766
-1.30532e-05
-0.000185863
-0.000262817
0.000348109
5.52793e-05
-0.000140571
-0.00025381
-0.000569593
0.000136874
0.000686528
0.000153674
1.99877e-05
-0.000487039
-0.000624335
0.000429708
0.000378367
0.000774532
-0.000196151
0.0001823
-0.000761805
0.000823783
4.51229e-05
1.24624e-05
0.00010745
6.54989e-06
-0.000181162
0.000127889
0.000732952
-0.000672168
0.000577752
-0.000581786
0.0001624
-0.000424126
-0.000534401
0.000283038
0.000105366
5.3356e-05
-0.000140641
0.000160014
-7.27284e-05
-0.000699106
0.000570904
0.000791514
-0.000663312
0.000200093
-0.000249735
-0.000437397
8.95603e-05
0.000150685
-4.49845e-05
4.04416e-05
-4.16697e-06
0.00030429
-3.14377e-05
-0.000281813
-0.000629416
0.000328905
0.000483764
-0.000183254
0.000154481
4.59721e-05
6.89766e-05
0.000759865
-0.000627034
-0.000679979
0.000547148
0.000233472
-0.000257369
4.08537e-05
-1.69567e-05
-0.000221895
-5.30096e-05
9.11063e-05
0.000391832
-0.000451899
0.00010336
-0.000109774
-7.79693e-05
0.000759876
-0.000613343
-0.000681136
-3.30136e-05
5.66947e-05
5.47661e-05
-7.84471e-05
0.000118599
-3.10642e-05
-0.000243902
-0.00011991
-0.00066786
0.000536846
0.000556618
-0.000425604
-0.000290184
-0.000634768
-0.000775709
0.000453337
-0.000307043
-3.28016e-06
-0.000100281
-0.00024419
0.000100569
-0.000133172
0.000282443
-0.000796214
0.000646943
-0.000316825
0.000993646
-0.000106485
-0.000617201
0.000495188
0.000854965
-0.000834521
0.000550094
0.000740309
-0.000150562
-0.000111728
0.000780114
-0.000537767
0.00134445
-0.00015443
-0.000740547
-3.02457e-05
0.0003197
2.00467e-05
-0.000309501
6.50356e-05
-1.16075e-05
0.000887098
-0.000940526
-6.59393e-05
0.000232564
8.17656e-06
-0.000174801
0.000400963
-4.19319e-05
-5.47409e-05
0.000545421
0.000184299
-0.000540719
-0.000189
-0.000296326
0.000318342
-8.79551e-05
0.000239751
-0.00018714
-5.1286e-05
-1.32551e-06
0.000396266
-4.87107e-05
0.000839318
-0.00118687
0.000154339
-0.000222258
0.000126515
-0.0014032
0.00125446
2.0447e-05
-1.77609e-06
9.5999e-05
3.1116e-05
-0.000162055
0.000122018
-0.000707301
0.00108236
0.00021597
-0.000591027
-0.000668045
0.000613148
-0.000605862
0.000461116
9.86361e-05
-0.000611819
0.000559463
-3.92984e-05
-0.000734844
0.000757793
0.000907007
-0.000926419
-0.000121461
-0.000148784
6.79476e-05
-0.00061681
0.000105837
0.00116673
-0.000655756
-0.000380059
-0.000110783
0.000355349
0.000870238
0.000293596
0.000823827
-0.000816744
-0.000107631
0.000189692
-0.000117243
3.90618e-05
-3.77187e-05
0.0001159
0.000117982
-9.04337e-05
3.70677e-05
-6.46157e-05
-0.000210797
0.000863498
0.000331059
-0.00025836
-0.000328042
-0.000716967
0.000541966
-3.2377e-05
0.000164029
4.57924e-05
-0.000177445
0.000116861
-0.000997105
-0.000712784
8.68939e-05
0.00072486
-9.47232e-05
-0.000717031
0.00047833
0.000192729
-0.000193404
-0.000477655
0.000690033
1.46715e-06
-0.000464418
-0.000227082
0.000880587
-0.00100428
-6.23633e-05
-0.00041392
-0.000134901
0.000168762
-6.5096e-05
-7.24844e-05
-0.000425507
6.19525e-05
3.54917e-05
0.000328062
-0.000562471
7.72039e-05
5.97608e-05
0.000161134
4.04149e-05
-4.78751e-05
0.000854409
-0.000405566
-0.000166464
-0.000580537
0.000418972
-0.000197453
0.000359017
-0.00033233
-3.1483e-05
-0.000216724
-0.000669988
0.00081651
0.000244297
-0.000772379
-0.000255064
0.000783146
0.000651846
-0.000650227
0.000182679
9.24344e-05
0.000848383
-0.000636663
0.000512251
2.84269e-05
0.000743378
5.8329e-05
-5.48783e-05
4.27192e-05
8.10588e-05
-6.88997e-05
0.000457751
-0.000133901
-6.66929e-06
-0.000317181
-0.000881557
5.2373e-05
-5.22249e-05
3.63681e-05
1.58568e-05
-8.15535e-05
4.62796e-05
0.000485388
-6.83066e-05
4.06695e-05
0.000739465
-0.000457936
4.73765e-05
0.000468495
-4.65002e-05
6.33935e-05
-0.000167614
3.39002e-05
-3.62801e-05
0.000169994
1.45919e-05
0.000762335
9.68771e-05
-1.53127e-05
-4.11229e-05
0.000541308
0.000110749
-0.000520375
-0.000131682
-8.46019e-05
0.00025494
-0.00105537
0.000453697
-5.0998e-05
6.57962e-05
-9.05259e-05
0.000555327
0.000174348
-0.000177421
-0.000160481
5.011e-05
0.000328146
0.000162294
-0.000161705
-6.69791e-05
7.63198e-05
0.000444356
9.1579e-05
-8.16491e-05
-0.000131391
2.42798e-05
-6.40537e-05
6.06241e-05
0.000231151
0.000331715
-0.000389358
-0.000156498
-6.49116e-05
0.000141295
-0.000214322
-0.001199
0.000156977
-0.000119704
0.000285309
1.16451e-05
-0.000177251
0.000290096
-0.000254034
0.000132675
-0.000168738
0.000396788
-0.000226395
0.000126707
-4.48426e-05
0.000234494
0.000133076
0.000243485
2.02264e-05
-0.000348546
0.000339805
-0.000226892
0.000235633
6.98393e-05
-0.000134583
0.000359152
-0.000233839
9.2699e-06
0.00032238
-0.000117158
1.81074e-05
-8.8625e-05
0.000429669
3.88137e-05
-0.000355892
0.000192271
0.000124807
0.00109488
0.000526825
-0.000290906
-0.0013308
3.2982e-05
0.000324173
1.3977e-05
0.000251569
0.00013323
-2.81763e-05
6.56592e-06
-6.74468e-05
-3.18925e-05
3.391e-05
6.54293e-05
0.000111282
-1.87153e-05
0.000240474
-0.000214181
-0.00027809
0.000251797
-3.66934e-05
2.44465e-05
7.13922e-05
-5.91452e-05
-6.57849e-05
-8.46196e-05
0.000113711
-0.000179764
0.000159582
-9.7544e-05
0.000117726
-9.65983e-05
0.000105027
1.95482e-05
-2.79769e-05
4.91428e-06
1.10039e-05
1.83615e-05
1.85552e-05
0.000123667
-2.07138e-05
3.02675e-05
1.08932e-05
-0.00092
8.99032e-06
0.00085458
5.64297e-05
-6.85947e-05
6.64829e-05
7.02613e-06
-0.000161103
-0.00021397
0.000192462
4.07737e-05
-3.7041e-05
-0.000152704
7.06019e-05
-8.23511e-05
0.000164453
-0.000991105
0.000132
7.58266e-06
-0.00012
0.000130973
-1.69475e-05
-0.00021877
-6.51936e-05
4.68226e-05
-0.000134333
-0.000177488
-0.000117334
-0.00109641
0.000219949
-9.68426e-05
-0.000148115
-0.000279784
-0.000677816
9.39619e-05
-0.000109094
-8.30636e-06
6.20915e-05
-0.000285594
-0.000143402
4.13393e-05
-1.2404e-05
-7.22557e-05
4.33204e-05
-0.00132044
0.000283583
0.000856643
-0.000685105
0.00092334
0.000162098
0.00011653
-0.000123179
0.000211571
-0.000130977
2.04796e-05
-4.58062e-05
0.000117261
3.26056e-05
4.85132e-06
3.47434e-06
2.64264e-05
2.79632e-05
-0.000900885
0.00043709
-8.79931e-05
0.000131878
-9.08276e-05
5.02957e-05
-2.48286e-05
4.2396e-05
0.00010828
-0.000145824
-0.000174795
-0.000142549
-2.36867e-05
0.000216192
-0.000263573
-5.39851e-05
2.97883e-05
-0.000109691
0.000133888
-0.000708662
0.000132132
-3.84333e-05
-0.000181692
0.00014681
-7.77961e-05
3.34507e-05
0.000127905
-0.000158719
-2.63641e-06
0.00015484
-0.000234805
6.46781e-05
1.52876e-05
9.728e-05
-7.59947e-05
-0.00013598
7.35444e-05
-8.32323e-05
-0.00115829
0.000158718
8.32103e-05
8.88422e-05
-3.99205e-05
0.000158873
0.000351006
-0.000277395
-3.34918e-05
-0.000137085
0.00012135
4.92274e-05
-0.000144151
0.000232904
-0.000153649
0.000395227
0.000150652
-2.69175e-05
-6.57427e-06
-0.000317891
-0.000835134
-5.2612e-06
-0.00122518
-0.00049113
0.000123123
-1.66731e-05
4.77685e-05
0.000167319
7.5041e-05
-4.1077e-05
0.00022443
0.000113492
-0.000179049
0.00010373
-0.00021443
0.000204011
6.89822e-05
-4.18429e-05
-2.63122e-06
1.96565e-05
6.53956e-05
-9.23131e-05
-0.000153265
-1.54368e-05
6.62722e-05
-0.000137962
0.000147144
8.44911e-05
-0.000141912
0.000192228
-0.000762955
-0.000276573
0.000408048
-0.000236038
0.000165529
-0.000421654
0.000282369
7.05962e-05
0.000176048
0.000211779
0.000168269
-9.75391e-05
0.000102312
1.52151e-05
-0.001397
-0.000201091
0.00042689
6.5637e-06
-0.000112499
1.15768e-05
2.47913e-05
-0.000252378
6.33611e-05
-0.000172983
-0.000112464
0.000222086
0.000206969
-9.54713e-05
-7.89891e-07
-7.19738e-06
-0.000133924
0.000396629
-0.000433149
-0.000463383
0.000499903
5.95051e-05
0.000141211
3.86754e-05
0.000802425
-0.000737389
0.000136195
0.000177648
-0.000145574
-0.00013977
0.000231738
-0.000378512
0.00048383
-0.000239219
1.2667e-05
-1.5669e-05
3.00205e-06
3.65242e-05
0.00076729
-0.00071138
3.56183e-05
0.000193271
-0.000591633
0.000520985
3.55442e-05
-0.000344811
0.000316084
-0.000860808
0.000974761
-0.000113953
0.00023065
-0.00019019
-0.000518615
-3.21291e-05
-0.000165856
0.0007166
-0.000377252
0.000356955
-0.000310849
0.000331146
6.09272e-06
7.9165e-05
0.000797645
0.000396128
-0.000472498
0.000519644
-0.000443275
-0.000149402
7.21836e-05
0.000123832
7.77846e-05
-0.000214634
-9.45261e-05
2.34092e-06
2.22794e-05
0.000105163
-5.83829e-05
-0.000824295
0.000671288
-0.000230257
-8.74541e-05
-0.000413054
-0.00132139
-0.000305936
0.000797404
0.000115939
-5.5123e-05
-0.000247303
0.00027218
-0.000503301
0.000666008
-6.41401e-05
-0.000206625
0.000215643
0.000241048
-1.55508e-05
2.94716e-05
-0.000185696
0.000178504
0.000218828
-0.000616356
1.98568e-06
0.000395542
-0.000399656
0.000364244
-3.15665e-05
-0.000930874
0.000467242
0.000746074
-7.80524e-05
0.000311807
0.000160808
4.21292e-05
-9.89864e-05
6.99571e-05
2.90293e-05
0.000844063
-0.000111689
0.000127939
5.43468e-05
6.45158e-05
0.000609534
-0.00067405
-3.79745e-05
0.000272442
-0.000351626
0.000100023
-0.00022735
-0.000417505
-3.31491e-05
0.000241707
-0.000236651
-0.00093593
-0.000563062
0.000831932
-0.000545444
0.000643991
8.59502e-05
-0.000619192
0.000156058
0.000597883
-0.000609965
0.000802464
-0.000264262
8.75409e-05
-8.81948e-05
-0.000163127
-8.1209e-05
0.000190476
0.000173101
0.000226005
-0.000234508
0.00061787
-0.000581346
-0.000377117
-0.000537838
0.00020674
0.000392664
-0.000537831
-0.000196983
0.000216582
-0.000380316
0.000308021
-0.000313485
0.00038578
-0.000145284
0.000123294
0.000214218
0.000289183
0.000436894
-0.000247747
0.00121647
0.000223254
0.000487383
-0.000509953
9.88902e-05
9.37697e-05
0.000838105
-0.000836731
-0.000144465
0.00014309
0.000758705
0.000227283
-0.000532652
-0.00121791
0.00113811
0.000194759
-0.000752628
-4.8243e-05
4.93864e-05
-5.97954e-05
5.8652e-05
6.90659e-05
3.10373e-05
5.83534e-05
-0.000120055
-0.000144924
-0.000342133
0.000207245
-0.000427584
-3.48232e-05
0.000229213
-0.000682195
0.000761303
0.000751257
-0.000665575
0.000558209
-0.000643891
0.00014429
0.00114769
-0.000975002
1.39269e-05
-2.42355e-05
0.000157665
-6.84212e-05
2.87377e-05
0.000705831
-0.000157444
4.14682e-05
0.000167077
-0.000336422
-0.000165692
2.21125e-05
4.78446e-05
-0.000505004
0.00057854
-0.000415669
-0.000185746
-3.2033e-06
-7.80772e-05
0.000906793
-0.000393458
-0.000420862
0.000434003
-8.04272e-05
0.000187313
-0.000199312
6.01401e-05
0.000298617
-1.06485e-05
0.000252388
2.37537e-05
0.00013855
-0.000107463
0.00028072
0.000145201
0.000241124
-2.2081e-05
7.07455e-05
0.000741035
0.000493637
-0.000577492
-0.000115534
-0.00047868
-0.000757384
0.00064443
-0.00025673
4.81794e-05
0.000808983
-0.000684759
0.000323141
-5.31566e-05
6.27577e-05
-5.44023e-05
-8.29713e-05
7.04722e-05
0.000499882
-5.23287e-05
0.000670199
-0.000245661
-0.000688944
0.000123361
-5.79928e-06
-0.00044848
-0.000177917
-0.000179835
4.33659e-05
0.000781778
-0.000110157
-0.000528708
0.000612971
-3.43628e-06
0.000553525
0.00068019
-7.12686e-05
-0.000135603
-0.00101897
-0.000350456
0.000337271
-0.00036158
2.24388e-05
-2.67576e-05
-9.55564e-06
9.90495e-05
0.000289242
0.000136063
-4.14635e-05
-9.38669e-05
8.80788e-05
0.000243226
0.000506586
0.000104706
0.000141369
0.000998889
-0.000944712
0.00053609
4.41027e-05
3.46333e-05
-9.6456e-07
7.17566e-05
0.00108825
-8.9359e-05
-1.05154e-06
0.000819736
7.34564e-05
-4.21579e-06
0.000145457
-0.000282486
-0.000151361
-0.000458824
-0.000877417
-6.72951e-05
-8.11429e-05
0.000154899
-8.73184e-05
1.35626e-05
-0.000258261
0.000369634
-7.99586e-05
-3.14137e-05
-1.33422e-06
0.000192516
-0.000792895
-3.40024e-05
0.000209601
5.51028e-05
-1.04268e-05
-4.4676e-05
-0.000252263
5.01402e-05
0.000194926
0.000185031
0.000247942
0.000794126
9.41043e-05
-3.90015e-05
0.000146073
-0.000124796
-2.12767e-05
-0.000242782
-0.000225534
0.000302414
-7.68804e-05
-0.000137854
0.000320512
0.00015935
-1.32771e-05
0.00115931
0.000156339
-9.50539e-05
-6.12848e-05
-3.34226e-05
-0.000566563
-2.65952e-05
-0.00043741
-3.06916e-05
-8.45708e-05
0.00075477
-0.000102966
0.00119121
1.05505e-06
0.000611916
-6.91951e-05
0.000129329
-0.000100133
0.000326154
0.000105058
-0.000100174
-0.000658873
0.000653989
-0.000469236
-0.000211492
-8.3274e-05
-0.000721097
-6.81974e-05
-0.000616397
0.000143751
0.000571282
-0.00014048
0.000161694
0.000781022
-0.000497335
9.37707e-05
4.2073e-05
-0.000135114
-0.000618389
-0.000472714
5.49297e-05
2.08624e-06
-0.000737079
-2.42026e-05
0.00062588
0.0003674
-0.000373948
6.30409e-05
-8.49664e-05
0.00010723
5.05847e-05
-3.98213e-05
9.39423e-05
-0.000428289
-0.00012645
-8.47597e-05
3.37888e-05
-0.00010545
-0.000262822
0.000319054
0.000139094
0.000143701
-1.04106e-05
-3.18703e-05
6.20282e-05
-7.11208e-05
5.92328e-05
0.000225421
-1.41425e-05
-2.62475e-05
0.000851178
-0.000141623
0.000392463
-0.000811516
-9.95707e-06
-9.06639e-05
-0.000569551
0.000549109
-0.000438466
4.94458e-05
0.000644633
-0.0001945
0.000257186
-5.10405e-05
-0.00118692
0.000184033
-2.74399e-05
-0.000291383
0.000263049
-0.000298411
0.000205718
0.000798719
-4.08518e-05
0.000121966
7.85654e-05
-0.000120591
0.000219673
-4.03028e-05
5.60331e-05
5.90296e-05
6.59268e-05
-1.15703e-05
0.000329877
-5.90402e-05
0.000858814
0.000302727
-0.00075176
9.30179e-05
0.000119961
-0.000101697
-0.000810918
-0.000129679
-0.000167876
-0.000231979
0.000225765
0.000125506
-5.18094e-05
0.000235767
0.000108024
-3.3473e-06
0.00011071
-0.000139941
2.05387e-05
7.90289e-05
-0.000523186
-3.01723e-05
6.50008e-06
-9.57984e-05
0.00100699
0.00100279
0.000151111
0.000874065
-0.000113935
8.94268e-06
-0.000177633
0.000206483
-2.885e-05
-0.000208282
0.000198956
-0.000659668
0.000511557
0.000610952
0.000146749
-0.000105981
-0.000447816
0.000135418
0.00035669
0.000162934
4.01579e-05
-0.00130029
-0.00082905
0.00110578
-0.00047561
0.000554405
3.06023e-05
-0.000716752
-0.000466335
0.000259156
-0.000197808
-0.00035388
-0.000383955
6.42354e-05
-1.82829e-05
-7.16585e-06
-2.74206e-05
2.46294e-05
-0.000393988
0.000159033
-0.000334637
-2.44013e-05
2.98448e-05
9.77151e-06
0.000240307
9.86314e-05
8.48782e-06
9.52399e-05
0.000166122
-0.000239075
-2.46006e-05
0.000172354
-0.000758373
-0.000241021
0.000571565
8.94348e-05
0.000740484
3.63902e-05
-0.000278169
0.000572502
-0.00050513
2.58133e-05
-0.000183096
-0.000289251
8.85547e-05
-0.00117365
8.76256e-05
-3.1285e-05
-0.000649625
0.000121146
0.000559764
-6.3623e-06
0.000828517
-0.000215743
0.000182383
0.000230517
-0.000453072
0.000161435
-0.000576862
0.00052946
-4.26113e-05
-0.00019387
-0.000344741
0.00033423
-5.4896e-05
-0.000538949
9.5737e-05
0.000698289
1.18868e-05
-1.25431e-05
-0.000150789
-0.00011507
9.38882e-05
0.000248255
0.000482176
-8.97134e-05
-0.00070046
-0.000111056
5.02526e-05
0.000377873
-0.000119878
0.000236245
0.000512912
4.6836e-05
-0.000113639
-0.000402101
0.000289345
-2.1887e-05
0.000142404
1.40872e-05
-0.000409923
3.37493e-05
-4.54976e-05
0.000174429
2.62848e-06
0.000383066
-0.000521093
-0.000102995
0.000316439
-3.23562e-05
0.000113789
-0.000525894
3.61544e-06
0.000515916
-2.49167e-05
0.000181941
-0.00100292
0.00101654
-4.91658e-05
9.40808e-05
2.07997e-05
-5.73542e-05
0.000161248
-0.000220772
-7.78382e-05
0.000304119
-5.41287e-05
0.000108423
-9.0615e-05
2.3008e-05
-0.000312016
0.000202647
-0.000210016
0.000319385
-0.000303593
3.82612e-05
-0.000138267
-4.59919e-05
-0.000446744
-0.000472381
-0.000600688
0.000761053
-0.000201049
-0.000217791
-0.000134412
0.000603467
7.4191e-05
-0.000543246
-0.000139649
-0.000138337
0.000115815
0.000162172
0.000189801
3.23083e-05
-2.51915e-05
-0.000591381
0.000570236
-0.0002251
-0.000347439
0.000515426
-0.000468244
-0.000506861
0.000516117
0.000143874
-8.06042e-05
-0.000434294
-1.4077e-05
-0.000338839
0.000103253
-6.72866e-05
0.000905881
-9.16789e-05
-0.000661917
-0.000739302
-0.000376421
0.000738109
4.64221e-05
-0.000549997
2.77248e-05
2.50734e-05
-0.000395815
-0.000229792
0.000448201
-0.000343876
0.000105732
0.000865236
-0.000746229
-0.000119007
-0.000484286
0.000504628
-2.03419e-05
-0.000441412
0.000400753
-0.000375918
-2.48344e-05
0.000978357
0.000494768
-0.000454941
0.000461783
-6.84279e-06
0.000504538
4.95971e-05
0.000528052
-6.62691e-05
-0.000685635
0.00108526
0.000588919
0.000666046
-0.000638852
-2.71942e-05
0.000603357
0.000471578
0.000453118
1.84595e-05
0.000595752
7.60549e-06
0.000447146
5.97266e-06
0.000467424
-2.02786e-05
0.000491712
1.65865e-05
0.000992002
0.000283244
0.000136765
0.00011472
-9.12568e-05
-0.000235349
3.06933e-05
-1.17023e-06
-0.000107604
0.000647323
-0.000113941
-4.33375e-05
0.000122744
0.000480056
-2.97466e-06
0.000738247
0.000123008
0.000146164
-0.000252221
0.000350325
5.97662e-05
0.000114355
7.76801e-05
0.000542091
-0.000529969
-3.22874e-05
0.000312222
0.000364456
-0.00010772
5.05173e-07
-7.10287e-06
-5.0335e-05
-5.36497e-05
-0.000268704
0.0005002
0.000900589
-0.000397666
0.000158252
-6.11704e-05
-7.13835e-05
-3.79449e-05
-0.000135309
0.000914119
-0.00120107
0.000108254
0.000233375
-0.000136616
0.000981842
8.50288e-05
0.000145762
-0.00121263
5.60291e-05
-8.76138e-05
-4.19712e-05
-1.11921e-05
-3.82253e-05
2.09289e-05
0.000326299
-0.000598195
-9.16632e-05
-0.000107477
0.00012311
-0.000184193
0.000176446
0.00011602
-0.000221074
0.000120407
5.19959e-05
-0.00010592
6.55599e-05
2.29279e-05
-0.000404714
-0.000171304
0.000378565
-0.00040475
0.000441439
-0.000400809
-0.000126073
-0.000183083
0.000103206
3.05463e-05
0.000160247
7.29527e-05
-4.12592e-05
-0.000482133
0.000488696
3.45453e-05
-0.000128346
1.21514e-05
0.000237381
-0.000236875
0.000301075
-0.00066597
8.50304e-06
-0.00055617
0.000143209
0.00034632
-0.000488135
-5.7743e-05
0.000131796
-0.000213505
0.000182745
-0.000222681
-3.3237e-05
-0.000539386
7.95936e-05
-0.00017954
0.000622344
1.85723e-05
6.92384e-05
-0.000121206
0.000633128
-0.000299522
0.000198388
-2.34604e-05
-8.29563e-05
-6.98967e-06
0.000109483
-0.000177741
-0.000283793
1.4712e-05
-7.61907e-05
0.00013461
-9.0053e-06
-4.37086e-05
-0.000272183
8.50286e-05
-9.128e-05
0.000129545
-0.000641577
-0.00013721
0.000161247
4.1469e-05
5.0242e-05
-0.000189294
-0.00020838
0.000655992
-2.21818e-05
-2.86992e-05
0.000216012
-5.97275e-05
-6.16911e-05
-0.000209612
0.000567313
-0.000364605
-0.000122212
0.000456194
-0.000136465
6.61399e-05
0.00012545
-7.9942e-05
-0.000154094
0.000497961
-0.00053727
0.000218445
-0.00129709
0.0013511
-0.00103101
0.000381137
0.000632369
-0.000165473