/*--------------------------------*- C++ -*----------------------------------*\
| =========                 |                                                 |
| \\      /  F ield         | OpenFOAM: The Open Source CFD Toolbox           |
|  \\    /   O peration     | Version:  v1912                                 |
|   \\  /    A nd           | Website:  www.openfoam.com                      |
|    \\/     M anipulation  |                                                 |
\*---------------------------------------------------------------------------*/
FoamFile
{
    version     2.0;
    format      ascii;
    class       volVectorField;
    location    "0.55";
    object      U;
}
// * * * * * * * * * * * * * * * * * * * * * * * * * * * * * * * * * * * * * //

dimensions      [0 1 -1 0 0 0 0];


internalField   nonuniform List<vector> 
1431
(
(0.524209 3.3593 1.1428e-16)
(0.984896 2.1847 2.78401e-17)
(1.2612 -0.0805241 0)
(0.725167 -0.101446 2.25586e-16)
(-2.47443 -0.0370414 0)
(0.667022 7.20929 1.82016e-16)
(0.938188 0.17743 5.13861e-16)
(0.174871 0.0283521 4.79404e-17)
(0.367642 7.04422 1.29815e-16)
(1.0156 0.0946221 4.71058e-16)
(2.74662 11.3222 2.07969e-17)
(4.98389 -0.628389 0)
(0.525591 1.88398 -1.79817e-16)
(-2.05706 0.100571 -5.13768e-16)
(3.6012 -0.408724 0)
(1.08661 0.213355 -4.44308e-16)
(4.49313 -0.226747 -2.36372e-16)
(0.140802 -0.585946 0)
(4.60674 -0.529024 -1.90358e-16)
(-1.10442 -0.398039 1.90265e-16)
(4.20816 10.7211 -7.19517e-19)
(-1.27205 0.0788763 2.1738e-16)
(0.541057 5.93089 -1.43952e-16)
(11.4589 2.08101 -3.7912e-18)
(0.486036 6.97605 1.29489e-16)
(0.933924 0.865279 -9.48279e-20)
(1.49583 11.1725 -2.13514e-17)
(2.80828 -1.57479 -3.40121e-16)
(-0.0462094 5.09554 -4.66484e-17)
(0.216708 6.83717 2.9918e-17)
(0.091119 7.6984 -8.13199e-17)
(0.0119391 6.58485 3.6133e-17)
(-0.068267 7.68012 0)
(-1.25614 0.165279 -4.24227e-16)
(0.700028 5.77165 -2.5926e-16)
(1.09051 0.0949772 0)
(-0.210799 5.19778 0)
(1.11109 -0.100076 -5.10053e-19)
(0.281626 -0.0993265 0)
(0.0830478 6.70164 0)
(-0.0173471 7.84383 -7.5807e-20)
(-0.234319 7.2657 1.22294e-16)
(0.520054 1.21525 -2.51676e-16)
(0.692614 0.122765 2.38328e-16)
(0.933408 6.6731 0)
(-0.77293 -1.20061 3.38724e-16)
(0.131452 1.24341 2.45024e-17)
(1.04839 10.871 -6.39961e-17)
(0.84303 0.183071 0)
(1.32235 0.0267563 0)
(0.799076 2.95991 0)
(0.716174 -0.106399 0)
(0.752066 3.26214 2.93784e-16)
(1.18454 -0.250679 1.60358e-17)
(0.349451 1.44975 -1.92769e-18)
(0.458215 0.910357 4.90504e-16)
(-1.27265 0.310179 1.98857e-16)
(2.98764 -0.760994 0)
(5.03552 0.166077 0)
(3.28159 0.0664973 3.6924e-16)
(2.55084 -0.684587 -1.3071e-16)
(0.464744 0.10123 4.34054e-16)
(0.926077 0.0303964 0)
(0.9696 -0.066886 0)
(0.11452 -0.0673441 1.07547e-18)
(0.674545 0.0352839 -2.54174e-16)
(2.67307 -0.095255 -2.3716e-16)
(0.689439 0.00633655 -9.71136e-17)
(0.726916 -0.267768 -6.1431e-18)
(-1.60173 -0.317184 0)
(-1.37173 -0.696463 6.15267e-17)
(-1.41711 0.160426 -1.50999e-16)
(0.393373 -0.250693 1.44251e-16)
(-1.19408 0.107512 3.47494e-16)
(-2.1394 -0.0586111 3.80772e-16)
(-1.36062 -0.621389 -5.17178e-16)
(1.66444 -0.264951 -2.31623e-17)
(0.79834 -0.0162017 -1.92763e-16)
(0.991291 -0.00400351 -3.06586e-16)
(0.678744 -0.64784 0)
(4.45357 -0.000829893 -5.63371e-17)
(0.0102628 -0.230669 1.30919e-17)
(4.18314 1.21844 -6.62432e-18)
(1.16255 1.69757 9.73724e-17)
(11.7035 0.699078 2.19953e-18)
(0.422425 0.00569991 -1.20211e-16)
(-1.99025 0.0144775 0)
(2.68018 0.555174 1.58512e-16)
(10.4293 0.218046 5.53441e-18)
(7.68386 1.12992 2.04985e-18)
(-0.518035 0.852942 -2.66678e-16)
(-1.36536 0.960036 2.77722e-16)
(1.24031 -0.0526416 3.01356e-16)
(1.17174 0.0715044 -1.49691e-16)
(0.0494529 1.00665 8.9025e-18)
(-0.0617939 6.22993 0)
(1.52963 -0.645375 -7.72124e-17)
(3.91148 2.65591 -1.07484e-17)
(0.568962 0.18995 0)
(-0.833068 -0.0231704 -6.89827e-19)
(0.382361 1.82697 1.69154e-16)
(0.4372 0.151983 -7.73237e-16)
(4.14645 -0.000961458 0)
(2.23827 -0.952524 -2.55954e-16)
(0.983171 -0.0827315 3.8203e-16)
(0.101028 6.12743 1.27586e-17)
(0.0941784 5.54649 0)
(1.17447 7.955 6.74237e-18)
(0.726992 4.34764 2.69105e-16)
(4.75672 0.0932171 0)
(2.84453 -0.293548 -5.24723e-16)
(0.473239 2.63662 -3.18971e-16)
(1.09221 -0.00482184 5.19555e-16)
(0.0858144 7.15168 -8.69605e-17)
(0.779372 1.67462 -8.79284e-19)
(-2.11918 -0.289102 6.79718e-17)
(-1.83711 0.202264 0)
(0.701293 -0.133103 -2.53213e-16)
(0.917818 -0.0938716 0)
(0.924736 0.00256295 0)
(-0.592383 -0.50696 -2.41569e-17)
(3.81764 0.144835 6.67467e-17)
(-0.787176 0.0958123 2.47216e-16)
(-2.16977 -0.157979 1.53483e-16)
(-2.15254 -0.538291 0)
(0.892027 -0.0259331 1.84437e-16)
(1.24501 -0.0870984 0)
(2.08673 -0.341965 4.44398e-16)
(1.59674 -0.433705 -2.8293e-16)
(-1.25922 0.387886 3.85827e-16)
(3.79721 -0.358177 3.27749e-16)
(-0.190024 -0.212136 -1.17722e-16)
(-0.993999 0.515703 -9.50633e-17)
(3.3199 0.0954969 8.84244e-17)
(-0.990444 0.0415361 0)
(1.34501 0.00305628 -3.39172e-16)
(1.17129 -0.118371 1.65387e-16)
(0.82255 0.21691 0)
(9.35922 -0.411325 3.1395e-17)
(1.00548 0.0188979 2.07539e-16)
(0.268289 -0.0272932 0)
(0.0920616 7.67531 0)
(4.7883 -0.0424508 6.93099e-17)
(1.85073 -0.596602 0)
(0.558048 4.48077 1.75947e-16)
(-0.106387 7.75393 -6.22909e-17)
(0.884173 -0.0231881 -2.07944e-16)
(0.537427 2.48329 -3.28879e-16)
(1.27698 0.0220566 3.2009e-16)
(0.878736 -0.548901 1.72339e-16)
(1.08529 0.00618299 2.42598e-16)
(-0.181914 -0.386903 8.8001e-17)
(0.0650076 6.62713 -4.34043e-20)
(0.927393 -0.0483882 -2.25931e-16)
(0.0933513 6.15077 -3.597e-17)
(1.36445 -0.0809881 -3.89322e-16)
(10.5865 0.232502 -2.19041e-18)
(2.13762 3.72921 6.60685e-17)
(5.97009 1.2835 -5.28925e-18)
(-1.15664 0.134351 2.33818e-17)
(8.78276 2.82756 -2.8635e-18)
(0.37747 2.42587 1.92331e-16)
(-1.92502 -0.368653 -1.56206e-16)
(-1.61465 0.021226 9.91018e-18)
(-0.159378 -0.249199 -5.2099e-17)
(0.24845 4.67425 -1.52868e-16)
(0.0582468 5.97037 4.65714e-16)
(0.491835 1.16032 8.35605e-18)
(1.30198 -0.00415392 2.4047e-16)
(2.50166 2.32046 2.35899e-17)
(8.97434 1.60744 -6.05088e-18)
(0.538323 3.11563 0)
(0.149524 7.00324 -3.11539e-17)
(9.3558 -0.137513 3.55244e-18)
(1.45827 2.55899 -1.10984e-17)
(10.8925 0.0641952 0)
(-1.23049 0.367703 0)
(0.765702 7.64464 -1.01796e-16)
(0.784265 3.31291 -2.82473e-16)
(0.804486 5.3588 -2.8487e-17)
(0.715366 0.0401475 -4.80614e-16)
(0.585664 -0.185311 0)
(0.552653 2.42195 7.73476e-18)
(9.73454 2.88048 -2.65757e-18)
(0.944352 7.61035 7.29298e-17)
(0.127063 3.83724 0)
(0.976098 4.00366 -1.0063e-17)
(2.0961 3.01117 -4.23222e-18)
(0.324591 6.77869 4.93322e-17)
(11.2549 -0.257213 2.03553e-17)
(-0.0994277 7.27307 -5.15849e-17)
(0.239436 6.44168 -3.20569e-17)
(0.136519 6.45233 -5.05346e-17)
(0.969722 7.10124 0)
(0.841666 -0.116828 0)
(2.73773 4.59153 -6.35758e-17)
(4.02583 3.41529 0)
(0.968627 6.11962 -1.64803e-16)
(1.1681 -0.0782943 3.86879e-16)
(2.64725 0.587719 0)
(0.66342 2.38414 5.0673e-19)
(-1.89581 -0.309383 -8.54076e-17)
(1.36074 9.32774 -3.53719e-17)
(-1.81001 0.13336 8.22476e-17)
(0.639176 2.59697 -5.77715e-17)
(-0.0149421 7.16899 3.44544e-18)
(0.131102 5.23219 9.78021e-17)
(1.08836 0.312936 3.05414e-16)
(8.81451 0.278702 -1.16e-18)
(1.39842 1.8889 -1.65824e-16)
(-2.05673 0.198458 2.55777e-16)
(-1.85657 -0.343927 0)
(0.0286123 5.54743 3.10258e-17)
(0.392341 6.08636 3.1814e-17)
(10.5164 0.879406 0)
(-0.575995 0.408887 6.1048e-16)
(0.0945306 6.3861 1.5477e-16)
(1.0428 6.34279 -4.38286e-17)
(0.695263 2.6955 -5.8679e-17)
(1.14056 9.23013 2.34169e-16)
(0.0272793 6.58031 2.52426e-16)
(0.511399 2.22775 0)
(3.80753 1.01681 2.05769e-16)
(-1.69787 -0.113041 0)
(0.143735 5.8402 -1.43036e-16)
(8.68983 1.00484 2.01062e-18)
(2.27981 7.58927 -2.92249e-17)
(3.16583 2.45337 2.32152e-17)
(0.0830901 6.53476 1.72692e-16)
(0.760217 9.68931 3.98904e-17)
(1.1091 0.151718 3.21195e-17)
(0.0501367 7.68654 1.26005e-20)
(-0.0599426 5.98055 -3.55472e-18)
(0.135586 6.70521 6.79945e-17)
(0.035951 6.56361 -3.50769e-17)
(7.2914 2.06346 6.97342e-18)
(0.0325895 5.6161 0)
(0.683453 5.80927 -3.90114e-17)
(-0.038614 7.51274 0)
(0.395949 1.87951 3.12059e-17)
(-0.828196 0.514477 6.90532e-17)
(0.991448 3.97237 1.31632e-17)
(8.68141 0.590123 -7.79988e-19)
(0.405591 6.67811 0)
(0.382988 6.42602 2.47193e-17)
(-0.840498 -1.29298 6.00153e-16)
(0.500098 6.09173 2.49967e-16)
(1.13947 9.61093 0)
(0.0375616 6.16583 -3.23178e-16)
(1.32079 -0.0435575 1.82544e-16)
(1.09406 0.306678 0)
(10.6115 0.364788 -2.80678e-19)
(-1.19331 0.0505885 2.30471e-18)
(-1.61729 -0.605152 -1.59919e-17)
(-0.0392362 7.17221 3.99486e-17)
(-0.0899696 6.9625 -5.18678e-17)
(-1.21984 -0.0239876 2.72742e-21)
(8.82199 1.53984 -4.79033e-18)
(5.71108 3.16092 2.88723e-17)
(0.165811 6.27167 -5.05607e-17)
(0.222818 2.33402 1.38463e-16)
(9.47154 -0.322737 -2.00524e-17)
(0.617039 2.59531 0)
(-1.3901 0.244478 7.44483e-17)
(0.236067 5.06346 3.18068e-17)
(1.40901 7.83516 -5.64073e-17)
(0.361299 5.37735 -1.42107e-16)
(0.998237 6.13536 0)
(0.911577 10.5223 5.97419e-17)
(-1.10122 0.170859 0)
(1.30592 3.31423 -5.51789e-17)
(0.0500965 5.97565 6.36655e-17)
(0.591464 1.89211 -1.29796e-17)
(0.167429 1.38746 6.50512e-17)
(9.61731 2.34006 0)
(0.107304 7.20645 -4.25376e-21)
(10.0941 1.64111 -5.37652e-17)
(1.13297 7.19471 2.32875e-17)
(0.0105204 3.67664 3.82835e-20)
(0.0338114 3.89501 -8.32155e-17)
(0.529117 3.62688 0)
(-0.0648156 4.63541 1.78424e-16)
(-0.0672988 7.69004 8.01994e-17)
(0.913131 2.03803 2.60225e-16)
(-0.347256 1.00005 0)
(4.50987 2.01205 0)
(-0.0612142 7.09876 1.26928e-16)
(4.74258 2.916 -3.5054e-17)
(11.5061 0.431635 0)
(1.07417 2.59934 -2.93284e-17)
(0.870667 0.103513 -2.52638e-16)
(0.313491 6.09361 1.42178e-16)
(3.40089 3.1919 -2.73497e-17)
(0.423241 3.01028 -6.75693e-17)
(0.705539 9.28485 -1.28879e-16)
(0.09221 6.55503 -4.13283e-17)
(2.18624 5.39811 0)
(0.301674 3.91087 0)
(-0.105746 1.34042 2.17588e-16)
(0.0751333 3.69162 8.84321e-18)
(0.644363 3.09923 -1.96539e-16)
(0.60058 -0.0324416 -2.37534e-16)
(0.256176 1.61729 -3.77581e-18)
(0.852657 2.29363 8.56342e-17)
(0.206016 5.3257 -4.73573e-17)
(-1.2529 -0.0989565 -5.42724e-17)
(1.48794 3.10989 1.97254e-17)
(0.16768 6.14472 -2.90801e-16)
(-0.191782 6.55963 -2.47892e-16)
(1.87138 2.16901 -1.74648e-17)
(3.29652 5.7 2.19911e-16)
(0.721479 0.0572245 0)
(0.664952 0.0644235 -1.02551e-16)
(0.244187 1.19329 0)
(0.326548 6.64828 -2.46102e-16)
(3.7883 3.93179 0)
(0.956902 5.79468 -8.76245e-19)
(-0.0205124 1.22775 1.63813e-17)
(0.826713 -0.533083 -2.4476e-17)
(6.27911 6.48632 1.18095e-18)
(1.43944 3.5825 1.91222e-17)
(3.21959 4.21152 0)
(-0.145888 -0.215239 0)
(0.365402 2.53649 0)
(0.990341 6.3686 3.04568e-16)
(0.867422 -0.00265043 -2.62257e-16)
(-0.56887 -0.0390842 0)
(0.23795 6.89835 2.75206e-16)
(1.80775 0.127482 2.8901e-17)
(-1.67383 -0.524319 7.55072e-17)
(0.617936 4.16911 2.01884e-16)
(0.722964 -0.801212 1.82123e-16)
(0.31454 6.8032 -2.75647e-16)
(-0.83289 -0.0984544 -3.65848e-16)
(-0.991398 0.354725 -1.64287e-17)
(0.852539 2.0769 -3.8971e-17)
(0.0544372 6.9512 0)
(6.35922 2.14677 5.13132e-18)
(1.02598 6.71442 -1.44227e-16)
(0.507352 2.07521 0)
(0.691549 0.0186252 0)
(0.819163 1.84931 3.07501e-17)
(2.90977 7.16975 8.11595e-17)
(0.0421787 7.37221 0)
(0.306061 7.01216 1.34562e-16)
(-0.138137 6.58712 0)
(0.75801 2.26565 1.80841e-17)
(10.4046 1.03341 5.08161e-17)
(2.74534 6.07371 -1.51498e-16)
(0.526034 2.95886 0)
(0.655208 7.3231 1.56011e-16)
(0.628398 -1.32265 -3.6596e-16)
(0.375214 2.4583 2.0965e-16)
(1.68256 4.65899 -6.6357e-19)
(1.17336 -1.96859 2.62373e-16)
(0.731952 2.18658 -1.83914e-16)
(6.96527 2.52803 1.684e-18)
(-1.46573 0.612387 -6.21067e-17)
(10.585 -0.0730592 -2.43501e-20)
(-0.0473642 7.52824 -2.89804e-19)
(-0.64479 0.134074 -4.4241e-16)
(0.0349343 3.72785 -3.47596e-17)
(0.242116 4.0047 -6.69014e-17)
(-0.0374383 1.32567 3.86507e-18)
(0.939377 -0.306918 -4.35646e-17)
(6.49812 7.26657 1.52982e-17)
(0.389934 7.198 1.30127e-16)
(11.1721 4.3682 -5.51241e-19)
(-0.0846166 6.52248 3.57933e-17)
(0.427785 7.7761 1.06793e-17)
(1.12035 9.62369 -8.11582e-17)
(-1.22032 -0.474304 -1.91177e-16)
(9.86507 0.50638 8.1119e-17)
(0.846131 3.46687 0)
(0.0459726 7.39025 7.15213e-17)
(6.33125 1.031 -1.10949e-18)
(1.90203 4.25174 -1.96348e-17)
(0.196822 0.949724 -7.76641e-17)
(0.629879 0.411141 0)
(6.45023 1.82525 -2.2096e-18)
(0.288372 2.97011 3.68564e-16)
(1.00745 7.13639 7.04781e-17)
(0.397519 1.62909 0)
(1.56806 -1.42957 1.40064e-16)
(9.91825 6.14224 -1.2448e-17)
(0.302597 6.88272 3.54305e-17)
(0.849902 4.32698 -4.68662e-16)
(0.212986 7.11355 1.96086e-18)
(0.87675 6.67358 0)
(0.837539 3.644 -2.51944e-17)
(-0.607361 0.728967 1.35859e-16)
(0.75004 4.33328 -1.43052e-16)
(0.710406 4.27394 1.52784e-16)
(-1.31737 -0.190315 1.82181e-16)
(6.78296 3.17162 -3.6628e-18)
(0.441064 2.67428 4.76418e-22)
(0.415011 4.07102 6.87904e-19)
(0.383761 4.23449 -1.01277e-16)
(0.307924 7.36308 -2.6367e-16)
(0.479189 6.79489 -3.75123e-17)
(1.96512 5.44992 -7.92765e-17)
(0.0415012 7.36126 2.09704e-17)
(4.79601 3.87136 1.00782e-16)
(-0.0671785 6.90176 -2.17554e-17)
(0.789712 0.501816 -9.19898e-17)
(0.422354 4.27834 7.69687e-20)
(0.497046 7.36635 6.64395e-17)
(0.0224799 0.348759 1.03967e-16)
(-0.654117 0.762158 3.5053e-17)
(0.421104 4.3117 1.28784e-17)
(2.35795 5.09367 0)
(0.941578 5.94481 0)
(0.412535 4.34956 6.28097e-18)
(0.217244 1.61494 1.697e-16)
(0.276066 7.16519 -1.27293e-17)
(0.0163934 -0.582316 2.34399e-16)
(1.26153 5.0834 -1.05813e-19)
(0.231929 0.678358 0)
(0.872948 6.73854 -1.36928e-16)
(0.407267 4.3721 0)
(0.0167902 4.90585 -7.79314e-17)
(0.344453 1.78792 -4.64885e-16)
(0.850206 2.36089 -1.03798e-16)
(1.45767 4.93091 3.33691e-17)
(0.425618 4.36576 1.34021e-17)
(0.115472 -1.08868 3.74169e-16)
(-0.531821 -0.272311 -1.77647e-19)
(2.87913 -0.586286 9.54284e-17)
(1.09659 -0.193227 -2.81468e-16)
(11.0774 1.65806 2.27489e-18)
(0.0989213 2.69728 1.3788e-16)
(-0.0534108 2.85956 2.1137e-16)
(-0.0489739 3.35094 -1.58641e-19)
(-0.173352 3.05833 0)
(-0.044715 3.61185 -1.17611e-16)
(0.0328537 3.46626 -9.38953e-17)
(0.0857814 2.97981 -9.82235e-17)
(0.0717473 3.8223 -1.74347e-16)
(0.0992391 3.16901 2.97766e-16)
(0.110242 3.78488 7.64719e-17)
(0.851555 -2.18483 0)
(9.78137 0.0996805 6.25744e-19)
(0.633192 -2.09905 -9.80537e-17)
(0.591904 -1.51178 2.95811e-16)
(0.288253 -0.889328 -4.60907e-16)
(0.513152 -0.788036 1.51589e-18)
(0.490875 0.397832 0)
(0.842564 0.263904 -1.04492e-16)
(2.51596 0.949741 4.52536e-17)
(0.289961 0.45168 6.94095e-17)
(0.404593 0.617028 6.3717e-17)
(1.34544 0.0263888 -2.471e-16)
(0.869484 0.196853 -1.94328e-16)
(-0.128825 0.115829 0)
(0.904099 0.139052 -1.02981e-16)
(0.877631 0.274101 3.25188e-16)
(0.238986 0.130503 1.00324e-16)
(6.74622 -0.15289 -2.28805e-18)
(0.477171 0.411748 0)
(1.61086 -0.803794 2.60487e-16)
(0.0928598 0.33882 -1.33977e-16)
(1.25056 0.0725363 2.22211e-16)
(6.83643 -0.367098 -2.9964e-17)
(0.882878 0.346482 -3.04867e-16)
(1.51913 -0.864267 -1.59434e-16)
(1.3015 0.0460326 2.59869e-16)
(0.17484 -1.18704 3.51176e-16)
(6.78492 -0.524378 1.28884e-19)
(1.36333 0.024923 -2.48901e-16)
(6.98269 -0.58805 -2.56097e-17)
(0.899331 0.217003 -7.82026e-16)
(0.856 0.055681 0)
(0.155332 -1.98584 2.06701e-18)
(0.650206 -0.170171 0)
(9.41537 -0.306856 3.36401e-17)
(10.4766 0.0433255 9.96092e-17)
(1.38457 -0.0038527 1.31107e-16)
(1.26318 -0.0632801 -1.23466e-16)
(0.264181 -0.241158 7.61108e-16)
(1.05916 -0.0532376 0)
(0.0496964 -0.200831 0)
(0.133834 0.34416 0)
(9.04248 -0.243322 2.26282e-17)
(1.10245 -0.050238 2.47062e-16)
(-0.365977 0.0716643 2.00214e-17)
(0.86257 -0.400553 2.52728e-16)
(0.0166094 -1.75318 0)
(-0.0932272 -0.47545 0)
(1.27096 -0.627105 2.28409e-17)
(1.25304 -0.12439 1.75591e-16)
(8.03461 -0.228424 -6.87989e-17)
(1.15574 -0.224526 2.33458e-16)
(1.21625 -0.459774 1.72522e-16)
(1.31986 0.111807 3.36233e-16)
(1.74841 -0.608507 -2.9285e-16)
(-0.134192 -1.17078 -1.84453e-16)
(1.23721 -0.268245 1.57463e-16)
(7.70509 0.0733141 1.51581e-17)
(1.03238 -0.12946 -2.98296e-16)
(-0.363829 1.94727 -4.31345e-16)
(0.550804 0.926049 1.79598e-16)
(1.31415 0.608384 -4.28381e-16)
(-0.222083 1.86901 8.31909e-16)
(-0.0337021 -0.0437918 -2.32574e-16)
(8.0418 0.504091 -3.22781e-17)
(10.3972 0.408218 -8.15965e-17)
(-0.0425443 -1.87524 -3.02834e-16)
(1.07934 0.113881 2.37735e-16)
(0.903397 0.0678089 2.18122e-16)
(-0.19556 1.40096 0)
(1.40565 0.256427 2.41176e-16)
(0.97011 -1.157 2.9689e-16)
(0.00136061 -0.117503 0)
(1.02973 -0.32694 0)
(0.623397 0.44894 2.37667e-16)
(-0.785717 -0.611917 -2.12876e-16)
(0.858129 0.931038 -9.00306e-17)
(1.3273 0.448124 1.41852e-16)
(-0.563635 -1.69733 1.72555e-16)
(9.80842 0.668097 -2.48783e-17)
(0.565919 2.91457 0)
(0.9564 0.459164 -4.2102e-16)
(0.523945 2.5426 -1.71006e-16)
(-1.45556 -0.310563 -7.07967e-17)
(1.31008 0.885698 -1.02531e-16)
(-0.756484 -0.0900636 -1.03354e-16)
(8.46206 1.13446 5.27562e-17)
(0.0885328 6.70956 -3.47128e-19)
(1.62354 -1.98172 0)
(-0.0128837 0.260628 2.78767e-17)
(0.924389 2.65818 1.18283e-16)
(0.688411 1.49484 -2.68215e-16)
(1.04823 1.37802 0)
(-0.353791 -0.910182 0)
(0.184905 4.25926 0)
(0.905859 -0.129348 4.52051e-16)
(0.257064 1.38035 2.61899e-18)
(0.344701 6.6029 2.38126e-17)
(1.22173 1.12954 6.61405e-17)
(2.3348 -1.04181 1.95865e-16)
(0.484005 3.68194 1.37434e-16)
(-0.21416 -0.0495706 -3.83912e-16)
(-0.00736763 6.89894 -5.01106e-17)
(0.891593 1.03523 4.83735e-16)
(0.283922 4.15275 3.18364e-16)
(0.173944 1.14954 5.98359e-17)
(0.70548 2.9595 -7.12237e-18)
(0.719542 8.14323 -4.19059e-17)
(0.456785 3.84367 0)
(0.095627 4.62466 0)
(0.925449 4.60367 2.02662e-16)
(-0.16981 -0.0296055 4.46539e-16)
(0.0530783 7.34423 0)
(0.534649 4.62417 -2.89912e-16)
(1.30769 0.0268235 -3.79658e-16)
(-0.462307 0.439976 -6.47966e-16)
(-0.728937 -0.0145872 1.73774e-17)
(0.281706 0.872824 -1.81313e-16)
(0.436562 7.40048 2.73153e-18)
(2.56637 8.1639 0)
(0.0618947 4.53625 3.31908e-17)
(9.59375 1.86238 -4.9222e-18)
(3.95044 5.27104 6.4791e-17)
(0.511501 2.59981 0)
(5.35009 9.01262 0)
(0.539747 2.21034 8.75128e-17)
(0.578312 2.18517 0)
(-1.65682 -0.0416875 -9.98672e-18)
(0.376428 1.52935 -1.1617e-16)
(-0.016474 6.76976 1.28601e-16)
(0.426203 3.86186 -3.02966e-17)
(3.67389 8.15351 -3.28636e-17)
(0.133553 3.09939 -5.79291e-17)
(1.01695 0.705556 -1.20073e-16)
(0.234833 0.915497 1.01232e-16)
(0.856249 6.95786 3.91388e-17)
(-0.958044 -0.286179 1.34353e-16)
(-0.160091 5.54255 0)
(0.19541 2.50854 1.25514e-17)
(-0.036878 2.36498 3.64743e-20)
(0.422589 3.85018 0)
(1.90136 8.54919 1.85366e-18)
(1.18166 5.56819 1.41534e-16)
(1.31438 5.75503 -1.1176e-16)
(1.60478 5.67673 1.54637e-16)
(0.0490921 6.22168 -9.22418e-21)
(0.202641 7.06842 -1.08999e-16)
(0.864528 1.69062 -6.26166e-16)
(0.509119 1.41111 0)
(0.859272 1.39027 1.10523e-16)
(0.302052 1.98514 -3.29649e-17)
(-0.354532 5.65605 3.08113e-17)
(0.790576 2.64757 -3.75802e-19)
(0.774548 3.26619 -1.24634e-16)
(0.0435917 5.61559 -3.39274e-19)
(0.33171 3.82666 0)
(-0.785754 -1.33583 -1.86683e-16)
(0.875554 4.63106 3.74727e-16)
(2.79803 3.20659 0)
(9.04048 0.0523638 2.19736e-18)
(1.05734 9.35481 2.73919e-17)
(1.08767 1.63353 8.09205e-18)
(0.410645 4.95936 3.86467e-17)
(0.634835 1.02987 0)
(1.51657 7.40034 1.01651e-16)
(1.24589 7.13402 -1.79814e-16)
(2.50215 13.1555 4.59938e-18)
(2.13652 6.39284 5.65484e-17)
(0.274337 0.476947 -5.68067e-17)
(0.745646 -1.14073 -2.69139e-16)
(-0.82486 -0.173783 6.81045e-17)
(0.802232 2.16339 -1.09789e-16)
(0.664378 4.05533 2.50247e-16)
(0.196802 2.52481 -1.68291e-17)
(0.0220434 7.01763 -5.35033e-17)
(0.143894 6.94002 1.36338e-16)
(11.6773 0.0460047 -9.92451e-18)
(-1.09506 0.233524 -3.77709e-17)
(0.659755 0.825206 -1.43029e-16)
(0.864464 5.33177 -2.13278e-17)
(1.27867 1.92438 -1.26062e-17)
(1.08662 3.11199 -2.38851e-16)
(0.135897 0.525675 -1.03266e-16)
(0.644005 4.59717 1.40962e-16)
(0.668782 2.51696 1.08236e-16)
(0.80487 7.76053 -6.61735e-17)
(0.262362 4.34043 -1.65762e-16)
(0.378162 0.869527 0)
(2.1633 7.4508 -5.40492e-17)
(0.336793 1.63319 0)
(0.739576 2.59156 1.21123e-16)
(0.600262 1.9806 0)
(0.108965 0.0212275 5.39393e-16)
(0.169411 3.01738 -1.77615e-16)
(0.436398 3.85212 3.76011e-17)
(1.26687 6.49208 8.2943e-17)
(3.45094 -0.134868 -6.28799e-17)
(-0.329127 1.01377 1.29231e-16)
(0.374566 6.01748 -1.41775e-16)
(0.601508 2.35473 7.66576e-17)
(0.175175 7.46793 -1.3014e-16)
(4.51432 4.69104 -1.99867e-16)
(-0.46843 0.630789 5.95059e-17)
(0.459328 4.87602 0)
(-0.180352 5.84047 -2.86855e-17)
(0.809803 2.27497 8.35865e-17)
(1.0806 7.22225 -1.94594e-17)
(1.00278 6.34613 1.09183e-16)
(-1.22788 -0.982361 1.77513e-16)
(1.37042 4.02278 1.79049e-17)
(0.521395 1.44259 1.48897e-16)
(-0.0921517 5.88411 -5.10037e-18)
(-0.000876264 5.60016 1.17358e-16)
(1.64304 6.52763 -9.75972e-17)
(0.315994 -1.23753 6.5249e-17)
(1.09398 6.80689 -6.39007e-17)
(0.3394 6.84871 -1.41144e-16)
(1.18154 8.15987 -4.49754e-17)
(0.672227 0.108865 0)
(9.8885 0.809286 -1.30767e-16)
(7.84073 3.03145 9.55924e-18)
(0.330561 4.45012 1.0757e-16)
(0.803691 1.43848 6.27857e-16)
(0.451709 3.00285 3.36536e-17)
(0.0745378 0.842157 0)
(2.48511 -0.0549338 -1.60975e-16)
(-0.608505 0.570089 7.34925e-17)
(0.92382 0.0700521 -3.32146e-16)
(0.698461 2.67898 4.80737e-19)
(0.505526 -0.85601 -1.66361e-17)
(0.469644 4.3515 4.82989e-17)
(1.00189 1.31756 -7.79445e-18)
(9.65026 0.488111 0)
(0.147898 3.79061 0)
(0.627683 1.20393 -7.22854e-17)
(-0.0317212 -0.891826 2.40748e-16)
(10.2564 0.566312 0)
(-0.289566 -0.00476154 2.9436e-19)
(1.19132 7.38597 -2.41251e-16)
(0.233905 1.65716 0)
(0.490981 2.01905 0)
(0.952395 1.86886 -1.32688e-16)
(1.25376 4.30858 1.96501e-17)
(9.05764 0.415731 0)
(0.97752 0.0658473 1.96371e-16)
(2.39153 -0.483705 -1.24939e-16)
(0.259425 2.05388 0)
(0.539964 6.09025 0)
(-0.204674 -1.80535 1.67839e-16)
(-0.353466 0.344362 -8.59372e-18)
(-0.0155289 1.31263 1.44445e-16)
(-0.0112603 2.4103 -2.85215e-16)
(0.120274 7.01699 4.77079e-17)
(-0.784677 0.296984 0)
(-1.49566 0.204988 0)
(-0.0761059 4.00541 -1.25295e-16)
(2.82112 0.530429 -2.93654e-18)
(1.23156 3.7176 -1.87494e-16)
(-1.77252 0.153627 1.59331e-17)
(3.68394 6.99994 -3.20863e-18)
(1.34657 0.462915 0)
(1.12276 5.71103 0)
(0.440038 3.79878 -6.61008e-18)
(-1.16788 0.251829 0)
(-0.0489198 5.80886 0)
(11.1505 0.660541 -1.40887e-18)
(0.0608215 5.6714 -2.33948e-16)
(2.04729 0.495411 0)
(0.859062 3.26695 -3.5187e-18)
(0.356046 6.25789 2.29587e-17)
(-0.0649431 6.85439 6.34325e-17)
(0.650049 1.80927 -1.98292e-16)
(0.606266 7.00422 -3.31477e-18)
(-0.011191 6.18938 3.16519e-17)
(1.07866 -0.0257305 2.34086e-20)
(0.0607969 6.54142 -2.8611e-16)
(0.251935 1.55688 -2.05015e-19)
(0.0965335 3.54558 1.88203e-16)
(0.00820517 0.945358 -2.84605e-16)
(0.300371 7.30072 1.31826e-16)
(-0.122168 6.64786 0)
(0.0241409 7.21002 1.70656e-18)
(10.7567 0.248067 -7.15241e-18)
(0.48779 3.33571 0)
(0.729205 0.133188 5.86424e-16)
(0.648646 0.79357 1.73719e-17)
(-0.103044 2.96122 0)
(0.244144 1.25735 4.26479e-16)
(1.78538 8.23427 0)
(1.69368 9.25809 2.58823e-17)
(1.29356 0.00246907 0)
(2.90006 1.71825 1.61706e-17)
(0.346753 0.705083 -3.28685e-16)
(-0.269264 0.887191 -1.06395e-16)
(0.692819 0.460237 -2.37448e-17)
(-0.0748857 1.89385 2.41e-16)
(0.160105 7.08386 -4.42552e-17)
(3.63833 0.568491 1.02309e-17)
(8.62633 0.344051 0)
(-0.724576 0.0695117 -1.99753e-17)
(0.0525708 6.14855 0)
(0.164571 6.99063 0)
(-0.0429053 1.23808 -1.29085e-16)
(1.46243 6.14666 0)
(0.200811 2.1099 0)
(0.834659 7.01261 -2.88215e-17)
(1.71183 -0.0272998 0)
(1.05241 -1.55941 1.72058e-16)
(0.177302 7.11708 4.92516e-17)
(0.775797 0.319366 2.67176e-16)
(1.15935 1.1827 1.50098e-16)
(0.466504 2.0397 1.63981e-17)
(-0.338538 0.850849 -5.5972e-17)
(0.814983 0.320223 -4.62461e-16)
(12.5617 2.91982 0)
(0.281722 7.17637 0)
(0.04144 7.19418 -1.33586e-16)
(0.600174 0.964851 -6.43338e-19)
(0.402679 7.30356 1.01321e-17)
(0.752839 1.13675 2.20405e-17)
(9.19411 2.19217 3.23373e-18)
(2.05339 1.19743 5.16124e-17)
(-0.0499882 1.72491 -8.78745e-17)
(0.913145 0.132503 4.5181e-16)
(-0.242669 0.940978 -2.91018e-16)
(0.187334 5.60189 0)
(1.02983 0.247508 4.9547e-16)
(0.961269 0.294147 -2.66486e-16)
(0.380452 4.96006 -2.49593e-17)
(0.289797 1.48688 -1.66431e-17)
(0.109544 0.902463 -4.92038e-16)
(-0.0266866 6.04748 -5.32548e-18)
(0.357292 7.54918 1.41118e-16)
(0.0869525 7.20707 7.16202e-17)
(0.090982 7.30362 0)
(0.800875 3.24691 8.19903e-17)
(-2.08158 0.064837 5.7031e-17)
(0.254388 1.79934 0)
(0.347816 5.33734 -1.31087e-16)
(0.430423 2.24031 -5.69575e-16)
(1.12328 5.13753 0)
(0.96698 -0.190651 -1.72294e-16)
(0.44503 3.40143 0)
(1.39325 0.00539093 -1.517e-20)
(0.143525 0.39091 -4.37457e-18)
(9.55843 2.99457 1.59953e-18)
(1.43191 7.13567 0)
(0.844993 3.79902 1.57051e-16)
(0.149717 6.89313 -9.60873e-17)
(0.851238 3.84454 0)
(0.846347 -0.78553 -1.25941e-16)
(-0.220909 0.725226 -1.59268e-16)
(0.0952418 5.57725 -1.00974e-16)
(0.362206 4.86251 9.65187e-17)
(0.217547 5.40345 2.25104e-16)
(-1.9639 0.10157 -3.17993e-17)
(-0.192338 0.0656097 0)
(0.0427008 6.25814 0)
(-0.199911 -0.0886061 3.5436e-17)
(0.667868 2.69023 1.52876e-16)
(0.076146 6.63047 -3.42598e-17)
(0.295256 0.0644251 1.40503e-16)
(0.584882 1.17798 -2.33929e-16)
(0.106727 2.23344 0)
(0.200288 2.38626 9.92512e-17)
(9.96503 8.86703 -1.33447e-18)
(0.279269 5.42026 2.97807e-17)
(0.327181 6.88942 -1.12772e-17)
(0.338949 2.03908 -9.35081e-17)
(1.20212 7.42106 1.38868e-16)
(3.99238 2.20318 2.50522e-18)
(-1.68816 0.193646 -1.26991e-16)
(0.661876 2.5729 0)
(10.4186 0.594843 2.40254e-18)
(-0.0496705 6.10176 4.98752e-17)
(6.56669 0.11306 1.17978e-18)
(0.338197 1.83119 -1.25855e-16)
(-0.314254 -1.63971 -1.5434e-16)
(-0.114869 4.37742 -2.26941e-16)
(0.433908 7.17403 9.91433e-19)
(1.14771 0.0231686 4.1995e-16)
(1.03481 5.48434 -1.20617e-16)
(0.470007 3.25446 -3.26342e-16)
(0.266535 3.6394 -2.5273e-19)
(0.716716 0.433118 1.62508e-17)
(0.0679625 6.03837 -4.89718e-17)
(-0.0302189 6.8413 2.51335e-17)
(0.1612 7.64625 -1.97088e-18)
(-1.50155 -0.952138 0)
(0.843492 -0.203402 0)
(0.00731194 4.07173 -6.4425e-17)
(4.52527 0.599975 2.22656e-18)
(8.25504 0.217562 -1.44677e-17)
(0.127605 6.75789 1.33975e-16)
(1.04692 3.76758 -2.60994e-17)
(1.70192 -0.401794 6.55242e-17)
(4.3159 0.376147 9.37671e-18)
(-0.151582 4.03379 4.65044e-17)
(0.464634 3.70642 -1.0476e-16)
(0.944403 1.44345 4.43265e-16)
(0.547863 3.18995 -1.0353e-16)
(1.41683 0.0279578 0)
(1.32756 -0.140211 -1.22948e-16)
(0.240825 3.68884 -1.06664e-16)
(0.579739 4.08725 0)
(8.17767 1.90027 -8.40072e-18)
(1.04655 -0.175109 9.91588e-17)
(4.17951 -0.0708859 0)
(0.24434 1.64469 0)
(5.94802 4.42618 -2.57918e-17)
(-0.0708388 6.4827 1.63193e-17)
(0.25782 7.6549 -5.53589e-18)
(0.996289 1.90434 0)
(0.373979 1.84037 7.21188e-17)
(2.64303 -0.250553 6.69605e-16)
(0.825928 0.0406093 -6.53526e-16)
(-0.977606 0.53892 -4.13662e-17)
(2.01509 2.72805 6.76247e-17)
(1.79641 -0.452291 2.35041e-16)
(1.10665 -0.0115153 0)
(0.459726 2.0454 -7.00107e-17)
(1.13855 4.50081 -1.60581e-18)
(1.49814 5.42655 6.77746e-17)
(0.733291 3.13256 -2.62961e-17)
(0.284929 2.35319 0)
(0.362429 5.69754 7.37398e-17)
(0.230827 2.31196 9.03027e-17)
(1.31408 -0.111805 0)
(10.5607 0.657698 1.15362e-16)
(0.366721 5.61793 0)
(0.202773 3.48989 0)
(3.57297 6.11492 -2.63826e-18)
(0.300997 5.528 1.5874e-16)
(0.140326 6.00013 1.2492e-16)
(3.06559 0.0248347 -2.03622e-16)
(2.08973 -0.867757 2.12747e-16)
(0.788585 0.107067 2.83897e-16)
(-0.0450138 6.21003 0)
(0.341141 6.26654 -1.88934e-21)
(0.285028 5.92563 -1.56716e-16)
(6.14811 -0.666566 -6.55041e-17)
(0.369955 0.0774881 6.45277e-17)
(0.140825 7.39393 2.48502e-16)
(-1.4421 0.373862 -1.01301e-16)
(2.12054 3.12238 1.35897e-17)
(4.77405 -0.666088 4.03813e-17)
(1.33282 0.0716187 -6.829e-17)
(0.130996 9.77053 7.95554e-17)
(0.093003 5.41082 1.92096e-19)
(0.095341 5.27689 9.14175e-17)
(0.0654878 4.97288 8.53917e-19)
(0.0858721 5.12788 0)
(0.115289 10.5108 -7.07984e-17)
(0.0786502 5.47618 -1.73074e-16)
(0.00487025 6.0398 -7.47632e-19)
(0.0118413 6.12412 -2.04703e-17)
(-0.0146644 6.00027 0)
(0.0412856 6.17401 4.2092e-17)
(0.154886 9.22954 0)
(0.220723 11.2457 0)
(0.0507288 6.3957 -5.59099e-17)
(0.292339 8.13064 -3.96168e-18)
(0.22742 8.71446 -3.70481e-18)
(0.042866 6.51805 1.78852e-17)
(0.0464719 5.42703 8.98799e-17)
(0.0208871 5.39472 0)
(0.00549381 6.50297 -2.4832e-17)
(0.0200597 5.40057 0)
(0.0291639 5.46334 0)
(-0.0438592 6.41286 1.85325e-17)
(0.0430909 5.54985 0)
(0.232584 2.08893 1.03722e-16)
(4.91442 6.40658 -5.50781e-17)
(1.30456 0.0526116 2.63266e-16)
(1.00407 0.326057 0)
(1.26786 6.92979 -9.80114e-17)
(-1.69512 -0.0700747 1.01818e-16)
(-0.532799 0.566158 5.72846e-16)
(5.74655 1.26482 -1.70479e-17)
(-0.0619964 6.57451 -2.01459e-17)
(0.609397 8.05035 0)
(-1.29957 0.205195 5.00787e-16)
(2.63676 0.448642 2.49663e-16)
(1.0843 0.601386 0)
(4.12827 -0.538704 3.11962e-17)
(0.390701 -0.780947 -2.72208e-16)
(0.109278 -0.943231 -1.9712e-16)
(5.85955 5.41293 8.98219e-17)
(1.60479 4.8957 -4.48432e-17)
(0.20307 2.51147 9.10772e-17)
(0.829977 0.882392 -5.31966e-17)
(-1.90107 0.0705692 -8.47205e-17)
(6.39653 0.487973 -2.95389e-19)
(-2.19863 0.661183 -2.71947e-16)
(0.0496505 5.66656 0)
(0.838104 6.06957 2.75718e-16)
(0.948993 4.14312 3.00122e-20)
(0.29581 0.259785 7.30651e-17)
(0.660013 0.229431 0)
(10.7668 -0.208733 2.70819e-17)
(0.223021 2.03878 -1.47046e-16)
(1.78163 0.096157 3.92684e-18)
(0.249951 1.88306 1.46066e-16)
(0.0569704 7.28579 0)
(0.401448 2.58833 9.29437e-18)
(0.626666 2.83356 -7.10779e-17)
(8.60628 4.65982 2.113e-17)
(1.34736 0.0125206 2.99339e-16)
(0.507992 -0.00267478 -3.26456e-16)
(-1.14048 -1.09934 1.91278e-16)
(0.0920477 -0.215667 -7.38099e-17)
(0.430265 3.43403 3.37881e-17)
(-0.0179768 5.26976 3.08774e-21)
(0.154157 6.59297 -1.7481e-17)
(1.03179 0.612562 0)
(0.81825 3.54988 2.23738e-19)
(1.18844 0.482647 6.24234e-17)
(1.69514 0.305991 1.18211e-16)
(1.37161 0.0811652 0)
(0.954896 0.560418 -4.05062e-16)
(0.0588416 0.367102 0)
(10.4529 0.388675 2.15323e-18)
(0.471633 3.2735 0)
(0.781917 3.86764 -5.87175e-17)
(0.182505 3.00348 1.29537e-16)
(0.684328 -1.70575 2.40659e-16)
(1.76597 -0.220369 0)
(-0.613372 0.443141 -3.12711e-17)
(0.0558243 5.74094 3.60437e-19)
(0.467341 -0.739313 0)
(-2.34642 0.011805 0)
(0.691739 3.57383 -1.89882e-16)
(-0.202305 5.8592 -1.01596e-17)
(7.79033 0.0118087 0)
(1.04487 0.572448 -1.31162e-16)
(3.2524 -0.417124 -1.94014e-16)
(0.594205 -1.38399 0)
(0.363343 1.55073 3.1981e-16)
(0.883941 0.232391 -1.69859e-16)
(8.07161 6.47296 1.85433e-17)