/*--------------------------------*- C++ -*----------------------------------*\
| =========                 |                                                 |
| \\      /  F ield         | OpenFOAM: The Open Source CFD Toolbox           |
|  \\    /   O peration     | Version:  v1912                                 |
|   \\  /    A nd           | Website:  www.openfoam.com                      |
|    \\/     M anipulation  |                                                 |
\*---------------------------------------------------------------------------*/
FoamFile
{
    version     2.0;
    format      ascii;
    class       volScalarField;
    location    "0.45";
    object      epsilon;
}
// * * * * * * * * * * * * * * * * * * * * * * * * * * * * * * * * * * * * * //

dimensions      [0 2 -3 0 0 0 0];


internalField   nonuniform List<scalar> 
1431
(
142.55
48.2125
4.83579
8.10614
2.55963
40.9686
1.49891
276.455
55.6707
2.95722
70.3954
182.721
21.652
2.76665
14.3652
4.91213
3.79493
10.4346
3.00664
13.7921
142.018
3.27086
71.0266
165.974
65.5373
13.2433
47.4765
4.95948
85.2597
38.7233
33.7029
44.3463
30.9187
1.77914
36.2626
16.1516
70.4599
9.51911
4.41171
37.5298
83.6994
86.268
17.4046
4.51986
75.2664
3.73593
12.385
39.6567
1.29966
8.6296
30.6375
4.96577
33.2856
193.66
47.9653
22.8644
2.94083
202.376
18.014
24.8572
3.89645
3.01048
13.6965
11.0575
5.50316
1.89316
7.24094
6.3267
3.64627
4.86494
163.663
2.34112
9.79478
1.68929
3.41933
3.23254
3.30198
11.7644
7.80165
7.1796
5.24137
10.5355
156.054
21.6013
86.82
8.3234
17.7801
31.7518
120.124
164.865
53.1233
6.25784
8.3185
8.00673
55.0864
44.3109
210.539
112.765
3.13665
22.8722
30.7293
2.95544
8.50523
8.36941
10.4283
48.5457
63.5608
86.1386
70.1368
12.6818
14.3137
26.2922
5.69278
85.9808
56.1701
2.29145
3.0247
9.92188
11.9461
14.0064
6.5882
26.7343
158.59
4.12087
136.263
16.2202
3.96011
13.6476
4.61096
34.2078
3.81793
14.9743
27.0728
6.30149
25.5045
8.43263
8.39474
1.97944
90.1895
9.75594
5.41382
27.7808
9.61924
5.49522
86.4774
31.0118
11.8997
31.5443
9.48029
5.53396
10.5478
3.70859
40.1004
11.8114
53.8351
7.98951
82.0955
54.675
167.905
13.5986
123.91
23.5763
2.65626
12.4249
106.396
111.123
95.8204
65.244
8.35323
91.641
137.258
33.1889
33.8415
88.8998
56.2083
83.5907
24.1102
57.7185
33.1918
35.8015
1.68867
4.40042
30.8747
281.269
53.2636
113.073
118.736
64.8665
34.6329
111.242
26.2887
39.2274
39.9022
105.441
11.2429
56.1514
95.1412
31.8062
3.32177
118.284
34.1924
3.93151
48.807
25.4046
25.1567
28.6834
57.023
3.99967
102.965
69.0701
110.755
2.32163
60.6565
50.5923
91.0578
36.6491
43.7743
30.6508
30.3773
42.2153
52.4054
30.0272
56.3873
7.56831
57.7499
137.838
68.0005
104.193
50.2276
31.4738
253.851
32.467
45.2063
37.2916
45.4211
148.52
56.9751
49.3425
25.9078
27.8419
20.4875
36.4624
116.629
38.9023
37.058
16.9817
44.3114
52.6429
55.8538
8.06929
11.359
94.5228
11.2884
2.44191
27.2031
69.3704
9.08187
171.092
124.914
43.039
49.5647
87.3285
31.0232
20.8757
64.6297
53.1669
44.0133
148.683
37.6568
2.60268
76.4969
51.5236
42.3265
23.267
114.526
34.1576
106.517
30.2481
73.444
75.5315
34.6848
55.1299
31.2285
24.921
34.5693
136.854
73.4409
119.1
100.486
42.771
3.4319
50.4369
90.5754
27.8505
26.6031
50.7827
139.629
128.475
28.6449
83.5012
33.5087
17.58
36.1252
18.549
48.0573
7.01334
49.0378
42.1184
80.6423
77.7245
53.0721
27.2237
2.37673
75.5347
48.9691
80.5851
33.061
40.5728
1.69348
489.771
42.9746
68.6564
15.6811
25.893
35.6079
8.00721
21.3223
58.6868
175.621
2.49853
115.405
2.23151
56.3104
3.29485
18.2187
18.2546
57.5801
148.133
37.7983
92.2708
14.311
18.1979
39.4534
78.9655
52.498
33.33
39.0873
104.889
42.9196
24.2189
48.1379
4.83859
28.6862
40.7164
4.64485
29.1385
110.202
86.8538
83.7987
78.694
4.15645
94.3645
97.6945
29.928
2.00343
74.0964
60.4358
362.561
51.7862
25.2219
66.5807
3.048
136.842
35.4204
73.0798
221.924
46.0035
24.2164
6.02499
274.11
27.6542
41.8059
34.3553
6.4478
502.42
45.6309
35.9436
57.7745
33.0183
35.1996
22.8611
37.0193
36.7711
5.18798
130.656
30.8069
35.765
37.5379
65.2688
37.6898
39.3689
68.2118
99.208
65.8498
10.1742
36.8117
44.5128
39.5148
30.3266
36.2569
45.8408
33.4167
36.1067
11.0322
55.1247
9.80013
35.5967
50.5718
35.2436
36.145
64.7959
18.048
26.8421
37.5253
36.4113
3.78986
6.13913
5.75969
5.21266
128.466
34.0337
40.1912
44.0818
44.9356
44.9293
40.1139
35.9628
41.6684
34.5919
39.2596
3.33229
94.8407
3.27145
2.79961
4.36953
1.52982
2.0713
1.91368
22.2182
5.4846
6.23729
7.80159
1.34967
15.2219
1.35946
1.36546
5.33718
158.688
20.6365
4.60586
5.1216
7.5159
152.128
1.55536
5.87276
8.00384
11.2515
149.629
7.48688
147.29
4.49162
5.47611
5.62916
4.38119
92.8637
88.0828
6.47149
8.69154
2.14146
7.47336
3.85837
3.24179
98.2004
9.88691
7.49907
3.45972
4.62897
5.4335
4.25654
8.05991
110.127
7.3295
4.61841
6.91559
3.32821
3.91533
5.20763
115.932
5.78077
56.9137
7.73221
6.18859
42.8749
12.2532
112.291
94.0176
3.13257
8.42719
5.925
18.5508
6.66326
10.8437
2.78803
4.92871
18.6415
4.17287
7.12179
6.40643
17.8039
100.109
38.9412
9.10089
56.3089
3.77793
6.74041
6.42606
108.756
37.4076
4.03106
33.5104
38.6314
24.4771
12.9838
67.9187
41.6121
5.13178
31.8235
146.443
7.46879
7.36293
32.5789
10.201
90.4682
17.379
80.3988
28.5331
33.2314
118.577
34.0476
48.8671
35.0216
9.26501
64.3544
37.793
9.2881
83.7599
8.32722
8.29515
128.409
196.697
48.9902
96.9409
66.6099
21.1309
337.075
22.5034
30.3105
9.9081
7.75016
61.3012
33.4373
46.9038
31.4476
14.3302
38.4938
31.4446
3.71469
177.902
23.261
35.958
32.9106
42.9958
67.0592
33.3454
35.4385
47.3351
34.8728
22.228
45.9095
28.3155
12.8579
308.323
29.2809
32.639
60.6346
35.5185
6.06432
35.6546
79.3865
94.167
114.528
12.5972
38.9512
22.7274
30.6833
44.7089
70.1354
36.0323
14.9281
2.20841
4.84397
17.8186
36.28
22.0638
83.481
57.5535
125.18
15.9335
6.26473
35.2243
66.2252
39.6645
33.7613
37.2534
19.102
45.3527
40.3598
7.10057
33.6193
26.9926
20.3737
29.7375
3.90762
28.7308
34.1366
30.4982
221.511
25.7747
88.3675
32.2742
68.5111
82.104
18.26
38.934
239.898
16.4305
30.4033
34.1529
169.914
40.0227
7.0658
66.1068
148.114
32.0228
2.66138
38.941
61.4461
42.4354
5.93393
127.209
131.357
39.8551
16.7133
25.9003
9.28186
31.1353
14.6537
5.25229
31.6529
8.17526
36.5911
76.8658
140.469
36.7917
6.5946
14.1985
141.184
3.73131
66.8651
27.6685
34.2623
26.4197
37.953
144.862
9.1135
3.96785
13.4613
76.5504
3.0521
140.756
76.6341
44.4214
85.2111
122.376
96.0574
49.3357
283.837
44.1945
86.8224
50.3081
225.407
32.643
32.5296
107.639
190.658
144.129
121.655
255.818
35.5657
39.9425
75.237
34.5492
31.114
55.9039
6.42097
93.2803
8.90611
95.5095
19.3062
80.7663
94.1259
30.4391
91.4795
28.5764
12.2777
89.4037
68.1274
13.811
79.2748
100.685
9.55191
116.678
11.1784
20.2934
104.535
38.6947
78.7278
309.506
152.015
10.3937
51.0017
63.2882
23.3675
68.9211
24.3299
48.16
6.6166
11.8473
81.4996
2.04831
9.34636
28.8862
47.0956
2.35652
219.251
79.1195
58.9852
5.81057
48.2938
68.7838
217.116
138.412
45.6139
1.50279
11.3134
66.2156
5.01092
1.97188
39.2756
24.7404
10.9938
47.0759
77.4547
70.2564
62.739
32.0867
69.3474
26.4193
45.3206
47.428
34.6352
9.70404
29.4681
7.1877
166.623
92.4896
54.9746
34.8082
34.7449
35.1036
45.816
10.0198
54.9621
43.4406
48.8237
79.5918
9.56431
39.8725
6.26769
25.1912
38.1469
4.55294
24.9852
29.2263
24.425
454.495
45.9812
42.6986
24.4072
54.0281
339.506
29.9191
32.5172
84.8253
61.7209
170.625
12.764
3.07047
56.6805
72.4473
2.52605
55.3553
32.3882
34.9766
194.23
52.8112
63.0831
27.0838
3.15739
5.05127
46.6211
324.092
167.662
36.7365
37.2454
180.112
34.5889
54.399
32.4034
20.6761
27.8175
7.1218
8.01809
51.9412
36.6505
144.229
9.24928
221.007
28.3534
102.53
52.2153
26.3293
13.3355
29.0514
5.11442
9.29192
36.5675
50.9064
4.14947
8.38134
30.2278
36.5251
62.7669
33.0689
20.6326
43.3342
18.32
11.911
100.631
40.5307
33.006
369.205
47.557
110.466
14.8411
22.6733
1.36311
146.554
41.5759
105.39
156.453
9.26283
89.0236
107.212
326.249
200.277
324.454
53.7415
73.3624
78.9039
87.62
83.4921
55.0733
70.4024
56.1078
52.3365
55.1996
54.5662
50.4878
57.8296
49.4771
44.6573
46.7475
45.5683
70.5214
70.4555
43.8128
69.8247
67.4644
43.4377
63.8575
14.4717
69.5069
7.87457
5.44066
49.1603
2.87789
3.65097
157.527
52.4452
24.653
3.09089
61.0654
17.3535
211.412
3.82855
2.47381
85.9902
55.862
21.5139
10.5461
21.4384
190.219
1.72578
60.0875
34.8291
35.8502
19.5287
8.67346
80.1723
38.4355
9.61312
14.8332
61.2888
23.3034
22.5555
82.132
6.86895
4.46295
3.80926
5.12719
30.4739
82.6314
39.1525
5.87378
33.891
7.06272
12.0532
24.412
10.1314
32.0749
81.9951
30.8866
35.8643
121.953
6.91037
5.24759
16.3655
59.6885
5.10452
33.7893
34.7313
39.6928
195.854
2.7278
4.26536
7.64122
13.0652
1.53175
548.247
39.7745
48.3761
4.49368
231.387
40.7897
143.637
2.16166
12.9206
12.4923
3.96529
5.9813
35.8543
43.2819
235.646
104.95
59.5894
40.4785
5.12411
49.6364
3.14855
58.9847
31.926
20.9102
63.4024
50.811
25.3611
63.8471
74.877
11.2507
8.71574
6.1154
75.3847
74.0191
10.7625
36.4953
38.2622
34.9981
17.37
35.8274
35.3592
87.9724
253.569
1.43994
88.318
39.8251
15.1019
41.1727
223.372
39.7129
51.8065
31.4635
109.944
89.4535
16.9951
3.87614
47.343
34.4747
335.43
100.01
63.6519
35.1251
25.7209
77.9806
11.5826
53.4771
32.9736
169.505
67.5369
207.824
95.993
52.4488
6.60594
39.1536
17.9052
6.90146
7.69505
14.4852
5.51192
36.674
61.6466
39.9648
13.1771
56.4004
110.58
8.39798
3.7748
25.0034
253.996
41.784
231.211
60.6506
29.803
277.176
57.7175
327.108
320.694
322.144
211.839
213.504
198.714
308.799
176.412
1.99237
4.35057
3.06534
1.74446
2.28948
2.86002
26.6464
20.3661
49.3265
65.1332
55.7965
41.2298
2.8205
22.7839
8.62071
1.31159
35.2409
6.18932
43.6831
64.9194
42.5788
40.9774
3.10574
117.861
33.5151
53.3739
37.7614
28.5485
20.32
35.64
432.815
44.8384
10.7576
38.1443
89.6278
7.28587
29.1283
84.998
8.31059
47.637
2.24119
8.08066
7.85139
44.8544
9.53348
18.8515
2.17427
3.45444
5.75168
4.98942
103.457
67.8666
9.79023
3.73625
27.7767
108.327
8.90046
92.4918
122.521
40.9552
115.63
18.5335
33.0166
35.9343
94.861
10.7213
37.1146
68.5587
93.1669
56.3687
44.0308
53.2673
6.59633
9.33612
60.5193
27.8175
33.4335
79.8332
110.921
100.506
128.013
33.1251
36.1397
72.0313
8.4187
5.59366
3.94143
5.74325
7.24087
140.281
29.5532
4.92703
90.7846
35.5632
3.31061
50.1014
6.96941
63.5341
87.678
35.4474
37.4001
8.53696
82.2367
75.9867
110.714
56.6665
212.711
4.19691
5.42098
3.0582
210.922
163.598
109.632
51.8192
52.7398
2.9176
214.193
2.30294
35.4991
3.15716
3.15719
7.71457
56.5576
3.56633
69.7388
55.1061
127.478
2.10431
32.3963
14.4154
3.09077
3.08199
5.16068
54.3855
145.298
9.1878
45.9727
86.6536
38.5892
25.8335
36.0377
35.723
5.15346
2.96178
10.8426
38.5991
337.205
34.7517
417.383
55.5713
49.9514
34.2746
85.0761
32.9774
1.77575
22.9855
11.533
143.843
17.0538
99.2533
137.381
68.0278
4.11491
35.6466
2.83925
4.96827
33.858
107.754
59.5767
126.977
48.8705
12.3195
33.3015
36.7278
16.2431
28.1576
8.49108
3.0663
4.07342
34.4756
318.647
33.8599
35.2897
8.73693
4.65231
31.1935
33.7695
27.1304
332.043
48.8377
51.2612
81.3196
1.78971
36.4779
39.5418
31.6662
92.4363
57.5433
89.5241
42.2692
76.73
20.3565
76.5343
32.4498
50.3594
217.256
30.1136
6.17338
4.2143
38.1751
55.9816
30.9142
60.5082
4.72741
179.208
9.36824
3.98167
7.79788
347.777
36.5518
44.1561
7.81956
7.38218
149.578
56.467
171.408
10.4865
9.78391
42.8293
268.879
7.06542
326.572
168.231
8.09236
64.8686
117.732
185.357
59.9314
153.781
45.4101
8.46382
76.2248
63.1257
2.19148
85.4386
14.1164
103.363
261.58
218.976
26.6408
3.52389
17.9022
105.463
14.8445
24.7172
44.5737
170.6
1.36194
36.2615
6.39405
132.166
46.037
53.3406
4.21021
3.42545
13.5796
151.759
234.046
11.0698
36.3627
3.09566
6.86091
31.0612
41.4971
2.6371
43.3701
4.18416
37.0423
35.1851
43.5147
159.783
42.7123
3.94773
51.7037
25.9578
2.80695
12.8976
44.958
2.99181
7.2109
28.7045
32.2719
43.0551
5.35566
2.58017
155.024
115.625
84.9599
18.5833
6.05756
3.96859
7.99039
50.957
8.83574
6.91094
5.7828
7.5392
2.09986
3.94907
131.158
52.9868
24.6728
29.9363
66.1855
102.204
33.7476
3.69768
1.83738
61.3905
109.158
111.311
5.72714
6.30253
10.7151
20.6023
6.06517
17.831
45.9057
26.0893
11.9009
76.477
91.2773
67.3993
84.3557
4.61245
86.6503
17.4156
67.7665
132.459
8.8375
20.7903
48.2827
196.218
4.54609
10.7897
34.3055
57.9781
57.2224
3.14363
)
;

boundaryField
{
    frontAndBack
    {
        type            empty;
    }
    wallOuter
    {
        lowReCorrection 0;
        type            epsilonWallFunction;
        value           nonuniform List<scalar> 
96
(
85.2597
38.7233
44.3109
140.469
141.184
144.862
140.756
122.376
96.0574
283.837
86.8224
225.407
107.639
144.129
255.818
309.506
152.015
51.0017
69.3474
166.623
79.5918
194.23
52.8112
324.092
167.662
53.7415
73.3624
78.9039
87.62
83.4921
55.0733
70.4024
56.1078
52.3365
55.1996
54.5662
50.4878
57.8296
49.4771
44.6573
46.7475
45.5683
70.5214
70.4555
43.8128
69.8247
67.4644
43.4377
63.8575
60.0875
82.6314
39.1525
59.6885
33.7893
195.854
59.5894
63.8471
88.318
39.8251
39.7129
335.43
25.7209
11.5826
169.505
253.996
231.211
277.176
57.7175
327.108
320.694
322.144
211.839
213.504
198.714
308.799
176.412
1.99237
4.35057
3.06534
1.74446
2.28948
2.86002
41.2298
42.5788
44.8544
44.0308
212.711
54.3855
337.205
332.043
89.5241
42.2692
7.06542
153.781
261.58
17.9022
)
;
    }
    inlet
    {
        type            fixedValue;
        value           nonuniform 0();
    }
    outlet
    {
        type            zeroGradient;
    }
    wallInner
    {
        lowReCorrection 0;
        type            epsilonWallFunction;
        value           nonuniform List<scalar> 
126
(
18.014
24.8572
3.89645
3.01048
13.6965
11.0575
5.50316
1.89316
7.24094
6.3267
3.64627
4.86494
163.663
2.34112
9.79478
1.68929
3.41933
3.23254
3.30198
11.7644
7.80165
7.1796
5.24137
10.5355
22.8722
2.29145
3.0247
9.92188
11.9461
14.0064
6.5882
26.7343
158.59
4.12087
136.263
16.2202
3.96011
3.81793
14.9743
9.75594
5.41382
9.61924
5.49522
11.8997
5.53396
3.70859
11.8114
106.396
1.68867
113.073
118.736
11.2429
110.755
2.60268
73.444
75.5315
3.4319
139.629
128.475
83.5012
17.58
27.2237
2.37673
75.5347
8.00721
21.3223
115.405
92.2708
14.311
86.8538
94.3645
97.6945
39.5148
50.5718
12.2532
18.6415
33.5104
146.443
10.201
118.577
9.26501
128.409
38.4938
177.902
45.9095
308.323
114.528
33.7613
3.90762
239.898
148.114
190.658
121.655
68.7838
110.466
146.554
32.0749
110.921
26.6408
3.52389
61.3905
109.158
5.72714
10.7151
20.6023
6.06517
45.9057
11.9009
76.477
91.2773
67.3993
84.3557
4.61245
17.4156
67.7665
132.459
8.8375
20.7903
48.2827
196.218
4.54609
10.7897
34.3055
57.9781
57.2224
3.14363
)
;
    }
    procBoundary3to1
    {
        type            processor;
        value           nonuniform List<scalar> 
48
(
76.0494
90.0562
89.0706
87.9442
65.9599
108.556
90.0562
7.10258
42.7475
10.1263
10.1263
10.1567
10.1567
4.29592
6.25239
7.98412
4.47557
4.86697
4.47557
3.29692
4.32739
4.62442
3.29692
74.5753
8.32249
2.91751
4.8983
4.62442
5.14173
12.7586
12.7586
5.62005
5.62005
42.7475
2.53435
60.1175
11.2986
8.32249
63.435
53.483
4.29592
21.647
31.4669
3.29692
8.13773
82.2
62.9188
4.1561
)
;
    }
    procBoundary3to2
    {
        type            processor;
        value           nonuniform List<scalar> 
29
(
6.5949
6.5949
1.44123
2.13963
13.9134
4.35252
9.87452
5.72923
1.45483
1.46753
5.00358
10.0641
7.64789
4.9968
2.64654
5.27078
1.4519
1.30488
5.42504
4.25784
3.17287
1.4519
2.36701
1.30488
2.27457
1.75138
1.30488
9.37513
9.37513
)
;
    }
}


// ************************************************************************* //
