/*--------------------------------*- C++ -*----------------------------------*\
| =========                 |                                                 |
| \\      /  F ield         | OpenFOAM: The Open Source CFD Toolbox           |
|  \\    /   O peration     | Version:  v1912                                 |
|   \\  /    A nd           | Website:  www.openfoam.com                      |
|    \\/     M anipulation  |                                                 |
\*---------------------------------------------------------------------------*/
FoamFile
{
    version     2.0;
    format      ascii;
    class       volScalarField;
    location    "0.85";
    object      nut;
}
// * * * * * * * * * * * * * * * * * * * * * * * * * * * * * * * * * * * * * //

dimensions      [0 2 -1 0 0 0 0];


internalField   nonuniform List<scalar> 
1431
(
0.00050999
0.00429893
0.00226433
0.00147889
0.000410299
0.00164734
0.00145414
0.000786166
0.00743169
0.00638217
0.00111195
0.00043971
0.000696239
0.00132471
0.00512029
0.000685634
0.00467269
0.000896718
0.000324666
0.000998764
0.000370484
0.00755383
0.00312158
0.00142254
0.0014198
0.00087217
0.00135706
0.00123437
0.0010098
0.00109736
0.00145551
0.000726215
0.0019534
0.000529032
0.000470418
0.00197691
0.00075304
0.000857891
0.00198654
0.0008567
0.00233623
0.000673387
0.000816326
0.000683772
0.00367077
0.000570696
0.00233249
0.000810743
0.000883751
0.000868741
0.00103844
0.00453674
0.00529967
0.00156578
0.00103441
0.000771559
0.00240778
0.00275432
0.00098775
0.000335888
0.00321826
0.0008236
0.00228754
0.000782939
0.000903585
0.000967484
0.00232919
0.00118255
0.00406104
0.000750132
0.000492995
0.000435358
0.000791675
0.00168272
0.00116874
0.0011794
0.000516276
0.00296765
0.000784296
0.0020183
0.000805473
0.000972459
0.000446976
0.00276453
0.00194683
0.000464123
0.000573249
0.000723448
0.00152815
0.000948335
0.0010701
0.000997351
0.000605841
0.000861371
0.000941172
0.000542159
0.0010958
0.000728674
0.000595809
0.00110156
0.00527976
0.00080527
0.00116162
0.000504279
0.00108488
0.000856235
0.000785436
0.00295745
0.00206068
0.000436635
0.00226792
0.00118862
0.000755122
0.00085689
0.00109963
0.000499136
0.00081851
0.00564422
0.00164393
0.00281729
0.000858999
0.00420563
0.00387614
0.00136897
0.000831161
0.00173069
0.001777
0.000766646
0.00062794
0.00080927
0.00120624
0.00280267
0.00101007
0.000974388
0.00061706
0.00112049
0.000912384
0.0013937
0.000910982
0.00276221
0.00661483
0.000847802
0.000769619
0.000940792
0.00109812
0.000775276
0.000733477
0.00306252
0.00100748
0.000801415
0.000818754
0.000955021
0.00180109
0.00016009
0.000452427
0.000720179
0.000802933
0.000823706
0.000755967
0.000708827
0.000907148
0.00120914
0.00104613
0.000923077
0.000559695
0.00274147
0.00051786
0.000862987
0.00107945
0.000970953
0.00106993
0.0011911
0.00135627
0.000768725
0.000771395
0.000267898
0.000425729
0.000875235
0.00113654
0.000712559
0.000839295
0.00493069
0.000753953
0.000884233
0.000773089
0.00081062
0.000752901
0.00113273
0.000768363
0.000799309
0.00141213
0.00427374
0.000554003
0.000790185
0.00795506
0.000845826
0.000784848
0.000841125
0.000476667
0.00034138
0.0002791
0.000659992
0.00075169
0.00227691
0.000785736
0.00167786
0.000514177
0.000834222
0.00119848
0.000878493
0.000789401
0.000782706
0.00163058
0.000831624
0.000890757
0.00107325
0.000756818
0.00120033
0.00194636
0.000833711
0.000830267
0.00209868
0.000776884
0.00212277
0.000825652
0.000874889
0.000969125
0.000851749
0.00082918
0.00158528
0.000488976
0.00117703
0.000746834
0.0007964
0.000790095
0.000783362
0.000736437
0.000779177
0.00082678
0.00206358
0.000841801
0.0007239
0.00807505
0.00342529
0.00069517
0.000639584
0.000830329
0.000736744
0.000873521
0.000972823
0.000723348
0.00795996
0.00662591
0.00115656
0.00255551
0.00109217
0.00033618
0.00181662
0.00112803
0.00110172
0.00108027
0.000652448
0.000583389
0.00672556
0.000789711
0.000809332
0.00102933
0.000746577
0.000993302
0.00735783
0.000744794
0.000938868
0.000726436
0.000726496
0.00106944
0.000764969
0.00119636
0.00127161
0.00143889
0.00613525
0.00648121
0.00228977
0.00265934
0.000973558
0.00102617
0.00121566
0.000475124
0.000754886
0.000905845
0.000832423
0.000776362
0.000868538
0.000748247
0.00120139
0.000731323
0.000745049
0.000572527
0.000768904
0.00211007
0.000704955
0.000843931
0.00100875
0.000611214
0.000739601
0.000763692
0.00267494
0.000828509
0.00109959
0.00110992
0.00135664
0.000836035
0.000783585
0.00309075
0.0008001
0.000453857
0.00309493
0.00599987
0.00225526
0.000794991
0.00302038
0.00256768
0.00199744
0.00517667
0.00251508
0.00630377
0.00436137
0.000806579
0.00527416
0.00174943
0.000830913
0.0035386
0.00136791
0.00209874
0.00132031
0.000786076
0.00825268
0.00108812
0.00138132
0.00107155
0.000971854
0.000277141
0.000822474
0.00576953
0.000935747
0.00182136
0.00023692
0.00082622
0.000211172
0.000192919
0.000355228
0.00046927
0.000333551
0.00036063
0.000338331
0.000301469
0.000539351
0.000348279
0.000257581
0.000348506
0.000264445
0.000343926
0.000401376
0.000333667
0.00021959
0.00030856
0.000215443
0.000331943
0.000369265
0.00282046
0.00270768
0.00369742
0.00182455
0.00291249
0.000760294
0.00119165
0.00160096
0.00455176
0.000841985
0.000848845
0.000394701
0.000346621
0.000298944
0.000385118
0.00035451
0.000456259
0.000331446
0.000371485
0.000276091
0.000345348
0.000190169
0.000227222
0.00277269
0.000885195
0.000848691
0.00402286
0.0014088
0.00132793
0.000834639
0.00576276
0.000771942
0.00027709
0.00451205
0.000832678
0.00103196
0.00382519
0.00079038
0.00198479
0.000723598
0.00123572
0.00345727
0.000830706
0.000551765
0.00139078
0.00214883
0.00100986
0.00103883
0.00533392
0.00727334
0.00160306
0.00137172
0.00246504
0.00221365
0.00741543
0.00166267
0.00145846
0.00549045
0.00250953
0.00549386
0.0061139
0.00543387
0.00534181
0.00114313
0.000555912
0.00338849
0.00240968
0.00573198
0.00304085
0.00357315
0.00154848
0.00217259
0.00160179
0.00133191
0.00279224
0.00236439
0.000316822
0.00395892
0.00501012
0.000945477
0.000347013
0.00500765
0.0040641
0.00665745
0.00477439
0.00768719
0.00267125
0.00772624
0.00664777
0.00554784
0.00729977
0.00231182
0.00300022
0.000467057
0.00197951
0.00183016
0.0020515
0.00162932
0.00111617
0.00295019
0.00145767
0.00170324
0.00259931
0.000891508
0.000739669
0.00108207
0.00120814
0.00126406
0.00261748
0.00256955
0.00393843
0.000334568
0.00172722
0.000893627
0.00109145
0.000799946
0.000825808
0.000951166
0.00168873
0.00658884
0.00400405
0.000264694
0.000244085
0.000400536
0.00155994
0.00309155
0.000336499
0.00090137
0.00125607
0.00148039
0.000837181
0.00148888
0.00161844
0.00150612
0.00584197
0.00608978
0.00491217
0.000603125
0.00126895
0.00699519
0.00159936
0.00129247
0.00119006
0.000730416
0.000743826
0.00239657
0.000792362
0.00185815
0.00342599
0.00138302
0.00163634
0.0015844
0.000594356
0.00113748
0.00092009
0.0011004
0.00106818
0.00359304
0.00413812
0.00283641
0.000971235
0.00240026
0.000809099
0.000740759
0.0017253
0.000891561
0.0052171
0.00271064
0.00773526
0.00252919
0.00367047
0.00219819
0.0062685
0.0035633
0.00513138
0.00201787
0.000390027
0.00694811
0.00387883
0.000795839
0.00628629
0.00162482
0.00158598
0.000427552
0.00107724
0.00379043
0.00227951
0.00376062
0.00839542
0.00503798
0.00103829
0.000757913
0.00406088
0.00253613
0.00834878
0.00408555
0.0025068
0.00124547
0.0028454
0.000740448
0.00266081
0.00462743
0.000277596
0.00616663
0.00253222
0.00655216
0.00290259
0.000806146
0.00227289
0.00114664
0.00340219
0.00100634
0.00091574
0.000797827
0.00341661
0.00601199
0.000967514
0.00267323
0.00458496
0.000790146
0.00100123
0.000795615
0.00224146
0.00292642
0.000848184
0.00078021
0.000770079
0.00273759
0.000735569
0.00158421
0.000739237
0.000184716
0.00486169
0.00456242
0.00140899
0.00414975
0.00609438
0.00616384
0.00124347
0.00168497
0.00683631
0.00207729
0.00172174
0.00433486
0.00146578
0.00603466
0.00193771
0.000744307
0.00273792
0.0041849
0.00759238
0.00590974
0.00141102
0.00228489
0.000916683
0.00151624
0.00109252
0.000934219
0.00156619
0.000942369
0.00417963
0.000804442
0.00654907
0.000909114
0.000344914
0.000805282
0.00249077
0.00491908
0.00157679
0.000732724
0.00109111
0.000915464
0.00433253
0.00706222
0.000806417
0.00507983
0.000811955
0.00765714
0.00437663
0.00647664
0.0052166
0.000932739
0.00136658
0.0030027
0.000766495
0.00113238
0.00703746
0.00461981
0.000820378
0.00084109
0.00179767
0.00513529
0.00646346
0.000800193
0.000942996
0.00106167
0.000827536
0.000211926
0.000848092
0.00730491
0.00553742
0.00292125
0.00099206
0.000821936
0.000938438
0.00640089
0.0007984
0.000758142
0.00131422
0.000981796
0.0014789
0.00104882
0.00508374
0.000494426
0.000973471
0.00140235
0.00120475
0.00167234
0.00139761
0.00744849
0.00411859
0.00164105
0.001912
0.00692018
0.00625881
0.000862559
0.00343489
0.00165133
0.000256057
0.000243538
0.000824441
0.000721779
0.00621157
0.0016628
0.000763008
0.00158919
0.000557097
0.00136819
0.00112267
0.00566417
0.00085029
0.00238429
0.00107076
0.000621286
0.00117615
0.00759116
0.0071727
0.000635516
0.00507265
0.00856239
0.000714516
0.00084581
0.000644485
0.000838668
0.000803368
0.0035793
0.00132915
0.000626334
0.00776503
0.00819219
0.000686265
0.000348083
0.00286099
0.000315647
0.0007035
0.000720262
0.00429269
0.000765574
0.000823465
0.000730251
0.00517308
0.00088469
0.00717334
0.00785837
0.000691563
0.000658506
0.000785433
0.000663516
0.000748856
0.000860312
0.00119563
0.000631806
0.00677871
0.000754048
0.000740373
0.000761965
0.00106262
0.00102718
0.000845058
0.000841113
0.00087224
0.00193123
0.00115734
0.00119654
0.00171854
0.00191422
0.000853213
0.00326921
0.000512469
0.00189203
0.000793623
0.000754827
0.00121015
0.00334134
0.000658202
0.00118553
0.000706247
0.000777188
0.0006806
0.00277033
0.00229165
0.00112984
0.000642957
0.000422113
0.000769736
0.00583256
0.00144422
0.00369727
0.000530764
0.00093765
0.00133289
0.0021175
0.00122119
0.000771146
0.000879108
0.000940755
0.000847846
0.000834484
0.000878748
0.00139202
0.00415206
0.000807186
0.00268444
0.00746563
0.000710155
0.0015753
0.000298034
0.00257552
0.00210774
0.000914526
0.00311295
0.000504846
0.000828644
0.000808964
0.00535838
0.000872038
0.0017179
0.000833821
0.000673786
0.000597421
0.000538639
0.00064897
0.000837375
0.000732212
0.000774381
0.00424682
0.000849279
0.000776463
0.000755792
0.00794742
0.00148763
0.000911568
0.000387212
0.000437217
0.000593063
0.00100397
0.000676327
0.00105244
0.00166079
0.00112423
0.00030696
0.00180491
0.000778022
0.000722344
0.000731665
0.000663789
0.00229709
0.000709829
0.0010312
0.00294303
0.00370424
0.000819092
0.0050737
0.00346891
0.00193531
0.000356518
0.00176645
0.000741883
0.00358357
0.00495703
0.000837708
0.000866206
0.000805662
0.00100128
0.00156379
0.00103098
0.00171719
0.000493263
0.000802821
0.000761083
0.0009546
0.00115199
0.000779553
0.00200523
0.000795112
0.00485721
0.000781955
0.000778209
0.00126596
0.000900059
0.00128906
0.000817813
0.000601231
0.00107672
0.00107949
0.00126658
0.000745823
0.000488205
0.000800857
0.00296722
0.00390247
0.000708164
0.000876132
0.00302447
0.00178483
0.000825101
0.000850508
0.0030429
0.000620097
0.000815872
0.00112625
0.000799997
0.00098966
0.000962841
0.00554232
0.00335881
0.000956286
0.000953167
0.000844617
0.00107346
0.000992053
0.00038577
0.000939245
0.000805212
0.0055707
0.000997662
0.00626804
0.0055605
0.00338352
0.000863218
0.00103011
0.000886952
0.00133127
0.000783432
0.000862707
0.000813793
0.00079399
0.00106103
0.000852142
0.000729993
0.00709489
0.000691537
0.00884867
0.000748341
0.00105023
0.00060092
0.000585184
0.000596184
0.000612151
0.00056184
0.000518618
0.00323
0.000344756
0.000312361
0.000818857
0.000457469
0.000482779
0.000356075
0.00236944
0.000489331
0.000935034
0.000175143
0.00712493
0.000253145
0.000721014
0.00305213
0.00375187
0.00166921
0.000394978
0.000894751
0.0031547
0.000950187
0.00538492
0.00757251
0.00179076
0.000950784
0.00415613
0.00019361
0.000349947
0.000883533
0.000161788
0.0030094
0.0055686
0.00625863
0.00362564
0.000966564
0.00633336
0.00748564
0.000815755
0.00021137
0.000277015
0.00144218
0.00512343
0.000780111
0.00220505
0.00246108
0.00305119
0.000753279
0.000324243
0.00309241
0.000128134
0.00104068
0.00022679
0.000823238
0.0019218
0.00401159
0.000830232
0.00171273
0.00888523
0.000896655
0.00225737
0.000426756
0.000953722
0.00100005
0.00080987
0.00108329
0.000982935
0.000776457
0.0016796
0.00463928
0.000845981
0.00121987
0.00679771
0.00787008
0.000812183
0.000727245
0.000983975
0.00287648
0.00236417
0.00479171
0.000913715
0.00701944
0.00590096
0.00360165
0.00227999
0.00260333
0.00107393
0.00172197
0.00281532
0.00113503
0.000662275
0.00257746
0.00610098
0.0079168
0.00291625
0.00278347
0.000710465
0.00649473
0.00268314
0.00083746
0.00120645
0.00143509
0.00124377
0.000432064
0.000872885
0.00113928
0.00138798
0.00195267
0.00304704
0.00702192
0.000751374
0.00601586
0.00177953
0.000624173
0.00723093
0.00469615
0.000860766
0.00069955
0.000880097
0.000785526
0.000348155
0.000749489
0.00145568
0.00492125
0.000846321
0.000774541
0.00077591
0.000977717
0.00123091
0.000777029
0.000840461
0.00710417
0.000905455
0.000797405
0.000809062
0.0020813
0.000820758
0.00121705
0.0002225
0.000778199
0.000791358
0.000802746
0.000238175
0.000577987
0.00113737
0.00110306
0.000744448
0.000256913
0.00101982
0.00103493
0.000794391
0.00773848
0.00214691
0.000743931
0.00101671
0.000767549
0.000534281
0.000124325
0.000956598
0.000833572
0.000695285
0.00243082
0.00195537
0.000150917
0.00122799
0.000873738
0.000447678
0.000864758
0.00602988
0.000973487
0.00144986
0.000809118
0.00061909
0.00627101
0.00122264
0.000698472
0.00141136
0.000907684
0.00451288
0.000920189
0.00107796
0.000800248
0.000963918
0.000936403
0.000790608
0.000149675
0.000900973
0.000119957
0.00136529
0.00217801
0.0016333
0.00107783
0.000788508
0.000386462
0.000529868
0.00928344
0.000452868
0.000996577
0.00258566
0.00104162
0.000930739
0.000411575
0.00065402
0.000975453
0.0089394
0.00716777
0.00116293
0.000799439
0.00080956
0.00032848
0.00171664
0.000821727
0.0030079
0.000710719
0.000996214
0.00714421
0.000940014
0.000966915
0.005659
0.00115019
0.000514105
0.000835155
0.00133835
0.000134803
0.000801298
0.000639632
0.00722178
0.00156338
0.000770727
0.000516701
0.000819556
0.000135358
0.000840555
0.00162113
0.00741146
0.000793163
0.000838485
0.000839724
0.000786161
0.000371431
0.000482863
0.00439359
0.000619235
0.0032408
0.000746474
0.000601494
0.00470199
0.000827399
0.00311549
0.00873135
0.000592105
0.000773731
0.00109565
0.00221792
0.000870452
0.000155013
0.00519641
0.00743488
0.000860288
0.00697971
0.000783961
0.000738975
0.00683009
0.00250902
0.00232315
0.00115605
0.00684631
0.000881037
0.000851315
0.00108158
0.00641676
0.000842449
0.000819744
0.00162938
0.00706067
0.00110276
0.0011542
0.00139907
0.00276566
0.00209885
0.0019698
0.00158383
0.00143977
0.00709868
0.000473753
0.000246349
0.0046684
0.000745991
0.00122069
0.000739015
0.000772718
0.000844373
0.000906021
0.00197838
0.000404585
0.000891796
0.000140407
0.00617212
0.00106056
0.00059666
0.00208113
0.000559351
0.000923197
0.00307911
0.00158285
0.000900166
0.000918725
0.0079092
0.000656069
0.000491096
0.00278956
0.00072669
0.000559523
0.000826449
0.000790649
0.000885947
0.00316839
0.00585407
0.00211557
0.000622045
0.00684347
0.000900842
0.00128471
0.00152086
0.00362991
0.00547202
0.000769419
0.000844122
0.00531256
0.00240804
0.000918531
0.00543718
0.00533734
0.0013255
0.000932763
0.000828171
0.00119004
0.00081409
0.000875618
0.00084741
0.000838881
0.00101009
0.000633462
0.00337423
0.000816718
0.000960019
0.00237339
0.00264793
0.006851
0.00871922
0.0073878
0.000995236
0.00269603
0.00116894
0.00483019
0.000982731
0.000668211
0.000845886
0.000856906
0.00544268
0.0013171
0.000734394
0.00764374
0.000784693
0.00476952
0.0078796
0.00771788
0.00540847
0.00795856
0.000774568
0.00253779
0.00738143
0.000845247
0.00078234
0.00032867
0.00367279
0.00378748
0.000420097
0.00569885
0.00857809
0.000589405
0.00141542
0.000517431
0.000142525
0.00169851
0.00756305
0.00148201
0.00244288
0.00103805
0.00085487
0.0074922
0.0012129
0.00115808
0.00276576
0.000635059
0.00154272
0.000758381
0.00133174
0.00192551
0.000817991
0.00111166
0.00050388
0.000724864
0.00408056
0.00112672
0.000792862
0.000138972
0.00153349
0.00113325
0.000801375
0.00114008
0.00119709
0.00141587
0.000683396
0.00107235
0.004633
0.00110412
0.00166511
0.000817288
0.000856195
0.000735788
0.00390168
0.00129759
0.00183281
0.000722198
0.00209958
0.0029678
0.00156069
0.000714807
0.00075286
0.000787214
0.000696425
0.000945621
0.000741957
0.00120034
0.00103483
0.00440698
0.000781781
0.0058083
0.000913915
0.000793948
0.00736343
0.0012222
0.00204897
0.00203558
0.00275396
0.000811073
0.00102609
0.00185968
0.000842924
0.00297931
0.000502157
0.00113396
0.000919884
0.00133386
0.00181557
0.00695613
0.00105316
0.00117577
0.00129744
0.000360218
0.0012358
0.000807351
0.000837285
0.000831716
0.00133197
0.00297085
0.0015773
0.000876987
0.000909599
0.000912708
0.00079218
0.00126459
0.00684434
0.00896653
0.00761914
0.000740934
0.000669017
0.00933119
0.00749636
0.00899355
0.00726137
0.00551404
0.000802299
0.000758981
0.00115378
0.000744544
0.000606159
0.000932387
0.00164177
0.000580456
0.000855992
0.00120188
)
;

boundaryField
{
    frontAndBack
    {
        type            empty;
    }
    wallOuter
    {
        type            nutkWallFunction;
        Cmu             0.09;
        kappa           0.41;
        E               9.8;
        value           nonuniform List<scalar> 
90
(
8.25021e-05
7.67501e-05
7.78064e-05
7.56671e-05
8.27055e-05
8.47212e-05
8.66736e-05
9.42032e-05
8.00422e-05
8.90074e-05
9.1503e-05
9.5144e-05
9.06794e-05
9.3255e-05
9.23985e-05
0.000104917
9.97509e-05
8.12462e-05
7.22446e-05
6.52243e-05
7.8334e-05
0.000100157
8.80534e-05
9.29328e-05
8.0074e-05
0.000113656
0.000113286
8.77965e-05
8.33117e-05
7.25498e-05
7.06812e-05
7.19889e-05
7.38771e-05
6.78936e-05
6.26929e-05
5.52372e-05
1.84922e-05
2.89388e-05
8.66195e-05
4.74632e-05
2.11044e-05
4.16867e-05
0.000105278
1.68947e-05
2.3692e-05
3.20979e-05
1.24845e-05
0.00012292
2.55052e-05
0.000106902
0.000116759
7.9771e-05
7.54114e-05
9.28909e-05
9.67685e-05
2.68588e-05
2.94165e-05
0.000120586
0.000122448
8.94116e-05
6.47001e-05
1.15389e-05
1.57364e-05
0.000104182
9.6922e-05
8.41335e-05
0.000108162
1.53576e-05
0.000107261
1.12464e-05
6.22638e-05
1.31341e-05
9.25095e-05
1.35546e-05
9.49648e-05
7.48289e-05
7.1613e-05
0.000103927
1.62339e-05
0.000102664
5.73708e-05
0.000106224
1.39706e-05
7.51601e-05
7.63891e-05
1.45828e-05
9.49302e-05
1.37389e-05
8.23702e-05
8.38913e-05
)
;
    }
    inlet
    {
        type            calculated;
        value           uniform 0.000851986;
    }
    outlet
    {
        type            calculated;
        value           nonuniform 0();
    }
    wallInner
    {
        type            nutkWallFunction;
        Cmu             0.09;
        kappa           0.41;
        E               9.8;
        value           nonuniform List<scalar> 
138
(
5.25279e-05
3.9989e-05
0.000221313
6.40945e-05
5.74301e-05
8.14138e-05
0.000260002
0.000138412
5.97807e-05
5.31036e-05
0.000138525
0.000119665
1.71318e-05
5.51378e-05
3.14034e-05
5.14323e-05
5.82219e-05
4.14702e-05
3.3623e-05
7.96154e-05
0.000238719
0.000128823
4.10747e-05
0.0001328
0.000129885
0.000127499
0.000121839
0.000126294
0.000121485
0.000129648
0.000130796
3.32224e-05
2.72022e-05
2.44672e-05
2.18904e-05
4.35798e-05
5.61011e-05
3.87131e-05
4.19519e-05
4.07747e-05
3.59904e-05
6.49496e-05
4.02452e-05
2.99948e-05
4.16267e-05
3.14117e-05
4.2041e-05
4.87905e-05
4.03853e-05
2.42047e-05
3.80621e-05
2.45749e-05
4.04745e-05
4.49381e-05
4.72209e-05
4.02718e-05
3.47408e-05
4.74037e-05
4.09372e-05
5.57783e-05
4.028e-05
4.52411e-05
3.25624e-05
4.14273e-05
2.05016e-05
2.66425e-05
3.30387e-05
6.66655e-05
0.000122875
6.72935e-05
0.000154708
3.80508e-05
4.14557e-05
5.80433e-05
0.000127675
4.06659e-05
0.00012871
3.12792e-05
2.84494e-05
4.95217e-05
4.10605e-05
0.000146725
0.000173793
0.000150423
0.000139245
0.000160535
4.61274e-05
5.12435e-05
0.000127173
0.000122837
3.30244e-05
2.01863e-05
4.11962e-05
2.37855e-05
5.93119e-05
2.92151e-05
2.86243e-05
4.24784e-05
3.74109e-05
8.33272e-05
0.000135725
6.21457e-05
8.5218e-05
5.04516e-05
0.000111897
3.49229e-05
4.56898e-05
0.000132382
3.6954e-05
4.37864e-05
4.79071e-05
0.000125356
4.08924e-05
3.678e-05
4.32199e-05
0.000114778
9.04268e-05
3.83894e-05
0.000113037
0.00011841
4.23167e-05
2.52137e-05
9.33508e-05
5.37356e-05
4.78529e-05
5.48876e-05
9.69306e-05
3.88069e-05
4.5799e-05
5.84077e-05
2.84829e-05
8.06897e-05
0.000135645
8.94864e-05
7.32008e-05
0.000188303
7.04192e-05
0.000140618
)
;
    }
    procBoundary0to1
    {
        type            processor;
        value           nonuniform List<scalar> 
29
(
0.00118426
0.00190882
0.00190041
0.00190041
0.00514602
0.00514602
0.00292027
0.00132755
0.00190101
0.00234429
0.00173765
0.00195094
0.000670382
0.000597359
0.00224063
0.00128053
0.00792701
0.0058204
0.00263479
0.00188626
0.000866973
0.000730315
0.00319494
0.000741263
0.000728659
0.0058204
0.000726987
0.000916191
0.000741263
)
;
    }
    procBoundary0to2
    {
        type            processor;
        value           nonuniform List<scalar> 
42
(
0.00684893
0.00774401
0.000577497
0.000533084
0.0010733
0.00684893
0.000577497
0.000600202
0.00112444
0.00126247
0.00195252
0.00338321
0.00195252
0.00477896
0.00641909
0.00558438
0.00641909
0.00122341
0.00122265
0.00146251
0.00146251
0.00122341
0.000990209
0.000905076
0.000905076
0.000841112
0.00184791
0.000717641
0.00319269
0.00803897
0.00803897
0.000795455
0.000950084
0.000945624
0.000768805
0.000577497
0.00799618
0.000289195
0.00319269
0.000600202
0.000586636
0.000618701
)
;
    }
}


// ************************************************************************* //
