/*--------------------------------*- C++ -*----------------------------------*\
| =========                 |                                                 |
| \\      /  F ield         | OpenFOAM: The Open Source CFD Toolbox           |
|  \\    /   O peration     | Version:  v1912                                 |
|   \\  /    A nd           | Website:  www.openfoam.com                      |
|    \\/     M anipulation  |                                                 |
\*---------------------------------------------------------------------------*/
FoamFile
{
    version     2.0;
    format      ascii;
    class       surfaceScalarField;
    location    "0.24";
    object      phi;
}
// * * * * * * * * * * * * * * * * * * * * * * * * * * * * * * * * * * * * * //

dimensions      [0 3 -1 0 0 0 0];
oriented        oriented;


internalField   nonuniform List<scalar> 
2776
(
0.000582476
0.00014279
-0.000579319
-0.000145948
-0.000890228
0.000990814
0.000302147
-0.000402733
0.000114556
-0.000155083
-3.62156e-05
7.67428e-05
3.29209e-05
9.91427e-05
0.000944067
-0.00107613
-3.98727e-05
0.000249945
-7.37286e-05
-0.000136344
-0.000177384
-0.000652484
0.00050631
0.000323558
0.000281487
-0.000113271
0.000119716
-9.42871e-06
-0.000203476
9.31878e-05
0.00103545
0.000909208
-0.000913889
-0.00103077
-0.00117169
0.000818745
-0.000243534
0.000596482
-0.000557507
-0.00144129
0.000698811
0.00129998
0.000417285
0.000261344
-0.000605136
-7.34923e-05
0.00090022
0.000115995
-0.00139102
0.000374806
-0.000115983
-0.000125119
0.000201229
0.000215183
-6.21325e-05
-0.000330434
0.000727755
-0.00033465
-0.000950612
-0.00011112
-0.000166934
0.000229377
4.86762e-05
2.30254e-05
-0.000522016
0.000498991
0.000518029
-0.0001368
6.90068e-05
-0.000450237
0.000827784
-1.35772e-05
2.71829e-05
-0.00084139
-0.000776918
4.2015e-05
-3.1147e-05
0.00076605
-2.01906e-05
0.000242728
-0.000349149
0.000126612
0.000574935
2.21956e-05
-2.37823e-05
-0.000573348
0.000712354
0.000114318
-5.60772e-05
-0.000770595
0.000317596
-0.000389736
-0.0012009
0.00127304
4.93995e-05
-5.07028e-05
9.27173e-05
-9.14139e-05
-0.00020329
6.90332e-05
0.000138106
0.000734126
-0.000826979
-4.52536e-05
7.25744e-05
-4.88291e-05
1.47624e-05
-3.85077e-05
-0.000363814
0.000419983
0.00062918
-0.00068535
0.000763674
-0.0012265
-0.000124976
0.000587801
0.000110836
-1.70887e-09
9.21115e-07
-0.000111756
-0.000299648
0.000508626
2.24066e-05
-0.000231385
-0.000398318
0.000507514
-0.000450776
0.00034158
4.58637e-05
8.36211e-06
0.000412032
0.000114349
4.18357e-06
-4.59578e-05
-0.000307705
0.000179848
-0.000436251
8.59675e-06
0.00121967
-0.000326328
-0.000893341
0.000220141
-0.00045171
0.000231569
5.08412e-05
-0.000788953
0.000738111
-0.000560928
0.000609618
-4.86903e-05
-0.000610867
0.000581118
2.97481e-05
0.000683427
3.68872e-05
-0.000720315
-2.78206e-05
9.38783e-05
-6.60577e-05
-6.13172e-05
0.000140973
0.00103414
1.85988e-05
0.000322355
-0.000317957
-4.39796e-06
-0.000327107
0.000419462
-9.23558e-05
-0.000400763
0.000358374
4.23888e-05
-0.000250108
0.000112223
0.000137885
-0.000225982
-0.000664246
-0.000508358
-0.000144126
0.000282739
-3.27943e-05
-0.000226781
-7.28662e-05
-0.00111856
0.00143616
-0.000398272
0.000179453
0.000218819
-0.0011176
-0.000323686
0.000190328
-0.000400664
0.000210336
-0.00101984
-0.000151853
5.20872e-05
1.81637e-05
-1.69656e-06
-6.85544e-05
0.00052357
-0.000415737
-5.69916e-05
0.000108468
-6.90684e-05
0.000180741
-0.000241243
6.61432e-05
0.000651076
-0.000475976
0.000781473
-0.000690989
-0.000165963
7.54793e-05
0.000125795
-0.000149183
0.000148481
-0.000125092
0.000269276
-6.00512e-05
-1.06713e-05
-0.000198553
-0.00017341
-0.000157107
-0.000654022
0.00090856
-0.000913279
6.89337e-05
-6.42143e-05
6.42384e-05
-0.000156419
-0.000172251
0.000264431
0.000162724
-0.000139129
2.25896e-05
-4.6185e-05
5.06949e-05
-0.000530134
0.000479439
6.36981e-05
-0.000372226
0.000308528
0.00108317
-0.000463354
-0.000829133
0.000209319
3.01651e-05
-4.40117e-05
6.59338e-05
-0.000675655
-8.09791e-05
0.000330953
0.000425681
-3.90608e-05
0.000580427
-1.7797e-05
0.000223625
5.03549e-05
-0.000165512
-0.000373566
0.000360186
1.338e-05
0.000115003
-0.000411344
0.000360745
-6.44038e-05
-0.000803609
3.04318e-05
-9.40026e-05
0.00086718
-0.000525136
0.00071877
0.000505177
8.98521e-05
1.24886e-05
-0.000118851
1.65108e-05
-0.000312969
-6.09133e-05
0.000279389
9.44937e-05
-0.000665401
3.54131e-05
0.00068168
-5.16923e-05
-4.72518e-05
0.000652975
-0.000633756
2.80332e-05
-0.000393632
0.000386978
-0.000391664
4.54319e-05
-1.86979e-05
0.000349899
-0.000376633
0.000989408
-0.000573349
2.80541e-05
3.78473e-05
5.6559e-05
-0.00012246
4.29211e-05
-3.95849e-05
4.60633e-05
-0.000243962
5.68667e-05
-1.61945e-05
0.000195024
-0.00062443
0.000462328
1.20399e-05
-0.000228988
0.00036824
-0.000151292
4.10139e-05
-0.00012235
7.19074e-05
-0.000112226
0.000859696
0.000131118
-8.34572e-05
-8.3115e-05
-2.49645e-05
-4.87641e-05
0.000256201
2.91836e-05
8.30399e-05
1.10135e-05
0.000311342
-6.2092e-05
-0.000265015
-0.000653421
4.25545e-05
1.98952e-05
-0.000223371
-8.88955e-05
-3.5218e-05
0.000466917
0.000833067
0.000184204
3.63472e-05
-5.21126e-05
3.39292e-05
0.000569649
-0.000602828
2.67001e-05
6.47861e-06
3.59807e-05
0.000420823
-0.000314013
0.000372356
0.000446389
1.90236e-05
-4.50878e-05
9.32781e-06
1.67364e-05
0.000454613
-8.89564e-05
0.000155682
-0.000372896
0.000634499
-2.19631e-05
0.00032607
-2.26206e-05
-5.53603e-05
0.000159127
9.03148e-06
-0.0011703
0.0010366
0.000232848
-0.000259859
-0.000105827
0.000219707
0.000145979
0.000284573
-5.05287e-05
-0.000131625
-0.000102419
-4.76302e-05
0.000731057
3.37134e-05
-6.1534e-05
0.000275809
-0.000121718
-0.000711566
0.000187181
0.000635176
-0.00011079
-0.000242873
0.000729265
5.74365e-05
-0.000543828
-0.00024922
0.000824316
2.09647e-05
-0.00059606
-6.2661e-05
6.53509e-06
8.42813e-05
-2.81554e-05
0.000104636
0.000520994
0.000196049
0.000580003
-5.2002e-06
-8.08841e-05
8.42606e-06
7.76583e-05
0.000537121
0.000481583
0.000198924
7.42389e-05
0.000189
0.000107863
-9.51435e-05
0.000816589
2.20936e-05
-0.000743539
0.000839342
7.66414e-05
-7.63036e-05
-0.00083968
0.000504361
-2.56418e-05
2.55855e-05
-0.000504304
0.000271274
-0.000251957
-0.000119486
0.000100168
-0.000606995
-9.69471e-05
1.26268e-05
0.000691315
0.000115254
-2.28651e-06
-2.13137e-06
9.11327e-05
-4.85537e-05
-4.2646e-06
-3.83144e-05
0.000138949
-0.000118282
2.74154e-05
-4.80824e-05
0.000159569
-0.000112482
-1.90326e-05
7.51256e-05
-1.31809e-05
0.000232259
-0.000472736
0.000542625
-0.000849109
-0.000100303
0.000237845
5.44827e-05
-9.04878e-05
7.7019e-05
-0.000176838
-3.82498e-05
-3.1163e-05
0.000246251
0.000234356
-4.03186e-05
0.000118424
0.000786264
-7.36514e-05
-0.000831036
0.000167453
-0.000254401
-0.000306684
2.51619e-05
5.32823e-05
-1.9137e-06
-7.65305e-05
-0.000805082
0.00029076
0.000510983
3.33818e-06
4.58146e-06
-1.93489e-05
0.000130022
-0.000653832
0.000203748
0.000565087
-0.000293251
0.000245999
0.000596086
-0.000868883
-0.000200395
0.000473192
-2.80738e-05
0.000109028
-0.00035402
0.000273066
0.000120003
-0.00050215
0.000847012
-0.000850612
0.000199649
0.000552533
-0.00050864
6.07427e-05
0.000735003
-0.000613694
-7.88667e-05
-4.24424e-05
5.74598e-05
0.00154217
-0.00123256
-0.000367077
0.000681096
-0.000924363
0.000381374
-9.99825e-06
2.8597e-05
3.83552e-05
-5.6954e-05
0.000198686
3.48781e-05
0.00012481
-4.32632e-05
0.000102714
0.000537931
-0.000665557
0.000127626
-0.000415707
0.000295676
-0.00131337
0.0014334
-0.000441071
-2.17104e-05
0.000604653
-0.000141872
0.000227604
-0.000192251
-0.000399167
-2.0485e-05
2.20645e-05
3.47677e-05
3.91529e-05
2.1542e-05
0.000102029
-0.0013523
0.0011909
-0.000258711
0.000420107
0.000425408
-0.000358269
-0.00015223
8.50902e-05
0.000158673
-0.000601947
0.000555019
-0.000111746
-0.000186632
4.33721e-05
0.000107633
3.56267e-05
-2.57439e-05
-8.14315e-07
0.000386855
-0.000360297
0.000672097
2.56639e-05
-4.4786e-05
-0.000635444
3.60964e-05
-6.60534e-05
-0.00033609
-0.000165837
0.000188957
-0.00103414
-0.000173252
0.00029411
-0.00014131
-4.5118e-05
-0.000187138
0.000769672
-0.000208635
-0.00065618
5.21736e-05
-5.96119e-05
5.74172e-06
-0.000202187
0.000199295
0.000197916
0.000342295
0.000397563
-0.000644493
-9.53647e-05
0.000153279
0.000141036
-0.0010994
-1.29176e-05
3.78792e-05
-4.54467e-05
-8.32598e-05
-7.31589e-05
-0.000478029
0.000380683
0.000610526
-0.000513179
-0.000262088
4.41609e-05
5.0246e-05
0.000167681
-0.00078106
0.000516359
-0.000191018
-0.000119087
0.000107918
0.000109902
-3.36139e-05
-0.000506912
0.000450761
0.000373772
-0.000317621
-0.000598245
0.00060236
8.62525e-05
-9.03674e-05
-0.000115768
-9.62551e-05
7.28942e-05
-0.000251009
-0.000492278
7.51732e-05
0.000814668
0.00048667
0.000793098
-0.000409389
-0.000870378
-3.14537e-05
2.14987e-05
4.67982e-05
-3.68432e-05
-2.24051e-05
0.000807847
4.23421e-05
3.66357e-05
0.00055786
-7.6466e-05
-0.000103049
3.98161e-05
-0.000717131
0.000780364
-1.79167e-05
1.6592e-05
-0.000250794
0.000252118
0.000485878
-0.000192282
0.000387499
-1.47752e-06
-0.000776002
5.62198e-07
7.09351e-05
-0.000684347
0.000928661
-0.000315249
0.000693969
0.000120758
-0.000142631
-0.000595899
3.13904e-05
-0.000235964
-0.00040232
0.000302194
-0.000203063
0.000849635
0.000200441
-0.000147377
0.000511487
0.000188423
-1.79923e-05
1.2937e-05
-4.00324e-05
-3.94226e-05
-4.88384e-05
1.98387e-05
-8.48689e-05
-1.54563e-05
-0.000451093
0.000324157
-0.000201008
-8.89939e-05
8.55708e-05
0.000204431
6.32406e-05
0.000161474
-1.42458e-06
-0.00022329
9.568e-06
-2.23916e-05
-5.88824e-05
3.29074e-05
7.9827e-06
4.80526e-05
-5.76091e-05
3.21462e-05
-4.73124e-05
0.000326044
-0.000565429
0.000286697
0.000103286
-0.000481077
-0.000266702
-4.05901e-05
0.00033494
-0.000288645
-5.70514e-06
0.00017484
0.000182377
-0.000182527
-0.000174689
-4.91194e-05
-0.000248074
4.77499e-05
-8.73082e-05
8.24663e-05
-4.29079e-05
3.98168e-06
0.000191691
0.000114773
-0.000112438
-0.000194026
8.88864e-05
-5.31202e-05
-0.00044711
0.000465583
-0.00028985
-0.000387923
3.41899e-05
2.11989e-06
-2.04481e-05
-1.58617e-05
8.36823e-05
-0.000648628
5.76087e-06
-2.47965e-07
-0.000116429
0.000110916
-0.000266105
0.000933566
-0.000297517
0.000254302
-2.86189e-05
7.18339e-05
-0.000299304
0.000743176
0.00065995
0.000224983
-0.000190964
0.000798343
-0.000409346
0.000903139
-0.000243985
0.000232146
0.000863757
-0.000851918
-1.60051e-05
7.58231e-05
-9.12717e-05
0.000120472
-4.17697e-06
-9.96708e-05
0.00068554
-0.000819378
-0.000993487
0.00125753
0.000555336
-0.000484553
0.000524369
-0.000271663
0.000392422
8.21087e-05
-6.55166e-05
-2.20441e-05
0.000395661
-3.60445e-05
0.000412984
-1.33272e-05
-5.07554e-05
0.000521725
-0.000474867
-0.000569622
0.000522764
1.20542e-05
-0.000460158
0.000542519
-8.23609e-05
-6.04007e-05
7.60372e-05
-0.00066368
-0.000130532
-0.00134544
0.000656591
0.000214344
-0.000507595
-0.000443363
-4.11899e-05
8.5062e-05
-2.95329e-06
4.25485e-05
1.2191e-05
-3.32408e-05
-6.17615e-05
0.000149824
-9.30426e-05
4.43269e-05
-2.06891e-05
-0.000763828
0.000249025
-0.000143896
0.0006587
-0.000631962
0.000504146
0.000170852
-0.000214056
-7.50779e-05
2.48749e-06
4.51489e-05
-9.24454e-06
-3.83918e-05
-0.000664631
0.000293268
0.000413067
-4.1704e-05
0.000317069
-0.000157607
0.000482459
-0.00064192
-0.000585585
0.000530714
0.0002227
-2.60653e-06
-0.000177954
-4.21402e-05
-0.000187241
0.000175029
0.00027198
-0.000259768
0.000339056
-0.000425872
2.64154e-05
-1.55767e-05
0.000316383
-0.000325907
6.7211e-05
-0.000141968
0.000953038
-0.000863816
-0.000498611
0.000560507
0.000393913
-0.000767239
-0.000472226
-0.000107093
-0.000841814
3.42792e-05
-0.000869054
0.000422295
-2.41487e-05
-0.000141688
0.00040795
-0.000371853
0.000308811
5.22965e-06
-0.000271652
-1.09721e-05
1.81518e-05
-2.05069e-05
-7.54543e-05
-0.000126192
8.71006e-05
0.000114546
-6.91497e-05
7.01847e-05
0.000106959
-0.000107994
7.50046e-05
-1.55764e-05
-5.94281e-05
-0.00057555
0.00143336
-0.00112392
3.15342e-05
-0.00013395
-0.00017907
0.000508072
-0.000434199
-0.000728468
-3.81118e-06
0.000164063
-0.000170435
1.01837e-05
-0.000167376
0.000182449
0.000223632
-0.000238706
-0.000887004
0.000917567
0.000373665
-0.000404228
-0.000342683
0.000244053
-0.000956659
0.00105529
-0.00112905
0.000558384
0.000774413
-0.00015766
0.000426274
-0.000375723
0.000976137
0.000139552
0.000275966
-0.00016069
-0.000254828
8.34931e-05
-0.00045018
4.26942e-05
0.000323992
0.000631244
-4.7968e-05
2.13766e-05
-3.83816e-05
0.000226148
-5.75983e-05
-0.000130168
0.000690789
-2.91424e-05
0.000330742
-0.000992388
4.85804e-06
7.63004e-06
-0.000179864
7.91589e-05
3.20234e-05
0.000104
-8.80242e-06
3.70757e-05
-3.92454e-05
-0.000681987
-0.000192536
0.000340821
0.000533702
-0.00100375
0.000457696
0.00103243
-0.000486373
0.000156448
-0.000438262
0.000578933
0.000550118
-3.77079e-05
4.59563e-05
-9.89334e-05
0.000209902
0.000438207
-0.000549176
4.34257e-05
-0.00058207
0.000561669
-0.000460057
-0.000219178
-5.76483e-05
0.000121744
0.000797418
-0.000895509
0.000347115
-0.000186702
0.00034509
0.000363336
0.00126836
-0.000587633
0.000279823
-0.000960555
0.000492641
-5.40855e-05
-0.000285276
9.5245e-05
-4.94667e-06
-0.000109098
-0.000234982
0.00013599
0.00020809
-0.00026485
-0.000162036
0.000276683
0.000150203
3.19255e-05
0.000193899
-0.000107375
-0.000118449
-0.000410296
-1.12185e-05
-0.000448863
0.000327036
-0.000295045
0.000279479
-0.000434424
0.000514706
-0.000359761
0.000564835
0.00107549
-9.81506e-05
-1.56779e-05
9.06824e-05
-0.000607429
-2.14194e-05
0.000795573
-0.000684806
0.000375601
-0.000486369
-0.000153463
-0.000846544
-3.41298e-05
0.000308534
0.000510013
-0.000568651
-0.000743377
0.0016174
0.000394337
-5.32376e-05
-0.00119481
0.00138307
-0.000135021
8.34502e-05
0.00020051
0.000286853
-0.000261214
0.000129885
-1.19025e-05
0.000119254
6.99762e-06
-9.1731e-05
-0.000495902
0.00137082
-0.000572209
-0.00154198
0.000354556
-0.000445987
0.000210159
7.38007e-05
0.000336793
1.76952e-06
5.35571e-05
-1.96692e-05
0.000624812
-0.000166527
-0.000596154
0.00068825
7.44301e-05
0.000323415
-0.000251346
-9.58404e-06
0.000317328
-3.84681e-05
0.000704862
-0.000641775
-0.000538204
0.000475118
0.000707943
-0.000888033
0.000658591
-0.000478502
-0.000189716
9.79855e-05
0.000218724
0.000632251
-0.000484306
0.000332028
0.00106984
0.000246317
7.08064e-05
0.00049928
-0.000288094
-0.000211186
0.000593789
-0.000859371
-0.000334516
0.000155049
-3.97115e-05
-0.00059713
-0.000617086
0.000646156
0.00056806
0.000362001
0.000487969
-0.000588626
0.000707057
-0.000207777
0.000193793
-2.88507e-05
-0.000152903
0.000494373
-0.000772957
0.00035706
-0.000353565
0.000330331
-0.000333826
-0.000293921
0.000318494
0.000276626
-0.000301198
0.00038152
-0.000318381
0.000274335
0.000425218
-0.000318033
-0.000353052
0.00023565
0.000396028
-0.000278626
0.000239777
0.000371536
0.000137949
1.39393e-05
0.000204013
0.000153584
8.07996e-05
0.000156772
6.71937e-05
2.12359e-05
0.000129767
-0.000208562
-0.000241652
0.000320448
-0.000427008
-0.000571572
0.00046319
0.000535391
-5.97664e-05
-0.000446877
0.000414866
9.17768e-05
-0.000453127
-0.000369929
0.000396047
-1.10746e-05
-2.12861e-05
0.000106499
-7.41383e-05
-4.22844e-05
-1.15959e-05
0.00023781
-0.000183929
7.62199e-05
0.000166003
-0.000261813
0.000968869
-4.44444e-05
3.40172e-05
-6.47303e-07
0.000100205
-0.00014249
-0.000240049
0.000248444
6.78243e-05
0.000178089
-0.000146157
-0.000520781
0.000146716
-0.000576654
0.000950719
-1.84958e-05
0.000105863
-0.00112463
-0.000282132
0.00111359
0.00029317
-0.000198014
0.000156239
-5.77423e-05
9.95181e-05
0.000617591
-0.000260336
-0.000878036
1.01569e-05
0.00020253
-0.000494508
0.000187583
0.000464737
-0.000157812
0.000297777
-0.000324937
-0.00021522
0.00024238
6.48013e-05
0.000130818
-3.47817e-05
-0.000160838
-2.03092e-05
0.000784616
-0.000561232
0.00055108
-0.000148442
0.000248204
-0.000311131
-0.000386649
0.000358019
0.000339761
0.0001548
8.53578e-05
0.000101399
3.49051e-05
6.53458e-05
-0.000173947
7.36266e-05
7.03336e-05
0.00022339
8.5977e-05
4.91156e-05
-0.000358482
9.68121e-05
-0.000111587
-0.000310161
-2.30787e-05
-2.85511e-05
0.000275663
-0.000220729
0.000168455
-0.000765009
1.90354e-05
0.000148427
0.000108201
0.000385002
7.53056e-05
-0.000357833
5.4613e-06
0.000236097
-8.61501e-06
-9.49732e-05
-0.000164126
0.000145828
9.68141e-05
-0.000192118
-0.000127601
0.000115134
-3.64222e-05
-0.000147874
6.91622e-05
-0.000160552
0.000127827
2.11296e-05
1.23771e-05
-0.000202094
0.00116894
2.13073e-05
-0.00119025
0.000151595
-0.000211446
0.00029211
0.000116238
-1.60331e-05
-0.000113528
9.96665e-05
9.84034e-05
-0.000160513
6.21099e-05
0.000152619
-1.18613e-05
5.78456e-05
0.000187339
-5.2423e-05
-0.000134289
0.000264056
2.56075e-05
0.000248609
-0.000286077
0.000359035
-0.000245988
0.00017692
8.65624e-05
-0.000111887
-0.000172452
-1.17422e-05
0.000220175
0.000183208
-0.000203075
0.00115777
0.000180791
-0.000248634
0.000244763
-0.00015614
-9.16087e-05
7.52963e-05
0.00032579
-0.000432373
5.04733e-05
5.61099e-05
-0.000150211
0.000291616
0.000162579
-0.000303984
-0.000100586
0.00013824
-3.47774e-05
-6.65373e-05
0.000101315
0.0014425
-5.40391e-05
-0.000283833
-0.000280269
0.000355539
-4.3495e-05
-9.07937e-05
5.97468e-05
-3.98552e-05
-8.13329e-05
6.14412e-05
-6.59144e-05
0.000110901
-3.24981e-05
-7.82724e-05
0.000153489
-0.000122909
0.000397091
-0.000217912
-0.000180526
-0.00015192
-5.44853e-05
4.83177e-05
0.000155536
-0.000107428
0.000290765
0.000247858
-0.000176622
-5.75578e-05
-7.18793e-05
-0.00029331
0.000324421
0.000204539
-0.000137324
-0.000121475
0.000102405
-0.00011548
-7.89055e-05
9.19796e-05
0.000204165
-0.000257697
-0.000101456
-4.65086e-06
-8.96896e-05
2.78297e-07
8.94784e-05
0.00011169
-0.000237547
0.000120885
0.000121594
-0.000211643
3.24907e-05
-0.00041144
0.000174734
-0.000328355
-0.000216475
-0.000584719
0.000172578
0.000628615
0.000362731
-0.000217938
-0.00026327
0.000118477
0.000332687
0.000352756
-0.000220883
-0.00046456
0.000129983
0.00109606
2.37066e-05
-0.000241779
-0.000255275
0.000467104
0.000150902
-0.000272878
0.000387626
0.001133
0.000227835
0.000177128
-0.000136834
8.13e-05
-4.5498e-05
-0.000628789
-6.38047e-05
6.25986e-05
0.000247524
-0.000250107
-0.000177391
0.000154621
0.000553223
-1.13783e-05
3.28109e-05
-0.0002763
0.000232379
0.000368342
-0.000554908
-0.000259812
-0.000456146
-0.000589932
0.000474505
0.000572809
0.000760712
-0.000587865
-0.000745655
-0.000315502
0.00043523
0.000685595
-0.000507761
3.6825e-05
0.000435264
3.56713e-05
-0.000445337
0.000591929
-0.000506258
-0.000439025
0.000499946
-8.4768e-05
0.000177679
5.42702e-05
-0.000231671
-0.00035782
-0.000643083
-0.000163822
0.000640378
-0.000825902
0.000937754
0.000264237
0.000148264
-5.98757e-05
8.41009e-05
0.000515711
-0.000551012
0.00060811
0.000261716
-0.000113179
-0.000190852
4.23151e-05
0.000495932
-0.00036358
-3.28901e-05
3.90959e-05
-0.00116882
0.00111558
0.000619436
0.000326855
-0.00018558
0.000120724
-0.000161555
-0.000195638
0.000235719
0.000716678
0.000736779
0.000210861
2.40471e-05
-0.000971687
4.2452e-05
9.94119e-05
0.000539128
-0.000262701
4.87316e-05
-0.000192312
2.81011e-05
-0.000157208
0.000540823
-0.000469007
8.53919e-05
-0.000820936
0.000713415
0.000242385
-0.000331172
0.000244441
0.000155977
-0.000196254
0.000141117
-0.00017129
5.97401e-05
-0.000103997
5.66344e-05
0.000287426
0.000552281
-2.73253e-05
-0.000102677
0.000228406
0.00116447
4.47541e-06
0.00015806
-2.64061e-05
-0.000499102
-0.000410171
-0.000476147
0.000516745
-0.0005397
-0.000943666
0.000568985
-0.000679122
-0.000200034
-0.000185778
-3.22945e-05
-0.000611554
0.000923619
-3.23918e-05
0.000121077
0.00018831
-0.000384657
7.21289e-05
-0.000444575
0.00031977
-0.000939291
0.000466077
-0.000330427
-0.00100022
0.000656331
-0.000599774
-6.26386e-05
2.12657e-05
0.000708516
-0.000667143
0.000257112
0.000452013
-0.000120651
-0.000585934
0.000254572
0.000108166
-0.000171853
-0.000274194
0.000372256
-0.000413173
-4.34786e-06
-0.000259271
0.000583295
7.45415e-05
0.00037715
0.000437549
-0.000579351
0.000121517
0.000603342
0.000223355
-0.000195463
-0.000540297
-0.000691718
0.00127503
0.000261515
-0.000210672
0.000599701
0.000552114
0.000607881
-0.000637499
-0.000522496
-0.000251304
0.000404088
-0.000834772
2.80987e-05
-5.5271e-05
0.000626874
-0.000513724
0.000418213
-0.000365699
0.000404381
-0.000456895
0.00161465
-0.00108462
0.000451485
-0.00098152
0.000493385
0.000555265
-0.000600281
-0.000624199
0.0011304
-0.000924982
-0.000492567
0.000287147
0.000467867
-0.000478691
-0.000539147
0.000529942
-0.000565908
-0.000643642
-3.23312e-05
-0.000408297
0.000376192
0.000356647
-0.000324542
-0.00133345
-9.11278e-05
0.000254275
0.000831809
8.54782e-05
0.000218323
-0.00113561
0.000437014
0.0006456
0.000285667
6.76251e-05
-5.07571e-05
0.000303785
-0.000925639
0.000555332
-0.000302363
-0.000207131
0.000118917
0.000390578
-0.000550343
0.00071714
-0.000719911
0.00084903
-0.000434119
0.000486277
6.10023e-06
0.0011574
-0.00114219
-0.000262655
-0.000581735
0.000940205
-0.000912839
-0.000333091
0.000523448
-0.000430333
0.00100276
-0.00103248
0.000968231
-0.000916483
-0.000412392
-7.86925e-05
1.00074e-05
-0.000252217
0.000235423
0.000226952
2.59673e-05
0.000207634
2.81145e-05
-0.000204695
-0.000103776
-0.000247816
0.000111666
0.000225629
-0.000369639
-0.000454653
0.000514973
-0.000370403
-0.000658029
-8.54883e-05
0.000654311
-0.000849967
-6.19902e-05
-0.00011679
0.000827429
0.000810085
-8.12265e-05
-0.000168352
-6.14843e-05
-0.000896393
-0.000233302
-7.51341e-05
8.24262e-05
-0.000919305
6.88872e-06
1.83572e-05
0.00089212
-0.000917366
-0.000424388
8.32286e-05
0.000207728
-0.000290956
-0.000267727
0.000208544
-0.000246403
0.00043054
-0.000608135
-0.000306321
-0.000164668
-0.000569251
-0.000235281
0.000402918
-0.000591475
-0.000433194
0.000822253
-0.000796874
-0.000767967
-0.000894615
0.00102494
0.000637643
-6.12088e-06
4.72722e-06
0.000941599
0.00013504
0.000224037
0.000527955
-0.000696031
0.000730494
-0.000161307
-0.0010727
0.00112453
0.000109482
-0.0011666
-3.25592e-05
2.75231e-05
-9.36589e-05
-0.00062464
-0.000444559
0.000630175
0.000163518
-0.00063325
-0.000152753
0.000622181
-0.000622464
-0.000231712
-0.00105641
-0.000469505
0.000457893
0.000151165
0.000130047
-3.6882e-05
-3.05668e-05
-0.000605066
-0.000389214
0.000163131
-0.000142507
2.40134e-05
0.000118493
8.6504e-07
-3.43546e-05
3.34878e-05
0.000286946
-0.00130615
-5.84503e-05
0.00107765
-0.000407579
8.94745e-05
-7.60761e-06
-9.6069e-06
0.000572467
-0.000555253
-0.000130069
8.57936e-05
-0.00097576
-9.01949e-05
9.94813e-05
-0.000186678
-5.20538e-05
-1.18772e-05
3.03171e-05
0.000530331
-0.00028702
0.000104702
0.000276589
0.000432624
0.000211026
1.82433e-05
9.34895e-05
-2.7134e-05
-0.000721552
8.40544e-05
0.000185697
-0.000314746
0.000127625
-8.82284e-05
0.000178311
-4.51167e-06
4.09402e-05
-2.837e-05
-2.6433e-05
6.0134e-05
-4.93789e-05
0.000151256
-0.000465509
0.000403307
-8.90539e-05
0.00088842
-0.000291579
0.000197096
6.23737e-05
3.21095e-05
-0.000128161
0.000114261
-0.000122562
8.89479e-05
-2.81477e-05
6.30167e-05
-8.20667e-05
7.33203e-05
1.5939e-05
-3.22984e-05
1.63593e-05
-6.79731e-05
8.76883e-05
-5.66685e-05
3.38706e-05
2.27979e-05
-4.74197e-05
4.3248e-05
4.17175e-06
-0.000121507
-0.000605708
-4.2792e-05
4.3288e-05
-4.95943e-07
0.000174448
-0.00112652
0.00113645
-0.000454517
-0.00155997
-9.07952e-06
2.50186e-05
-5.7418e-05
0.000317039
-2.02007e-05
0.000155175
-8.24743e-05
2.58058e-05
7.12259e-05
0.000750154
-0.000763277
-0.000431436
2.47911e-05
4.5591e-07
-9.87669e-06
-0.000404357
-0.000368677
-0.000326436
0.000353403
0.000182221
9.17079e-05
-7.17897e-05
1.43717e-05
-0.00038173
0.00044902
-2.44144e-05
-0.000476327
2.33036e-05
0.000496449
0.000353517
-0.000457503
0.000728163
-0.00011306
-8.34999e-06
3.92268e-05
0.000699617
0.000262122
-0.000156659
0.000752723
7.91623e-05
0.000627158
-0.000475234
-3.12003e-05
-9.56546e-05
-0.000153355
0.000121298
0.000122277
-0.0001819
-6.16742e-05
-0.000291889
-2.94264e-05
-0.000767706
6.52212e-05
-0.000667015
-0.0004852
0.000472706
0.000679509
0.000400641
-0.000238398
-0.000129146
0.000221633
-0.000217322
-0.000239293
0.000108879
-1.81964e-05
0.000111951
-6.31537e-05
-4.94527e-05
-0.000114323
-6.83374e-05
0.00016246
-0.000104994
5.40085e-05
8.84931e-07
-0.000227213
0.000144261
-2.65193e-05
-0.000376621
-0.000682644
0.000608992
0.00090069
7.48842e-05
-5.66086e-05
5.5787e-05
-0.000637538
0.00063035
-7.72801e-05
-0.000490935
0.000474213
-0.000487809
0.000365291
-6.7932e-05
5.05105e-05
-1.06705e-05
2.80921e-05
-0.000399633
-0.000100256
-0.000240009
-0.000158614
0.000132337
2.62764e-05
5.60499e-05
-5.6647e-05
5.97094e-07
4.35402e-05
-9.46788e-05
0.000133075
-0.000314489
0.000976788
0.000468102
-8.96794e-05
0.000107248
0.000228208
-0.000157367
-0.000212466
0.000373444
6.00651e-05
-0.000949124
-7.48373e-05
0.000327931
0.00124872
-0.00118966
4.36509e-05
-7.8686e-05
0.000137154
7.93258e-05
-0.000136672
0.000132304
0.000415726
-5.67983e-05
3.08158e-05
0.000360922
-0.000296542
-0.000400027
-2.83445e-06
-0.000907069
-0.000536107
-0.000328571
-0.000150632
8.86493e-05
-0.000354635
0.000171433
-6.94637e-05
-2.07193e-05
-8.12503e-05
0.000248686
-0.000158929
-0.000208925
-6.26764e-05
-0.000122321
-0.00035101
0.000100423
0.000484807
-4.06293e-05
8.33096e-06
-0.00021947
-0.00105996
0.000306376
0.000445211
-0.000116573
-8.84236e-05
-6.40799e-06
-0.000371411
-0.000251315
0.000520049
-0.00011667
0.000336393
-0.000302462
0.000294397
-0.000265264
1.50959e-05
6.78806e-05
-0.000173171
-0.0001482
0.000609903
-9.27492e-05
0.000105771
-0.000193651
-0.000253118
-0.000791164
0.00101672
-0.000750145
0.000382195
-0.000526666
4.95056e-05
0.0010655
-0.000158719
0.000129732
-2.86617e-05
-0.000583858
0.000804434
-0.000654775
-0.000104502
-0.000168261
0.000102328
7.07398e-05
3.61311e-05
-0.000210868
0.000503847
-0.000428723
-0.000614271
0.000180472
0.000146712
0.000293312
1.97052e-05
3.63447e-05
-0.000109663
0.00121144
-1.43268e-05
9.26954e-06
-0.000685478
4.3566e-05
-0.000900618
0.00060386
-1.67555e-06
0.00012708
-4.55849e-05
0.000290371
-0.000129485
0.00018999
0.000206536
3.36534e-05
7.69227e-05
1.55245e-05
0.000640941
9.77603e-05
-0.000261383
0.000426527
0.000103767
-0.0001956
-4.94772e-05
-0.00028501
0.000118979
-0.000149742
8.39104e-05
9.72363e-05
-9.51697e-05
0.00039273
-0.000489414
-5.15165e-05
-0.000719329
-0.000528407
0.000456571
-3.13951e-05
5.31856e-05
0.00011447
-5.12426e-05
-2.07605e-05
0.000167779
-0.000459045
0.000323394
0.000219704
-0.000129765
2.8376e-05
0.000219347
-0.000172239
0.000180871
-0.00019116
2.65867e-06
-3.43863e-05
0.000931956
-0.000536231
-0.000151672
0.000619297
0.000467864
0.000137163
-0.000230658
-4.31624e-06
0.000409992
-0.00118909
-0.00028086
-0.000177312
0.000528969
-0.000416786
-0.000148149
-0.00055521
0.000477377
-0.00021047
4.45076e-05
-7.9666e-05
-0.000820757
-0.000564239
-0.00125275
-0.000664565
0.00072935
-0.000460138
-0.000145848
0.000242772
8.77028e-05
-0.000184626
0.000229998
-0.000140773
-2.62314e-05
0.000251052
-0.000277941
-0.000188231
0.000514871
-0.000425573
0.000194921
-0.000159463
-0.000608808
0.00100489
-0.00106457
3.43581e-05
0.000391149
-0.000256655
0.000237471
0.000170126
-0.000271607
-3.58587e-05
3.07284e-05
2.71948e-05
-0.000309301
-0.0015267
-0.000365794
-0.00038931
0.000329811
0.00021436
-4.59332e-05
4.89711e-05
-0.000153898
-0.000103773
4.72003e-05
-2.18752e-05
-0.000165448
-7.64055e-05
-0.000245053
-4.6284e-05
-0.000489759
0.000467354
-0.000462576
0.000428303
3.90509e-05
-0.000509321
0.000427365
8.19566e-05
-0.000414573
-4.80036e-05
1.27921e-05
-0.000750537
0.00074906
-0.000543819
0.000553916
-1.0097e-05
-0.000507183
-0.000699245
-5.12922e-05
0.000717913
0.000687625
3.02878e-05
-0.000624072
-0.000438177
0.000548034
-0.000497323
-5.07112e-05
-0.000350651
-8.75255e-05
-0.000262615
-8.80358e-05
0.000205187
-0.000161027
-5.7428e-05
0.000672918
1.47072e-05
0.000692771
-1.98535e-05
0.000714865
2.88412e-08
0.000576509
-0.000380265
0.000129702
-2.0823e-05
-0.000204699
-0.000492583
0.000240387
-0.000297408
0.000151902
1.402e-05
0.000212314
0.000255536
-0.000367601
-0.000772025
0.000266852
-2.03968e-05
6.77785e-05
0.000514288
-0.000633939
0.000464407
-0.000497484
0.000241061
0.000186497
0.000108706
2.36314e-05
-0.000866922
-9.86477e-05
0.000175086
0.000200442
-9.68024e-05
9.29903e-05
-0.000808824
-0.000197766
-0.00151705
0.000619817
0.000315301
-0.00024903
-2.37159e-05
0.000708457
0.000401182
-0.000554638
-3.15109e-05
1.46957e-05
0.0010964
-0.00130535
8.77948e-05
1.47929e-05
-0.000102588
0.00128662
3.70839e-05
7.02089e-05
0.00022873
-0.00022568
0.000166103
-6.2143e-05
0.000286617
0.000453991
-0.000584248
-0.000298467
-7.85011e-05
-0.000245347
-0.00038169
0.000250484
0.000669137
0.000700684
-0.000781796
-0.000271635
-6.98633e-05
4.32637e-05
7.66681e-05
0.000275181
-0.000190491
0.000191276
-0.000553411
-0.000830105
-0.000218592
-0.000125738
0.000254324
-0.000174465
0.000222248
-0.000302107
0.000246932
0.000233761
-0.00022639
0.000199592
-0.000273655
0.000130955
-0.000280123
0.000348463
0.000139131
0.000111998
-4.1824e-05
-2.04677e-05
4.07635e-05
0.000285575
0.000526071
-0.000810582
6.92903e-05
-0.000143056
0.000657889
0.00065554
-0.000188476
-7.34749e-05
-0.000470533
-0.000663203
0.000651825
-0.000188508
1.11968e-05
-0.00101638
0.000815657
-0.000174998
-0.000306094
0.000145785
2.64847e-06
0.000190527
0.000581216
-0.00075609
-6.86599e-05
0.000237483
9.10809e-05
5.90107e-06
2.75657e-05
-0.000634582
-7.39613e-07
-4.10003e-06
-4.01352e-05
0.000456712
0.000131276
0.00045225
0.00047359
-0.000193609
0.000116686
0.0001039
-0.000161206
2.33401e-05
5.6672e-05
-2.27862e-05
-7.31311e-05
0.000384664
-3.63689e-05
6.76707e-06
-0.000597986
-0.00138924
0.00114889
0.000408769
-0.000277692
0.000800879
0.000211452
8.13556e-05
2.77638e-05
8.85953e-05
-0.000241666
0.000289616
-9.50988e-05
3.28807e-05
0.000139141
2.34732e-05
-4.10666e-05
-0.000187102
0.000148085
-0.000206071
0.000169652
0.000749669
0.000520113
-0.000432725
-7.17608e-05
0.000244947
-0.000179431
-0.000350527
-4.01495e-05
2.10861e-05
-0.000331762
0.000315238
-0.000292417
6.80805e-06
0.000573154
-0.000652132
7.21704e-05
-0.000130895
-4.24284e-05
3.74554e-05
1.05972e-05
-0.000319456
0.000226694
0.000281264