/*--------------------------------*- C++ -*----------------------------------*\
| =========                 |                                                 |
| \\      /  F ield         | OpenFOAM: The Open Source CFD Toolbox           |
|  \\    /   O peration     | Version:  v1912                                 |
|   \\  /    A nd           | Website:  www.openfoam.com                      |
|    \\/     M anipulation  |                                                 |
\*---------------------------------------------------------------------------*/
FoamFile
{
    version     2.0;
    format      ascii;
    class       volVectorField;
    location    "0.46";
    object      U;
}
// * * * * * * * * * * * * * * * * * * * * * * * * * * * * * * * * * * * * * //

dimensions      [0 1 -1 0 0 0 0];


internalField   nonuniform List<vector> 
1466
(
(3.94572 -0.165705 -1.44752e-16)
(4.67987 -0.103468 -2.82423e-19)
(-3.59025 0.0298689 4.28855e-16)
(0.380872 9.12365 -3.71537e-17)
(-0.361246 -0.924867 -6.10244e-16)
(-2.15512 0.119713 -8.83735e-16)
(-1.33263 0.523393 1.81852e-16)
(4.22623 -0.296084 1.14972e-16)
(7.20858 0.106667 -8.61072e-19)
(4.71331 -0.160156 1.33483e-16)
(5.8232 -0.222632 -1.80378e-16)
(4.93462 -0.521684 0)
(8.25161 0.061027 0)
(0.114326 -1.48107 -1.39725e-16)
(-1.25319 0.155853 0)
(4.50467 -0.48263 1.39472e-16)
(3.56054 -1.58374 -7.38e-17)
(0.0223124 5.0392 -2.52928e-17)
(0.904983 5.45583 -7.95444e-17)
(0.000764525 7.68734 1.25971e-16)
(0.112424 7.22206 6.03144e-17)
(-2.16098 0.0416963 5.26109e-18)
(0.00447324 6.02866 -5.56353e-17)
(-0.0716207 7.51087 -1.36135e-17)
(8.1006 0.13747 7.27134e-17)
(-0.397873 0.069046 -2.65728e-16)
(-1.4213 0.579085 -1.20415e-16)
(-0.0429891 7.37954 0)
(-1.97043 -0.22022 0)
(4.67915 2.34993 5.01036e-17)
(5.96114 -0.624047 1.19968e-16)
(-0.52884 -0.0367309 1.62922e-16)
(-1.63575 -1.16071 1.77188e-16)
(0.0236614 6.07375 1.36676e-16)
(4.15115 -0.211519 9.22795e-17)
(-0.877233 1.3733 2.00588e-16)
(0.132503 5.52942 0)
(3.29652 -0.7318 -2.24734e-16)
(5.04399 0.179288 -2.64613e-16)
(0.453522 -0.216845 -3.75582e-16)
(-2.82157 -0.0513895 -1.1902e-16)
(-2.97485 0.0180812 -2.97376e-16)
(-3.09378 -0.101487 1.62585e-16)
(-2.7924 -0.170534 1.07215e-18)
(1.4865 -0.194176 -3.7652e-18)
(3.96966 0.0867034 0)
(6.04632 0.1023 6.77132e-18)
(1.81597 -0.104736 0)
(-1.91378 -0.326856 1.23042e-16)
(0.22677 -0.425575 0)
(-1.22581 0.303166 -9.9688e-17)
(4.58927 -0.0649389 -3.37143e-16)
(-2.30016 -0.0866955 5.89066e-16)
(0.306185 -0.52042 5.92203e-16)
(-2.37424 -0.670416 -8.59181e-17)
(6.24727 -0.047047 1.21255e-16)
(4.20035 -0.046775 -1.59956e-17)
(5.72381 0.00962653 0)
(0.0147086 -0.266554 1.09075e-17)
(4.65277 0.0324641 0)
(0.318229 -0.0898934 2.11932e-19)
(-1.78013 0.122616 -9.1932e-17)
(1.12505 -0.542734 1.60121e-16)
(4.06011 -0.187473 1.30925e-16)
(1.35976 5.61713 -1.72007e-16)
(2.55347 0.772811 1.9497e-16)
(-0.388223 1.85996 0)
(0.163013 5.33334 2.55257e-17)
(7.17248 0.506394 2.85045e-17)
(-2.04114 0.210665 -1.5503e-16)
(1.19658 0.73521 1.15102e-15)
(-0.120807 5.84042 0)
(-0.0340027 6.4843 0)
(8.00323 0.207675 -1.50044e-16)
(0.0402639 -0.426493 2.81126e-16)
(5.81623 -0.0694757 -1.1156e-16)
(-1.8807 0.025234 8.08374e-17)
(1.3218 -0.546411 -9.01246e-17)
(-0.624811 -0.111278 0)
(3.70031 0.782441 0)
(4.21004 0.0317623 -1.24121e-16)
(4.73359 -0.360635 -1.70224e-16)
(-1.95318 1.56398 -2.26413e-16)
(0.876747 3.13261 2.58574e-16)
(-0.0846159 5.37551 1.09215e-16)
(0.571603 5.52484 4.31807e-17)
(-0.0563156 7.27176 0)
(3.49248 0.266492 1.63149e-18)
(4.83199 0.112764 2.46531e-16)
(-0.205654 0.466396 -3.02986e-16)
(-0.152978 0.0682501 -9.48349e-17)
(-2.08756 0.377325 -2.15406e-16)
(0.514191 7.39882 -3.99024e-17)
(2.88412 -0.793187 -1.58366e-16)
(2.40815 -0.241832 0)
(-3.07444 -0.362138 -2.85481e-16)
(4.47796 -0.124414 2.95103e-16)
(6.09821 -0.0333241 -7.02544e-18)
(6.41428 -0.125861 3.02862e-16)
(-0.869709 -0.341406 8.81638e-17)
(-1.84172 0.260891 4.88644e-16)
(-0.595074 0.0177122 0)
(1.79431 -0.0504882 3.44373e-16)
(-1.10613 -0.526568 3.20263e-16)
(-3.00525 -0.157225 -1.217e-16)
(4.46823 0.281891 5.47237e-17)
(-2.38963 -0.164089 -2.22386e-17)
(1.20353 -0.353832 0)
(5.14996 -0.418541 1.71596e-16)
(3.88813 0.0398455 5.64422e-17)
(0.160345 -0.0408585 -2.69132e-16)
(4.58801 -0.0933512 3.64109e-17)
(3.09476 -0.362387 -2.66361e-17)
(-3.22554 -0.0123846 -3.74644e-17)
(4.15829 -0.336859 0)
(0.458597 0.0694576 8.76369e-17)
(-2.80123 0.162452 1.3803e-16)
(3.67665 -0.0416356 0)
(-1.97519 0.271146 1.23055e-16)
(0.886312 -0.563809 -5.82952e-16)
(0.0711315 8.57923 -2.97515e-17)
(-0.625082 -0.357641 2.53177e-16)
(1.75641 -0.604006 -8.47183e-16)
(-2.56985 -0.257435 0)
(1.77336 -0.130767 -6.74133e-16)
(-1.06865 1.20584 -4.7706e-19)
(6.32941 0.956042 4.59988e-17)
(-0.269485 5.61123 -6.13448e-17)
(0.0102751 7.51278 2.08605e-17)
(0.786219 0.46341 1.74724e-16)
(4.91234 -0.0205612 2.01776e-17)
(-2.42998 0.18012 0)
(-0.165153 6.1529 3.84982e-17)
(-0.10522 7.62787 2.83074e-17)
(-0.0978126 -0.0265013 -1.54241e-17)
(-2.33921 0.0898167 0)
(-0.392215 -0.34279 0)
(1.47444 -0.749026 -9.16417e-18)
(-2.6387 0.0786479 -7.5468e-17)
(0.348279 -0.433712 2.17887e-16)
(-0.973 -0.354185 0)
(-0.0157945 7.37218 -5.90545e-17)
(-0.0511945 6.64497 -2.58364e-17)
(0.341927 5.06952 -2.22361e-18)
(-1.58923 -0.515016 -2.1778e-16)
(0.907986 6.20344 9.06877e-17)
(-0.528497 -0.0396321 -2.80074e-16)
(0.48166 0.0805679 -4.43637e-16)
(1.4595 0.689632 -6.89941e-17)
(-0.995233 -1.013 1.12916e-15)
(-0.0521909 0.0468649 1.76793e-16)
(3.33391 -0.115948 -5.69134e-20)
(6.76936 0.819081 -1.37588e-19)
(1.31401 0.485068 0)
(1.50557 0.688888 0)
(-2.10506 0.132162 2.04207e-16)
(-0.0701606 7.41385 -1.40292e-17)
(-0.136182 8.17515 -1.25612e-16)
(-0.254248 0.0180661 1.05888e-15)
(5.38035 3.68953 6.61777e-17)
(-0.510389 0.00137183 1.23359e-16)
(5.26328 1.29047 0)
(0.542992 2.86416 7.55676e-17)
(0.0355865 6.74332 -4.00781e-20)
(2.58052 2.52566 0)
(-2.65999 -0.236901 1.36924e-16)
(0.00882619 6.73788 0)
(-0.223344 4.7247 1.86671e-16)
(0.0148546 6.38072 -2.87194e-17)
(1.9369 8.71992 5.56528e-17)
(-0.0343366 6.4789 1.97009e-16)
(-0.444309 0.0822029 -1.18763e-16)
(0.675129 -0.279426 5.02016e-17)
(7.08181 0.662565 -1.48864e-17)
(3.84958 -0.00802498 -2.30538e-16)
(7.50082 0.136495 -2.89651e-16)
(5.03136 2.91568 1.59961e-16)
(3.53307 1.63943 -7.32714e-17)
(0.0094922 0.000531785 -3.62307e-16)
(0.932875 1.047 -2.41751e-16)
(8.52338 0.153605 3.53273e-16)
(3.90111 -0.130726 -2.38554e-17)
(-0.0313483 4.55796 -1.82631e-16)
(0.834776 0.15377 2.87527e-16)
(3.75193 0.181593 -4.13196e-17)
(0.199677 5.25789 -2.98237e-18)
(0.00695891 5.32771 -1.08471e-16)
(1.94081 4.41352 -1.43063e-16)
(7.01634 0.333216 7.04587e-17)
(-0.710791 -0.343599 4.40496e-16)
(-0.0161696 6.58158 -1.32369e-16)
(0.369335 -0.166966 1.90849e-19)
(0.951105 4.54461 6.37397e-18)
(0.742373 5.8788 2.34652e-16)
(5.74619 3.22528 -3.92344e-17)
(0.279423 0.0886322 0)
(-1.48871 0.417971 3.13791e-18)
(3.32907 1.12749 -3.53702e-16)
(1.30052 2.19832 -2.57257e-16)
(1.62015 5.58697 -4.78459e-16)
(0.712762 3.66355 0)
(1.09071 0.540303 0)
(5.27437 2.15459 -1.81979e-21)
(0.279108 2.39379 0)
(1.34536 0.54824 2.00333e-16)
(1.66003 1.75193 -1.83565e-16)
(0.560902 6.56269 -1.05868e-16)
(6.64627 3.57156 0)
(-0.0980984 0.0897029 1.34746e-16)
(-0.00485149 7.60391 1.73318e-19)
(0.53771 5.84947 7.447e-17)
(-0.0298583 5.355 -1.03161e-16)
(-0.249735 2.26155 0)
(-0.0532344 6.90844 1.43733e-16)
(0.247247 7.0136 -3.7274e-17)
(0.0408632 6.59966 5.83068e-19)
(0.0158889 5.26894 3.02692e-18)
(0.150923 5.09316 -9.73284e-17)
(3.54311 4.00448 1.43014e-16)
(-0.0229177 7.18103 1.957e-16)
(-0.292599 5.25117 -1.41997e-16)
(0.488467 0.0135583 -1.22905e-16)
(0.102173 6.34076 -2.05368e-16)
(0.542777 0.123075 2.42149e-16)
(0.0711581 6.30779 8.88772e-17)
(3.50193 3.49261 -1.50277e-16)
(-0.906217 -1.37707 4.83102e-16)
(1.03031 0.871219 -2.50839e-16)
(-0.038602 0.0658139 -2.92684e-16)
(0.455366 -0.021517 -3.35104e-20)
(0.692648 0.277531 -6.11797e-16)
(4.02635 0.082847 2.22882e-16)
(0.961671 4.80127 1.16065e-16)
(0.501397 3.32608 2.00322e-16)
(-0.938373 0.791485 5.39493e-17)
(2.0676 1.28317 -7.22724e-16)
(-0.0239717 6.65091 3.78885e-17)
(0.00471478 4.86454 1.77369e-17)
(0.551515 0.269821 2.45226e-16)
(-0.00080029 6.2652 2.50102e-17)
(0.241578 1.66091 0)
(4.09399 0.726645 4.67864e-17)
(5.61149 3.07208 8.52085e-17)
(2.21191 4.15343 2.15245e-16)
(0.0897834 0.198737 0)
(5.67791 1.18489 0)
(-0.497409 -0.0262248 0)
(8.40181 0.327326 0)
(2.81826 0.798787 -1.22878e-16)
(5.86883 3.52831 -7.75225e-17)
(-0.0269166 5.88273 -5.52162e-17)
(1.15103 6.05649 -2.44635e-16)
(6.82315 4.15706 3.26647e-18)
(3.61591 -0.843767 -1.0764e-16)
(-0.531922 0.0529941 3.02412e-16)
(0.319961 0.0207261 -2.75789e-16)
(-0.128929 7.63768 0)
(8.76353 3.90284 -1.83271e-16)
(0.0866027 3.7096 -7.19332e-17)
(-0.080287 2.27897 1.16204e-16)
(-0.000656636 -0.572561 0)
(-0.208874 6.25881 -2.44537e-17)
(-0.0992429 7.67963 -3.57769e-17)
(0.480152 -0.0630698 1.62431e-21)
(4.23724 3.76738 1.04439e-17)
(0.61999 -0.073581 -3.13729e-16)
(4.05321 -0.0746145 2.34526e-16)
(1.4792 0.756825 -1.219e-16)
(0.474254 6.40138 -1.91608e-17)
(9.09414 3.5342 -8.79091e-17)
(1.68791 3.95267 -1.26519e-16)
(0.0502379 3.77328 0)
(-0.26481 -0.642086 6.9509e-18)
(-0.0378547 0.10899 -1.73026e-16)
(-0.182368 -0.00981347 -3.88775e-16)
(0.717422 0.17295 4.66578e-16)
(0.1978 0.0866353 -2.53505e-16)
(2.65835 5.2263 -1.25952e-16)
(-0.0570838 5.97187 -1.30752e-16)
(1.91615 0.83164 1.88172e-16)
(0.332295 -0.0437358 2.2166e-16)
(1.81194 -1.06477 2.48237e-17)
(2.43135 3.68104 0)
(5.13982 0.515341 -4.18383e-17)
(0.0603085 -1.62341 4.71628e-16)
(0.570245 -0.654761 -1.71093e-16)
(2.53354 1.24812 0)
(2.60606 1.22817 -3.38878e-16)
(-0.20593 0.0290758 0)
(7.71234 4.01091 -2.90521e-16)
(7.51431 1.16712 1.48811e-16)
(3.19041 -0.118546 -2.15712e-18)
(8.44411 0.117161 -3.71083e-16)
(-0.167071 -0.0773885 0)
(3.79395 5.72308 1.09551e-16)
(0.953723 2.32373 -3.87551e-16)
(0.173608 3.74081 1.27263e-16)
(0.239017 -0.948641 4.27168e-17)
(2.45418 1.20318 8.33186e-17)
(0.295256 -0.042912 -2.70244e-16)
(0.488208 -1.33011 0)
(-0.847973 -0.0258947 1.88694e-16)
(-0.469954 -0.233118 0)
(8.6128 0.386457 -2.23863e-16)
(-0.00958935 8.13128 0)
(1.33066 1.36989 1.01466e-16)
(0.212088 -1.01008 1.38374e-16)
(1.25263 -2.0497 -2.05652e-17)
(3.16189 8.27148 -2.79254e-17)
(-0.0627471 6.89326 7.17352e-17)
(6.91198 1.8691 1.62077e-16)
(-0.407162 4.25379 0)
(0.0225771 6.77893 -6.91189e-20)
(2.99514 0.344037 -1.49314e-16)
(3.74827 1.83969 -1.98308e-16)
(4.76595 2.84099 -2.97541e-16)
(-0.119264 0.0421092 0)
(5.22213 3.49461 2.23797e-16)
(0.633232 -1.12047 0)
(-0.676734 0.196731 3.134e-16)
(0.0233691 -1.32625 0)
(0.0561394 3.84632 -1.33778e-16)
(0.0683057 1.77439 -7.24192e-17)
(0.182058 -0.0221969 3.46725e-16)
(-0.108396 8.28909 -2.0195e-17)
(7.67983 5.16574 -9.08627e-17)
(0.532741 -0.531133 -8.7882e-17)
(4.7738 3.68675 -2.2446e-16)
(-0.0960763 -0.0427164 -2.83031e-16)
(3.0141 0.114358 1.78593e-16)
(0.0321033 5.53263 1.012e-16)
(7.74889 4.58556 5.51356e-16)
(-2.00745 -0.481932 -3.41143e-16)
(3.49552 7.07923 2.37231e-17)
(2.35075 2.67541 -1.63043e-16)
(7.0134 1.73284 6.78676e-17)
(2.41916 1.41093 -4.2606e-16)
(0.589314 0.167855 4.28278e-16)
(1.58524 -0.607515 -2.17586e-16)
(-1.36414 -0.776955 -1.6402e-16)
(2.02897 -0.0676445 9.11001e-19)
(6.4103 3.13103 7.22102e-17)
(2.71362 -1.87294 3.52159e-17)
(3.17549 3.22854 -3.52975e-17)
(1.5357 8.67314 -6.07011e-17)
(-0.696881 -0.148815 -9.46316e-17)
(5.39115 0.414813 -1.96544e-17)
(3.82281 5.99823 -8.26505e-17)
(6.71453 0.207031 2.61983e-17)
(2.79266 2.23149 1.77604e-16)
(6.17565 4.50403 -2.10826e-18)
(8.41807 2.71023 -5.15306e-17)
(0.0423621 10.2152 -6.30469e-17)
(0.854643 0.916834 1.29385e-17)
(-0.796937 -0.908054 0)
(0.969684 1.60703 2.29638e-16)
(-0.170125 4.39849 -1.92566e-16)
(3.47348 0.445016 6.33371e-18)
(9.34982 2.46943 0)
(3.45835 7.27608 2.49697e-17)
(-0.325312 -0.308034 0)
(1.34072 2.88674 1.08273e-16)
(1.90203 4.89594 1.12025e-16)
(-0.0833544 2.50028 0)
(0.428972 -0.63639 -2.94333e-16)
(-0.0542844 1.90102 3.39499e-19)
(6.98186 2.92284 5.77047e-17)
(7.16862 2.49262 4.99929e-17)
(-0.992275 -1.99868 1.67464e-16)
(2.75666 6.79783 4.06657e-18)
(2.9726 8.76392 0)
(0.751561 2.4144 1.14966e-16)
(1.35206 2.89146 -3.41983e-17)
(2.96481 8.28863 -3.29566e-18)
(0.100468 -1.14379 5.64542e-16)
(0.126004 4.3673 4.18775e-17)
(3.00567 -0.537201 -2.63479e-17)
(1.20568 5.27137 7.61104e-17)
(1.97246 -0.881304 4.85451e-16)
(3.97973 4.5623 -8.87351e-17)
(0.440333 1.29091 1.10415e-16)
(0.949148 1.60407 -3.54373e-16)
(0.500167 1.92639 -2.07437e-16)
(0.485308 2.47242 2.87554e-16)
(0.648745 2.52777 0)
(0.82125 2.14681 1.65877e-16)
(1.80681 -2.29131 -1.74254e-17)
(0.90382 -2.59068 -1.80678e-16)
(0.626986 -2.28583 1.54803e-16)
(0.448293 -1.49076 -4.22361e-17)
(-0.0428925 -0.631881 2.26404e-17)
(0.38779 0.881497 5.90969e-17)
(-0.296681 1.25736 -6.25202e-17)
(0.0712969 0.714528 -7.26478e-17)
(-0.608255 -0.343154 4.4373e-19)
(-0.340976 -0.716912 1.34325e-16)
(0.433302 -0.724933 -5.70484e-17)
(1.19981 6.95 -3.0802e-17)
(-0.493166 -0.197993 7.21078e-17)
(-0.528211 -0.595728 0)
(0.362971 -0.163681 -2.0776e-16)
(0.531428 -0.121568 2.38564e-16)
(1.4909 8.75959 0)
(-0.838824 -0.732512 2.58382e-16)
(1.11273 9.59951 -2.04921e-17)
(-0.0771932 -0.140666 6.32141e-19)
(1.52942 7.55852 -3.26477e-16)
(-0.273777 0.51813 -1.2181e-16)
(2.26172 -0.348905 0)
(1.51862 -0.0898803 1.06771e-16)
(-0.0457887 0.41625 -1.47042e-16)
(1.27831 6.67606 -1.46285e-16)
(1.00113 3.40145 2.62026e-16)
(0.733989 -0.144918 6.06755e-16)
(2.74866 1.43014 -1.17242e-16)
(-0.433509 -1.64364 0)
(-1.21328 -1.05678 0)
(0.909852 0.934428 1.35489e-16)
(0.17151 0.196352 0)
(1.62568 0.0506387 0)
(0.20837 0.159724 -1.80734e-16)
(-0.554242 0.0862438 3.97292e-16)
(1.2242 0.0947815 0)
(0.955955 4.41009 1.07181e-16)
(0.181295 0.204443 1.24681e-16)
(1.61674 -0.540791 -1.20531e-20)
(-0.302384 0.561369 4.37634e-16)
(2.03871 0.44051 2.69855e-17)
(-0.384402 0.386395 -6.74384e-16)
(1.70032 -0.563893 3.16735e-16)
(0.587209 -0.0796005 0)
(-0.33741 -0.506158 -2.36127e-19)
(-0.389873 -1.04744 5.65543e-16)
(-1.63493 10.0949 1.89248e-17)
(2.10468 -0.0237323 -5.00482e-16)
(-0.117067 -0.852921 -4.16943e-16)
(0.219055 -0.486308 7.95825e-17)
(0.0144149 -0.868726 -7.7695e-17)
(0.290472 -1.27446 3.12509e-16)
(-0.0269409 -0.121918 -3.69635e-16)
(0.0944547 -0.119775 4.91591e-17)
(0.318229 -0.47507 -1.01942e-16)
(0.844341 -0.26296 2.74511e-16)
(-0.317601 -0.0952107 0)
(1.28398 -0.0212969 -3.0206e-16)
(1.48771 -0.245162 1.42433e-16)
(8.45092 0.0770788 7.87296e-17)
(2.12923 -0.0895369 0)
(1.6608 -0.457965 -8.35003e-17)
(1.63543 -0.414992 1.61927e-16)
(2.49951 -0.139064 2.6868e-20)
(2.49548 -0.663885 -1.02343e-16)
(-0.0582902 -0.497068 -4.8935e-17)
(8.64891 0.123201 3.58418e-17)
(-0.155685 -0.254544 -2.69207e-18)
(-0.121798 -0.519445 6.03566e-18)
(0.769098 1.46197 0)
(-0.923914 2.18386 0)
(-0.0552108 -0.627712 0)
(1.4116 -0.0816102 2.65858e-16)
(-0.420472 -2.07756 -4.44061e-16)
(-0.226911 -0.683211 -2.734e-17)
(-0.262202 1.84157 -1.74666e-16)
(-0.206893 3.05092 4.91489e-16)
(1.01034 -1.00604 2.19643e-16)
(1.21027 -0.836122 -1.32082e-16)
(0.74392 2.11324 -1.24075e-16)
(-0.0227768 -0.586482 -4.23483e-17)
(0.617367 0.0584406 -8.0549e-17)
(1.11003 1.91171 6.54828e-17)
(0.200465 -0.341895 1.77097e-16)
(0.554146 1.72865 -2.03732e-18)
(-0.565218 -1.37834 -6.07833e-16)
(0.734724 0.91943 1.05661e-18)
(1.01497 -0.0893522 1.53148e-16)
(0.162169 -0.875964 1.38999e-18)
(1.74669 -0.0783357 -1.86739e-16)
(0.449128 2.86924 0)
(0.482957 2.35282 0)
(1.34536 1.18506 -9.03075e-18)
(2.46939 7.42613 -9.00695e-17)
(0.223675 5.84573 1.68342e-16)
(0.268699 8.60717 -1.1787e-16)
(0.443881 2.76036 7.93783e-17)
(0.853022 1.56302 -3.12349e-17)
(6.73339 4.69425 -1.7903e-16)
(0.176149 -1.14502 -1.53673e-16)
(1.74692 0.275378 1.79366e-16)
(0.55 2.46946 -1.07838e-16)
(1.53388 5.12995 1.04193e-16)
(0.780226 1.06637 1.34692e-16)
(-0.0444662 7.46024 3.70904e-17)
(1.70401 -1.72702 -1.65019e-16)
(0.447518 2.13096 1.22895e-16)
(0.57374 2.32893 0)
(0.272432 1.89263 2.97261e-17)
(0.212115 3.77538 0)
(0.469773 2.72692 6.33784e-18)
(4.4764 2.7302 0)
(-0.192003 2.04102 6.31233e-17)
(0.406512 2.97311 0)
(0.212812 3.69295 0)
(-0.201776 3.19056 -1.75057e-18)
(-0.125575 -1.3234 2.56425e-16)
(0.297455 1.48925 -2.36337e-16)
(-0.0357504 3.45434 0)
(2.25191 7.92314 0)
(1.93618 -0.0683763 2.21059e-16)
(1.2933 -0.978962 1.06748e-16)
(0.289293 2.94671 0)
(1.69214 -0.0429248 2.79739e-16)
(0.81193 2.07345 -1.45169e-17)
(0.0550168 2.42322 5.23201e-17)
(-0.642417 9.23515 -6.51984e-17)
(0.218839 3.79961 -8.63908e-17)
(-0.176388 2.38424 -9.65183e-17)
(0.151243 0.0830734 -3.15658e-17)
(8.70039 0.127736 -3.33335e-16)
(8.05764 0.235823 8.39723e-18)
(2.85082 -0.915398 4.84178e-16)
(0.329284 3.21909 -4.49049e-18)
(1.71093 0.264182 2.68088e-16)
(0.067252 4.34343 6.11961e-18)
(5.67665 4.77254 0)
(0.65699 2.53239 0)
(0.964848 1.26007 4.20241e-17)
(0.984141 0.498278 0)
(0.246553 -0.94781 -4.24136e-16)
(0.508186 1.21904 -5.92803e-17)
(0.34994 3.17645 -1.02999e-16)
(0.488561 -0.586279 1.97636e-16)
(-1.15675 10.1311 -2.18861e-17)
(0.242597 0.838298 -2.53168e-16)
(0.196403 1.90254 0)
(0.260777 2.79442 0)
(0.486946 0.334063 -5.79904e-17)
(5.16003 6.09836 0)
(2.28236 6.53875 0)
(-0.111485 -0.0912609 0)
(0.332347 8.38949 -1.23567e-16)
(6.65158 5.40477 7.21307e-17)
(-0.676206 -1.13381 -2.48397e-16)
(0.411573 1.61277 -2.25771e-16)
(-0.263582 1.39607 1.7301e-16)
(0.184844 1.06802 7.65936e-17)
(4.41068 7.06587 -3.24937e-17)
(0.0120401 0.857617 2.30733e-18)
(6.45797 6.12171 -3.79475e-17)
(-0.233928 6.40793 -4.43158e-17)
(1.27557 -0.0128025 1.23028e-16)
(2.22735 -1.24142 2.00283e-16)
(0.48897 -1.09966 8.3636e-17)
(1.48166 0.843077 -4.05147e-17)
(0.329649 2.78944 -9.69227e-18)
(-0.764053 9.65477 2.65426e-17)
(0.28552 3.42342 1.53559e-16)
(0.309886 3.05544 -1.12271e-19)
(-0.22794 1.18803 2.70902e-17)
(2.01522 -0.274707 1.29357e-16)
(7.32785 5.74349 -1.61778e-16)
(0.237608 3.55742 1.26699e-17)
(-0.384383 -0.478058 1.96283e-16)
(0.72186 -0.0462319 2.83937e-16)
(4.28946 4.68245 2.70862e-17)
(8.1258 0.320783 -2.90555e-16)
(-0.44753 0.434672 6.49184e-17)
(0.254171 2.02732 7.59093e-18)
(-0.0194278 4.69748 -1.1744e-17)
(2.54813 4.85827 5.90541e-17)
(0.051554 5.04793 8.54175e-17)
(-0.0827671 8.25151 1.84327e-17)
(-0.0476817 5.01256 0)
(0.742118 0.4035 0)
(3.80011 1.97644 4.77561e-16)
(1.08502 1.66472 -6.08916e-18)
(-0.35582 8.75013 4.89697e-17)
(8.57014 3.51957 -3.96895e-17)
(0.136369 4.18647 2.26114e-17)
(0.262966 2.82578 -1.29467e-17)
(4.99765 -0.631696 2.51167e-16)
(1.24017 1.74424 -5.20362e-17)
(0.0319114 5.26976 -3.98887e-17)
(0.205292 3.57759 9.26692e-17)
(0.110806 3.27654 -1.45893e-16)
(0.0122935 1.36684 2.00502e-16)
(0.936308 2.15226 5.9434e-17)
(-0.00286846 8.84471 7.5007e-20)
(8.83319 1.81945 1.08821e-17)
(0.37152 2.08097 -1.78583e-16)
(-0.433618 0.348395 -1.04305e-16)
(-0.0190517 7.51739 -7.2788e-17)
(5.40243 6.82636 0)
(-1.26429 -1.38293 0)
(0.215274 3.47149 -9.59754e-17)
(0.218254 6.44342 2.14777e-19)
(-0.0112181 6.74437 2.92819e-17)
(1.53751 5.30249 7.39379e-17)
(-0.483013 10.4224 4.99071e-18)
(1.63827 1.43466 2.21686e-18)
(-0.32192 8.54005 1.56423e-17)
(4.21525 2.33002 0)
(8.38284 4.63187 -5.27595e-18)
(8.16405 4.28247 -7.77908e-17)
(3.62835 8.02247 3.1005e-18)
(0.853218 3.58251 -7.08068e-17)
(-1.02475 -1.05485 -1.76268e-16)
(1.72807 -0.0228806 -2.02704e-16)
(1.09946 0.264012 -1.19971e-16)
(-0.852051 -0.947456 -1.00861e-16)
(0.23847 3.21764 0)
(0.528867 1.53969 6.93221e-18)
(0.51744 6.92762 0)
(6.22448 6.23601 0)
(5.71684 5.20075 4.06271e-17)
(0.311496 7.271 0)
(5.69003 3.9014 1.0643e-16)
(4.05898 2.10363 -1.29177e-16)
(5.4376 5.75813 4.80854e-17)
(7.2317 1.34072 0)
(-0.184519 9.05564 -6.71385e-18)
(4.24204 7.56028 1.12606e-17)
(0.453754 -1.25415 3.16538e-16)
(1.02963 -0.0533943 -1.46243e-16)
(7.18174 5.35142 2.22754e-16)
(7.07597 0.100953 -5.52702e-18)
(0.25339 3.36661 9.78903e-17)
(-0.347344 7.62783 9.54017e-17)
(-1.15599 -1.38817 1.02131e-16)
(-0.739356 -1.22061 -1.73308e-16)
(0.123049 4.58564 0)
(1.24868 0.664682 -4.66699e-17)
(7.48705 3.46225 1.05121e-16)
(7.2659 1.67074 -1.08462e-16)
(7.50414 4.65794 6.2959e-17)
(0.162346 4.04107 -4.78964e-17)
(8.8795 2.83788 5.63481e-17)
(-0.429265 9.11773 -5.57109e-19)
(-0.269582 8.77047 -2.12504e-17)
(2.7562 1.10346 3.85026e-16)
(0.107959 8.89722 3.64482e-17)
(-0.227706 6.67607 4.48483e-17)
(0.455025 8.68068 2.89512e-17)
(0.174215 10.5302 5.23645e-18)
(0.606571 0.129868 2.09793e-16)
(0.0533802 4.76625 -8.25069e-17)
(8.04547 5.10532 -9.46261e-17)
(-0.767554 -1.61211 1.00962e-16)
(-0.042539 4.50326 0)
(-0.027329 10.6332 2.352e-18)
(4.89187 6.75277 -2.37846e-17)
(0.187903 3.94288 -4.4344e-17)
(8.51228 0.370084 4.06776e-16)
(3.9508 0.317458 2.4197e-19)
(-0.220766 -1.44464 2.41553e-16)
(0.0840364 0.43301 2.15746e-16)
(0.0653691 4.29385 1.61775e-16)
(1.19367 -0.951411 1.49305e-16)
(-0.176556 7.38631 1.05366e-16)
(-0.0883925 -0.0525467 3.59146e-16)
(9.22009 1.15353 6.73743e-17)
(0.196942 4.04059 -7.54376e-17)
(4.48657 0.00477962 4.88509e-18)
(0.13531 -0.837754 4.24596e-16)
(8.48793 4.09997 0)
(0.64898 0.559368 0)
(0.404444 0.253068 1.63891e-16)
(-0.334496 3.937 1.00364e-18)
(1.86442 0.687046 0)
(2.73859 -0.323171 0)
(2.08717 -0.876161 0)
(1.30524 -1.40241 -3.91386e-17)
(0.493075 0.142416 5.59189e-17)
(2.2997 -1.33312 0)
(0.966809 0.436239 8.0873e-16)
(-0.72376 -0.912998 -8.82759e-16)
(0.160547 -1.732 1.29936e-16)
(-0.298325 0.0654564 -2.72775e-16)
(-0.527974 -0.175683 2.46244e-17)
(3.72125 0.0515518 8.71162e-17)
(7.9396 3.00937 2.6191e-16)
(0.0324922 8.83056 3.50203e-18)
(-0.577994 -2.04137 -1.76482e-17)
(-0.531393 0.00510358 8.56166e-16)
(-0.0442414 -0.60624 0)
(-0.255624 0.0958357 -3.77775e-16)
(0.416192 -0.00981102 2.70201e-16)
(0.455393 0.184982 0)
(-0.674051 0.04729 2.0836e-16)
(1.88144 0.908523 9.51192e-18)
(-0.571812 0.0400016 0)
(-0.0176386 0.344953 1.11725e-16)
(8.02078 2.43376 -3.83818e-17)
(8.42985 3.59649 -1.76134e-16)
(1.91438 9.15359 -1.15834e-16)
(-0.0526122 0.117795 3.65887e-16)
(-0.732219 0.0466473 -7.21532e-16)
(1.67904 9.73616 -6.74155e-17)
(1.44381 -1.45891 -9.57136e-17)
(0.697004 0.189004 -5.57077e-18)
(0.261597 3.09394 7.94364e-17)
(-0.0195292 6.00528 1.24994e-16)
(0.216407 0.144416 0)
(-0.621261 0.0430801 1.93087e-16)
(-0.091761 -0.0401515 0)
(0.210858 2.6712 0)
(-0.103095 2.24823 1.13291e-16)
(1.15763 0.313706 -1.73533e-16)
(-0.0331592 -0.719384 9.24319e-17)
(-0.790558 0.0410013 3.48516e-16)
(0.135059 2.0604 -9.87072e-17)
(0.154959 1.46565 0)
(0.174788 4.204 9.04476e-19)
(3.26751 -0.475733 2.52341e-16)
(-0.0653339 10.3486 1.93677e-17)
(-0.209856 6.8756 4.59009e-17)
(0.0162387 8.79553 1.08295e-16)
(4.21227 1.30236 -4.91239e-17)
(-0.0821781 3.43237 -1.1484e-19)
(-0.375728 -1.28983 -1.49177e-16)
(1.58341 0.595182 -1.16956e-16)
(6.49324 -0.0777553 5.98794e-17)
(3.3653 -0.406125 -1.65979e-16)
(-0.573536 0.0447047 0)
(0.180873 3.4916 0)
(-0.258791 7.61415 0)
(-0.00465968 5.88764 2.33465e-16)
(0.078525 8.87254 -2.114e-17)
(1.55721 1.08235 0)
(0.600807 -0.507803 0)
(-0.848903 -0.092936 5.61946e-17)
(0.838213 -1.61967 8.02245e-17)
(0.252696 4.98414 1.50973e-16)
(-0.201392 -1.35357 3.43353e-16)
(-0.541431 -1.37673 0)
(0.967015 -0.49407 -4.76046e-17)
(3.09184 1.89931 6.676e-16)
(-0.0633723 6.95412 -2.62614e-20)
(-0.289869 8.74403 0)
(-0.674215 0.580812 -2.28301e-16)
(-0.110013 6.1282 4.1211e-17)
(0.098453 5.07652 7.405e-17)
(1.65856 0.0158168 1.11754e-16)
(0.149451 4.25583 0)
(-2.04008 -0.0149987 1.3143e-16)
(2.05746 -0.303657 4.75329e-16)
(0.402183 0.410444 2.8774e-16)
(1.44522 0.174228 0)
(0.0350782 -0.81728 2.79327e-17)
(-0.109525 1.45532 -1.16994e-16)
(5.95891 1.06572 -9.83652e-18)
(0.0629255 8.82535 -1.15107e-17)
(4.71016 -0.851624 -3.06643e-16)
(-0.426648 0.0501815 1.45384e-19)
(0.464928 0.533688 1.45553e-16)
(0.0954362 6.00425 2.17899e-16)
(2.39564 0.36125 -1.1184e-16)
(1.21883 5.79896 1.18139e-16)
(0.13136 8.90476 0)
(8.32282 0.901155 -1.19515e-16)
(0.149427 2.51971 -8.71882e-17)
(-0.0815936 5.3528 5.46644e-17)
(0.338751 -0.501787 1.88277e-16)
(0.992152 0.227988 -7.84365e-20)
(3.3218 1.30148 -4.18279e-17)
(0.429615 3.61394 -5.0429e-17)
(5.47714 2.65856 0)
(-0.0256769 7.32049 -1.91081e-17)
(2.63664 2.96428 0)
(1.12417 -0.978456 0)
(-0.031455 5.07884 1.84306e-16)
(1.81255 -0.0183525 -7.62153e-17)
(0.158378 0.251887 2.82332e-20)
(1.57251 -0.734974 2.17199e-16)
(-0.17266 -0.137517 1.68272e-16)
(-1.00752 0.363706 4.61857e-19)
(-0.00367732 4.98159 -3.00198e-16)
(4.02486 1.88594 2.87116e-17)
(-0.408955 0.0692373 3.88305e-16)
(1.49437 1.48437 1.52195e-18)
(1.26583 6.25211 1.61953e-16)
(0.284601 -0.130139 0)
(-0.664913 -0.682074 3.3792e-17)
(-0.0295578 7.28712 2.53556e-17)
(1.81566 -0.163477 -2.06415e-17)
(-0.268015 -0.708829 -6.96791e-17)
(0.0273323 -1.70717 -2.09166e-16)
(0.243235 0.103676 3.43061e-16)
(0.171588 4.536 0)
(-0.104718 3.07617 5.47871e-17)
(2.22196 8.04655 -1.3854e-16)
(0.993448 0.928576 1.243e-16)
(0.507089 0.0293475 -4.17032e-16)
(0.0482899 5.19176 0)
(0.113477 -0.439128 -4.65887e-16)
(2.78209 -0.0926197 -1.00336e-17)
(8.15227 1.4668 -6.0187e-17)
(-0.377434 7.87853 7.71515e-17)
(5.76606 -0.086817 8.27728e-18)
(-1.32452 0.0213008 -2.07486e-16)
(1.70715 0.986208 -5.03664e-17)
(-0.612921 -1.20839 -2.53251e-16)
(-0.286807 -0.861009 -1.62866e-16)
(-0.0441823 6.31427 7.84268e-17)
(-0.721139 -1.81459 -2.33343e-16)
(5.7574 2.59771 1.94782e-16)
(0.729336 -0.186316 -3.57854e-16)
(-0.088412 -0.681584 1.82617e-16)
(8.30766 0.495583 8.01673e-17)
(-1.63921 0.23195 3.41568e-19)
(0.219364 8.90346 7.5087e-17)
(-0.0238123 7.03226 4.31704e-17)
(-0.193576 8.23846 -5.63096e-17)
(-0.222992 5.45844 3.77261e-18)
(-0.00867041 7.56955 8.42034e-17)
(1.24194 0.378329 -1.07924e-19)
(-2.34715 -0.96836 1.69573e-16)
(1.03182 -0.218333 -7.80257e-17)
(-0.0322152 7.33794 0)
(-0.188334 -0.0047281 -1.84846e-16)
(-0.42179 8.7709 -4.70828e-17)
(4.43734 0.60977 -6.84511e-17)
(-0.0667573 3.92435 2.60376e-19)
(-0.25235 0.491829 -2.98334e-16)
(2.59617 1.0872 -9.79458e-17)
(1.55269 -0.604822 1.533e-16)
(0.542197 0.0863216 1.4674e-16)
(0.088128 3.32038 0)
(8.59104 1.41613 0)
(8.04611 1.04877 4.40219e-17)
(-0.122672 5.43954 0)
(3.29195 0.824143 0)
(2.01777 0.712193 -2.04927e-16)
(-0.0605772 0.50774 0)
(1.50612 -0.318074 9.47872e-17)
(4.19556 0.113643 1.30783e-16)
(0.00123797 0.722782 6.76234e-19)
(-0.933278 0.670125 -1.01494e-16)
(-0.508966 0.0507098 -3.93116e-16)
(-0.074726 -0.278357 -2.0623e-19)
(-0.260796 -0.10739 0)
(-0.315298 0.522947 -6.76609e-17)
(-0.00636572 5.08174 8.4703e-17)
(0.138624 3.87362 2.47199e-17)
(3.45905 -0.177185 -6.62744e-19)
(0.639241 -1.10088 0)
(2.00633 8.46207 2.76712e-18)
(1.65759 0.142522 -1.52095e-16)
(-0.0675615 6.66001 1.423e-16)
(4.33386 -0.0498923 0)
(-0.725411 -1.15929 -6.2202e-16)
(2.9755 -0.985089 1.66042e-16)
(5.47537 0.305753 4.03484e-17)
(0.413049 9.35503 -4.74927e-17)
(0.691867 1.79095 0)
(-0.293539 -0.360656 1.38486e-16)
(1.14813 0.11608 6.22567e-16)
(2.61588 0.377068 -9.20653e-19)
(3.98157 0.0961565 4.3712e-16)
(3.11324 0.0853235 5.86798e-17)
(-0.300898 10.2499 -9.5417e-17)
(0.528939 2.87903 -3.09637e-16)
(0.0139079 5.59563 -2.88775e-16)
(8.53157 0.231179 6.40054e-19)
(1.90477 0.075137 -5.19439e-16)
(-0.267905 -0.0696318 -1.22044e-17)
(1.08656 -0.212801 1.81987e-16)
(0.30299 9.37877 5.14897e-17)
(-0.421114 7.57379 -1.82184e-16)
(2.94011 -0.0525907 2.32086e-16)
(0.425622 2.38861 5.91122e-17)
(-0.335318 0.350176 -7.82949e-17)
(-0.689281 0.0597787 5.07084e-16)
(-1.03038 -1.0396 -9.18955e-17)
(-0.154194 0.0546562 -6.55422e-17)
(0.46014 1.95563 -1.1663e-16)
(2.22051 0.581387 1.65865e-18)
(0.0477025 4.16615 0)
(0.0797666 6.72329 0)
(0.0529982 6.6189 0)
(0.0639609 6.70934 -3.43663e-17)
(-0.118116 6.40896 2.1229e-17)
(0.011503 6.43521 0)
(-0.115098 6.70792 0)
(-0.0519541 6.35882 0)
(0.100161 7.13274 -7.97886e-17)
(0.0621942 6.01139 0)
(0.166246 5.77638 0)
(0.153744 6.83314 8.05205e-17)
(0.0265357 7.18532 0)
(-0.0316798 7.15156 -3.67329e-17)
(0.18719 6.48807 1.96045e-17)
(-0.0385211 6.04016 0)
(0.302917 5.27542 -1.00574e-16)
(0.213548 5.70184 -3.7797e-17)
(0.214734 6.10851 2.30091e-17)
(0.45251 4.50101 1.12402e-16)
(0.552447 3.51844 3.44109e-17)
(0.649718 1.72831 1.8665e-17)
(0.60612 2.59053 -2.03578e-17)
(-0.0499302 7.11563 3.8252e-17)
(-0.0492142 7.11469 0)
(-0.035288 7.11691 0)
(0.011803 6.65081 3.42585e-17)
(4.59089 -0.0743477 4.27841e-17)
(8.22393 0.0233758 -2.36255e-18)
(-0.878987 -0.0262551 -2.95338e-16)
(-0.600442 -1.56857 -8.49297e-17)
(1.07492 0.89366 -1.73225e-16)
(-1.41434 0.588706 -1.98353e-16)
(2.81636 -0.598177 2.25965e-16)
(0.586324 -1.10182 2.25778e-16)
(-1.69286 0.0153031 0)
(-0.142746 6.42375 -1.47454e-16)
(0.19084 5.73178 -6.7918e-17)
(0.00774112 5.63227 -4.31697e-17)
(-1.35865 0.296534 -4.12093e-16)
(1.21245 0.191426 0)
(8.62288 2.16769 -1.02471e-17)
(0.380595 -0.609328 -1.4892e-16)
(2.72374 -0.0681066 1.37149e-16)
(-1.23172 -1.15372 7.78357e-17)
(1.40673 -0.0519675 8.26372e-16)
(0.243705 8.42207 9.84853e-17)
(3.07633 -0.0841774 0)
(2.23285 9.58129 3.10723e-16)
(-0.0774269 5.32022 0)
(-1.87038 -0.233534 0)
(-0.0329559 7.15441 0)
(-1.91627 -0.261636 6.28856e-17)
(1.83176 -0.404957 1.41195e-16)
(8.75059 0.906828 -2.59918e-16)
(-0.882031 0.0377591 -2.02641e-16)
(8.63949 0.567393 -7.90849e-17)
(0.211903 1.55504 0)
(1.70601 0.119939 0)
(-1.65088 -0.940074 -1.07097e-16)
(-0.098405 7.40001 1.61417e-16)
(-0.906785 0.82371 0)
(1.82915 -0.454983 -2.56441e-16)
(0.484001 0.303088 0)
(-1.92661 -1.20575 0)
(-0.00774399 0.152531 3.64797e-17)
(4.44643 0.263556 5.80687e-19)
(-0.0640671 7.07756 -3.84401e-17)
(-1.40768 0.221276 -3.15064e-16)
(1.12515 -0.605554 2.44654e-16)
(2.65184 0.150759 -1.48924e-16)
(-0.0367381 5.12608 0)
(6.81748 0.161646 3.22718e-17)
(8.29067 1.89189 0)
(2.11046 0.863317 -3.44957e-16)
(1.51962 0.362693 -2.72078e-16)
(3.1616 1.02968 -3.16841e-16)
(0.825829 0.315267 -1.85527e-16)
(3.12158 1.26082 -1.53976e-16)
(0.815564 -1.34546 -5.33936e-16)
(-0.273819 -0.181151 -1.3403e-17)
(1.73214 -0.151001 5.54284e-17)
(3.06291 -0.0879326 -1.23529e-17)
(4.27696 0.290733 1.54209e-17)
(-0.145022 5.70954 8.91929e-17)
(4.62769 2.4024 2.70247e-16)