/*--------------------------------*- C++ -*----------------------------------*\
| =========                 |                                                 |
| \\      /  F ield         | OpenFOAM: The Open Source CFD Toolbox           |
|  \\    /   O peration     | Version:  v1912                                 |
|   \\  /    A nd           | Website:  www.openfoam.com                      |
|    \\/     M anipulation  |                                                 |
\*---------------------------------------------------------------------------*/
FoamFile
{
    version     2.0;
    format      ascii;
    class       volScalarField;
    location    "0.3";
    object      epsilon;
}
// * * * * * * * * * * * * * * * * * * * * * * * * * * * * * * * * * * * * * //

dimensions      [0 2 -3 0 0 0 0];


internalField   nonuniform List<scalar> 
5794
(
8.19079
2.15535
4.49714
27.4107
17.1166
6.50656
6.06245
48.0919
126.556
12.6809
38.1586
1.45396
5.39708
5.32958
7.82415
0.448788
164.813
2.1943
6.33257
0.899208
73.3004
8.7987
14.1519
2.6428
29.0405
125.661
122.985
35.2972
88.8192
1.89044
14.119
4.86594
25.6703
1.22969
36.3658
12.166
4.4206
1.31197
49.9351
10.6218
36.4232
4.12789
9.32044
7.28694
8.08463
51.5993
5.50457
13.9608
6.64285
16.1825
0.523534
74.6405
14.1061
6.0189
0.137285
51.9564
7.93585
16.151
5.47224
265.453
56.5474
1.49337
10.363
6.40952
31.6865
0.971327
32.2249
13.608
1.38736
2.22346
90.4052
52.2514
110.684
2.37622
1.65302
49.2962
19.4851
81.979
7.15305
0.319508
3.8692
1.63707
26.8066
18.7166
4.83161
61.7405
32.4423
83.4811
7.51538
15.5838
122.439
43.7859
72.3107
125.709
44.8477
89.8019
88.531
57.2046
40.1926
62.178
52.7831
2.08304
7.07639
3.88612
9.92073
47.2126
0.981086
10.1129
57.7504
7.43066
1.14079
21.0688
60.2514
0.597592
52.3116
93.3006
4.07575
109.928
51.4782
21.9503
74.6028
8.62469
2.05537
42.2909
14.2066
50.8955
5.26676
5.14545
85.9909
15.2676
2.47153
7.88976
4.83219
68.4381
55.2039
8.6524
119.081
1.51029
0.213504
3.38094
5.46168
30.4177
19.8912
13.1497
0.703389
173.353
27.7225
41.5007
9.77762
32.572
12.5181
3.50506
49.8956
1.79544
156.364
6.34168
23.3955
5.79521
79.2333
1.37548
9.68815
10.0012
1.26843
11.5125
77.2148
103.211
15.9636
5.91045
0.928961
28.3663
2.68785
37.7447
10.0748
36.5256
2.12845
11.913
5.73232
30.559
1.9516
111.863
1.70595
11.9122
11.6837
70.2651
7.87083
106.698
2.78325
13.4968
9.45226
1.98046
48.4173
6.52297
33.2444
14.5022
7.06524
2.45787
42.6417
18.4866
6.58811
6.72708
8.16071
83.6794
12.564
6.78113
5.90322
60.0301
16.7375
25.7017
9.41026
61.8517
8.63421
10.3167
8.23242
15.9083
1.74727
34.6141
12.4676
4.26559
30.9434
89.2708
9.85742
51.2265
166.757
64.7306
133.218
38.0229
2.62597
20.4325
6.55455
5.6104
23.088
47.021
1.81948
45.39
1.18395
22.0633
16.7424
28.8018
6.34183
2.65792
2.03595
68.6012
48.3039
1.76277
1.29134
1.90392
10.5537
5.78807
156.327
79.3218
33.2979
0.761731
166.61
0.422323
4.90848
19.7825
6.62819
15.6792
23.5037
12.9475
68.6705
8.20687
12.3196
0.626845
22.946
39.771
22.991
73.6865
12.9317
59.1381
5.26678
12.7981
31.8534
91.4974
16.3679
5.1232
5.74091
4.19407
0.580012
8.04131
30.672
86.9943
38.9175
4.46994
14.0853
119.309
32.1253
48.6809
136.493
64.8222
15.3111
48.3837
1.60407
7.88729
4.8283
108.566
72.7562
4.60882
28.024
0.541058
2.24332
55.5474
3.05846
58.411
5.09345
77.1309
0.404186
1.20203
65.1073
5.34828
13.0436
44.6121
70.212
0.494469
9.83606
34.7723
14.1359
32.1128
59.2065
133.573
38.2261
7.91409
96.8421
11.0131
0.349613
30.2011
3.41448
1.77463
5.1385
35.6448
99.5637
8.57476
10.7893
21.8644
4.40057
11.8554
15.5289
1.13686
7.44777
6.754
2.10992
32.5724
110.705
17.8185
5.83635
8.57129
107.396
18.3229
123.231
1.46746
70.4924
132.978
49.411
8.96569
14.2232
73.4749
6.72126
96.9694
6.52598
42.5109
19.4911
0.987484
92.0404
5.56394
38.064
5.40737
87.3121
64.5081
7.83364
19.6136
3.61127
1.3167
5.97702
0.372008
27.7129
63.4697
51.0559
10.2618
25.4668
0.11846
21.7471
3.03806
12.5086
11.2519
21.5629
1.27417
93.9052
7.11023
15.7288
18.0165
5.21847
69.2687
1.96885
18.5014
6.90115
50.1032
2.08557
5.3652
7.9545
11.4471
1.96506
28.2057
41.3103
1.27034
21.6856
39.3374
12.4951
8.12937
0.928912
78.2434
54.8773
30.7485
35.218
35.6357
77.0106
6.87853
12.5213
2.02891
66.9979
86.815
38.5822
54.8919
20.5154
4.18802
9.62827
22.0143
1.65098
0.66205
1.00818
5.5092
73.4859
5.76572
16.8532
88.943
7.12478
6.8414
5.37855
7.11649
9.43064
15.1161
1.49235
8.124
7.9658
1.85565
3.69477
102.777
50.0344
0.190111
6.82524
72.2137
16.8665
0.900811
109.848
9.65048
83.1112
0.691748
80.434
111.29
43.1554
175.586
7.44193
0.866357
21.9776
2.73494
68.7159
14.4746
30.988
21.9093
17.4934
6.66384
0.323453
13.4199
54.1537
7.42759
14.9623
91.5335
37.7681
36.3905
2.42627
0.960493
31.7485
6.44386
7.21316
5.53862
17.6735
34.2153
10.2372
5.5
97.1492
5.3381
1.24318
60.6487
87.8127
6.20169
20.2303
1.83802
2.68831
3.03002
0.450485
34.0361
15.1489
28.1159
8.55022
22.2046
11.0804
1.03158
3.25128
26.0918
42.3478
0.808394
84.8444
0.289671
22.2554
0.365451
0.300455
49.3446
83.0143
0.290653
5.56472
39.0684
5.33102
0.738798
19.0198
76.7221
13.1485
2.69586
3.86695
50.6373
0.812201
11.3113
25.1327
0.409966
29.8117
2.30769
5.2368
15.0779
6.61441
146.262
12.9487
54.4175
6.06732
108.821
0.943671
5.7279
3.97188
0.353437
5.53468
13.3601
0.4088
5.24334
4.27325
0.237456
7.26084
4.68788
4.22307
26.0218
21.7868
10.8589
0.882692
18.625
242.034
1.84896
55.5104
5.31791
5.2887
2.75601
0.569814
13.0847
4.39642
0.773713
76.7209
36.7062
72.2437
95.9433
102.657
9.03187
20.6981
20.2982
3.93549
83.6134
96.498
34.9018
116.009
29.4932
124.608
46.8852
0.654562
69.8668
29.2941
93.6112
0.789709
3.42547
1.56046
112.838
34.863
41.6126
0.103151
9.33915
0.338419
14.1629
2.17383
86.9674
34.3798
125.361
0.492159
8.34219
168.763
14.0822
0.184291
3.35599
19.9977
24.7915
6.66212
10.2489
1.4992
6.9152
30.1809
35.1421
7.28906
2.17936
1.36282
42.3274
62.8432
16.6738
1.30751
3.16078
1.12836
19.6419
91.5892
0.591705
5.06598
1.41965
0.837865
4.15038
0.802495
6.8129
80.8596
26.452
5.75103
25.7932
3.73924
7.84943
30.2223
30.5888
120.399
164.211
39.0802
48.7125
0.786144
0.952679
3.42892
3.7146
1.86007
6.65971
3.51316
77.2869
52.2006
6.95414
54.1401
5.12307
0.15666
8.25348
8.06133
47.987
1.05328
44.8977
160.384
121.582
34.5548
50.2388
30.4482
5.49666
41.1334
34.92
51.4388
34.4714
133.297
4.82185
8.01232
2.56224
2.17516
35.3471
5.21155
0.335578
27.1274
131.706
153.105
2.8538
0.938914
0.187478
6.65487
211.582
73.5482
44.2339
7.39522
46.4587
22.3505
1.74829
1.13814
9.83346
6.24082
6.02856
0.513344
15.9429
17.9825
152.946
10.4021
6.17489
1.24712
137.365
17.9221
201.626
46.7171
104.241
44.2214
16.2389
8.70532
82.9301
45.8161
60.5713
49.7901
93.6902
146.646
3.06005
16.7815
5.77886
12.5946
28.2749
111.393
37.9513
47.5181
51.0272
149.836
26.3867
7.66436
6.29977
97.4365
11.6902
42.7707
66.2083
105.43
1.58979
2.04227
9.93581
5.49253
106.201
27.78
131.46
15.0499
8.99775
3.08142
3.45085
4.69241
0.507506
39.0194
112.866
5.12138
134.635
44.9198
7.64331
2.42355
24.6355
93.4446
40.7933
164.496
118.389
34.5981
56.557
5.85286
62.7575
29.6938
88.1554
17.5048
1.39114
9.07935
1.77947
2.31384
3.70782
15.9753
6.10646
29.6675
64.0528
18.0703
9.98233
0.784196
98.3286
33.6068
26.9969
105.133
34.0115
0.47812
85.7742
84.6204
33.3778
8.72139
33.7182
0.994451
160.917
6.87782
81.7277
9.71062
15.9485
6.66569
0.216468
2.83918
6.11789
29.405
57.1383
79.9689
226.769
46.7163
4.57463
5.53238
29.805
189.999
2.62232
0.891569
11.77
81.452
0.96649
8.8378
20.5843
41.3298
34.0167
0.519127
17.4414
4.23808
7.41173
6.25482
29.7902
77.3681
88.3536
9.33462
2.72494
101.218
7.4094
5.40008
115.958
4.18117
3.0193
8.70194
0.90929
21.926
2.15831
25.4833
0.253651
5.86298
5.66358
10.7475
27.646
33.2142
135.49
52.6545
33.3154
71.063
38.3415
38.3231
39.9431
0.242433
1.41297
5.17646
21.2217
6.21708
5.00966
199.422
52.5579
90.2786
17.9698
3.8856
6.61077
0.368407
14.1552
49.7188
6.30317
283.495
3.23344
2.59409
65.6228
14.649
6.4237
1.91967
1.6762
15.4601
6.5463
1.11275
2.46633
50.9314
75.689
7.96337
10.0985
33.2739
6.45149
37.4881
150.427
103.821
95.2886
15.4931
4.11247
1.10086
17.7407
0.691829
0.200498
0.810271
5.81697
23.6905
1.35388
7.36876
0.683194
13.9956
87.1044
6.0695
8.19729
8.06569
16.5575
39.5695
48.9497
81.6133
6.30198
0.714179
39.274
11.6737
36.9416
7.59358
107.202
59.6417
60.9682
4.18511
102.965
93.8112
8.44409
7.28956
8.30438
7.66472
1.99199
73.8146
8.37324
58.3009
85.0604
37.1875
54.2937
52.549
10.6762
0.931106
8.2782
8.03272
0.670677
15.6841
28.7309
150.676
6.95545
105.326
76.9654
0.992177
9.48551
23.4301
40.1852
10.0461
6.55571
23.0196
73.9401
7.08459
21.1622
1.61757
7.63981
1.65033
1.22305
1.31995
3.93447
0.221852
0.782999
0.886178
2.20745
7.9724
8.98648
5.35548
1.05951
0.688851
65.4277
9.72017
89.3873
3.77699
39.9003
0.843585
42.4429
4.77834
6.58326
2.76061
16.598
47.4568
2.27083
10.0009
6.59053
0.186942
9.2336
73.1319
21.5258
23.3779
202.743
0.254108
11.0674
29.0122
14.6044
22.5181
36.6253
49.4659
104.877
3.68308
4.95376
0.688444
0.709684
17.7755
10.8647
134.743
97.1607
109.272
0.405203
39.7244
126.92
66.0971
56.7652
41.4583
1.152
11.6454
0.769228
36.6569
11.0265
12.3439
4.56253
3.0804
4.40448
4.81784
10.0259
70.1861
1.7269
5.06103
14.4152
25.5799
12.2534
1.14008
8.20757
41.3574
0.467529
7.4253
3.62101
7.27674
17.0122
0.383763
32.0743
1.28285
10.3781
21.5884
2.28208
21.8049
8.9641
0.485358
4.77538
12.4465
0.167296
98.2619
20.7901
2.77692
0.889037
17.9009
0.107265
0.868908
10.3735
2.33191
0.111347
1.52497
27.7147
9.61642
69.4212
24.4805
8.31463
122.549
34.6629
0.121267
1.76681
10.3481
4.14667
27.6022
69.7572
0.134142
23.594
0.341573
14.1267
1.31575
59.2091
2.36949
17.587
63.2504
0.618691
36.3101
3.07004
0.157709
6.769
6.20099
30.8025
33.9868
0.615827
38.2213
0.494145
0.666393
17.8032
0.897194
5.81599
9.09376
5.20497
24.0858
6.13367
92.9959
0.585747
1.77202
0.8789
4.49885
2.9537
17.4426
4.98973
28.8103
7.75076
19.0421
24.326
5.50908
1.11422
5.66326
13.2193
17.1727
8.87513
7.11105
126.26
94.8175
61.5589
19.5695
112.778
8.3439
8.3786
12.0375
3.92765
2.80983
0.209709
701.509
40.5172
0.32467
6.3835
58.7117
54.9784
8.75445
2.55022
2.98215
33.4146
12.602
1.56852
20.1159
6.91042
66.8726
3.64003
15.1661
2.37583
0.295624
7.88543
5.66758
2.94693
31.7628
0.82062
48.8739
11.1902
22.5048
12.5184
31.4767
4.31578
21.0205
9.25474
17.8096
11.5114
4.39913
5.63713
6.74598
19.1494
9.51578
5.65581
1.14755
3.67258
18.5578
3.96784
20.3266
60.2269
7.4643
7.87973
6.55075
6.67602
6.65754
38.2239
19.0799
11.1242
22.5285
0.140794
11.4611
1.10201
188.597
0.386981
0.132276
7.37814
1.4578
1.02515
53.3221
6.14323
5.85592
3.20673
3.29063
36.435
202.927
83.7484
1.65677
1.99404
2.50178
3.63091
59.9825
25.6973
6.24122
8.62207
0.559226
7.14864
7.52033
7.85705
44.2765
7.76442
7.47701
34.9108
8.01083
0.670518
29.3063
94.5615
32.3601
15.6646
12.7755
4.54432
0.634715
31.4405
22.0728
3.9647
69.3113
0.708947
0.591506
39.8096
9.99164
47.0195
0.127601
13.0965
56.5504
0.20597
0.286925
2.96517
0.957303
1.53482
8.54608
5.79697
33.018
0.297417
2.69809
43.3308
119.818
13.711
11.3557
28.5358
4.4261
95.0106
0.328983
2.06876
106.929
24.6882
67.5355
11.8236
19.6653
36.8641
35.0969
6.86272
13.3155
0.47182
13.4367
0.171251
8.34814
6.55056
5.19599
9.07727
13.0388
5.01151
14.6901
17.6042
0.172117
1.26623
7.3989
18.8247
0.170353
8.36715
66.7563
9.36077
51.7612
43.4211
10.533
1.42726
148.864
0.320346
31.9396
13.7537
3.8374
13.3991
1.88531
16.9744
0.61031
13.9897
0.379033
13.9732
0.131844
8.55862
25.8463
42.3334
7.76928
43.0185
30.8175
6.87343
8.85289
0.675001
29.3738
5.35223
11.5506
106.958
4.95245
0.343297
6.48237
34.3834
36.5309
154.622
79.1437
59.2207
74.4925
13.4491
0.219088
4.90435
22.584
4.41682
75.8137
0.284178
0.252386
2.63566
16.0185
0.254962
5.56273
15.5263
2.00057
3.46931
7.44879
5.51228
1.31598
7.6069
16.4969
33.106
19.068
0.432193
31.9693
36.7577
3.291
18.2896
3.11446
59.9119
0.208915
1.37961
0.367451
7.89839
367.463
11.3889
47.1572
25.8519
67.9356
106.567
17.0311
19.653
0.55006
0.739767
0.308001
0.192495
11.4803
7.37014
0.722756
11.5415
0.183519
0.618496
3.50939
15.1025
1.93051
1.24486
0.168899
8.39875
7.84769
0.889215
10.5113
3.38933
0.436127
1.38152
0.123167
0.329141
22.8118
3.1604
5.85816
0.435068
2.42933
14.3478
3.5909
0.902594
0.407593
0.553061
0.528372
0.343156
17.211
0.71201
0.133635
3.78292
0.572043
3.3572
18.6401
1.30011
7.18358
21.9099
0.154858
2.54237
40.4905
113.37
17.6452
1.08493
0.165411
16.8527
1.87581
25.1552
94.1613
189.559
17.8119
122.454
32.3886
0.12359
0.121703
0.20477
4.36314
5.60251
30.9442
0.169142
4.877
7.15447
3.68296
19.5994
7.33115
12.9022
20.2634
11.57
256.173
3.39504
10.9306
10.0967
11.8223
40.2231
6.6047
74.076
4.25393
29.4087
16.2111
9.33018
8.51587
9.81559
11.499
13.906
617.05
2.96022
3.57267
1.00492
2.81487
9.41112
10.6418
69.3782
2.76462
0.814108
0.25319
9.18702
14.1675
0.384678
9.44419
0.16293
0.733835
2.72166
0.22575
16.5924
3.58925
0.235228
19.1434
4.50412
12.981
3.39965
1.35227
0.975749
0.890676
0.480444
20.6112
0.660457
42.4829
70.5322
8.47484
18.3697
14.1939
13.9163
5.55083
0.243696
58.8026
19.1103
10.5556
42.1913
6.12563
16.6817
0.158043
6.20435
33.8591
7.37088
31.4261
109.501
14.1461
0.150146
18.2378
33.2442
4.17173
20.8752
13.2687
57.9806
0.579881
4.45496
0.35435
5.28738
4.55266
4.07717
12.2101
0.200548
149.973
0.226167
117.853
2.45272
0.325168
0.114883
78.9964
0.263256
0.426659
6.17902
3.74619
143.108
10.741
70.3912
22.2895
5.34865
14.1999
26.9795
1.32742
9.12118
7.53243
89.2523
42.2005
16.7873
0.988453
58.2116
7.00533
9.97709
10.2554
3.10856
0.15258
6.2089
10.6243
0.758191
5.53776
3.30337
0.111241
6.19678
123.561
122.817
12.808
7.08033
83.4195
0.124611
8.24903
15.1785
4.23097
7.09001
44.2659
3.83309
65.8692
0.13978
12.3307
6.93399
3.33724
7.71306
23.2776
7.96679
13.2959
4.83599
0.609889
0.636443
2.40427
20.5281
4.09664
6.31872
215.782
61.2548
41.3649
37.5318
16.9159
25.7893
24.5548
92.0217
46.3259
12.8664
44.3869
5.89741
36.9618
148.376
106.704
8.25481
67.5225
33.7442
16.8724
9.71914
1.46986
41.9317
51.5016
10.0935
68.9446
19.2181
110.137
22.1756
7.29446
74.539
4.69419
13.6109
45.1167
0.537135
1.05749
15.3384
67.2667
1.19198
0.465788
10.2299
35.1331
33.5376
35.2729
19.8058
36.7912
35.5539
33.7074
5.53029
37.494
37.4549
34.6555
19.4093
35.7338
19.8122
53.0967
38.0299
53.3591
6.48913
5.23589
3.05278
42.3113
3.48879
4.78268
7.48615
2.72763
0.231262
9.50859
14.701
17.465
8.32564
0.830188
2.59943
72.1238
16.4994
57.371
31.2597
17.0073
2.43647
8.53516
7.54022
24.1265
6.6568
108.789
8.16094
5.24642
7.10373
5.66083
0.327348
66.6197
0.505783
16.4968
4.45375
0.292103
4.21966
2.96382
4.13973
3.22169
3.08911
3.39883
76.4027
3.69741
5.0791
5.97144
5.45472
50.1104
134.369
3.86884
93.2876
24.8726
5.50819
154.238
2.77243
7.19233
131.621
23.1451
109.87
5.19826
7.41665
130.537
136.434
72.475
5.6596
5.39566
8.51037
6.38456
9.55824
116.992
4.20079
3.98342
38.493
2.87622
5.83537
6.78981
8.23402
48.4863
34.5894
7.15948
110.075
104.117
8.68235
110.26
4.03833
43.4623
8.35309
4.41337
143.059
10.6729
105.908
9.40263
48.5891
2.26744
76.2144
103.092
12.9645
100.689
60.0808
5.38048
10.6286
54.0467
15.8394
8.31662
61.4612
9.39487
64.9533
43.1685
37.1464
8.81553
44.2913
7.15244
135.148
5.49422
1.27741
9.93887
217.125
1.409
8.44245
0.406913
33.2268
23.3528
5.20632
8.10585
3.80263
4.60805
1.73149
4.96851
5.76691
7.20327
8.05967
5.31425
6.93841
1.30548
12.1923
50.8738
17.3477
17.118
4.91255
4.2279
5.97859
4.86382
5.56755
27.5619
10.2263
11.0075
0.243231
9.50777
10.2198
63.3668
5.14602
4.50274
10.3195
14.6754
3.39822
6.81957
8.16004
5.37074
3.79007
4.88305
22.8843
6.31756
4.99368
45.8365
6.81368
8.96561
7.33726
1.59382
7.68366
22.8689
18.47
3.55818
3.68643
4.22453
5.16647
5.59364
13.8802
21.2484
2.11253
10.2563
5.27668
3.17178
1.80593
2.38583
21.913
21.6843
22.6144
21.7876
3.5148
4.81524
6.16872
21.4175
20.1015
4.52127
0.530835
8.78073
0.942157
0.43652
10.406
6.48181
65.0681
10.1644
18.3439
4.00906
5.53323
2.48807
30.4193
65.6577
5.79966
26.0519
3.1724
23.6008
43.611
1.91586
13.3354
0.834143
25.3029
0.529272
54.1332
21.9451
5.92286
30.2596
17.8161
22.9415
8.73955
0.772758
0.612836
36.0052
5.95346
22.5001
34.2198
45.9372
8.92984
0.673917
0.543117
76.6624
13.0415
7.48117
37.919
81.6535
6.49443
23.0176
16.2193
59.6029
9.68132
4.22089
17.6752
14.7547
14.4494
47.8152
1.2086
77.5135
12.6025
47.5862
60.3503
10.9415
0.875816
0.514032
2.91696
13.3233
139.611
34.2641
75.5792
0.429239
58.1574
39.5332
2.93223
5.54277
4.29758
2.82918
13.833
39.4241
55.2083
60.0084
1.14466
11.927
54.0511
24.1741
26.6655
74.1882
7.16768
55.3012
7.03824
18.3848
169.106
11.3998
5.77234
15.5068
12.7586
10.6815
15.0852
5.6493
21.0028
11.7794
78.7194
31.228
47.9193
9.51399
0.922145
0.517434
34.4622
75.1005
7.88538
35.5416
73.6457
81.6877
115.559
8.14575
12.5045
11.4832
9.88545
0.404847
43.657
3.17416
58.7973
102.055
4.82975
9.21666
196.111
13.1314
7.17895
46.2082
31.1934
20.3187
21.0766
4.51583
138.132
67.755
1.13577
39.7413
7.02758
2.66583
19.6994
13.8783
7.65272
17.3072
7.04031
8.26449
48.5978
15.3472
1.17313
0.481754
81.3218
122.338
12.4214
12.3113
180.875
167.527
21.8642
5.28955
91.3085
9.38787
12.2717
13.5506
0.296867
55.6263
3.43829
3.23202
6.7143
166.552
88.2712
99.158
5.02914
178.718
90.12
53.9947
4.46535
13.1818
5.11999
11.3724
5.96779
7.24849
7.49846
3.8561
16.0458
68.2614
6.06704
6.59849
24.07
19.1102
21.1437
33.3366
19.0578
34.0399
4.74429
43.3524
3.15488
0.763076
151.149
71.2719
34.2669
55.6953
80.3545
35.4941
4.22751
5.39512
4.97385
9.04311
6.60447
9.93608
1.0227
0.443203
2.48664
1.71226
1.49677
77.3108
118.073
13.6836
46.8315
8.57232
24.2619
3.41125
17.2593
10.4744
2.5132
8.6426
1.97879
8.60811
6.42296
83.0002
19.6334
11.3301
0.27853
68.0148
4.01218
3.11409
21.0711
40.4511
108.302
8.43879
14.9742
11.7661
121.306
12.9688
13.3505
0.27316
0.264449
9.5585
8.75533
24.8076
6.34885
0.516835
0.777615
26.4719
4.43028
11.3885
147.023
2.91782
20.6466
7.76561
8.39956
3.93578
60.1807
168.404
43.9529
1.61927
2.51543
32.6109
70.3708
6.947
18.669
8.09887
3.40586
12.6046
4.61769
0.386241
9.49431
6.20428
0.20286
7.69604
2.89046
7.05017
8.71711
3.78807
20.4441
3.87976
14.1842
16.9364
4.26603
2.98998
36.808
2.21938
5.54798
12.1745
15.0343
8.13691
31.4247
115.218
10.8086
53.7604
4.9184
192.638
26.838
77.0752
0.384926
31.9932
4.84157
35.5548
6.45105
0.373104
122.517
7.2415
23.7498
4.45136
13.1299
11.1362
5.34028
88.3781
64.1491
1.20514
6.38979
6.48606
21.7807
15.5853
1.16432
0.497451
19.2125
25.0518
13.9199
7.50899
1.01068
161.569
53.0497
196.882
161.802
16.4367
61.864
14.142
3.05898
31.5684
15.5127
3.41072
17.7446
20.7679
1.68517
11.6412
38.178
128.531
76.016
8.63545
13.7492
57.0563
5.00823
7.98091
1.71596
5.5735
129.193
9.03571
20.7932
79.3565
122.824
23.4791
2.71579
4.85578
68.5681
14.8007
12.8423
34.0496
15.6563
32.3302
4.43466
25.0766
76.4977
148.233
11.2907
5.89859
1.67248
0.363378
39.1216
22.1641
9.06032
141.27
86.4393
365.33
2.84461
10.2652
13.8744
19.4191
3.70702
179.309
48.0252
0.753862
0.358131
9.06842
0.194072
2.23551
29.2082
63.3992
26.0856
72.0843
45.4991
68.6739
5.34756
17.2411
142.78
21.5767
22.7573
574.58
4.82319
7.0476
37.804
140.668
19.5771
28.2758
54.9752
4.73402
2.40239
38.3465
5.83693
15.7303
50.0058
0.518593
14.0545
2.49853
64.2358
7.6653
61.7
6.02004
18.4034
13.116
73.7283
16.7449
94.9063
1.60414
181.882
4.36493
6.33892
7.91083
1.30371
2.86329
78.7216
8.57895
54.2062
6.90769
79.3474
171.318
6.23464
28.5902
5.69163
5.16934
15.3557
0.192512
22.4364
52.6802
6.26783
5.04694
39.9916
71.1791
20.9145
72.5806
3.7199
57.775
5.62706
111.558
6.57944
7.28799
0.22258
10.618
12.9841
41.8199
6.25802
22.7231
95.4706
10.3557
6.37155
110.528
4.00357
2.62124
53.2069
3.4559
3.13735
4.14657
11.9445
30.8804
3.91379
35.3156
81.8066
0.640928
24.5738
17.547
29.4774
62.1975
5.56149
49.1969
22.662
9.55303
13.725
10.6346
9.38109
6.06969
0.865082
0.465222
18.116
84.791
4.25618
8.34609
99.6237
7.85828
20.8502
68.2338
4.65785
4.97058
4.61643
67.6797
4.95432
0.756963
1.37272
11.1834
27.8049
11.2991
4.51427
3.05306
86.7622
29.4794
5.66234
37.8373
138.332
90.7293
34.0342
76.2109
0.407786
51.7885
84.8954
10.5439
0.984655
0.474231
1.13622
3.797
5.00917
54.7856
1.54425
37.8147
4.50166
7.3589
17.029
14.7788
5.68017
77.406
2.9549
29.0476
67.593
25.9128
3.80635
14.7402
0.884322
0.51774
42.9559
13.6395
18.2025
98.8536
15.341
32.3804
248.996
52.3083
31.5297
0.452182
96.3945
0.146734
6.93972
65.7069
28.1493
8.97386
3.66631
8.13486
17.016
56.1801
0.354236
1.7053
9.21348
57.0788
7.80198
4.33887
4.27036
22.3675
44.3391
31.1558
2.04071
49.0039
83.2897
126.927
32.1977
4.4685
5.00535
36.416
22.7417
56.645
2.89308
7.65843
6.32258
21.1255
0.940719
4.04794
18.7519
10.4162
40.6348
0.140824
7.78105
125.136
31.2958
1.45958
10.4683
9.53915
4.1701
53.3789
27.4235
3.48902
2.33183
0.365671
0.546045
11.2332
5.82371
116.404
0.617022
22.1551
10.847
24.1697
0.936193
14.39
9.32736
104.851
11.1177
0.647371
0.468285
6.99209
30.8849
4.4523
2.9076
0.103915
11.7745
2.44841
0.665753
4.17976
9.47529
5.91517
23.8433
20.3584
6.28116
35.0123
4.57902
12.7215
2.52731
0.331893
2.05236
3.58033
3.37084
6.68932
2.08131
36.1828
3.63965
32.9198
17.1525
3.16771
6.35382
7.94396
44.9531
16.9168
3.78978
10.6397
0.744242
0.487794
4.66413
0.668778
29.4629
237.791
7.54254
2.32459
1.40254
5.28179
0.138534
27.6152
5.9024
96.1302
27.8777
4.34723
114.875
0.305662
2.7627
5.30237
43.5537
2.90712
158.05
2.53494
22.6638
0.661978
6.82095
2.43223
3.72338
9.80056
21.2297
22.9702
7.52092
1.67117
3.92733
0.197164
10.5536
4.54435
12.6007
21.0843
59.8957
5.04129
16.6277
24.1407
4.97999
12.3344
4.30564
30.4255
3.72175
12.5149
34.7083
43.1478
10.9962
0.657837
3.10099
0.302196
2.34502
9.76825
1.01633
6.3818
5.46689
95.9991
7.59291
20.3861
11.1869
8.4954
33.2973
12.2666
22.4262
13.3283
4.48806
3.87035
12.9959
7.23628
11.8074
5.38272
5.73245
20.9136
0.119827
3.84531
11.5493
0.452887
6.38338
0.65863
0.282831
0.892032
0.111086
20.6431
0.330797
2.7157
2.50193
8.69593
5.33709
0.457891
1.35832
39.311
8.11345
13.6855
28.7292
13.406
14.9943
3.67679
76.5296
51.7437
8.92372
139.116
12.1332
1.89973
92.7255
153.65
38.5573
0.452102
0.475214
0.29981
0.351339
0.511548
7.65043
18.9931
87.8062
0.299151
0.414533
2.47097
9.67665
9.95621
7.69279
0.174114
0.139596
54.3409
10.1225
29.2575
56.5119
5.19635
11.9151
29.1715
24.1229
76.0435
0.232932
14.027
25.1608
15.3543
40.6251
4.32801
0.251917
3.65827
18.8347
8.83337
0.784055
6.93843
0.667653
6.5719
6.31476
6.63609
5.22578
0.263189
6.2812
3.57634
99.8859
0.875905
2.70638
0.12974
4.99826
21.5962
3.89742
27.57
8.57532
0.236504
55.2868
7.70378
4.46783
119.791
70.0012
55.364
29.3132
1.21649
4.60526
16.0543
47.1475
4.72495
0.539629
46.2921
1.79352
83.5609
2.48576
0.91741
9.78241
3.61581
9.59388
2.00854
5.65259
35.2712
2.48439
4.09389
1.69146
4.28886
8.03043
172.111
5.27795
4.24982
10.4407
0.496727
0.491943
0.357076
19.612
0.431904
1.6607
6.44413
13.8627
76.6738
10.45
15.8514
26.0587
8.11005
4.87316
176.651
4.61664
18.2507
34.5964
5.86889
201.467
13.0591
0.55653
0.532689
24.638
4.11507
10.5074
6.61366
1.32592
2.64205
38.5588
88.3285
33.9867
19.2791
13.4584
176.523
32.2192
30.8747
11.7491
5.04799
13.933
117.39
16.076
149.171
71.45
0.724408
2.36098
3.32691
39.321
5.77183
69.0772
38.3484
16.6031
20.552
8.94221
16.2069
3.17115
0.954134
9.83818
0.471469
1.73561
29.7955
7.66128
4.18231
16.7474
6.56255
5.87883
6.88357
25.1434
64.7391
17.3688
0.228276
3.33723
2.09669
51.6863
2.66803
39.1969
3.76146
6.75791
6.0209
9.94803
116.911
5.12886
11.4243
22.8065
78.5918
3.25585
2.02364
0.504369
23.8885
67.3195
7.65101
7.502
43.7326
5.0824
17.9011
9.62961
5.33017
18.6648
83.6606
36.2489
17.5695
8.9548
0.169182
14.2411
0.16129
26.2557
63.9387
23.1108
5.57441
7.05641
9.59214
29.2962
7.25125
0.179395
29.6482
3.9618
0.15017
0.709139
17.5353
103.846
38.4769
12.8687
12.3596
1.47947
4.147
0.195864
0.179852
1.05406
13.0337
28.6896
1.335
28.752
5.12322
2.05143
7.41505
63.6862
10.4607
0.171491
3.05263
4.19252
197.049
86.2599
44.244
2.7885
0.81141
16.9541
12.0292
19.0378
10.0712
7.1581
5.47223
153.322
7.27158
26.3437
8.29096
40.1482
11.9808
4.63835
106.64
0.387561
2.83185
4.16386
7.54769
1.57689
0.399922
0.967949
2.26482
4.70808
19.6517
5.84172
12.6158
9.29186
40.9557
5.65911
14.6095
10.919
13.2319
166.38
1.57862
16.719
0.966638
14.7505
66.5956
0.527585
20.1054
10.8846
7.22186
7.14261
1.46436
2.48711
40.1853
1.15461
54.9581
133.747
22.2168
70.7602
0.423768
28.1525
88.2443
5.43064
93.546
18.9309
4.22546
23.3851
10.2203
10.4696
36.7374
17.773
9.17219
0.448622
0.846046
12.281
4.9903
4.31558
6.65938
29.3273
31.9129
0.897206
0.531606
2.62691
19.6829
59.3391
3.47356
0.262954
13.0555
3.1569
29.0658
18.3026
4.92567
100.375
33.4106
5.66707
20.6196
72.3475
0.247501
47.7658
29.4188
2.90823
42.2434
42.7394
23.586
0.906256
0.127821
1.95077
3.58283
2.12106
7.1043
9.89052
61.139
20.5318
51.8407
139.109
29.1392
49.4836
66.0571
7.17365
17.3209
7.79031
29.5777
5.70889
62.3248
153.006
82.9594
48.6138
1.73614
2.29456
45.5448
42.6484
18.8669
0.339361
2.28921
118.338
30.3899
9.31498
3.45663
52.1835
1.39787
55.2327
31.6328
82.1239
33.0092
120.047
0.190416
97.687
0.760494
15.5405
0.481074
62.3195
14.6784
57.8204
0.316643
4.13966
119.193
3.26365
1.61999
77.2662
5.10486
37.8968
61.7644
178.663
61.2492
0.397209
1.29929
52.0696
45.9575
208.64
98.2219
181.593
7.0254
5.8719
69.9751
97.1729
0.633297
0.305229
11.0387
1.04163
3.5224
7.15471
10.1708
12.5315
5.07574
15.3172
20.3124
8.67423
120.754
108.424
108.457
12.3224
33.5912
11.3853
8.32253
21.4983
16.484
170.166
109.179
37.8982
8.88588
14.0983
63.7812
2.14424
0.245897
187.03
87.3021
4.86008
13.0375
0.878903
10.6996
36.4686
123.804
2.33708
17.3574
3.10131
82.916
0.903062
15.131
0.515404
4.04056
0.29869
4.17007
118.113
32.561
1.66195
139.574
1.58526
2.6644
46.3184
6.51897
54.5811
6.90639
10.6971
57.0452
4.31348
9.86243
4.96599
56.5912
10.8
4.27328
43.5062
79.371
32.1761
43.0782
17.0408
5.55781
28.9163
60.9713
0.235384
11.2527
44.6499
3.48272
13.9623
176.627
10.3422
99.212
5.07686
0.911889
0.557463
0.468027
16.0019
28.8402
79.2626
98.5488
6.47739
32.5375
5.89534
10.4315
11.0172
7.68752
5.52866
5.026
11.4926
12.1367
0.32852
0.328986
0.596561
124.972
4.81975
9.06424
16.4352
168.495
113.079
114.022
38.8526
5.86385
51.2621
2.73683
3.27638
51.7122
146.116
11.2292
9.10958
1.00331
4.69831
13.0333
87.6688
2.64859
6.9139
19.2987
12.1444
1.17843
6.0845
0.294153
4.70285
8.55958
112.015
59.1096
6.12019
113.511
29.7941
6.25046
6.74602
30.4015
10.0901
6.1281
28.7534
13.9572
29.3181
34.6012
0.33693
0.515052
47.3812
5.36832
7.76184
1.17289
86.5601
31.1705
37.125
1.90973
40.4896
2.28704
46.5853
35.0853
27.8091
31.8603
33.019
10.8503
11.4239
3.88895
13.9634
35.5898
0.175412
26.2061
0.160115
2.84145
6.13851
17.2055
13.1303
1.40067
5.76814
7.7934
0.463818
6.64126
0.698822
0.651594
202.345
42.6187
14.2409
0.304562
0.52092
13.8199
0.247181
0.757585
20.2374
0.670021
0.272248
13.1281
0.987125
45.0442
10.1236
0.726597
28.5146
4.16779
7.7841
30.6041
13.6899
8.99452
16.2684
86.9593
49.758
1.31343
20.1253
119.911
93.9219
63.2982
11.0898
8.19263
0.181936
0.139212
38.432
174.33
27.1795
4.34623
42.6646
7.34058
5.91179
19.56
6.5452
17.1642
5.29206
79.3732
0.12084
8.4639
140.317
35.0212
7.78079
34.6863
20.3077
92.4007
41.7064
30.936
21.7211
1.2047
3.43139
4.20763
6.18915
17.2637
5.24371
23.591
14.6545
123.326
15.452
49.6999
1.12656
2.64939
9.32118
96.8832
51.1398
76.3896
5.58648
139.865
10.3875
7.1809
43.199
0.339777
2.82958
1.4926
42.4378
79.5791
40.7755
30.6977
19.0016
34.3993
4.30654
3.07417
0.319383
6.18046
3.39388
682.245
164.439
5.1837
120.879
33.514
6.16248
0.367088
30.108
0.33122
0.245405
0.51081
3.37907
35.2547
46.5301
4.30081
33.4362
0.947079
2.80701
0.356318
5.08071
34.1674
13.954
394.093
14.1973
11.0465
0.134772
13.4593
117.119
69.5073
10.3698
5.47288
6.13727
12.3342
5.66178
2.70257
19.6353
35.8515
0.602956
17.3295
0.611132
14.3365
13.873
4.02031
78.6567
13.1813
130.794
35.6496
90.8989
63.1517
1.40285
7.26636
1.77262
6.14927
0.54823
5.22048
4.95467
42.975
42.52
2.43817
1.78947
4.71942
72.2391
3.77243
17.1174
11.9106
10.9199
83.0112
84.8302
0.255684
18.9026
0.499485
40.6913
10.0343
8.34644
45.5869
2.42239
38.0392
128.408
74.777
58.4552
5.01195
74.1795
50.4916
28.7346
0.688659
0.709489
39.7738
0.335954
1.72059
6.321
36.2551
52.7179
16.3774
66.1458
7.45567
106.368
3.34008
19.3497
47.0593
2.52867
93.9152
49.0313
0.242601
0.288272
0.944299
2.6934
18.8857
35.5116
90.4178
15.9408
6.76223
171.205
7.92969
7.51046
97.2491
40.3316
12.7569
66.2068
6.78297
88.9153
1.12112
0.866298
13.7887
0.299308
3.68948
15.8273
64.902
3.02708
16.8124
0.709025
0.476121
40.2568
7.26139
15.0118
9.0347
91.7311
39.4126
6.33788
10.3597
8.57958
1.90123
11.1973
26.9357
29.7709
214.153
0.290288
2.92055
77.6841
59.692
5.30472
31.8437
31.5452
10.6163
15.4676
48.1503
26.8298
70.4369
75.5094
10.8908
29.7888
6.16813
14.4448
106.051
53.7771
150.622
9.34297
32.2208
5.95701
22.6473
13.5552
20.5308
88.1478
4.04126
15.4485
7.93622
0.150685
0.361396
5.40278
0.615497
6.60852
15.0083
39.2984
53.4605
65.1631
5.0973
99.1854
128.452
79.0638
2.52526
0.950955
14.9599
0.587174
34.7822
5.62009
19.0209
5.98656
2.49531
137.16
11.2963
4.94728
4.44105
16.6818
84.2493
0.138713
22.3075
22.2247
0.192352
59.6971
33.3324
4.01783
2.26971
50.0392
61.3299
25.4401
2.31091
5.96263
0.633845
0.616093
4.42377
0.24625
0.701586
14.5923
4.03768
0.264463
38.5637
4.82443
0.458799
21.7204
1.14891
91.9512
5.28058
140.137
2.37107
0.592016
5.55924
57.1005
33.0311
95.8206
20.3522
31.0518
35.8716
6.41283
3.52282
36.048
6.55097
2.53763
20.9721
0.170351
33.6051
11.9414
25.272
8.85109
3.32184
46.2373
73.4478
16.9525
586.534
13.2605
3.16254
0.503408
0.934553
6.98134
0.755088
6.94998
23.2669
2.33801
16.1863
0.72774
0.937977
7.56046
4.03902
5.5451
26.1437
16.007
5.46557
8.19273
4.09366
0.934846
3.15514
64.4222
5.58523
11.9423
6.01126
97.6403
178.086
53.3217
5.07268
9.00081
0.655114
7.28251
0.189014
12.5857
11.4635
80.6834
0.557776
104.935
272.137
1.23098
0.869144
3.02012
32.58
43.1702
0.943972
1.08957
15.988
34.6296
0.165831
22.7711
60.0063
5.4765
0.34371
2.20287
101.52
2.97917
42.2134
34.3284
8.56307
84.1716
19.7561
0.565165
12.2845
4.37917
202.881
4.23476
83.1946
454.077
5.83744
152.006
0.536169
144.521
11.7434
4.23548
6.11958
121.055
0.658678
0.673116
0.861789