/*--------------------------------*- C++ -*----------------------------------*\
| =========                 |                                                 |
| \\      /  F ield         | OpenFOAM: The Open Source CFD Toolbox           |
|  \\    /   O peration     | Version:  v1912                                 |
|   \\  /    A nd           | Website:  www.openfoam.com                      |
|    \\/     M anipulation  |                                                 |
\*---------------------------------------------------------------------------*/
FoamFile
{
    version     2.0;
    format      ascii;
    class       volScalarField;
    location    "0.3";
    object      nut;
}
// * * * * * * * * * * * * * * * * * * * * * * * * * * * * * * * * * * * * * //

dimensions      [0 2 -1 0 0 0 0];


internalField   nonuniform List<scalar> 
5794
(
0.00245851
0.00075747
0.00285969
0.00177738
0.00500196
0.00102169
0.00106201
0.00183606
0.00271845
0.00169229
0.00206281
0.000862265
0.00128177
0.00239044
0.00226324
0.000799587
0.00465682
0.000992397
0.00129347
0.00056942
0.00165945
0.00165266
0.00190502
0.000966094
0.0016977
0.00410129
0.00485744
0.00409644
0.00360679
0.000825969
0.0017906
0.00139039
0.00223491
0.000932832
0.00371444
0.00221321
0.000786717
0.000681685
0.00213116
0.00261601
0.00421106
0.00270244
0.000737305
0.0016177
0.00234572
0.00239488
0.0012149
0.00118935
0.00122428
0.00100075
0.000267563
0.00307464
0.00137255
0.00187834
0.000119085
0.0024892
0.00164577
0.00160001
0.000716513
0.00524266
0.00130426
0.000653305
0.00179105
0.00340679
0.00464414
0.000790433
0.00401706
0.000552548
0.00111647
0.000785601
0.00592632
0.00448426
0.0056969
0.00194692
0.000867834
0.00366207
0.000631786
0.00370267
0.00192154
0.00013098
0.000843672
0.000776585
0.00273004
0.00168251
0.000816285
0.000896094
0.000762635
0.000982021
0.00162794
0.00331312
0.00492111
0.00275722
0.00316175
0.00501263
0.00261632
0.00828883
0.00379427
0.00290564
0.00279137
0.00139539
0.00146813
0.000880625
0.000738298
0.0021461
0.00232879
0.00468239
0.000565144
0.0036002
0.00530075
0.00210803
0.000624659
0.00319882
0.00149368
0.000933123
0.00272984
0.00384145
0.00155926
0.0038932
0.00121918
0.00100662
0.00405011
0.000532388
0.000558928
0.00411357
0.00366265
0.0033667
0.00216138
0.000971212
0.00367438
0.00425805
0.00107282
0.00142587
0.00210528
0.00355215
0.00528427
0.00252138
0.00270048
0.000714065
0.000558575
0.00082522
0.00185748
0.00294593
0.00412621
0.00175677
0.00076621
0.00691246
0.00114616
0.00131246
0.00365919
0.00167674
0.000723364
0.00256961
0.00491659
0.000533604
0.00590237
0.000903961
0.00177538
0.000782283
0.00210759
0.000694513
0.00117788
0.00121478
0.000506505
0.00114907
0.00210323
0.00208913
0.00102571
0.000818976
0.000545086
0.00109404
0.000526169
0.0020696
0.000886467
0.00126075
0.00049712
0.0011857
0.000600327
0.00144883
0.000729599
0.0021046
0.000562661
0.000959796
0.000979832
0.00178196
0.000861284
0.00258387
0.000734835
0.0011007
0.000965442
0.00056086
0.00167038
0.00105337
0.0018907
0.00135187
0.000763665
0.000548452
0.00149372
0.00143844
0.00107018
0.00100328
0.000906186
0.00227088
0.00114378
0.000869268
0.000936878
0.00203313
0.00121211
0.00536588
0.00289234
0.00255842
0.00253918
0.000859971
0.0027542
0.00335263
0.000984858
0.00353032
0.00197232
0.00210343
0.00375551
0.00532339
0.000858781
0.00246508
0.00722796
0.00365429
0.00217012
0.00281339
0.000471116
0.00431606
0.00128575
0.0021521
0.0014648
0.00477328
0.00122326
0.00386967
0.00117125
0.00396679
0.00374131
0.00176378
0.000816615
0.00176081
0.00104418
0.00772118
0.00305615
0.000636042
0.00080824
0.000736417
0.00312579
0.00244557
0.00118256
0.000957879
0.000697735
0.000711594
0.00575241
0.000630057
0.000802584
0.00499008
0.00088812
0.000836374
0.00297459
0.00285919
0.0021787
0.00277428
0.00326022
0.000517575
0.00114853
0.0017081
0.00176454
0.00345116
0.0014741
0.00293743
0.0014124
0.00130704
0.00247135
0.00515095
0.000870778
0.00160265
0.00181921
0.00176785
0.00130547
0.00112117
0.00158347
0.00311987
0.00426775
0.00264255
0.00258827
0.0051012
0.00244965
0.00292126
0.00421155
0.00477729
0.00156722
0.00517988
0.00131029
0.00329465
0.000766896
0.00304479
0.00564872
0.00233968
0.00246016
0.000607548
0.000492947
0.00101347
0.000647182
0.00434194
0.00132421
0.00291751
0.00114294
0.00109202
0.0024733
0.00112432
0.0012296
0.00263244
0.00304516
0.000893745
0.000783134
0.000900919
0.00466479
0.00388142
0.00473604
0.00386607
0.00356314
0.00189825
0.00364006
0.00393245
0.000668922
0.00224532
0.00291941
0.000709264
0.000968846
0.00189367
0.00198219
0.000818509
0.00106575
0.00156101
0.000906113
0.00120139
0.00109641
0.0004421
0.000760078
0.000814085
0.000483954
0.00110888
0.00259132
0.00107279
0.000719257
0.000862229
0.00195911
0.00105297
0.00247283
0.00054565
0.00222156
0.00178376
0.00169427
0.00092732
0.00108679
0.00167582
0.000848369
0.00200197
0.000982247
0.00178432
0.00530076
0.00109083
0.00265054
0.00153384
0.00228033
0.0017604
0.00190661
0.00161041
0.000789451
0.00106727
0.00300824
0.000462732
0.00258689
0.000964871
0.00692203
0.00316551
0.00176351
0.00126822
0.00164875
0.000464894
0.00314987
0.00289014
0.000750431
0.00246112
0.00258944
0.00082855
0.00573634
0.00274541
0.00380054
0.0010968
0.000792792
0.00164924
0.000681119
0.00189638
0.000817313
0.00144304
0.000538677
0.00180213
0.00157976
0.00185335
0.00080459
0.00231857
0.00435291
0.000447338
0.0013919
0.00226585
0.0014543
0.00165442
0.000601558
0.00358081
0.00316413
0.0026382
0.00448422
0.00126027
0.00174736
0.000782009
0.000837411
0.00137643
0.00206833
0.00328875
0.00270806
0.00269088
0.00577439
0.00300898
0.000968587
0.00134317
0.000539705
0.000950815
0.00064596
0.00138555
0.00339137
0.000785012
0.00176665
0.00214132
0.00202245
0.00163079
0.00094146
0.00103871
0.0019482
0.00167034
0.000765252
0.000805688
0.00104442
0.000696305
0.00192682
0.00427407
0.00272439
0.000481389
0.000977156
0.00350065
0.00122323
0.000583048
0.00226584
0.00187958
0.00457326
0.00045713
0.00433076
0.00939177
0.00318669
0.00582474
0.0017192
0.000596458
0.000966799
0.000962523
0.00149248
0.00415967
0.00381865
0.00481052
0.00527991
0.00267465
0.000155828
0.00342704
0.00440809
0.0030225
0.00252511
0.00297204
0.00548755
0.00426258
0.00230069
0.000595946
0.000911417
0.00156203
0.00200738
0.00217226
0.00515847
0.003539
0.000863569
0.00173058
0.00201489
0.00139778
0.000648421
0.00281383
0.00320861
0.00263641
0.00161433
0.000782405
0.00101031
0.00284274
0.000421492
0.00204902
0.00455685
0.0051169
0.000730144
0.00204489
0.00210026
0.000545708
0.00124027
0.00101571
0.0048926
0.000757454
0.00819276
0.00100968
0.00310661
0.000458106
0.000811398
0.00278812
0.00353208
0.000450596
0.000806054
0.00442195
0.00146889
0.000622311
0.0051111
0.00425906
0.00426891
0.00108649
0.00318227
0.00213394
0.000536122
0.0017898
0.00121104
0.000260878
0.00371154
0.00251171
0.0023486
0.00273142
0.000785899
0.00272451
0.00382569
0.00180459
0.00139679
0.00250531
0.000573556
0.00231138
0.00285773
0.000726956
0.000754942
0.0018565
0.000884081
0.00137097
0.00195368
0.000719789
0.000696694
0.00293247
0.00128065
0.00396343
0.00110128
0.00169538
0.000520245
0.00286122
0.00808943
0.000544542
0.0029891
0.00311795
0.00238271
0.00171268
0.000850788
0.00369477
0.000584416
0.000649041
0.00159761
0.00310073
0.0012632
0.00134549
0.00136974
0.000862096
0.00514037
0.00254399
0.00194997
0.00571769
0.00450915
0.00272549
0.00798962
0.00327561
0.00372589
0.00128224
0.000939787
0.00413198
0.00287148
0.00455393
0.000729904
0.00112514
0.000829179
0.00496053
0.00264503
0.00298036
0.000341574
0.000831233
0.000468609
0.00290722
0.00143442
0.0017174
0.00268577
0.00511412
0.000524245
0.00280448
0.00352475
0.00106372
0.000145538
0.00199855
0.00435585
0.00535675
0.00198462
0.00157073
0.000614514
0.000872373
0.00187419
0.00109523
0.000852099
0.000516342
0.000362687
0.00307485
0.00387812
0.0050704
0.000515125
0.00115
0.00149031
0.00485821
0.00620051
0.000954966
0.0021783
0.000823677
0.000335243
0.00133472
0.000678293
0.00214116
0.00406475
0.000809833
0.00130162
0.00359874
0.00212931
0.000793759
0.00440587
0.00289709
0.0025831
0.00508331
0.00229155
0.00101192
0.0016691
0.000887978
0.000538452
0.00322333
0.00244292
0.000698899
0.000612131
0.00280411
0.00484397
0.000721118
0.00136253
0.00353619
0.000840909
0.00169574
0.00164409
0.000922279
0.000586505
0.00288371
0.00467354
0.00522011
0.00249851
0.00265534
0.00175128
0.00181973
0.00431554
0.00131807
0.00175611
0.0027407
0.00517985
0.00304075
0.00214061
0.00227126
0.000886523
0.00461583
0.00283608
0.000746832
0.00325246
0.00256108
0.00409509
0.00266415
0.00157321
0.000490572
0.00246405
0.00728874
0.00399766
0.00305245
0.00335905
0.00192095
0.00618841
0.000396184
0.000505755
0.000769921
0.00077627
0.000607502
0.000273476
0.000878068
0.00320264
0.00319346
0.00102474
0.00220331
0.00211003
0.00713832
0.000996594
0.00625628
0.00332275
0.00337292
0.0044234
0.000775482
0.00073442
0.00576324
0.00281709
0.00627607
0.00775826
0.00408052
0.00282343
0.00232641
0.00474933
0.00177395
0.000772903
0.000819178
0.00833654
0.000950715
0.00277843
0.00323906
0.00581719
0.0020169
0.00336522
0.00242989
0.0028632
0.00423381
0.00280332
0.00312234
0.00448253
0.00035292
0.00037618
0.000495319
0.000508051
0.00480264
0.00233661
0.00443842
0.00165429
0.000803129
0.000740502
0.00303104
0.00247004
0.000453601
0.0027467
0.00478647
0.00075572
0.0053683
0.00270362
0.000709232
0.00195117
0.00499612
0.00453954
0.00284753
0.0049942
0.00545252
0.00268687
0.00321195
0.0023436
0.00376908
0.00284218
0.00420912
0.00483375
0.00220097
0.00343385
0.0011079
0.00103547
0.00297667
0.00290649
0.00154552
0.00709957
0.00522243
0.00112604
0.00194059
0.000573463
0.0046953
0.00274098
0.00666345
0.00486666
0.00269274
0.000500226
0.00574813
0.00633642
0.0033532
0.00134788
0.00271782
0.000619137
0.00311239
0.00158475
0.00376092
0.000865649
0.00521234
0.00181122
0.000754903
0.000804855
0.00325535
0.00726297
0.00575189
0.0028144
0.00773174
0.00322203
0.00169782
0.00344126
0.00102356
0.00970965
0.000827542
0.00130493
0.00214719
0.00827038
0.000556252
0.00165435
0.00110067
0.00124765
0.00474291
0.00093499
0.000768925
0.00292379
0.00297481
0.00304921
0.00290308
0.00443572
0.00455605
0.000771739
0.00248215
0.00439175
0.00292589
0.00396098
0.00645996
0.000498098
0.000408346
0.00059046
0.000663117
0.00460313
0.00106476
0.000876481
0.000789461
0.00167677
0.000719141
0.000839549
0.00533015
0.00266693
0.00525156
0.00180893
0.00202332
0.00328935
0.00272791
0.0043274
0.00481607
0.000787801
0.000989459
0.000750187
0.00290354
0.00320256
0.0022352
0.00578221
0.00355939
0.00445925
0.00401574
0.00208352
0.00160344
0.000681675
0.000773249
0.00273028
0.00154136
0.00443042
0.00270315
0.00276168
0.00354342
0.00078726
0.000752992
0.000380303
0.0013366
0.00431658
0.000871122
0.000815344
0.00267444
0.00120478
0.00374343
0.00222343
0.000799475
0.00248408
0.0037269
0.00281676
0.00510394
0.00522994
0.00563521
0.00479946
0.00120256
0.00076523
0.00504213
0.000700704
0.000889101
0.000644645
0.00151815
0.00189241
0.000551042
0.000790507
0.000729056
0.00305891
0.00482974
0.0018933
0.000849068
0.002672
0.00563332
0.00535308
0.00268175
0.00307572
0.000785382
0.000716244
0.00519202
0.000986537
0.00290461
0.000839312
0.00133741
0.00108687
0.00155325
0.000484918
0.00185336
0.00128279
0.000654985
0.000559894
0.000599273
0.000460801
0.000302703
0.000663291
0.00213906
0.00422227
0.0029837
0.00265161
0.0025958
0.00402122
0.000735895
0.000585104
0.00165379
0.00316971
0.000670377
0.00430757
0.007204
0.00215911
0.000786133
0.00432025
0.00193593
0.000599054
0.00188827
0.0052029
0.00259033
0.000834355
0.00161626
0.000880396
0.00357816
0.00330777
0.00535916
0.000911579
0.000649841
0.000420584
0.000749769
0.000700084
0.00165684
0.000676875
0.000690048
0.000649784
0.00115863
0.000789674
0.00157102
0.000783584
0.00170038
0.000720851
0.00151434
0.000831691
0.00556361
0.00200833
0.00134111
0.000706269
0.000963744
0.000756637
0.00384427
0.00103142
0.00196382
0.00474625
0.00112146
0.000833753
0.00189609
0.000722556
0.000830363
0.00229337
0.000777194
0.00539937
0.00235245
0.000586694
0.00082547
0.000875615
0.00265533
0.000912918
0.00286992
0.00257565
0.0048303
0.00121789
0.00335976
0.000724822
0.00074502
0.000817763
0.00112256
0.00166566
0.00149429
0.00150703
0.000228768
0.00233745
0.00141038
0.00111648
0.00110518
0.00141007
0.000572907
0.00207256
0.000581376
0.00116344
0.00074719
0.00174654
0.000796644
0.00108874
0.00079048
0.000784063
0.000737098
0.00172544
0.000873142
0.00282194
0.00458052
0.00339739
0.0041262
0.000695979
0.000826965
0.00251461
0.000611435
0.00287347
0.00188612
0.00262818
0.00495699
0.000645875
0.00687338
0.000622089
0.000842578
0.00613254
0.000964279
0.00507571
0.000717658
0.000851133
0.00372884
0.00394366
0.000576482
0.0046845
0.00162046
0.00113854
0.000612412
0.00133667
0.000637256
0.000772898
0.000830237
0.0011216
0.000716414
0.000754798
0.00201892
0.00183582
0.00419326
0.000939473
0.000723694
0.0050595
0.00256627
0.00077038
0.000842153
0.00315771
0.0032149
0.00339898
0.00404985
0.000772246
0.00128908
0.000259631
0.00440227
0.00183295
0.00418832
0.00242145
0.00381152
0.00341323
0.000267616
0.00109302
0.000531168
0.00021705
0.00260984
0.000709799
0.00112874
0.00110245
0.000281296
0.00108122
0.000246183
0.00027665
0.00121641
0.000559596
0.00155095
0.00335889
0.00273731
0.0068556
0.000794394
0.00124893
0.0013156
0.000979769
0.000663394
0.000790219
0.00118609
0.000801425
0.00273633
0.00102976
0.000745882
0.00107524
0.00509998
0.00188166
0.000675916
0.00379702
0.0041219
0.00214093
0.00341236
0.000743669
0.00962519
0.00513912
0.00280367
0.000884376
0.0114887
0.000727615
0.000727981
0.00246754
0.000992595
0.00146216
0.000612271
0.0101664
0.00107057
0.000555742
0.00315676
0.00460043
0.004735
0.00076627
0.000829916
0.00290428
0.00120228
0.00398142
0.000897999
0.00425285
0.00364684
0.00534929
0.00193758
0.00262619
0.00142355
0.000642159
0.00260962
0.00204783
0.00293429
0.00102641
0.000580409
0.00131039
0.0020431
0.00480273
0.000837602
0.00137894
0.000756523
0.000882123
0.000832766
0.000776554
0.000870739
0.000752649
0.00268425
0.00298697
0.00257597
0.000727843
0.000742618
0.000793861
0.00118195
0.00155814
0.00203483
0.0015039
0.00175095
0.000843697
0.000772861
0.002662
0.000753916
0.000709379
0.00130872
0.000767695
0.000844511
0.000940312
0.000589575
0.00152285
0.00064536
0.00807864
0.000533038
0.0006959
0.00106142
0.000925925
0.000743344
0.00328252
0.00286235
0.000729344
0.000634494
0.00240985
0.00104169
0.00155301
0.00118681
0.00207656
0.00100737
0.000994597
0.00139823
0.00429443
0.00701999
0.00266615
0.000828664
0.000258304
0.00130535
0.00177617
0.00408741
0.00593083
0.000550796
0.000810734
0.00110037
0.00322049
0.000283108
0.00353846
0.00371577
0.00111064
0.00464424
0.0030123
0.00109425
0.000705109
0.00240774
0.00482351
0.00214319
0.00115739
0.00087645
0.000732725
0.00272555
0.000836347
0.00157591
0.000505607
0.000783665
0.00345604
0.000955217
0.000286026
0.0011859
0.000740132
0.000471222
0.00116519
0.00266727
0.00365942
0.000653923
0.000989043
0.00434217
0.0077122
0.00305879
0.00271228
0.00195435
0.0007953
0.00385083
0.00111672
0.00132792
0.00498145
0.00242843
0.00383548
0.00229078
0.00537785
0.00452925
0.00507293
0.00267046
0.00205396
0.00121474
0.00316451
0.000781046
0.00208635
0.00234105
0.00149028
0.00271706
0.00352484
0.00205329
0.0024284
0.0029126
0.000804676
0.000472778
0.000806817
0.0027373
0.000280386
0.00204798
0.00160595
0.000831065
0.00409882
0.00329159
0.00243977
0.000837505
0.0103499
0.00112898
0.00259092
0.0033815
0.00121111
0.00149138
0.00104113
0.00235894
0.000909331
0.00171475
0.000485057
0.00315321
0.000784226
0.00115467
0.00295349
0.00313627
0.0026127
0.0012956
0.0042653
0.00348413
0.000786299
0.000197936
0.00277965
0.0038853
0.00406701
0.00410461
0.00118315
0.00074984
0.00307477
0.00479315
0.00097527
0.0014784
0.00134914
0.00124669
0.00114243
0.00434732
0.000703273
0.00169247
0.00671978
0.00157784
0.00504184
0.00100432
0.000600326
0.00153502
0.00140329
0.000438491
0.00140171
0.00186578
0.000985697
0.0013892
0.000552911
0.00261725
0.000941328
0.000822655
0.00245167
0.00258731
0.00617332
0.000705356
0.00235871
0.00618461
0.000956286
0.000933945
0.00258285
0.00222491
0.000879115
0.000320566
0.000203213
0.000552471
0.00885567
0.000826082
0.00255236
0.00241798
0.00329296
0.00378093
0.00147099
0.000874035
0.000281668
0.000306494
0.000238462
0.000200267
0.00101958
0.000505736
0.000335053
0.000768604
0.000212007
0.000348115
0.000543084
0.000709651
0.000376692
0.000313188
0.000203578
0.000927315
0.000602857
0.000388033
0.000601225
0.000509991
0.000224049
0.000312634
0.00011304
0.000315332
0.000660209
0.000510867
0.000414439
0.000292019
0.000538667
0.000954311
0.000553671
0.000388345
0.000242288
0.000261831
0.000348354
0.000230534
0.000846998
0.000388625
0.000206589
0.00051743
0.000287361
0.00055198
0.000878402
0.00106531
0.00144809
0.00408125
0.000349004
0.00151992
0.0028613
0.00565618
0.0029783
0.00174872
0.000645489
0.000827098
0.00225805
0.002737
0.00400825
0.00828342
0.00389285
0.00583332
0.00353278
0.000713324
0.000724312
0.000648917
0.00171028
0.000574136
0.00280504
0.000850096
0.00267198
0.00260395
0.00117539
0.0047591
0.00291228
0.00246631
0.00500976
0.00353139
0.00918915
0.00282379
0.00235638
0.00235595
0.000748481
0.00419721
0.00323065
0.00183848
0.00231502
0.00213244
0.00172796
0.00358242
0.0012923
0.00107131
0.000842167
0.000848854
0.0106259
0.00240379
0.000568154
0.000423271
0.00175125
0.00183772
0.000667192
0.00344871
0.00157034
0.000428155
0.000212714
0.000540323
0.000852559
0.000323229
0.00068616
0.000206391
0.000393279
0.000596205
0.000240368
0.00106453
0.000559245
0.00021439
0.000912277
0.000547311
0.000642343
0.00052843
0.000307301
0.000278612
0.000288659
0.000259044
0.000909868
0.00028051
0.00315782
0.00339416
0.000489529
0.000846608
0.00221539
0.000848693
0.00203354
0.000522458
0.00264465
0.00296045
0.00372182
0.00269766
0.00181022
0.00268625
0.000159508
0.00185014
0.00180295
0.00282196
0.0054656
0.00517481
0.00224191
0.000496871
0.00268723
0.00167444
0.00136437
0.0027832
0.000864532
0.00316877
0.00143066
0.00188553
0.000768754
0.00106574
0.00130007
0.00226949
0.00290857
0.000944759
0.00790545
0.000391307
0.0112534
0.00129358
0.00069999
0.000737363
0.00371834
0.000790205
0.00119145
0.0034133
0.00182671
0.00770592
0.000834643
0.00226618
0.000657775
0.00244585
0.00288897
0.00531428
0.000242808
0.000772371
0.000971418
0.0041862
0.00272663
0.000722213
0.000712613
0.00337326
0.00316076
0.00207881
0.000832695
0.00221057
0.000404945
0.00159416
0.00275907
0.000619934
0.0022049
0.00043973
0.000132943
0.000514727
0.0103746
0.00672537
0.000794558
0.00289987
0.00494529
0.000699832
0.00198586
0.00348211
0.00191305
0.00195324
0.00527903
0.00187887
0.00736114
0.000663334
0.00270356
0.00170992
0.00160931
0.000712428
0.00144172
0.00105077
0.00270702
0.000570982
0.000838598
0.000740614
0.00225214
0.00380771
0.00234123
0.00195947
0.0082337
0.00368502
0.000830951
0.00462606
0.000619543
0.00189055
0.00179864
0.00131795
0.00409617
0.00281753
0.00313273
0.00198524
0.00271938
0.00810725
0.0014126
0.00312339
0.00256579
0.0026409
0.000929363
0.00144931
0.000787821
0.00594077
0.00109741
0.00176365
0.00417616
0.0035074
0.00141264
0.00382723
0.00226738
0.00509562
0.00341267
0.00426069
0.00256831
0.000838739
0.000951252
0.0026322
0.00362488
0.00101116
0.000723648
0.00271488
0.00481026
0.00499984
0.004248
0.00363694
0.00473662
0.00456879
0.0051581
0.00148429
0.00459701
0.00449426
0.00478763
0.00401112
0.00466184
0.0038266
0.00424368
0.00444767
0.00425814
0.00127338
0.00124198
0.000782837
0.00436836
0.00113471
0.00091629
0.00116243
0.00133394
0.000170974
0.000608945
0.00336429
0.00485241
0.00379638
0.00175751
0.00225731
0.00632383
0.00473883
0.00342391
0.00302835
0.00181229
0.00150654
0.00141461
0.00209792
0.00359592
0.00161541
0.00145532
0.00199466
0.00346316
0.002828
0.00172459
0.00105757
0.00455472
0.00139799
0.000751709
0.00245775
0.000251449
0.00257523
0.00139541
0.00119335
0.00132629
0.000964025
0.00176363
0.00270177
0.00181625
0.00202343
0.00222599
0.00126993
0.0027193
0.0112888
0.00176407
0.00269269
0.00243123
0.00214332
0.00954234
0.000698385
0.00205546
0.00894934
0.00352761
0.00301503
0.00176643
0.00133005
0.00310504
0.0102739
0.00314101
0.00176519
0.0021372
0.00249224
0.00270601
0.00156973
0.00614847
0.002018
0.0010409
0.00473373
0.00155862
0.00236656
0.00100096
0.00159207
0.00276861
0.00473527
0.00214401
0.00576067
0.00903545
0.00231644
0.0102579
0.00120202
0.00470519
0.00222004
0.000810257
0.00294253
0.00152865
0.00543555
0.00250129
0.00539611
0.00067162
0.00764095
0.0051305
0.00373031
0.00144634
0.00609056
0.00286089
0.00225268
0.00525174
0.00394593
0.00157241
0.00628673
0.00371131
0.00478613
0.0043483
0.00443364
0.00128519
0.00389258
0.000530217
0.00187597
0.00358646
0.000828364
0.00147352
0.00172796
0.00121423
0.00256439
0.000632822
0.00523573
0.000765924
0.00326795
0.00219066
0.00141283
0.00292783
0.00212138
0.00156402
0.000687724
0.00165064
0.00160776
0.00153113
0.00330248
0.00109565
0.00174448
0.00521015
0.00389251
0.000742144
0.00346187
0.00320287
0.00209472
0.00197228
0.000540629
0.00111331
0.000616679
0.00338779
0.000760497
0.00197273
0.00418464
0.00655782
0.00157961
0.001521
0.00166025
0.00421048
0.00187692
0.00229727
0.00128973
0.00303031
0.00236906
0.00337129
0.000871735
0.00330501
0.00164305
0.00436281
0.00269688
0.00188764
0.0038778
0.00126825
0.00385343
0.00355169
0.000665698
0.00235804
0.00200959
0.00173137
0.00345701
0.00336565
0.0044448
0.00321397
0.000353238
0.00237944
0.00238022
0.0019773
0.0020793
0.0021168
0.0027354
0.00312082
0.00353467
0.0034616
0.00219145
0.00132503
0.000541523
0.00300171
0.00197509
0.00142586
0.000629479
0.00248144
0.00106667
0.000201129
0.00392796
0.00179411
0.00638008
0.00133472
0.00198441
0.00143188
0.00209982
0.00187542
0.00632329
0.00366879
0.00213455
0.00430338
0.00146215
0.00090761
0.00444967
0.0012699
0.00180046
0.000265201
0.0023973
0.000223883
0.0043264
0.00114298
0.00196191
0.00301431
0.00271517
0.00417532
0.00235029
0.000994772
0.0006368
0.00589785
0.00198526
0.00402644
0.00365104
0.00298807
0.00224477
0.000894149
0.000765337
0.00563522
0.00369515
0.00182237
0.00636293
0.00325761
0.00182217
0.0038524
0.000706459
0.0042175
0.000818741
0.00201672
0.001995
0.00432479
0.000638648
0.00501393
0.000803115
0.0055189
0.00173322
0.00181896
0.00330988
0.00232251
0.00099854
0.000757008
0.000549924
0.000639263
0.00145334
0.00685871
0.00286969
0.000607118
0.00410805
0.00448279
0.00244464
0.000728268
0.0013427
0.000871908
0.00302995
0.00432989
0.00511195
0.00442604
0.00115594
0.00133928
0.00308472
0.00138142
0.00481031
0.00546969
0.00165559
0.00114497
0.0023358
0.0038827
0.00134051
0.00249216
0.00247102
0.0041389
0.00257967
0.00225823
0.00396875
0.0025291
0.00189996
0.00215965
0.00552417
0.00190916
0.00319347
0.00207742
0.000931631
0.000849958
0.00443585
0.00596417
0.0016028
0.00740755
0.00337733
0.00358403
0.00520515
0.00268052
0.00362009
0.000743223
0.00217871
0.000571233
0.0043436
0.00246336
0.00115851
0.00843674
0.000800366
0.000789148
0.0120295
0.000929747
0.00257172
0.00482471
0.00353018
0.0026701
0.00354187
0.00213681
0.00888597
0.00456188
0.00110834
0.00300369
0.00277535
0.0014671
0.00331105
0.000710347
0.00058063
0.000880507
0.000560865
0.000593216
0.00333254
0.00249799
0.000851785
0.000962657
0.00273765
0.00366914
0.00337299
0.00075428
0.0115038
0.0110455
0.00180515
0.00132488
0.00440149
0.00290847
0.00393261
0.000814961
0.000550526
0.003967
0.00247883
0.00220616
0.00220751
0.00893795
0.00520868
0.00131029
0.00278043
0.0119666
0.0036887
0.00271654
0.000860174
0.00154038
0.000498956
0.000837177
0.00236473
0.00268678
0.00247315
0.00245241
0.00432055
0.00615045
0.00214822
0.00281469
0.00214364
0.00482717
0.00510145
0.00542701
0.00420053
0.0022105
0.00210285
0.00351649
0.00195554
0.000949713
0.00160369
0.00718611
0.00502716
0.00658622
0.00268355
0.00368549
0.002181
0.00267402
0.00236347
0.00146433
0.00235841
0.00200435
0.000843839
0.000920412
0.00208831
0.00179336
0.00183951
0.0047377
0.00679499
0.00138009
0.0039685
0.00357917
0.00372097
0.00120685
0.00283459
0.000682177
0.000537778
0.000615462
0.000389194
0.00137745
0.000742074
0.00838465
0.00238876
0.000792477
0.000787326
0.00324772
0.00124843
0.00116362
0.00309217
0.00731427
0.00486112
0.00278771
0.00435092
0.00160936
0.00144509
0.00247843
0.00270834
0.000237888
0.00064315
0.00193813
0.00153466
0.00505382
0.00257908
0.000747075
0.000893746
0.00587479
0.00310825
0.0025547
0.00996595
0.00230705
0.00084782
0.00268315
0.0028172
0.00257207
0.00673739
0.0016646
0.00339674
0.00148261
0.00136323
0.00539271
0.00752251
0.00323772
0.00314587
0.00173243
0.00137712
0.00367494
0.00263545
0.000851817
0.000777368
0.000731565
0.000528199
0.00164017
0.00135374
0.00195325
0.000808628
0.00180797
0.00345732
0.00258116
0.00277836
0.00115606
0.00192319
0.00140246
0.00199814
0.000720208
0.00209862
0.00389982
0.0026146
0.00262833
0.00502172
0.00179664
0.00307623
0.00277687
0.00215913
0.0107394
0.00211447
0.0047995
0.000647385
0.00207777
0.00336854
0.00408637
0.000559875
0.000237954
0.00902643
0.0032189
0.00371681
0.00239923
0.0040385
0.00320332
0.000796324
0.00502489
0.00385851
0.000792805
0.00172092
0.00287893
0.00356897
0.00232304
0.000757637
0.00104133
0.00300813
0.000892362
0.00422115
0.00182732
0.000625372
0.0108803
0.0025524
0.00172592
0.0096742
0.00263863
0.00431399
0.00238887
0.00075008
0.00107764
0.00298345
0.0013673
0.00467113
0.00467292
0.00223089
0.00335061
0.00241717
0.00155924
0.00339859
0.00262045
0.00403741
0.00309878
0.00202675
0.00260644
0.000890453
0.00229601
0.00338073
0.00361944
0.00171989
0.00287443
0.00722534
0.00138955
0.00235892
0.00320816
0.00657658
0.00442058
0.00355051
0.00243388
0.00459563
0.00103846
0.000758209
0.00173181
0.00553762
0.00832156
0.00426555
0.00165393
0.00139307
0.000578698
0.00770681
0.00086461
0.00291433
0.00998724
0.00507224
0.00598316
0.00227694
0.00305465
0.00439292
0.00442438
0.00191522
0.00170653
0.00265185
0.000597436
0.000833338
0.00292604
0.000423743
0.00237
0.00525341
0.0043443
0.00514872
0.00603822
0.00416093
0.00200641
0.00250397
0.00139888
0.0103338
0.0043888
0.00290177
0.00780886
0.000745274
0.00200211
0.00242738
0.0114245
0.0024808
0.00694475
0.00348608
0.00182456
0.00263914
0.00262999
0.00218878
0.000870855
0.00563743
0.00072184
0.0028709
0.00115639
0.00361338
0.00261535
0.00326367
0.00291962
0.0032959
0.00103935
0.00517305
0.0044995
0.00407574
0.000518271
0.0105567
0.00129013
0.00247356
0.0033281
0.000704671
0.00273134
0.003486
0.00217473
0.00651231
0.00221201
0.00550817
0.0103083
0.002918
0.00463399
0.00255944
0.00173901
0.00109995
0.000566292
0.00326558
0.00393736
0.0023654
0.00248124
0.00436977
0.00508287
0.00108263
0.00131619
0.00247468
0.00450589
0.000798269
0.00568057
0.00243549
0.00219054
0.000579116
0.00292113
0.000886251
0.00598203
0.00331212
0.00490116
0.00442047
0.00218757
0.00178677
0.00744487
0.00282093
0.00103403
0.00629474
0.00240603
0.00220857
0.000495969
0.000796056
0.00535047
0.00185735
0.00471594
0.0082096
0.000602877
0.00239209
0.000790151
0.00511533
0.00573709
0.00278023
0.00496684
0.00255846
0.00223654
0.000848205
0.000786624
0.000776074
0.00163781
0.000720234
0.000918192
0.00294839
0.00650306
0.00213762
0.00379163
0.00573239
0.000947261
0.00495395
0.00467763
0.00351297
0.000743987
0.00221616
0.00445103
0.000459143
0.000278718
0.000352657
0.00249436
0.00203358
0.00263467
0.00298962
0.00262984
0.0109529
0.00519729
0.00256824
0.0029964
0.00539776
0.0045949
0.0027777
0.00436448
0.000913463
0.00355062
0.00143168
0.00192925
0.000744207
0.00099112
0.00132992
0.00272157
0.00198855
0.00276455
0.00222853
0.00509255
0.00190317
0.00306043
0.00319781
0.000947412
0.00217185
0.00514706
0.00227068
0.00256748
0.00477554
0.00321024
0.00168995
0.00207914
0.00062911
0.00106775
0.00334844
0.00119245
0.00324363
0.00241181
0.00108859
0.00248208
0.00830654
0.00349289
0.00350256
0.000818483
0.0106679
0.000497009
0.00281107
0.00204419
0.00614455
0.00268009
0.00244863
0.00166064
0.00419185
0.0056761
0.00078899
0.00101602
0.00189825
0.00652772
0.00389644
0.00265929
0.00249673
0.00533184
0.0045881
0.000982997
0.00255306
0.00457857
0.00228287
0.00352075
0.00357715
0.00194817
0.000748095
0.00198181
0.00176555
0.00294863
0.000782052
0.00193133
0.00374202
0.00195921
0.000753629
0.0020659
0.00336337
0.0018713
0.00227605
0.000627079
0.00336781
0.00302255
0.00244912
0.000698841
0.00258433
0.00248458
0.00218446
0.00371472
0.002075
0.000909932
0.00226073
0.000506486
0.000952608
0.00159702
0.00357986
0.00184453
0.000730752
0.00160835
0.0027155
0.000854254
0.00165567
0.00432686
0.000930126
0.00569343
0.00181517
0.000621801
0.000921916
0.0027391
0.00230909
0.00096939
0.00142412
0.000566754
0.00316237
0.00117888
0.000762251
0.00139035
0.00237243
0.000804775
0.00605715
0.00135751
0.00316077
0.00294901
0.00249036
0.00272506
0.00252752
0.00089996
0.000387729
0.000643151
0.00243799
0.00189753
0.00251706
0.00463698
0.00122693
0.00158327
0.00174359
0.00227432
0.000805588
0.00271414
0.00232546
0.00318308
0.00157223
0.00181209
0.000621473
0.00101489
0.000738346
0.000770626
0.00505956
0.00186218
0.00309627
0.00139516
0.000474049
0.0018214
0.000660762
0.00115562
0.00319331
0.0112365
0.00527896
0.00188968
0.011705
0.000881455
0.00271989
0.00173836
0.00580083
0.00159397
0.0104973
0.00111711
0.00346408
0.000768346
0.000806693
0.00110769
0.00156426
0.00248877
0.00169033
0.00168373
0.00343347
0.00220732
0.00255896
0.000914041
0.0035328
0.00191652
0.00419771
0.00438264
0.00123247
0.00198778
0.00115442
0.00307088
0.00165956
0.00309639
0.00303157
0.00356133
0.00221221
0.00256589
0.00347033
0.00601505
0.00114649
0.000761609
0.00286892
0.00081494
0.00082349
0.0034095
0.00136186
0.00250961
0.00223468
0.00549392
0.00329291
0.00118345
0.0027228
0.000771704
0.001171
0.00302795
0.00323607
0.00380253
0.003347
0.00135122
0.00277706
0.000820569
0.000841131
0.00300051
0.00374485
0.00186743
0.000707275
0.00154076
0.00260932
0.00118304
0.00317105
0.000754263
0.000727685
0.000826069
0.000293445
0.000992947
0.00086703
0.00268935
0.00253445
0.000827691
0.000481629
0.000222831