/*--------------------------------*- C++ -*----------------------------------*\
| =========                 |                                                 |
| \\      /  F ield         | OpenFOAM: The Open Source CFD Toolbox           |
|  \\    /   O peration     | Version:  v1912                                 |
|   \\  /    A nd           | Website:  www.openfoam.com                      |
|    \\/     M anipulation  |                                                 |
\*---------------------------------------------------------------------------*/
FoamFile
{
    version     2.0;
    format      ascii;
    class       volScalarField;
    location    "0.61";
    object      k;
}
// * * * * * * * * * * * * * * * * * * * * * * * * * * * * * * * * * * * * * //

dimensions      [0 2 -2 0 0 0 0];


internalField   nonuniform List<scalar> 
1466
(
0.0765122
0.0923773
0.0340296
0.0563332
0.120797
0.48155
0.222616
0.169716
0.735324
0.258911
0.0687405
0.200387
0.0154918
0.0621596
0.0579709
0.0696889
0.0403711
0.0813036
0.17079
0.0571527
0.100336
0.238854
0.0537424
0.0883415
0.06305
0.0729072
0.0886321
0.139436
0.116024
0.111871
0.168746
0.563214
0.197046
0.27744
0.0802018
0.0653561
0.0457915
0.0522057
0.628582
0.153486
0.211739
0.189021
0.703973
0.235172
0.226545
0.683531
0.0557713
0.0690816
0.204761
0.0895097
0.0345833
0.199149
0.0888303
0.439781
0.0968535
0.232158
0.050293
0.0973236
0.105285
0.265877
0.0677214
0.109102
0.116068
0.485472
0.0995792
0.075575
0.209874
0.106171
0.0641943
0.220972
0.0457297
0.0607033
0.0528137
0.0569796
0.0242293
0.360629
0.0618451
0.0763739
0.16312
0.234573
0.0284182
0.0526021
0.0709532
0.216213
0.0598739
0.0690844
0.0561966
0.133403
0.0563776
0.0872441
0.0534154
0.0605609
0.215758
0.0584938
0.0383558
0.0919092
0.110057
0.102333
0.115843
0.0563833
0.171649
0.171902
0.0365649
0.0431333
0.0660034
0.768606
0.10068
0.0717179
0.116126
0.0568283
0.102011
0.0615414
0.0681132
0.0537237
0.018121
1.08761
0.0441787
0.05348
0.0963687
0.109669
0.0945828
0.089178
0.0335311
0.14848
0.0609546
0.326194
0.0449079
0.0480524
0.283787
0.131108
0.216846
0.066913
0.0474665
0.197148
0.0403924
0.199203
0.177847
0.047803
0.24813
0.0560466
0.156485
0.0601735
0.334125
0.148354
0.239951
0.0604661
0.047218
0.0565463
0.17225
0.0564159
0.345901
0.0590477
0.080142
0.110159
0.0536847
0.061371
0.0664276
0.493373
0.132918
0.0533663
0.170792
0.0695292
0.0668594
0.0943513
0.178178
0.176706
0.18016
0.0437688
0.0696669
0.100261
0.0815219
0.0633068
0.0480139
0.157827
0.0866779
0.122357
0.192613
0.286154
0.0519453
0.248904
0.0792584
0.0729585
0.256719
0.0661511
0.143199
0.0507575
0.0797394
0.95239
0.0743426
0.0424998
0.0708667
0.0592031
0.0769969
0.0904872
0.0659633
0.0670622
0.2687
0.0561244
0.0512614
0.0530957
0.208078
0.0669914
0.0695944
0.069248
0.0621469
0.239698
0.0777387
0.461534
0.0549526
0.0718326
0.0666787
0.281762
0.0640335
0.062476
0.10552
0.078686
0.0332022
0.0240861
0.0561529
0.0554062
0.163754
0.0941826
0.065751
0.0564996
0.157078
0.0576007
0.0496149
0.0774376
0.0642495
0.364138
0.0520012
0.120028
0.0506899
0.142331
0.0661298
0.0666041
0.14835
0.169322
0.168802
0.0659137
0.56598
0.193155
0.059746
0.167636
0.208328
0.0442618
0.0300159
0.0579685
0.0211881
0.0510271
0.0514457
0.258904
0.250875
0.137753
0.0538885
0.267777
0.0504129
0.145313
1.02833
0.333422
0.063088
0.0608105
0.330854
0.0495819
0.518208
0.0610886
0.840206
0.110609
0.0690036
0.0574906
0.221913
0.08307
0.0478303
0.0505164
0.057651
0.133447
0.109285
0.0716169
0.057731
0.223414
0.0619357
0.0332301
0.0552822
0.0415767
0.0887092
0.0494529
0.0947166
0.0588996
0.131384
0.0581472
0.0587003
0.86459
0.119797
0.317965
0.293357
0.0707929
0.900323
1.34826
0.0679961
0.0386866
0.063463
0.368182
0.041096
0.144277
0.0591195
0.0559696
0.0470564
0.18706
0.0281094
1.26176
0.375167
0.0426094
0.0741353
0.169609
0.246269
0.0619952
0.0983956
0.0707559
0.292232
0.054429
0.0590783
0.173668
0.282092
0.0503106
0.038045
0.0318653
0.0208182
0.0458804
0.019565
0.0228699
0.0468799
0.045601
0.0160483
0.0286509
0.0404576
0.0477185
0.0358303
0.0413486
0.0347738
0.0171078
0.0553718
0.0485182
0.016676
0.0298966
0.0386888
0.0211621
0.0480561
0.0452227
0.0833243
0.158348
0.289476
0.0580862
0.267507
0.154721
0.166257
0.0620276
0.187586
0.0524056
0.998302
0.0741291
0.116096
0.200408
0.165308
0.0304744
0.0624273
0.0429566
0.0262467
0.0148308
0.0474334
0.0525029
0.0166052
0.0419919
0.0445912
0.0459638
0.0254883
0.0433018
0.0238435
0.968384
0.0648087
0.0416603
0.0392996
0.143055
0.247795
0.0433714
0.128385
0.0860556
0.0717042
0.0777611
0.123361
0.196149
0.262309
0.186435
0.136077
1.05138
0.0345198
0.0502792
0.149929
0.0530808
0.0622035
0.0263813
0.0623512
0.0305499
0.132861
0.0559818
0.279038
0.096789
0.191157
0.936361
0.0863571
0.0802025
0.0819616
0.128313
0.043952
0.0999522
0.638653
0.343605
0.219607
0.140162
0.256647
0.307372
0.159611
0.0721353
0.265057
0.256081
0.270604
0.278511
0.21215
0.247568
0.263643
0.274684
0.0818156
0.0734121
0.281583
0.547764
0.784476
0.731057
0.510935
0.190516
0.0920969
0.0962559
0.206661
0.185537
0.409869
0.0963377
0.0989114
0.348881
0.123566
0.150847
1.25272
0.115531
1.38908
0.415655
0.0730876
0.219956
0.408593
0.0907329
0.188154
0.280865
0.0566726
0.103224
0.289571
0.282185
0.249613
0.127593
0.391275
0.118355
0.678486
0.0809144
0.0821882
0.0335757
0.508642
0.0929362
0.105507
0.0775037
0.551241
0.192224
0.0424411
0.035492
0.225047
0.473228
0.0858887
0.0900308
0.473674
0.0931694
0.255074
0.0824551
0.0875949
0.0337828
0.406344
0.329226
0.327278
0.0831848
0.0933808
0.0369035
0.136173
0.295536
0.450524
0.325266
0.137689
0.173396
0.0717504
0.0847562
0.0865558
0.114191
0.041561
0.145912
0.329044
0.105672
0.114512
0.104144
0.111007
0.416637
0.0998898
0.101292
0.0730154
0.100592
0.0743142
0.0814205
0.182321
0.142085
0.203708
0.785623
0.278268
0.678871
0.58061
0.178229
0.342459
0.218152
0.0550765
0.0409346
0.0917873
0.154648
0.104082
0.107285
0.0954868
0.262787
0.19322
0.439981
0.0779361
0.119019
0.345185
0.54025
0.155643
0.430846
0.103993
0.0705791
0.0314222
1.01333
0.65995
0.0607272
0.0834121
0.0628234
0.554386
0.257141
0.161133
0.211856
0.0715034
0.0639792
0.24728
0.113475
0.0841849
0.131755
0.193096
1.05821
0.306874
0.311558
0.0628419
0.06849
0.103811
1.11391
0.0562511
0.106162
0.108004
0.211142
0.0384995
0.123547
0.179567
0.0463253
0.102106
0.116194
0.217518
0.0687714
0.194063
0.144426
0.0572742
1.55676
0.605622
0.0633844
1.19081
0.158446
0.0374465
0.0572614
0.269518
0.035497
0.0619982
0.0776833
0.181177
0.364023
0.921666
0.143866
1.26342
0.0506529
0.0775597
0.0333358
0.0612274
0.286134
0.218884
0.083721
0.583344
1.18361
0.315322
0.727819
0.147827
0.923552
0.0341823
0.0518225
0.896311
0.0661969
0.113809
0.0468198
0.0602122
0.0707815
0.101583
0.340077
0.0618989
0.139788
0.126323
0.0699449
0.0824256
0.843152
0.305414
1.12699
0.0370679
0.0326594
0.163834
0.343929
0.164244
0.672099
0.0507695
0.075064
0.0882463
0.202627
0.0525547
0.0962704
0.0398014
0.198031
0.0347437
0.146599
0.973573
0.0882052
0.0699581
1.12414
0.356741
0.241323
0.100514
0.332098
0.554219
0.156802
0.084421
0.0355924
0.0680861
0.797982
0.19797
0.136648
0.364182
0.692576
0.213573
0.105808
0.962661
0.338992
0.0796216
0.0627399
0.0860503
0.0331834
0.0365967
0.0535496
0.150689
0.798458
0.0602759
0.182035
0.0529477
0.0613407
0.018611
0.0342286
0.173834
0.0285875
0.480141
0.0828082
0.028332
0.0778486
0.0549928
0.0729343
0.0974678
0.208725
0.50255
0.0542421
0.24538
0.0621985
0.288614
0.332529
0.104112
0.0337587
0.31327
0.249185
0.342381
0.0983205
0.270328
0.951987
0.106187
0.0469106
0.0677829
0.0203792
0.223647
0.0453157
0.0681355
0.0737877
0.277237
1.19469
0.0626874
0.0905621
0.145976
0.24423
0.0712409
0.262745
0.765317
0.0597085
0.152928
0.0667647
0.142144
0.191031
0.156708
0.0765109
0.259709
0.0487114
0.0421714
0.479829
0.0526373
0.0351378
0.0581159
1.36093
0.0313413
0.0551711
0.0201234
0.0241333
0.0376217
0.0833695
0.0411325
0.0364833
0.116549
0.210853
0.0335384
0.0462051
0.0413249
0.349377
0.181579
0.127117
1.10457
0.237487
0.0379035
0.0484871
0.0507601
0.0440205
0.320751
0.0637991
0.0694627
0.211946
0.285712
0.0485576
0.0333965
0.0361912
0.189585
0.605911
0.084758
0.0159825
0.371588
0.121824
0.05468
0.226813
0.0660453
0.284864
0.606291
0.189064
0.0223266
0.0400788
0.377743
0.211699
0.0491616
0.0878863
0.0865
0.0508565
0.0673886
0.0556123
0.0524701
0.0634862
0.0867026
0.143992
0.907881
0.0868969
0.268493
0.0286958
0.0395612
0.143316
0.055927
0.0397667
0.0364836
0.0248975
0.141974
0.056916
0.0464361
0.313606
0.825978
0.0243573
0.0869583
0.134558
0.0676387
0.448625
0.0674313
0.0301843
0.0965742
0.407283
0.679273
0.0574955
0.230859
0.332015
0.0441606
0.044097
0.0862473
0.0577564
0.0615226
0.0339115
0.0586834
0.315663
0.0495539
0.037051
0.0482427
0.0516746
0.421514
0.344837
0.0454046
0.168254
0.0249765
0.060106
0.25151
0.137939
0.0728532
0.30102
0.248302
0.226555
0.187531
0.318329
0.207639
0.244823
0.150121
0.179484
0.0306997
0.0389197
0.180677
0.0482957
0.0363552
0.0528926
0.588387
0.0578816
0.742376
0.113042
0.0620902
0.0496324
0.069304
0.074392
0.169805
0.0396436
0.0687449
0.0574616
0.126782
0.300288
0.0333964
0.0590982
0.0518477
0.101006
0.764029
0.17759
0.0571647
0.0363949
0.0733432
0.0864986
0.0730228
0.0330802
0.102291
0.407068
0.206966
0.175927
0.203168
0.0614116
0.0392142
0.0620162
0.0657978
0.890175
0.0642148
0.0723318
0.100652
0.0970013
0.103799
0.092702
0.157866
0.0896613
0.180225
0.0456649
0.0690122
0.0658195
0.210799
0.0357852
0.0752815
0.0382838
0.201646
0.0432578
0.261586
0.0207284
0.237392
0.055615
0.101807
0.067789
0.106949
0.0535466
0.112099
0.444082
0.202517
0.0671401
0.0972037
0.0892246
0.263571
0.0977812
0.051939
0.114227
0.189668
0.147873
0.0180134
0.949394
0.0800177
0.264368
0.0736987
0.0246664
0.0242053
0.0196199
0.0212754
0.0482104
0.0428417
0.0512691
0.051143
0.0256533
0.0530439
0.0561308
0.024777
0.0228217
0.0222847
0.109265
0.0218729
0.0214785
0.226445
0.02366
0.195327
0.0388908
0.0581297
0.93386
0.238654
0.0776954
0.0705569
0.0213602
0.17013
0.0606986
0.0332954
0.0787726
0.0586575
0.151058
0.0327473
0.0336981
0.166183
0.0586769
0.0695173
0.0562386
0.0589873
0.0728658
0.160873
0.244992
0.860671
0.35235
0.100423
0.034316
0.234944
0.0765814
0.0633918
0.10864
0.101309
0.15244
0.0589092
0.0592928
0.112527
0.0379045
0.044036
1.38645
0.133109
0.875982
0.0591618
0.059114
0.259184
0.0878439
0.201246
0.0670435
0.0707569
0.675015
0.0784904
0.0563975
0.0869073
0.0563325
0.0442885
0.338778
0.0964998
0.210558
0.0749476
0.0652131
0.123814
0.210265
0.0595478
0.0566009
0.501829
0.224711
0.364697
0.173756
0.22544
0.141128
0.11178
0.513686
0.0930457
0.0335971
0.443017
0.0462608
0.0437206
0.28069
0.790258
0.0103464
0.13811
0.194832
0.814656
0.0110969
0.0680198
0.0770788
0.140149
0.165878
0.128311
0.0176449
0.224426
0.0778003
0.0739594
0.029945
0.0420354
0.255909
0.0553571
0.284808
0.812995
0.0386562
0.0737713
0.254796
0.890073
0.0567872
0.0345359
0.0191312
0.075293
0.0786392
0.0549515
1.17398
0.124833
0.207237
0.107593
0.0619093
0.0717525
0.0805002
1.05398
0.0613125
0.182308
0.224877
0.0353302
0.0621987
0.18226
0.045992
0.0450005
0.112028
0.0377885
0.220682
0.974269
0.235586
0.0332407
0.0673209
0.0977777
0.23339
0.069195
1.0488
0.060657
0.0375726
0.0749976
0.0754181
0.196777
0.0791727
0.0415938
0.0488117
0.0707899
0.113162
0.0815687
0.0275536
0.0170612
0.0443741
0.12132
0.0583549
0.0800221
0.15844
0.0579127
0.0914949
0.10336
0.0542647
0.0629468
0.0632899
0.054521
0.130207
0.0355517
0.0312535
0.215529
0.0469622
0.0425636
0.0441202
0.0443892
0.0339892
0.0956001
0.104365
0.0415441
0.0923049
0.0571558
0.230201
0.0431575
0.046266
0.300077
0.0516349
1.16935
0.0562124
0.057295
0.105059
0.111255
0.0813372
0.072912
0.236197
0.0157988
0.0868202
0.21385
0.049391
0.0799343
0.0466574
0.0490711
0.0582496
0.0455582
0.154429
0.0482465
0.0430676
0.20087
0.042314
0.034648
0.131425
0.815042
0.0723564
0.230663
0.0464898
0.0625016
0.0690401
0.0340685
0.0299118
0.0479117
0.0703395
0.893336
0.0378078
0.0555596
0.198099
0.511844
0.114508
0.065177
0.0979761
0.049937
0.142997
0.0867682
0.0661674
0.0443881
0.0310312
0.101096
0.0899334
0.137434
0.101848
0.0881162
0.0634853
0.0763373
0.0530237
0.0564351
1.19269
0.167013
0.143938
0.0299969
0.315513
0.0784831
0.0659093
0.667095
0.0591106
0.0570963
0.0939819
0.0496265
1.23657
0.0583627
0.980954
0.134639
0.0843265
0.037208
0.0864269
1.0828
0.0652427
0.171637
0.225952
0.197183
0.0672475
0.134614
0.0896094
0.0997541
0.0755419
0.0435373
0.0568448
0.0499585
1.47287
0.175816
0.0698415
0.0624335
0.0736078
0.0293705
0.056866
0.0499986
0.275264
0.0325821
0.335901
0.055395
0.0327475
0.215044
0.0536469
0.974793
1.28977
0.170337
1.23469
0.0645016
0.0718825
0.0340082
0.0754005
0.185798
0.873292
0.208184
0.648995
0.194265
0.0734727
0.0667123
0.312299
0.227155
0.0516347
0.150694
0.0971355
0.073756
0.141192
0.214055
0.0643537
0.0653295
0.222666
0.0382933
0.0187891
0.0555371
0.147284
0.281504
0.0225224
1.50214
0.241101
0.535186
0.105343
0.0563914
0.0615942
0.0359843
0.140197
0.279697
0.918525
0.0577788
0.0505907
0.207243
0.175687
0.0842966
0.063084
0.16053
1.32817
0.251588
0.0339321
0.632091
0.298604
0.194305
0.016556
0.258518
0.0716305
0.125466
0.712907
0.0115147
0.0815858
0.0524231
0.263998
0.0875354
0.591164
0.0105393
0.152711
0.199625
0.0825143
0.086292
0.0549381
0.0703096
0.234699
0.037359
0.200475
0.0595134
0.802445
0.0584524
0.0960292
0.25681
0.0641532
0.21424
0.224031
0.0355203
0.236638
0.12923
0.348749
0.0890176
0.92238
0.0585579
0.0687079
0.28977
0.0560539
0.213279
0.0589769
0.0648124
0.0545851
0.108157
0.091859
0.0456941
0.0630707
0.0772428
0.0436102
0.112467
0.0402776
0.0573256
0.0567379
0.204024
0.0663776
0.22981
0.0592664
0.0720324
0.108863
0.197383
0.188939
0.0415014
0.162668
0.0574628
0.0698668
0.054783
0.0322938
0.0366912
0.086297
0.0398631
0.33161
1.05611
0.0158519
0.0605812
0.0657847
0.0755902
0.0822741
0.0411031
0.0613009
0.0453849
0.176293
0.0625044
0.0492617
0.0485281
0.0520786
0.0976944
0.0650934
0.293612
0.0637433
0.0729954
0.138188
0.0837008
0.0960129
0.0562761
0.118345
0.0413897
0.111578
0.0579501
0.0196561
0.0566922
0.0750656
0.245199
0.0411383
0.260069
0.294678
1.00487
0.0664964
0.0757666
0.252459
0.0369645
0.123737
0.0634226
0.100075
0.064858
0.0624581
0.113779
0.0585153
0.090431
0.0749107
0.0852547
0.177989
1.35832
0.172709
0.617522
0.0565046
0.0832477
0.0626363
0.0545939
0.263379
0.362176
0.0626086
0.0588915
0.0605679
0.0902435
0.0826036
0.0615218
0.0658849
0.070511
0.0859061
0.129251
0.0555022
0.0860429
0.094362
0.101834
0.241328
0.0504934
0.240437
0.222849
0.0338858
0.0653407
0.100278
0.0605588
0.0736987
0.332948
0.0230884
0.247177
0.660322
0.796895
0.0592339
0.137544
0.695637
0.0332099
0.620218
0.193832
0.426603
0.104278
0.219875
0.141105
0.16153
)
;

boundaryField
{
    frontAndBack
    {
        type            empty;
    }
    wallOuter
    {
        type            kqRWallFunction;
        value           nonuniform List<scalar> 
102
(
0.0154918
0.0154918
0.0537424
0.0242293
0.018121
0.0281094
0.0345198
0.018611
0.0487114
0.0421714
0.0526373
0.0351378
0.0551711
0.0201234
0.0241333
0.0376217
0.0411325
0.0462051
0.0507601
0.0485576
0.0159825
0.0223266
0.0400788
0.0286958
0.0395612
0.0441606
0.044097
0.0306997
0.0528926
0.0432578
0.0207284
0.0246664
0.0242053
0.0196199
0.0212754
0.0482104
0.0428417
0.0512691
0.051143
0.0256533
0.0530439
0.0561308
0.024777
0.0228217
0.0222847
0.0218729
0.0214785
0.0388908
0.0581297
0.0586575
0.0327473
0.0586769
0.0589873
0.0589092
0.0592928
0.044036
0.0591618
0.059114
0.0563325
0.0442885
0.0462608
0.0103464
0.0110969
0.0176449
0.0553571
0.0191312
0.0619093
0.045992
0.0450005
0.0375726
0.0415938
0.0488117
0.0170612
0.0443741
0.0583549
0.0542647
0.0355517
0.0425636
0.0956001
0.0516349
0.057295
0.0157988
0.0455582
0.0482465
0.0723564
0.0479117
0.0555596
0.0443881
0.0530237
0.0499585
0.0382933
0.0187891
0.016556
0.0115147
0.0105393
0.0549381
0.0560539
0.0456941
0.0436102
0.0158519
0.0411031
0.0453849
)
;
    }
    inlet
    {
        type            fixedValue;
        value           nonuniform 0();
    }
    outlet
    {
        type            zeroGradient;
    }
    wallInner
    {
        type            kqRWallFunction;
        value           nonuniform List<scalar> 
138
(
0.0687405
0.0403711
0.116024
0.111871
0.199149
0.0888303
0.439781
0.0968535
0.109102
0.0605609
0.171649
0.0431333
0.0335311
0.156485
0.0601735
0.0604661
0.047218
0.0437688
0.0424998
0.0708667
0.0592031
0.0240861
0.059746
0.0442618
0.0300159
0.0579685
0.0211881
0.0510271
0.518208
0.0332301
0.0552822
0.0588996
0.0503106
0.038045
0.0318653
0.0208182
0.0458804
0.019565
0.0228699
0.0468799
0.045601
0.0160483
0.0286509
0.0404576
0.0477185
0.0358303
0.0413486
0.0347738
0.0171078
0.0553718
0.0485182
0.016676
0.0298966
0.0386888
0.0211621
0.0480561
0.0452227
0.0524056
0.0304744
0.0624273
0.0429566
0.0262467
0.0148308
0.0474334
0.0525029
0.0166052
0.0419919
0.0445912
0.0459638
0.0254883
0.0433018
0.0238435
0.0416603
0.0263813
0.0623512
0.043952
0.0999522
0.0721353
0.784476
0.206661
0.0566726
0.118355
0.0335757
0.0424411
0.035492
0.136173
0.137689
0.173396
0.0865558
0.678871
0.58061
0.0550765
0.0314222
0.179567
0.0374465
0.0572614
0.101583
0.0326594
0.136648
0.0365967
0.0535496
0.028332
0.0203792
0.0581159
0.0313413
0.084758
0.0508565
0.0248975
0.0243573
0.0301843
0.037051
0.168254
0.0249765
0.0482957
0.0574616
0.0456649
0.0180134
0.02366
0.0213602
0.0563975
0.501829
0.224711
0.0437206
0.0621987
0.060657
0.0312535
0.049391
0.0466574
0.0625016
0.049937
0.0672475
0.123737
0.620218
0.193832
0.104278
0.219875
0.141105
0.16153
)
;
    }
    procBoundary2to0
    {
        type            processor;
        value           nonuniform List<scalar> 
42
(
1.51362
1.51362
0.0704678
0.0572722
0.201642
1.16299
0.0850249
0.0850249
0.12497
0.0931573
0.510863
0.510863
0.332233
0.680069
0.904951
0.928003
1.2599
0.0929144
0.0986983
0.53799
0.415066
0.0879172
0.0879172
0.397187
0.415066
0.0870761
0.509832
0.0761318
0.509832
1.64888
1.49714
0.0630984
0.0516116
0.0496974
0.0564421
0.0572722
1.2599
0.0392294
0.7724
0.0902795
0.0902795
0.0690496
)
;
    }
    procBoundary2to1
    {
        type            processor;
        value           uniform 0.685362;
    }
    procBoundary2to3
    {
        type            processor;
        value           nonuniform List<scalar> 
29
(
0.153397
0.162924
0.0801529
0.0671514
0.412702
0.0720714
0.201865
0.148646
0.175385
0.139649
0.107112
0.476197
0.112478
0.395926
0.332779
0.372863
0.164738
0.164738
0.162924
0.395926
0.369406
0.154655
0.125965
0.163883
0.262995
0.109771
0.175385
0.632144
0.476197
)
;
    }
}


// ************************************************************************* //
