/*--------------------------------*- C++ -*----------------------------------*\
| =========                 |                                                 |
| \\      /  F ield         | OpenFOAM: The Open Source CFD Toolbox           |
|  \\    /   O peration     | Version:  v1912                                 |
|   \\  /    A nd           | Website:  www.openfoam.com                      |
|    \\/     M anipulation  |                                                 |
\*---------------------------------------------------------------------------*/
FoamFile
{
    version     2.0;
    format      ascii;
    class       volScalarField;
    location    "0.12";
    object      k;
}
// * * * * * * * * * * * * * * * * * * * * * * * * * * * * * * * * * * * * * //

dimensions      [0 2 -2 0 0 0 0];


internalField   nonuniform List<scalar> 
1431
(
0.269193
1.1217
0.499077
1.20085
0.226272
0.119292
0.145792
0.197485
0.735103
0.334452
0.181386
0.33621
0.222335
1.1267
0.833771
0.376066
0.831235
0.091746
0.0881553
0.201704
0.231581
0.290204
0.258174
1.2818
0.93362
0.233095
1.05197
0.995947
0.489636
0.619864
1.88756
0.363606
0.208153
0.0954936
0.105732
0.860168
0.337052
0.316403
0.116415
0.30935
2.44877
0.74298
0.121229
0.104349
0.262093
0.163816
0.815685
0.224485
0.906746
0.398384
0.326938
0.298917
0.202096
0.125222
0.124016
0.205306
0.247846
0.136428
0.798142
0.204404
0.935978
0.143823
0.792608
0.292675
0.61696
0.0800636
0.368197
0.0810609
0.514023
0.324079
0.106109
0.0952672
0.395253
0.106601
0.291848
0.181417
0.241481
0.35597
0.223768
1.47891
0.269772
0.184445
0.400328
1.19548
1.79086
0.226252
0.234433
0.535697
1.46857
0.267837
0.13406
0.765174
0.236466
0.314671
0.113558
0.231026
0.297206
0.277909
0.206632
1.37881
0.52712
0.223042
0.169542
0.217402
0.594793
0.190486
0.24013
2.46347
2.56976
0.227896
1.77407
0.0782077
0.215314
0.175091
0.498506
0.220156
0.10373
0.95773
1.69398
0.234478
0.293301
0.190752
0.353322
1.62775
0.293813
0.232852
1.95971
0.349907
0.227042
0.489511
0.0773264
2.32241
0.735735
0.157359
0.236192
0.887646
0.309997
0.0847662
0.136681
2.08593
0.403872
0.145412
0.290633
1.10987
1.54327
0.37487
0.270882
2.42695
0.295304
0.709254
0.510433
0.675109
0.810685
0.390129
0.0876605
0.320304
0.283549
0.138413
0.207601
0.376393
0.0837901
0.226556
0.169857
0.387176
0.220747
2.4645
0.229884
0.305991
0.445662
0.233513
1.02101
0.373804
1.71283
0.388048
0.283335
0.127677
0.217227
0.494272
0.755406
0.263704
0.316872
0.980559
0.20594
0.262745
0.349334
0.645262
0.231151
0.874544
0.264036
0.299781
1.33662
0.90236
0.230824
0.254336
1.37354
0.276116
0.234106
0.262029
0.177316
0.210143
0.295791
0.739301
0.564526
2.32779
0.246497
1.40259
0.230784
0.305307
0.272524
0.472657
0.264506
0.215436
2.02522
0.299766
0.149492
0.133463
0.201357
1.5672
0.997584
0.304517
0.291964
1.42682
0.433497
0.744553
0.318754
0.525496
1.04117
0.201915
0.515762
2.14137
0.221875
0.814332
0.303517
0.201419
0.196927
0.204632
0.29158
0.229295
0.274743
0.454626
0.312325
0.45823
0.420443
0.8546
0.267228
0.254409
0.309443
0.118937
0.0862401
0.819107
0.335783
0.524105
0.288566
0.484075
0.830318
0.671698
0.247912
0.539101
0.637832
0.658194
0.682302
0.306437
0.21105
0.378347
0.198558
0.474009
0.593801
0.250759
0.408977
0.277231
0.239504
1.01527
0.310146
0.294068
0.695826
0.272311
0.139889
0.654483
0.145425
0.379451
1.09203
0.456478
0.85687
0.133535
0.623926
0.909146
0.224524
0.196417
0.679574
0.292828
0.392795
0.336659
0.20508
1.18661
0.395771
0.214199
0.228395
0.251854
0.623747
0.316542
0.323674
1.18587
0.545957
0.388472
0.11982
0.677765
0.281895
0.663755
0.64679
0.0733835
0.304954
0.338106
1.34983
0.158422
0.229251
0.709997
0.42876
0.493615
0.197932
0.256347
0.59936
0.223458
0.456205
0.524021
0.733645
0.265496
0.25754
0.35822
2.24605
0.294116
1.07348
0.454166
0.382223
1.2811
0.278185
0.876919
0.511187
0.145412
0.365863
0.191461
0.239826
0.2637
0.299994
0.433179
0.867625
0.355841
0.323404
0.0775581
0.0530403
0.0474267
0.0941918
0.0538282
0.0787304
0.070634
0.26
0.190801
0.0585623
0.332595
0.0591692
0.168325
0.346158
0.228701
0.0901852
0.0602486
0.0523162
0.0669445
0.176002
0.149894
1.30486
1.08502
0.93426
0.413103
0.269583
0.50329
1.1682
2.10654
1.04547
0.328243
0.362169
0.0701327
0.0586373
0.0648813
0.0520715
0.0649036
0.183256
0.124141
0.148382
0.30253
0.0610888
0.0562089
0.0845252
0.872803
0.834119
0.36226
0.30078
0.0674744
0.0985947
0.315659
0.690999
0.280264
0.170002
1.04084
0.308121
0.266128
1.1324
0.337312
0.39527
0.345715
0.0707046
1.08389
0.620817
0.688625
0.11587
1.22272
1.31965
0.726081
1.03835
0.224826
0.359295
0.080719
0.541529
1.1082
0.549249
1.19274
1.15421
1.12515
1.2608
0.923841
0.281135
1.15333
0.297561
1.09691
0.526838
0.970033
0.458093
1.24424
1.00181
0.97143
1.31738
0.109519
0.135717
0.261682
1.02873
1.15212
0.784639
0.849278
0.882549
1.23833
0.957217
0.875004
0.874349
0.624201
0.909427
0.495838
1.05993
0.449739
0.569486
0.715789
0.494946
0.421202
0.291865
0.321485
0.130371
0.211509
0.34652
0.305521
0.0700952
0.652565
0.16099
0.32824
1.16415
0.0878871
0.401478
0.756641
0.164321
0.339423
1.26486
1.0566
0.821438
0.68795
1.10412
0.102409
0.764176
0.207481
0.781545
0.129565
0.198384
0.637845
0.82316
0.920732
0.863135
0.404595
0.380523
1.23057
0.515981
0.126011
0.520304
1.37366
0.32527
1.30266
0.171688
1.28482
0.909328
0.980485
1.1339
1.68072
0.355857
0.606816
0.68348
0.253373
0.233363
1.43458
0.227406
1.16809
0.316184
0.517248
0.931741
0.92549
0.892341
0.306233
1.93591
1.33501
1.61537
0.0704736
0.108801
0.984796
0.917973
0.776996
1.38166
1.1293
0.720069
0.373819
1.36141
1.49811
0.772643
0.93508
0.855415
1.09472
0.882843
0.875593
0.922887
0.918889
1.01348
0.162076
0.0566789
0.598051
0.98991
0.21719
0.672379
0.381815
1.25456
0.0809967
0.635418
0.922207
0.368906
1.08421
0.827587
1.04756
0.633419
0.195604
0.889411
1.23937
0.884088
0.864457
0.236636
0.0739592
0.876078
0.216917
1.04691
1.07626
0.0828195
0.651529
0.985597
0.624143
0.816637
0.123836
0.99099
1.05286
1.30059
0.439217
0.160822
0.223189
0.971395
0.994237
0.585004
1.08403
0.98599
0.322702
0.242988
0.448366
0.204678
0.151752
0.359688
0.299673
0.27743
1.20314
0.104712
1.45914
0.219418
0.369747
1.03231
0.914542
0.358225
0.968553
0.895829
0.663079
0.211639
0.380499
0.541689
1.44365
0.958034
0.811226
0.085422
0.895358
1.19649
0.21516
2.13272
0.451529
0.882552
0.700861
0.29591
0.603669
0.108682
0.394972
1.59826
0.318622
0.262001
0.114962
0.852548
0.229726
0.533623
0.0983574
0.121817
0.238303
0.503716
0.825166
0.340612
0.22025
0.560115
0.109332
0.963479
0.461109
0.24717
0.782187
1.99718
0.838983
0.976248
0.188619
0.248444
0.0956744
0.158331
0.604382
0.261956
0.678385
0.19054
0.852036
0.256827
0.332242
1.19694
0.745171
0.94949
0.122084
0.127609
0.13102
0.282875
0.367785
0.359204
0.567343
0.720626
1.04499
0.115069
0.264332
0.121928
0.857308
0.673791
0.579923
0.152097
0.148212
0.24389
0.494229
0.987076
0.0764281
0.338967
0.0964663
1.33681
0.980192
1.1056
0.833161
1.06745
0.117519
2.39127
0.859314
0.889608
0.243792
0.851126
0.314603
0.0624454
0.0838407
0.27262
0.239078
0.886551
0.384324
0.194583
0.295058
0.231751
0.701986
0.627764
0.71726
0.363015
2.71361
0.756951
0.0886389
0.315823
0.528386
0.898387
0.421144
1.00918
1.60382
0.262634
0.161967
0.41349
0.300197
0.217952
1.32694
0.182267
0.427091
0.385532
1.18142
0.613975
0.483257
0.268298
0.118163
0.542271
0.491689
1.08191
0.195244
0.124908
1.05409
0.818562
0.127463
0.841251
0.394088
0.369596
0.139132
0.587062
0.404668
0.209932
0.582925
1.2849
0.548069
0.305049
0.196227
0.471355
0.486314
0.130481
0.0929381
0.350128
0.529083
0.421525
2.24473
0.173824
0.794578
0.755843
0.795306
0.309225
0.213674
0.628179
0.920819
0.61554
0.472467
1.14668
1.36621
0.0969298
0.238898
0.797331
0.558794
0.143089
0.967116
1.05944
0.484174
0.482534
0.0578302
0.507324
0.489987
0.0862133
1.29454
0.0841709
0.239696
0.069451
2.49851
0.132192
0.195555
0.939881
0.631542
0.362665
0.309728
0.106816
0.221568
1.00598
0.229784
0.896459
0.806828
0.295955
0.246461
0.0633503
0.632326
0.862726
0.0834995
0.171017
0.24982
0.280906
0.234719
0.179199
0.114044
1.33971
0.535432
0.523415
0.513139
0.527016
0.501487
0.5077
0.508373
0.531969
0.880829
0.627852
0.386136
0.43369
0.812483
0.218992
0.111665
0.141874
0.070728
0.113188
0.120264
0.155453
0.586983
1.19782
0.637
0.205615
1.02305
0.196235
0.429075
0.270299
0.505115
1.26637
0.345684
0.299073
0.819591
0.674668
0.237057
0.974731
1.25203
0.733365
0.0462185
0.911099
0.111399
0.227059
0.15608
0.320714
0.34742
0.224916
0.129732
0.424857
0.0921519
0.409173
0.254885
0.215826
0.20421
0.100005
0.149603
0.611451
0.877619
0.140328
1.32669
0.0705062
0.246051
0.144905
0.113261
0.589118
0.248196
0.16684
0.239163
0.0842328
0.0713959
0.295318
0.266903
0.112617
0.284843
0.256934
0.378366
0.446806
1.40709
0.175382
0.269828
0.289758
0.381367
0.0752804
0.198695
0.926946
0.458633
0.411804
0.292554
0.649936
0.620731
0.786528
0.716207
0.501328
0.251543
0.0714024
0.0450704
0.130702
0.222876
1.8905
0.196987
0.48934
1.01147
1.14205
0.358717
0.307559
0.329558
1.16982
0.219248
0.112857
0.232954
0.211346
0.712321
0.247292
0.527668
0.453118
0.715031
0.953241
0.207103
0.294206
0.141576
0.139363
0.132585
0.177865
0.154999
0.174506
0.908585
0.0669558
0.0989217
0.250533
0.192454
0.261086
0.0833608
1.76421
0.234495
0.11302
0.212822
0.541485
0.152222
0.441339
0.917959
1.474
0.397909
0.203297
0.0821959
0.895344
0.0852746
0.300708
1.08224
0.270797
0.142915
0.789225
0.219264
0.210861
0.888708
0.143343
1.32159
0.863295
0.413592
0.736916
0.658393
0.452868
0.284945
0.239771
0.222067
0.222369
0.0686623
1.21259
0.429043
0.999278
0.959106
0.430166
0.698974
0.165912
1.11059
0.209728
0.684955
0.166211
0.252758
1.00334
1.30424
0.328118
0.379341
1.02626
0.672469
1.98424
0.225888
0.181955
0.191208
0.464208
0.150992
0.118725
0.199354
0.210024
0.848511
0.350519
0.13254
0.987284
0.435841
0.227998
0.28408
0.748141
1.67588
0.882462
0.43801
0.0907289
0.461695
1.00826
0.261143
0.338055
0.240117
0.796478
0.37315
0.587424
0.180008
0.311348
2.47635
0.983839
0.337484
1.3274
1.41942
0.731541
0.429902
1.15267
0.316647
1.07492
0.0954453
0.820708
0.226425
0.0976565
0.165138
1.11062
0.278743
0.351456
0.434123
0.19969
0.822277
0.34273
0.461375
0.330097
1.05876
0.103545
0.113475
0.125031
0.433077
0.691759
0.265731
1.1094
1.09897
0.349716
0.599028
0.27419
0.132697
0.297567
0.309841
0.327596
0.382633
0.114962
0.202128
0.507836
0.795909
0.244078
0.885896
0.154159
0.78674
0.353314
0.355186
0.152261
1.0573
0.586264
0.0694563
0.396184
0.159362
0.580457
0.748278
0.463193
0.833591
0.193304
0.385005
0.579689
0.270015
0.50781
0.240916
0.504698
0.334473
0.23205
1.04648
1.55526
0.181319
0.331758
0.923967
0.0631326
0.376368
0.937743
0.110004
0.207234
0.644104
0.172089
0.832679
1.05306
0.630826
0.0852771
0.724642
1.37061
0.220221
0.445545
0.24793
0.237228
0.212832
0.367402
0.160999
1.0885
0.221982
0.344469
0.240637
0.144521
0.11428
0.356414
0.0507735
0.273087
1.19503
0.499292
0.252105
0.732858
0.633647
0.354897
0.0768713
0.146882
0.0975858
1.50925
0.421811
0.140866
0.206948
0.762295
0.184003
1.49456
0.259503
0.261454
0.0935449
0.168029
0.827232
0.224857
0.14826
1.76031
0.885806
0.626516
0.288067
1.29997
0.137463
0.0683791
0.122073
0.494421
1.98505
0.777919
0.0857451
0.165139
0.19975
0.336486
0.142492
1.05705
0.993404
0.606895
0.366343
0.209384
0.0476828
0.360853
0.717216
0.88693
0.281293
0.219048
0.226098
0.441186
0.637253
0.592208
0.877516
0.431771
0.0765301
0.27681
1.05669
0.543447
0.171808
1.17184
0.414513
0.814097
0.43891
0.357277
0.305258
0.811567
0.341148
0.173316
0.388564
0.909088
0.692719
0.346863
0.28849
0.516235
0.351645
0.360015
0.844596
0.435291
0.251199
0.256817
0.0754153
0.663868
0.776301
0.535453
1.5533
0.114949
0.484235
0.429817
0.164847
0.906927
0.236793
0.22796
0.45042
0.414647
0.344185
0.620004
1.64816
0.226284
1.01265
0.148996
0.924802
0.875878
0.236769
0.250866
0.141876
0.0935303
1.52902
0.804801
0.130842
0.110213
0.337625
0.187686
0.229608
1.19067
0.340925
0.226995
0.442814
0.201699
0.0775463
1.78731
0.72883
1.50619
0.462214
0.46272
0.0869355
0.307339
0.605207
1.27647
0.353939
0.398156
0.341061
1.05318
0.368765
0.339248
1.39516
1.15566
0.291938
0.0677831
0.265316
0.183007
0.225978
0.395601
0.284192
0.57076
0.728974
0.246565
0.755699
0.26563
0.439236
0.917988
1.6625
0.978495
1.05944
0.335153
0.0826583
1.52064
0.790002
0.264853
0.482621
0.317227
0.350908
0.0744615
0.828291
0.225368
0.118168
0.768763
0.228714
0.937708
1.01711
0.483898
0.921447
0.391025
0.329088
0.730276
0.525049
0.334214
0.436872
0.184981
0.340412
0.802643
0.219166
1.07569
1.00749
0.118852
0.207944
0.207258
0.190316
0.307894
0.500731
0.386717
1.21191
0.76644
0.356507
0.389463
0.133603
0.848568
0.924583
0.199239
0.208822
0.215201
0.406772
1.35974
0.231395
0.729826
0.221745
0.300052
0.807194
0.823661
1.12339
0.134356
0.348741
0.957954
0.212342
0.0653049
0.445499
0.379159
0.5196
1.06858
0.896286
0.135605
0.2238
0.0831961
0.551456
0.321422
1.3573
0.0788662
0.284999
0.340716
0.296909
0.691175
0.296699
0.295517
0.210407
0.519182
0.394961
0.638416
0.344067
0.288582
0.71194
0.912832
0.141296
0.887522
0.491908
0.286199
0.485358
0.216239
0.899268
0.249765
2.47078
0.235023
0.731032
1.6237
0.336737
1.02936
0.221139
0.427804
0.304626
0.917599
0.141386
0.733742
0.393847
0.772818
0.406523
0.277504
0.264453
0.343442
0.342426
0.276498
0.915984
0.38732
0.941643
0.640808
0.596559
0.656546
0.206083
0.723138
0.347437
1.25855
0.432225
0.317557
0.360724
1.27327
0.461314
1.29024
0.381152
0.898224
0.467703
0.209858
0.536011
0.439942
0.113847
0.124018
0.994451
0.0873662
0.133406
0.199061
)
;

boundaryField
{
    frontAndBack
    {
        type            empty;
    }
    wallOuter
    {
        type            kqRWallFunction;
        value           nonuniform List<scalar> 
90
(
0.376066
0.421144
0.41349
0.427091
0.613975
0.542271
0.491689
0.587062
0.404668
0.471355
0.486314
0.61554
0.472467
0.558794
0.507324
0.939881
0.535432
0.523415
0.513139
0.527016
0.501487
0.5077
0.508373
0.531969
0.505115
0.786528
0.716207
0.527668
0.715031
0.141576
0.139363
0.132585
0.177865
0.154999
0.174506
0.192454
0.212822
0.152222
0.441339
0.203297
0.219264
0.210861
0.888708
0.143343
0.222067
0.222369
0.209728
0.684955
0.166211
0.672469
0.748141
0.311348
0.461375
0.599028
0.507836
0.152261
0.159362
0.580457
0.748278
0.385005
0.50781
0.240916
0.181319
0.923967
0.644104
0.630826
0.724642
0.160999
1.0885
0.221982
0.626516
0.137463
0.777919
0.19975
0.993404
0.88693
0.431771
0.543447
0.171808
0.814097
0.429817
1.01265
0.148996
0.462214
0.246565
0.190316
1.12339
0.134356
0.5196
0.394961
)
;
    }
    inlet
    {
        type            fixedValue;
        value           uniform 0.375;
    }
    outlet
    {
        type            zeroGradient;
    }
    wallInner
    {
        type            kqRWallFunction;
        value           nonuniform List<scalar> 
138
(
0.33621
0.0881553
0.208153
0.0954936
0.105732
0.74298
0.368197
0.0810609
0.106109
0.0952672
0.181417
0.735735
0.390129
0.0876605
0.127677
0.217227
0.177316
0.210143
0.295791
0.739301
0.744553
0.671698
0.247912
0.637832
0.658194
0.682302
0.593801
0.695826
0.623926
0.663755
0.64679
0.239826
0.355841
0.0775581
0.0530403
0.0474267
0.0941918
0.0538282
0.0787304
0.070634
0.26
0.190801
0.0585623
0.332595
0.0591692
0.168325
0.346158
0.228701
0.0901852
0.0602486
0.0523162
0.0669445
0.176002
0.149894
0.0701327
0.0586373
0.0648813
0.0520715
0.0649036
0.183256
0.124141
0.148382
0.30253
0.0610888
0.0562089
0.0845252
0.170002
0.688625
0.726081
0.526838
0.261682
0.784639
0.957217
0.321485
0.756641
0.68795
0.764176
0.920732
0.863135
0.404595
0.515981
0.520304
1.28482
0.253373
0.233363
0.92549
0.0566789
0.0809967
0.635418
0.633419
0.0828195
0.369747
0.121817
0.367785
0.0764281
0.0624454
0.0838407
0.483257
0.118163
0.369596
0.173824
0.628179
0.797331
0.0578302
0.631542
0.0633503
0.141874
0.637
0.205615
0.0462185
0.0450704
0.712321
0.0669558
0.0989217
0.0833608
0.658393
0.698974
0.165912
0.181955
0.191208
0.691759
0.154159
0.78674
0.0631326
0.0507735
0.499292
0.762295
0.184003
0.0476828
0.360853
0.164847
0.360724
0.536011
0.439942
0.113847
0.994451
0.0873662
0.199061
)
;
    }
    procBoundary0to1
    {
        type            processor;
        value           nonuniform List<scalar> 
29
(
0.129462
0.155391
0.0899369
0.0899369
0.299683
0.299683
2.3728
0.0693775
0.180863
0.093928
0.0834518
0.172062
0.0760356
0.0986491
2.71162
1.83842
0.281534
0.319131
0.0936877
0.151656
0.873406
0.381767
0.240162
0.400526
0.38657
0.319131
0.362411
0.751255
0.400526
)
;
    }
    procBoundary0to2
    {
        type            processor;
        value           nonuniform List<scalar> 
42
(
0.247843
0.244739
0.21193
0.211295
0.138257
0.247843
0.21193
0.186375
0.106651
0.0756061
0.234271
0.241077
0.234271
0.238047
0.246481
0.210282
0.246481
0.0707404
0.0866576
0.124627
0.124627
0.0707404
0.0700191
0.111861
0.111861
0.0758304
0.133666
0.0903653
0.182796
0.284046
0.284046
0.109534
0.120329
0.118745
0.112848
0.21193
0.240031
0.151986
0.182796
0.186375
0.136893
0.115427
)
;
    }
}


// ************************************************************************* //
