/*--------------------------------*- C++ -*----------------------------------*\
| =========                 |                                                 |
| \\      /  F ield         | OpenFOAM: The Open Source CFD Toolbox           |
|  \\    /   O peration     | Version:  v1912                                 |
|   \\  /    A nd           | Website:  www.openfoam.com                      |
|    \\/     M anipulation  |                                                 |
\*---------------------------------------------------------------------------*/
FoamFile
{
    version     2.0;
    format      ascii;
    class       surfaceScalarField;
    location    "0.12";
    object      phi;
}
// * * * * * * * * * * * * * * * * * * * * * * * * * * * * * * * * * * * * * //

dimensions      [0 3 -1 0 0 0 0];
oriented        oriented;


internalField   nonuniform List<scalar> 
2708
(
-3.34953e-05
0.000148998
1.55126e-05
-0.000131015
-0.000329016
0.000417994
-0.000278949
0.000189971
0.000270345
0.000176815
-0.000331364
-0.000115796
-0.000312722
0.000168268
3.94614e-05
0.000104992
-3.98819e-05
2.06237e-05
0.000151407
-0.000132149
-0.000192956
-0.000147354
0.000165117
0.000175192
0.000173694
2.15775e-05
0.000614999
-0.000814377
0.000996247
-0.000796869
-0.000265718
0.000326183
-0.000327737
0.000267272
0.000191599
0.000211057
-0.00015586
-0.000246796
-0.000136749
4.88065e-05
-3.06955e-05
0.000118638
-0.000102606
0.000208884
-0.000106278
-5.49072e-05
4.33148e-05
-5.02376e-06
1.66161e-05
0.000765406
-0.000794987
6.86288e-05
-3.90482e-05
0.000305287
-0.000842832
0.00071464
-0.000177095
5.43498e-05
-0.000177938
0.000123588
-0.000806644
0.000422473
0.000689457
5.01522e-05
-0.000164233
0.000158728
-4.46472e-05
-1.94547e-05
3.71957e-05
-1.7741e-05
-0.000137724
1.2961e-05
-1.19862e-05
8.68018e-05
3.29876e-05
4.45474e-06
-0.000124244
-0.000333638
-0.00026701
5.91569e-05
-2.50927e-05
-8.30437e-05
4.89796e-05
0.000718634
8.59187e-05
-3.91465e-05
0.0004052
7.80787e-05
-0.00042361
-5.96693e-05
-0.00012585
1.27651e-05
-2.46389e-05
-0.000414822
0.00033233
-0.000191657
0.000274148
5.99393e-05
-3.26127e-05
-0.000822313
-0.00103614
9.40924e-05
0.000958905
-1.68556e-05
0.000256044
-0.00022762
-8.72348e-05
5.88109e-05
-0.000326915
0.000721773
-0.000408397
1.35391e-05
0.00103356
0.000508308
-0.000695728
-0.000846137
0.000197823
9.86334e-05
-0.000296457
0.000328692
-0.000313196
-1.54967e-05
0.00020013
-0.000195613
-4.51705e-06
-0.000850756
0.000677514
0.000892603
-0.000719361
-0.000110608
4.00726e-05
8.58986e-05
-1.53629e-05
-0.00117854
0.00113644
-4.78924e-05
8.9993e-05
-0.000116561
0.000167349
0.000209555
-0.0013898
-3.18261e-05
0.000243084
-0.000221813
-0.000172614
3.26277e-05
0.0003618
0.000178796
-6.8468e-05
-0.000110328
4.21402e-05
-8.03313e-05
-0.000331512
0.000369703
-2.82936e-05
2.94478e-05
-0.000192296
0.000191142
0.000250779
-0.000178711
-3.52078e-05
-3.686e-05
-0.000144825
-4.65698e-05
9.44896e-05
9.6905e-05
2.69217e-05
0.000833496
-0.000469014
-0.000391403
-6.61792e-05
5.0662e-05
-0.00101859
0.00103411
-0.000627893
0.00110603
-0.000896251
0.000418112
3.13885e-05
-0.00106461
0.00109224
-5.90117e-05
-0.000256937
-5.74677e-05
0.000246763
6.76416e-05
-0.000166536
0.000157341
0.000200795
-0.000349303
0.000210164
-0.000126579
-0.000335378
0.000222947
5.99041e-05
5.25276e-05
-0.000176735
0.000102637
2.64023e-05
4.76958e-05
-0.000998092
9.9472e-05
0.000994605
-9.5985e-05
-2.46089e-05
-8.92626e-05
0.000147243
-3.33721e-05
0.000321802
-0.000382968
2.14377e-05
3.97278e-05
-0.000593714
0.000584093
4.29143e-05
-5.78448e-05
0.000101732
0.000600668
-0.000504004
-6.97421e-05
-5.50855e-05
-0.000229116
0.000137101
0.0001471
0.000661936
-0.00085024
-0.000662452
-0.000421627
0.00046643
0.0010075
-0.0010523
0.000820736
-0.00017011
-3.93323e-05
-0.000611295
4.52946e-05
-4.76901e-05
0.000154688
-0.000152293
0.000178389
3.00403e-05
0.000128285
-0.000480156
0.000308924
4.29471e-05
-0.000620642
0.0010247
-0.000727077
0.000323016
0.000370832
0.000171837
-0.000116115
0.00010042
0.000110954
-9.52585e-05
-2.8795e-05
0.000142943
-0.000117719
3.57112e-06
5.24749e-05
0.000145349
-4.53859e-06
-0.000170804
0.000189418
-1.40761e-05
0.000160696
7.88907e-05
-6.27713e-05
0.000962115
5.21018e-05
-0.00100889
-5.32345e-06
0.000128076
-0.000254685
-7.12868e-05
0.000197896
-0.000948466
0.000920605
-0.000393765
7.30129e-05
-0.000235891
-6.32994e-05
0.000226178
0.000328521
-0.000304307
0.000168687
-0.000192901
0.000152633
-0.000186224
0.000321987
-0.000288397
-0.000253291
-5.31175e-05
0.000188084
0.000118324
-0.000161013
0.000185823
-6.40336e-05
3.92242e-05
-0.000201823
1.51185e-05
0.000221246
-3.45414e-05
-0.000140314
2.20041e-05
9.03546e-05
2.79553e-05
0.000659616
0.000101904
-4.28864e-05
6.107e-05
-9.67227e-05
0.000112836
-7.71834e-05
-6.48694e-05
-0.000138892
0.00011683
8.69312e-05
-0.00031715
0.000186204
-9.368e-06
-0.000176848
2.97274e-07
-2.52727e-05
0.00112541
-1.28453e-05
2.3877e-05
-2.12271e-05
4.71857e-05
0.000224978
-0.000250936
9.95124e-05
-0.000195972
0.000139374
0.000141604
-5.90673e-05
-0.000111332
-9.05877e-05
-0.00100099
0.00103274
5.88329e-05
0.000184733
4.81803e-05
-0.000178351
-5.45625e-05
-0.000719686
-0.000235122
-0.000378807
0.000273761
0.000233331
3.80972e-05
-0.00108236
0.00108341
-3.91443e-05
-7.48012e-05
9.92615e-05
-0.000144862
0.000120401
0.000213075
-1.68308e-05
4.19754e-05
-0.00023822
0.000195977
1.26439e-05
3.31164e-05
-0.000241737
-3.41581e-05
6.95967e-05
2.87011e-05
-6.41397e-05
0.00103261
-0.00145331
0.000176025
0.000244674
0.000290962
1.34612e-05
4.65954e-06
-0.000309083
3.3764e-05
9.34344e-05
-0.000647728
-3.33667e-05
-0.000110311
0.000156465
-1.27875e-05
1.98216e-05
0.000170962
-0.000231287
4.05037e-05
4.07659e-05
0.000151452
-0.000146923
0.00084385
-0.000573385
6.08454e-05
-0.00033131
0.000181825
-2.43171e-06
-0.000234479
4.21612e-05
-3.17841e-05
0.0001856
1.34475e-06
4.64415e-10
0.00021173
0.000151175
1.47847e-05
-0.000115807
-3.28067e-05
-0.000442032
2.90849e-05
0.000445754
0.000587176
0.000115499
-4.30588e-05
0.000174023
0.000175389
-0.00113626
0.00114079
0.000103355
-0.000107887
0.000287604
-0.000315105
-0.00016384
-2.73048e-05
0.000619961
0.00018728
-0.000699394
-0.000107848
-0.000985541
-0.000636723
0.00105103
0.000571237
9.40738e-05
-0.000182128
-0.000161703
0.000249757
0.000122622
-3.58765e-05
0.00050043
0.000119789
7.02495e-05
-4.70954e-05
6.79141e-06
-0.000112193
0.000145877
-4.04749e-05
0.000819821
-0.00103601
0.000353271
-0.000137079
0.00018549
-0.000160349
-6.20554e-05
3.69148e-05
-0.000216884
2.20716e-06
-0.000109544
-0.00072994
0.000839484
-4.67116e-05
0.000156506
-0.000184595
-2.88725e-05
3.59132e-05
-0.000183889
1.6262e-05
-1.22226e-05
-0.00032119
-0.000117596
6.03469e-05
-5.8866e-05
-5.87142e-05
6.7503e-05
-0.000144951
0.000136162
0.000100434
-9.87867e-05
-4.79818e-05
4.63343e-05
-0.000187413
-5.30407e-05
2.35702e-05
-2.57436e-06
-1.70263e-05
-1.55142e-05
3.51149e-05
8.90912e-05
-5.77482e-05
-6.02154e-05
0.000893331
-2.10048e-05
-0.000760182
-0.000112144
-0.000115699
0.00102126
0.000200467
-0.000987043
0.000123181
0.000856344
-0.00102259
-0.000260279
0.000426527
-0.000209964
-0.000985442
0.00118648
8.9299e-06
0.000118387
-1.48381e-05
-2.39942e-05
3.41021e-05
-0.000127704
-0.000934524
0.000859663
-0.000282644
0.000357504
0.00126072
7.4515e-05
-0.000311933
-0.00102331
-5.54479e-05
0.000872576
3.60831e-06
-0.000234332
0.000391187
0.000236637
-0.000393491
0.000106124
0.000222397
-4.15432e-06
-0.000224961
2.50626e-05
0.00023633
-0.000925567
-0.000373163
0.000350263
0.000205028
-1.99552e-05
-0.000231784
0.00091075
0.000131939
-0.000198839
-0.000229922
0.000938682
-0.000920906
0.000212145
-0.000176657
5.0119e-05
-3.76954e-05
0.000101386
-0.000112419
0.000100887
0.000122633
-0.000124259
2.22897e-05
8.17804e-05
-6.19088e-05
5.45325e-05
-0.000208659
-3.90177e-05
-4.19084e-06
6.30301e-05
0.000164011
-9.78654e-05
2.72468e-05
-8.05614e-05
7.9668e-05
-4.53884e-05
9.71813e-05
0.000104713
-0.000876593
0.000213538
0.000785678
8.77844e-05
0.000139467
-0.000172901
0.000335458
-0.000493906
-0.000429565
0.000588013
1.66843e-05
0.000232905
-0.000870232
-3.02582e-05
0.00091238
1.12092e-05
3.4569e-05
-2.77151e-05
-6.85392e-06
-1.6178e-05
3.24399e-05
0.00105953
-0.00123494
-0.000169464
0.00034488
-0.000255078
-0.0001183
0.000145759
-0.000827697
-0.000403598
0.00088016
0.000351135
-7.42945e-05
0.00103773
-0.000944961
-1.84765e-05
-8.05611e-05
0.000633131
-3.95818e-05
-0.000512988
0.000132354
-0.000995203
0.000965805
-0.000102957
-3.0388e-05
7.38861e-05
0.000138327
-0.000330065
0.000244623
0.000941786
-0.000912804
0.000881644
-0.000198762
0.000633987
-0.000592373
-4.00218e-05
0.000564851
-0.000537051
2.94672e-05
-9.42476e-05
-0.000328603
-0.0009052
0.000308236
0.000182577
0.000338492
-0.00056956
4.849e-05
-0.000737095
0.000578701
-0.000203064
0.000361458
-0.000167523
0.00101007
-0.000886667
-0.000153664
0.000745912
-0.000482028
0.00054453
-0.000808414
-0.000171543
0.000175535
0.0011368
1.4974e-05
1.5945e-05
0.00100169
8.3796e-05
0.000967448
-0.00102295
-2.8299e-05
0.000109438
2.76627e-05
0.000143541
-0.000203887
-0.000230091
0.000295686
-6.55953e-05
-0.000226801
-0.000951638
0.000243915
-0.000208003
-4.3211e-05
2.94005e-05
-0.000201987
-0.000241245
-5.96965e-05
6.26943e-05
4.69618e-05
0.00101553
-9.11151e-05
-0.000971376
0.000137664
-7.20227e-05
3.28365e-05
-9.84781e-05
-8.51946e-05
0.00103518
-0.000647175
-0.000260497
0.000679877
-3.37858e-06
-0.000886462
0.000133788
0.00062719
-0.000141017
0.000970843
0.000152487
-0.00016185
-0.000961481
5.97816e-05
-0.000155391
6.34669e-06
-6.98891e-05
-0.000395164
8.20854e-05
0.000223491
0.000903045
-0.000215786
-0.000108931
0.000101627
0.000189882
-9.96946e-05
9.26925e-05
2.58305e-05
-1.88283e-05
0.000369827
-9.3276e-05
0.000580589
-0.00085714
0.000355129
-0.000117769
0.000507793
0.00121936
-0.000214581
-0.000116783
0.000808963
-0.000881771
-2.04676e-05
-0.00102905
-0.000812389
0.000606499
0.000751539
-0.000844552
0.000157208
-0.000990195
8.17192e-05
0.000977105
0.000619536
-0.000181854
3.35923e-05
0.000148559
-0.000199011
0.000194069
0.000191146
0.0010062
0.000194533
-0.000544232
0.000977186
-0.00124733
-0.000426971
-0.000914332
0.000797071
-0.000609845
0.00086275
-6.93807e-05
-0.000987828
7.17667e-05
-0.000150121
-7.82429e-05
0.000194868
-0.000932058
0.000660316
-5.68606e-05
9.43545e-05
-0.000246924
-9.92874e-05
0.000251857
-0.00109507
-4.42312e-05
0.0010541
-0.000224372
0.000211417
-0.00034342
0.000235734
-0.000260921
0.000368607
-0.000810658
0.000735499
-7.46267e-06
-0.000104535
0.00013706
-2.89446e-05
-6.35104e-05
8.49924e-05
0.000752828
0.000170411
0.000287105
-0.000953238
0.000192144
-0.000986803
-0.000126292
0.00119074
-7.76483e-05
-0.000273544
0.000256307
0.000218917
-0.000272559
0.000813019
0.00045622
-0.00118544
0.000290551
-0.000307295
-0.000951015
0.000975593
-2.45777e-05
-0.000321793
0.000279376
4.24172e-05
0.000428558
-0.000215031
-0.000119172
-0.00103884
-2.59357e-05
0.00106477
-0.000993891
0.00100597
-1.20835e-05
-0.000919627
-6.15622e-05
-4.09927e-05
-0.000113268
0.000151686
0.000254523
-0.000867746
-0.00100662
7.63661e-05
-0.000999455
0.00110281
0.000911581
-0.000216748
-0.000962772
-0.000113139
0.00096805
0.000107862
-0.000222333
-0.000181708
0.000215238
0.000188803
0.00100292
4.06023e-05
0.000475436
-0.000988134
8.67285e-05
-8.53974e-05
0.000117253
-0.00102367
-3.60743e-05
-0.000883553
0.00104108
-0.000656268
-5.00498e-05
-0.000144217
4.94056e-05
-4.07095e-05
-7.77058e-05
1.58093e-05
5.81e-05
-7.21128e-05
8.63598e-05
-7.2347e-05
-0.000106971
-0.00021273
0.000307943
-0.000348076
3.1688e-05
-1.94816e-05
-0.000259131
-1.99873e-05
6.56896e-05
-0.000145397
-4.08474e-05
-0.000193798
-0.000972208
-0.000439149
-0.000849165
0.000540242
0.000748072
-0.000977626
-0.00104046
-9.74024e-05
6.07851e-05
0.00107708
0.000550057
3.28618e-05
0.00114815
-1.61908e-05
-0.00116482
-0.000716748
-0.000550098
1.82902e-05
0.000196216
-0.000472443
0.000257937
0.00097929
-0.00104413
-0.000405796
0.000218786
0.00123114
8.6943e-06
-0.000160497
-1.57198e-05
0.000199307
-0.0010822
0.00101525
0.000346516
0.000263887
-0.000181845
-0.000280024
0.000239278
-0.00133883
-2.5011e-05
0.000380308
-0.000396091
0.000121908
0.000390336
0.00124039
-0.000112693
-0.00151804
-0.000258588
0.000658582
-8.18229e-05
-0.000230243
0.00037425
-0.00025528
-1.82979e-05
3.42021e-05
-3.40059e-05
2.64344e-05
0.000861015
-6.90603e-06
-0.000213971
0.000197821
2.30564e-05
-9.87074e-05
0.000162526
3.7273e-06
-2.92733e-05
-0.000264538
0.000541146
0.000381973
-0.000178822
-3.42096e-05
0.000106061
-0.000139212
0.000169414
9.34805e-05
-0.000123683
0.000316729
-0.000976538
-0.000139649
-0.000285896
-0.00026728
0.000449344
7.81257e-05
-0.000141398
-0.000116502
-9.92318e-06
0.000123611
-0.000130714
-0.000195984
0.00021033
1.73414e-05
9.29724e-06
0.00049745
-2.69018e-05
-0.000479845
-0.000116531
-0.000362043
0.000399856
0.000917099
-0.00039635
0.00037675
0.000136063
-8.03928e-05
-0.00043242
0.00107061
0.000279987
0.000144591
-0.000333655
-9.09231e-05
-5.42834e-05
-0.000330595
0.000342582
4.22958e-05
0.000265282
-0.000282556
-2.20841e-06
0.000247543
-0.00048486
0.00057581
0.000259342
-0.000481362
0.000457754
0.000336429
-5.07121e-06
-0.00041192
4.04977e-05
-1.58041e-05
-3.90334e-05
0.000317995
1.05797e-05
-2.43836e-05
2.31509e-05
-9.34696e-06
0.00117018
-0.000883022
-0.00012892
-6.59011e-05
0.00014087
0.000130809
-0.000282413
-0.000582706
0.00073431
0.000277635
-0.000244315
-3.33204e-05
0.000107364
-0.000914391
-7.47445e-05
6.36208e-06
1.10626e-05
-1.74247e-05
-7.41478e-05
8.04788e-05
-6.33095e-06
5.93237e-05
-4.66306e-05
-1.26932e-05
6.74417e-05
-4.84075e-05
-1.90342e-05
-6.79487e-05
-1.34329e-05
8.13815e-05
5.91828e-06
-4.03068e-05
3.43885e-05
-0.000185288
0.000171484
1.38049e-05
0.000224855
-0.000249427
2.45721e-05
1.73352e-05
5.01064e-05
-4.09585e-05
-2.69901e-05
0.000280764
-3.12882e-06
0.000144699
-0.000158563
1.38642e-05
0.000180087
-0.00018387
3.78302e-06
-0.000360827
0.000281646
-5.67907e-05
-0.000206515
-9.06074e-05
0.000100182
-9.57423e-06
-8.15375e-05
7.38965e-06
2.87402e-05
-2.23781e-05
0.000237995
4.13812e-05
-0.000211405
0.000197171
1.42339e-05
-5.98126e-05
-0.000154238
0.000158982
5.50688e-05
0.000169647
0.000262974
-0.0005527
-3.15219e-05
0.000255205
-4.90361e-05
-0.000155416
-0.000271877
0.000106133
-0.000235632
0.000147789
-3.52123e-05
4.81693e-06
0.000123088
0.000246399
-0.000330737
0.00022893
1.34424e-05
-0.000321523
-0.00063688
-0.000339568
0.000388819
0.00106186
0.000144294
4.04663e-07
0.000114971
-1.65716e-05
-9.83995e-05
-1.96673e-05
-2.22137e-05
-3.50402e-05
7.02403e-05
3.14793e-05
0.000244584
-4.74122e-05
3.13372e-05
1.29206e-05
-1.01286e-05
1.59496e-05
-4.88698e-06
-0.000235575
-0.000215816
0.000255378
0.000196013
0.00103906
-0.000267521
-0.000381396
2.29845e-05
0.000144144
-0.000125206
-4.19224e-05
3.24802e-05
2.13493e-05
0.000911625
-0.000921821
9.58089e-05
-8.56125e-05
-3.51712e-05
0.000512278
-9.59745e-05
-0.000381133
0.000151716
2.83716e-05
9.82634e-06
-0.000352716
9.23503e-06
5.98466e-05
0.000300566
-0.000225123
-0.000166875
0.000290036
0.000101962
0.00110112
-0.00027679
2.80495e-05
-0.000103537
-6.3724e-05
0.000499802
-0.00123953
0.00113006
2.11754e-05
3.14707e-05
0.000195122
0.000220923
0.000153927
-0.000364675
0.000718541
-9.38185e-06
-3.39646e-05
5.70244e-05
0.000374435
0.000757903
-0.000454823
0.000124415
-9.01939e-05
0.000558576
-0.000240515
-0.000318061
0.000167857
-7.69527e-05
0.000281963
-0.000372868
-0.000357454
0.000206263
-7.11417e-05
0.00022892
9.26408e-05
-0.000215051
-0.00010651
2.74771e-05
7.53029e-05
-0.000101872
0.0002946
-0.000438118
0.000406865
-0.000263348
-0.000246827
0.000633058
-0.000497893
0.000111661
0.000213037
-0.000287316
-0.000254231
0.00032851
0.00023707
0.000153393
-9.5863e-05
-0.000269361
0.000193128
0.000244091
-0.000127749
1.16947e-07
0.000340669
0.000610516
-0.000523453
0.000302986
-0.000390049
-0.000152945
0.000114282
6.02344e-05
-9.24545e-05
-8.2062e-05
5.59262e-05
-0.000486725
-6.15139e-05
0.000260923
-2.93692e-05
-0.000312635
-0.000579732
0.000200164
0.000692203
-0.000240739
5.69113e-05
0.00024188
-0.000150909
1.90729e-05
-0.000110043
0.000641538
-0.000827944
-0.000251712
0.000683016
0.000314829
-0.000387328
-0.000197901
-0.000132647
7.63169e-05
0.000111795
-0.000216065
0.000206141
-0.000166679
0.00053706
-0.000229559
0.000377709
1.88294e-05
-0.00045555
0.000436721
-0.000704027
-0.000601579
0.000458665
0.000846941
-0.000616
0.000254708
-0.000342735
-0.000393586
-7.43091e-05
0.00038588
-4.89575e-06
-0.000380985
0.000711302
-0.00117737
-0.000113665
0.000805222
0.000106244
0.000460942
-0.000194493
-0.000513276
0.000672404
-0.000357193
-0.000931211
0.000254372
3.58974e-05
0.000342789
0.000176366
-0.000203749
0.000434248
-0.00026793
0.000315004
0.000207298
0.000439758
-0.000266685
0.000287869
-0.00047533
0.000298455
-1.76175e-05
0.000207726
-0.000204671
5.74122e-05
6.18913e-05
-0.000109747
5.08394e-05
-2.98411e-06
-0.000309233
-1.39813e-05
0.000323214
0.000241524
3.76198e-05
2.16078e-06
0.000231416
-0.00017442
-0.000203484
2.6863e-05
-0.00015269
5.99672e-05
-0.000110761
5.03639e-05
-0.000139956
-0.000102985
7.36602e-06
0.000321926
-8.9507e-05
-0.000230258
-8.07374e-05
0.000156967
0.000451072
-0.000216593
-0.000170807
0.000166182
-4.998e-05
5.46052e-05
-7.96479e-05
4.09816e-05
0.000792974
-0.000234398
2.79438e-05
0.000213056
8.09264e-05
-0.000111389
0.000123292
-0.000486365
0.00072162
0.000998366
-0.000726828
0.000681251
-0.000901274
0.000798723
-0.000101009
0.000207742
-0.000106734
0.000312428
-0.000173628
6.30229e-05
-6.02019e-05
-0.000152859
0.000945833
-0.00110215
-0.00126954
0.000115495
-4.13103e-05
-0.000113275
0.000139657
0.000119703
0.000505189
0.000115231
-0.000523572
-9.68476e-05
4.73673e-05
1.31317e-05
-0.000510009
0.00044951
0.000425298
-3.94176e-05
-3.02525e-05
-0.000268217
-4.10165e-05
0.000128667
-0.000230206
-0.000113512
-0.000511167
0.00105282
0.000179968
-6.04743e-05
7.2752e-05
-0.000175445
-7.0935e-05
-3.65449e-05
6.2762e-05
-2.62171e-05
1.97885e-06
0.000180526
-0.000266169
8.36644e-05
9.81265e-05
-9.16059e-05
-0.000928342
0.000138516
-0.000206455
6.99177e-05
8.95071e-05
0.000263205
0.000199111
0.000267667
-0.000466779
0.000423276
-0.000483972
-0.000462757
1.94607e-05
0.000302291
-0.00020747
9.53469e-05
-1.56518e-05
0.000355692
-0.000309607
-8.55023e-05
-0.00010454
0.000121818
-0.00014703
0.000154325
0.000363467
-0.000345864
-5.86191e-05
-0.000189286
-2.67785e-05
-5.07232e-05
-0.000138563
-6.81468e-05
0.000182279
-0.00014125
6.26088e-05
-2.6029e-05
0.000375515
0.00116845
0.000162567
-9.39109e-05
3.61443e-05
-7.97142e-05
-8.63005e-05
-0.000228202
-0.000240535
-3.16752e-05
0.000162839
-6.86144e-05
-3.59795e-05
3.74632e-05
2.9987e-05
0.000146062
6.35164e-05
-0.000136827
0.000564514
-0.000126725
0.000204473
8.21684e-05
-0.000211565
-7.50758e-05
-0.000432582
0.00042133
-0.000215853
-9.28281e-05
-0.000149016
-0.000346712
-0.00125782
-3.96402e-05
-0.00110523
-0.000373162
-0.000117639
-4.66838e-05
0.000101933
-0.000564131
-9.22446e-05
0.000415433
0.000670517
-0.000606997
-0.000478953
-7.42672e-05
-0.000281204
0.000330674
-0.000259849
-0.000352696
0.000402985
0.000495361
-0.00054565
9.31664e-05
0.000336638
-0.000127514
-0.000397864
-0.000152645
0.000137956
-0.000446836
0.000426129
0.000135939
-0.000310764
-0.000953976
-1.68663e-05
0.000985817
-0.000558373
0.000100107
-0.000240582
-8.97311e-05
-0.000140549
-0.000290612
4.91102e-05
0.000241502
0.000985054
-0.00103295
-3.77394e-05
-0.000315712
9.00677e-05
-0.000128912
-0.000250448
-0.000480084
0.000397674
-0.000686536
0.000768947
0.000182338
0.000328555
-0.000351917
-0.00023107
0.000774912
-0.000901035
6.69382e-05
-0.00011837
0.000856626
-0.000806236
-0.000530474
0.000908992
-0.000547186
-2.60919e-05
-1.82207e-05
2.48221e-05
1.94905e-05
0.000801475
-0.000707194
0.000364384
-0.000874776
8.03792e-05
0.000300319
0.00020816
-0.000245505
3.86635e-05
0.00014985
-3.15147e-06
2.32761e-05
-2.01247e-05
0.00044229
-0.000132991
-0.00034447
0.000356421
-0.000408798
-4.37917e-05
3.92455e-05
-0.000243256
-2.93757e-05
-0.000359781
-0.000722148
0.000253985
0.000126734
0.000175614
0.000105719
0.000274141
-0.00103761
-0.000179685
7.72524e-05
-0.000732795
2.34934e-05
0.000344029
-0.000194604
0.000119434
-0.000127855
5.60838e-05
-4.76632e-05
-1.42551e-07
-0.000214674
0.000283129
-0.000451409
0.00111121
3.05116e-05
7.07185e-05
-0.00103814
-5.90711e-05
-0.000106577
0.000101175
-0.000357694
-6.59402e-05
0.000445072
0.000252681
0.00124725
0.00111531
0.000178184
0.00021442
0.00111968
-0.000165197
8.18272e-05
-6.37974e-05
4.39652e-05
0.00027653
0.000184844
-0.000929776
0.000141728
0.000206723
1.56733e-05
-0.000236462
-1.24196e-05
-0.000350032
-8.89572e-05
-0.000103208
9.87751e-05
-0.00035248
-0.000239489
-0.000421019
-5.50857e-05
9.13268e-05
4.09128e-05
-0.000235007
-4.64886e-05
-0.000354473
0.000340727
5.29916e-05
0.000892726
-0.00017401
-0.000668031
-5.06847e-05
-0.000805988
0.000742092
0.000338036
0.000442905
0.000565664
-0.000161628
-3.31873e-05
2.84447e-05
-0.000638571
-0.000235813
-0.000256304
0.000343042
0.000176893
-0.000989416
0.000294007
9.05122e-05
-0.000321757
-9.71897e-05
-6.37558e-05
0.000110222
0.000686443
-0.000478683
-4.3652e-05
-0.000611568
3.93728e-06
-4.18272e-05
-2.09159e-06
3.99815e-05
7.05769e-05
-5.3015e-05
-3.87762e-05
0.000165096
3.24084e-05
0.000227502
-4.23896e-05
-0.000239396
9.89846e-05
1.04793e-05
0.00089079
1.25329e-05
-2.47069e-06
-6.12489e-06
0.000105362
4.67255e-05
0.000768929
-1.32839e-05
-0.00100736
-0.00100001
0.00103477
-0.000276009
-5.85301e-05
-0.000428934
0.000108898
2.75942e-05
-0.000175269
-1.49657e-05
4.95347e-05
-0.000959544
-0.000194129
0.000194908
-0.000645522
-0.000104122
0.000818155
7.32224e-05
0.00108306
-0.00104265
-7.51708e-05
4.86627e-05
0.000135406
-0.000175819
-0.000278344
0.000141433
0.000134325
-0.000153301
-0.000122457
-0.000302942
0.00077923
0.000160538
-0.000496863
-2.75912e-05
-0.000536157
0.000326834
-0.000191166
0.000217382
-0.000280762
3.74353e-05
-0.000135664
8.80876e-05
-1.34777e-05
-6.07937e-05
0.000380599
-0.000151241
0.000219986
0.000210853
-0.00017338
0.00102148
-0.00127124
0.000280265
-0.000400993
-3.31807e-06
0.000717362
5.90483e-05
0.000942622
0.000280212
-0.000102708
-0.00112013
0.000152344
0.000669972
-9.54168e-05
0.000231976
0.000131199
-0.000129999
-4.98459e-05
4.86455e-05
5.77912e-05
-0.000183109
0.000210013
-8.46958e-05
0.000185239
-0.000192318
0.00132372
0.000102023
-3.75917e-05
3.74887e-05
0.0013263
0.000405245
0.000175209
6.11391e-05
0.000342143
0.000124084
2.58186e-05
-0.00102325
8.33683e-05
3.06498e-05
0.000374568
0.000115273
-0.000585258
-0.00109699
-0.00127624
0.000855425
-0.000338076
-8.81052e-05
0.000114515
-3.05139e-05
-3.34586e-05
-5.05429e-05
0.000397261
-9.11814e-05
-0.000199431
7.58178e-05
-5.75478e-05
7.93464e-05
-4.93122e-05
0.000201792
0.00046162
-0.000367442
-0.000507229
-0.000112497
0.000356379
0.000227056
-0.00049744
-0.000265773
0.0004644
1.63488e-05
-6.53402e-05
0.000539187
6.7357e-05
0.000372529
-0.00013748
8.82462e-05
1.58426e-05
-0.000107432
0.000102185
-2.00297e-06
1.27981e-05
4.51891e-05
0.000905661
0.000151772
8.33806e-06
-0.000821635
-3.53061e-05
-2.97538e-05
0.000109431
0.000482939
0.000340559
0.000157022
-0.000565065
0.0010827
-0.000335882
-1.31374e-05
-0.000187143
0.000139743
-3.98351e-05
3.31565e-05
-5.2899e-05
8.07859e-05
1.58976e-05
0.000389258
0.000127649
-0.000342177
-0.000724279
0.000673729
5.05496e-05
0.000117369
-3.94729e-05
-0.000450763
0.000488275
0.000650732
-0.000393095
0.000952967
0.000164839
-0.000787404
6.31248e-05
5.63433e-05
0.00105855
-8.31444e-05
-0.000943295
0.00100957
-0.000445995
0.000633263
0.000231019
-0.000418287
2.08455e-05
-4.57307e-05
3.54649e-05
5.89311e-05
0.000614798
-0.000331948
0.000272991
0.000306597
-0.000247641
0.000814997
0.000298913
-0.000294216
-0.000819695
-0.000112172
2.54278e-05
8.6744e-05
-0.000365898
0.000130492
-0.000214072
-0.000188297
-5.93119e-05
4.43462e-05
-0.000142522
3.03507e-05
-0.000178399
0.00080777
-0.000678088
-0.000575677
-0.000895693
-0.000233078
5.32129e-05
-6.33915e-05
-0.000199692
-0.000748602
9.01107e-05
6.87027e-05
-9.17669e-05
-8.57664e-05
0.000378343
0.000196527
0.000432311
0.000601246
-2.71368e-05
4.87208e-05
2.79506e-05
-0.000430098
0.000400767
2.93302e-05
8.3646e-05
-0.000871049
6.25573e-05
-0.000112478
0.000379437
1.65442e-05
-0.000293842
0.000883851
-0.000221458
0.000264344
-0.000303491
0.00018768
6.62618e-05
0.000202965
-0.000108657
0.000877739
-0.000196065
0.000357391
-0.00094954
0.000645584
0.000626971
-0.00104745
-5.32334e-05
0.000418302
-9.97633e-05
7.46706e-05
-0.000615151
0.000583458
0.000564691
-0.000691929
0.000387618
0.000598825
-0.000267581
0.000117979
0.000124145
-0.000122421
0.000163735
1.50609e-05
-0.00058719
0.00074041
-0.000461028
3.09308e-05
-3.86094e-05
0.00026341
6.39626e-05
0.000725446
-7.47946e-05
9.34849e-05
2.52748e-05
-3.56107e-05
4.31299e-05
3.24623e-05
8.05619e-05
-0.000109931
0.000375152
2.56158e-05
0.00019963
7.06597e-07
-6.91377e-05
0.00019456
0.000652808
0.000191739
3.97492e-05
-0.00032158
-4.87637e-05
-0.000157155
-2.45604e-05
0.000162516
-0.000342539
6.47087e-05
-5.43655e-05
3.06959e-05
-3.25678e-05
-0.000211488
2.92645e-05
-3.23576e-05
-6.02452e-05
1.8607e-05
-4.87964e-06
5.00547e-05
-4.70955e-05
-0.000101065
3.94344e-06
-0.000917639
9.24238e-05
-5.97961e-05
0.000242423
-0.000169802
0.00101339
-0.000956787
0.000114664
2.55465e-05
3.54688e-05
5.19045e-06
0.000694366
0.000478037
-0.00108173
2.32454e-05
0.000204259
-0.000580779
0.000587979
-0.000216381
-0.000457365
0.00100773
0.000156657
-1.70766e-05
-2.43544e-05
1.45759e-05
8.76087e-05
9.53351e-05
-7.4169e-06
-0.00101588
0.000654219
5.43642e-05
4.26023e-05
-0.0001874
-3.1859e-05
0.000315244
-0.000160791
-1.31809e-06
0.00110554
7.35625e-05
-0.00107488
-3.77316e-05
-4.8017e-05
-1.49461e-05
0.000126233
5.97542e-05
-9.9604e-05
0.000167926
0.000485238
-0.000707552
0.000222314
0.000417151
6.8087e-05
0.000426778
-9.62691e-06
-0.000303524
0.000457451
-0.000668199
-0.000593684
-0.000497191
-9.6493e-05
0.000139911
-0.000363896
9.2074e-05
-5.61936e-05
-0.000935284
-0.000121197
5.57171e-05
-0.00036433
-2.6745e-05
-1.632e-05
-0.000128625
-7.18892e-05
-5.12273e-05
-8.57063e-06
6.71876e-05
-4.70697e-05
-9.38963e-06
3.6792e-05
-0.000118693
-2.98605e-05
-8.34102e-06
-1.23153e-05
0.000460221
0.000818124
0.000216438
4.53947e-05
0.000106321
0.000396166
-0.000916612
0.000724706
-0.000252702
-0.00109896
0.000180221
-4.94041e-05
0.000234894
-0.000470834
-2.63573e-05
9.9721e-05
-0.000127549
-0.000426995
0.000152684
8.61075e-05
5.16086e-05
-0.00038777
-0.000429468
3.08329e-05
-2.54446e-05
0.000375211
9.39369e-05
-0.00114123
0.0010311
-0.000516957
0.000454966
-0.000368966
9.1338e-05
-0.000177338
-0.000383262
0.000592603
-1.26167e-05
-3.40139e-05
-0.000271423
-1.65406e-05
8.39613e-05
-0.00117609
-8.15981e-07
0.000678486
-0.000376509
0.000344459
6.46198e-06
0.000150371
5.82473e-05
-8.58271e-05
-0.00014941
-1.25132e-05
1.13205e-06
-0.000126623
0.000107947
-0.000140234
-0.000120437
-3.07956e-05
1.48541e-05
-0.000693735
-0.000428327
-1.95828e-05
-0.000146446
-0.000144496
-0.000137087
0.000130674
3.77547e-05
-3.53199e-05
-5.36622e-05
0.00101006
0.00034716
-0.000204544
0.00014438
-1.22952e-05
-0.00010198
-4.74612e-05
7.17351e-05
-0.000793596
0.00111461
2.05492e-05
4.59166e-05
-5.49687e-05
0.000144365
-3.25736e-05
2.30285e-05
-1.05613e-05
0.0010327
0.000146974
8.27749e-06
-6.253e-06
-0.000285704
4.54377e-05
2.56004e-05
5.69429e-05
-3.78767e-05
-0.000975165
4.40683e-05
0.000529964
0.000370966
7.61456e-06
-1.6917e-05
0.00107663
7.41001e-05
1.62116e-05
4.98086e-05
-0.000103713
-3.10611e-05
-0.000315486
5.67065e-05
0.000301531
0.000186678
-0.000168786
6.17764e-05
0.000184447
6.98731e-05
-0.000347037
-8.4855e-05
9.77349e-05
-5.31105e-06
-0.000107834
9.29957e-05
-0.000952854
0.00101064
-0.000249181
0.000191396
8.01027e-05
5.25073e-05
-1.61725e-05
-3.28217e-06
-0.000181251
-0.000241316
0.000434786
-0.000622807
0.000278648
0.000343439
0.00021819
-0.000403353
-7.82605e-05
0.000292365
-5.20059e-05
-0.00114238
1.55556e-05
0.000178211
0.000499532
6.27273e-06
-0.000174506
-0.00106231
0.000962114
9.53244e-06
-1.02252e-05
0.000986509
9.55242e-05
0.00054404
-0.000470875
-7.31653e-05
0.000171585
-0.000208974
7.36066e-05
-0.000500342
-0.000816576
0.000838235
-0.000932667
0.000957272
-0.000124263
2.42224e-05
-9.3005e-05
4.88182e-05
4.41867e-05
0.000133916
-0.000164611
4.09106e-05
-2.73626e-06
5.15545e-05
-0.000176597
-0.000163832
0.000320776
-0.00105532
-0.000134365
4.35485e-06
-2.06935e-05
-1.87577e-05
-0.000214433
0.000201417
-2.77427e-05
-2.5606e-05
5.33487e-05
0.000150681
0.000325984
-0.000147832
-1.65529e-05
-0.000222788
4.48495e-05
0.00076589
-0.000437143
0.000289618
0.000347086
-4.91162e-05
-0.000107165
-2.72001e-05
0.000161094
-6.57162e-05
-3.59445e-05
-0.000217714
0.000582299
0.00049204
0.000196445
-0.000381239
0.000255034
-5.91904e-05
-0.000607707
-7.58153e-06
0.000265257
6.1555e-06
-3.38982e-05
-8.15705e-05
-2.55943e-05
3.10323e-05
0.000137236
0.000103865
-8.32412e-05
4.69728e-05
-0.000484596
-9.616e-05
0.000359207
-3.57281e-05
0.000465038
2.92611e-06
-0.000230986
-0.000398847
-0.00025064
4.14979e-05
-3.53424e-05
-7.42742e-05
0.00010916
0.00103919
-2.87126e-05
-0.00100154
-0.00011828
0.000306385
-9.75931e-05
4.25733e-05
-2.67733e-07
-0.000257543
-6.36468e-05
-7.19785e-05
1.17631e-05
-1.79631e-06
-0.00011691
0.000125187
-0.000210895
0.000241928
-6.0797e-05
0.000164662
0.00139268
-0.00112391
0.000366942
-0.000923518
-7.64859e-05
0.000346556
-8.92012e-05
0.000874573
0.000526582
0.000516476
-0.000686586
-0.00013036
8.71567e-05
-5.81017e-06
9.82414e-05
-9.59897e-05
-0.000144497
-8.55979e-05
-0.000877817
9.00099e-05
-5.70006e-05
-0.000378438
0.00037864
-0.000591295
0.000587221
0.000927106
-0.000267079
8.20266e-05
-0.00100973
0.00119498
-0.000276365
0.000287205
0.000677952
8.15324e-06
8.54386e-05
0.000103174
-5.43942e-06
0.000370774
0.000220906
-4.72701e-05
3.59631e-05
0.00020282
-0.00025164
-5.52651e-05
0.000248375
0.000343779
-0.000295621
-3.71505e-05
-3.62906e-05
-3.32694e-05
-0.00022503
9.12711e-05
0.000136593
4.8356e-05
0.000855769
-0.000874794