/*--------------------------------*- C++ -*----------------------------------*\
| =========                 |                                                 |
| \\      /  F ield         | OpenFOAM: The Open Source CFD Toolbox           |
|  \\    /   O peration     | Version:  v1912                                 |
|   \\  /    A nd           | Website:  www.openfoam.com                      |
|    \\/     M anipulation  |                                                 |
\*---------------------------------------------------------------------------*/
FoamFile
{
    version     2.0;
    format      ascii;
    class       volScalarField;
    location    "0.96";
    object      epsilon;
}
// * * * * * * * * * * * * * * * * * * * * * * * * * * * * * * * * * * * * * //

dimensions      [0 2 -3 0 0 0 0];


internalField   nonuniform List<scalar> 
5794
(
0.465448
0.224931
4.80017
111.191
42.9773
1.32814
9.26361
3.67902
93.878
0.170637
36.5514
5.71389
9.22509
39.3844
0.278548
1.08595
381.405
53.2043
0.280113
0.171902
61.9951
1.40227
26.4292
1.45826
16.6855
114.044
283.484
39.1876
93.9786
0.508855
5.51987
11.6604
21.2869
0.410072
1.90355
3.71954
4.42768
27.6298
39.8141
93.8066
26.5127
7.15342
9.36201
14.0384
0.272555
47.0033
25.2972
10.0059
0.137405
2.17166
4.70737
59.6739
0.81677
0.210673
0.09642
42.8904
21.8677
15.8078
5.8759
237.686
59.6225
0.189485
4.80054
14.6748
25.5513
0.235738
55.4266
28.132
56.8363
0.140171
80.4448
61.9214
328.717
2.20752
57.2679
22.0482
1.56303
75.2388
12.2923
2.80769
0.988069
0.165699
15.0171
23.9011
15.0667
68.2548
33.7488
99.9381
2.33665
31.0149
110.141
24.1727
65.1277
110.154
35.6557
65.0356
82.1244
53.4811
21.8652
66.3354
50.9986
7.30209
7.38932
44.5718
5.93316
90.2184
0.151259
9.01117
43.5655
10.8583
0.408273
0.235673
55.2262
0.463995
28.6126
84.9485
0.316268
80.7563
53.7179
22.0854
84.4271
0.418048
6.24019
32.2183
0.21387
51.0423
62.7955
1.52761
69.3326
10.9706
5.93147
9.16201
28.5455
62.1933
95.5694
0.274683
124.313
0.196102
2.947
0.334391
1.3492
29.1537
0.257617
34.3116
2.77121
315.418
55.3052
51.0163
31.678
20.3866
12.232
0.137276
92.5142
6.38995
311.889
44.2559
29.6464
19.0409
81.2832
18.8272
0.264081
1.93397
0.419464
4.21429
59.8625
72.7122
5.98304
2.28085
0.40451
0.308875
0.433111
30.7243
3.13141
1.66071
0.572835
19.1644
0.287719
10.2618
0.897473
79.5662
2.7692
20.4065
3.06082
48.1677
4.22728
325.933
9.74052
16.265
0.158499
6.51757
46.5193
14.4571
27.6751
3.64737
13.9952
8.31094
6.15205
0.53375
0.32541
6.81523
13.7846
64.327
5.90594
5.91051
30.7308
55.9479
3.56409
19.0942
168.837
45.5391
9.42454
10.263
4.81238
2.1698
0.62687
5.95125
8.71188
36.2929
29.3069
76.8248
9.82657
30.4492
156.893
56.1332
148.992
169.792
7.67326
0.186847
0.175266
0.286567
1.95225
1.24466
0.321064
32.8
27.23
203.531
229.417
34.3405
10.6214
1.50675
0.148536
56.3147
36.5106
39.1858
7.37224
0.662675
0.286274
29.9816
147.374
83.3613
36.7521
0.244117
321.439
0.194978
4.95807
127.528
6.97365
18.736
14.9723
0.212319
80.8754
4.79312
2.2877
0.310349
22.3529
13.0947
28.1013
71.3924
0.218245
58.1143
31.3676
9.00385
17.3751
74.4903
16.3705
0.291133
0.200931
1.39718
0.10477
9.73681
1.65974
81.4727
26.4383
7.73081
69.3041
97.3611
39.8161
48.8546
144.552
86.0691
2.45874
1.33717
0.399089
0.155016
4.82913
121.326
29.0181
8.2247
55.6568
0.389302
0.20874
54.3333
1.21676
42.0926
4.75306
74.8381
0.11014
50.099
65.2595
35.5755
14.2672
43.1874
48.1349
0.485402
9.82967
35.1505
12.1378
46.9054
45.9383
125.736
2.65868
6.22381
81.6024
42.0648
1.09773
17.0098
2.03787
6.58878
10.9913
34.0562
72.0872
8.63613
6.04587
22.2371
12.9052
0.197718
0.243481
0.435513
0.148503
10.9486
1.56916
15.7646
77.5093
27.5991
0.355803
2.66769
75.5366
27.5182
82.504
41.9282
57.02
395.286
36.013
17.2196
3.54072
270.115
0.656903
78.3936
10.7044
4.13739
15.0028
15.7655
98.7099
8.95986
3.91769
4.12147
64.6409
55.9279
29.2701
14.6159
0.201937
0.311391
4.1358
2.21703
21.0828
49.6887
41.2039
22.4332
27.0191
0.117087
1.18883
0.20509
12.514
3.75975
1.78408
0.387711
92.4605
5.89531
2.2706
7.2102
2.49001
61.4882
0.142581
1.52247
1.9249
1.14082
0.429193
2.92235
0.24684
20.4507
1.05303
10.578
174.502
0.786691
0.524086
44.3167
13.5817
1.58698
0.201286
79.5311
50.2121
20.254
32.1802
28.2674
74.7883
41.9227
5.82132
66.6801
54.179
80.9461
21.9987
52.1722
14.2293
0.205579
4.25608
1.99733
0.589648
0.435386
0.14524
1.18633
60.1246
5.76614
30.9506
81.1206
0.300609
0.367734
10.2643
18.7263
3.75739
1.73047
0.408269
8.11949
5.40923
3.54462
1.4821
93.321
31.1198
2.18668
0.610929
54.344
0.29167
0.19488
89.2714
1.18457
69.225
0.296938
74.9584
68.9988
41.2543
163.445
1.14323
0.35481
16.2729
0.80157
74.2881
10.9477
165.72
68.3883
17.3776
8.73511
0.381058
210.094
49.9696
0.155848
0.174235
95.1856
201.313
47.2575
3.9758
0.340041
38.955
1.07748
0.210577
0.160369
14.1092
32.877
10.1558
1.96325
263.185
0.933723
0.175408
95.652
88.068
40.9594
12.5869
0.346668
0.347275
0.204782
1.81409
39.3739
89.3506
205.179
8.71115
9.0734
36.2814
0.350711
1.22782
31.737
38.7842
0.305557
63.241
0.113951
1.72945
0.263597
0.508179
24.7789
74.2312
0.251962
5.54628
178.944
2.05519
0.229211
55.6831
78.6867
11.5035
0.422899
6.58469
46.4581
0.286947
1.37554
22.5552
0.583785
164.845
0.199922
1.24452
0.8902
6.61333
161.427
10.293
66.2138
1.35308
97.7387
0.13071
46.6816
3.01165
0.987545
5.49661
33.8
0.427794
1.56417
44.0336
0.123736
0.370793
5.24465
0.94842
0.411323
19.9577
1.44036
0.29222
25.6905
500.963
0.534104
58.3841
0.120546
43.4517
2.2148
0.893266
21.9992
1.5843
0.365946
84.1362
26.6711
128.021
94.9694
141.008
8.93034
72.4421
63.8465
8.84961
28.7425
80.7296
26.4624
103.612
200.835
79.9084
55.682
0.39733
60.1011
21.3577
89.2308
0.337384
0.92336
0.203316
92.2578
29.3783
39.6263
0.141774
9.33568
0.211327
0.510665
0.18807
96.753
29.3494
102.885
0.309205
8.34124
157.308
0.213363
0.111399
10.9167
82.6421
122.77
37.4642
3.51605
2.17928
3.2556
35.6756
29.8484
7.5499
73.7942
0.183467
42.8668
61.0985
12.9627
0.158086
0.510279
2.16658
32.5772
73.6681
0.398237
1.10979
0.120449
0.15548
2.27388
0.20477
0.195718
81.926
26.4214
0.241441
40.915
3.52712
8.93059
27.8067
23.2336
127.211
128.849
41.7716
48.4654
0.258781
0.1745
1.41097
5.86299
0.209501
2.95225
2.45509
77.3264
207.634
37.0043
187.919
4.12604
0.155889
0.244424
1.07177
62.8191
0.273653
45.768
146.351
100.75
41.2024
47.7461
36.2378
3.4937
191.071
38.3169
23.9002
32.3535
114.418
2.90194
38.0811
2.61165
0.466565
24.5622
0.214998
1.29825
24.9855
139.101
115.144
0.19392
0.100005
0.238397
40.6293
172.421
71.8913
41.1596
0.163086
42.6356
17.6055
0.220138
1.13839
9.83226
0.179086
10.4183
0.573385
19.2553
25.5878
159.453
74.7912
0.175219
0.278396
111.816
21.7568
185.212
44.4407
72.5312
40.6891
16.2244
8.76277
266.959
47.3598
27.2332
42.7329
106.284
160.455
0.332755
107.586
4.69408
15.0712
28.2571
92.5071
38.5571
41.3204
43.8866
128.096
28.3442
0.15921
1.98561
327.169
11.3433
23.1142
60.3695
96.4638
0.469252
1.12016
0.380362
3.56757
86.1162
38.4986
128.747
2.31534
8.99155
0.643916
4.56992
0.233017
0.280602
27.5535
94.0558
5.09368
115.041
36.8997
8.64956
2.00482
203.857
78.1232
42.1158
145.378
99.2239
39.6133
54.3841
10.4342
55.4931
20.6414
85.1555
23.7077
0.215973
2.05839
0.268346
0.341789
5.03627
38.2212
1.44177
22.4946
231.433
13.158
1.42236
0.33826
81.9441
30.7655
21.6014
86.3222
28.2976
2.50099
80.8033
58.2511
38.9048
3.19047
35.1869
0.174183
134.963
1.12953
84.9768
9.6186
13.107
0.771069
0.725804
0.532008
0.133211
21.5277
42.4168
82.5101
186.756
43.6847
1.36084
7.04452
34.2926
137.104
0.476512
10.384
14.2636
71.3494
0.265384
1.45798
19.2542
50.1082
167.66
0.415586
17.447
0.108376
0.157807
0.170471
22.1585
65.1513
82.4013
9.33381
0.192764
70.7827
0.164902
5.64619
321.049
1.10023
0.163686
3.19962
0.15302
20.5721
2.80661
25.5173
0.447445
1.47812
6.0823
10.7444
175.737
31.5888
110.958
40.8054
52.1006
70.2673
39.44
172.862
33.4663
0.529125
0.200136
5.1049
25.3915
6.67834
0.317715
198.411
49.6544
95.5532
16.7749
0.218771
55.3033
3.20411
14.1439
53.5816
1.41962
238.373
0.100951
0.205501
58.6108
17.0533
6.36284
6.36045
55.0965
10.6294
6.97176
0.209999
0.194641
49.8855
71.0486
10.1162
10.0907
34.6401
1.19389
38.0093
132.526
75.4963
83.1807
33.7528
0.937256
0.158802
17.259
0.422879
0.195231
0.184266
2.17746
25.4294
0.166015
7.36544
0.36862
105.672
49.1731
12.4304
8.09171
7.98166
15.7572
192.946
24.8607
73.8161
6.30041
0.283048
183.01
12.0143
42.7324
7.34177
113.885
54.2874
59.9184
2.46995
121.757
90.9108
3.51151
1.62088
0.75914
1.85196
0.417297
73.0062
41.6092
79.6401
79.3065
21.9755
51.7613
22.6624
12.5854
0.226047
1.55454
15.8586
0.423645
153.215
21.405
165.007
6.95492
74.4967
65.0974
0.197744
1.02898
150.62
187.287
10.0446
12.5432
23.0304
64.4876
0.165908
42.5422
0.219393
3.38243
2.10066
0.191021
0.18627
0.154966
0.99521
0.358815
0.165298
0.282134
7.9683
58.0465
5.35872
0.114752
0.404944
77.5999
9.71942
27.4446
2.84723
32.6704
0.210214
39.1456
4.76399
1.07996
0.46797
11.2756
43.5111
0.317225
9.99752
0.196812
1.00302
9.23196
64.5923
21.5179
106.289
145.34
0.363537
11.0618
29.0588
34.8578
27.1638
30.4806
43.1049
100.299
0.656197
5.74054
0.325041
0.588013
18.9552
11.8186
175.071
155.723
109.773
0.0951569
22.2976
136.37
62.2986
56.6507
51.5625
0.145023
1.19276
0.285888
40.1642
11.0343
34.9878
4.55834
3.49646
4.40909
4.82217
10.0906
8.15652
0.186906
1.26369
26.0899
29.4475
12.0006
0.134987
8.20417
52.0926
0.413101
0.171893
0.195447
0.707619
13.2607
0.440939
25.974
0.18425
10.3671
17.1475
0.262959
53.8359
10.3762
0.296399
5.65617
76.5795
0.291498
65.3025
2.64131
1.62551
0.286797
3.27013
0.1343
0.269824
10.3692
0.283106
0.135681
0.437383
1.60104
3.21439
58.3492
27.674
8.9865
99.9217
31.1919
0.175882
0.221978
88.1208
6.33433
22.9048
85.4057
0.213995
19.3498
0.575039
71.669
0.102548
55.3815
0.101071
94.0759
44.7422
0.361639
36.1932
0.620309
4.68132
0.834794
3.14107
30.7019
33.8811
0.541107
38.092
0.168139
0.442062
6.52668
0.346825
1.44709
45.4877
1.2152
19.1944
0.271918
99.9562
0.126112
1.5761
0.247364
4.50147
51.4137
18.2805
0.930643
28.7125
7.52515
16.0925
114.234
38.5133
0.198042
5.82293
53.214
14.0026
23.185
6.91318
53.42
77.387
64.7719
23.5381
60.7445
8.79879
8.70127
0.150798
1.46862
2.93269
0.370998
764.42
40.3691
0.32827
0.848415
54.9073
51.0604
8.64884
0.489692
6.33325
25.7948
1.49132
0.323904
50.0746
1.92541
29.6723
8.17408
91.985
0.154072
0.81313
0.595622
4.50876
4.97196
31.6834
0.229073
46.5621
1.16391
99.4975
6.87623
6.77812
4.35783
23.3257
9.25215
17.794
11.4984
4.51469
0.497198
1.22272
30.2077
10.5333
5.54448
0.143788
0.994542
20.1605
39.2819
23.502
2.76491
9.47045
7.48016
1.45324
7.52537
7.35512
9.87301
12.7493
11.1143
27.6937
0.248698
60.2791
0.207107
304.76
0.313652
0.122412
0.295674
1.34337
0.246779
45.9955
0.174963
6.49478
0.968158
4.1481
38.0466
223.421
88.6782
0.106156
0.247543
2.69927
4.43765
56.705
18.6191
2.14319
8.61845
0.264699
58.4628
3.53927
18.151
33.2692
5.95369
8.34752
34.8014
0.505512
0.499671
29.6866
82.4683
32.2584
11.8537
8.56647
10.7431
0.200097
59.1622
193.144
39.7202
102.803
0.234142
0.539556
38.3026
9.98842
3.47842
0.183187
13.0867
41.1561
1.49683
0.545764
2.64496
1.02221
0.32506
2.68935
2.47405
30.4118
0.492505
9.47927
32.4245
119.531
76.3593
0.765338
31.7286
4.42788
76.5238
1.60884
49.9533
109.174
28.9727
58.5287
0.520835
35.3283
34.4929
178.664
1.59528
0.176012
0.176278
74.6828
1.46971
0.269453
41.6655
13.833
0.831441
23.4971
9.49983
1.00762
33.9708
1.16266
0.182388
7.3961
1.48013
0.189853
0.29753
80.6537
9.35952
49.805
43.5864
41.7091
0.176301
103.724
1.37858
32.8783
11.5847
5.26848
3.29058
0.285896
30.8803
0.314522
0.257863
0.146207
53.0135
0.12443
8.06585
21.5628
183.374
0.488375
143.94
158.411
1.18731
8.84773
0.305315
18.9274
5.20205
61.2302
77.2354
1.42343
0.920752
17.3526
28.3028
36.7688
168.683
77.4034
113.73
73.9036
18.8971
1.19658
0.175428
16.5246
0.24513
82.2846
0.140116
0.659259
0.147375
16.9392
3.39554
1.5146
0.307931
1.96434
3.29509
0.796032
0.164723
0.27585
7.60591
1.77214
33.9706
13.8877
0.498809
143.882
31.1234
57.9557
18.3719
0.197427
45.4925
0.229783
0.524053
0.258362
0.565451
609.827
11.3852
44.7021
20.2115
74.7147
104.753
18.2863
0.178219
0.443539
0.68043
0.322885
1.75817
1.43104
2.81638
0.814217
2.36577
2.99196
1.92963
0.964611
0.847058
0.341827
0.380357
1.97461
1.82932
2.4863
1.12718
0.666195
1.38304
0.304366
0.480407
0.257685
5.74785
0.956789
0.558003
0.399358
2.33383
0.331673
0.829663
0.847986
0.277259
1.00779
0.524965
0.205679
1.4451
0.499689
0.651298
3.59723
0.361325
0.163037
0.687606
0.845804
7.41612
10.6873
218.731
0.157171
2.8981
35.9636
92.4815
34.4119
0.157068
0.371312
16.0792
0.141146
18.4097
71.2379
372.457
59.9756
102.659
26.0015
0.13473
0.124231
0.837275
0.153089
1.24978
20.6944
1.7501
3.8489
0.550509
2.46922
19.005
16.7823
0.458583
15.4518
10.4087
453.253
0.208227
5.3187
2.16568
13.4435
54.801
1.07004
58.8197
40.194
31.4662
23.1771
9.06878
20.1061
10.9809
11.496
13.9057
785.309
0.189803
1.67184
0.786477
44.965
39.2196
0.31962
70.071
50.7354
0.72561
1.58569
3.51904
1.08371
0.189684
2.42701
2.46705
0.214745
0.316752
2.88418
0.771486
0.761034
0.153887
0.84207
0.358295
0.762625
1.14194
0.436532
1.93937
0.333342
0.739108
0.174322
0.61349
41.1417
63.8192
6.86173
21.8237
2.21161
13.9163
35.5096
0.278405
62.7362
34.3544
5.96673
42.2515
41.6479
0.838353
0.249359
41.8697
40.2302
0.176718
193.924
92.6509
32.6741
0.208128
55.8822
31.2836
0.243987
58.4177
13.0952
62.2272
1.05952
3.68105
1.03953
62.1373
0.202929
41.4489
57.661
1.77844
115.196
0.431373
75.5992
0.176094
0.940078
0.203512
66.3922
0.272112
0.303703
4.22429
0.190643
108.856
10.7398
86.5493
19.7425
4.99347
7.48615
145.173
0.433696
9.12326
8.1572
67.349
41.4056
0.664637
0.191976
10.9584
7.35961
53.203
10.2532
0.193016
2.88204
1.61646
8.6913
0.366118
40.317
25.3647
0.44762
0.281331
84.9362
95.8121
12.2303
9.44889
69.6262
1.86817
51.9721
68.7724
39.5061
50.9148
33.517
0.20752
43.4384
0.319865
0.779704
0.183495
48.0338
7.84631
5.21051
7.13927
43.2521
33.1035
0.23969
0.43699
0.408954
15.2851
39.8166
50.0407
188.072
53.6958
41.3887
39.6041
11.4204
27.9936
27.0395
63.1131
23.3832
47.3935
39.5153
49.3318
35.0938
111.738
107.702
2.56345
62.5591
31.2224
20.3874
13.0352
10.3474
93.6738
42.3262
7.56085
52.6017
28.4858
110.669
2.50837
5.88524
261.426
8.01705
63.197
16.3177
0.329929
0.175034
0.577816
57.6633
0.206631
0.711913
0.773988
62.3565
67.9199
55.4861
43.8114
73.1653
62.6523
74.4242
0.229902
74.466
69.122
68.3363
50.3476
64.9704
47.7587
70.7249
64.2763
68.6547
16.1161
14.2907
10.1014
171.52
8.74044
5.87278
2.4141
3.98589
0.333371
0.483923
14.3994
30.5156
4.59078
0.4468
0.569033
37.0027
28.9923
20.8055
8.27504
3.01691
4.18079
1.77702
0.91247
6.57454
2.26154
108.664
0.803534
9.8794
2.32498
2.24988
0.433273
15.7182
0.480117
18.5525
1.90875
0.597932
12.1062
2.95746
1.1728
2.2866
1.26337
0.292957
69.6628
0.299934
33.3092
15.8994
5.57953
47.5381
100.612
0.303101
84.8908
29.4578
16.6085
122.521
0.369045
0.26791
110.738
25.3718
98.2835
0.32813
7.94701
123.204
108.857
73.7521
0.27382
0.283452
0.265175
19.7034
6.67838
275.502
0.289164
9.0071
4.7276
0.325129
17.0606
0.442187
5.5652
50.485
32.7948
11.1404
264.399
80.3598
0.252562
82.5314
0.365583
4.48363
10.0509
0.467414
129.576
8.12414
257.852
7.00103
3.05412
0.426612
56.1328
250.075
0.233327
101.762
42.8785
10.9884
5.39281
2.79893
0.235098
4.74045
53.5751
27.9716
53.0674
175.385
162.503
2.59479
10.0357
7.45756
85.8063
3.54867
0.448821
0.960087
219.752
0.173275
0.601033
0.626549
31.9491
12.2442
12.6874
1.11472
6.97578
4.09737
0.656733
1.94985
37.0345
1.39816
1.35746
2.24988
3.94207
0.441611
3.28257
1.71323
0.301388
129.818
2.44785
1.96643
3.78396
3.0208
1.33951
7.81004
3.52834
3.27807
0.370574
3.827
24.8566
47.7686
1.97066
6.7743
1.48102
8.48477
3.74685
3.28878
2.1292
3.70749
3.41889
3.76094
1.9204
9.03007
4.57161
180.397
2.70541
6.21862
4.24645
5.02649
4.72834
3.92944
16.7932
1.32598
3.50257
5.49517
3.85147
3.80504
6.83751
6.6899
13.8197
0.983137
2.76255
3.38614
0.848427
1.14368
5.82979
3.20032
2.49479
2.87416
2.26976
2.49701
8.09195
4.48071
4.08489
2.59271
0.47687
0.63662
0.194983
7.07999
25.9534
4.30205
52.7971
12.6757
2.80343
2.38085
4.2157
2.42607
27.6844
50.0055
9.25114
3.13626
6.60353
1.98011
2.73816
0.610606
4.24636
10.0428
2.53281
8.14326
196.073
26.6595
1.4272
11.4691
11.6727
1.05725
0.669686
0.200305
0.376263
33.4606
7.95349
2.83643
5.51266
3.25616
0.673213
0.199152
0.355391
60.0125
28.855
4.12573
33.7682
80.121
7.02823
2.49467
7.12728
202.716
11.352
0.748544
3.72294
19.2365
14.3139
2.55621
34.8546
19.926
9.2818
29.266
9.54236
0.59987
0.172907
0.276706
22.5307
10.8621
28.6114
29.7216
79.4654
1.38632
196.888
167.679
1.50475
6.15372
8.35815
5.41848
12.4104
5.4614
6.29047
5.34294
14.0868
11.3748
3.83036
46.1889
32.2453
52.1796
2.1855
45.3679
6.59244
2.16288
28.8498
0.172357
0.16703
31.9778
9.76293
5.62279
29.2648
0.67148
5.29176
7.26455
16.8174
20.9955
5.75047
0.6392
0.192129
0.308569
40.2593
51.4939
2.0173
28.9765
62.5121
56.7788
79.6341
5.70992
2.14774
0.925254
0.832293
1.58392
176.074
1.36896
47.7915
51.3689
4.81951
10.7988
112.265
0.420169
1.67039
11.0458
14.1703
15.1834
6.69469
51.2658
48.1569
9.88622
35.3376
36.1713
0.178943
3.31357
1.60285
0.646671
0.836792
1.3275
5.9467
4.55691
11.9057
0.52805
0.192083
0.334861
94.8142
87.3169
0.174501
0.290962
102.432
74.6976
23.3126
0.194742
62.8077
5.01616
3.10329
1.00288
1.80004
190.466
1.26385
0.231588
0.171351
123.323
74.5658
95.8152
1.27599
84.7645
82.4342
28.1982
11.6729
17.4325
21.8353
11.3718
3.27531
3.42615
3.50295
3.44539
34.6504
25.7774
1.19731
1.23252
23.0464
43.9207
38.7554
79.9691
51.7198
22.5825
3.33477
42.8712
2.86787
3.9515
129.525
54.2122
73.1436
94.0196
51.4749
22.5104
13.8332
15.5003
7.75622
1.65539
3.40393
0.565424
0.220268
0.324361
1.6149
1.92354
1.4008
83.6823
84.3969
14.0306
66.6658
4.66132
6.64179
3.37672
0.985388
98.233
28.9922
80.8734
25.6327
1.64154
6.26154
69.3035
14.1841
11.3214
0.20287
66.9941
2.90482
3.91856
1.00222
34.3733
69.5805
5.52975
3.5339
21.9832
113.024
0.899017
0.830839
0.283711
1.64413
1.47603
1.59412
61.8608
1.20812
0.268106
0.43993
26.0949
1.53989
1.31298
63.8634
0.199717
166.158
3.15094
3.20142
3.84583
33.276
171.314
12.7747
3.14771
3.34182
79.7928
49.4779
0.135115
1.15942
1.34396
2.72745
13.1954
1.95233
0.497174
11.148
6.86418
0.172714
1.22813
3.07554
1.25167
10.1614
3.45507
2.43725
3.54439
1.07656
20.2832
33.1372
3.16105
29.2348
18.6065
1.95281
2.90051
49.975
3.41969
74.047
39.8033
6.16006
41.4577
16.7641
128.916
27.8066
53.6885
3.19138
85.2659
6.98615
19.2236
2.72352
1.34713
55.3442
5.95333
11.1794
4.77642
16.541
8.30314
5.34256
63.0154
16.9197
57.2182
20.7496
3.94815
3.97945
0.452934
0.207858
0.347607
29.9192
145.462
19.7098
1.15991
0.330205
94.6455
8.74629
199.738
115.232
53.0683
72.9086
38.2838
0.672791
31.4862
1.47747
2.9721
41.0085
56.6261
0.343338
10.3425
34.3488
31.8772
75.7753
0.517592
16.431
62.4635
47.692
6.53214
0.406582
54.5055
98.5111
10.1478
21.7752
83.8327
92.3216
24.6286
0.212659
3.75066
29.7984
23.1104
0.169327
30.9195
26.5584
32.2654
4.44063
23.9606
22.6401
117.872
4.05658
1.86262
0.158714
0.467877
31.5358
149.216
78.3424
82.9476
68.8222
323.589
0.772561
5.74957
6.57378
53.7918
3.1188
182.783
38.7198
0.348063
0.740047
1.53185
0.185693
0.230965
69.4508
74.4953
63.4683
44.1079
175.999
57.4123
7.30608
17.6308
90.5807
116.25
29.3399
548.622
4.97608
0.174876
30.0416
93.0049
22.1791
23.2412
42.2512
6.76493
0.212891
39.0674
0.166624
0.557071
27.233
0.479262
12.3282
0.301696
63.4336
3.57988
47.2079
6.437
11.6436
15.5949
24.8741
37.7557
60.3624
0.365306
127.552
2.40045
3.84122
0.148725
0.615612
3.69049
79.1641
45.3763
103.705
1.10613
86.3161
127.118
1.13306
26.2383
3.78759
3.63185
1.48267
2.01434
91.0304
51.3197
3.66588
4.17484
60.9323
12.2125
17.8352
48.7321
1.18578
15.839
5.62823
107.161
5.19777
35.3351
0.232145
0.178392
12.8667
92.7959
14.7803
59.5855
71.4507
2.39592
1.96871
36.8703
4.31005
0.446273
102.525
0.524394
0.212634
167.703
11.353
77.7305
1.43259
50.7077
58.4501
0.355876
8.28045
18.1427
61.4426
57.3509
5.89217
24.6093
50.3833
46.0135
13.7243
10.0788
8.8805
1.97168
0.317813
0.320381
65.4089
28.8174
5.89971
5.20694
96.5529
8.85025
46.8432
31.3307
1.34506
5.12847
61.6328
84.734
0.393049
0.162729
0.525718
43.5698
26.3339
49.2112
5.52888
3.78563
50.9689
75.3745
0.165277
35.9247
131.752
75.4418
27.3381
73.0396
0.94817
21.0512
67.1797
0.473834
0.249735
0.336198
21.941
0.21809
5.39385
56.894
0.197259
36.5712
15.3651
4.72514
6.86141
249.937
10.977
23.4977
0.230546
28.2316
66.4019
30.0647
5.57909
0.360419
0.20169
0.344056
42.7219
14.2818
18.9161
80.7021
15.3614
30.0661
205.419
47.7205
59.1171
0.665888
60.0115
2.69154
0.513115
51.3654
27.7453
3.65734
0.682739
1.68039
24.3688
38.4955
0.903075
0.227233
39.6113
87.0395
4.72393
15.7315
8.95585
91.2971
190.888
165.795
0.196961
13.287
66.3897
119.164
21.2144
50.9034
5.11951
20.3131
22.7504
67.1654
14.792
37.0174
6.56235
13.7106
0.13566
30.9248
3.87784
0.387428
36.9102
2.18802
5.69637
109.182
32.4911
0.157192
1.12523
44.5402
40.3886
52.6816
27.8478
2.67726
2.30915
0.15235
0.307885
0.220922
1.18911
101.856
0.464351
25.3507
59.3053
3.74445
0.213406
5.35096
9.10151
100.834
0.256912
0.321087
0.310453
2.84075
29.3622
2.10349
3.58094
0.149944
0.177652
0.335378
0.466804
3.08291
1.89807
5.91517
23.7295
19.9716
1.13927
25.7681
8.09094
20.7536
2.17613
0.91551
0.311359
0.689839
0.206308
41.7678
0.206624
49.427
69.8971
39.9332
59.5907
0.191682
6.35303
1.04905
226.298
2.293
3.38785
0.359665
0.2448
0.332528
4.85499
0.434856
73.9075
218.618
0.189133
3.34202
0.324193
2.81892
2.18854
24.3098
0.129278
57.7014
19.831
43.2618
71.0267
0.799361
2.47499
5.83386
94.9904
2.83525
60.1739
9.18321
31.5197
0.38785
6.81934
0.407556
4.44795
5.54551
23.1753
26.0684
1.36183
0.221526
3.39921
1.23207
1.10419
33.0176
55.4403
42.0411
39.4023
45.3152
16.7029
28.2319
5.90874
74.2325
6.67899
23.779
0.247255
43.141
63.2326
92.4432
12.1399
0.335505
2.3878
0.843667
0.161624
2.2085
8.17569
1.65078
3.92524
93.1098
0.141741
1.86567
58.2755
8.04561
30.6036
21.4624
31.1056
70.2193
6.0449
2.90752
2.09165
7.23569
11.8067
2.74159
1.39319
28.1368
0.294959
3.91727
3.99153
0.229251
20.0384
0.288712
0.6405
0.281435
0.169772
0.344163
0.690956
3.04741
3.81495
8.69503
0.470707
0.202036
0.538851
57.804
45.0046
13.6839
10.8487
4.10256
3.78702
3.49577
76.3947
47.932
41.2197
324.572
11.9816
74.1376
88.6507
124.446
29.696
0.297161
0.294875
0.169151
0.207275
0.295552
7.65076
29.7198
82.0729
0.313455
0.754335
2.66157
27.5841
11.7216
64.5327
0.120218
1.59337
58.2365
11.9264
24.0367
21.0538
1.35351
0.184299
23.302
20.8301
107.217
1.2424
14.4668
134.3
3.20938
38.4954
50.2803
1.23259
0.990938
12.3815
1.57683
0.325022
2.91904
0.249707
1.08459
2.21459
1.05086
3.25511
0.598885
1.46365
192.596
57.5251
0.201295
0.129813
0.374485
31.0443
15.6783
0.236286
25.409
37.7963
0.245264
66.1818
26.7737
37.1921
101.946
240.441
59.4854
28.8049
0.393849
16.6527
46.9769
25.0269
3.67021
0.668032
93.3427
0.19479
79.5545
3.29107
0.318098
11.3443
142.366
47.9081
0.282238
3.35058
33.745
4.16515
6.69046
0.481967
3.09513
1.64065
114.832
3.92437
38.0167
0.261798
0.215343
0.315364
1.22555
0.293336
0.419263
53.6472
0.195051
47.9383
102.425
6.30014
9.6967
199.751
8.10981
5.178
169.754
16.1848
14.3067
202.668
6.14785
133.044
0.278437
0.17967
0.327666
60.3963
4.1831
0.20506
0.990338
0.202201
0.179763
28.3332
92.6199
29.2432
7.32775
14.4389
89.37
29.8065
27.8194
10.4264
7.2619
13.9291
105.074
34.3691
169.568
26.101
0.216896
2.4755
0.320643
36.2687
1.17316
55.3002
44.1237
17.5219
5.42129
5.47299
31.4042
0.961869
0.27863
0.535315
0.324508
0.254121
10.9249
5.38064
26.3706
4.34614
12.817
48.3396
54.7209
25.1483
294.328
17.0779
0.511341
0.385676
0.252645
66.1682
2.92925
22.6818
6.37943
0.167687
5.30212
110.357
54.8397
5.56542
6.01896
28.7126
53.9227
2.41044
0.234238
0.225735
23.8909
304.253
4.11796
19.8634
35.4525
51.8977
22.1241
9.6204
5.32782
29.2053
73.431
19.5953
0.189537
6.13743
0.0627358
43.8093
0.0626813
26.2642
299.082
14.3989
5.20113
46.6569
0.482661
6.26716
13.2349
0.0743445
29.9591
0.501745
0.0768343
8.12608
19.3458
83.1565
37.7116
5.21361
0.502216
0.564974
0.69003
0.0919391
0.119331
0.347675
2.73414
28.3426
61.051
28.1372
13.117
8.89724
87.5488
61.937
10.1187
2.16088
0.675169
4.25012
150.001
102.835
43.3492
3.24043
0.611479
80.7656
1.5383
18.1653
8.95678
60.7245
3.7674
116.314
22.6912
25.8685
8.10981
77.4449
314.506
0.1242
34.9516
0.621206
3.14745
53.6082
12.0101
0.290727
0.14238
0.18998
0.295812
1.43128
103.785
28.1883
11.4449
207.076
17.2137
5.32016
62.5431
40.4637
13.0156
113.912
0.554436
18.8311
0.194641
16.1827
62.656
0.206496
19.4468
46.9106
7.615
39.8223
0.500497
1.48018
40.1614
153.17
51.8618
74.0507
22.2178
321.381
0.230556
27.9755
52.3744
5.33874
114.214
20.5932
120.914
22.7429
9.40061
259.388
42.9937
34.831
0.237601
0.209809
0.301858
51.6831
6.00774
4.34214
0.430235
28.6584
31.3768
0.244823
0.606317
4.34046
14.174
79.4162
3.18779
0.749611
13.0553
46.431
29.1513
18.3061
0.385547
113.099
23.9054
2.98068
51.3237
64.0412
0.263862
47.5317
27.6461
63.4578
33.8325
34.2516
7.06821
0.227792
0.271532
0.245619
0.124016
0.36238
7.73835
9.87521
69.1381
24.0409
15.7087
134.931
35.641
45.2939
2.1395
7.76122
38.7206
3.04737
16.9474
6.44317
67.3348
126.739
87.6311
29.9702
74.334
3.11893
39.2108
42.7465
10.1377
0.197833
0.570155
93.4363
29.764
1.17613
72.1443
88.4363
0.205818
49.1048
24.3773
74.6531
164.668
70.1163
0.1187
65.0392
0.409703
0.415221
0.314569
57.5288
40.5411
69.877
0.435737
3.19159
100.832
7.6104
0.25657
9.96918
59.0222
37.741
74.7745
154.995
55.3312
0.873084
0.295542
39.1447
33.182
193.564
114.874
162.971
1.75474
0.547012
108.232
86.8363
0.302421
0.128817
0.221696
0.249697
2.2824
1.00264
108.679
13.481
2.26133
21.5708
25.4474
7.72083
63.3157
110.614
65.1561
5.70129
33.1741
6.31219
42.679
15.0104
8.16685
132.027
132.268
40.2244
75.5271
372.427
308.921
0.371674
1.07866
149.18
80.7016
0.296055
0.163725
0.34708
1.91103
39.1847
116.677
54.79
14.8256
0.277901
83.5592
0.357716
0.625137
0.33215
3.66884
0.824849
59.4167
134.26
50.7511
4.25852
110.731
0.529516
6.0603
93.6928
39.7238
55.1268
29.7548
9.53538
97.9382
65.8469
0.236459
4.83186
2.77615
5.5943
4.31285
14.8911
81.6607
32.973
35.6029
24.8822
21.0406
20.0552
21.8312
1.36093
0.231371
49.0999
3.26274
13.9624
408.954
10.3417
84.3259
61.4591
0.321598
0.43781
0.299707
0.243059
58.1243
65.9353
66.3629
0.652412
18.2431
5.87598
1.58233
10.0284
41.9245
6.1375
5.75123
4.59334
0.20077
1.41169
0.29661
0.375688
114.682
42.6566
1.1748
47.7992
396.686
112.327
135.129
42.6361
0.269759
40.0252
4.76723
2.93925
51.2893
158.858
0.255594
0.26741
0.138807
51.6623
19.4179
88.8613
1.84293
3.96843
45.4163
14.4214
0.142226
1.10754
1.22638
1.89925
8.558
107.389
28.8669
6.10677
92.1495
39.2843
59.5553
68.206
5.63193
61.5072
5.84449
19.4523
52.4857
30.2079
28.5744
0.30226
0.279348
44.6879
1.04302
1.99083
0.554031
80.3412
31.1955
37.1385
0.696605
40.4819
0.700008
46.6153
35.1055
27.8212
31.871
28.4014
58.0003
26.1677
1.2385
40.7335
35.3017
0.508838
2.31429
0.400743
3.41894
3.68857
17.1902
40.2476
0.400521
3.12728
120.232
1.32669
47.8968
0.196095
0.345818
141.189
174.421
0.178405
0.493316
0.277987
2.3143
3.74812
0.338943
0.921272
0.404458
0.792557
0.398012
0.306459
46.3445
0.623828
0.201534
28.2247
43.057
1.34076
30.512
0.538572
1.27771
35.4786
77.0251
25.65
0.180067
35.0543
120.836
70.688
69.1968
11.4536
0.275763
0.811367
0.358818
40.3441
135.159
26.5187
4.36896
8.42097
8.5223
0.168041
2.54727
7.13621
60.2178
4.81831
59.164
0.172897
8.55837
112.927
36.0453
5.45825
34.6965
0.172816
92.7783
40.5342
36.8185
0.178093
0.927068
0.17004
0.166899
7.03113
16.3254
2.41648
39.2651
25.8535
117.061
19.5677
12.5084
0.745079
3.15756
0.639089
87.7977
29.4285
32.8131
2.72923
87.9883
6.12298
21.9078
38.8845
0.193119
0.257578
10.987
89.7219
74.5582
38.1686
54.5518
38.3267
51.7288
2.606
3.09694
0.441735
6.17913
5.54127
712.834
89.6101
3.86227
101.005
35.074
1.72025
1.44485
6.39561
1.14366
0.451853
0.819863
43.0769
29.3283
40.1018
44.5997
32.3373
0.859254
3.11557
0.170082
6.63941
22.5214
58.2323
531.166
16.456
11.0458
0.18564
1.26831
108.519
60.2048
8.97812
0.675206
1.42927
12.3261
5.66229
4.46452
29.9796
176.886
0.327378
0.319164
0.170911
9.55888
8.41068
1.70557
73.1804
0.97241
293.496
35.7202
61.5251
101.476
0.142484
0.97344
8.88093
12.0513
0.340731
5.20451
4.91834
39.3223
83.4336
64.6296
1.84362
2.86872
88.9684
0.433403
12.5888
14.1701
38.3863
62.5573
89.1951
0.659952
0.279005
0.317093
61.0095
11.8056
159.402
37.6042
2.1371
40.3598
120.759
64.7705
56.1966
7.32551
77.1119
46.7483
19.8107
0.288509
0.398018
33.8933
0.570291
7.83032
11.6109
1.04243
74.0564
418.913
335.894
7.11018
84.3357
2.64407
1.92579
1.37517
0.364678
82.8814
27.2618
0.701017
0.53279
0.312654
1.42732
13.4211
16.9083
91.3306
39.5126
1.81493
297.071
1.13753
48.6605
101.377
83.6333
48.1585
17.8887
6.78345
80.8336
0.306111
1.01197
0.24574
0.868403
2.94697
22.4341
61.3527
2.5511
40.8758
0.527665
0.285563
4.26594
10.1311
1.61377
1.21956
92.8576
40.6637
44.3024
10.3861
0.529155
0.166113
12.9575
207.565
3.16101
340.044
0.70656
2.82915
49.4859
40.6576
1.4659
27.5098
173.309
0.836908
18.1817
45.3201
20.0223
75.4433
71.8327
10.8533
21.473
1.63567
22.5523
87.9316
12.7829
121.799
15.5837
8.04736
0.67278
26.7017
15.1429
20.5349
80.6779
1.24633
18.9043
7.93555
0.254663
0.525007
8.14327
0.143641
7.35935
13.9057
8.5103
11.9335
18.2244
58.2707
108.075
91.2589
58.4698
0.4807
0.304602
0.76589
0.354018
4.27822
9.81229
1.0038
1.31235
12.5254
81.0079
0.422237
1.07115
1.09561
22.5239
81.8397
2.46881
2.07549
1.2133
2.55805
59.5391
34.4082
2.47073
0.175574
53.3948
95.2893
25.602
0.389605
6.32229
0.228638
0.364117
1.00161
0.161609
2.55427
41.217
0.473302
0.611702
36.9999
57.392
0.517604
29.831
0.323769
58.7458
0.169657
88.4602
2.78706
0.707124
5.55799
61.3146
95.7251
101.16
36.0248
30.6214
46.5638
1.7297
51.6885
44.5483
0.557884
0.305332
2.45062
2.46508
174.176
18.1094
24.7302
3.57419
49.7814
61.5792
68.1908
13.5951
579.761
13.2566
0.765734
0.175511
0.153048
0.217164
0.280114
1.76765
12.2669
0.319819
0.491091
1.00646
0.261421
1.24741
3.83617
5.54697
22.5821
60.4928
114.686
0.479554
3.43793
0.148642
2.76734
65.1789
34.9729
14.6951