/*--------------------------------*- C++ -*----------------------------------*\
| =========                 |                                                 |
| \\      /  F ield         | OpenFOAM: The Open Source CFD Toolbox           |
|  \\    /   O peration     | Version:  v1912                                 |
|   \\  /    A nd           | Website:  www.openfoam.com                      |
|    \\/     M anipulation  |                                                 |
\*---------------------------------------------------------------------------*/
FoamFile
{
    version     2.0;
    format      ascii;
    class       volScalarField;
    location    "0.96";
    object      nut;
}
// * * * * * * * * * * * * * * * * * * * * * * * * * * * * * * * * * * * * * //

dimensions      [0 2 -1 0 0 0 0];


internalField   nonuniform List<scalar> 
5794
(
0.000573183
0.000622643
0.00415194
0.00490559
0.016991
0.00118102
0.00121578
0.000873067
0.00226426
0.000604072
0.00203366
0.00132872
0.0014174
0.00784946
0.00140288
0.00205169
0.0102695
0.00696208
0.000946602
0.00054867
0.00150806
0.000606594
0.00160962
0.000810216
0.00114415
0.00378807
0.0137232
0.0126115
0.00389183
0.000743067
0.00152761
0.00207761
0.0024125
0.00106728
0.00134517
0.00197028
0.000786257
0.00171942
0.0019054
0.00755757
0.0064085
0.00283986
0.000743629
0.00128993
0.00144677
0.00231147
0.00186147
0.00103479
0.000525228
0.000513232
0.000568421
0.00296928
0.000672182
0.0016449
0.000103786
0.00230214
0.00176671
0.00144547
0.000733443
0.00498832
0.00132856
0.00040612
0.0012985
0.00480384
0.00572193
0.000815562
0.00553156
0.000695907
0.0055285
0.000314585
0.00617139
0.00493854
0.0159182
0.00100222
0.00580725
0.00869555
0.000215671
0.00336406
0.00116207
0.000265826
0.00052916
0.000357637
0.00692716
0.00177718
0.00163633
0.000898881
0.000749082
0.00102122
0.00152239
0.0030007
0.0050263
0.0021099
0.0034251
0.00540848
0.00260893
0.00804589
0.00396825
0.00318723
0.00198808
0.00142753
0.001434
0.00119506
0.000757104
0.0118353
0.00350666
0.012573
0.000436174
0.00416561
0.00511832
0.00101027
0.00070223
0.000666808
0.00138447
0.00168412
0.00233244
0.00406571
0.00105996
0.00632258
0.00123731
0.00100899
0.00872328
0.000191432
0.000827742
0.0108414
0.00131478
0.00360519
0.00349523
0.0014379
0.00339758
0.00391436
0.00159679
0.00188003
0.00302796
0.00317566
0.0111373
0.00158469
0.00295486
0.000445953
0.00346381
0.000803456
0.00121777
0.0129334
0.00150018
0.0131892
0.00445934
0.0130291
0.0019597
0.00148148
0.0141501
0.00698115
0.000726672
0.00113978
0.012156
0.000825197
0.0144377
0.00171163
0.00172791
0.00125843
0.00213064
0.00155362
0.000347596
0.000676712
0.000346964
0.000881383
0.0019398
0.00186566
0.000831578
0.000603802
0.000397297
0.000233042
0.000287661
0.00194271
0.000586008
0.000458314
0.000317195
0.00130138
0.000219211
0.0010236
0.000461626
0.00190188
0.000647984
0.00115376
0.000608071
0.00153303
0.000717161
0.00376722
0.00110836
0.00111422
0.000244076
0.000822619
0.00165283
0.00138131
0.00170771
0.000847037
0.000971144
0.000849534
0.000798758
0.000367102
0.000393779
0.00100948
0.00103252
0.00209757
0.00091401
0.000837997
0.00163787
0.00199939
0.000670206
0.0058223
0.013697
0.00197399
0.000804633
0.00085808
0.0026528
0.00139755
0.00112727
0.00152236
0.00200431
0.00360252
0.0035553
0.00546902
0.000856927
0.00224822
0.00835805
0.00370257
0.00236415
0.00696438
0.000659825
0.00111793
0.00036958
0.00151661
0.000804998
0.000625887
0.000717475
0.00364406
0.00302187
0.0108305
0.013837
0.0020527
0.00100045
0.000683682
0.000318261
0.00767843
0.00234241
0.0015438
0.00128094
0.00139705
0.00152854
0.0120954
0.00114153
0.000945762
0.000706889
0.000912601
0.0127155
0.000479882
0.000811824
0.0230729
0.000908385
0.000893071
0.00381834
0.00110918
0.00253468
0.00251484
0.00135017
0.000716887
0.00113617
0.00120115
0.00974308
0.00367699
0.000710413
0.00289528
0.00246356
0.00115276
0.0032009
0.00504451
0.000869048
0.00100685
0.00161691
0.00115052
0.000613094
0.00134619
0.000675047
0.00324841
0.00462952
0.0017607
0.00533516
0.0052559
0.00255814
0.00308397
0.00532179
0.00886333
0.00144769
0.00092514
0.00122536
0.00159262
0.000771918
0.00309545
0.00246766
0.00123724
0.00279769
0.00113208
0.000290253
0.000994937
0.0004546
0.00327989
0.000956106
0.00310374
0.000577248
0.00431777
0.00249736
0.00213391
0.00130834
0.00279683
0.00228401
0.00172393
0.000783001
0.000904268
0.00513349
0.0136506
0.00459099
0.00405476
0.00210465
0.00116239
0.00515491
0.0161602
0.0032053
0.00199651
0.00108515
0.00111851
0.00123555
0.00186634
0.00180028
0.000821872
0.000877217
0.00149777
0.00129957
0.000303134
0.000269499
0.000313055
0.000202997
0.000913636
0.000446853
0.000888478
0.00233101
0.00115663
0.000279324
0.000556531
0.00170196
0.00121749
0.0021732
0.00171265
0.00199897
0.00253356
0.00147775
0.00115851
0.000673174
0.00264248
0.000388951
0.00187493
0.00113175
0.000838135
0.00580826
0.00253937
0.00296189
0.00190574
0.00104253
0.00408936
0.0017297
0.00154699
0.00124755
0.000988578
0.00157573
0.0004955
0.00463655
0.00361696
0.00661175
0.00300244
0.001665
0.00138205
0.00167622
0.000437855
0.00349756
0.00157329
0.000750234
0.00164111
0.00111008
0.000954883
0.00642573
0.0026943
0.00119363
0.000907677
0.00064304
0.00168339
0.000413323
0.00125051
0.000529657
0.000414033
0.000309381
0.00096877
0.00128081
0.00165531
0.000759054
0.00116404
0.0146075
0.000371707
0.000390695
0.00259517
0.00163123
0.00115155
0.000867297
0.00409311
0.00337104
0.00204081
0.00441669
0.00117301
0.00174155
0.00143141
0.000683268
0.00549078
0.00193769
0.00349662
0.00187329
0.00292677
0.00536188
0.00162532
0.000777559
0.000601792
0.000380128
0.00161402
0.000417679
0.000759008
0.00296336
0.000784417
0.0117004
0.00206104
0.00116236
0.00062317
0.00103584
0.00128034
0.00114359
0.000820829
0.000837679
0.000805547
0.000935502
0.000835543
0.00109795
0.00460315
0.00248045
0.00323565
0.000432039
0.00282068
0.000310923
0.000621414
0.00200818
0.000702753
0.00494307
0.000481638
0.00453851
0.00794511
0.00347913
0.00719411
0.000964527
0.00100327
0.000793444
0.00178319
0.00153458
0.00394773
0.0106858
0.0201702
0.00530044
0.00114701
0.000162284
0.0143581
0.00444867
0.000899065
0.00132031
0.00311455
0.0202408
0.0137019
0.001229
0.000841904
0.00102146
0.000932166
0.000746072
0.000625444
0.00545133
0.00345153
0.000861525
0.00107838
0.00279424
0.000745399
0.000562113
0.00461253
0.00427564
0.013853
0.00152996
0.000903452
0.000786847
0.0018334
0.00183188
0.00236847
0.021169
0.0192045
0.000728655
0.00184566
0.0132642
0.00105114
0.00101
0.00111769
0.00485493
0.00103853
0.00805694
0.000610556
0.00439111
0.000581213
0.00176515
0.00224979
0.00376633
0.000597864
0.000805484
0.0145612
0.00121196
0.00106759
0.0189269
0.00681947
0.00449022
0.0013078
0.001239
0.00210457
0.000873455
0.000806033
0.0011337
0.000286544
0.0100097
0.00229115
0.00239918
0.000865325
0.000785544
0.00299424
0.00392081
0.00210558
0.00066828
0.00232768
0.0003137
0.00548371
0.0013404
0.00303468
0.000755304
0.0134068
0.00137045
0.0010291
0.0127543
0.000574982
0.000255153
0.000999005
0.00207191
0.00151225
0.00115994
0.000785894
0.000864797
0.0118097
0.018589
0.000367906
0.00331546
0.00125474
0.00585365
0.000952289
0.00126765
0.00606797
0.000424202
0.00112338
0.00165214
0.00279253
0.00146819
0.00132855
0.0015085
0.00085895
0.0207731
0.00428052
0.00169012
0.00394229
0.00488016
0.00257276
0.00787336
0.00774197
0.00324562
0.00138479
0.00147217
0.00447007
0.00242686
0.0048831
0.00111336
0.0019891
0.000525892
0.00534329
0.00261289
0.00311995
0.000354789
0.000831187
0.000948013
0.00145491
0.000786995
0.00178741
0.00271947
0.00556142
0.000790567
0.00279104
0.00338791
0.000258521
0.000121448
0.00552063
0.0206045
0.0235045
0.0113907
0.00109802
0.000677167
0.000812115
0.00217863
0.00104208
0.000866224
0.00185584
0.000242036
0.00328631
0.00408923
0.00559714
0.000327774
0.00166074
0.00389831
0.0146409
0.00617804
0.00125312
0.000844406
0.000503746
0.000190513
0.00126303
0.00100682
0.00082904
0.00375433
0.000809454
0.00060003
0.0134155
0.00133888
0.000844582
0.00400612
0.00255778
0.00283757
0.00533969
0.0025027
0.00101147
0.0022956
0.000605285
0.000883629
0.00101612
0.00233272
0.000583843
0.00053281
0.00302432
0.0157353
0.00277355
0.00207796
0.00344151
0.000940273
0.000539449
0.000878839
0.00111285
0.00073367
0.00308281
0.00560045
0.00547709
0.00256221
0.00277563
0.00203922
0.00107301
0.0129473
0.00143949
0.00143337
0.0028964
0.00583592
0.00150594
0.0117048
0.00102987
0.000917279
0.00512416
0.00169475
0.00343692
0.0120972
0.00279361
0.00382005
0.00203217
0.000717296
0.000738254
0.00659336
0.00814095
0.00359076
0.00328925
0.00154685
0.00190472
0.00634298
0.000434194
0.000951712
0.000769678
0.00023451
0.000708428
0.000276052
0.000952928
0.0116474
0.00327042
0.00243323
0.000761914
0.00258496
0.00697874
0.00111714
0.00774875
0.00361712
0.00297046
0.00441439
0.000775358
0.00073353
0.017267
0.00308543
0.00607566
0.00771917
0.00404885
0.00309958
0.00298044
0.0222117
0.00118256
0.000807483
0.000818952
0.00814367
0.000956011
0.00286938
0.00280798
0.00638244
0.00222163
0.00158212
0.00183605
0.00638943
0.00447099
0.00210692
0.00340714
0.00461297
0.000237047
0.000329402
0.000169486
0.000453017
0.00487627
0.00260681
0.00463177
0.000957881
0.000802999
0.00208398
0.000910769
0.00179639
0.000524213
0.00261988
0.00516103
0.000756141
0.00590689
0.0027471
0.000709439
0.00101152
0.020947
0.0049424
0.00308887
0.00585288
0.00590912
0.00282874
0.00345593
0.00151104
0.00408468
0.00232131
0.0046101
0.0115611
0.00230076
0.00314084
0.000728249
0.00096119
0.00130159
0.0153817
0.00113582
0.00653082
0.0164813
0.00114374
0.000998417
0.00105475
0.0051118
0.0027142
0.00674639
0.00525491
0.00263671
0.00481483
0.00577309
0.00691545
0.00356723
0.000843895
0.0028552
0.000523176
0.00282242
0.000745861
0.00356495
0.000863041
0.00563874
0.00112159
0.00285799
0.00180221
0.00136378
0.00649105
0.00565639
0.00307285
0.008744
0.00347171
0.00118496
0.00101471
0.00107866
0.00954732
0.00110082
0.00229436
0.00303908
0.00817887
0.000898587
0.000869284
0.00129457
0.00137613
0.0151417
0.00132245
0.00076889
0.00109999
0.000973044
0.00145194
0.00251664
0.00479952
0.00479354
0.000771455
0.00220646
0.00852643
0.00109383
0.00259042
0.0179087
0.00034099
0.000152134
0.000416556
0.000673519
0.00456244
0.00438939
0.000875444
0.00145421
0.00125504
0.00071177
0.000839366
0.023173
0.00277983
0.00576546
0.00164759
0.00243078
0.00354305
0.0029481
0.0142381
0.00517077
0.00177537
0.000641308
0.000754189
0.0119955
0.00103709
0.00107451
0.00759888
0.00384592
0.00419121
0.00391636
0.00175513
0.0109386
0.00339312
0.000773155
0.00306523
0.0012429
0.00405707
0.000934842
0.00187483
0.00312391
0.000815499
0.000753047
0.000574619
0.00458332
0.00386047
0.000897245
0.000720236
0.00209337
0.001146
0.00391269
0.000874019
0.000799366
0.00269076
0.00142144
0.00306422
0.0059292
0.00440847
0.005916
0.0150553
0.00076125
0.000544047
0.00889199
0.00134911
0.00117933
0.000922229
0.00128546
0.00207583
0.000348917
0.000790286
0.00130322
0.00841332
0.00299481
0.00485168
0.000845698
0.00301238
0.00558397
0.0187922
0.00207327
0.00327858
0.000784964
0.00105898
0.0176832
0.00105126
0.00304089
0.000841415
0.00135085
0.00104987
0.00153211
0.000411723
0.00194271
0.00126009
0.000510402
0.000355705
0.000279047
0.000297388
0.000181269
0.000661337
0.0140767
0.0131104
0.00323361
0.00186858
0.00280042
0.01105
0.000755431
0.000923371
0.00096287
0.00977262
0.00127096
0.0210953
0.00628945
0.00229603
0.000785835
0.00831487
0.00172887
0.000629283
0.000723525
0.023526
0.00603191
0.000834257
0.00163964
0.000878823
0.00342889
0.00151071
0.0170169
0.000610715
0.000505247
0.000452967
0.000546319
0.00045987
0.000917343
0.00238786
0.00114423
0.000730149
0.00071719
0.00078949
0.00952024
0.000782825
0.000722212
0.00136059
0.00165135
0.000831643
0.000895556
0.000449535
0.00110035
0.000765774
0.000939771
0.000756955
0.00125052
0.000668179
0.00192773
0.0047342
0.000719198
0.000833728
0.000760915
0.00270063
0.000830296
0.00214367
0.000777043
0.0230107
0.00212603
0.0011405
0.000825614
0.000875067
0.0132737
0.000979973
0.00252066
0.00262089
0.00531591
0.00197449
0.000944538
0.00119533
0.00175234
0.000831602
0.00121405
0.00180328
0.00167545
0.0014906
0.000140503
0.0019855
0.00143256
0.00109548
0.0010872
0.00161689
0.000387619
0.000759741
0.000834624
0.00119989
0.000746927
0.0129614
0.000796581
0.00411357
0.000790227
0.000783482
0.000736522
0.000755126
0.000635592
0.000905196
0.013051
0.0122679
0.00425326
0.000443786
0.00082684
0.0029578
0.00119971
0.00122779
0.00171529
0.00182746
0.00518335
0.00134732
0.00696889
0.00041151
0.000842012
0.00622063
0.000468782
0.0186952
0.00072583
0.00069689
0.00266524
0.00810757
0.0010302
0.00345876
0.000955553
0.00109069
0.00112222
0.000916466
0.000479285
0.000932449
0.000830314
0.000683096
0.000686719
0.000616787
0.000694804
0.000932154
0.00408599
0.000979243
0.000723715
0.005455
0.00261371
0.000997531
0.000515854
0.00801678
0.00275586
0.00656539
0.00987746
0.00120789
0.00114791
0.000303258
0.0198248
0.000843705
0.0042964
0.00080208
0.019171
0.002558
0.000223091
0.00109305
0.000304158
0.000684625
0.00169851
0.000559841
0.00112855
0.00110241
0.000264148
0.00108125
0.000171228
0.000239722
0.00091491
0.00109034
0.0010494
0.00664371
0.00342371
0.00606274
0.000279261
0.00129385
0.000789918
0.001032
0.00114944
0.000789852
0.00829841
0.000811089
0.00353876
0.0010294
0.000746401
0.000985902
0.022952
0.0116629
0.000532823
0.00279228
0.00737996
0.00535393
0.0120485
0.000744688
0.00556446
0.00485706
0.00311253
0.000949446
0.00832588
0.00072656
0.000726521
0.000855111
0.000941921
0.00122406
0.00125145
0.0130614
0.00107055
0.000977596
0.00316533
0.00469315
0.00479015
0.000764894
0.0014677
0.00128411
0.00112895
0.00125969
0.000715885
0.0179963
0.00138316
0.00617464
0.00289002
0.00667361
0.000959744
0.00226753
0.00199732
0.0025934
0.00101162
0.00102636
0.000736088
0.00123245
0.000721491
0.0220319
0.000750306
0.000830813
0.000754715
0.000910538
0.000832526
0.000776437
0.000868801
0.000747695
0.00329207
0.00131936
0.0111501
0.000732483
0.000745181
0.000538296
0.000795526
0.00171408
0.00949363
0.00172284
0.000644978
0.00095457
0.000768055
0.00201871
0.000787771
0.000704711
0.000830621
0.000673059
0.000844085
0.00102194
0.000978888
0.00774152
0.000529533
0.012657
0.000867369
0.000516053
0.000749736
0.000814899
0.00106647
0.00321002
0.00139251
0.000741968
0.00205352
0.000871936
0.00103383
0.00159732
0.00121319
0.000725434
0.000625013
0.00118145
0.00149693
0.00442495
0.00615678
0.0025703
0.000828559
0.000200561
0.00783458
0.00116016
0.00533331
0.00666765
0.000491457
0.000862609
0.00110037
0.00155118
0.000253648
0.0120608
0.00653998
0.00111053
0.00804469
0.00331279
0.00164136
0.000462013
0.00828418
0.0213482
0.0087905
0.00130865
0.000758725
0.00177814
0.00281136
0.000836124
0.00058066
0.000653306
0.00078362
0.00316974
0.00318546
0.000348846
0.00578593
0.000991644
0.000710031
0.000408955
0.0029405
0.0117991
0.00150525
0.00294151
0.00601729
0.00870192
0.0146739
0.00210429
0.00221433
0.000795142
0.00582652
0.00369876
0.00736895
0.0055944
0.00252371
0.00401225
0.00146178
0.0154104
0.00453956
0.0169842
0.00233553
0.00106796
0.00112489
0.0174314
0.00226105
0.00107478
0.00514567
0.00397291
0.00210524
0.00623905
0.00630326
0.00259041
0.0130763
0.00278225
0.00027506
0.000806664
0.00379034
0.00107186
0.000899959
0.00177501
0.000830956
0.00424307
0.00349009
0.00625087
0.000460416
0.00919424
0.00368784
0.00276665
0.0036577
0.00117831
0.000957842
0.000719201
0.0113573
0.00142652
0.0011833
0.000798922
0.0175344
0.000676671
0.00141171
0.00969054
0.00833216
0.00183108
0.00191239
0.0129747
0.00139677
0.000786148
0.000147169
0.00659737
0.00366073
0.0082558
0.00740301
0.00108316
0.00219488
0.00513866
0.00584596
0.000958409
0.00151232
0.00132939
0.00151209
0.00114257
0.0107653
0.0021485
0.00103402
0.00586608
0.0016025
0.00683337
0.00087687
0.00224099
0.000866534
0.00152047
0.00223072
0.00107051
0.000853636
0.00108614
0.00136214
0.00027359
0.00164695
0.000615549
0.000822534
0.00399565
0.00275147
0.00550354
0.00150841
0.00523768
0.00529988
0.00654983
0.00093543
0.0019747
0.00180686
0.00137739
0.000231801
0.000183649
0.000234383
0.0179131
0.000826193
0.00267003
0.00208931
0.00391867
0.00362866
0.00160629
0.000181001
0.000264494
0.000295103
0.000243134
0.000415885
0.000498304
0.000371717
0.000338316
0.000451761
0.000540683
0.000504584
0.000353461
0.000273907
0.000202833
0.000208974
0.000462015
0.000541795
0.000414735
0.000413667
0.00024464
0.0003856
0.000188852
0.000219063
0.000156347
0.000833808
0.000228053
0.000299416
0.000170731
0.000502002
0.000275232
0.000368324
0.000338668
0.000257678
0.000325038
0.00025737
0.000259806
0.000368967
0.000259753
0.000372311
0.000615089
0.00023876
0.000179965
0.000312976
0.00030936
0.00180676
0.0019194
0.0122486
0.000999564
0.00605722
0.00287284
0.00527367
0.0147863
0.00103372
0.00135323
0.000844555
0.000961047
0.00284997
0.00619081
0.0189945
0.0188438
0.00545106
0.00281193
0.000487489
0.000499029
0.002476
0.000792266
0.000359103
0.00561748
0.00248413
0.0035759
0.00164489
0.00555459
0.00478016
0.00537163
0.00154169
0.00902281
0.00340275
0.0189489
0.0018202
0.00215586
0.00153442
0.000763045
0.0142662
0.00122833
0.00160866
0.00765395
0.00235296
0.00544945
0.00465664
0.00171932
0.00145577
0.000842034
0.000848847
0.0166065
0.00209723
0.000451745
0.000382148
0.00792678
0.0140676
0.000202978
0.00358231
0.00694089
0.000407278
0.000384852
0.000399708
0.000355899
0.000256555
0.000438131
0.000513019
0.000253511
0.000293105
0.000549073
0.000380492
0.00032508
0.000184292
0.00031462
0.000237212
0.000253512
0.000371447
0.000209629
0.000346255
0.000192592
0.000296936
0.00018345
0.000272022
0.00338219
0.00277989
0.000444405
0.000892839
0.00438849
0.000848692
0.0093629
0.000839818
0.0029554
0.0145574
0.00549471
0.0028321
0.0139625
0.00249803
0.000188389
0.0139045
0.00210276
0.00133883
0.0225321
0.00485525
0.012319
0.000717911
0.0134882
0.00169295
0.00129259
0.0133122
0.000902484
0.00334593
0.0038434
0.00157853
0.0023199
0.00618078
0.00120867
0.00919664
0.0170833
0.0031342
0.00718846
0.000573748
0.00990087
0.00104292
0.00207571
0.00107082
0.00638134
0.0015552
0.00219703
0.00291561
0.00174104
0.00705501
0.000834641
0.00303228
0.000631262
0.00627507
0.00510398
0.023339
0.000162047
0.000771996
0.00102517
0.00864408
0.00283532
0.000242449
0.000633822
0.00602016
0.00454075
0.013019
0.000832685
0.00204705
0.00215377
0.00106981
0.00383914
0.00107679
0.00732864
0.000818428
0.000223234
0.000182999
0.00919766
0.0063345
0.000789274
0.00729701
0.00486987
0.00334418
0.0132086
0.0187785
0.010793
0.0133953
0.0120743
0.00186536
0.00841919
0.00130032
0.00198552
0.00148093
0.00690353
0.000725635
0.000844186
0.0010799
0.0152972
0.000881955
0.000647225
0.00159
0.0031958
0.00357779
0.00935928
0.0135888
0.00942763
0.00378822
0.00083089
0.0127119
0.000553009
0.00210219
0.00201892
0.00116037
0.0115423
0.0163233
0.00316654
0.0138039
0.0027969
0.00771092
0.0014309
0.00148987
0.0021504
0.00270938
0.00102514
0.0017972
0.00180489
0.0130232
0.00103593
0.00143954
0.00382429
0.00296005
0.00142854
0.00166532
0.00188693
0.0149796
0.00539052
0.00724739
0.00502911
0.00126106
0.000697455
0.00135806
0.00348553
0.000927734
0.00195704
0.00213953
0.0140659
0.0140823
0.0110854
0.0103607
0.014138
0.0114586
0.0141255
0.00136151
0.0142187
0.0141665
0.0117757
0.0112727
0.0142293
0.0108438
0.0140161
0.0142577
0.0141988
0.00178081
0.00182455
0.00164848
0.0149888
0.00167827
0.00135492
0.000956791
0.0012166
0.000190308
0.000219982
0.00538348
0.0113683
0.00641039
0.0029612
0.0035667
0.00945205
0.0109422
0.00833649
0.00437384
0.000876927
0.0011902
0.000854035
0.00226278
0.00641768
0.00153269
0.00146843
0.0015654
0.00564661
0.00355403
0.00207368
0.00255993
0.00745834
0.00285518
0.000771249
0.00374884
0.000329457
0.00463632
0.0013833
0.000940074
0.00123509
0.000927437
0.00182444
0.00273082
0.00213763
0.0039185
0.00434989
0.00139855
0.00285663
0.0112701
0.00224179
0.002686
0.00306072
0.00380248
0.0093187
0.00086352
0.00178186
0.00955597
0.00486738
0.00299658
0.00241556
0.00144244
0.00315046
0.0106449
0.00331348
0.0018152
0.00188244
0.00171587
0.0052391
0.00141532
0.0172763
0.00188943
0.00145089
0.00153365
0.00217078
0.00483126
0.000707128
0.00144228
0.00305094
0.00572307
0.00276535
0.0166598
0.00967378
0.00168431
0.0104126
0.00209818
0.00185063
0.0030934
0.000807268
0.00290582
0.0013977
0.0160695
0.00341629
0.00207818
0.000891769
0.00789168
0.0153857
0.00154262
0.00146616
0.00608496
0.00541272
0.00299222
0.00196303
0.00153628
0.00110715
0.00669282
0.00557746
0.00533776
0.0147536
0.0147381
0.00133276
0.00590408
0.000549646
0.00161624
0.0027697
0.00107958
0.00119689
0.00170023
0.000919273
0.00217822
0.00203864
0.00491652
0.000638848
0.00596316
0.00295847
0.00128002
0.00278875
0.0036636
0.00293124
0.00125697
0.00114675
0.000987387
0.0042203
0.00656507
0.00125498
0.00215788
0.00147828
0.00164028
0.00133245
0.0022294
0.00180622
0.00441775
0.00439391
0.000341782
0.000769339
0.000423455
0.00338506
0.00210803
0.00112993
0.00561184
0.00699133
0.00174422
0.00168634
0.000976835
0.00449872
0.00408359
0.00425846
0.00109018
0.00651386
0.00454449
0.00447784
0.000382612
0.00427241
0.00598157
0.0148545
0.00363297
0.00636716
0.00616443
0.0032636
0.00338783
0.00575543
0.000711502
0.00396047
0.0064889
0.00391324
0.00486906
0.00605355
0.00410303
0.0065312
0.000666673
0.00265468
0.00382069
0.00646476
0.00390533
0.00403617
0.00637318
0.00559471
0.00502493
0.00331306
0.00375555
0.00210906
0.000608553
0.00604464
0.00105778
0.00478857
0.00172883
0.00220166
0.00079644
0.000518226
0.00525134
0.00115318
0.00658837
0.00134908
0.000993237
0.0037993
0.0042457
0.00385105
0.00567494
0.00299772
0.00300409
0.00116012
0.00349891
0.000332398
0.00138512
0.00130491
0.00206421
0.000615972
0.00291851
0.000574082
0.0146063
0.0013058
0.0013031
0.00197418
0.00179258
0.00237341
0.0020642
0.000676334
0.00141678
0.00530921
0.00250805
0.00106741
0.0012503
0.00421154
0.00171218
0.000609583
0.00140543
0.00534436
0.00406631
0.00130362
0.00556228
0.00294617
0.00191891
0.00101047
0.000583119
0.0139892
0.000876427
0.0012337
0.00145621
0.00856187
0.000700047
0.00350593
0.00216875
0.00721958
0.00166571
0.00156701
0.00585776
0.00163578
0.00065957
0.00109973
0.00171848
0.000641336
0.000865698
0.00595252
0.00260448
0.00321968
0.0136659
0.0151877
0.000976919
0.000742249
0.00183795
0.00146185
0.00517231
0.00088551
0.00529594
0.00453306
0.00168117
0.00150313
0.0043331
0.0022608
0.00401959
0.00525981
0.00107769
0.00108002
0.00217043
0.00118637
0.000743538
0.00152689
0.0016359
0.00999634
0.00447851
0.00275142
0.00925931
0.00103613
0.00115001
0.00361004
0.00715992
0.00172846
0.00554016
0.00115815
0.000605483
0.00131276
0.00431147
0.0064167
0.00098921
0.00638005
0.00262512
0.00257189
0.00401056
0.00218311
0.00152905
0.000264963
0.00164219
0.00343164
0.0148625
0.000983257
0.00108979
0.00785746
0.000800141
0.000833248
0.0107359
0.000285384
0.00117738
0.000932205
0.00192664
0.00167198
0.00579584
0.00359572
0.00593223
0.00631168
0.0029694
0.0030772
0.00138355
0.00601676
0.00408192
0.000261226
0.000289131
0.000308805
0.000535735
0.000483659
0.00746664
0.00107692
0.00072828
0.00145608
0.00369808
0.00495959
0.0014746
0.000211296
0.0103533
0.00884938
0.00196772
0.00120207
0.00311021
0.00201914
0.00307525
0.000281115
0.00363363
0.0128329
0.000994524
0.0022158
0.00161554
0.00860302
0.00522794
0.00126735
0.00110194
0.00961216
0.00388962
0.00229895
0.00163648
0.00177954
0.000767718
0.000837181
0.0040605
0.00335104
0.00413953
0.00413488
0.0107463
0.00523336
0.0010117
0.000778181
0.00165345
0.0125928
0.0161573
0.0135666
0.0117513
0.00965372
0.00402697
0.00368492
0.00399224
0.00301326
0.00151753
0.0101931
0.0120693
0.0120571
0.00224445
0.0099742
0.0050482
0.00619871
0.00460313
0.00060276
0.00387132
0.000935018
0.000645722
0.00150072
0.00391351
0.00387777
0.00401397
0.00521752
0.00760824
0.00113413
0.0137069
0.00642979
0.00613286
0.00297137
0.00176994
0.00129899
0.00117334
0.00120051
0.0008857
0.00074551
0.000743826
0.00938269
0.00239873
0.000792404
0.00149638
0.00333025
0.00261225
0.00314322
0.00199829
0.00631254
0.00345614
0.0018664
0.00332971
0.00529905
0.00139436
0.00167673
0.00168883
0.000251546
0.00386704
0.000556247
0.000962202
0.0135417
0.000763403
0.000592286
0.00156127
0.00577983
0.00112176
0.00349704
0.00818587
0.00225263
0.00171911
0.00377739
0.00350712
0.00390832
0.00721093
0.00164105
0.00820197
0.00390108
0.00501054
0.0138223
0.00938535
0.00138152
0.00309648
0.000796588
0.00446694
0.00699576
0.00172628
0.00175102
0.000815681
0.000742918
0.000992391
0.00113618
0.00480809
0.000721206
0.000863665
0.00639392
0.00487652
0.00490335
0.00287542
0.00132285
0.00757094
0.00587378
0.00184665
0.00172646
0.00173559
0.00303731
0.0138188
0.00378669
0.0124463
0.00125804
0.00297899
0.0022027
0.00629123
0.0104044
0.00226364
0.00362222
0.00279226
0.00549015
0.00512691
0.00207951
0.00042961
0.000365133
0.0078189
0.00619801
0.0063326
0.00298426
0.00753799
0.00469029
0.000795975
0.00453169
0.00854835
0.00362604
0.00513364
0.00653267
0.00555975
0.000979253
0.000782062
0.00159424
0.0136881
0.00156091
0.00860627
0.0010274
0.000881291
0.0100758
0.00132695
0.00169952
0.00879871
0.0136617
0.0132981
0.0141545
0.000454732
0.00107761
0.0038287
0.00563598
0.0120992
0.0127663
0.00292488
0.00586631
0.00241125
0.000987311
0.00350443
0.00204004
0.00795053
0.00649316
0.0136049
0.00367885
0.000948518
0.00879391
0.00409222
0.00519246
0.00185758
0.00340985
0.00810536
0.00121337
0.00240969
0.00542312
0.00823481
0.00957002
0.00135561
0.00245925
0.0103708
0.00103859
0.000757951
0.00178907
0.00746183
0.0086868
0.00333519
0.00185824
0.000892247
0.00184396
0.00669848
0.00161533
0.00889789
0.00766848
0.00420312
0.00575775
0.00387173
0.00210108
0.00571298
0.0122693
0.00468833
0.0016831
0.00249069
0.000781223
0.00100169
0.00254614
0.00148964
0.00252424
0.0139008
0.0134169
0.0137969
0.0102833
0.0133094
0.00193975
0.0059214
0.00149605
0.00998788
0.0207916
0.0112123
0.00840176
0.000739871
0.00155618
0.00702235
0.0102737
0.00942648
0.00603739
0.00271765
0.00413202
0.00161109
0.00278355
0.000687059
0.000285894
0.0111183
0.00149715
0.00576218
0.000681373
0.00891373
0.00346822
0.00255447
0.00616527
0.00604209
0.00117278
0.00859542
0.0114724
0.00291252
0.000522356
0.0104408
0.00528862
0.00329634
0.0015518
0.00217395
0.00088338
0.00361144
0.0142264
0.0122039
0.0022907
0.00701965
0.010475
0.00121862
0.00455598
0.00323555
0.00286737
0.00050646
0.00389158
0.0108594
0.00411585
0.00348061
0.003189
0.0143557
0.00741886
0.000998935
0.00106711
0.00101109
0.00279017
0.000797965
0.00614157
0.00330256
0.00943805
0.00163003
0.00160079
0.000926171
0.0128874
0.0062633
0.0131988
0.00382175
0.00085911
0.00181802
0.00516443
0.0043392
0.000661859
0.0121419
0.00349471
0.00220151
0.00171661
0.000788801
0.0133659
0.00112175
0.0139653
0.00878673
0.00104156
0.00662101
0.000796904
0.0139541
0.0110321
0.00117247
0.00230765
0.00295643
0.0141114
0.000848188
0.000778826
0.000768808
0.00192058
0.000643794
0.00155091
0.00849163
0.00489907
0.00618268
0.00274959
0.00632525
0.00102832
0.0130001
0.00953648
0.00131861
0.000738644
0.00393861
0.00875642
0.000199263
0.000175751
0.000256751
0.0143179
0.00209643
0.0155553
0.00472643
0.00423205
0.008794
0.0130761
0.00165443
0.0033005
0.00661372
0.00498469
0.00258551
0.00460756
0.00201816
0.0101569
0.00122914
0.000833325
0.000701656
0.00162424
0.00263936
0.00182938
0.0032259
0.00291573
0.00210876
0.0129539
0.00544031
0.00639894
0.005426
0.00172779
0.0015938
0.00292351
0.00246874
0.0123409
0.00536748
0.0136806
0.00619921
0.000986549
0.000807727
0.00165563
0.00347466
0.00128517
0.00663721
0.00206863
0.00115079
0.00254128
0.00951475
0.0037136
0.0137995
0.00188709
0.00921916
0.00342918
0.00311787
0.00170699
0.00593984
0.00376294
0.0037546
0.00113948
0.00417506
0.00609008
0.00154038
0.00105747
0.0140096
0.0118577
0.00615795
0.00541678
0.00597086
0.022188
0.0150946
0.00166198
0.00213582
0.00346806
0.0019251
0.00367712
0.010309
0.0128468
0.000743868
0.00807423
0.00186912
0.00282549
0.0019885
0.00418383
0.00261341
0.00475181
0.000447044
0.00723088
0.00523458
0.000726961
0.00226003
0.00425897
0.00614198
0.00358208
0.00263676
0.000398485
0.00195148
0.0111868
0.00697336
0.00392517
0.00220379
0.00521689
0.00100116
0.000742815
0.00146563
0.00118211
0.00100818
0.00172587
0.00148967
0.00183716
0.0156033
0.000486763
0.00139554
0.00307002
0.000934994
0.00620942
0.00081399
0.000701544
0.00150126
0.00337134
0.00238356
0.00100611
0.00129949
0.000435352
0.00156197
0.000738693
0.00155174
0.00560843
0.00373939
0.000804568
0.00594563
0.00141999
0.00308354
0.00901973
0.00595894
0.00645329
0.000993714
0.00256363
0.000200269
0.000389032
0.00191027
0.01378
0.0019219
0.0140199
0.00482964
0.00185574
0.00799501
0.00195675
0.000805396
0.00211255
0.00511961
0.00459939
0.00621303
0.000835457
0.000740903
0.00163994
0.000731894
0.00153994
0.0127509
0.0018084
0.000976148
0.00530732
0.00052008
0.00465018
0.0033537
0.00108437
0.00125795
0.00944383
0.010059
0.0129575
0.0100935
0.00252019
0.00100502
0.00347692
0.0130046
0.0058518
0.00716626
0.00482269
0.0071188
0.0014524
0.000806518
0.000681062
0.00605873
0.00442693
0.00187181
0.00191667
0.000730102
0.00166558
0.0063649
0.00326025
0.00235634
0.00769972
0.0180975
0.0166801
0.000990567
0.0135332
0.00121953
0.0114694
0.00367177
0.00645121
0.00178745
0.00531623
0.00198757
0.00629744
0.0134345
0.0126564
0.00124526
0.00130653
0.00103718
0.00278246
0.000305683
0.00142607
0.00185714
0.00264339
0.0064068
0.00598998
0.0014807
0.000549653
0.0129325
0.000765403
0.00112842
0.0088073
0.0125577
0.00698435
0.00190101
0.00560195
0.00422347
0.000820444
0.0008411
0.00302325
0.0016207
0.0110303
0.00142633
0.00612715
0.00443939
0.0014834
0.00681169
0.00113252
0.000835416
0.000862626
0.000309268
0.000246092
0.00236753
0.0010265
0.00115993
0.000827582
0.000218906
0.000177751
0.000245038
0.0144234
0.014298
0.000848104
0.00659407
0.00241871
0.00484067
0.00614974
0.00585767
0.00478126
0.0125375
0.0112416
0.00816673
0.00428086
0.00403514
0.00900132
0.00302126
0.000725485
0.00135839
0.00149932
0.000676151
0.00137644
0.000821993