/*--------------------------------*- C++ -*----------------------------------*\
| =========                 |                                                 |
| \\      /  F ield         | OpenFOAM: The Open Source CFD Toolbox           |
|  \\    /   O peration     | Version:  v1912                                 |
|   \\  /    A nd           | Website:  www.openfoam.com                      |
|    \\/     M anipulation  |                                                 |
\*---------------------------------------------------------------------------*/
FoamFile
{
    version     2.0;
    format      ascii;
    class       surfaceScalarField;
    location    "0.96";
    object      phi;
}
// * * * * * * * * * * * * * * * * * * * * * * * * * * * * * * * * * * * * * //

dimensions      [0 3 -1 0 0 0 0];
oriented        oriented;


internalField   nonuniform List<scalar> 
11117
(
-6.49058e-07
-2.07688e-05
5.03166e-06
1.63862e-05
-1.62337e-05
-1.55316e-05
8.12723e-06
2.36382e-05
-3.63631e-05
4.46736e-05
-0.000172105
0.000163795
-0.000520204
1.61754e-05
0.000206437
0.000297592
0.000166718
0.00021957
-0.00017077
-0.000215517
1.50663e-05
2.21829e-06
0.000178137
-0.000195422
-0.00051315
-6.62805e-05
0.000432835
0.000146596
-0.000280453
-5.85052e-06
0.00017199
0.000114313
0.00123098
0.000234759
-0.000912331
-0.00055341
1.23364e-05
-1.27028e-05
-2.03485e-07
5.69886e-07
-0.000870045
0.000941075
0.000301143
-0.000372174
-0.000392612
-0.000210711
0.000300888
0.000302436
-0.000488661
-0.000225006
0.000301633
0.000412035
0.000795764
-0.00101879
0.000487879
-0.00026485
2.75614e-05
-3.10528e-05
2.93768e-05
-2.58854e-05
8.84451e-05
1.81823e-06
1.47486e-05
-0.000105012
-0.000133508
0.000199674
-1.66047e-05
-4.95609e-05
-0.000665579
0.000687694
0.000717001
-0.000739116
2.29733e-05
2.79466e-05
-2.33585e-05
2.29445e-06
-9.48419e-07
-1.68303e-05
1.54843e-05
-0.000329049
0.000185277
6.22838e-05
8.1488e-05
5.36911e-05
-2.35525e-05
-0.000105366
7.5227e-05
0.000432309
0.00032362
-0.000221683
-0.000534246
0.000116826
0.000111134
-6.94717e-05
-0.000158487
0.000355661
0.000224973
-0.000404227
-0.000176408
0.000944328
-0.000976767
0.000293744
-0.000261305
0.000279795
-0.000349245
0.000734359
-0.000664909
-0.000198917
0.000258767
-0.00025773
0.000197881
0.000124748
-3.65805e-05
0.000998385
-0.00108655
2.93489e-05
-2.09253e-05
1.7721e-05
-2.61447e-05
-0.000159481
1.6644e-05
0.000203927
-6.109e-05
-0.000113544
-0.000379461
0.000353939
0.000139066
-0.000118609
-0.000447626
0.000377486
0.000188749
-1.71225e-05
4.94453e-05
-2.23357e-05
-9.9871e-06
-0.000154068
5.38087e-05
-1.57594e-05
0.000116018
-0.000156058
6.46202e-05
-2.11692e-05
0.000112607
0.000602594
-0.000824219
0.00100459
-0.000782966
0.000369471
-0.000534299
-0.000116852
0.00028168
0.000491614
-0.000121693
-0.000657566
0.000287645
0.000192888
0.00034503
-0.000435213
-0.000102706
0.000165982
0.000267917
-0.000314599
-0.0001193
1.51526e-05
0.000269142
-0.00029679
1.2496e-05
0.00100436
0.000883679
-0.000887413
-0.00100062
0.000245703
1.56632e-05
-2.10642e-05
-0.000240302
3.83335e-05
2.6659e-05
-4.20192e-05
-0.000933745
0.000739701
-0.000224203
0.000418247
-0.000734795
0.000562742
-0.000163897
0.00033595
0.000158156
-0.000266979
0.000174128
-6.53047e-05
-3.23526e-06
-7.91711e-06
8.25531e-06
2.89709e-06
-7.56792e-05
0.000215103
-0.000139424
4.86945e-05
-1.59012e-06
-4.71044e-05
-0.000332448
-0.00113125
0.000511084
0.000952612
4.94351e-06
-2.3459e-05
-3.88732e-05
5.73887e-05
4.10391e-05
-4.24057e-05
-5.48718e-06
6.85377e-06
1.09816e-05
-1.09816e-05
0.000417604
0.000175972
-0.000547902
-4.56736e-05
0.000308529
0.000140636
-0.000410871
-3.82941e-05
-0.000141535
-6.02641e-05
0.000192678
9.12128e-06
0.000883342
0.00011467
-0.00136327
0.000365259
-0.000406432
0.000798443
0.000552317
0.000847492
-0.000862621
4.27274e-05
-2.7599e-05
8.26203e-05
-3.26981e-05
-4.24588e-05
-7.46334e-06
-0.000138011
-0.000101281
7.98118e-05
7.37315e-05
-4.2642e-05
-0.000144633
0.000115942
-3.85681e-05
-0.000195983
-3.17666e-05
-7.31036e-05
5.97394e-05
4.51308e-05
0.000141372
-0.000153786
6.74241e-05
-5.50102e-05
1.60247e-06
-0.000326813
0.000325211
-0.000715106
-0.000393007
0.000574446
0.000533667
1.54978e-05
4.30763e-05
-1.03113e-05
-4.82628e-05
0.000465984
-0.000136802
-0.00066163
-0.000232153
0.000205889
0.000167636
-0.000277806
-0.00124369
0.00128685
0.000234639
-9.44301e-05
0.000259131
-0.000194171
2.94701e-05
-0.000773637
-0.000607048
-0.000100399
2.86153e-05
0.000194917
-0.000123133
1.67186e-05
-1.49054e-05
-1.81322e-06
-0.0009513
-0.000163776
0.000138309
0.000244446
3.73569e-05
-3.60995e-05
-2.95301e-06
2.44649e-05
-2.15119e-05
-0.000102354
-5.38731e-05
1.44522e-05
0.000141775
-3.08132e-05
-1.68902e-05
4.81942e-06
4.2884e-05
0.000114708
-8.77184e-05
0.000131911
-0.0001589
-0.000275471
0.000245609
0.000262676
-0.000232814
-0.000239046
9.62328e-05
0.000271376
-0.000128563
5.60921e-05
-0.000496158
0.000440066
-1.67757e-05
-0.00055913
0.000575905
3.17885e-05
-0.000481829
0.00045004
4.30724e-05
9.68658e-06
8.44379e-05
-0.000137197
-4.82798e-05
6.74681e-05
0.000246791
-0.000265979
0.000524639
-0.000155886
7.90157e-05
-0.000447769
0.000680559
5.32678e-05
-5.34639e-05
-0.000680363
0.000715347
-4.65199e-05
5.43807e-05
-0.000723208
-0.000692109
3.87005e-05
-2.74131e-05
0.000680822
-0.000629152
5.24056e-05
-2.49902e-05
0.000601736
-3.71566e-07
0.00022476
-0.000326145
0.000101757
0.000586803
2.24119e-05
-2.25384e-05
-0.000586676
0.000680151
4.49902e-05
-3.01209e-05
-0.00069502
0.000649687
4.98273e-05
-2.77641e-05
-0.00067175
0.000817294
6.00624e-05
-2.98639e-05
0.000380425
7.71831e-05
-0.000408627
-4.89814e-05
-0.000248524
0.000182367
7.64293e-05
-1.02726e-05
0.000307423
-0.000380704
-0.00116892
0.00124221
0.000728336
0.000336853
-0.000749147
-0.000316041
-2.23777e-05
3.09134e-05
-1.77681e-05
9.23238e-06
-0.000856954
0.000250355
0.000764933
-0.000158334
9.57723e-06
-2.71846e-05
5.38089e-05
-3.62015e-05
1.7058e-05
1.19841e-06
2.53539e-05
-4.36104e-05
-0.000245024
3.59651e-06
0.000102284
0.000139144
0.000224428
-5.12038e-05
7.12222e-05
-8.75597e-05
5.65722e-05
8.46764e-05
-5.36889e-05
-4.91376e-05
7.47257e-05
2.25552e-05
-4.81432e-05
-0.000414981
0.000344998
-0.000160076
0.000230058
-3.2635e-05
3.26107e-05
3.96169e-06
-3.93735e-06
9.79916e-05
0.000553281
-0.00063011
-2.11627e-05
0.000123566
0.000637422
-0.000721127
-3.98618e-05
-2.96785e-05
-1.34139e-05
4.26614e-05
4.31024e-07
-0.000538652
0.000500521
0.000892015
-0.000853884
3.5732e-05
-2.00751e-05
-0.000878278
-0.00103787
8.47673e-05
0.000958589
-5.48538e-06
0.000970563
-0.000691042
-0.000818173
3.8544e-05
-3.03961e-05
-8.14792e-06
0.000159855
-0.000113596
0.000176145
-0.000222404
-0.000154241
-0.000145076
-3.64454e-05
-2.37001e-05
1.88742e-05
4.12714e-05
-0.000351717
0.000404093
0.000620373
-0.000672749
-0.000472688
0.000704961
-0.000541764
0.000309492
2.39148e-06
-0.000149743
0.000147871
-5.20354e-07
0.000557123
-0.000815058
-0.000111933
0.000369868
4.50673e-05
-5.09143e-06
4.57479e-06
-4.45507e-05
0.000125374
2.30314e-05
-0.000160637
1.22314e-05
0.000176836
-2.87035e-05
-0.000180765
3.26328e-05
0.0001559
-9.41698e-05
-7.1162e-05
9.43137e-06
-0.000903162
0.000108431
-0.000156568
-0.000326395
0.000287872
-0.000678697
0.00071722
2.93751e-05
-3.02715e-05
-3.01563e-05
-0.000410952
3.68436e-05
9.23357e-06
0.000364875
3.14371e-05
6.7686e-05
-1.65028e-05
-0.00011959
-1.09454e-05
0.000115739
1.47964e-05
5.93598e-05
8.7903e-07
-6.37198e-05
3.48094e-06
-0.000184758
9.39877e-05
9.02743e-05
4.96213e-07
6.68422e-05
-0.000333206
0.000366796
-0.000100432
6.00719e-05
-4.96796e-05
-2.81931e-05
1.78008e-05
0.000436205
-0.000219764
-0.000220907
4.46597e-06
-0.000113799
7.09188e-05
-2.31559e-05
6.60362e-05
4.72962e-06
0.000308511
-0.000155223
-0.000158018
0.000301711
-0.000149658
7.80195e-06
-0.000431871
0.000967122
-0.000554261
1.90102e-05
9.7596e-05
0.000169562
-0.000132938
-0.00013422
-9.92502e-05
0.000225034
2.30353e-06
-0.000128087
0.000925847
0.0004475
-0.000611561
-0.000761786
-7.11534e-06
7.64805e-06
-2.17052e-05
2.11724e-05
-0.000468957
-5.84229e-05
-0.000329574
0.000125133
-0.000205001
-8.76412e-05
0.00016751
-0.000422079
-0.000383659
0.00048591
0.000319828
0.000776905
-0.00017401
-0.000602895
0.000216142
0.000221674
6.0214e-05
-0.000281888
0.000952362
-0.000229581
-0.000722781
0.000130425
5.51669e-05
-1.57816e-05
-3.93853e-05
-5.98063e-05
0.000318259
-0.000258453
1.37938e-05
1.1624e-05
-2.54178e-05
-3.14734e-05
0.000350707
-0.000319234
-0.000483235
0.000548657
-6.54226e-05
-0.000488688
0.000483606
5.08223e-06
-0.000302974
-9.87063e-06
0.000312844
-0.000131679
-7.06395e-05
0.000202318
-4.30334e-05
-4.45263e-05
-2.65133e-05
-2.26244e-05
-3.69535e-05
3.63632e-05
5.90285e-07
0.000210991
0.000197648
-0.000408639
0.000126815
-0.00016565
3.88351e-05
0.000104996
-0.000151471
4.64743e-05
6.96446e-05
-6.87653e-05
-8.79245e-07
-0.000460087
0.000555936
-9.58496e-05
-2.24971e-05
1.17846e-05
1.07126e-05
-0.000393266
0.000481058
-8.77926e-05
-0.000108864
0.000103145
5.71891e-06
0.000924075
-0.00100977
8.56949e-05
-9.56578e-05
0.000146247
-5.05887e-05
-0.000148871
0.000223664
-7.47935e-05
0.000213294
-0.000184519
-2.87753e-05
-0.000270823
0.000314845
-4.4022e-05
-6.03763e-05
0.000126156
-6.57795e-05
-0.000165413
0.000143322
2.20914e-05
-0.000259177
1.06533e-05
-0.000230196
0.000149592
8.06042e-05
-1.30915e-05
8.56883e-06
4.52269e-06
4.69906e-05
0.000135377
-0.00021106
-0.000658985
-0.000289669
-8.97913e-05
-0.000360814
-8.68121e-05
0.000114899
-9.8255e-05
0.000286319
-0.000109484
0.000218856
-9.34825e-05
0.000299255
3.39275e-05
-0.000333182
5.64325e-06
2.16966e-05
-2.73399e-05
9.78823e-06
1.81584e-05
-0.00108437
0.00139179
0.000460997
-2.69303e-05
-0.000434066
-0.000939377
-0.000191871
2.20781e-05
0.000136078
-4.12488e-05
-2.51443e-05
6.63931e-05
-0.000630194
-0.000104601
-0.000790457
-0.000143288
-1.04411e-05
-5.58823e-05
6.63235e-05
2.63979e-05
-1.58969e-05
1.73572e-05
-2.78582e-05
-0.000161372
8.16289e-05
0.000501662
-0.000421919
-0.000880918
0.000872813
0.000683233
-0.000675128
0.000147961
-3.49067e-05
-0.000190468
7.74134e-05
-0.00118411
0.00114097
-5.19831e-05
9.51277e-05
-0.000188174
0.00015598
7.20739e-07
-0.000147912
0.000129143
-4.10373e-05
-4.91893e-06
-1.73043e-05
-7.60176e-05
9.82409e-05
0.000127939
-0.000131262
-0.000161548
0.000164871
6.4545e-05
-6.99138e-05
-0.000111869
0.000117238
-0.000195264
0.000160077
0.000191087
-0.000204627
5.05844e-05
0.000592783
-0.00043874
0.000788837
-0.000682554
-0.000183556
7.72721e-05
-0.00139811
-3.49465e-05
0.000248942
0.000219485
-0.000266328
5.16951e-05
-4.85196e-06
0.000252854
4.73719e-06
-4.4873e-05
-0.000212718
0.000699814
-0.000201416
-5.29092e-05
-0.000445489
-0.00035092
-0.000252284
4.09602e-05
0.000562244
-7.96001e-05
5.45754e-05
0.00119916
-0.00117414
0.000123834
-1.11052e-05
-0.000112728
8.61734e-06
1.51937e-05
-1.18024e-05
-1.20087e-05
3.17752e-05
1.24663e-05
-5.25736e-06
-3.89841e-05
1.37825e-05
-1.15046e-05
-4.19142e-05
3.96363e-05
-4.83415e-05
6.87128e-05
-0.000154858
0.000134487
-5.00598e-05
7.7017e-05
-0.000137299
0.000110342
-1.04113e-05
1.10043e-05
-5.62838e-05
5.56908e-05
0.000142066
-5.11936e-05
-0.000223385
0.000132513
0.000188416
-0.000209786
2.37219e-05
-2.35226e-06
2.77299e-05
2.47757e-05
-0.00100247
0.00094996
-0.000119506
4.59044e-05
-0.000744338
0.00081794
0.000863556
-0.000866014
6.87589e-05
-6.6301e-05
0.000187032
-0.000286601
-0.000149265
0.000248834
9.90143e-05
0.000156312
-0.000139907
-0.00011542
5.65432e-05
1.73024e-06
-4.9741e-05
-8.5325e-06
0.000160977
-0.000143822
-4.87795e-06
-1.22761e-05
5.49457e-05
0.000688199
-0.000382462
-0.000360682
-4.93083e-06
0.000237267
-0.000107203
0.000220034
-0.00021961
-5.35558e-06
6.37591e-06
-3.3234e-05
8.34304e-05
-2.3374e-05
3.88483e-05
-4.85564e-05
3.30821e-05
0.000140409
-0.000103872
6.10597e-05
5.33076e-05
-0.000544509
0.000491202
5.10057e-05
-0.000536418
0.000485412
3.74337e-05
-0.000491218
0.000453784
3.96431e-05
-3.89179e-05
-3.24918e-05
-0.000307697
-1.31604e-05
1.74243e-05
-2.92542e-05
2.49902e-05
-1.59002e-05
2.6448e-05
-0.000952223
0.000941675
-0.000281188
-0.000389506
0.000455489
0.000215205
0.00105386
-0.000450267
-0.00080572
0.000202132
-0.00065478
0.00116045
-0.000869969
0.000364299
1.15184e-05
-3.00892e-05
4.49687e-05
-3.90855e-05
-3.52603e-05
3.79004e-05
-0.000621875
-7.00341e-05
0.000300814
0.000391095
4.74538e-06
-0.000199309
6.38938e-06
-7.11106e-05
-0.000132936
5.61345e-05
1.69919e-05
8.49137e-05
-4.9757e-05
-5.21486e-05
-0.000195279
9.88386e-05
9.644e-05
-0.000176145
0.000170365
5.77999e-06
0.000303274
-0.000204147
-0.000198378
0.000105465
-0.00038573
0.000338915
-5.86495e-05
4.63022e-05
-3.02209e-05
-0.000588991
3.27788e-05
-5.5678e-05
0.00061189
-0.000478404
2.13739e-05
-3.76716e-05
0.000494702
-9.49255e-05
-6.47793e-05
0.000138931
2.07735e-05
-4.35893e-06
0.00024706
-0.000316205
7.35039e-05
-0.000283491
0.000463459
0.000331116
3.01283e-05
-0.00108025
0.0011067
-5.65749e-05
-2.34517e-06
3.79828e-05
-2.18551e-05
5.81383e-06
3.87356e-05
-3.51032e-06
0.000182497
-2.31774e-05
-0.000196283
3.6963e-05
-3.73298e-05
4.23654e-05
3.19411e-05
-3.69767e-05
4.06551e-05
0.000268233
-6.45394e-06
-0.000302435
-2.21788e-05
-1.34625e-06
2.91683e-05
-0.000337222
-6.31125e-05
0.000294013
0.000106321
-0.00044988
0.000278681
0.000337181
-0.000307602
0.000191577
0.000131177
-0.000586099
0.000345283
0.000433704
-0.000552778
1.67567e-05
0.000547753
-1.17315e-05
-0.000614399
-7.28239e-07
0.000625305
-1.01779e-05
3.91532e-06
0.000625688
-0.000607637
-2.19666e-05
-3.58005e-05
0.000586069
-0.000574054
2.37864e-05
-0.000612358
0.0010469
-0.000760938
-5.10365e-05
6.29706e-05
-7.65575e-05
6.46234e-05
-2.6917e-05
5.06219e-05
-9.65907e-05
7.28858e-05
-1.69106e-05
1.404e-05
5.36346e-06
-2.49277e-06
4.43e-05
-4.0068e-05
2.96087e-06
-7.19283e-06
-0.000967031
0.000116732
0.000949475
-9.91761e-05
-0.000114898
0.000689418
-0.000742129
0.000167609
-8.4612e-05
-8.64475e-05
0.000491854
-0.000320795
1.32645e-05
-5.28687e-05
0.000180738
-0.000141134
-0.000127972
-8.09912e-05
0.000618583
-0.00040962
1.47116e-05
6.09843e-05
1.12905e-05
-8.69865e-05
-2.50212e-05
4.56731e-05
-5.14652e-05
-0.000570853
0.000536297
-7.30721e-05
0.000138995
-0.000168277
0.000342481
-0.00028854
1.00556e-06
9.72389e-05
5.37276e-05
-5.1535e-05
-9.94316e-05
3.98742e-05
-1.62766e-05
0.000322512
-0.00034611
-3.49288e-05
3.50552e-05
-3.74562e-05
0.000519007
-0.000329704
-0.00058231
0.000757678
-0.000394306
0.00060882
-0.000310319
4.27012e-05
8.40476e-05
2.84229e-05
2.37608e-05
7.78047e-05
-0.000129988
0.000467798
-0.000752758
-0.000595958
8.37009e-06
-3.02162e-05
-1.07889e-05
-0.000426533
0.000472026
0.00101163
-0.00105712
0.000846667
-0.000171057
-4.72883e-05
-0.000628322
3.18711e-06
9.12105e-06
4.74987e-06
-0.000367124
0.000190349
0.000435542
-0.000239878
6.50891e-05
-7.02358e-05
0.000224953
-0.000775934
0.000675728
1.65653e-05
6.51939e-05
-0.000109488
2.77289e-05
1.5361e-06
0.000229501
-0.00031575
8.47134e-05
-0.000679981
0.000610214
0.000570289
0.000117266
0.000219013
1.93062e-05
-2.4621e-05
8.03963e-05
-7.50815e-05
-6.42954e-05
-0.000241581
0.000184183
1.99406e-06
-1.14495e-06
-0.000244834
0.000243985
-0.000173756
-0.000202342
0.000803455
0.00013762
-1.53019e-05
-8.00137e-05
0.000204881
-9.54269e-07
0.00014729
9.47616e-05
-7.55112e-07
-2.36299e-06
1.09803e-05
-2.92395e-05
5.33357e-06
2.26518e-05
0.00012694
7.96112e-06
-3.7605e-05
0.000221211
-2.77774e-05
-2.48423e-05
-9.45488e-08
0.000213389
-4.02517e-05
-0.000230572
-5.5969e-05
-9.2902e-05
-0.000517905
2.9217e-05
-8.02602e-05
-0.000454039
-7.87568e-05
-0.000578809
0.000135561
-0.000130831
-4.59684e-05
-6.6005e-05
-6.96198e-05
-6.62611e-05
0.000209583
-1.09924e-05
2.07806e-05
0.000368158
0.000584454
-5.21538e-05
1.88017e-05
-8.8759e-06
-1.91332e-05
1.21122e-05
-7.98276e-05
-0.000203665
0.000166641
0.000513609
-0.000539996
2.46591e-05
1.72794e-06
2.68776e-05
-0.000325853
0.000232695
0.000107299
-0.000279569
0.00016642
-2.06969e-05
3.13459e-05
2.60936e-06
-1.32584e-05
0.00027348
0.000466221
0.000218756
0.000343986
-3.87858e-05
-0.000228193
-3.218e-05
3.81807e-05
1.59617e-05
-2.19624e-05
-8.88952e-05
3.223e-06
8.70628e-05
-1.39057e-06
-4.79461e-05
-2.49156e-05
5.21648e-05
-9.93365e-05
-2.06957e-06
6.10008e-05
4.04053e-05
-7.8847e-06
-8.22024e-05
2.91581e-05
6.09291e-05
0.00042779
-0.000119011
0.000136143
-0.000420547
0.000702008
6.75256e-05
-0.000305692
0.000546695
-0.000139962
0.000219072
-0.000220645
3.08717e-06
7.42647e-06
-8.91857e-06
-1.59507e-06
-1.03703e-06
4.67268e-05
-3.22485e-05
-1.34412e-05
1.42602e-05
-2.55526e-05
-2.08876e-05
-0.000624266
0.0010292
-0.000734299
0.000329367
3.86275e-05
-0.000153258
-4.14279e-05
3.97602e-05
-0.000145952
-4.78761e-05
2.69916e-05
-5.08632e-06
-3.90278e-05
-0.00105581
0.000944095
7.51299e-05
3.02032e-05
4.44517e-05
-4.89642e-05
-2.56907e-05
-6.66097e-05
8.44128e-05
-7.39769e-05
5.61738e-05
6.13527e-06
-0.000309109
-4.97702e-05
-8.19085e-05
0.000377419
-0.000149731
2.10969e-06
-4.21754e-06
4.82301e-05
-4.61223e-05
3.39355e-05
-3.08074e-05
-2.08834e-05
1.77553e-05
7.84734e-05
5.49367e-05
5.92332e-05
6.64259e-05
-1.23058e-05
-6.02392e-05
6.11905e-06
5.31514e-05
-1.98314e-05
-4.91016e-05
0.000360387
0.000114176
0.000315307
0.00115676
0.000121933
-0.00111932
-0.000159375
9.10523e-05
1.35811e-05
6.11446e-05
-0.000674905
0.00017471
0.000601163
-0.000100969
-9.52822e-05
2.65366e-07
-6.17754e-06
0.000101194
-6.78666e-05
0.000226297
-0.000125123
-3.33073e-05
1.02205e-05
-4.81008e-05
2.70251e-05
1.08552e-05
-0.000211793
0.000713371
4.51367e-05
-0.000546715
-0.000313494
0.000884067
6.20058e-05
-0.000632579
0.000643179
3.07956e-05
7.84992e-05
-0.000752474
-6.10654e-05
6.49185e-06
8.28151e-05
-2.82415e-05
6.5161e-05
0.00014583
-0.000183571
0.000384775
0.000373242
0.00049288
0.000110945
0.000529165
0.000112891
0.00057423
0.000128137
0.000603019
-7.72504e-06
-4.48885e-06
4.38188e-06
7.83201e-06
4.38338e-05
1.30244e-05
-1.86774e-05
-0.000254983
0.00029361
-0.000245318
0.000285078
-4.4128e-05
7.11196e-05
3.12368e-05
-1.91186e-06
3.28573e-06
9.9561e-06
9.06139e-06
-1.49442e-05
-4.07324e-06
2.07289e-05
6.08794e-05
-8.29192e-05
1.31083e-06
2.04415e-05
0.000637345
-0.000423027
0.000967023
6.24501e-05
-0.0010149
-1.45714e-05
-0.000250722
0.000264551
0.000289445
0.00013621
-0.000264565
-6.95845e-05
0.000197939
3.31179e-05
-1.28443e-05
3.16889e-05
-4.8523e-05
0.000119984
0.000174894
-5.75334e-05
-7.30103e-05
-3.75903e-05
-0.000953285
0.000925639
-0.000398887
-8.90798e-05
-7.26264e-05
3.68252e-05
0.000209801
-2.26e-05
-0.000224026
-8.02762e-05
0.000714614
1.88831e-05
-0.000653221
-8.1613e-05
0.000622338
2.11741e-05
-0.0005619
4.01574e-05
-4.83939e-05
0.000114151
-0.000105914
-4.15711e-05
2.72753e-05
-1.39648e-05
2.82606e-05
5.28458e-05
-0.000143411
0.00019189
-0.000101324
-1.48476e-05
1.24846e-05
3.17117e-05
-2.67914e-05
2.93621e-06
-7.85646e-06
-0.000277482
-6.34704e-05
0.00020174
0.000139212
0.000142973
-0.000126474
2.05301e-05
-3.70287e-05
0.000657003
2.07771e-05
-1.62153e-05
-0.000661565
-3.05024e-06
8.62359e-05
-6.61938e-05
0.000511791
-2.60381e-05
3.16892e-05
-0.000517442
0.000222783
-0.000132475
-0.000144502
5.41941e-05
-0.000551982
-1.2393e-05
-6.56825e-05
0.000630057
-0.000554597
-9.09376e-05
1.49799e-05
0.000630555
0.000179608
-4.85261e-06
-0.000185884
1.11286e-05
3.46573e-06
-3.4302e-05
1.04595e-05
2.03768e-05
-6.85919e-05
-3.65043e-05
5.81684e-05
4.69279e-05
-6.43353e-05
6.73599e-05
-3.62587e-05
0.00077642
7.93152e-05
-3.84411e-05
5.03366e-05
4.21285e-06
-9.48212e-06
-0.00116563
-0.000121017
0.0011262
0.000160451
0.000462078
0.000321075
-0.000279218
-0.000503935
8.47426e-05
-4.41272e-05
-3.36918e-05
-6.9237e-06
-0.000106892
0.000121938
-0.000175691
0.000160645
5.97874e-05
-6.28377e-05
-0.000155796
8.232e-05
-0.000598964
0.00067244
0.00013385
-0.000112624
3.03328e-05
-5.15595e-05
-5.19635e-05
4.87118e-05
2.21745e-05
-1.89228e-05
-6.29475e-07
-2.85723e-05
3.69814e-05
-7.77961e-06
0.00017874
-0.000143185
-7.13147e-06
0.00103257
-0.000895296
0.000209069
-0.000346346
-0.000301821
-0.000220716
0.000264807
0.00013744
0.000121607
-0.00011276
-0.000146287
2.41163e-05
1.7824e-05
-3.84746e-05
-0.000214128
0.000188134
-4.25979e-05
0.000162619
-2.6959e-05
4.39482e-05
5.89778e-05
-5.68442e-05
-2.66794e-05
2.45459e-05
1.74744e-05
-5.53807e-05
5.20095e-05
-1.41033e-05
2.00531e-06
-6.7029e-06
0.000227756
-0.000420656
0.000494044
0.00112827
-1.72258e-05
2.99164e-05
-5.27108e-06
1.48779e-05
-0.0001773
0.000167693
-6.09704e-05
0.000196531
-9.59049e-05
0.000146884
-0.000124051
-2.8837e-05
3.38365e-05
-3.00207e-05
-0.000836035
0.000361629
-4.57975e-05
-0.00095143
-0.000564586
0.000182097
7.55782e-05
-5.92093e-06
-8.55537e-05
-3.8076e-06
3.6266e-05
-2.14325e-05
-4.5151e-05
-3.38515e-05
4.2049e-05
9.12013e-06
-1.83651e-05
2.35052e-05
-4.60466e-06
1.41255e-05
0.000117246
-0.000126767
-0.000806992
-9.09481e-05
0.000223035
0.000380076
-0.000356619
-0.000170921
0.000147465
-0.000131936
-0.000919241
5.84384e-05
0.000992739
-6.71009e-05
-0.0010027
0.00103087
3.89222e-05
6.58755e-05
-8.04474e-05
-4.97235e-05
-0.000270555
-0.000316943
0.000336776
3.4293e-05
-1.91692e-05
-3.84649e-05
2.33411e-05
-0.000140375
-5.17015e-05
0.000152386
3.96905e-05
-0.000802813
-0.000283838
-0.00017568
-4.35828e-05
-2.06071e-05
0.00023987
5.98678e-05
-2.07829e-05
-5.78859e-05
1.88009e-05
0.000235836
-7.64986e-05
2.58454e-05
-3.2413e-05
-2.83612e-05
3.12736e-05
-9.34654e-07
-3.1376e-05
0.000102425
-9.57312e-05
-1.50511e-05
8.35755e-06
9.68732e-06
-1.65876e-05
2.47765e-05
-1.78763e-05
3.73521e-05
0.000651834
-2.61463e-05
-0.00066304
9.20045e-05
0.000674632
-5.44704e-05
-0.000712166
3.76192e-05
5.49963e-05
9.80927e-06
3.05626e-05
-0.00108563
0.00108578
-3.0715e-05
0.000254648
-0.00145016
3.41379e-05
0.00116137
-0.000152522
-8.42096e-05
6.44528e-05
0.000172279
4.64375e-05
3.46513e-05
-4.37937e-05
-3.72951e-05
0.000323167
-0.000310197
0.000206599
0.000740127
-0.00060204
-0.000750445
3.19707e-06
1.67801e-05
6.3199e-06
-2.62971e-05
6.76675e-05
-5.58926e-05
-5.28688e-05
4.10939e-05
-6.50571e-05
2.3732e-05
0.000133781
-9.24563e-05
-0.000733604
0.00023355
0.000477692
2.2363e-05
4.38955e-06
1.09385e-05
-1.80646e-05
2.73654e-06
-0.00018052
-2.15839e-06
-2.11192e-05
0.000203798
0.000210376
2.20538e-05
8.33328e-06
-0.000240763
-5.44364e-06
7.22562e-05
-6.68125e-05
0.000304801
-0.00121579
-1.22712e-05
1.38204e-05
-9.82944e-07
-5.66239e-07
1.28425e-06
-3.76801e-05
-1.15503e-05
6.57525e-05
-8.92376e-05
-4.7716e-05
7.12011e-05
0.00103955
-0.00146352
0.000183794
0.000240179
0.000465817
8.66591e-06
1.27429e-05
-0.000487226
-5.94871e-06
-3.1736e-06
5.94589e-05
8.75903e-05
8.66699e-05
-0.000945464
0.000771203
3.03005e-05
4.63063e-05
-7.44699e-05
-2.13689e-06
-3.69906e-06
0.000170507
-0.000217973
5.11649e-05
1.24172e-05
8.89537e-06
-1.61278e-05
-5.18479e-06
0.00100031
-0.000677232
5.4246e-06
-0.000158794
0.000155364
1.49336e-05
6.39485e-05
-5.95758e-05
0.000844027
-0.000578114
5.01406e-05
-0.000316053
9.56448e-05
0.000391783
-5.12229e-05
5.58989e-05
-5.29724e-05
-2.52152e-05
0.000198356
1.20024e-05
-0.000185143
0.000572433
-0.000123861
-0.000424943
-2.36292e-05
6.71326e-07
1.90205e-07
-6.57728e-06
5.71574e-06
-1.15739e-05
-0.00019516
0.000128777
0.000163623
6.09792e-05
-0.000106819
-8.5418e-05
0.000131258
1.83729e-05
6.42542e-05
1.66527e-06
-1.75408e-06
0.000210465
8.02086e-06
-9.05437e-06
-0.000179487
-1.55029e-05
8.36422e-06
1.15283e-05
0.000214434
-0.000234315
8.00346e-05
-6.01533e-05
0.00114741
-0.00112137
-0.000303843
-1.5802e-05
-0.000619497
0.000189311
0.00053565
3.32778e-05
-3.72946e-05
-3.09857e-06
0.000560795
-7.01892e-05
0.000509702
-0.000156991
-5.80238e-05
0.000120585
-7.15254e-06
4.06874e-05
5.72357e-05
-9.07706e-05
3.23727e-05
-4.53094e-06
-4.25437e-05
1.4702e-05
-8.98061e-05
6.45909e-05
1.11867e-05
-6.29513e-05
5.98025e-05
-8.03788e-06
0.000721401
0.000100506
-4.54877e-05
0.000173589
0.000166125
-0.000270758
0.000234957
-0.000459215
0.00046313
-0.000356689
0.000241791
-0.00113711
0.00113929
9.6225e-05
-9.84085e-05
0.000219519
0.000565726
-0.000301156
-0.000412915
-7.12937e-05
-0.000223044
-0.000229958
-0.000304534
0.000497762
-0.000744098
-0.000156175
0.000402511
-0.000813902
0.000361421
-0.000109139
0.00056162
-3.80129e-05
0.000115935
-0.000347882
0.00026996
-2.19224e-05
-5.58122e-05
-0.00106891
0.00114665
8.47814e-05
-0.000379904
0.000766428
0.000180277
-0.000818194
-0.000128511
-8.40273e-06
1.11777e-05
2.84618e-05
0.000725936
-0.000672752
7.49534e-05
0.000650534
-0.000704697
0.000167053
0.000549175
-0.000510843
7.26128e-05
-1.17225e-05
6.19114e-05
9.679e-06
0.000119678
3.80676e-05
-9.67665e-05
3.98147e-05
-6.36947e-05
5.55373e-05
-3.16573e-05
0.000639391
-0.000540044
-6.50645e-05
-3.42834e-05
0.000677681
-0.000576338
-1.62487e-05
-8.50944e-05
0.000101545
0.00154207
-0.00121
-0.00043362
6.74902e-06
-1.71473e-06
-1.65909e-05
1.15566e-05
-0.000992677
-0.000637326
0.00105471
0.00057529
-1.67453e-05
2.87523e-05
1.68502e-05
-2.88572e-05
2.06145e-05
-3.29218e-05
-3.72339e-05
4.95412e-05
2.77067e-05
-4.97245e-05
-3.96148e-05
6.16326e-05
0.000118276
-4.44914e-05
0.000647617
0.000586128
-0.000824476
0.000336339
0.000593691
-0.000820143
0.000350018
1.32432e-05
8.63821e-05
-6.71069e-06
1.31479e-05
3.69657e-05
-4.3403e-05
0.000615469
-6.91917e-05
0.00014314
-1.72247e-06
1.98794e-05
-8.89781e-06
-0.000121093
-0.000158116
5.79405e-05
0.000221269
0.00016668
0.000796662
-0.000642267
-0.000294627
-0.000348363
0.000361803
0.000675928
-0.000636096
-0.000167989
0.000128156
-2.91479e-05
5.18227e-07
2.8895e-05
0.000108761
-1.87875e-05
5.62728e-05
0.000114158
-3.11415e-05
4.31396e-05
-3.69918e-05
9.35553e-05
0.000529596
-0.000638763
0.000109167
-0.00040275
0.000288365
-0.00127071
0.0013851
-0.000199149
0.000153674
0.000300477
-0.000255002
5.28942e-05
2.80159e-05
-4.44581e-05
-3.6452e-05
-0.000439218
-3.07086e-05
0.000601762
-0.000131836
0.000221199
-0.000185715
-0.000387201
-7.19959e-06
-1.80786e-06
1.31553e-07
7.83145e-05
-6.66847e-05
4.12644e-05
-6.66827e-05
8.49183e-05
4.94318e-05
-6.29804e-05
7.49709e-06
9.41702e-05
-3.86868e-05
0.000192711
-0.000206896
0.000127776
-0.000113591
4.642e-05
2.38334e-05
9.07231e-05
-5.65345e-05
-5.25001e-07
5.51476e-05
-1.09736e-05
3.70564e-05
-6.21145e-05
3.60317e-05
6.26413e-06
1.38785e-05
-1.88732e-05
-1.26939e-06
3.07015e-05
-2.68561e-06
-0.000111065
3.98492e-05
-8.13064e-05
4.19692e-05
-3.34538e-05
3.79221e-05
-1.13833e-05
5.78879e-05
1.24731e-05
-0.000661595
-0.00038861
0.000798884
0.00025132
0.000822308
-0.00104069
0.000356318
-0.000137938
1.02143e-05
1.86232e-05
-2.45506e-05
-4.28692e-06
-1.56685e-05
0.000283366
-0.000331911
6.42138e-05
-7.87578e-05
5.57088e-05
1.77117e-05
5.3373e-06
-0.0013298
0.00116766
-0.000247627
0.000409763
0.000379368
-0.000324162
-0.000130151
7.4945e-05
1.13135e-05
0.000696679
-0.000694181
-1.38108e-05
-0.000343062
1.97005e-05
0.00013503
-0.000554738
0.000533905
-0.000114198
0.000167078
-0.000639243
0.000639221
-0.000167056
-0.000103048
-0.000753262
0.00085631
-9.91732e-06
2.61762e-06
-1.45848e-05
2.18845e-05
-1.37158e-06
-2.14089e-07
-2.34859e-06
3.93425e-06
0.000158027
-0.000111958
0.000115
-0.000161068
-8.71975e-05
-0.00019718
0.00021932
-9.76005e-06
5.54533e-06
-8.0565e-06
-0.000136028
-7.19593e-06
9.42356e-05
4.89881e-05
-0.000121237
-2.18847e-06
9.39115e-05
2.95143e-05
-2.62753e-05
4.46305e-07
0.000354185
-0.000328356
0.0010559
-0.00107761
-6.19192e-05
8.36294e-05
-0.000195449
1.24754e-05
0.000142847
4.56899e-06
-0.000147416
-2.08957e-05
0.000228535
-1.21657e-05
-0.000195474
5.85021e-06
-4.88747e-05
-3.84993e-06
4.68744e-05
-1.29436e-05
1.91076e-05
-6.30082e-05
6.02205e-05
-7.08179e-05
0.000173216
-9.28157e-06
4.91397e-05
-0.000253986
-1.72598e-05
2.01782e-06
3.93583e-05
0.000644513
4.8805e-05
-6.76296e-05
0.00059912
3.18163e-05
-4.48676e-05
-0.000544523
2.46593e-05
-3.29146e-05
-0.000542315
-4.27006e-05
-2.93835e-05
-0.000362131
-0.000189408
0.000214317
-0.000975191
-0.000170455
0.000279632
7.42234e-05
-4.00158e-06
-3.79589e-06
-9.98111e-05
-0.00113325
0.00115346
-5.63256e-05
4.5614e-05
-0.000184567
-8.95176e-05
-1.59266e-05
-7.07012e-05
0.000669871
-0.000194017
-0.000557466
0.00068562
-0.000180143
-0.000585753
-2.82701e-05
2.47351e-06
0.000181138
-0.000155341
-8.68923e-06
0.000677948
6.66907e-06
-0.000106424
0.000143334
6.90052e-06
-4.38099e-05
1.84443e-05
-3.31846e-05
4.67929e-05
-3.20526e-05
3.59141e-05
-2.71143e-05
8.55737e-06
6.85549e-06
-1.32002e-05
5.01784e-05
-1.53492e-05
-4.97519e-05
1.03763e-05
5.47248e-05
0.000257745
-2.08933e-05
3.55909e-05
-0.000272443
-0.000325449
-7.70077e-05
5.93942e-05
-0.000397049
0.000276225
0.000345777
6.40282e-06
-1.43547e-05
1.7072e-05
2.91285e-05
2.19669e-05
-8.72999e-06
3.74404e-05
-7.41872e-05
7.44577e-05
-3.77109e-05
-0.000385832
4.30505e-05
0.000356406
-1.36237e-05
0.000303102
0.000361261
-0.000584979
-7.93843e-05
0.000227248
-0.000597186
-0.000291656
0.000458954
0.000330723
-0.000642225
-0.000147452
-5.65901e-05
4.78499e-05
-9.85989e-07
9.72623e-06
0.000113578
0.00016312
-0.0010103
3.60656e-05
-1.55749e-05
-2.76903e-05
-1.14007e-05
-3.45771e-05
2.87179e-05
-0.000118683
9.76404e-05
8.12633e-05
0.000898809
-2.32107e-05
-0.000765982
-0.000109616
-1.05696e-05
2.65246e-06
-9.35997e-05
-0.000193002
-3.3261e-06
7.55823e-05
-0.000103743
0.00110861
0.00015558
-6.88381e-05
0.00019681
8.64624e-05
-0.000403027
0.000324937
0.000519954
-0.000441863
0.000281949
-0.000264707
0.000457305
-0.000474548
7.74308e-06
5.80407e-05
-7.63192e-06
-5.81519e-05
1.72944e-05
-1.59792e-05
-1.44771e-05
1.31619e-05
-0.000251887
4.5681e-05
4.69891e-05
0.000159217
-0.00110498
0.00109964
9.20036e-05
-0.000717978
0.000466482
-0.000646008
0.00055298
-0.000384791
-0.000174885
0.000162627
0.000110004
-3.72192e-05
0.000859792
-0.00102753
-0.000262724
0.000430459
-0.000226259
-0.000987986
0.00118932
2.49297e-05
-0.00104491
0.00107346
-0.000128361
-0.000492436
0.000436775
0.000357941
-0.00030228
-0.000267295
0.000275377
1.47341e-05
-2.28167e-05
-0.000129422
-4.0852e-05
2.64521e-05
-0.000640427
0.000747258
-0.00049544
0.000152002
-1.16329e-05
-3.02228e-05
1.78856e-05
2.02572e-05
-7.91999e-06
-0.000177363
0.000167932
-2.22639e-05
7.59778e-06
8.88895e-05
-0.000916819