/*--------------------------------*- C++ -*----------------------------------*\
| =========                 |                                                 |
| \\      /  F ield         | OpenFOAM: The Open Source CFD Toolbox           |
|  \\    /   O peration     | Version:  v1912                                 |
|   \\  /    A nd           | Website:  www.openfoam.com                      |
|    \\/     M anipulation  |                                                 |
\*---------------------------------------------------------------------------*/
FoamFile
{
    version     2.0;
    format      ascii;
    class       volScalarField;
    location    "0.16";
    object      p;
}
// * * * * * * * * * * * * * * * * * * * * * * * * * * * * * * * * * * * * * //

dimensions      [0 2 -2 0 0 0 0];


internalField   nonuniform List<scalar> 
1431
(
97.4861
88.6459
97.4706
89.0545
95.0418
93.8937
90.8779
40.2732
96.7432
91.791
42.0773
42.8125
97.3584
88.2227
95.0577
91.5517
87.987
97.932
89.2416
98.2398
38.1329
87.4835
97.1367
17.9217
96.7548
97.3341
47.5067
95.1849
98.2485
89.7868
90.4966
96.5827
90.5072
89.6788
94.8707
93.1946
97.623
96.8482
94.1882
95.7741
97.1667
97.1246
97.3951
92.7292
91.8367
95.982
90.6045
52.225
89.827
96.4463
93.8486
93.9148
95.2504
47.3821
88.8061
95.9236
95.6005
44.1785
89.6388
97.4654
95.5635
90.0851
95.8909
96.7468
93.5877
91.5509
94.6746
94.8622
96.2594
88.6058
43.1328
89.4337
87.7089
89.7553
87.7703
95.8367
96.3235
96.242
92.6173
97.8169
88.1812
95.99
76.9453
92.0725
35.2034
89.8673
89.9088
95.634
50.4247
63.9082
95.8713
95.5758
96.9879
92.8071
88.3478
90.8336
41.801
79.3977
91.8794
96.0093
96.0858
90.9136
88.3957
97.625
96.5082
89.1963
96.3652
46.2511
96.3835
88.431
97.5806
97.2638
99.1894
97.1688
88.0283
95.3245
88.9162
88.4502
89.7561
96.4428
90.3691
95.3583
48.4328
87.6713
41.6592
92.655
97.0284
94.56
96.988
89.4761
88.3372
98.0597
89.809
87.5571
98.3557
94.8104
96.7076
89.2974
45.5355
96.9406
94.9103
91.2431
88.893
97.637
98.151
90.7145
95.0137
96.0561
92.3614
95.8925
95.3343
96.2181
95.9974
90.1256
96.583
96.9072
43.0403
87.2302
70.7895
90.035
60.7484
97.3377
89.3417
89.86
47.6571
97.1668
96.9188
87.5904
96.6212
83.857
59.3721
96.1108
94.2721
45.0219
87.7205
42.7962
89.8979
93.118
94.8567
94.6538
91.129
94.6418
91.3327
21.8413
93.5659
95.8435
43.6586
86.1022
93.5054
47.6285
90.6228
94.9357
95.8641
47.3535
89.5345
84.7126
79.3209
91.9369
96.2464
97.0759
91.0009
89.5364
68.3264
89.8364
97.3029
90.0776
96.1435
96.2199
44.21
96.9777
39.9578
89.3496
96.4435
89.4736
37.2713
95.7931
96.0183
90.7095
91.6091
75.3982
97.1609
91.5318
97.5734
89.7349
96.6622
40.9302
67.8885
81.7132
96.9744
72.2212
40.4845
90.3547
89.7245
95.6263
96.7018
66.3849
96.4207
91.5161
91.3741
91.2191
90.1321
91.1574
43.0573
91.9681
94.3841
89.9772
92.9121
57.7651
97.5867
96.8073
94.6603
49.6375
89.9458
89.5479
90.2197
97.4442
89.8465
37.133
73.2775
95.8964
96.1711
45.72
91.2824
89.9495
97.2432
79.7636
96.6868
49.6836
59.1694
95.4077
96.7954
96.2907
89.4596
91.0944
57.354
93.6104
53.9068
88.9007
89.2469
96.4125
96.0748
97.6695
91.0788
94.0953
89.6678
76.8702
97.4532
76.7332
41.0708
89.3309
96.2348
96.7949
81.6181
96.2562
76.8618
97.1695
41.112
96.0076
95.9192
89.0857
95.7562
96.9071
90.0023
97.1935
93.4091
89.7277
88.8454
95.5914
97.3337
85.6386
81.917
92.6027
89.6505
46.7827
96.5696
80.749
92.6698
89.346
96.2547
30.9027
89.4357
83.0978
95.9679
96.1654
94.1395
98.0971
96.0007
96.6723
49.6821
89.4013
87.1629
96.2834
96.7014
87.1465
90.1246
97.2926
96.9209
70.1998
94.1789
45.4788
96.6683
97.2706
78.688
97.2774
96.3951
92.1865
90.1986
51.1214
83.1645
96.5378
91.7237
96.2007
96.1376
88.6302
95.9283
91.6925
44.0614
40.5817
47.0193
97.3138
87.7679
96.2148
87.7584
90.157
96.2534
43.1949
96.6514
9.57446
98.2058
90.2879
49.8048
94.7097
53.3679
91.3996
97.4193
45.526
88.034
91.0491
99.2876
42.7192
97.3406
93.9583
91.0057
95.9359
10.5132
96.0597
93.7407
96.1758
92.8503
91.6854
90.145
94.7508
95.052
89.5681
69.0668
96.2611
97.0291
97.046
96.5179
94.8754
86.9262
97.3963
76.638
97.3703
95.6958
96.8177
94.2942
90.966
89.8076
96.7255
85.9663
93.7595
96.5476
97.7724
95.958
96.071
90.0465
91.0934
94.1018
96.3585
98.617
97.4209
93.1622
89.2729
96.2033
94.5853
98.214
90.3213
98.5648
26.828
98.1794
98.1784
98.0273
98.0532
97.9403
97.8905
98.079
97.7004
97.8694
97.6183
95.3521
46.9041
96.0496
96.2862
96.1607
96.2184
96.1758
96.1996
92.2345
89.3212
89.8858
95.6985
88.8353
97.0348
88.5957
89.5457
88.163
46.9886
96.771
95.6404
88.4863
95.9724
47.3135
89.6364
95.2452
95.132
97.4678
47.107
94.987
44.8027
92.3154
93.122
97.6886
87.2825
45.6068
47.0485
93.8007
96.7194
96.1652
93.5053
87.0394
96.1221
45.438
93.9274
96.0734
87.0399
97.8579
96.0867
96.6755
96.9681
45.3669
94.2502
97.2878
97.1278
87.9201
98.0156
98.1529
45.1696
94.8963
95.7002
98.6783
97.309
96.5363
98.4099
45.7469
49.0372
96.1063
94.608
95.3395
95.2671
97.1994
89.9611
98.1495
97.8834
98.87
88.1177
99.0512
97.2211
89.8942
48.7805
90.8187
95.1978
95.6221
89.3625
97.3072
89.7382
45.722
95.5468
95.1123
90.8941
90.3198
95.5563
97.4871
92.1007
97.2203
98.9708
90.9469
92.3356
97.2704
94.4751
96.9072
97.7441
97.3362
95.1684
95.8667
90.9656
91.4372
82.2735
96.9981
97.3529
92.4869
98.0667
97.2824
95.716
95.9887
91.8283
89.9101
98.304
87.4157
49.3691
97.4932
49.2128
79.9899
96.426
36.5605
96.2099
91.1864
89.7882
98.3046
97.1689
96.2979
71.3452
97.7737
94.2537
95.9926
91.0443
89.3027
95.4909
98.0733
98.3301
96.4314
78.4663
91.7596
89.4176
88.0824
96.529
90.925
94.7524
95.9388
95.3578
98.2496
97.1041
94.6413
92.1137
98.0789
97.1271
88.3413
93.1961
83.9189
44.6996
72.6953
97.3961
96.0343
95.7918
85.2318
94.1336
19.6576
84.7844
90.9152
96.3016
89.5244
96.6328
95.4619
97.9204
95.7387
96.6482
39.9782
90.0954
99.1877
94.3314
86.9959
90.5433
95.9655
95.3665
96.6805
87.7328
97.1064
94.9121
82.1115
91.3391
97.0296
95.9847
92.1921
97.6646
96.2099
88.8496
42.6554
90.1881
96.0761
91.3305
96.4708
77.7085
90.3941
95.7885
97.0042
96.9104
88.2796
93.4044
38.3152
89.8968
98.6165
97.5386
94.9272
86.7711
96.2369
94.2216
96.8332
83.4061
99.414
54.0313
64.5926
97.0192
97.4182
96.3619
97.9642
91.5186
98.3846
99.389
95.6287
96.1158
96.0934
86.5838
34.5343
97.4958
98.9366
88.924
29.7219
87.2766
92.8664
90.6644
90.8395
92.1826
90.2553
38.1631
95.9617
95.6517
98.0203
96.3332
95.6039
87.2621
93.7484
98.5026
97.2284
87.9525
88.7569
97.835
79.6743
92.3869
89.0127
77.6257
83.6847
90.6915
96.6207
88.4352
96.9649
23.519
94.322
81.8426
91.362
95.8714
96.0768
91.1197
91.6446
98.3298
98.8289
97.3795
98.0183
95.9416
90.9204
96.2649
97.3307
89.9592
48.0741
96.5996
97.0508
86.3459
93.6338
97.5209
50.2964
49.6066
96.6577
81.7106
99.1067
90.5253
93.5291
98.6502
97.0919
77.1838
39.8946
90.0355
94.1982
96.2451
90.6771
93.5811
98.4133
94.5778
87.7491
97.5779
95.1935
90.1167
97.1906
91.4866
88.899
91.1549
8.41854
94.4612
97.0447
96.1416
94.8276
90.5443
31.2027
92.1189
98.8451
88.6137
96.5505
96.3595
91.8142
90.7159
96.2279
91.2621
97.6963
89.6157
93.4925
96.8924
96.5905
92.9649
89.6011
96.0329
96.842
96.7566
90.8699
96.7141
96.4302
94.8096
86.3216
52.5588
94.1788
93.437
94.6878
92.3101
92.2183
98.3298
96.1719
96.9204
95.7384
89.2894
90.078
92.6526
89.6704
97.1735
95.8838
87.6134
96.5027
98.3779
98.2719
16.7162
95.6623
95.6532
96.0793
93.9324
47.9488
89.7257
91.5636
40.1614
97.3445
46.9346
98.4808
94.9776
97.7827
96.383
96.2202
90.8667
96.2207
97.2219
85.1472
94.5101
97.2645
91.271
95.1428
94.9009
97.7053
74.403
39.1289
95.1367
90.9554
47.6041
93.5671
97.8597
96.8261
94.056
96.8157
97.064
96.8975
96.0006
95.7813
62.7774
96.8525
48.6152
96.0331
72.1408
98.2929
91.1019
97.2874
91.151
95.2025
95.6608
89.4725
99.732
96.5709
96.5335
91.0601
90.673
97.3213
91.5454
97.4703
96.4883
97.7019
93.0133
50.5302
96.0659
97.3844
48.1708
96.8815
93.4315
89.0887
97.462
90.3086
96.8419
96.1564
96.0122
44.1043
90.0698
96.3248
40.0413
51.329
45.7426
39.8692
64.0832
96.8491
96.9599
97.4132
97.1592
55.9254
96.7968
92.0139
93.7318
92.9343
91.1913
71.0211
47.2663
90.6618
81.2461
76.5298
90.6091
96.6872
96.4696
90.8114
96.2209
96.0259
90.9084
95.8906
97.819
74.7752
96.1255
99.5518
95.2037
87.2978
90.0241
41.8466
97.9936
88.356
88.0339
96.7762
93.2199
47.8356
88.4419
98.0361
73.2501
95.5194
97.8038
90.6164
89.9003
46.6893
95.3872
95.804
94.5321
91.5638
90.8688
95.6798
45.0169
96.1663
88.5291
97.6114
97.1549
96.2434
96.7715
58.2364
93.9548
93.4482
95.618
88.9783
96.3043
98.3496
90.6351
99.3948
94.1729
97.2006
89.684
97.0188
97.2185
95.9702
42.137
97.2011
94.8204
95.7777
97.6929
87.812
90.3585
95.3441
94.3132
89.8689
95.4308
90.5924
37.4188
96.181
87.6262
97.8422
98.6721
88.8646
26.2624
96.4309
95.2889
95.211
40.4687
96.7148
73.8143
90.7411
93.22
90.1557
94.4521
98.145
96.0045
89.7949
51.7283
32.8707
95.6559
96.5938
88.5151
92.7404
87.4145
98.41
92.1074
95.0368
98.4392
93.584
98.5941
37.0861
97.5208
90.2691
95.4882
88.4788
97.1595
91.3798
96.026
95.027
90.7966
92.8023
96.1273
93.9223
92.1074
24.3288
18.4051
90.6445
97.9797
88.2036
89.9351
96.845
46.5262
90.9041
95.4349
90.4305
66.8155
47.2349
90.6231
90.1039
96.7956
94.0543
71.3776
45.9988
97.4588
91.7968
89.8729
52.3944
89.7304
96.8191
91.54
6.64004
97.6871
42.3221
57.3171
96.8071
99.6992
95.7066
89.9647
97.1076
89.7719
90.263
89.6808
94.6719
97.6485
95.222
98.9288
97.4084
61.598
96.2709
96.0751
97.5521
51.2705
96.3032
50.4658
97.773
97.242
51.8437
94.916
62.1686
59.428
56.5789
48.8635
48.5069
47.3524
53.7688
47.681
90.2079
89.5726
89.5498
90.0099
89.3182
88.6444
97.0924
90.0816
97.5904
91.9213
96.9108
90.8413
89.2409
98.7296
96.1789
89.3729
95.8085
94.2595
96.1573
88.0453
89.8718
96.6724
95.0859
83.5763
98.4244
98.0639
95.3786
83.606
91.0346
91.223
43.454
96.4443
95.9939
95.8879
85.305
97.0176
92.3021
30.4929
96.8482
96.7089
89.552
94.2876
89.9086
90.7747
88.6908
97.2731
89.7664
87.3014
97.9364
97.5241
83.6834
97.5994
96.9866
87.7295
95.1955
16.7989
96.3688
38.7783
7.17459
89.2776
46.413
90.2552
97.2655
96.4796
47.2702
89.815
95.3131
97.691
70.8109
97.2699
90.779
95.9071
94.4381
93.5593
97.2278
95.9776
96.1634
61.2497
40.9968
15.6488
79.4586
92.516
91.2178
96.2972
90.4957
96.0839
96.0402
88.2713
97.7515
45.54
97.0974
95.3643
45.7963
95.0947
88.6264
97.1737
95.5678
98.0634
84.2916
66.8548
95.2627
96.4031
92.5314
96.9677
41.6117
97.5304
43.39
92.8641
98.1069
88.1384
40.1289
74.0328
97.2964
97.0024
96.729
89.1043
48.3601
94.9181
95.8949
87.3457
86.8499
98.0216
97.0981
88.8521
88.8772
94.2711
51.6361
89.4801
97.147
97.4032
87.2905
89.1303
96.1327
89.8217
79.4836
89.4776
97.0796
42.1883
95.6945
97.3583
94.335
92.7599
87.7604
86.9437
98.1364
95.5831
68.1365
92.7891
28.3608
96.0049
88.9436
91.568
62.8079
91.6626
88.9058
92.6719
97.4965
96.3186
96.7105
96.4907
97.4095
97.8335
90.0248
91.3549
89.9586
89.3728
94.2742
48.5857
97.0866
49.3704
96.2876
97.0458
94.0906
94.9937
90.5316
96.7024
99.4223
89.3807
89.1481
92.1132
39.9538
93.0838
93.4587
95.6428
95.4386
91.8441
92.3275
96.023
65.0079
96.9357
97.9957
46.2865
89.9598
94.4261
95.8458
96.2054
93.287
98.4797
97.6819
85.3548
90.2395
95.1036
89.2614
90.0671
96.5937
47.0355
96.209
97.7823
87.2323
96.84
51.3106
91.9448
95.7706
94.4821
48.5675
97.2597
95.9915
96.2656
36.6947
94.5228
96.9869
94.4322
94.856
38.5678
88.5782
47.9006
90.6624
90.344
89.3794
49.1441
89.6117
39.1542
67.3253
97.0837
98.4082
90.6322
45.1834
97.7582
14.5733
89.1967
96.142
87.3143
96.1994
95.0046
65.9545
89.8626
85.1021
39.4222
50.5208
98.2517
87.422
89.8249
47.3795
90.5993
91.6149
96.9506
48.8421
90.0045
89.511
97.2465
81.697
89.4462
96.1575
94.7106
88.5598
90.6278
55.6655
49.0704
90.5561
94.5621
94.6695
93.686
96.1034
96.1531
88.6479
96.3404
88.1231
92.0066
91.2238
96.4619
60.6517
96.325
89.3573
97.4864
80.5026
89.1153
90.4312
96.5149
87.3407
89.6296
91.2041
91.6906
96.3622
89.6879
88.86
57.8434
49.0838
91.1597
95.8333
89.1811
96.3605
96.5084
97.7883
95.075
94.405
95.0504
94.5933
95.1942
88.6732
56.292
97.7447
85.2169
97.1737
90.2457
46.3238
93.6805
88.634
89.9368
96.0024
96.9416
40.6995
96.9643
97.178
99.9192
97.0943
95.4113
95.7568
92.406
92.0021
90.8167
21.3806
49.2672
84.3059
104.302
89.5829
91.0721
88.0632
95.618
99.5492
95.6338
96.0523
98.8035
98.1612
95.5725
95.8339
92.2412
96.2924
97.1763
95.184
)
;

boundaryField
{
    frontAndBack
    {
        type            empty;
    }
    wallOuter
    {
        type            zeroGradient;
    }
    inlet
    {
        type            zeroGradient;
    }
    outlet
    {
        type            fixedValue;
        value           uniform 0;
    }
    wallInner
    {
        type            zeroGradient;
    }
    procBoundary3to1
    {
        type            processor;
        value           nonuniform List<scalar> 
48
(
97.3539
96.9314
96.8339
97.0616
98.4209
96.6915
96.9314
99.1392
98.1871
96.8223
96.8223
97.2537
97.2537
95.6937
95.0975
97.5355
97.7867
97.6207
97.7867
97.9337
96.3515
96.9592
97.9337
96.6232
96.5272
98.0782
97.552
96.9592
98.0878
98.3116
98.3116
99.0056
99.0056
98.1871
97.9976
98.4806
98.9083
96.5272
97.5645
98.2122
95.6937
98.6667
98.4093
97.9337
94.667
98.2712
98.2163
96.0129
)
;
    }
    procBoundary3to2
    {
        type            processor;
        value           nonuniform List<scalar> 
29
(
94.179
94.179
89.6568
92.9038
93.6456
94.2219
87.2242
93.2391
90.5589
91.3228
93.8481
93.744
94.4794
87.4474
89.7715
87.3727
88.7291
89.1549
93.449
89.0874
89.431
88.7291
90.3763
89.1549
90.059
89.0016
89.1549
94.2262
94.2262
)
;
    }
}


// ************************************************************************* //
