/*--------------------------------*- C++ -*----------------------------------*\
| =========                 |                                                 |
| \\      /  F ield         | OpenFOAM: The Open Source CFD Toolbox           |
|  \\    /   O peration     | Version:  v1912                                 |
|   \\  /    A nd           | Website:  www.openfoam.com                      |
|    \\/     M anipulation  |                                                 |
\*---------------------------------------------------------------------------*/
FoamFile
{
    version     2.0;
    format      ascii;
    class       surfaceScalarField;
    location    "0.9";
    object      phi;
}
// * * * * * * * * * * * * * * * * * * * * * * * * * * * * * * * * * * * * * //

dimensions      [0 3 -1 0 0 0 0];
oriented        oriented;


internalField   nonuniform List<scalar> 
2776
(
-2.57114e-05
-4.63143e-06
1.29775e-05
1.73653e-05
1.99876e-05
2.35984e-07
0.000185429
-0.000205652
0.000100374
2.43196e-06
1.69906e-05
-0.000119797
-1.78283e-07
1.63501e-06
6.80382e-06
-8.26055e-06
0.000106298
0.000107391
-6.60441e-05
-0.000147645
0.000336445
0.000215365
-0.000386237
-0.000165573
1.34333e-05
-1.25696e-05
1.13129e-05
-1.21765e-05
5.97586e-05
-1.09075e-05
-1.77834e-05
0.000250413
-0.000285154
5.25251e-05
-3.53783e-06
-5.63057e-06
8.20033e-06
9.68088e-07
2.385e-05
-9.035e-06
-1.4815e-05
4.71163e-05
-4.83897e-05
-1.10919e-06
2.38258e-06
1.09656e-05
-1.09656e-05
0.000100381
-4.56787e-05
-4.93642e-05
-5.33853e-06
-3.18977e-05
-9.33101e-05
7.58658e-05
4.9342e-05
1.71115e-05
4.60554e-05
-7.94525e-06
-5.52217e-05
4.44135e-06
1.74434e-05
-2.18847e-05
-2.60513e-05
-6.86152e-06
1.71539e-06
3.11975e-05
2.44002e-05
1.50283e-05
7.8381e-05
-0.00011781
1.16948e-05
-3.93178e-05
7.30129e-05
-4.53899e-05
-2.60972e-05
2.89177e-05
6.60077e-06
-9.42132e-06
-1.89447e-05
-8.76188e-06
2.9134e-05
-1.42747e-06
5.34579e-05
-4.42271e-05
-9.2308e-06
1.74872e-06
-0.000158606
0.000156374
4.83535e-07
3.24368e-05
8.39347e-05
-1.599e-05
-0.000115542
-3.58323e-06
0.000118455
6.70017e-07
-0.000108749
8.54547e-05
-3.60959e-05
5.93901e-05
-1.01504e-05
9.98434e-06
-2.93112e-05
2.94772e-05
-1.96098e-05
2.43663e-06
7.16398e-05
-6.94626e-05
-2.17722e-06
-1.72796e-05
-1.45951e-08
-6.46685e-05
0.000116237
-0.000120554
-0.000155386
0.000159703
9.47464e-06
-9.53308e-06
-3.21645e-05
-1.04804e-05
9.09635e-06
-6.24957e-05
6.38798e-05
4.20385e-05
-1.70102e-05
-3.49069e-05
9.87861e-06
4.68894e-05
-4.75968e-05
-3.11902e-05
-1.37234e-05
2.38231e-05
-3.59535e-05
2.58537e-05
1.8686e-05
8.37941e-05
-5.33137e-05
-4.91664e-05
-7.73207e-06
0.000237555
-0.000306343
7.65204e-05
-4.13256e-06
-1.23265e-05
4.5378e-06
4.44664e-05
-1.88786e-06
-3.89947e-05
4.50206e-05
2.43001e-05
-3.0326e-05
-0.00024808
0.000148526
8.17699e-05
-3.28277e-05
2.17015e-05
1.13477e-05
-2.21552e-07
5.44712e-05
-4.89862e-05
1.29022e-06
-6.77523e-06
2.97602e-05
-4.74693e-05
0.000118721
-0.000101012
2.01489e-05
6.90719e-05
9.20385e-06
-9.84247e-05
-1.57921e-05
3.96093e-05
-4.98685e-05
-3.6409e-05
3.00655e-05
-3.26512e-05
9.76813e-06
-2.14334e-05
-1.44319e-05
2.40628e-05
-3.00693e-05
9.53959e-05
-8.93895e-05
4.50104e-06
1.41798e-05
-3.18707e-05
-5.91859e-06
-3.79328e-05
4.28178e-05
1.07674e-05
-1.56524e-05
-9.65805e-05
9.99433e-06
9.13903e-05
-4.80404e-06
-8.62747e-05
5.82879e-06
5.25134e-05
2.79325e-05
1.59271e-06
7.42245e-06
-8.33954e-06
-6.75619e-07
1.18577e-05
-3.19953e-05
-1.77952e-05
8.49342e-06
-8.34611e-06
5.92073e-05
-5.93547e-05
6.11594e-05
-6.76898e-05
0.000238019
-0.000130939
-3.93902e-05
1.35391e-05
-5.75993e-05
3.34008e-05
1.06594e-05
4.77283e-05
5.22946e-06
-1.01399e-05
3.0203e-05
1.24264e-06
-2.52794e-06
5.44721e-07
-1.13297e-05
1.27785e-05
-1.99349e-06
-6.07561e-06
1.25212e-05
-2.53903e-05
3.7432e-05
-4.39557e-05
0.000125403
-0.00011888
1.06277e-05
-1.79266e-06
-7.43702e-06
-1.39807e-06
1.09153e-06
8.06467e-05
-6.30523e-05
4.71964e-06
-2.42645e-05
9.18526e-06
1.03596e-05
5.89168e-05
-5.78252e-05
3.34241e-06
-3.00189e-05
-1.28075e-05
1.99292e-05
7.93565e-06
-2.31452e-05
-1.07974e-05
1.61376e-05
-2.11324e-05
-2.33419e-05
-2.53937e-05
2.91258e-05
7.14716e-06
-2.14503e-05
2.61609e-05
-7.92156e-06
1.64968e-05
0.000131598
-0.000140173
2.81357e-05
-1.65386e-05
-2.85193e-05
1.69222e-05
7.27789e-05
-1.46344e-05
-7.19612e-05
1.38167e-05
2.44814e-05
-3.37222e-05
-2.71682e-05
0.000100688
-9.0641e-05
-2.25252e-05
1.2478e-05
9.51372e-06
-8.07213e-06
1.51711e-05
-1.66127e-05
3.14309e-05
5.69112e-05
1.23462e-05
-0.000164832
-9.7981e-05
7.83499e-05
0.000184463
4.76392e-05
3.5949e-05
-4.53745e-05
-3.82137e-05
6.1135e-05
-4.83533e-05
-6.17816e-05
4.89999e-05
1.81922e-05
3.49761e-06
-9.50474e-06
-1.2185e-05
-5.66547e-06
7.53041e-05
-6.96387e-05
-9.13723e-06
1.07545e-05
-6.07277e-07
-1.01e-06
2.71212e-06
-9.4853e-06
1.20945e-05
-5.32128e-06
1.91746e-05
7.88474e-05
-7.39592e-05
5.29938e-05
-4.88912e-05
-2.63861e-05
0.000206431
1.26356e-05
-0.00019268
2.44294e-06
-3.33766e-06
-7.63035e-06
8.52506e-06
6.48807e-05
-0.000103646
-9.33375e-05
0.000132103
-1.00338e-05
4.29084e-06
2.39351e-05
-9.90858e-06
4.18507e-05
-4.51811e-05
-6.81997e-06
-1.05586e-05
4.24085e-05
6.78634e-05
-9.97134e-05
-8.9162e-05
6.2776e-05
2.36074e-05
-7.33452e-05
6.74669e-05
-1.77291e-05
-2.61652e-05
-0.000192154
-5.38471e-06
6.1432e-06
2.94445e-05
-2.72731e-06
7.38503e-05
1.65592e-06
0.000121835
3.98141e-05
-9.67687e-05
4.89257e-05
-7.6575e-05
6.64588e-05
-3.88095e-05
6.36709e-06
-2.19577e-06
-1.44898e-05
1.03185e-05
-1.26426e-05
1.76423e-05
-1.80256e-06
-3.19712e-06
2.30645e-05
-5.29916e-05
-5.66097e-05
8.65368e-05
1.79584e-05
8.59846e-05
1.9241e-05
-8.27533e-06
-0.000121377
-0.000161848
5.15544e-05
0.00023167
7.09359e-05
3.19482e-05
-5.34828e-05
-4.94014e-05
9.21574e-05
-7.65643e-05
5.53428e-05
-7.22507e-05
7.94022e-05
5.39835e-05
-4.94227e-05
1.70192e-05
7.36791e-05
-4.12756e-05
-5.54374e-05
7.46871e-07
5.59332e-05
1.05731e-05
4.28421e-06
-6.32662e-06
-8.53069e-06
3.68937e-05
-4.9455e-06
-0.000123991
4.75868e-05
-8.84276e-05
4.68052e-05
-3.86814e-05
3.95154e-05
-9.42874e-06
3.57386e-06
-1.30176e-05
1.88725e-05
8.54087e-07
-2.38128e-06
-1.17933e-06
2.70653e-06
0.000163422
-0.000111208
0.000126822
-0.000179037
-6.58641e-06
4.94106e-06
-7.49188e-06
-1.78084e-05
0.000211276
-5.64813e-06
-0.000187819
1.03476e-05
-5.59644e-05
-7.63406e-06
5.32509e-05
-7.51054e-06
-3.1653e-06
3.0605e-05
4.1106e-05
-5.09138e-05
4.06288e-05
-3.0821e-05
-3.83616e-06
-3.97436e-06
5.55388e-05
-1.63629e-05
-6.38522e-05
1.13988e-05
6.88163e-05
4.63337e-06
-1.39659e-05
1.64797e-05
3.29114e-05
1.40149e-05
-1.90576e-06
3.63775e-05
-7.86757e-05
7.88845e-05
-3.65862e-05
-6.99163e-05
5.89577e-05
2.69575e-06
8.26288e-06
-1.83563e-05
-1.95148e-05
3.03605e-05
-7.72694e-06
2.09638e-06
-4.15718e-06
7.94613e-05
1.59188e-05
-1.39215e-05
-1.20612e-05
1.00638e-05
-2.52433e-05
1.48871e-05
1.66443e-05
-6.28815e-06
-1.41017e-05
-1.34336e-06
-2.9091e-05
1.85497e-06
2.7236e-05
4.33908e-05
-2.20657e-05
-2.13252e-05
-7.07054e-05
8.40345e-05
8.65994e-05
-9.99284e-05
-2.55569e-06
2.96952e-05
-3.09757e-05
7.96409e-06
1.06009e-05
-1.26851e-06
-1.90038e-05
1.13449e-05
8.51301e-06
4.57376e-05
-3.93155e-05
-5.47754e-05
-1.64232e-05
0.000159439
-0.000120484
-2.25311e-05
-7.08038e-06
1.36493e-05
-1.66027e-05
-2.72751e-05
-3.53806e-05
1.35414e-05
4.91143e-05
-5.92458e-07
-7.49278e-06
-2.38807e-05
5.25374e-05
4.30487e-05
-7.17054e-05
1.26413e-05
-2.18077e-05
-1.07797e-05
1.99461e-05
-5.79031e-05
-8.5053e-05
-6.95675e-06
4.2798e-05
6.00941e-06
5.10717e-05
9.59825e-06
-2.73921e-05
-3.32779e-05
-0.00025686
-3.34262e-05
8.85327e-05
-5.50322e-05
-5.04238e-06
1.48934e-05
1.14355e-05
3.95241e-06
0.000115954
-8.6749e-05
-8.11196e-05
5.1915e-05
-6.46992e-06
1.55931e-05
-9.12316e-06
-6.28066e-05
4.30417e-05
-2.96961e-06
2.27345e-05
-6.05545e-05
6.69012e-05
-0.000115096
6.72934e-07
4.3707e-05
-3.48662e-05
-1.1791e-05
8.37159e-06
-4.65272e-06
8.06888e-06
-7.06975e-06
-3.38042e-06
7.90023e-07
1.40536e-05
-1.73993e-05
0.000117779
-0.000147866
-0.000249143
0.000168744
0.000100386
-1.07036e-05
-4.91347e-05
4.80614e-06
3.93077e-06
-9.20786e-06
-1.61733e-05
-3.61132e-05
1.35668e-05
-7.07637e-05
-1.06424e-05
9.82081e-06
5.57065e-05
-5.25887e-05
2.04896e-05
-3.97392e-05
5.29726e-05
-2.88572e-06
1.98267e-05
4.05176e-05
-6.77476e-05
-0.000123933
-4.33545e-06
5.08142e-05
5.00448e-05
-4.79385e-05
-4.8336e-06
8.26559e-05
-0.000255702
-7.21982e-05
0.000245245
4.68352e-05
2.48825e-05
-2.48283e-05
7.42604e-05
-2.08806e-05
-9.993e-06
3.08736e-05
-3.84118e-05
2.73418e-05
1.10701e-05
2.94214e-05
-0.000116822
-4.76171e-05
5.96543e-05
4.36693e-05
1.2525e-05
-2.4897e-06
-3.9562e-07
3.31462e-06
5.60387e-05
-5.96798e-05
4.95476e-05
-5.20243e-05
6.21565e-05
-6.00821e-05
4.93281e-05
-7.74599e-05
-3.63534e-05
3.72383e-05
1.74896e-05
-4.8786e-05
-3.4144e-05
-2.05542e-05
3.76567e-05
-2.3062e-05
5.95949e-06
9.4384e-06
-8.93325e-06
4.46477e-06
-4.52468e-05
-2.20246e-05
1.80111e-05
-2.8946e-05
-4.80205e-05
5.01759e-05
2.79101e-05
6.89443e-06
3.72095e-05
-5.00658e-05
-3.4613e-05
-4.74604e-05
-3.62495e-05
-4.14568e-05
4.17543e-05
-1.0218e-05
9.92045e-06
-4.77675e-05
5.58583e-05
9.83284e-05
-5.13562e-05
-2.94827e-05
-5.35399e-05
2.31771e-05
9.80864e-06
6.01717e-05
-4.55048e-05
-1.24664e-05
-2.2005e-06
5.97906e-05
-1.57377e-05
-7.68832e-05
2.91462e-05
7.8341e-05
-3.0604e-05
-1.49772e-05
6.10871e-06
8.86852e-06
5.69894e-05
-4.92725e-05
-6.11997e-05
5.13624e-06
2.4689e-06
3.30511e-07
4.79826e-05
-1.31806e-05
-4.02687e-05
5.46672e-06
2.84193e-05
-4.3829e-05
-1.03017e-05
-5.06147e-05
7.9421e-05
4.36684e-05
1.47208e-05
1.06827e-05
7.30592e-06
3.19533e-06
-9.71122e-06
1.67699e-05
5.47732e-05
-2.78747e-05
2.38765e-05
-6.88996e-05
3.12189e-05
3.42933e-05
-5.52933e-05
-1.02189e-05
-1.68219e-05
-5.32913e-05
2.36012e-05
4.6512e-05
-0.000235332
3.46137e-05
-4.70411e-05
0.00024776
-3.14515e-05
5.62869e-05
1.15421e-05
-0.000104858
0.000156376
-0.000105752
5.42342e-05
2.71567e-05
-4.00163e-05
4.43978e-05
-3.15382e-05
-9.17785e-06
6.09099e-05
-5.9347e-06
-4.57973e-05
2.87871e-05
3.52703e-05
-5.53619e-05
3.81027e-05
1.01899e-05
6.41961e-05
-8.35638e-05
5.33252e-05
1.19299e-05
-5.77044e-05
7.11462e-05
-2.35649e-05
-3.56555e-05
5.07359e-05
-2.78659e-05
5.64725e-08
-6.42889e-05
-5.34979e-06
2.19708e-05
2.36964e-07
-5.07571e-05
1.56373e-05
-6.29801e-05
4.61582e-05
-0.000149857
0.000140174
9.68231e-06
8.02082e-05
-2.87006e-05
-7.49303e-05
1.19501e-05
2.4219e-05
-3.16366e-06
2.14055e-05
1.04879e-05
-2.4087e-05
-7.80643e-06
-4.92779e-05
2.57389e-05
-9.60583e-05
6.95497e-05
4.37703e-05
-6.19881e-05
1.65745e-05
-1.554e-05
2.03711e-05
-5.05443e-05
2.77005e-05
-1.40009e-05
5.53062e-05
7.46482e-05
-0.000254028
0.000129807
0.000279158
-0.000154937
3.62786e-05
-7.55845e-06
-7.81802e-05
4.94454e-05
-1.57864e-05
1.53465e-05
1.70144e-05
-7.23904e-05
-4.72943e-05
-0.000272798
-0.000113438
8.17965e-05
6.22848e-05
-9.47393e-05
-0.000432993
0.000121673
-2.88536e-05
-4.81538e-05
-8.62333e-06
9.62958e-06
3.66504e-05
1.77816e-05
-2.68414e-05
2.21615e-05
-1.31018e-05
4.34516e-06
7.44354e-06
-1.96789e-06
-1.96945e-05
1.84293e-05
5.75521e-05
-3.51429e-05
8.47514e-06
1.44887e-05
-2.37922e-05
1.08963e-05
-5.08061e-06
-2.40021e-05
-0.000117946
2.3719e-05
4.97047e-05
1.74576e-05
5.27788e-06
-2.69537e-06
-1.00218e-05
1.15379e-05
3.97255e-05
-4.40469e-05
-4.13864e-05
4.57077e-05
-6.27898e-05
1.88585e-05
5.93774e-05
-1.54461e-05
-2.15354e-05
-3.1563e-07
-4.2419e-05
6.427e-05
-6.36159e-05
-5.09753e-05
5.28166e-05
4.72517e-05
-4.9093e-05
-5.78426e-05
1.6341e-05
3.89121e-05
3.39474e-06
-3.28244e-07
-0.000299536
-0.000133129
5.32491e-05
2.90922e-05
-1.40985e-05
-6.82427e-05
-5.24645e-06
-2.38044e-05
-1.74631e-05
4.80846e-05
2.23511e-05
3.24538e-05
7.24093e-05
-7.93984e-05
-2.54647e-05
4.4162e-05
-0.000269383
0.000307877
-7.02306e-05
8.55867e-05
9.5951e-05
-0.000111307
-4.61337e-05
2.50476e-05
3.17104e-05
8.47866e-07
-1.75998e-05
9.94085e-06
-9.45672e-06
1.71157e-05
-3.96758e-05
-6.5019e-06
-3.78984e-06
7.84558e-06
2.44616e-06
4.51495e-05
-1.34358e-05
-6.69359e-05
1.03977e-05
7.0105e-05
-3.57974e-05
8.36089e-06
3.38147e-06
2.4055e-05
-1.73692e-05
1.87584e-05
-1.73034e-05
1.59142e-05
4.66432e-06
5.18977e-05
-2.30733e-05
2.0378e-05
0.000153187
0.000191794
6.04964e-05
-0.000255821
0.000229939
-6.01651e-05
1.13255e-05
6.80142e-05
5.48597e-05
-5.5124e-06
-7.84955e-06
1.47498e-05
2.2795e-05
-1.34901e-05
-2.64919e-05
2.4003e-05
-6.13445e-06
6.11876e-05
-6.70715e-05
-2.29697e-05
-3.72979e-05
0.000151493
3.771e-05
1.24643e-05
-5.05699e-05
5.34911e-06
-4.02607e-06
-4.30041e-05
2.58121e-05
-7.51673e-06
6.13707e-06
1.78593e-05
2.16467e-05
1.3697e-06
-2.59021e-05
5.727e-05
-4.59255e-05
-1.13445e-05
-2.73936e-05
3.85267e-05
-1.11332e-05
-0.000103713
9.47134e-05
8.99986e-06
-2.45979e-05
3.0171e-05
-5.57314e-06
8.35048e-05
-5.38706e-05
-2.96342e-05
1.1249e-05
-8.97757e-06
-2.27141e-06
-0.000107333
-6.77434e-06
0.000114107
2.80989e-05
-6.81173e-06
-2.12872e-05
6.00893e-05
-6.20149e-05
1.92557e-06
-1.94387e-05
-5.15915e-06
7.66353e-05
-7.09951e-05
-5.64026e-06
-1.14854e-05
-1.59082e-05
6.22708e-05
-5.00082e-06
-1.79071e-05
1.41402e-05
3.76686e-06
-0.000187155
5.47483e-05
-6.34679e-05
8.71963e-06
-0.000115254
7.19587e-05
-4.38598e-05
6.10523e-05
-9.63002e-07
-8.09464e-05
6.0945e-05
2.00014e-05
-3.74247e-05
-8.87282e-06
4.62975e-05
-0.000125629
2.19161e-05
0.000127324
1.285e-05
-8.62391e-05
8.7536e-05
-1.29693e-06
-2.54533e-05
3.99182e-06
2.14615e-05
5.41045e-06
-1.66846e-05
-6.32569e-06
3.49209e-05
-5.1646e-05
-3.42503e-05
5.03472e-05
2.34762e-05
5.23654e-05
-4.54465e-06
5.39543e-05
2.4303e-05
-2.01279e-05
-2.19983e-05
3.98475e-05
2.27862e-06
4.54464e-05
2.64467e-06
-2.43126e-05
4.18953e-05
0.000260501
0.000301846
-4.09746e-05
-3.87395e-05
5.43947e-05
-6.97222e-05
6.81441e-05
2.94115e-05
6.38497e-06
1.11876e-05
4.07656e-05
3.58697e-05
-4.28641e-06
1.75139e-06
2.53503e-06
-4.21246e-05
-7.25362e-06
-8.18978e-06
3.5599e-05
-1.42804e-05
1.207e-05
-8.3811e-06
1.23729e-05
0.000100216
-1.26797e-05
2.55879e-07
-7.30539e-05
2.05885e-06
-1.82971e-05
1.3767e-05
-4.3582e-05
-1.87488e-05
2.08415e-05
-1.54311e-05
-3.59979e-06
-2.36014e-06
8.56416e-06
1.48425e-05
3.83268e-05
-2.90744e-05
-2.40949e-05
-5.33474e-05
-1.56905e-05
6.59377e-07
-5.43014e-05
-3.81562e-05
-2.84244e-05
2.96472e-06
4.85028e-05
1.59866e-05
2.1051e-05
-1.43237e-05
-6.44318e-05
-4.27903e-06
2.95389e-06
-1.72782e-05
1.86033e-05
-1.97601e-05
1.76247e-05
-2.14364e-06
-3.01677e-05
6.01496e-06
8.38086e-06
1.57719e-05
-7.55416e-06
5.0989e-06
5.6506e-06
6.38428e-06
-8.79121e-05
0.000109743
-2.82151e-05
-1.77242e-05
-4.43938e-05
4.62615e-05
-9.70404e-06
7.75164e-06
-5.60176e-06
-2.40565e-05
0.000185232
-1.95209e-05
3.93707e-05
-1.77676e-05
-1.39423e-07
4.03341e-05
1.44142e-05
-3.83925e-05
5.51547e-05
-2.49519e-05
1.01817e-05
2.05541e-06
-7.1382e-06
2.85798e-05
4.22148e-05
4.77421e-05
-1.11369e-06
-5.18748e-05
-3.25219e-05
1.85225e-05
5.37249e-05
-1.06072e-05
-1.72612e-05
2.6251e-06
-0.000191632
-0.000282287
0.000219891
-4.43549e-07
1.84279e-05
6.09944e-06
-2.40838e-05
6.30009e-06
-4.57263e-05
-2.12106e-05
6.06368e-05
-2.97119e-05
3.41678e-05
1.16912e-05
-3.69942e-06
2.18995e-06
3.07824e-05
1.03156e-05
6.93357e-05
-0.000105984
7.90602e-05
-4.24121e-05
-3.63963e-06
8.92848e-06
1.7083e-05
-2.23719e-05
-1.46929e-05
-1.95869e-05
2.36726e-05
5.4449e-05
-1.34638e-05
-6.72849e-05
2.62998e-05
-3.53672e-06
7.74419e-06
-2.39676e-05
1.95682e-05
-2.67445e-05
-1.56876e-05
4.84748e-05
2.16618e-05
1.66213e-05
-1.36674e-05
-1.17292e-05
3.84207e-05
-3.54533e-05
-3.98713e-05
1.6505e-05
-2.23082e-05
4.56745e-05
-1.63045e-05
-3.5296e-05
3.37692e-05
-3.02585e-05
-1.98152e-05
-4.47438e-05
-1.57763e-05
5.09871e-05
1.01818e-05
-2.23902e-05
3.38512e-05
-1.8958e-05
2.20777e-05
-2.55099e-05
-4.31608e-05
-8.89659e-06
3.26569e-05
-2.57183e-05
-2.33645e-05
1.7092e-05
-8.42048e-06
4.34563e-05
-4.14157e-05
-3.08154e-05
2.87748e-05
0.000321422
-0.00027726
-4.90579e-06
2.76626e-05
2.06995e-05
0.000111949
3.18936e-05
-7.45071e-05
-4.12366e-05
-0.000168689
0.00010259
3.79758e-05
2.81234e-05
0.000147359
-0.00011184
-0.000172847
0.000137328
1.43382e-05
-7.8417e-05
6.40788e-05
2.40595e-06
-1.19399e-05
-5.43287e-05
-1.72157e-05
3.01287e-05
5.24632e-05
-5.76907e-05
-6.06915e-05
6.5919e-05
8.53294e-05
-0.000106659
-1.76055e-05
2.79559e-05
0.000101599
-0.000163014
6.39637e-05
-7.89931e-05
0.000178044
-0.00010307
4.82741e-05
-0.000108218
-2.00063e-05
7.15224e-05
-3.6764e-05
-1.4752e-05
1.91682e-05
7.11038e-05
-0.000103736
-8.63589e-05
5.7245e-05
9.10766e-06
0.000159089
-0.000183316
6.62148e-06
-4.27928e-05
3.46988e-05
6.05572e-05
3.26071e-05
-2.02245e-05
-3.37326e-05
2.13501e-05
4.55375e-05
2.48123e-05
-3.84562e-05
9.4476e-06
6.52049e-05
2.79374e-05
0.000149943
-3.20696e-05
-0.000220944
1.77626e-05
0.000138498
2.82858e-06
-4.20876e-05
1.91613e-05
2.29262e-05
7.00063e-05
3.34917e-05
-8.43299e-05
2.49909e-05
4.85025e-05
6.70864e-06
-3.92313e-06
-2.615e-05
-1.9201e-05
2.12946e-05
3.05135e-05
-4.31226e-06
5.97284e-05
2.06738e-05
-6.06643e-05
7.48596e-05
-7.54428e-06
-6.73153e-05
-2.49184e-05
1.02803e-05
9.73235e-06
2.97172e-05
-3.84467e-05
-3.57818e-05
1.11935e-05
-7.86311e-05
-1.71198e-05
9.57509e-05
-3.506e-05
7.54328e-05
-9.51476e-05
1.62714e-05
-1.7665e-05
-9.04416e-06
-3.2207e-05
5.38601e-05
-2.4771e-05
1.90925e-05
-7.89396e-05
8.42473e-05
3.58495e-05
-0.00024579
0.000202208
3.64467e-05
4.64717e-05
-4.92764e-05
-0.000116434
0.000134619
-5.35621e-06
7.03504e-05
-3.65997e-05
1.05756e-05
4.51167e-05
-5.11651e-05
8.79646e-05
3.91713e-05
-4.49711e-05
-0.000103086
0.000103224
-2.59062e-05
2.57686e-05
5.66111e-05
-2.62019e-05
4.24842e-06
4.7661e-06
-9.10825e-06
-3.22576e-05
-2.2056e-05
3.52706e-05
2.23286e-05
-0.000101672
1.9935e-05
-2.13497e-05
-5.14559e-06
1.68368e-05
-3.19224e-05
-4.22511e-05
0.000105661
2.09243e-05
-4.70212e-06
8.59012e-06
8.11599e-05
-6.30026e-06
2.74292e-06
-5.50743e-05
-1.22961e-05
4.61598e-05
1.06184e-05
6.35562e-06
-1.08746e-05
-2.61056e-06
2.02194e-05
-9.46752e-05
-2.72159e-05
-1.2806e-05
1.6979e-05
-2.1175e-06
-4.43693e-05
-7.76158e-05
7.41354e-05
-5.72111e-05
6.56381e-05
-7.0131e-05
-5.27203e-05
5.72131e-05
-8.74341e-05
0.000230758
1.53106e-05
-0.000182105
-3.91628e-05
-1.86779e-06
0.000145567
-2.66487e-05
4.09497e-05
6.66773e-05
-3.68411e-05
7.26274e-05
0.000106247
-6.73389e-05
-2.00219e-05
3.68686e-05
9.02043e-06
-1.84269e-05
4.66771e-05
5.83207e-05
-1.638e-05
4.38561e-05
3.70682e-05
-9.90016e-05
-4.40505e-05
6.01314e-05
-5.51088e-05
-1.13229e-05
0.000206678
0.000114744
6.84441e-05
0.000138234
1.38577e-05
1.05461e-05
-5.80046e-06
2.21005e-06
-1.46705e-05
1.19018e-06
8.08823e-05
1.15601e-05
-7.2223e-05
-5.39017e-05
5.31776e-05
5.4449e-05
-1.11952e-05
7.87611e-06
-5.00402e-05
-9.15007e-05
-8.81378e-05
7.00276e-05
2.59015e-05
-1.96476e-05
-5.42555e-05
5.08815e-05
-3.44598e-06
-2.93521e-05
-3.49781e-06
1.0534e-05
-1.67963e-05
-1.63673e-06
-1.47736e-05
1.5452e-05
-2.20545e-05
-3.18537e-05
8.66388e-05
-1.56887e-05
-4.02368e-06
-7.26882e-05
-2.5426e-05
8.09336e-05
5.7623e-05
-2.72732e-05
-0.000131317
2.28441e-05
0.000135746
-5.94934e-05
-4.76915e-05
-5.0093e-06
4.04047e-05
-1.85261e-06
9.48278e-06
-1.27455e-06
-6.82736e-06
8.73737e-05
-8.94796e-05
-5.96538e-07
-6.92495e-06
-1.2394e-05
-1.14213e-05
8.61986e-06
1.51955e-05
-1.17477e-05
4.50489e-06
5.39948e-06
0.000137355
-0.000174824
-7.49247e-05
-1.04341e-06
2.14243e-05
-2.31395e-05
1.66449e-05
-2.95232e-05
-0.000103901
0.000109097
-2.34088e-05
-4.57902e-05
4.85097e-05
2.06893e-05
-5.44421e-06
-1.34228e-05
9.41025e-06
-1.11918e-05
-1.56586e-06
-0.000166504
-1.66092e-05
0.00015584
-9.43476e-06
-2.44113e-05
-1.67919e-05
-5.48717e-05
2.10714e-05
2.30253e-05
-1.22673e-05
-3.9704e-05
-7.06198e-05
-9.02062e-05
-9.05757e-06
-0.000115875
4.85016e-06
-1.04488e-05
9.82193e-05
-9.26207e-05
5.47285e-05
-9.00019e-05
8.96681e-05
-6.8732e-05
-7.20188e-05
-4.79845e-05
5.14735e-06
-6.1491e-06
-0.000102623
-5.30968e-05
5.57916e-05
-5.93633e-05
2.94012e-05
-2.27581e-05
-1.94248e-05
3.59758e-05
-1.6551e-05
-8.5081e-05
2.78378e-05
-9.64602e-05
-6.10849e-05
-7.21245e-05
-5.59708e-05
2.98189e-06
-5.73204e-06
-1.31493e-06
4.06508e-06
1.42975e-05
-2.65767e-05
5.40335e-05
-1.51781e-05
1.34258e-05
2.54249e-05
-1.21926e-05
-9.2084e-05
3.62334e-05
0.000100826
-2.32218e-05
6.70203e-05
7.49223e-05
5.06135e-06
7.08538e-05
-6.73484e-05
-8.56674e-06
-4.33014e-05
3.53949e-05
-8.00056e-05
-2.12012e-05
1.46998e-05
-2.6343e-06
9.13571e-06
-3.95139e-05
1.74482e-05
2.84827e-05
-2.66278e-05
-5.73089e-05
1.12753e-05
7.85404e-05
-1.87963e-05
4.00773e-05
3.66534e-06
6.86284e-06
-2.26656e-06
6.0046e-06
3.35854e-05
1.0155e-05
-1.44715e-05
5.9022e-05
-4.87936e-05
6.1294e-05
-4.3425e-05
1.11473e-07
3.83042e-05
-1.60232e-05
1.5439e-05
1.00669e-05
1.30608e-06
-6.06053e-05
-1.7584e-05
2.24288e-06
9.21556e-05
-2.18279e-05
2.05082e-05
1.91013e-05
2.45449e-05
-2.3078e-05
-6.18137e-05
5.43914e-05
-0.000114345
1.00888e-05
0.000176581
4.22164e-06
-9.81591e-05
-8.26438e-05
1.1615e-06
6.32189e-05
0.000273025
-0.0002678
-7.46189e-05
3.94168e-05
0.000123304
-0.0002492
6.69808e-06
-1.00076e-05
-3.19237e-06
3.61568e-05
-4.27561e-05
-7.84816e-05
0.000166577
-7.48818e-05
-3.10875e-05
1.15127e-05
-1.87083e-05
4.3634e-05
2.23259e-05
-1.64348e-05
-4.38654e-06
3.45217e-06
-4.55412e-05
-2.43651e-05
3.41089e-05
-3.25941e-05
2.13916e-05
-4.64754e-05
-9.26913e-06
5.57445e-05
1.22858e-05
-2.57969e-05
3.58622e-05
2.12488e-05
7.50568e-05
-2.54518e-05
-4.36616e-05
3.35898e-05
-3.32798e-05
1.76486e-05
2.54137e-05
-2.34765e-05
-2.59159e-05
1.38115e-05
9.72306e-06
2.11693e-05
-2.06121e-05
1.3912e-05
-1.92106e-05
1.01925e-06
8.90417e-05
2.37275e-05
-0.000101494
-2.21189e-05
1.56489e-05
4.12541e-06
-4.31532e-06
-1.06964e-05
-7.79532e-06
-2.46549e-05
-1.74742e-05
4.53029e-05
-2.31376e-05
4.11618e-06
-1.89963e-05
-1.38319e-05
-9.86859e-05
-4.722e-06
0.000153101
-0.000120801
0.000105028
-2.92028e-05
-1.81673e-05
-5.82162e-05
-1.08161e-06
-5.5923e-05
0.000109989
3.49754e-05
-8.55776e-05
8.23309e-05
-4.58463e-05
0.000245197
-1.15117e-05
-1.67799e-06
-0.000232007
-2.18676e-05
-6.10365e-06
1.06148e-05
-6.9934e-06
2.17923e-05
5.28735e-05
-3.7153e-05
-1.64408e-05
2.64467e-05
9.29147e-05
-2.11413e-05
3.92776e-05
3.93779e-06
-9.45056e-06
0.000164519
-5.1648e-05
-1.88432e-06
2.10532e-05
-2.10594e-05
-1.65459e-05
-9.08747e-05
5.86792e-05
-6.23434e-06
1.89216e-05
3.33682e-05
-3.37033e-05
-4.05972e-06
-1.04996e-05
0.000156191
-3.87134e-05
1.25305e-05
1.70284e-05
2.52564e-05
-3.95134e-05
-2.77142e-06
7.84098e-06
3.29891e-05
-3.39387e-05
-6.89145e-06
4.58278e-05
-1.09777e-05
6.82749e-06
-1.98882e-05
-2.59995e-05
7.10015e-05
-8.37639e-05
-1.77004e-05
3.04629e-05
-3.90775e-06
-3.61683e-05
1.7565e-05
2.25111e-05
9.62295e-05
1.5066e-05
-9.87233e-07
-1.74427e-05
2.07544e-05
-1.53237e-05
3.86065e-05
7.71673e-05
-4.0717e-05
1.43218e-05
-5.4124e-06
1.59491e-05
-1.86384e-05
-5.21006e-05
-5.08574e-05
5.74169e-05
6.68808e-05
3.88866e-05
-6.45166e-05
-2.29635e-05
3.01598e-05
4.69462e-05
3.04935e-06
-2.51751e-05
4.31085e-06
-7.16369e-05
0.000102251
-8.49427e-05
-1.73086e-05
-0.000167243
2.1208e-05
1.66603e-05
-1.86207e-05
-3.24578e-05
9.41528e-05
8.70712e-05
-2.64002e-05
1.5074e-05
6.25985e-05
-5.77044e-05
1.9951e-05
-3.66443e-05
5.66065e-05
2.10668e-05
-1.34808e-05
2.43007e-05
1.77599e-05
2.60321e-06
-1.22112e-05
-1.7387e-05
3.09006e-05
-0.000154009
-4.12543e-05
6.2557e-05
4.25466e-05
1.45847e-05
-4.4069e-06
4.19794e-05
3.21776e-05
-1.15905e-05
-3.01025e-05
-0.000102203
3.59987e-05
3.18088e-05
3.88282e-05
2.21169e-05
-6.17795e-05
1.97918e-06
6.31149e-05
3.17237e-05
2.28827e-05
1.38274e-05
-2.24348e-05
4.90544e-05
-7.62585e-05
-3.49193e-05
-9.9725e-05
7.96679e-05
-1.60388e-05
-1.59434e-05
-9.91936e-06
5.55381e-06
2.03089e-05
8.63191e-06
-1.68604e-05
6.87222e-06
-6.52002e-05
9.82043e-06
2.99064e-05
1.44725e-06
1.23695e-05
-2.4056e-05
-4.78072e-05
-2.52614e-06
3.62316e-05
2.25042e-05
1.53981e-05
-1.78779e-06
-4.72125e-07
2.25991e-06
-5.69554e-06
0.000265286
3.16549e-05
-5.96806e-05
-0.00023726
-2.66789e-06
-1.66138e-05
1.09183e-05
-5.02655e-05
-0.000136889
6.84315e-06
1.86468e-05
1.88605e-06
-4.55394e-06
-1.41527e-05
-2.46115e-06
-4.55852e-05
2.31723e-05
2.24129e-05
0.000159863
-8.35178e-05
-7.63453e-05
7.57628e-05
-4.22045e-05
-7.22978e-05
5.6044e-06
5.01039e-06
-5.88674e-05
3.34838e-05
5.81293e-05
-3.27456e-05
-3.79986e-05
-5.85232e-05
5.11307e-06
-3.37433e-05
3.53998e-05
-0.00010428
-7.27171e-06
1.33135e-05
-6.04183e-06
1.24881e-05
1.74438e-05
9.04809e-06
2.36313e-06
-1.36778e-05
1.62548e-05
0.000180382
7.85429e-05
0.000208124
-0.000139256
0.000142653
1.8358e-05
-9.16324e-05
-4.65174e-05
-1.3625e-05
-1.7259e-05
-4.25902e-06
2.02624e-06
1.88551e-06
-3.91176e-06
2.93556e-05
3.22382e-05
-4.59448e-05
9.01466e-06
-3.42957e-06
-2.38112e-05
3.61788e-05
5.89161e-07
-5.1219e-05
4.52672e-07
-1.81745e-05
-1.33531e-05
-5.24547e-06
-8.05007e-05
1.4229e-05
9.41537e-05
-2.7882e-05
-2.46534e-05
2.24262e-05
2.37818e-05
-2.15546e-05
9.75706e-05
-0.000132814
0.000102819
-8.77911e-05
7.93588e-05
-5.9869e-07
1.31975e-05
2.56247e-06
-7.91902e-06
-1.26389e-05
1.37206e-05
1.21198e-05
-2.31393e-05
-5.39583e-05
-4.17113e-05
5.34184e-05
-0.000387137
0.000186455
-2.33032e-05
9.41235e-06
-5.29053e-06
4.68538e-06
-9.24106e-05
9.74676e-05
-1.36237e-05
-3.39963e-06
3.75881e-05
-9.68374e-06
-2.79044e-05
7.66796e-05
3.64428e-05
-4.21209e-05
3.38239e-05
1.57816e-05
-4.12447e-05
-3.37779e-06
1.43084e-05
7.82774e-06
2.83396e-05
-3.77256e-05
-7.20271e-05
3.28824e-05
2.72889e-05
-0.000167315
2.12363e-05
1.41646e-05
-5.56439e-05
-2.99159e-06
-3.85373e-05
-3.59869e-05
1.688e-05
-8.43114e-05
-1.22698e-06
-2.55772e-05
1.30907e-05
-4.05669e-05
-2.83029e-05
0.000130554
7.20973e-05
-8.93596e-05
-7.96389e-05
-2.76697e-06
6.2885e-05
9.95012e-05
-2.74854e-05
1.79605e-05
-2.44419e-05
-0.000302927
0.000322485
1.60899e-05
2.27383e-05
5.58264e-05
6.9939e-05
-0.000103444
0.000105603
-7.65359e-05
-1.33966e-05
1.11942e-05
-9.59649e-06
2.61191e-06
-7.07137e-05
-0.000100382
0.000125855
-0.000105044
7.7525e-05
-4.70697e-05
7.33795e-05
-2.1731e-05
-2.23368e-05
2.85278e-05
-2.37398e-05
-5.23772e-06
-7.59366e-05
8.07868e-05
-7.12414e-05
-4.69521e-06
2.14528e-05
-4.64676e-05
-0.000109564
0.000134579
2.40344e-05
1.32732e-06
-1.65553e-05
2.82443e-05
3.0133e-06
-1.47023e-05
5.32275e-05
-0.000107306
6.81769e-05
-1.40981e-05
-2.00749e-07
-2.79684e-05
-3.47712e-05
-9.60624e-05
-1.70864e-05
-7.9932e-05
-3.88188e-06
0.00010573
-7.23195e-05
-3.22348e-06
-6.99075e-06
1.38726e-05
1.10786e-05
3.27991e-07
1.69813e-05
2.33527e-05
-5.98725e-06
-1.17804e-05
-8.59573e-06
-5.01018e-06
-2.9494e-06
-5.9766e-05
4.21446e-05
-0.000182562
0.000122609
-5.21335e-05
2.68835e-05
3.32221e-05
-2.0691e-05
-1.64543e-05
5.44688e-05
5.80495e-05
-3.60337e-05
2.94375e-05
2.36246e-05
1.06185e-06
-1.08483e-05
-2.69132e-05
-6.38322e-05
6.00702e-06
8.44543e-05
3.88506e-05
-2.40962e-05
-2.97745e-05
-0.000110637
4.84827e-05
4.32845e-06
2.42367e-05
-3.85788e-05
-3.77913e-05
-3.65307e-05
-4.54648e-05
-1.34357e-05
-7.62682e-05
1.25036e-05
1.37606e-05
-1.111e-05
2.55302e-05
-6.78388e-06
-7.04992e-06
4.2373e-06
1.44852e-05
1.99479e-05
1.78465e-05
-9.10008e-05
5.93807e-05
-5.18438e-05
-8.74689e-05
2.4815e-06
-4.06377e-05
8.25476e-05
3.21077e-05
-1.30985e-06
0.00010354
-2.66954e-05
-2.29462e-05
1.45499e-05
-4.88477e-05
5.66775e-06
-5.81772e-05
0.000237597
0.000271343
3.42373e-05
2.22321e-05
-3.01696e-05
1.12934e-05
-3.18415e-05
8.51117e-05
-6.34225e-05
3.27478e-05
-5.30797e-05
4.48857e-05
2.49815e-06
8.7921e-06
-1.59217e-05
-1.44362e-05
1.39614e-05
-4.27367e-06
1.9656e-05
1.16624e-05
-2.70447e-05
-3.35557e-05
5.17589e-05
-3.28642e-07
-1.37468e-05
-3.92302e-06
1.65847e-05
-2.88126e-05
0.000190018
0.000185742
-6.78826e-05
-9.86478e-05
6.94801e-05
3.14106e-05
-0.000123137
2.51594e-05
-0.000105551
7.24307e-06
-1.99823e-05
2.27236e-05
5.79343e-05
3.30449e-05
7.16842e-05
-5.42671e-06
-4.16731e-05
-2.3909e-05
2.13383e-05
2.25186e-05
-5.07942e-06
9.52077e-06
-9.47171e-06
8.82785e-05
-8.49106e-05
5.91882e-05
-5.64323e-05
-4.36894e-05
-4.98516e-05
-1.34173e-05
0.000154126
1.22263e-05
2.92436e-06
-8.05995e-05
4.44395e-05
3.61599e-05
-1.39118e-05
4.4794e-06
-7.64842e-06
3.16902e-06
3.39433e-06
-3.88711e-05
4.00146e-05
6.94344e-05
-2.25947e-05
2.27101e-05
-2.69118e-05
1.11699e-06
-3.61933e-05
7.25771e-05
-7.95908e-05
9.24523e-05
0.000116984
-2.50008e-05
-3.46646e-06
3.50601e-06
2.92228e-05
-2.59829e-05
-3.92617e-06
-0.00013123
-5.27823e-05
6.54913e-05
-5.02941e-05
0.000264524
-1.96561e-05
-2.51195e-06
7.12273e-06
-1.07687e-06
2.60448e-05
-2.7882e-05
2.54383e-05
-4.08762e-05
3.57872e-05
5.08901e-06
-4.09828e-05
1.06531e-07
3.71887e-05
-2.9951e-05
-7.23776e-06
-3.79404e-06
0.000140265
-0.000160589
2.03242e-05
0.000106208
3.40567e-05
-0.000160353
-0.000146551
-1.38014e-05
2.74411e-05
-0.000141913
-4.63818e-06
-0.000145069
3.15546e-06
1.80302e-05
9.41088e-06
1.0085e-05
3.85063e-06
3.66384e-05
7.52795e-05
-9.42445e-07
4.79307e-06
3.53695e-06
-4.78429e-06
3.15263e-05
1.77244e-05
-1.6555e-06
8.80465e-06
6.8349e-05
2.89988e-06
-7.12489e-05
-0.00014332
-2.41881e-05
4.25344e-05
-3.70952e-05
3.16255e-05
-9.77397e-06
1.69991e-05
-1.00484e-05
1.7654e-05
2.36133e-05
6.28737e-06
3.23064e-05
-4.19958e-06
0.000126382
-3.00788e-06
3.05319e-06
-3.85242e-05
5.63256e-05
-1.78014e-05
2.03163e-05
-2.86693e-05
-7.31758e-06
-0.00012421
0.000119357
-6.96293e-05
8.88266e-06
4.66481e-05
-2.23582e-05
-1.6166e-05
1.83167e-05
4.25387e-06
-2.60127e-06
2.97955e-05
-0.000132919
-1.04005e-05
-4.907e-05
-1.55026e-05
3.3485e-05
3.62664e-05
0.000208289
0.000165593
0.000160189
-1.87821e-06
-2.73203e-05
1.58438e-05
-2.01764e-05
-1.0298e-05
-7.71783e-05
7.31959e-05
4.43136e-05
-2.59968e-05
1.72822e-05
2.76886e-05
5.18193e-05
1.53636e-05
0.000177315
-0.000180043
4.45651e-06
2.06088e-05
7.57074e-05
-1.93818e-05
-0.000116153
-1.67663e-05
9.38993e-05
-2.6023e-05
1.3103e-05
-1.1468e-05
-6.17792e-05
-0.000139479
-0.000247829
9.47004e-05
-1.8993e-05
-8.40782e-06
-2.98798e-05
-1.60477e-05
5.64511e-05
4.02718e-05
-8.17406e-05
0.000221637
-5.25873e-05
-1.32543e-05
3.60411e-05
-5.6806e-06
-6.05488e-06
1.4847e-05
-7.77783e-06
2.08809e-05
5.71657e-05