/*--------------------------------*- C++ -*----------------------------------*\
| =========                 |                                                 |
| \\      /  F ield         | OpenFOAM: The Open Source CFD Toolbox           |
|  \\    /   O peration     | Version:  v1912                                 |
|   \\  /    A nd           | Website:  www.openfoam.com                      |
|    \\/     M anipulation  |                                                 |
\*---------------------------------------------------------------------------*/
FoamFile
{
    version     2.0;
    format      ascii;
    class       surfaceScalarField;
    location    "0.39";
    object      phi;
}
// * * * * * * * * * * * * * * * * * * * * * * * * * * * * * * * * * * * * * //

dimensions      [0 3 -1 0 0 0 0];
oriented        oriented;


internalField   nonuniform List<scalar> 
11117
(
-3.40306e-05
3.7299e-05
1.71254e-05
-2.03937e-05
3.29425e-05
0.000181255
-2.43866e-05
-0.00018981
-7.4022e-05
9.5398e-05
-4.75547e-06
-1.66206e-05
-0.000543304
-1.26981e-05
0.00025385
0.000302153
0.000260845
0.000360658
-0.000264801
-0.000356702
-2.98485e-05
5.40044e-06
-0.000138354
0.000162802
-0.000785377
-0.000120545
0.00066577
0.000240153
0.000246238
9.14623e-06
-0.000196587
-5.87973e-05
0.00124503
0.000244592
-0.000889217
-0.000600403
0.000412433
-0.000338021
4.88333e-05
-0.000123246
-0.000883112
0.000955762
0.000304305
-0.000376955
-6.40982e-05
-0.000166891
7.02891e-05
0.0001607
-0.000551463
-0.000218532
0.000334205
0.000435789
0.000501443
-0.000783724
0.00045928
-0.000176999
2.54006e-05
-3.6543e-05
8.54426e-05
-7.43003e-05
-4.79455e-05
3.5332e-05
-5.57156e-05
6.83291e-05
-0.000140834
0.000380107
-1.40233e-05
-0.00022525
-0.000706641
0.000798485
0.000642296
-0.00073414
0.000135632
-1.14438e-06
-0.000109087
-2.78212e-05
1.47428e-05
9.84671e-05
-8.53886e-05
-0.000337221
0.000181493
5.83211e-05
9.74068e-05
-1.40845e-05
1.2329e-05
8.85517e-05
-8.67962e-05
0.00069522
0.000533237
-0.000503809
-0.000724648
-0.000105977
-0.000125764
0.000140471
9.12697e-05
6.22256e-05
5.29653e-05
-0.000118175
2.98403e-06
0.000852736
-0.000881869
0.000303309
-0.000274176
0.000266985
-0.000324874
0.000861652
-0.000803763
-0.000327577
0.00038043
-0.000474442
0.000421589
0.000180365
-8.40344e-05
0.000995291
-0.00109162
-3.05988e-05
1.74059e-05
-2.23469e-05
3.55397e-05
-8.42316e-05
0.000247217
-9.48466e-06
-0.000153501
-3.7713e-05
-0.000203739
0.000162666
7.87863e-05
-0.000116713
-0.000448108
0.000376292
0.000188528
0.000193735
3.3159e-05
-0.000110911
-0.000115983
0.000331487
-9.03088e-05
4.84924e-05
-0.000289671
-0.0002327
6.4464e-05
3.39771e-05
0.000134259
0.000595047
-0.000817331
0.000997358
-0.000775075
3.46103e-05
-0.000147199
1.99762e-05
9.26128e-05
0.000640062
-0.000173527
-0.000798028
0.000331494
0.000261381
0.000237185
-0.000291465
-0.000207101
9.03577e-05
1.74419e-05
-6.09752e-05
-4.68245e-05
-0.000136265
-0.000114721
0.000117494
0.000133492
0.000990091
0.00087125
-0.000875361
-0.00098598
-6.78446e-05
2.77796e-05
-1.77268e-05
5.77918e-05
-4.86422e-05
0.000170465
1.38093e-05
-0.000945629
0.000748028
-0.000226812
0.000424412
-0.000416016
0.000303005
-9.04691e-05
0.000203481
0.000332422
-0.00039858
0.000219521
-0.000153364
-0.000258674
0.000272815
-0.000181658
0.000167518
-0.000129834
-3.86071e-05
0.000168442
4.69641e-05
1.66107e-05
-6.35749e-05
-0.000353895
-0.00115605
0.000523899
0.000986047
4.60401e-05
2.57561e-05
7.64378e-05
-0.000148234
-6.54717e-05
6.5896e-05
9.46831e-05
-9.51074e-05
1.57814e-05
-1.57814e-05
0.000423996
0.000175743
-0.000554606
-4.51328e-05
0.000155727
8.96963e-05
-0.000219662
-2.57613e-05
-0.000178973
-9.65447e-05
0.000251996
2.35223e-05
0.000870583
0.000113236
-0.00134392
0.000360097
-0.000426866
0.000715518
0.000564083
0.000849289
-0.000862862
3.92407e-05
-2.56676e-05
0.000177049
-9.30977e-05
-8.22312e-05
-1.72015e-06
-0.00012264
-0.000132127
0.000170536
2.8376e-05
-2.58774e-06
-6.35013e-05
0.000110819
-3.74601e-05
-0.000190072
-4.6259e-05
-0.000169535
0.000138938
7.68559e-05
9.67916e-05
-8.18234e-05
2.59668e-05
-4.09351e-05
7.52077e-05
-0.000204998
0.000129791
-0.000597084
-0.000341358
0.000434401
0.000504041
3.12557e-06
4.64841e-05
1.17144e-06
-5.07811e-05
0.000490219
-0.000149524
-0.000694589
-0.000156839
0.000149772
0.000103859
-0.000280168
-0.00128905
0.00133094
0.000238276
4.3915e-05
-6.66075e-05
-7.57894e-06
3.02715e-05
-0.000717282
-0.000586443
-0.000244663
0.000128293
0.000334132
-0.000217763
0.000150401
-4.7183e-05
-0.000103218
-0.000856823
-0.00016516
0.000140114
-6.80082e-05
8.1328e-06
-7.96921e-06
-7.38424e-05
-1.29908e-05
8.68332e-05
2.1507e-05
2.97688e-05
-5.467e-06
-4.58088e-05
9.87771e-05
2.02078e-05
1.08247e-05
-0.00012981
7.99008e-07
6.74653e-05
-0.000148534
8.02696e-05
-0.000315165
0.000368665
0.000268996
-0.000322497
-8.85623e-05
-0.000203078
0.000176015
0.000115626
6.6932e-05
-0.000534843
0.000467911
-8.91176e-06
-0.000538989
0.0005479
3.16369e-05
-0.000489261
0.000457624
9.4683e-05
-2.48538e-05
-3.98312e-05
-2.9998e-05
-0.000134284
0.000142913
0.000372357
-0.000380986
0.000524884
-0.000156583
7.96418e-05
-0.000447943
0.000658547
5.11179e-05
-5.12877e-05
-0.000658377
0.000781242
-6.06941e-05
6.29681e-05
-0.000783516
-0.000701956
3.81853e-05
-2.72592e-05
0.000691029
-0.000662797
5.76908e-05
-2.59699e-05
0.000631076
2.12798e-06
0.000209594
-0.000302112
9.03903e-05
0.000587033
2.20646e-05
-2.23259e-05
-0.000586772
0.000750134
4.96185e-05
-3.58367e-05
-0.000763916
0.000630228
4.48383e-05
-2.40635e-05
-0.000651002
0.000821119
5.60333e-05
-2.78634e-05
0.000406646
7.84039e-05
-0.000426034
-5.90155e-05
-7.04478e-05
5.15773e-05
1.04594e-05
8.41113e-06
0.000303475
-0.000375279
-0.00115237
0.00122418
0.000708401
0.000520601
-0.000795493
-0.000433509
1.18361e-05
-0.000179494
0.000122854
4.48039e-05
-0.000958672
0.000293743
0.000888491
-0.000223563
3.86129e-05
-5.3181e-05
0.000135824
-0.000121256
2.24685e-05
1.05227e-06
3.07002e-05
-5.42209e-05
-0.000228878
4.91995e-06
8.96439e-05
0.000134314
-6.19983e-05
1.56421e-06
-7.57411e-06
-0.000313039
0.000154866
0.000156234
1.9396e-06
6.34563e-05
0.000117859
-7.62687e-05
-0.000105046
-0.000419408
0.00034362
-0.000194797
0.000270586
-3.38375e-05
4.51936e-05
3.39827e-05
-4.53388e-05
0.000108434
0.000564379
-0.000648502
-2.43118e-05
0.00011951
0.00065427
-0.000736961
-3.68197e-05
1.98354e-05
-1.35568e-05
-2.2163e-05
1.58845e-05
-0.000568161
0.000525398
0.000973096
-0.000930333
3.27524e-05
-1.83143e-05
-0.0008773
-0.00103689
9.35128e-05
0.000959141
-1.57666e-05
0.00103939
-0.000731763
-0.000875788
0.000104352
-8.04559e-05
-2.38959e-05
0.000135641
-0.000143802
0.000198456
-0.000190294
-0.000318709
-0.000253531
0.000100868
-9.77265e-05
-9.59289e-05
9.27877e-05
-0.000362137
0.000413669
0.00063311
-0.000684642
-0.000274615
0.000355272
-0.000276428
0.000195771
1.3031e-05
0.000150519
-0.000138165
-2.5385e-05
0.000562765
-0.000853151
-0.000108711
0.000399097
5.10591e-05
-5.51293e-06
4.75026e-06
-5.02964e-05
-0.000117999
0.00028895
-4.94751e-05
-0.000121476
0.000227355
-5.52042e-05
-0.000221781
4.96301e-05
7.41932e-05
-9.8085e-05
-2.22874e-05
4.61793e-05
-0.0008158
0.000103883
-0.000144906
-0.000315365
0.000279446
-0.000732216
0.000768134
8.14306e-06
-1.06912e-05
-3.39948e-05
-0.000434029
4.04588e-05
8.82015e-06
0.00038475
5.37399e-05
0.000147977
-2.46676e-05
-3.9339e-05
-2.04585e-05
1.58918e-05
4.39057e-05
-2.62229e-06
0.000124681
5.40254e-05
-0.000176084
-7.93446e-05
-0.000190665
0.000118795
0.000151215
0.000296915
-0.000661029
0.000713615
-0.000349501
0.000139017
-0.000124138
0.000113926
-0.000128806
0.000847812
-0.000274135
-0.000474654
-9.90226e-05
-4.5135e-05
-1.40979e-05
2.30541e-05
3.61788e-05
-6.60004e-06
0.00039417
-0.000145823
-0.000241747
0.000321243
-0.000182173
-3.42967e-06
-0.00043943
0.000984848
-0.0005655
2.0082e-05
0.000147311
0.000230101
-0.000221269
-0.000156142
-0.000351248
0.000562682
0.000105717
-0.000317151
0.000912794
0.000442335
-0.000603931
-0.000751199
-5.25376e-05
3.39671e-05
3.23501e-06
1.53355e-05
-0.000532305
-9.7404e-05
-0.000328962
9.4156e-05
-0.000170092
-9.60531e-05
0.000171989
-0.000617743
-0.000385011
0.000632002
0.000370752
0.000402094
-0.000113409
-0.000288685
0.000324897
1.03111e-05
6.95356e-05
-7.98467e-05
0.000968813
-0.00023267
-0.000736143
-5.3952e-05
-0.000250151
0.000104088
0.000146063
9.84547e-05
-0.000593954
0.000495499
0.000354563
-0.000503823
0.00014926
-9.94722e-05
0.00056427
-0.000464798
-0.000461081
0.000524683
-6.3602e-05
-0.000460968
0.000458953
2.01538e-06
-0.000303902
-7.76787e-05
0.00038158
0.000379081
5.41654e-05
-0.000433247
-0.000300936
-1.21033e-05
7.79612e-05
-1.45048e-05
4.20566e-05
-6.87067e-05
2.66501e-05
0.000210805
0.000188909
-0.000399714
0.000179291
-0.000258395
7.91039e-05
-0.000211479
0.000277227
-6.57483e-05
-0.000163035
0.000263205
-0.00010017
-0.000765937
0.000947858
-0.000181921
-9.66876e-05
6.38216e-05
3.2866e-05
-2.65239e-05
-7.43661e-05
0.00010089
0.000184022
-0.000390062
0.00020604
0.000933275
-0.0010198
8.65255e-05
-0.000291933
0.000299461
-7.52791e-06
-6.73024e-05
0.000122217
-5.49149e-05
0.000290717
-0.000319865
2.91476e-05
-0.000268649
0.000314026
-4.53761e-05
-6.40277e-05
0.000152064
-8.8036e-05
-0.000157875
-0.000120413
0.000278288
-9.59769e-05
2.5529e-05
-0.000226588
0.000143102
8.34862e-05
-0.00035665
0.000295244
6.14058e-05
-1.09238e-06
5.26697e-05
-0.0002142
-0.000668913
-0.000162497
-4.12416e-05
-0.000361195
-8.69125e-05
0.000298073
-5.08555e-05
0.000345345
-0.00011799
-4.63386e-05
-7.16604e-05
-0.000217437
5.66757e-05
0.000160762
-0.000558801
0.000133493
0.000425308
-0.000124966
0.000123821
-0.00106906
0.00137254
0.000717062
-7.76097e-06
-0.000709301
-0.000952052
-0.000203999
0.000133573
0.000198849
-0.000111572
1.96866e-05
9.18855e-05
-0.000354592
-6.14244e-05
-0.000801685
-0.000143944
0.000174367
-0.000290129
0.000115762
3.17556e-05
-1.35284e-05
1.42485e-05
-3.24757e-05
-0.000140285
7.10387e-05
0.000588221
-0.000518974
-0.000843228
0.000863628
0.000619365
-0.000639764
-3.3609e-05
1.01441e-05
5.80389e-05
-3.4574e-05
-0.00116692
0.00112463
-5.17474e-05
9.40325e-05
-0.000213379
0.000181477
-6.75702e-05
0.000478577
-0.000395898
1.57763e-05
-0.000274621
0.000390901
0.000251787
-0.000368067
-7.6145e-05
8.87202e-05
-8.5932e-05
7.33568e-05
0.00024014
-0.000292433
-0.000510187
0.000562481
-0.000124265
0.000129096
6.93621e-05
-0.000205945
5.0855e-05
0.000599017
-0.000443927
0.000778778
-0.000677072
-0.000185345
8.36385e-05
-0.00137788
-3.47547e-05
0.000245715
0.000276975
-0.00034405
7.48429e-05
-7.76742e-06
0.000251092
7.14394e-07
-4.2497e-05
-0.000209309
0.00076534
-0.000210536
-6.48529e-05
-0.000489951
-0.000368986
-0.000263732
4.46047e-05
0.000588114
-9.39516e-05
5.8753e-05
0.00120208
-0.00116688
-7.58022e-05
1.54198e-05
6.03824e-05
4.97457e-05
-0.000190668
-6.65354e-05
0.000207457
6.51986e-05
2.09878e-05
-9.21456e-06
-7.69719e-05
6.62103e-05
-7.02288e-05
2.16091e-05
-1.75906e-05
-8.08439e-05
0.00014569
-0.000209322
0.000144476
7.9168e-05
-8.49085e-05
0.000221813
-0.000216072
0.000179222
-0.000244221
5.70647e-06
5.92925e-05
0.00013714
-4.32024e-05
-0.000211138
0.0001172
9.63772e-05
-9.78156e-05
5.78662e-05
-5.64279e-05
3.33658e-05
1.88902e-05
-0.000924011
0.000871755
-6.58951e-05
1.91804e-05
-0.000763679
0.000810394
0.000878076
-0.000881716
6.74966e-05
-6.38562e-05
0.000188557
-0.000289439
-0.000150957
0.000251839
-2.5177e-05
-8.5644e-05
2.73037e-05
8.35174e-05
-0.000155235
2.68705e-05
9.86469e-05
2.97178e-05
0.000159557
-0.000144279
3.13428e-06
-1.84127e-05
5.73929e-05
0.000634048
-0.000350805
-0.000340636
-3.62319e-05
0.000194242
-6.38544e-05
0.000103319
-8.12737e-05
-5.82777e-05
-2.89739e-05
3.67743e-05
0.000147065
-0.000186485
0.000155449
7.21308e-05
-4.10947e-05
0.000182776
-0.000120876
8.54103e-05
5.31589e-05
-0.000548118
0.000494959
5.9594e-05
-0.000603319
0.000543725
3.32513e-05
-0.000469061
0.00043581
9.59095e-05
-9.75473e-05
-4.46212e-05
-0.000508633
-2.70199e-05
5.58919e-05
-7.62332e-05
4.73611e-05
-1.7307e-05
2.86834e-05
-0.000944921
0.000933544
-0.000275227
-0.000517304
0.000586849
0.000205682
0.00103901
-0.000444557
-0.000794271
0.000199814
-0.0006508
0.00115655
-0.000863709
0.000357957
1.65591e-05
-3.98574e-05
5.50539e-05
0.000138507
-4.48224e-05
7.18355e-06
-0.000643774
-7.43985e-05
0.000314051
0.000404121
-0.0001043
-0.000192296
8.32173e-05
2.2824e-05
0.000518005
-6.22521e-05
-6.40385e-06
0.000128535
-3.59809e-05
-8.61498e-05
-9.63866e-05
3.90195e-05
5.73671e-05
-0.000312793
0.000359814
-4.70212e-05
0.000543951
-0.000530501
-0.000364698
0.000110937
-0.000395419
0.000346344
-6.18618e-05
-0.000172307
6.06625e-05
-0.00060108
3.21223e-05
-5.5169e-05
0.000624127
-0.000261746
1.68973e-05
-4.22837e-05
0.000287132
3.02298e-05
-7.95506e-05
0.000204973
-0.000155652
6.12625e-05
6.19665e-05
-7.89151e-05
-4.4314e-05
-0.000303982
0.000486996
0.000340884
3.09794e-05
-0.00106223
0.00108881
-5.75642e-05
4.58972e-05
3.35661e-05
-1.3253e-05
-0.000109286
-4.78115e-05
9.16254e-05
7.2798e-05
-9.2824e-05
-8.33156e-05
0.000103342
3.86997e-05
-4.06966e-05
-2.10986e-05
2.30955e-05
2.368e-05
0.000271212
1.16317e-05
-0.000306524
-0.000407503
-0.000265355
0.000114056
-0.000331405
-6.26678e-05
0.000288153
0.000105919
-7.15284e-05
3.88598e-05
0.000123026
9.26865e-05
-8.47741e-05
-0.000144177
-0.000362071
0.000214383
0.00040907
-0.000606062
1.52179e-05
0.000598397
-7.55316e-06
-0.000608346
4.40308e-07
0.000619307
-1.14007e-05
8.96459e-06
0.000672783
-0.000653727
-2.80205e-05
-3.75641e-05
0.000594032
-0.000581979
2.5512e-05
-0.000611748
0.00108572
-0.000789338
6.20604e-05
2.36619e-05
-0.000179761
9.40387e-05
0.000124071
-0.00013105
0.000138989
-0.00013201
-0.000191263
6.05129e-05
0.000268419
-0.000137669
6.8434e-05
-4.64678e-05
3.78411e-05
-5.98073e-05
-0.000958591
0.000110229
0.000942073
-9.37108e-05
-9.68042e-05
0.000637474
-0.000688565
0.000147895
-0.000131098
0.000118388
0.000177605
-0.000164895
0.000161805
-0.000116967
-0.000200744
0.000155906
-0.000289999
7.93615e-05
0.000680192
-0.000469555
-1.73219e-05
0.000150826
8.59728e-05
-0.000219477
4.08562e-05
-7.79489e-05
0.00013587
-0.000593359
0.000580596
1.88909e-05
-6.47108e-06
9.08714e-06
0.000281661
-0.000234329
1.00612e-05
-2.92232e-05
-4.00695e-05
3.06764e-05
3.86163e-05
4.35526e-05
-1.79979e-05
0.000331821
-0.000357376
3.55959e-05
-2.32291e-06
5.42669e-06
0.000316774
-0.000225195
-0.000432937
0.000769563
-0.00040183
0.000337695
-0.000197346
-5.40224e-05
9.45632e-05
3.07841e-05
1.87098e-05
7.37518e-05
-0.000123246
0.000425025
-0.00070279
-0.000565463
5.15595e-05
-1.55544e-05
-6.98425e-05
-0.000424472
0.000470239
0.00100806
-0.00105383
0.000843332
-0.000169818
-4.77082e-05
-0.000625806
6.06637e-06
1.11585e-05
5.24357e-06
-0.000607736
0.000241204
0.000746961
-0.000226888
6.46378e-05
-6.66276e-05
0.000293569
-0.000831202
0.000717999
-0.000157758
-7.22445e-06
8.21553e-05
8.28275e-05
-0.00019611
0.000276209
-0.000423967
0.000343868
-0.000756559
0.000673498
0.000608459
0.000170362
0.000320584
3.75127e-05
-5.01481e-05
2.77878e-05
-1.51525e-05
-9.66801e-05
-0.00030017
0.000223323
-0.000102553
0.000118904
0.000132082
-0.000148433
-0.000110437
-0.000206118
0.000816258
0.000139504
-1.87775e-05
-7.89735e-05
5.19977e-05
-6.14824e-05
0.000149704
6.66887e-05
5.57834e-05
-0.000236634
0.00028638
5.36269e-05
3.65698e-05
2.337e-05
0.000119732
7.8045e-05
3.57016e-05
0.000225228
-7.07169e-05
-5.07903e-05
2.80615e-05
0.000262656
-4.06175e-05
-0.000228032
-4.02523e-05
-2.70501e-05
-0.000487062
2.60934e-05
1.04656e-05
-0.000157665
-0.000100949
-0.000697079
0.000238869
-0.000245469
-4.71697e-05
-4.028e-05
-2.17918e-05
-2.42144e-05
-9.61983e-05
-0.000215562
9.05965e-05
0.00037189
0.000614156
-6.83147e-05
2.88008e-05
-6.66493e-06
-2.1182e-05
1.43186e-05
3.44823e-05
-0.000112766
9.82598e-05
0.000537829
-0.000567054
2.55103e-05
3.71466e-06
7.36229e-05
-0.000647712
0.000453543
-4.08802e-05
9.20412e-05
-4.20148e-05
-2.35924e-05
2.39557e-05
1.43436e-05
-1.47069e-05
0.000275925
0.000472104
0.000131925
0.00017108
-8.51483e-05
-0.000313432
5.72108e-05
-5.63044e-05
-3.79267e-05
3.70203e-05
-0.000143799
3.73773e-05
0.000128792
-2.23698e-05
-8.97438e-06
-1.42334e-05
-3.84643e-07
0.000179413
1.64655e-05
-0.000104663
-9.12152e-05
-1.14598e-05
-8.03817e-05
2.74485e-05
6.4393e-05
0.0004119
-0.000114105
0.000135184
-0.000426971
0.000715782
2.41293e-05
-0.000145319
0.000276917
-0.000176474
0.000289909
-0.000292409
5.62148e-06
-3.56262e-05
3.298e-05
-2.97523e-06
-0.000132071
0.000188928
-0.000146757
8.98996e-05
-2.17165e-07
5.60226e-05
1.4054e-06
-0.000621678
0.00102501
-0.000731581
0.000328244
6.72595e-05
-0.00024441
-5.55496e-05
-5.79784e-05
0.000296358
9.31079e-05
-3.60999e-05
0.000220893
8.94222e-06
-0.00102008
0.000906643
2.93981e-05
-0.000148974
8.25978e-05
1.81194e-05
4.82571e-05
-0.000338801
-0.000110134
0.00031054
0.000138396
-3.46578e-05
-0.000269244
-2.26433e-05
0.000401725
0.000403987
-0.00019175
1.58053e-06
1.88916e-07
5.38786e-05
-5.56481e-05
-1.92028e-05
-6.46859e-05
0.000260609
-0.00017672
9.84467e-05
-0.000132311
1.61868e-05
-6.00611e-05
6.45028e-05
5.90505e-05
-6.34922e-05
-0.000152252
9.30699e-05
0.00016327
0.00070266
-0.000322339
1.25219e-05
0.00117784
7.83407e-05
-0.00113213
-0.000124047
0.00012726
-1.23677e-05
0.000130227
-0.000688584
0.000180127
0.00061496
-0.000106503
-8.8331e-05
0.000158122
-0.000107081
3.72898e-05
2.84179e-05
-0.000136516
8.00111e-05
2.80874e-05
7.47931e-05
-0.000142956
7.49672e-05
-6.80403e-06
-0.000212498
0.000713312
4.62457e-05
-0.00054706
-0.000338117
0.00097397
6.44301e-05
-0.000700283
0.000631129
3.09241e-05
7.37871e-05
-0.00073584
-5.83018e-05
7.95712e-06
7.8515e-05
-2.81703e-05
6.48237e-05
0.000145982
-0.000138369
0.000313555
0.000259215
0.000476538
0.000110354
0.000529838
0.000105432
0.000558047
0.00014278
0.000666948
-7.27879e-06
-9.81056e-06
3.77589e-06
1.33135e-05
-5.51643e-05
-7.13342e-05
7.01941e-05
-0.00043665
0.00050391
0.000423993
-0.000481972
0.00043422
-0.00047032
5.01676e-05
1.61099e-05
-2.10838e-05
7.13446e-06
-0.000145612
0.000147512
-9.03378e-06
-2.817e-05
-9.03889e-05
0.000112484
6.07528e-06
3.47894e-05
0.000697472
-0.000487669
0.00096177
6.30351e-05
-0.00100954
-1.52695e-05
-0.00061366
0.000413568
0.000744042
0.000129776
-0.000258385
-7.5679e-05
0.000204288
-0.000111306
-1.51042e-05
7.37524e-06
2.75643e-05
0.000120415
0.000213325
-0.00011679
0.000126398
0.00015129
-0.000949287
0.000921081
-0.000396266
-0.000119232
-2.98325e-06
-3.25098e-05
8.63631e-05
2.41065e-05
-7.79598e-05
-8.52521e-05
0.000728591
2.15244e-05
-0.000664863
-8.10174e-05
0.000644238
2.02586e-05
-0.00058348
4.02648e-05
-3.2499e-05
-3.54436e-05
2.76778e-05
0.000197557
-0.00011022
4.57118e-05
-0.000133049
2.05585e-05
-0.000120937
0.000161097
-6.07178e-05
-4.91782e-05
-0.000187456
-0.000134414
0.000145318
-4.11351e-05
3.0231e-05
-0.000271016
-4.92602e-05
0.000191865
0.000128412
-6.86411e-05
8.1471e-05
-3.56155e-05
2.27856e-05
0.000716162
2.05439e-05
-1.70309e-05
-0.000719675
-1.47938e-05
6.06561e-05
-5.22661e-05
0.000507768
-2.58959e-05
3.19132e-05
-0.000513785
0.000206375
-0.000126845
-0.000132347
5.28169e-05
-0.000590298
-7.24574e-06
-7.69806e-05
0.000674525
-0.000562384
-9.36101e-05
1.66747e-05
0.000639319
-3.84711e-05
8.13363e-06
4.9957e-05
-1.96196e-05
-0.000163638
4.73183e-05
0.00015578
-3.94602e-05
-0.000220156
-3.5461e-05
0.000207644
4.79731e-05
-0.000253949
0.000125152
0.000165571
0.000782753
7.49091e-05
-3.65429e-05
5.66347e-05
4.22514e-06
-9.80076e-06
-0.00113833
-0.000154329
0.00111824
0.000174416
0.000576759
0.00056688
-0.000497279
-0.00064636
7.64902e-05
-3.93568e-05
-3.00673e-05
-7.06617e-06
1.83857e-05
-2.99683e-05
5.79265e-05
-4.63439e-05
-1.99779e-05
5.18408e-06
-0.000107949
5.94686e-05
-0.000669672
0.000718152
0.000130773
-0.00011162
3.21425e-05
-5.12951e-05
-2.72949e-05
7.44984e-06
5.97341e-05
-3.98891e-05
-0.000195583
0.000164851
-8.90714e-05
0.000119803
0.000177007
-0.000140391
-5.83171e-06
0.00100019
-0.000905009
0.000122053
-0.000217234
-0.00051046
-0.000348985
0.000385003
-7.34011e-05
-3.27458e-05
3.08469e-05
7.52999e-05
-0.000164194
-1.43547e-05
1.49106e-05
-0.00035167
0.000225862
-9.43481e-05
-3.51732e-05
-1.06487e-05
7.35078e-06
0.000145604
-0.00015056
-4.7737e-05
5.26928e-05
4.06523e-05
-8.72964e-05
7.09175e-05
-2.42734e-05
5.14424e-06
-1.05377e-05
0.000227782
-0.000422651
0.000499175
0.00111217
-1.74888e-05
2.99529e-05
4.72266e-05
-8.58329e-05
-9.52144e-05
0.000133821
-4.91769e-05
0.000288046
5.34924e-05
-7.37129e-05
3.91115e-05
9.01553e-05
-0.00019287
0.000143571
-0.000886586
0.00041987
-7.65886e-05
-0.00104266
-0.000600483
0.000251165
0.000101972
0.000207549
-0.00015046
-0.00014542
0.000327528
-0.000342254
4.91824e-05
6.55354e-05
-7.26612e-05
1.99659e-06
5.58771e-05
-5.80908e-05
-3.44258e-05
6.16932e-05
-6.78668e-05
4.05994e-05
-0.000821204
-9.61729e-05
0.000228793
0.000522168
-0.000512992
-0.000166603
0.000157426
-5.20776e-05
-0.000909292
1.107e-05
0.0009503
-6.42492e-05
-0.000998053
0.00102577
3.65365e-05
9.00791e-05
-0.000107566
-7.91937e-05
-0.000609189
-0.000525622
0.000521151
0.000118253
7.79181e-05
-0.00012816
-6.80117e-05
4.17532e-05
6.40315e-08
-2.85188e-05
-1.32985e-05
-0.000804767
-0.000285463
-0.000174312
-4.16197e-05
-2.29129e-05
0.000238844
0.000130519
-1.42502e-05
-0.000130765
1.44964e-05
0.00021849
-7.24985e-05
1.7102e-05
2.10613e-05
-2.56741e-06
0.000104132
-0.000185755
-5.0448e-05
4.21981e-05
-5.25459e-05
1.59178e-05
-5.57003e-06
7.02965e-05
3.10601e-05
-1.03376e-05
-9.1019e-05
4.98942e-05
0.0006459
-3.12732e-05
-0.000664521
7.99199e-05
0.000712099
-4.9052e-05
-0.000742967
3.65725e-05
1.00602e-05
-4.43456e-06
2.9458e-05
-0.0010726
0.00107283
-2.96824e-05
0.000289142
-0.00147657
-1.37099e-05
0.00120114
9.0903e-05
6.82806e-05
-7.54738e-05
-8.37097e-05
0.000186612
1.43074e-05
-3.88131e-05
-0.000162107
0.000525349
-0.000456125
0.000291434
0.000778277
-0.000618556
-0.000771469
1.22127e-06
2.27194e-05
6.74371e-06
-3.06844e-05
-0.000116461
0.000125095
-1.27284e-05
4.09459e-06
-2.40893e-07
6.83523e-06
-6.01904e-05
5.3596e-05
-0.000731614
0.000235069
0.000475694
2.08507e-05
0.000122027
-1.5921e-05
4.3009e-05
-0.000149115
9.45602e-05
-2.16368e-05
2.05522e-05
-9.34756e-05
0.000264004
2.11028e-05
2.57641e-05
-0.000310871
-2.94929e-05
0.000103879
-7.43862e-05
0.000307864
-0.00115705
4.95357e-05
-5.30686e-05
-4.82911e-05
5.1824e-05
1.51833e-05
-1.96674e-05
-4.49028e-06
-0.000245079
0.000261985
5.3536e-05
-7.04426e-05
0.00103424
-0.00145614
0.000183436
0.00023847
0.000490998
8.92563e-06
1.23115e-05
-0.000512235
-6.68305e-06
-3.73024e-06
6.7048e-05
8.9322e-05
8.79521e-05
-0.000972114
0.00079484
-2.87871e-05
-7.06231e-05
0.000102618
-3.20815e-06
1.71148e-05
0.000170951
-0.000228688
4.06227e-05
-2.66083e-05
-7.80963e-05
0.000106225
-1.52089e-06
0.000627664
-0.000400836
-6.90791e-05
0.000158177
-0.000191651
2.55639e-05
7.04178e-05
-5.8469e-05
0.000835819
-0.000572807
4.80813e-05
-0.000311093
0.000390666
0.000695154
-0.000238007
8.22561e-05
-6.01895e-05
-2.43713e-05
-0.000112356
3.14529e-05
0.000105274
0.000662359
-0.000241155
-0.000484858
6.36534e-05
3.85239e-06
-7.56108e-06
3.75883e-05
-3.38796e-05
-4.5265e-05
4.9488e-05
-2.45154e-05
-5.41958e-05
8.40621e-06
0.000104676
-1.50817e-05
-9.80008e-05
-6.29884e-05
0.000125737
3.52821e-05
-3.31981e-05
0.00026192
5.02738e-06
-7.56412e-06
9.70969e-05
1.61598e-05
-7.33415e-06
0.000113201
0.000524532
-0.000558783
0.000151748
-0.000117497
0.0011932
-0.00118783
-0.000285541
1.85836e-05
-0.000634481
0.000196342
0.000549076
2.47585e-05
-4.28023e-06
-7.30158e-05
0.000362593
-1.25196e-05
0.00027759
1.49073e-05
4.22572e-05
-1.32495e-05
1.3664e-05
-2.37487e-05
-9.00069e-05
0.000100092
3.11054e-05
4.00104e-05
-4.88643e-05
-2.22515e-05
3.65762e-05
-6.09475e-05
6.81627e-05
-0.00012701
0.000111105
-5.22573e-05
0.000730572
9.61258e-05
-4.39454e-05
0.000160159
0.000165889
-0.000272337
0.000234773
-0.00050209
0.000511054
-0.000375554
0.00027875
-0.00112089
0.00112314
9.38863e-05
-9.61373e-05
0.000268668
0.00083344
-0.000383407
-0.000268663
0.000282122
-2.76308e-05
-0.000143339
-5.92878e-05
0.000516081
-0.0007939
-0.000151382
0.000429201
-0.000815895
0.000379633
-0.000118468
0.000554729
-3.34017e-05
0.000111684
-0.000349749
0.000271467
-3.33631e-05
-4.71352e-05
-0.000985796
0.00106629
8.01199e-05
-0.000360807
0.000776446
0.0001749
-0.000824697
-0.000126648
-5.95418e-07
-6.13788e-07
5.13768e-05
0.000794878
-0.000735001
8.29028e-05
0.000642208
-0.00069324
0.000156464
0.000546013
-0.000506753
7.10952e-05
8.67516e-06
0.000130548
-8.70405e-06
-0.000148905
6.73563e-06
0.000150576
9.36005e-05
-0.000127402
0.000107955
-7.41537e-05
0.00066355
-0.000560566
-5.19927e-05
-5.0991e-05
0.000692893
-0.000590781
-2.98693e-05
-7.22434e-05
0.000101016
0.00152773
-0.00120137
-0.00042737
6.08947e-06
-2.26922e-06
2.56195e-05
-2.94398e-05
-0.000987783
-0.000636715
0.00105156
0.000572936
-7.02712e-06
-1.85466e-06
-4.21012e-05
5.0983e-05
-4.6441e-06
6.31323e-06
6.68036e-05
-6.84727e-05
4.49761e-05
-6.51488e-05
-2.42118e-05
4.43845e-05
0.000114333
-4.34515e-05
0.000659691
0.00060339
-0.000862794
0.000367838
0.000611473
-0.000837767
0.000345805
-1.81565e-05
0.000129369
-6.55641e-06
1.30936e-05
4.16919e-05
-4.82291e-05
0.00056762
-7.32242e-05
0.000143078
-5.1641e-05
2.73665e-05
-1.15851e-05
0.000174049
7.44509e-05
-0.000113219
-0.00013528
0.000333269
0.000946217
-0.000712605
-0.00039596
-0.000378405
0.000499138
0.000551572
-0.000543692
-0.000118042
0.000110162
4.79477e-05
0.000124715
-1.45405e-05
0.000176702
1.55437e-05
0.000107216
0.000141651
-4.13557e-05
5.17682e-05
-4.09138e-05
9.77854e-05
0.000535519
-0.00064633
0.000110811
-0.000397927
0.000283824
-0.00125428
0.00136838
-0.000142193
0.000148082
0.000202642
-0.000208531
0.000151043
3.96146e-05
-7.90635e-05
-0.000111594
-0.000445688
-2.97221e-05
0.000612407
-0.000136997
0.00022314
-0.000190645
-0.000394632
-6.84856e-06
-1.50315e-06
1.68678e-06
0.000152471
-0.000115105
0.000113677
-1.05873e-05
-0.000110672
4.7986e-06
0.000108276
-1.47493e-06
-0.0001784
7.15989e-05
0.000368668
-0.000428967
0.000287566
-0.000227268
4.03398e-05
2.87667e-05
9.04506e-05
-9.57362e-05
9.83063e-06
0.000102015
2.69547e-05
-3.57203e-05
4.80201e-05
-3.92544e-05
-3.3819e-05
-0.000112659
0.000152723
-6.24551e-06
5.79702e-05
-1.83556e-05
0.000106686
-8.83378e-05
7.2555e-05
6.74662e-05
-1.76232e-05
0.000136769
-6.93968e-06
0.000131231
2.13133e-05
-0.00063468
-0.000325623
0.000746526
0.000213777
0.000820422
-0.00103755
0.000354337
-0.000137209
1.16942e-05
4.64701e-05
-5.42111e-05
-3.95315e-06
5.27148e-05
0.000475706
-0.000561997
3.35758e-05
0.000125963
-0.00014971
4.05805e-05
-1.68332e-05
-0.00131089
0.00115414
-0.000247705
0.000404448
0.000382922
-0.000327578
-0.000130466
7.51213e-05
7.56107e-06
0.000684155
-0.000681118
-1.05983e-05
-0.000365385
2.06779e-05
0.000146925
-0.000558318
0.000535707
-0.000124313
0.000162139
-0.000690184
0.000696393
-0.000168348
-0.000108372
-0.00073187
0.000840242
9.17438e-05
-2.7496e-05
0.00010732
-0.000171568
5.28271e-06
-6.82455e-06
-4.26573e-07
1.96841e-06
-2.43943e-05
3.10823e-05
1.05699e-05
-1.72579e-05
4.96477e-06
5.64167e-05
-6.16224e-05
4.10191e-05
-9.31574e-05
0.000101674
-0.000170065
-8.37607e-06
0.00011567
6.27705e-05
-0.00016864
3.34804e-05
0.000113742
2.14177e-05
-2.48013e-05
-9.69753e-07
0.000366883
-0.000341112
0.00112342
-0.00113257
-0.000105999
0.000115148
-0.000169784
1.48932e-05
-0.000172158
5.69405e-05
0.000115218
6.53854e-05
-0.000124425
-3.22861e-05
9.13261e-05
5.4748e-05
3.67582e-06
-4.09765e-05
-1.74474e-05
-3.41344e-05
4.30011e-05
-0.000159427
6.01069e-06
-4.79539e-07
-4.07043e-05
-6.82878e-05
2.01861e-05
-0.000303568
-2.17984e-06
2.09785e-05
-0.000182992
0.000693341
5.53162e-05
-7.58746e-05
0.000607188
3.09569e-05
-4.41135e-05
-0.000596072
1.02638e-05
-2.02536e-05
-0.000538238
-3.3838e-05
-3.62703e-05
-0.000357969
-0.000187572
0.000214136
-0.000996486
-0.000169369
0.000284139
-5.91287e-05
3.22898e-05
-3.32221e-05
-0.000124635
-0.00115313
0.00118381
-4.73736e-05
2.91825e-05
-7.81955e-05
-0.000131701
-3.07218e-05
-0.000150371
0.000707367
-0.000198241
-0.000590144
0.000696501
-0.000187336
-0.000594417
0.000118382
-3.59285e-05
-0.000314591
0.000232137
3.40894e-05
0.000547365
-2.98821e-05
7.72081e-05
-7.86513e-05
-4.14929e-06
5.59252e-06
3.66542e-07
1.18829e-05
-8.74342e-05
7.51848e-05
4.36268e-05
-3.34985e-05
4.12019e-06
-9.21583e-05
9.54415e-05
-5.84475e-05
-6.88523e-05
-2.12931e-05
4.97199e-05
4.04254e-05
0.000595861
1.6358e-05
-4.1925e-06
-0.000608027
-0.000345182
-8.36596e-05
6.34562e-05
-0.00044385
0.000341541
0.000395877
3.11643e-06
5.48255e-05
-5.59453e-05
-2.55082e-05
-3.6988e-05
2.17996e-05
3.97143e-05
-5.70558e-05
3.29495e-05
-1.5608e-05
-0.000219543
2.98529e-05
0.000198097
-8.40687e-06
0.000304723
0.000366201
-0.000591564
-7.93599e-05
0.000199914
-0.000543943
-0.000290651
0.000502654
0.000348736
-0.000687498
-0.000163892
-0.000117571
0.000113154
-2.9462e-05
3.3879e-05
0.000114672
0.000159837
-0.00100612
3.69794e-05
-1.63054e-05
-2.75226e-05
0.000110467
-1.11064e-05
-0.000101541
7.31048e-06
5.09124e-06
-6.39104e-06
0.00089541
-2.31143e-05
-0.000763035
-0.000109261
0.0001888
8.40149e-05
-9.0413e-05
-0.000199026
-2.05025e-05
0.000124382
-0.00010205
0.00110683
0.000151775
-0.00013361
0.00048356
0.000174582
-0.000408088
0.000333683
0.00053268
-0.000458276
0.000113654
-0.000115718
0.000185855
-0.000183791
3.24193e-05
0.000104635
-1.87037e-05
-0.00011835
-0.000163971
0.000133419
7.36176e-05
-4.30657e-05
-0.000251279
4.85101e-05
4.4492e-05
0.000158276
-0.00110573
0.00110305
9.06331e-05
-0.000729457
0.000471796
-0.000685667
0.000598022
-0.000427757
-0.000246816
0.000230723
0.000109216
-3.67446e-05
0.000857521
-0.0010244
-0.00026142
0.000428298
-0.000226691
-0.000983431
0.00118373
2.63926e-05
-0.00112095
0.00115447
-0.000158151
-0.000500266
0.000445289
0.000366453
-0.000311476
-0.000323836
0.00032742
3.89625e-05
-4.25469e-05
-0.000130788
-4.55148e-05
3.20239e-05
-0.000649306
0.000707508
-0.000383825
0.000159212
-1.33954e-05
3.56752e-05
-1.18642e-05
-2.32107e-05
-6.0035e-07
-0.000161232
0.000166096
-6.27265e-06
1.89289e-06
-5.47489e-05
-0.000911138
0.000876678
-0.000271045
0.000305504