/*--------------------------------*- C++ -*----------------------------------*\
| =========                 |                                                 |
| \\      /  F ield         | OpenFOAM: The Open Source CFD Toolbox           |
|  \\    /   O peration     | Version:  v1912                                 |
|   \\  /    A nd           | Website:  www.openfoam.com                      |
|    \\/     M anipulation  |                                                 |
\*---------------------------------------------------------------------------*/
FoamFile
{
    version     2.0;
    format      ascii;
    class       surfaceScalarField;
    location    "0.14";
    object      phi;
}
// * * * * * * * * * * * * * * * * * * * * * * * * * * * * * * * * * * * * * //

dimensions      [0 3 -1 0 0 0 0];
oriented        oriented;


internalField   nonuniform List<scalar> 
11117
(
-3.87085e-05
0.000132208
1.89628e-05
-0.000112462
1.686e-05
0.000225075
-7.22046e-06
-0.000234714
-0.000353376
0.000531579
-0.000250657
7.24535e-05
-0.000187194
1.66055e-05
6.55267e-05
0.000105062
8.14689e-05
0.000444337
-0.000405282
-0.000120525
-1.80532e-05
-5.30711e-06
-0.000213768
0.000237128
0.000639526
0.000142127
-0.000594604
-0.000187048
7.32393e-05
1.41853e-05
-6.47653e-05
-2.26593e-05
0.000596059
0.000283087
-0.000619501
-0.000259646
-9.89577e-05
0.000108766
-7.89099e-05
6.91011e-05
-0.000519897
0.00050101
0.000243601
-0.000224714
-0.000193295
-0.00011155
0.000154954
0.00014989
-0.00012611
-6.58208e-05
6.84239e-05
0.000123507
0.000652486
-0.000594247
0.000197333
-0.000255572
0.000358593
-0.000309579
0.000361822
-0.000410835
-1.32668e-05
0.000107472
-0.000102972
8.76648e-06
-8.64293e-05
0.000244845
-4.30795e-05
-0.000115336
-0.00028373
0.000289137
0.00038999
-0.000395397
0.000311366
0.00050107
-0.000453843
-3.86023e-05
2.00188e-05
0.000176012
-0.000157428
-0.000320721
0.000169368
2.64097e-05
0.000124943
-3.05016e-05
1.72154e-05
0.00013522
-0.000121934
-0.000308107
-0.000316062
0.000220225
0.000403944
0.000300463
0.000298082
-0.000187454
-0.000411092
0.000132734
0.000152017
-0.000251622
-3.31288e-05
0.000926536
-0.000957546
0.00026664
-0.00023563
0.000238124
-0.000333861
0.000898025
-0.000802288
-0.000187998
0.000256565
-0.000232841
0.000164275
-2.29351e-05
3.0694e-05
0.00020338
-0.000211139
-0.000105887
6.19343e-05
-2.5265e-05
6.92177e-05
-2.52271e-05
-2.35203e-05
5.20235e-05
-3.2761e-06
-7.85965e-05
-0.000436173
0.000339662
0.000175108
-4.2563e-05
-5.10648e-05
7.88915e-05
1.47363e-05
-0.000111364
0.000146805
-6.93559e-05
3.39148e-05
-0.000125532
0.000236987
-0.000171497
6.00421e-05
-0.00023443
0.000231391
-0.000208124
0.000211163
0.000603762
-0.000812209
0.000993605
-0.000785157
0.000326367
-0.000409231
-0.000121494
0.000204358
-7.54203e-05
5.20652e-05
2.74089e-05
-4.05383e-06
-0.00029582
0.000278204
-0.000287784
0.0003054
2.77939e-05
1.44001e-05
4.80544e-05
-9.02485e-05
0.000141338
0.000293655
-0.000310121
-0.000124872
0.00115042
0.001005
-0.00102811
-0.0011273
-0.000244636
3.27456e-05
-2.44071e-05
0.000236298
0.000417783
0.000261725
-0.000368141
5.8413e-05
-7.35785e-05
4.22339e-05
-2.70684e-05
-0.00104583
0.000866363
-0.000320809
0.000500273
-6.15672e-06
1.21958e-06
3.51587e-06
1.42127e-06
3.55546e-05
-7.72223e-05
0.000117446
-7.57787e-05
-8.90382e-05
0.00025478
-0.000165742
-1.03335e-05
1.57069e-05
-5.37344e-06
-9.84886e-05
-0.000204461
6.19499e-05
0.000240999
-7.24439e-05
6.43514e-05
-4.85209e-05
5.66135e-05
0.000444789
-0.000427003
5.75958e-05
-7.53827e-05
-6.58677e-07
6.58679e-07
-9.28457e-05
2.19661e-05
8.69689e-05
-1.60892e-05
0.000551999
0.000173164
-0.00069259
-3.25727e-05
-1.59834e-05
9.10884e-06
1.16618e-05
-4.78715e-06
0.0010131
9.91044e-05
-0.0015715
0.000459289
-0.000352037
0.000771723
0.000506849
0.000817062
-0.000836211
4.99113e-05
-3.07625e-05
0.000176994
-7.51553e-05
-9.43394e-05
-7.49913e-06
-1.40618e-05
-1.24634e-05
1.29801e-06
7.67394e-05
2.33583e-05
-0.000178694
1.08749e-05
-3.78331e-05
-1.56048e-05
1.03428e-05
-0.000116415
9.24739e-05
1.35986e-05
0.000337189
-0.000461606
0.000422189
-0.000297772
8.27174e-05
-0.000124682
4.19642e-05
-0.000398404
-0.00017621
0.000331786
0.000242829
-5.64456e-06
9.77107e-05
5.34711e-06
-9.74132e-05
7.19758e-05
-4.89898e-05
-0.000121475
-0.000494425
0.000378867
0.000452747
-0.000269083
-0.00136419
0.00139271
0.000240563
8.73422e-05
-0.000237821
0.000201143
-5.06639e-05
-0.000409947
-0.000272187
-9.89521e-05
3.35632e-05
0.000131052
-6.56628e-05
-0.000117028
8.5743e-05
3.1285e-05
-0.000920757
-0.000167106
0.000130317
-0.000237757
-1.07614e-05
3.88217e-06
-2.83108e-05
5.78234e-06
2.25285e-05
6.1408e-05
2.12675e-05
5.77238e-06
-8.84478e-05
0.000173805
6.03787e-05
2.98078e-07
-0.000234482
0.000294539
-0.000361084
0.000180149
-0.000113604
-4.35611e-06
-7.83452e-05
1.91003e-05
6.36011e-05
-0.000173031
0.000157308
0.000164931
-0.000149208
1.79088e-05
-0.000238617
0.000220709
-3.1177e-05
-0.000408756
0.000439933
5.82306e-05
-0.000325689
0.000267459
-4.32435e-05
5.9639e-05
0.000198033
-0.000214428
-0.000118917
-2.48009e-05
-0.000227405
0.000371123
0.00052719
-0.000113322
5.47807e-05
-0.000468649
0.000428905
4.15807e-05
-4.929e-05
-0.000421196
0.000336952
-2.41137e-05
2.4042e-05
-0.00033688
-0.000412296
2.75561e-05
-7.968e-06
0.000392708
-0.00034396
3.06968e-05
-1.7681e-05
0.000330944
1.99349e-05
-8.07264e-05
0.000124163
-6.3371e-05
0.000575208
3.25067e-05
-3.16681e-05
-0.000576047
0.000318462
1.79823e-05
-7.71687e-06
-0.000328727
0.000414686
3.50548e-05
-2.22061e-05
-0.000427534
0.000782879
6.60117e-05
-3.18287e-05
0.000413361
6.37077e-05
-0.000425176
-5.18922e-05
-0.000157267
0.000127239
2.91124e-05
9.158e-07
0.000379105
-0.000475491
-0.00135897
0.00145536
0.000497911
0.000102867
-0.00055974
-4.10379e-05
-0.000130668
0.00035542
-0.000259758
3.50071e-05
-0.000471427
0.000185515
0.000431938
-0.000146026
6.3849e-05
-5.77972e-05
0.000161328
-0.00016738
-0.000104754
0.000100533
-0.000121702
0.000125923
3.62339e-05
-0.000114364
-7.25474e-05
0.000150678
-0.000200795
3.05252e-05
-6.74875e-05
1.25288e-05
7.09762e-06
1.75649e-06
-2.13829e-05
5.2879e-05
3.30854e-05
1.00308e-06
-8.69674e-05
-0.000408415
0.00032453
-0.000205222
0.000289107
7.01817e-05
-6.59357e-05
1.02249e-05
-1.4471e-05
5.17379e-05
0.00029803
-0.00034068
-9.08801e-06
8.24219e-05
0.000338634
-0.000395848
-2.52075e-05
-0.000241819
-0.000296495
0.000445127
9.31875e-05
-0.000241919
0.000202955
0.000325936
-0.000286973
4.32698e-05
-2.40327e-05
-0.000855448
-0.00103632
9.16729e-05
0.000957737
-1.30938e-05
0.000390562
-0.000236732
-0.000395749
0.000343387
-0.000306565
-3.68215e-05
6.34126e-05
-4.35226e-05
5.20058e-05
-7.18958e-05
-0.000157011
-0.000129939
-2.63095e-05
-0.000122703
2.67578e-05
0.000122254
-0.000306017
0.000347399
0.000693855
-0.000735237
-0.000469007
0.000475356
-0.000443874
0.000437525
6.85893e-06
0.000203416
-0.00018738
-2.28949e-05
0.000104692
-0.000222163
-1.30101e-05
0.00013048
-0.000122918
-3.68445e-05
2.392e-05
0.000135843
7.2532e-05
-3.55555e-05
-6.34825e-05
2.65061e-05
7.4023e-05
-8.04501e-05
-3.76226e-05
4.40497e-05
0.000253886
-0.000303863
-8.73439e-05
0.000137321
-0.000850181
0.000111341
-0.000181916
-0.000103209
0.0001197
-0.000385512
0.000369021
0.000271718
-0.000329374
-0.000251923
-0.000364346
4.02359e-05
6.02878e-06
0.000318081
9.24232e-05
0.000121704
-3.7133e-05
-9.29259e-06
-6.85021e-06
4.55284e-06
1.159e-05
5.20377e-05
-1.16675e-05
-8.14635e-05
4.10933e-05
0.000376487
-0.000188024
-0.000183697
-4.76632e-06
-0.000170271
-0.000281816
0.000335986
0.000116102
0.000153805
-0.000179406
-2.13071e-05
4.6908e-05
0.000201205
-0.000214065
-5.83592e-05
7.1219e-05
6.3635e-06
-3.6415e-06
-5.02422e-06
2.30223e-06
-1.51391e-05
0.000258616
-0.000119909
-0.000123568
0.00010334
-3.8978e-05
-9.48977e-07
-0.000409492
0.000908834
-0.000519657
2.03152e-05
5.53964e-05
0.000456453
-6.26367e-05
-0.000449213
5.52142e-05
9.75679e-05
-9.91277e-05
-5.36544e-05
0.00101284
0.000500453
-0.000679706
-0.000833582
-2.9647e-05
2.99286e-05
-0.000232613
0.000232332
-0.000286203
-6.70248e-05
-0.000118199
6.84846e-05
-0.000104021
-4.08971e-05
7.64339e-05
-0.000500166
-0.00037319
0.000586303
0.000287053
0.000937364
-0.000279849
-0.000657515
-7.97764e-05
4.48332e-05
2.41166e-05
-6.89498e-05
-5.36114e-06
2.16192e-05
-1.62581e-05
0.000153336
-0.000237821
-1.78044e-05
0.000255626
-4.85878e-05
0.000179209
-0.000130621
-7.30243e-05
0.000135849
-6.28244e-05
-8.73111e-05
0.000298998
-0.000211687
0.000107901
-9.95831e-05
-8.31753e-06
0.00017467
-0.000127836
-4.68347e-05
-0.000122643
-3.30627e-05
0.000155706
-9.79193e-05
-9.81631e-06
0.000107736
3.75953e-05
-2.50665e-05
7.07339e-05
-1.78549e-05
0.000236639
-0.000256168
1.95288e-05
0.000181105
5.93745e-05
-0.000240479
0.000301975
-0.000305132
3.15686e-06
0.000301982
-0.000283067
-1.89149e-05
0.000192312
-0.00020637
1.40574e-05
0.000328861
-0.000442107
0.000113246
-0.000481741
0.000260938
0.000220803
-7.82519e-05
1.11359e-05
6.7116e-05
-0.000272898
0.00025722
1.56777e-05
0.000213283
-0.000339536
0.000126253
7.28863e-06
8.29324e-06
-1.55819e-05
-0.000301614
0.000334691
-3.30774e-05
5.80772e-06
1.01373e-06
-6.82145e-06
2.18124e-05
5.94446e-06
-2.77569e-05
5.14062e-05
-3.53967e-05
-1.60095e-05
-0.000101693
0.000110229
-8.536e-06
-0.000199737
4.24696e-05
-8.27036e-05
0.000103006
-2.03022e-05
3.59825e-05
-2.77807e-05
-8.20187e-06
1.64432e-05
0.000110796
-8.94539e-05
-0.000430443
-0.00036588
-7.02931e-05
-2.63224e-05
-2.47424e-05
-1.01584e-05
-1.33619e-05
8.69599e-05
-1.29369e-05
0.000109373
-3.68406e-05
-6.19602e-05
1.13269e-05
5.06333e-05
9.0167e-05
4.61495e-06
-9.47819e-05
0.000309759
0.000191311
-0.00125573
0.00163484
-0.000480277
0.000112207
0.00036807
-0.00017894
-2.5521e-05
-9.99823e-06
3.84151e-06
8.79914e-05
-0.000102295
1.43036e-05
-0.000852022
-0.000193805
3.47758e-05
2.36372e-05
-6.48987e-05
4.27978e-05
2.21009e-05
-2.06987e-05
-0.000136737
0.00013374
2.36954e-05
-0.000102709
5.59479e-05
0.000619943
-0.000573183
-0.0008151
0.000767751
0.000686304
-0.000638955
-0.000131139
4.4215e-05
0.000131259
-4.43342e-05
-0.00117109
0.00112912
-4.94189e-05
9.13855e-05
-0.000204327
0.000201766
-8.475e-05
-8.38144e-05
8.00788e-05
-4.48522e-05
-1.75814e-05
-2.94547e-05
-0.000142799
0.000189835
-6.15408e-05
0.000110744
-0.000134378
8.51747e-05
-0.000113598
0.000188232
0.000338318
-0.000412953
-0.000401775
0.000457242
0.000198419
-0.000136397
2.95584e-05
0.000383851
-0.000277012
0.00102728
-0.000898605
-0.000429956
0.000301286
-0.00138202
-3.298e-05
0.000243913
-2.86773e-06
1.258e-05
3.36616e-05
-4.33739e-05
0.000537911
-7.36928e-05
-9.00643e-05
-0.000374154
0.000344585
-0.00010328
-1.89349e-05
-0.00022237
-0.00031923
-0.000238842
4.62391e-05
0.000511833
-8.64369e-05
5.51371e-05
0.00129534
-0.00126404
5.44577e-05
3.69075e-06
-5.81485e-05
2.1891e-05
0.000282754
-2.70538e-05
-0.000277591
0.000383282
-1.20152e-05
6.66612e-06
-0.000377933
0.000228792
-0.000178367
-0.000432408
0.000381984
8.92619e-06
-3.17889e-05
-0.000313952
0.000336815
2.10691e-05
-1.72339e-05
-0.000272647
0.000268811
-5.88651e-05
7.29287e-05
-0.000185426
0.000171363
0.000155841
-0.00010205
7.25716e-06
-6.10482e-05
0.000151923
-0.000177756
9.09763e-06
1.67352e-05
1.81349e-05
2.64665e-05
-0.00095856
0.000913959
-6.83142e-05
2.01073e-05
-0.000767962
0.000816169
0.000766285
-0.000757858
4.64528e-05
-5.48801e-05
9.46467e-05
-0.000133119
-0.000102549
0.000141021
-5.42892e-05
-6.51852e-05
3.67322e-05
8.27421e-05
-0.000317117
-1.85482e-05
0.00022484
0.000110826
0.000277319
-0.000220948
-0.000173306
0.000116935
-4.32941e-05
0.000610957
-0.000309865
-0.000257798
1.93025e-05
0.000125658
-7.64762e-05
0.000114623
-0.000105767
1.04466e-05
-3.89181e-06
-6.29652e-06
1.72859e-05
-0.00018915
0.00025277
-0.00032188
0.00025826
0.000452499
-0.00043549
3.83872e-05
5.92067e-05
-0.000490396
0.000431189
1.67616e-05
-0.000218217
0.000201455
3.02672e-05
-0.000350779
0.000320512
9.37595e-05
-0.000103735
2.03185e-05
-0.000363735
1.96334e-05
-1.46889e-06
1.13836e-05
-2.9548e-05
-7.95177e-05
6.79899e-05
-0.00101068
0.00102221
-0.000181865
-0.000495936
0.000544717
0.000133085
0.00126357
-0.000554931
-0.00095719
0.000248554
-0.000670225
0.00118871
-0.000915113
0.000396628
-9.12698e-05
0.000116128
-4.55569e-05
5.24086e-05
-0.000136247
5.75293e-05
-0.000522365
-7.02894e-05
0.000240262
0.000352392
-6.00614e-05
-0.000200246
5.59804e-05
-2.32606e-05
-8.34397e-05
2.28858e-05
1.70625e-05
5.75621e-05
-4.6351e-05
-2.82737e-05
-0.000167939
9.83014e-05
6.96378e-05
8.81864e-05
-6.53286e-05
-2.28578e-05
0.00012661
-2.50878e-05
-4.63083e-05
8.17487e-05
-0.000309127
0.000272708
-4.53296e-05
-0.000124388
-6.10245e-05
8.47368e-06
-1.20281e-05
2.94336e-05
-2.58791e-05
-0.000658944
4.69687e-05
-0.000130507
0.000742482
-1.96073e-05
-5.83874e-06
8.41396e-06
1.70321e-05
4.68881e-05
0.000130549
-0.000131798
-4.56388e-05
-0.000115296
0.000146304
3.09418e-05
3.08999e-05
-0.00106464
0.001091
-5.72617e-05
2.718e-05
0.000487011
-0.0002854
4.45467e-05
0.000417239
-1.6996e-05
-0.000354346
-5.56462e-05
0.000342134
6.78574e-05
-0.000139041
0.000192404
-2.94302e-05
-2.39322e-05
0.000105622
6.58672e-05
-9.30143e-05
-7.84748e-05
6.14658e-05
4.5848e-05
-1.71469e-05
-0.00047251
-7.7719e-05
0.000459843
9.03864e-05
2.13057e-05
9.75844e-08
6.39067e-06
-0.000356644
0.000231057
0.000266925
-0.000300676
0.00017283
-0.000167974
-0.000320673
9.80595e-06
0.000314862
-3.9949e-06
-0.000359939
-1.56811e-05
0.000364908
1.07117e-05
-3.95589e-07
0.000319066
-0.000310063
-8.60687e-06
2.8595e-07
0.000455844
-0.000445319
-1.08115e-05
-0.000180209
0.000439191
-0.000362191
-0.000350354
0.000228959
1.82059e-05
0.00010319
-0.000261253
0.000156004
5.45907e-05
5.06586e-05
-0.000109086
7.4776e-05
-1.52076e-05
4.95179e-05
0.000398044
-0.000354594
-4.787e-05
4.42028e-06
-0.000985171
6.21198e-05
0.000987013
-6.3962e-05
-0.000149891
0.000588847
-0.000655685
0.000216729
0.000111612
-0.000165573
-5.88321e-05
0.000112793
-6.3933e-05
-7.46509e-05
0.000353987
-0.000215403
0.000298032
-0.000337827
1.12428e-05
2.85524e-05
2.6364e-05
6.39749e-05
-1.3196e-05
-7.71429e-05
8.83725e-05
-0.000174654
0.000260087
-0.000593074
0.000598019
2.73872e-05
-3.37216e-05
6.77424e-05
0.000444363
-0.000311298
-0.000176359
-0.000119449
-0.000349122
0.000202969
0.000265602
3.61962e-05
-1.53239e-05
0.00022601
-0.000246882
-0.000101027
-3.67299e-05
-1.28472e-06
0.000349207
-0.000169076
-0.000356341
-2.27477e-05
2.58603e-05
0.000805054
-0.000526633
1.5837e-05
9.38899e-06
6.00093e-05
-5.85635e-05
7.3238e-05
-7.46837e-05
0.000419263
-0.000697024
-0.000537339
8.54807e-06
7.31609e-05
-1.15272e-05
-0.000424961
0.000470269
0.00101095
-0.00105626
0.00083532
-0.000170493
-4.39286e-05
-0.000620899
-0.000116517
0.000102508
-9.0745e-05
-0.00029558
0.000198386
0.000353759
6.20915e-05
7.95165e-05
-0.000105374
3.81192e-06
-0.000120446
9.36988e-05
-5.79928e-06
-6.6805e-05
5.58995e-05
1.67048e-05
3.76467e-05
-0.000402943
0.000448768
-8.34717e-05
-0.000227146
0.000216207
0.000213894
5.57588e-05
0.000482164
5.05513e-05
-6.39602e-05
2.8386e-05
-1.49772e-05
5.8983e-05
3.27366e-06
-1.01915e-05
8.18282e-05
-9.32135e-05
0.000172775
-0.000161389
-8.3922e-05
-3.91504e-05
0.000402009
9.90009e-05
3.4343e-05
-0.000105316
5.06355e-05
1.38801e-06
-3.81209e-06
0.000139925
-6.29752e-05
0.000129236
-0.000107345
-3.5429e-05
7.77389e-06
-1.70495e-05
0.000120055
2.75657e-05
5.44824e-05
0.000256524
2.07539e-05
-0.000454561
-4.58752e-06
1.03952e-05
-2.51536e-05
4.69659e-05
-2.99618e-05
-0.000271652
0.000261668
-8.69981e-05
-8.18024e-05
-0.000327428
3.94302e-05
-1.20213e-05
3.51809e-05
-5.032e-05
-2.03779e-05
-3.11891e-05
-9.14466e-06
-5.4977e-07
0.000110779
0.000227727
8.20317e-05
1.13325e-05
0.000229667
0.000159249
1.12791e-05
-0.000141862
-1.33272e-05
1.84525e-05
-8.24456e-05
-0.000158772
0.000119724
0.000426628
-0.000456271
9.94202e-06
1.97017e-05
2.01797e-05
0.000510286
-0.000388338
6.03033e-06
5.05826e-05
-4.24276e-05
-0.000207772
0.000367254
6.34574e-05
-0.00022294
-4.85224e-06
-6.87263e-05
0.000301699
0.000564664
2.12441e-06
-9.0483e-07
-0.000158036
0.000193316
-0.000177333
0.000142053
-6.13712e-05
4.02183e-06
5.70187e-05
3.30697e-07
-0.000513885
-0.000118899
0.000425012
-0.000110659
7.23009e-05
6.98494e-05
-3.14912e-05
-5.74953e-05
-0.000286374
0.000150356
0.000193513
3.02794e-06
-4.05196e-05
-2.81171e-05
8.48155e-05
-0.000149544
0.000132652
-0.000532091
0.000951438
-1.18684e-05
5.69198e-06
-9.807e-06
-2.86475e-05
0.000106061
-9.24916e-05
1.50777e-05
0.000262395
-0.000777361
0.00051364
1.32582e-06
-0.000161394
-0.000133553
0.000136911
-0.000623448
0.00102887
-0.000732278
0.000326853
9.02042e-05
-0.000162941
-0.000161693
9.1212e-05
-8.47432e-05
-0.000132001
7.39517e-05
-6.77086e-05
-0.000117607
-0.00035906
0.000314889
7.48654e-05
0.000328262
2.91984e-05
-0.000232157
-0.000125304
7.51505e-05
1.23782e-05
-5.44868e-05
-3.30419e-05
1.36218e-05
-0.000136265
6.64635e-06
-0.000104566
9.59661e-05
0.000104303
-1.1437e-05
8.71812e-06
9.59236e-05
-9.32047e-05
-3.27791e-06
2.40746e-05
-7.71046e-05
5.63079e-05
0.000310901
0.000323051
0.000133447
-0.000203181
0.000106012
0.000190345
-9.31754e-05
-2.82975e-05
-8.09432e-05
9.14363e-05
-0.000408906
0.000308066
0.000144958
0.00134112
8.37546e-05
-0.00129786
-0.000127019
-2.13532e-06
8.57249e-06
2.45129e-05
-0.000594813
0.000152566
0.000526094
-8.38474e-05
5.12794e-05
0.000185391
-0.000126523
-0.000110148
8.64977e-05
-0.00027508
0.000154314
3.4269e-05
0.000101896
-0.000206067
0.000106075
-1.90447e-06
-0.000216917
0.000735217
2.47287e-05
-0.000543028
-0.000160565
0.000419114
3.44395e-05
-0.000292989
0.000403664
2.2986e-05
4.49355e-05
-0.000471586
-9.88582e-05
-3.86535e-05
0.000138977
-1.46513e-06
4.13281e-05
0.000139777
-7.99465e-05
0.000195337
0.000216396
8.25445e-05
0.000121031
0.000513384
7.72459e-05
0.000367707
5.68625e-05
0.000278361
-3.00177e-07
0.000221906
-1.69675e-05
-0.000204638
0.000255344
-0.00021264
0.000150612
-0.000276125
0.000366329
-0.000191839
0.000283051
-0.000172189
0.000246141
-6.1901e-05
1.46438e-05
-1.86786e-05
-1.17451e-05
-0.000218582
0.000241366
-1.10394e-05
-4.92117e-07
-0.000158625
0.000175109
-1.59923e-05
0.000203976
0.000295603
-0.000216492
0.000965148
5.77464e-05
-0.00101283
-1.00652e-05
-4.43561e-05
0.000148697
2.22698e-05
0.000134467
-0.000268581
-7.90962e-05
0.00021321
0.000419944
-0.00026729
0.000363438
-0.000337967
8.84375e-05
8.21502e-06
-0.000140069
-9.73731e-05
-0.000104049
-0.00095143
0.00092335
-0.00039688
-2.90439e-05
-2.82668e-05
0.000109939
-0.000333958
-0.00010634
0.000330359
-4.45046e-05
0.000398316
9.59727e-06
-0.000363409
-3.95785e-05
0.000339094
8.91541e-06
-0.000308431
1.02967e-05
-9.24028e-06
-4.78767e-06
3.73123e-06
0.000299941
-0.0002599
0.000157364
-0.000197405
4.58929e-05
-0.000101795
0.00018941
-0.000133508
-5.125e-05
0.000180486
-0.000217564
0.000248063
-7.81154e-05
4.76163e-05
-0.000247012
-6.15362e-05
0.000194646
0.000113903
-0.00013035
0.000159551
-6.15517e-05
3.23513e-05
0.000349209
8.91766e-06
-3.6964e-06
-0.000354431
3.2255e-06
5.68527e-05
-4.30156e-05
0.000586503
-2.64911e-05
1.62599e-05
-0.000576272
-2.58683e-05
0.00035553
-7.44679e-05
-0.000255194
-0.000290446
-1.35309e-05
-2.75468e-05
0.000331524
-0.000393452
-1.07396e-05
-3.83452e-05
0.000442537
-0.000149824
9.93938e-06
0.00016905
-2.91655e-05
-0.000289466
0.000102713
0.000266737
-7.99851e-05
-0.00017697
-9.26711e-06
0.000135813
5.04242e-05
-3.41945e-05
3.90787e-05
-1.11807e-05
0.000738308
8.27987e-05
-3.8228e-05
-0.000106287
2.60977e-05
-4.27286e-05
-0.00125496
-0.000160123
0.00123329
0.000181796
0.000254613
0.000470581
-0.00041684
-0.000308355
0.000318174
-0.000159508
-0.000221139
6.24739e-05
0.000109246
-0.000184193
0.000207389
-0.000132443
5.62266e-05
-5.30011e-05
-9.32281e-05
5.3501e-05
-0.000685823
0.00072555
0.000183335
-0.000135121
1.77043e-06
-4.99849e-05
-0.000417731
0.000409426
4.48165e-06
3.82328e-06
0.000161308
-0.000362314
0.000446936
-0.00024593
0.000162249
-0.000155765
5.35252e-05
0.00097879
-0.000858701
0.000131964
-0.000252053
-0.000266295
-0.000236117
0.00026957
-7.41342e-05
-0.000174764
0.000154153
9.47449e-05
-0.000292232
-3.49528e-05
3.77191e-05
-0.000359669
0.000222985
-4.02852e-05
-0.000130558
-4.166e-06
-1.51002e-05
0.000422468
-0.000393328
-0.000201667
0.000172527
-4.16935e-06
-0.000426631
0.000426897
3.9033e-06
-0.000196759
2.27466e-05
0.000268208
-0.000354558
0.000329952
0.00111759
-1.45763e-05
2.61057e-05
-5.14241e-05
9.28335e-05
0.000359742
-0.000401151
-3.30839e-05
6.82648e-05
7.71385e-05
-0.000157081
0.00010733
0.000150974
-0.00029916
0.000236559
-0.000293445
0.000118995
-1.27439e-05
-0.000313376
-0.000207215
0.000464688
4.357e-05
0.000246251
-3.39156e-05
-0.000161056
-5.32621e-06
3.22974e-05
0.000202365
0.000143187
-0.000108913
-0.000182816
-0.000117331
0.000138753
-6.98901e-06
1.32997e-05
-1.55319e-05
9.22118e-06
-0.000718582
-7.86979e-05
0.000202467
0.000516205
-0.000538572
-3.37731e-05
5.61397e-05
-7.57515e-05
-0.000882286
1.93982e-05
0.00093864
-7.51656e-05
-0.00100186
0.00103077
4.6255e-05
-1.50714e-05
-9.72692e-07
7.50271e-05
-8.20475e-05
-0.000157457
0.000195148
0.000200713
0.000171353
-0.000235328
-0.000136738
0.000146394
3.2405e-05
-0.000140916
-3.78831e-05
-0.000805005
-0.000274712
-0.000225257
-0.000154711
8.66986e-05
0.000293269
7.3204e-05
1.30655e-05
-8.02136e-05
-6.05588e-06
-0.000105486
1.64423e-05
-4.79903e-05
-5.50637e-05
2.02739e-06
-0.000496792
0.000448894
0.000310294
8.0989e-05
-6.76344e-05
-2.67902e-05
1.34356e-05
1.50818e-05
6.88991e-05
-7.43763e-05
-9.60462e-06
-5.57417e-06
0.000365978
2.03782e-06
-0.000362441
6.53435e-05
0.000332889
-3.28185e-05
-0.000365414
1.57336e-05
5.1337e-05
1.39183e-05
3.49683e-05
-0.00107677
0.00107719
-3.53922e-05
0.000317407
-0.00166812
-2.49802e-06
0.00135321
0.00024544
0.000110675
-0.000135123
-0.000220993
0.000283247
1.60698e-05
-4.41386e-05
-0.000255178
0.00052044
-0.000174053
9.79505e-05
0.000274221
-0.000155297
-0.000299134
-1.78747e-05
-0.000117374
3.28393e-05
0.000102409
-0.000257091
0.000266536
-2.41162e-05
1.46707e-05
1.13185e-05
1.51828e-05
-0.000171297
0.000144796
-0.000740142
0.000203395
0.00049027
4.64768e-05
0.000199114
-3.78938e-05
8.54373e-05
-0.000246658
0.000180915
-1.57213e-05
3.3238e-05
-0.000198432
0.000219016
1.85325e-05
3.45513e-05
-0.0002721
-4.41859e-06
-7.11483e-05
7.55669e-05
0.000329855
-0.00126741
-9.04915e-05
0.000105076
0.000187035
-0.00020162
-7.56281e-05
-0.000444469
6.21225e-06
-2.39212e-05
6.08774e-05
4.20631e-05
-7.90194e-05
0.00103728
-0.00146013
0.000180597
0.000242245
0.00041873
8.57445e-06
1.26797e-05
-0.000439985
-3.8378e-05
2.89397e-05
-9.6849e-05
7.0286e-05
0.000104124
-0.000841052
0.000666642
-2.72757e-05
-0.000103958
0.000146624
-1.53908e-05
3.70046e-05
0.000181818
-0.000254981
3.61582e-05
-4.55729e-05
-0.000135743
0.000190955
-9.6389e-06
0.000561256
-0.000377777
6.55104e-05
0.000151801
-0.000135483
3.40922e-05
4.5533e-05
-2.90738e-05
0.000833217
-0.000568963
5.55191e-05
-0.000319773
-0.000137247
0.000251985
8.6467e-05
-7.02316e-05
7.43611e-05
-3.36434e-05
-0.000231015
3.58675e-05
0.000228791
0.000340014
4.22134e-05
-0.000289884
-9.2343e-05
1.80232e-05
-3.44414e-05
-0.000124023
0.000140441
-0.000192905
0.000246694
-7.18157e-05
-0.000294327
9.59499e-06
0.000251466
-2.24264e-05
-0.000238634
3.90434e-05
0.000115764
6.79952e-05
-4.74996e-05
0.000198521
-6.02307e-07
5.78032e-07
0.00018094
3.74617e-05
-1.94035e-05
0.000181056
5.56781e-05
-0.000143094
0.000101573
-1.41566e-05
0.00120092
-0.00121121
-0.000258794
9.64779e-05
-0.000552737
0.000155538
0.000478948
0.000283325
-0.000281183
-3.17898e-05
0.00028252
-0.000186337
0.000465074
0.000172084
6.92877e-05
-0.000154029
6.36593e-05
1.44093e-05
-0.000137349
5.92808e-05
0.000155923
-0.000284436
-0.000198812
0.000327325
0.000158866
-0.000192509
1.91706e-05
-6.30754e-05
5.5115e-05
-1.12102e-05
0.000680444
0.000100337
-4.24722e-05
7.96788e-05
0.000135537
-0.000346408
0.000346694
-0.000211742
0.000211346
-0.000147946
-1.94425e-06
-0.00112745
0.00113099
0.000100352
-0.0001039
8.60789e-05
0.000688974
0.00027397
-0.000276614
-0.000201689
-0.000218888
0.000164026
-3.1108e-05
0.000285337
-0.000405612
-9.07834e-05
0.000211058
-0.000446562
0.000154153
-3.26558e-05
0.000325064
-0.000166393
0.000231247
-0.000314769
0.000249916
-4.69309e-05
-4.66203e-05
-0.00105294
0.00114649
-0.000204962
0.000440762
0.00073485
0.000174431
-0.000793254
-0.000116026
2.10904e-05
-2.50025e-05
-5.79888e-05
0.000368242
-0.0003521
4.07201e-05
0.000378624
-0.000414089
0.000112711
0.000620547
-0.000594191
9.46755e-05
1.43036e-05
6.80971e-05
-9.19672e-06
-0.000261337
7.61967e-06
0.000263312
9.94914e-05
-7.05821e-05
5.16288e-05
-8.05381e-05
0.000373691
-0.000322248
-5.61436e-05
4.70089e-06
0.000354471
-0.000304162
9.94134e-06
-6.02501e-05
0.000407608
0.00150099
-0.00118414
-0.000724455
-1.49292e-05
8.53491e-06
-7.71455e-05
8.35398e-05
-0.000989848
-0.000637312
0.00105308
0.000574081
1.47066e-05
-3.03165e-05
-3.52416e-05
5.08515e-05
7.88114e-05
-0.000174489
-0.000197779
0.000293456
-6.20958e-05
7.76082e-05
5.72063e-05
-7.27187e-05
0.000113939
-3.89526e-05
0.000605458
0.000311142
-0.000433362
0.000173958
0.000348517
-0.000519705
0.00025361
1.97623e-05
6.41638e-05
1.25875e-05
-2.67107e-05
4.525e-05
-3.11268e-05
0.000489685
-4.54683e-05
0.00014463
1.42193e-06
-2.97524e-06
2.31656e-06
-0.000252238
-0.000142676
0.000167904
0.00022701
0.000291477
0.000635379
-0.000456275
-0.000345806
-0.000278024
0.000441966
0.000452781
-0.000433634
-1.90957e-06
-1.7238e-05
0.000195903
9.48816e-05
-0.000105394
9.07812e-06
-6.77485e-06
5.98997e-06
-1.32093e-05
-1.29495e-05
-9.23788e-06
-3.6968e-05
8.46715e-05
0.000336851
-0.000386964
5.01133e-05
-0.000489292
0.000343776
-0.0015179
0.00166342
-8.09775e-05
7.35339e-05
0.000111891
-0.000104447
0.000175424
4.67026e-05
-8.76256e-05
-0.000134501
-0.000497867
-9.66641e-05
0.000647789
-5.32584e-05
0.000285993
-0.000167908
-0.000424101
-4.40123e-05
-1.60207e-05
-8.18291e-05
0.00018282
-0.000137354
0.000129958
-1.23982e-05
-0.000255302
1.06092e-05
-0.000109395
0.000134328
0.000117297
-0.00014223
0.000246157
-0.000137913
-0.000111871
3.62805e-06
0.000216793
-7.37618e-05
0.000134287
6.4892e-05
7.69072e-06
-5.79388e-05
1.01793e-05
-8.95702e-05
0.000117704
-3.83129e-05
-1.28897e-05
-0.00016948
0.000219249
-3.68794e-05
8.28469e-05
-3.61443e-05
0.00017642
-0.000109034
0.000178055
0.000101339
-2.20702e-05
0.000203978
-0.000107501
0.000423145
0.000106824
-0.000515992
-0.00047739
0.000703437
0.000289945
0.000821305
-0.00103888
0.000354977
-0.000137401
-2.15564e-05
0.000406466
-0.000389735
4.82534e-06
-4.79792e-05
0.000199124
-0.000251579
0.000100434
0.000188158
-0.000155687
-8.04732e-05
4.80026e-05
-0.00149878
0.0012912
-0.000302244
0.00050982
0.000245149
-0.000204267
-9.96681e-05
5.87863e-05
8.99106e-06
0.00041678
-0.000418188
-7.58228e-06
-0.00031486
2.08e-05
6.70338e-05
-0.000447811
0.000449767
-6.89897e-05
7.94273e-05
-0.000327917
0.000320874
-7.23848e-05
-0.000106666
-0.000737497
0.000844163
-4.20081e-05
-1.42544e-05
-5.79157e-05
0.000114178
2.4423e-05
-3.68072e-05
2.3484e-05
-1.10998e-05
-0.00013763
0.000146739
1.91801e-05
-2.82893e-05
3.5384e-05
0.000192603
-0.000216668
-6.92115e-05
0.000172562
-0.000193841
8.58053e-06
-1.0572e-05
1.47222e-05
-1.27307e-05
-1.43999e-05
-1.25792e-05
2.13814e-05
5.59763e-06
-1.09781e-05
-4.98888e-06
0.000256387
-0.00024042
0.00123974
-0.00126515
-8.38242e-05
0.000109233
-7.83647e-05
1.39927e-05
-1.80851e-05
2.80877e-05
-1.00025e-05
0.000252601
0.000211604
-0.000241389
-0.000222816
-6.36337e-05
-5.54837e-05
5.6784e-05
6.23334e-05
-7.94795e-05
0.000125048
-0.000438897
-1.22146e-05
2.04077e-05
-0.000138751
-9.5677e-06
-1.19484e-05
-0.000338153
-5.42459e-07
2.6046e-05
-0.000317736
0.00032939
2.61043e-05
-3.64289e-05
0.000464505
3.51274e-05
-4.3788e-05
-0.000319645
2.04265e-05
-2.14546e-05
-0.000314442
-6.20651e-05
1.65682e-05
-0.000459648
-0.000188704
0.000175842
-0.00082889
-0.000141529
0.000212561
-0.000217053
6.41931e-05
-5.03208e-05
-0.000108138
-0.001258
0.00127971
-4.20045e-05
6.5727e-05
-0.000191662
-1.96942e-05
-4.50865e-05
0.000152967
0.000357332
-9.57157e-05
-0.000301195
0.000443886
-0.000114519
-0.000373872
-9.67795e-05
8.72025e-05
-0.000100791
0.000110368
8.75487e-05
0.000460169
-9.49366e-05
0.000104205
-0.000106396
4.39087e-05
-4.17178e-05
3.56641e-05
-6.47262e-06
-0.00019762
0.000168429
-5.54256e-05
6.31695e-05
0.000125996
-0.000296949
0.000155491
0.000396802
-2.13916e-05
-1.18482e-05
1.47419e-05
1.84979e-05
0.000226692
-0.000158721
0.000219325
-0.000287295
-0.000294654
-7.88247e-05
5.86184e-05
-5.2084e-05
2.21312e-05
3.37648e-05
-0.000196302
-0.000107012
0.000120497
0.000175263
-2.28493e-05
3.99901e-05
1.97246e-05
-7.57621e-05
7.81156e-05
-2.20781e-05
8.94554e-05
-0.000175306
-0.000154434
0.000240286
0.000330421
0.000224566
-0.000454239
-0.000100748
0.00022817
-0.000564386
-0.000179776
0.00022581
0.000180547
-0.000338196
-6.81608e-05
-0.000499886
0.000413048
8.34382e-05
3.40039e-06
8.10565e-05
0.000219565
-0.00104076
0.000153115
-0.000121127
-7.59994e-05
0.000220306
-3.27571e-05
-0.000188092
6.66004e-05
-3.11959e-05
-4.76192e-05
0.000897693
-2.24085e-05
-0.00076447
-0.000110815
-6.2777e-05
-1.44453e-05
-5.8161e-05
-7.49582e-05
-4.88526e-06
-6.6263e-05
-0.000118633
0.00112014
0.000187203
-4.46904e-05
3.79382e-05
6.24303e-05
-0.00010583
6.25286e-05
6.34655e-05
-2.0164e-05
0.000290368
-0.00032281
0.000423767
-0.000391325
-1.87999e-05
0.000433736
1.49707e-05
-0.000429907
0.000178419
-0.000163269
-9.70376e-05
8.18881e-05
-0.00032971
-2.2478e-05
0.000128137
0.000224051
-0.00109532
0.00106216
0.00013728
-0.000465952
0.000402921
-0.000343397
0.000278761
-6.37897e-05
4.27878e-05
-3.10821e-05
0.000113637
-2.91596e-05
0.000858763
-0.0010258
-0.000261906
0.000428941
-0.00021914
-0.000987835
0.00118855
1.84248e-05
-0.00121739
0.00122962
-0.000120368
-0.000521361
0.000462517
0.000328833
-0.00026999
-0.000551394
0.000526884
-0.000536555
0.000561066
-0.00021479
6.61469e-05
-7.23052e-05
-0.000440336
0.000643969
-0.000681022
0.000138667
-1.45908e-05
-0.00020513
-0.000174791
0.000169656
0.000210266
-6.26777e-05
8.29469e-05
9.29554e-06
-1.62909e-06
-0.00022472
-0.000949729
0.000905341
-0.000277836