/*--------------------------------*- C++ -*----------------------------------*\
| =========                 |                                                 |
| \\      /  F ield         | OpenFOAM: The Open Source CFD Toolbox           |
|  \\    /   O peration     | Version:  v1912                                 |
|   \\  /    A nd           | Website:  www.openfoam.com                      |
|    \\/     M anipulation  |                                                 |
\*---------------------------------------------------------------------------*/
FoamFile
{
    version     2.0;
    format      ascii;
    class       volVectorField;
    location    "0.11";
    object      U;
}
// * * * * * * * * * * * * * * * * * * * * * * * * * * * * * * * * * * * * * //

dimensions      [0 1 -1 0 0 0 0];


internalField   nonuniform List<vector> 
1466
(
(-1.70259 -0.146118 -2.23241e-16)
(1.58759 0.0599175 1.77385e-18)
(-0.467704 -0.117536 7.27641e-16)
(0.109224 2.68047 -7.27091e-17)
(-0.110189 -0.086864 -7.62043e-16)
(-0.374444 -0.0823429 -1.13453e-15)
(-1.64202 -0.410432 1.99725e-16)
(0.120003 -0.170699 2.11714e-16)
(8.16959 0.0196235 -1.22841e-18)
(-0.0579527 0.00187984 2.41739e-16)
(-0.758985 -0.0888005 -3.41876e-16)
(0.012581 0.0559953 0)
(9.95145 -0.279352 0)
(-0.00509676 -0.136317 -2.04523e-16)
(-0.243293 -0.152808 0)
(-0.575944 -0.153734 2.75413e-16)
(-0.0621109 -0.143674 -1.3968e-16)
(-0.01424 2.36481 -3.40997e-17)
(0.293592 3.94049 -1.024e-16)
(0.0445773 3.17765 2.34499e-16)
(0.0583883 3.53043 1.06663e-16)
(-0.0293301 -0.280565 8.66782e-18)
(-0.149611 4.11052 -7.03002e-17)
(0.0634578 3.13527 -2.52673e-17)
(9.20846 -0.145544 5.92266e-17)
(1.17317 0.215133 -2.63676e-16)
(-0.881081 -1.01731 -1.56928e-16)
(-0.131176 3.5541 0)
(-0.653063 0.0478431 0)
(4.69886 1.71625 5.23292e-17)
(-1.15274 -0.311802 2.37562e-16)
(1.51004 -0.0970041 1.62389e-16)
(-0.219712 -0.0581032 2.64735e-16)
(0.0481537 3.02284 2.55403e-16)
(1.96772 -0.164112 9.45286e-17)
(-0.486236 0.444828 2.94772e-16)
(0.125137 3.03311 0)
(-0.00238463 -0.096378 -3.56076e-16)
(0.260817 -0.0172711 -3.96577e-16)
(-0.276064 0.0287019 -4.47699e-16)
(-1.40308 0.0761158 -1.50679e-16)
(-0.42841 -0.121504 -4.3498e-16)
(0.147243 -0.148259 2.28185e-16)
(-1.14034 -0.227186 1.39764e-18)
(-0.0612648 -0.0469584 -4.91721e-18)
(-1.12306 -0.0620832 0)
(-0.258457 -0.280827 1.15052e-17)
(0.0911938 -0.0227495 0)
(-0.174367 -0.0372398 1.4502e-16)
(-0.0798177 -0.0349518 0)
(-0.708076 -0.103723 -1.04143e-16)
(1.24053 0.0455533 -4.42764e-16)
(-0.242368 0.0462112 7.15293e-16)
(-0.0372966 -0.00496741 7.20055e-16)
(-0.245681 -0.058832 -1.21393e-16)
(6.6854 -0.171563 1.02679e-16)
(-1.32959 0.107547 -2.24808e-17)
(-0.617405 -0.064682 0)
(-0.173257 0.0107278 1.27348e-17)
(-0.00987773 0.0264271 0)
(0.633769 0.821296 7.17973e-21)
(-1.32774 -0.192154 -1.20193e-16)
(-0.0960823 -0.240514 2.2264e-16)
(1.72585 0.0612331 1.7726e-16)
(-0.278011 6.85568 -1.60427e-16)
(0.535304 -0.220479 3.02062e-16)
(-0.474919 2.64666 0)
(0.123733 2.35731 4.41264e-17)
(6.8901 -0.296364 2.44341e-17)
(-0.842974 0.0418797 -1.99039e-16)
(0.708764 1.60995 1.21991e-15)
(-0.191287 3.43444 0)
(0.043477 2.58407 0)
(8.45992 -0.141659 -1.2846e-16)
(0.416591 0.688351 3.00142e-16)
(3.46784 -0.178132 -1.12268e-16)
(-1.26246 -0.11924 1.04629e-16)
(0.0263076 -0.149676 -1.26e-16)
(-0.244275 0.013993 0)
(4.6066 0.455003 0)
(0.0711481 -0.0781575 -1.99611e-16)
(-0.745811 -0.293403 -3.72279e-16)
(-0.668297 0.0145788 -3.27171e-16)
(0.418449 3.6556 2.77028e-16)
(0.00168536 2.6879 1.80907e-16)
(0.240416 3.34073 6.75654e-17)
(-0.0139656 3.0796 0)
(3.72326 -0.107787 1.4828e-18)
(0.0886753 -0.0691915 4.57308e-16)
(-0.620118 0.255278 -3.06659e-16)
(1.2957 0.243395 -9.63448e-17)
(-0.798843 -0.637346 -3.11107e-16)
(0.1174 1.83299 -7.47033e-17)
(-1.69407 0.388348 -2.05256e-16)
(0.127294 -0.389012 0)
(-0.336604 -0.0123732 -4.40486e-16)
(1.44739 0.0513132 3.73077e-16)
(-0.51793 -0.0195843 -1.1733e-17)
(7.05847 -0.262696 2.53989e-16)
(-0.21507 -0.0465589 1.08609e-16)
(-0.457037 -0.115648 5.60045e-16)
(-0.858547 0.051703 0)
(0.143225 -0.0168959 4.56785e-16)
(-0.0941762 -0.0579714 3.8191e-16)
(0.706127 0.00870248 -1.64857e-16)
(0.295128 -0.120395 9.32897e-17)
(-0.226649 0.0118507 -2.67525e-17)
(0.0262777 -0.0171593 0)
(-0.834128 0.0215502 2.75248e-16)
(-1.36415 0.0786705 7.93736e-17)
(0.794863 0.634279 -3.03916e-16)
(2.55489 -0.266389 3.55035e-17)
(-1.63993 -0.264731 -3.93716e-17)
(-0.109624 -0.150639 -5.41226e-17)
(-0.041002 -0.0173928 0)
(1.42039 0.303295 8.91002e-17)
(-0.544923 -0.329368 2.20122e-16)
(0.00681764 0.223338 0)
(-1.62467 -0.193549 1.49578e-16)
(-0.54296 -0.463666 -7.40043e-16)
(-0.0431943 3.40749 -5.57502e-17)
(-1.15475 -0.360973 3.01298e-16)
(0.132626 -0.039286 -1.35163e-15)
(-0.85878 -0.232818 0)
(0.0451608 -0.0709592 -9.2797e-16)
(-0.794753 0.275905 -6.23158e-20)
(6.40403 0.269169 4.36502e-17)
(-0.29507 3.72108 -7.90042e-17)
(0.0657389 3.26472 3.81706e-17)
(3.04488 0.491981 1.48018e-16)
(0.0294047 -0.0635338 3.12126e-17)
(-0.892626 -0.252627 0)
(-0.245886 4.10619 4.93381e-17)
(0.054375 3.17093 5.37723e-17)
(1.54845 0.101321 -1.49621e-17)
(-1.59212 -0.032642 0)
(-0.710765 -0.191093 0)
(-0.132235 -0.0384934 -1.21874e-17)
(-1.63152 0.00302749 -9.91393e-17)
(-0.466027 -0.234446 2.55026e-16)
(-0.14669 -0.000977755 0)
(-0.0524883 3.59372 -1.03686e-16)
(0.0489765 3.10415 -4.55324e-17)
(-0.0811565 4.075 -2.7471e-18)
(1.24202 -1.42393 -2.73924e-16)
(0.304152 3.41606 1.58659e-16)
(1.48795 -0.148092 -2.77869e-16)
(2.03766 -0.109775 -4.02276e-16)
(3.58614 0.772979 -5.91884e-17)
(-0.907797 -0.213541 1.11392e-15)
(1.37902 0.221894 1.79823e-16)
(1.72037 0.0639209 6.12065e-19)
(6.70107 0.0820195 -2.56703e-19)
(0.0329669 -0.519366 0)
(3.22132 0.665905 0)
(-0.175788 -0.295867 3.59484e-16)
(-0.149372 3.32328 -2.47212e-17)
(-0.0507399 3.05654 -2.60003e-16)
(1.59256 -0.242804 1.01007e-15)
(4.50395 4.55889 6.32958e-17)
(1.46082 -0.19601 1.19355e-16)
(5.74386 0.746705 0)
(0.245863 2.10276 9.45297e-17)
(-0.14071 3.20276 1.17743e-19)
(1.1903 2.48527 0)
(1.18418 -0.772427 1.82476e-16)
(0.096007 3.09237 0)
(-0.365472 3.86988 2.1982e-16)
(-0.225321 3.25812 -4.85838e-17)
(-0.284227 6.27636 6.40257e-17)
(-0.161147 3.45382 3.20904e-16)
(1.14421 -0.177709 -1.10308e-16)
(-0.0224635 -0.073426 6.39921e-17)
(6.90404 -0.117913 -1.38648e-17)
(1.83886 -0.000895404 -2.7466e-16)
(7.51219 -0.114164 -2.55865e-16)
(4.15641 2.20378 1.85715e-16)
(4.54528 1.29622 -6.99212e-17)
(0.91598 0.498149 -4.18943e-16)
(0.454273 2.09622 -2.49219e-16)
(9.57877 -0.489553 2.91666e-16)
(1.7348 0.0918418 -3.36064e-17)
(-0.148714 2.84936 -2.61622e-16)
(0.182167 -0.0864742 3.43851e-16)
(3.49112 -0.225679 -3.62676e-17)
(0.105446 3.25845 -5.16922e-18)
(0.0040724 2.65679 -1.8098e-16)
(1.029 3.93353 -1.61987e-16)
(6.52214 -0.46777 6.12092e-17)
(-0.547638 -0.165388 4.95138e-16)
(-0.0533001 3.56416 -2.22628e-16)
(0.497157 1.05613 -7.54401e-19)
(0.287487 0.984627 1.03184e-17)
(0.165336 3.3537 3.96307e-16)
(4.80252 3.80681 -3.88194e-17)
(1.07262 0.523895 0)
(-0.635047 -0.073134 4.16901e-18)
(0.897434 -0.0815233 -4.98786e-16)
(0.58147 2.6635 -3.12674e-16)
(0.470096 3.25393 -7.92879e-16)
(0.0735416 0.667273 0)
(3.29719 0.610071 0)
(5.51399 1.52332 -2.89945e-19)
(-1.65613 3.8308 0)
(0.962251 1.26441 2.36892e-16)
(0.786064 2.27933 -2.03025e-16)
(0.18586 3.3646 -1.91392e-16)
(5.27563 2.73852 0)
(1.80797 -0.219558 1.20698e-16)
(0.0658328 3.17119 3.17832e-21)
(0.111061 4.09121 9.76466e-17)
(0.0565382 2.67451 -1.6563e-16)
(-0.223213 3.25146 0)
(-0.183404 3.50066 2.57208e-16)
(0.0977693 3.47006 -6.50422e-17)
(-0.0368848 3.13179 1.49703e-19)
(0.0471199 3.25141 4.60126e-18)
(-0.0369387 2.58311 -1.6169e-16)
(1.79324 3.44201 1.67089e-16)
(0.0851103 3.18994 3.79924e-16)
(-0.368403 3.89137 -1.80732e-16)
(1.49266 0.220937 -1.25983e-16)
(-0.0899215 3.1095 -3.90816e-16)
(0.975645 0.704999 2.89423e-16)
(-0.174289 3.16792 1.48127e-16)
(1.57162 3.03842 -1.87378e-16)
(-0.218941 -0.16095 6.82575e-16)
(0.23179 -0.0354523 -3.209e-16)
(1.13627 0.372094 -3.05177e-16)
(1.55455 0.177506 3.66502e-20)
(0.421903 1.42982 -6.19638e-16)
(3.25068 -0.348906 2.16092e-16)
(0.197278 3.11346 1.702e-16)
(-1.12319 6.69438 1.65938e-16)
(-0.662783 -0.317504 5.9004e-17)
(1.13553 1.74136 -8.39453e-16)
(0.0696484 3.08357 6.68358e-17)
(-0.237249 3.98294 2.07784e-17)
(2.597 0.220551 2.1006e-16)
(-0.11066 3.43423 3.97441e-17)
(-0.144672 1.04532 0)
(4.80195 0.329392 4.30849e-17)
(4.71671 2.29402 9.68853e-17)
(0.573023 2.79113 3.47512e-16)
(2.21449 0.087659 0)
(6.01085 0.587949 0)
(1.56048 -0.015886 0)
(8.80702 -0.126644 0)
(4.18222 0.63598 -1.13043e-16)
(4.39039 2.72104 -9.26263e-17)
(0.0154897 3.44567 -9.29241e-17)
(-0.622217 6.53582 -2.4164e-16)
(4.8311 3.27274 3.59003e-18)
(-2.63189 -0.647207 -1.10479e-16)
(1.15728 -0.270583 2.88253e-16)
(1.88017 -0.121807 -2.49427e-16)
(-0.127871 3.25374 0)
(6.80303 3.65293 -2.0223e-16)
(0.116103 1.79229 -1.019e-16)
(-0.0290638 1.80773 1.41362e-16)
(-0.296053 0.896627 0)
(-0.258291 4.0214 -3.31712e-17)
(0.0389826 3.17924 -7.24567e-17)
(1.5649 0.107157 3.1726e-20)
(3.7143 5.11246 9.56426e-18)
(0.014537 -0.0356437 -3.7054e-16)
(1.49919 0.127521 2.83463e-16)
(3.46567 0.731098 -1.05505e-16)
(0.170914 3.30737 -3.34675e-17)
(7.48081 3.14327 -9.25362e-17)
(0.547306 2.37628 -1.68145e-16)
(0.0591303 1.9364 0)
(-0.0668257 0.582208 6.97411e-18)
(1.92736 -0.148583 -1.50625e-16)
(1.47962 0.174262 -3.65816e-16)
(0.847252 0.920751 5.58426e-16)
(1.28301 0.359528 -2.61869e-16)
(1.36939 6.94116 -1.3768e-16)
(-0.242281 3.20489 -2.18633e-16)
(3.84735 0.813538 1.5632e-16)
(1.6222 0.00362688 2.24808e-16)
(-1.70922 2.07699 2.28096e-17)
(2.16309 6.34083 0)
(5.27455 -0.0512345 -3.91728e-17)
(0.147303 1.23081 5.0915e-16)
(-0.054846 -0.204828 -2.07875e-16)
(3.85429 1.09767 0)
(3.48808 1.14969 -3.27315e-16)
(-0.263767 -0.0148894 0)
(5.87062 3.26446 -3.30812e-16)
(7.4504 0.411225 1.40595e-16)
(-1.72851 -0.19492 -1.36567e-18)
(9.75591 -0.359882 -2.94173e-16)
(-0.259799 0.00312591 0)
(2.08489 6.64046 1.2345e-16)
(1.09822 2.74324 -3.62998e-16)
(-0.000375924 1.83848 1.86821e-16)
(-0.0613754 -0.0853037 5.67509e-17)
(4.03465 1.02862 7.51087e-17)
(1.59673 0.082261 -2.64752e-16)
(0.0385516 -0.118011 0)
(-0.16787 -0.109019 2.72029e-16)
(0.187778 0.0654913 0)
(9.29227 -0.291054 -1.91527e-16)
(0.0415753 3.18959 0)
(0.21742 0.979123 1.39832e-16)
(-1.00018 2.4165 1.38294e-16)
(-0.176578 -0.107038 -3.19048e-17)
(0.796664 5.77152 -3.61395e-17)
(-0.46651 3.86825 1.16333e-16)
(6.84761 1.17492 1.56919e-16)
(-0.467119 3.58737 0)
(0.0828414 3.13518 -1.29529e-19)
(1.9907 0.727354 -1.81776e-16)
(3.12355 1.66313 -2.25923e-16)
(3.63377 2.22274 -3.38579e-16)
(1.53545 2.8693 0)
(3.07911 2.97643 2.42988e-16)
(-0.199098 -0.113018 0)
(-0.182243 -0.286229 3.98423e-16)
(0.305955 1.27433 0)
(0.0148544 1.97652 -1.94224e-16)
(0.0724844 1.66654 -9.00459e-17)
(1.60644 0.009649 3.25e-16)
(-0.00576509 2.97435 -4.11801e-17)
(4.81911 4.39065 -1.115e-16)
(-0.0105208 -0.143482 -1.11429e-16)
(2.31962 3.28575 -2.84764e-16)
(1.64097 -0.0285768 -2.74027e-16)
(1.72522 0.3495 2.22664e-16)
(-0.0960789 3.28202 1.37754e-16)
(5.38271 3.82803 6.56599e-16)
(-0.320594 -0.219474 -5.36448e-16)
(1.30241 6.64185 2.9799e-17)
(2.79083 4.99783 -1.39253e-16)
(6.11588 1.70787 6.58797e-17)
(2.62837 2.11473 -4.1081e-16)
(2.38789 0.0913108 3.76036e-16)
(-1.03958 2.43225 -2.19931e-16)
(-0.921663 -0.228227 -2.26667e-16)
(0.117515 0.0324537 6.88101e-19)
(5.59567 2.3367 7.78966e-17)
(-0.122153 -0.0908134 5.90468e-17)
(1.19231 3.67185 -3.49889e-17)
(-0.525799 6.00083 -7.8172e-17)
(0.313559 0.069002 -9.79665e-17)
(5.33463 -0.193745 -1.75065e-17)
(1.43464 4.75907 -9.81458e-17)
(5.94202 -0.55532 2.30059e-17)
(3.08931 3.57945 1.57239e-16)
(4.71335 5.09813 -2.68984e-18)
(7.11972 2.57109 -5.03655e-17)
(-0.601345 3.90692 -1.15895e-16)
(2.14502 2.83184 1.04961e-17)
(1.5668 1.00029 0)
(1.9567 5.01906 1.77495e-16)
(-0.290352 1.18655 -3.76982e-16)
(3.15178 0.537638 5.09198e-18)
(8.21075 2.16087 0)
(1.10254 5.35061 3.14265e-17)
(1.58701 0.503723 0)
(1.31213 6.61071 9.45615e-17)
(0.690343 7.10781 1.02819e-16)
(-1.14088 3.63526 0)
(-0.207722 -0.102149 -3.76954e-16)
(-0.352445 2.59273 1.32159e-19)
(6.25978 2.17792 5.98556e-17)
(6.75369 1.75728 4.98977e-17)
(-1.12178 -1.52282 1.66377e-16)
(0.828607 6.79994 4.6703e-18)
(0.523024 6.04407 0)
(0.462985 6.90832 8.61488e-17)
(0.300287 4.26144 -2.82331e-17)
(0.615091 6.43151 -4.31666e-18)
(-0.191998 -0.211594 8.16344e-16)
(0.01537 2.90379 7.18353e-17)
(-0.139658 0.117022 -4.21512e-17)
(0.247512 4.93242 7.16676e-17)
(-1.56012 0.0593987 6.13155e-16)
(3.01358 6.09306 -9.11292e-17)
(-0.666541 3.05876 1.26308e-16)
(-0.568724 2.89947 -4.15424e-16)
(-0.544686 3.02273 -2.64401e-16)
(-0.426264 2.96986 3.92664e-16)
(-0.31312 2.8096 0)
(-0.441318 2.85487 2.12745e-16)
(-0.145112 -0.115948 -2.8816e-17)
(-0.155656 -0.151721 -3.12664e-16)
(-0.168922 -0.133547 2.2185e-16)
(-0.157425 -0.140045 -5.55377e-17)
(0.126619 1.59724 2.38681e-17)
(0.226891 2.51154 6.72557e-17)
(-1.04053 3.35725 -7.163e-17)
(0.123062 2.46335 -7.90424e-17)
(-1.15959 2.95073 -2.69366e-20)
(-0.934182 2.04001 1.43954e-16)
(-0.161404 -0.227706 -6.84885e-17)
(0.212181 5.23173 -3.29935e-17)
(-1.2696 2.87291 7.38657e-17)
(-0.435667 1.82663 0)
(-0.201964 -0.23706 -2.32835e-16)
(-0.0162072 -0.215176 2.76639e-16)
(-0.207588 4.16476 0)
(-0.24265 -0.46767 3.25094e-16)
(-0.499456 5.27298 -2.91542e-17)
(-0.164592 -0.26464 -5.22337e-19)
(-0.099796 3.55689 -5.01416e-16)
(-0.478162 -0.00199614 -1.29061e-16)
(-0.595874 -0.564959 0)
(-0.209847 -0.414154 1.87505e-16)
(-0.170661 -0.508839 -1.62219e-16)
(-0.0674867 2.82799 -2.20406e-16)
(-0.0153335 1.25686 3.33757e-16)
(-0.193569 -0.223995 9.93686e-16)
(0.768318 -0.0479633 -1.64371e-16)
(-0.111774 -0.38406 0)
(-0.312507 -0.360912 0)
(0.13708 0.0260499 1.66907e-16)
(-0.124505 -0.3166 0)
(-1.41008 -0.187541 0)
(-0.0989624 -0.790256 -2.4733e-16)
(-0.101184 -0.401103 6.02015e-16)
(-1.35641 -0.290185 0)
(-0.141615 1.79969 1.40647e-16)
(-1.39317 -0.290399 1.43063e-16)
(0.0378993 -0.638957 -3.14036e-19)
(-0.369993 -1.52359 5.3598e-16)
(0.415916 3.38103 2.05555e-17)
(-1.44525 -0.393193 -7.63925e-16)
(-0.197055 -0.802729 4.35378e-16)
(-0.0725455 -0.137866 0)
(-1.27825 2.41671 -5.61957e-20)
(0.18538 -0.463443 5.96262e-16)
(-0.926236 3.49073 3.63679e-17)
(1.66783 0.0492163 -5.75747e-16)
(-0.486432 1.00984 -4.17282e-16)
(-0.253507 -0.201181 9.17991e-17)
(-0.924196 -0.0979045 -8.02384e-17)
(0.0688998 -0.126978 4.63285e-16)
(-0.0908047 -0.100327 -5.07131e-16)
(-0.367528 -0.207535 5.30344e-17)
(-0.032702 0.755784 -1.12187e-16)
(-0.118851 -0.0588075 3.82464e-16)
(-0.321055 -0.0927951 0)
(1.62956 0.0365103 -3.23646e-16)
(-1.3894 -0.284279 1.80353e-16)
(7.28163 -0.234372 7.13969e-17)
(1.63034 0.0387188 0)
(-1.42721 -0.361276 -1.1578e-16)
(-0.0798009 -0.000738089 2.46862e-16)
(1.64548 0.0912067 -6.99623e-19)
(-1.54094 -0.303744 -1.55083e-16)
(-0.309644 0.231892 -5.4602e-17)
(9.36476 -0.174102 2.91376e-17)
(0.0732323 2.07221 -2.68428e-18)
(0.0117312 0.901065 6.75247e-18)
(-0.0979335 -0.347775 0)
(-0.494879 0.306227 0)
(-0.00573443 0.78192 0)
(1.61061 0.0684825 2.86272e-16)
(-0.149803 -0.102246 -6.17902e-16)
(0.015566 1.5662 -2.96932e-17)
(-0.319144 -0.113986 -2.97309e-16)
(-0.201856 0.934895 7.77296e-16)
(-0.222028 -0.0120827 2.83568e-16)
(-1.34425 -0.303081 -1.71917e-16)
(-0.298562 2.66433 -1.57096e-16)
(-0.154907 1.39845 -4.39232e-17)
(-0.74692 1.35917 -7.64758e-17)
(-0.452876 2.69528 7.91406e-17)
(-0.381217 1.26351 1.72264e-16)
(-0.0263316 0.0404247 3.19385e-19)
(-0.225179 -0.126164 -7.96373e-16)
(0.210474 -0.120967 8.76462e-21)
(1.56257 0.126229 1.65652e-16)
(-1.14902 -0.0292802 7.32894e-19)
(0.151702 0.0181237 -3.21631e-16)
(-1.82655 4.33786 0)
(-1.95008 5.72758 0)
(-2.70683 4.84874 -6.74965e-18)
(0.428913 6.75158 -9.95344e-17)
(-0.0961821 1.65324 3.23878e-16)
(0.115139 3.00628 -2.47009e-16)
(-1.92551 5.30492 8.28176e-17)
(-2.35846 5.38804 -2.74493e-17)
(4.18323 3.75174 -2.17936e-16)
(-1.14664 0.495273 -1.93189e-16)
(0.187844 0.0493188 2.99683e-16)
(-0.250096 7.09126 -7.50756e-17)
(0.156288 7.08967 9.41286e-17)
(-2.32041 5.72555 1.07312e-16)
(-0.1309 3.48934 6.86284e-17)
(-0.132194 -0.188588 -2.75819e-16)
(-0.154996 2.65255 1.59083e-16)
(-1.97585 3.99573 0)
(0.149658 2.72553 3.90039e-17)
(0.108565 2.90787 0)
(-0.187552 2.78111 9.16176e-18)
(2.85007 2.30503 0)
(-0.874277 3.39543 8.89652e-17)
(-0.304282 2.91413 0)
(-0.285973 3.04662 0)
(-0.287911 0.588765 4.67447e-20)
(-0.467006 0.282511 3.40089e-16)
(0.144516 0.181023 -3.38201e-16)
(-1.10017 3.82143 0)
(0.548894 5.54674 0)
(1.5969 0.165562 2.44771e-16)
(-1.3057 0.757582 1.3725e-16)
(0.156049 2.87215 0)
(1.82527 0.00128979 3.16317e-16)
(-2.26627 5.00208 -1.39188e-17)
(-1.37885 3.72054 5.57286e-17)
(-0.262111 1.68597 -1.35813e-16)
(0.153145 2.95183 -1.44252e-16)
(-0.983504 3.52911 -1.23837e-16)
(-0.233414 1.9277 -2.98486e-17)
(9.58165 -0.377931 -2.64041e-16)
(7.60036 -0.670337 7.31668e-18)
(0.00919397 -0.250631 9.72567e-16)
(-0.201121 2.86168 -8.08798e-18)
(-0.882646 1.74551 2.87879e-16)
(-1.53208 5.10319 7.1592e-18)
(2.78924 3.8559 0)
(-2.07508 4.63722 0)
(-0.466018 2.39577 4.61786e-17)
(-0.676134 1.9287 0)
(-0.434719 -0.761321 -5.00548e-16)
(-0.278899 2.38509 -6.48976e-17)
(-1.8166 4.91727 -1.13272e-16)
(-1.89328 0.382287 1.77915e-16)
(-0.645436 2.95445 -4.37604e-17)
(1.15573 5.31404 -1.87278e-16)
(0.066288 2.68342 0)
(0.0205153 2.79188 0)
(-0.446479 1.9061 -5.51355e-17)
(2.8128 6.21703 0)
(0.711678 5.09772 0)
(-0.0709818 1.99934 0)
(0.0461903 2.61242 -2.61732e-16)
(3.61773 4.31961 9.22552e-17)
(-0.468492 0.459042 -3.25347e-16)
(0.139632 0.300784 -3.20285e-16)
(-1.19878 3.4191 1.85418e-16)
(-0.123282 2.39528 8.45267e-17)
(1.86103 6.29792 -4.08915e-17)
(0.0051139 2.4222 2.5565e-18)
(3.52428 5.65246 -4.74442e-17)
(-1.22014 4.92168 -5.98402e-17)
(1.55226 0.239928 1.3301e-16)
(-0.902799 -1.76674 2.33162e-16)
(-1.19645 1.6353 9.37244e-17)
(0.251789 0.357904 -6.29263e-17)
(-0.0745702 2.77571 -1.44329e-17)
(-0.423885 2.16644 5.25568e-17)
(0.199083 2.97561 2.45808e-16)
(0.201275 2.92188 -7.9e-20)
(-0.915649 3.3043 3.3815e-17)
(1.73269 0.27478 1.27761e-16)
(4.19584 5.00551 -2.03458e-16)
(-1.64568 4.59481 1.49154e-17)
(0.958159 3.22926 1.61266e-16)
(1.58662 0.05677 2.88911e-16)
(1.82261 4.01813 3.19326e-17)
(7.99229 -0.574686 -2.4609e-16)
(-1.21244 3.19413 6.72733e-17)
(-0.0339981 2.65974 9.8921e-18)
(-1.43517 4.79504 -1.4822e-17)
(0.929148 4.47204 6.19862e-17)
(-0.051593 2.9425 1.59377e-16)
(0.0132439 3.03069 3.63968e-17)
(-1.28972 4.54317 0)
(2.88542 0.416562 0)
(3.64695 1.62953 5.13225e-16)
(-2.47287 3.74916 -5.25483e-18)
(-0.58071 3.92001 8.48617e-17)
(6.89001 3.44211 -4.13341e-17)
(-0.0398399 2.88828 3.92909e-17)
(0.0977042 2.82575 -1.91303e-17)
(-2.43011 -1.12348 3.83113e-16)
(-2.55409 4.53746 -4.66419e-17)
(-0.0115209 2.94874 -7.38987e-17)
(0.0537704 2.86552 1.47998e-16)
(-1.31834 3.952 -1.73679e-16)
(-0.770748 3.20866 2.38194e-16)
(-2.29081 4.2384 5.46677e-17)
(-0.199969 3.53799 7.25728e-20)
(8.37922 1.28048 1.01901e-17)
(0.212455 2.78708 -2.40117e-16)
(-1.07085 3.1887 -1.12186e-16)
(0.0204973 3.13691 -1.5036e-16)
(2.44276 5.7727 0)
(2.20288 -1.1403 0)
(-0.01824 2.83882 -1.54951e-16)
(0.102333 3.47832 1.05518e-19)
(0.0129479 3.16388 5.09522e-17)
(0.515024 4.03589 9.16415e-17)
(-0.887435 4.75508 7.708e-18)
(-2.76917 3.98304 1.75164e-18)
(-1.01498 4.95619 2.25462e-17)
(1.64387 2.80903 0)
(5.95663 4.17995 -6.26218e-18)
(6.18991 4.24738 -8.85597e-17)
(1.09854 6.1832 4.02948e-18)
(0.0730762 2.83531 -9.33605e-17)
(1.90047 -0.74182 -2.09193e-16)
(1.74358 -0.0225423 -2.30715e-16)
(0.166857 -0.101393 -1.54649e-16)
(-0.158101 -0.103287 -1.30898e-16)
(-0.397196 3.11228 0)
(-2.06539 3.5388 6.17781e-18)
(-0.0975211 1.60494 0)
(3.02724 5.08555 0)
(3.87015 5.76596 4.56429e-17)
(-0.00837974 2.02169 0)
(3.72065 3.01533 1.26247e-16)
(4.16278 1.6262 -1.34397e-16)
(2.36188 4.55468 6.02362e-17)
(7.21055 0.615703 0)
(-0.405415 3.69544 -1.16864e-17)
(1.49945 5.78252 1.47939e-17)
(-0.0892756 -0.15079 4.39229e-16)
(1.82993 -0.0880348 -1.51861e-16)
(4.67776 5.29828 2.64146e-16)
(5.57103 -0.422713 -4.92985e-18)
(-0.101704 2.83452 1.60482e-16)
(-0.0921352 1.94224 1.78602e-16)
(1.95502 -0.234116 1.21303e-16)
(1.1889 1.59195 -1.78648e-16)
(0.0730055 2.939 0)
(-2.70063 5.09021 -3.69553e-17)
(6.18944 2.71743 1.14758e-16)
(7.17023 0.971233 -1.01631e-16)
(5.56127 4.79677 6.87963e-17)
(-0.101294 2.89705 -8.51307e-17)
(7.72578 2.35428 5.80053e-17)
(-0.711222 4.15828 -1.34883e-20)
(-0.908041 4.7873 -3.1798e-17)
(3.06595 1.17148 4.08398e-16)
(0.145974 2.61768 7.1173e-17)
(-1.11226 4.70201 6.42266e-17)
(-0.385431 3.67891 3.96808e-17)
(-0.619915 4.17422 8.67337e-18)
(1.2391 0.50933 2.33283e-16)
(-0.252658 3.22619 -1.39904e-16)
(5.35499 4.7626 -1.13957e-16)
(1.35861 0.290333 1.14047e-16)
(-1.06704 4.03592 0)
(-0.722447 4.56601 4.02978e-18)
(1.92823 5.22926 -3.06769e-17)
(-0.164582 2.93528 -8.36109e-17)
(8.92525 -0.469996 3.50691e-16)
(1.37181 0.846403 -1.91481e-19)
(-0.136801 -0.09537 3.18395e-16)
(-0.618255 6.27202 1.28525e-16)
(-0.351397 3.29001 2.53912e-16)
(-1.12787 2.02192 1.52098e-16)
(-0.169262 1.85707 2.06347e-16)
(1.66889 -0.0891832 3.4335e-16)
(8.71384 0.810051 6.25598e-17)
(-1.55273 5.47104 -8.10003e-17)
(3.26996 -0.425426 4.49155e-18)
(-0.970305 0.739959 4.58121e-16)
(6.47654 3.56957 0)
(-2.14012 5.90766 0)
(2.5842 0.338963 1.34696e-16)
(-0.608419 0.772916 7.40701e-19)
(2.84935 0.787551 0)
(-0.300154 0.37422 0)
(-1.37765 1.2535 0)
(-0.164217 -0.097696 -5.74335e-17)
(2.18601 -0.00880126 5.02342e-17)
(-1.71576 0.535581 0)
(0.170643 -0.00828186 1.05257e-15)
(0.0264788 -0.242928 -1.11611e-15)
(0.0357641 -0.153693 1.84738e-16)
(-0.165052 -0.146363 -3.46397e-16)
(0.5564 0.201586 2.65676e-17)
(-1.33728 -0.0938209 1.36296e-16)
(6.95799 2.33801 2.72302e-16)
(0.030389 2.75248 8.25198e-18)
(-0.166852 -0.108764 -2.72318e-17)
(1.38663 0.10954 8.29592e-16)
(-0.50973 1.21553 0)
(0.617958 0.242865 -3.30038e-16)
(1.47231 0.333557 2.5577e-16)
(1.70415 0.302294 0)
(-0.128911 0.0472005 2.27007e-16)
(-2.90579 4.28345 7.181e-18)
(-0.10342 0.108997 0)
(0.184097 5.65196 7.90523e-17)
(7.45455 1.73729 -3.75549e-17)
(6.89226 2.9896 -1.901e-16)
(-0.101008 4.96803 -1.63546e-16)
(1.03123 0.296284 2.93293e-16)
(-0.015016 0.0181566 -7.8302e-16)
(-0.309862 5.44107 -9.69602e-17)
(-0.456778 -1.18754 -1.08565e-16)
(1.94124 0.249093 -4.24687e-18)
(-1.56385 4.11471 8.94559e-17)
(-0.180765 3.39193 2.28418e-16)
(1.42542 0.311811 0)
(-0.167375 0.0715484 2.06894e-16)
(1.62356 0.00283601 0)
(-0.514346 3.16699 0)
(-0.761004 3.35918 1.46559e-16)
(2.60087 0.30166 -1.6353e-16)
(-0.989247 1.54282 9.0203e-17)
(0.132658 -0.0162534 3.70719e-16)
(-0.639841 3.20251 -1.25255e-16)
(-1.72131 3.47267 0)
(-0.117835 3.17813 2.70501e-19)
(-2.14848 -0.248696 3.32582e-16)
(-0.486197 3.47949 3.83444e-17)
(-1.01377 4.51693 7.12778e-17)
(-0.0371027 2.87245 2.30541e-16)
(3.68452 1.76586 -4.75785e-17)
(-0.840799 3.64304 -2.41125e-20)
(0.41537 2.31812 -1.51817e-16)
(3.57738 0.697079 -9.43999e-17)
(4.0403 -0.201302 5.98221e-17)
(-0.558363 -0.312453 -3.23721e-16)
(-0.550437 1.73569 0)
(0.0999176 1.3098 0)
(-0.155567 1.95424 0)
(-0.071751 3.04738 4.54865e-16)
(0.100487 2.65725 -4.23088e-17)
(-0.653912 2.39786 0)
(-0.897425 2.87646 0)
(0.44921 0.070613 5.77443e-17)
(-0.0292404 -0.169464 1.00646e-16)
(-0.0362077 1.19797 2.87275e-16)
(0.99176 -1.57894 3.72222e-16)
(-0.117705 -0.225922 0)
(-0.361161 0.911934 -5.87185e-17)
(1.55942 1.9582 7.85896e-16)
(-0.0810645 2.49929 6.8934e-21)
(-0.839709 4.58726 0)
(-0.298546 -0.0919144 -2.98396e-16)
(-1.2679 5.18071 5.05925e-17)
(0.091157 2.98381 1.33292e-16)
(-0.00648193 -0.215986 1.50206e-16)
(-0.214663 3.02731 0)
(-0.611237 -0.120234 1.8941e-16)
(0.152098 -0.951421 6.65054e-16)
(-1.36585 -0.570079 3.0846e-16)
(2.26176 0.0619752 0)
(0.0984743 0.575087 2.76318e-17)
(-1.42006 3.45584 -1.15361e-16)
(6.17779 0.42279 -9.39484e-18)
(0.063359 2.6945 -2.44956e-17)
(-2.46963 -1.76841 -3.79387e-16)
(1.36306 0.156124 5.25801e-20)
(-0.0829037 0.0815827 1.79362e-16)
(-0.389998 1.27723 4.27508e-16)
(-0.0499264 0.926572 -1.40194e-16)
(0.435366 3.37939 1.96679e-16)
(0.181297 2.63346 0)
(8.26994 0.0967522 -1.07867e-16)
(0.0456902 3.36894 -8.95426e-17)
(0.01707 2.68179 8.89383e-17)
(-1.75361 1.18908 1.75745e-16)
(1.17737 0.704663 6.09328e-19)
(2.67957 1.4128 -4.70494e-17)
(-1.35484 6.29873 -4.69748e-17)
(5.20445 1.93533 0)
(-0.152557 3.3932 -3.28276e-17)
(0.739551 0.778089 0)
(-0.421845 0.265976 0)
(-0.0676927 3.13627 2.73125e-16)
(1.97511 0.0310108 -8.37621e-17)
(-1.88708 2.76555 5.00933e-19)
(0.130959 -0.0968343 3.06343e-16)
(-1.22053 -0.271166 1.93062e-16)
(-0.349562 -0.833912 1.12571e-18)
(-0.234399 2.89025 -4.62963e-16)
(2.2415 2.03949 3.31789e-17)
(0.282543 0.180823 3.71471e-16)
(-0.605185 2.72137 -3.64432e-19)
(-0.0697122 3.02528 2.13473e-16)
(0.18397 2.08162 0)
(-1.1723 2.60963 3.70624e-17)
(-0.0974204 3.56211 4.28272e-17)
(-2.26453 -0.337292 -1.92908e-17)
(0.142356 4.09447 -6.27395e-17)
(0.00903311 -0.204189 -2.92413e-16)
(-0.11392 -0.231073 4.23906e-16)
(0.144369 2.98899 0)
(-0.770295 3.5216 8.16237e-17)
(0.0489429 6.48204 -1.53326e-16)
(-0.693073 2.92672 1.30176e-16)
(-1.75948 5.7966 -2.65987e-16)
(-0.252574 2.87483 0)
(-1.59845 1.89151 -4.44487e-16)
(1.76689 0.0727443 -1.28452e-17)
(7.96911 0.761112 -5.55916e-17)
(-0.852489 4.30727 1.40476e-16)
(-0.327896 -0.830721 1.4746e-17)
(-0.355853 -0.34849 -3.08271e-16)
(0.185696 0.871096 -6.79386e-17)
(-1.01096 2.25463 -2.61121e-16)
(0.343125 -0.795115 -1.94741e-16)
(-0.021368 3.00173 1.55342e-16)
(-0.21299 -0.148294 -3.67483e-16)
(4.87361 2.97163 1.88063e-16)
(0.0586519 -0.0893421 -4.71898e-16)
(0.0669171 0.344601 1.85275e-16)
(8.32967 -0.391348 6.73262e-17)
(-0.23888 -0.532771 7.0857e-19)
(0.17108 2.67717 1.45694e-16)
(-0.0772546 2.64729 7.72006e-17)
(-1.06142 5.12862 -7.28752e-17)
(-0.270672 3.58304 4.73118e-18)
(0.0385233 3.31465 1.50661e-16)
(1.08662 0.957546 3.84558e-20)
(-0.263477 -0.126579 2.82712e-16)
(0.730377 0.0126388 -8.37694e-17)
(-0.140799 3.41268 0)
(1.53018 0.16253 -1.71047e-16)
(-0.817381 4.39371 -8.39236e-17)
(1.09982 -0.236799 -1.01379e-16)
(-0.934514 3.78551 4.24777e-20)
(-0.549994 0.0631125 -3.40033e-16)
(4.2231 0.96183 -8.60021e-17)
(0.201839 -0.361904 2.27592e-16)
(-1.2493 -0.328647 1.91622e-16)
(-0.27792 1.96808 0)
(8.4183 0.73469 0)
(7.94553 0.271979 4.06084e-17)
(-0.195711 3.40151 0)
(4.40653 0.572298 0)
(1.94282 1.23111 -2.03797e-16)
(-1.64323 3.07506 0)
(-0.362004 -0.281742 1.63643e-16)
(-1.29507 -0.188389 2.18135e-16)
(-0.0854809 -0.496585 -2.53888e-19)
(-0.50629 -0.515631 -1.13369e-16)
(0.0381524 0.142519 -4.00617e-16)
(-1.57314 2.41594 3.23515e-19)
(-1.4132 2.73751 0)
(-1.39677 3.17563 -6.52646e-17)
(-0.531274 3.66708 1.38885e-16)
(-1.44233 4.34315 3.10113e-17)
(-1.62833 -0.183559 -4.3667e-19)
(0.204052 -1.94135 0)
(0.308535 4.9387 3.01417e-18)
(2.20934 0.00901632 -1.24704e-16)
(-0.00349138 3.01683 2.81967e-16)
(1.73203 0.106485 0)
(0.799793 -0.778504 -6.32885e-16)
(-1.38857 -1.81481 2.02063e-16)
(5.21866 -0.320874 3.50605e-17)
(-0.0444326 2.62068 -9.66639e-17)
(0.321944 2.67288 0)
(-0.971499 3.02404 1.3781e-16)
(2.1722 0.0252106 6.21306e-16)
(3.57809 0.163508 -7.98855e-19)
(1.86103 0.242727 6.1281e-16)
(0.221893 -0.281289 9.26284e-17)
(-0.434628 3.2715 -1.91755e-16)
(-0.76889 7.00499 -2.35674e-16)
(0.0236465 2.97545 -5.34749e-16)
(9.22771 -0.538191 2.76127e-19)
(-0.902786 2.63528 -5.24929e-16)
(0.803137 0.369335 -1.42612e-17)
(-1.47956 -1.57504 1.58716e-16)
(-0.257192 2.39901 1.01022e-16)
(0.00581657 1.85875 -3.3889e-16)
(1.88932 0.137707 2.88446e-16)
(0.244504 2.86873 7.94227e-17)
(-0.976057 3.16834 -8.81355e-17)
(1.13589 0.120946 5.05364e-16)
(1.67161 -1.68941 -1.01068e-16)
(1.69609 -0.247543 -6.05552e-17)
(-1.8722 6.13345 -9.72086e-17)
(-0.834567 2.29749 -8.33122e-19)
(-1.24151 4.1522 0)
(0.0867356 2.45532 0)
(0.0754432 2.35254 0)
(0.082826 2.5108 -6.09501e-17)
(-0.039412 2.14832 4.01251e-17)
(0.0537978 2.21442 0)
(-0.0713451 2.31015 0)
(0.0101021 2.12464 0)
(0.0608826 3.14293 -1.30701e-16)
(-0.0833755 3.85232 0)
(-0.0231842 3.86251 0)
(0.0791491 3.0163 1.31858e-16)
(0.0269746 3.17229 0)
(-0.00878632 3.16777 -6.18848e-17)
(0.0941515 2.86686 3.15798e-17)
(-0.147903 3.70587 0)
(0.0359203 3.71727 -1.18015e-16)
(0.117674 2.51047 -5.80178e-17)
(0.109271 2.69495 3.53314e-17)
(0.0880903 3.43661 1.27939e-16)
(0.127213 3.04916 3.67205e-17)
(0.21896 2.43317 1.71624e-17)
(0.164279 2.71546 -2.03543e-17)
(-0.0317468 3.14782 6.44119e-17)
(-0.0427838 3.13786 0)
(-0.0517372 3.12319 0)
(0.0650703 2.57067 6.08485e-17)
(2.8591 -0.375151 4.09785e-17)
(9.93256 -0.226204 -1.80117e-18)
(0.616995 0.0785209 -2.95341e-16)
(1.24042 -0.885535 -8.95817e-17)
(-2.57609 2.99135 -1.37788e-16)
(-0.776207 -0.302299 -2.13924e-16)
(-1.27248 1.66627 2.79232e-16)
(0.0240257 -0.09646 3.13228e-16)
(-0.185319 -0.0997005 0)
(-0.60806 3.9546 -2.35395e-16)
(0.0133551 3.22024 -9.73406e-17)
(-0.109589 3.1039 -8.34296e-17)
(-0.378724 -0.273922 -5.47615e-16)
(2.23277 0.12876 0)
(8.03324 1.56258 -9.90961e-18)
(-0.185854 0.0136638 -2.01302e-16)
(-1.0497 2.04485 1.54437e-16)
(2.13457 -1.55363 9.2392e-17)
(1.69702 -0.000659949 9.0575e-16)
(-0.416943 1.90635 1.99007e-16)
(1.66249 0.0266183 0)
(-0.025542 5.93965 3.85902e-16)
(-1.14209 4.34658 0)
(0.343331 -0.504252 0)
(-0.0710435 3.07685 0)
(-1.1403 -0.189757 8.86247e-17)
(0.10249 -0.0172641 2.24756e-16)
(7.82091 0.791492 -2.45805e-16)
(0.484565 -0.0618383 -2.08508e-16)
(9.15123 -0.145321 -6.54691e-17)
(-0.231177 0.882955 0)
(0.0507508 -0.281824 0)
(2.5758 -1.61443 -9.9244e-17)
(-0.0165861 3.02135 3.38866e-16)
(-0.423308 0.294846 0)
(0.0936704 -0.870867 -3.60899e-16)
(-1.37133 -0.426076 0)
(-0.196222 -0.0774297 0)
(2.06738 -0.0420893 3.12105e-17)
(2.15974 0.376906 8.72564e-19)
(-0.0322894 3.10891 -7.62166e-17)
(-1.42015 -0.260807 -3.97596e-16)
(-0.213997 -0.421579 3.33665e-16)
(2.03294 0.343107 -1.73353e-16)
(-0.0658191 2.51475 0)
(5.71749 -0.531844 2.7835e-17)
(7.96884 1.20197 0)
(1.29364 1.30135 -4.27811e-16)
(0.249313 -0.555432 -3.3633e-16)
(4.45016 0.807659 -2.71609e-16)
(-0.107189 -1.45337 -2.25419e-16)
(0.765447 0.00686488 -2.52259e-16)