/*--------------------------------*- C++ -*----------------------------------*\
| =========                 |                                                 |
| \\      /  F ield         | OpenFOAM: The Open Source CFD Toolbox           |
|  \\    /   O peration     | Version:  v1912                                 |
|   \\  /    A nd           | Website:  www.openfoam.com                      |
|    \\/     M anipulation  |                                                 |
\*---------------------------------------------------------------------------*/
FoamFile
{
    version     2.0;
    format      ascii;
    class       volScalarField;
    location    "0.14";
    object      k;
}
// * * * * * * * * * * * * * * * * * * * * * * * * * * * * * * * * * * * * * //

dimensions      [0 2 -2 0 0 0 0];


internalField   nonuniform List<scalar> 
1431
(
0.175542
0.159571
0.049872
0.223949
0.0992886
0.112556
0.162585
2.37091
0.0908769
0.152335
2.02378
2.00724
0.220522
0.271651
0.139362
0.154348
0.275445
0.0505226
0.301917
0.0778199
3.3979
0.545957
0.112939
1.88163
0.101643
0.209992
1.59461
0.129443
0.100081
0.215316
0.18475
0.132107
0.178625
0.186832
0.175799
0.107638
0.0808981
0.063788
0.176367
0.131719
0.10592
0.0933799
0.235841
0.249065
0.130714
0.0841909
0.237657
1.4884
0.169968
0.126535
0.134134
0.217324
0.17346
2.97352
0.112999
0.125885
0.0946469
2.65251
0.244184
0.0671549
0.131172
0.207732
0.0855973
0.0596754
0.116753
0.16666
0.0939924
0.125185
0.0453044
0.238064
1.49184
0.192879
0.103848
0.156613
0.242646
0.0709227
0.0452834
0.0777391
0.138544
0.0421663
0.264708
0.0696432
0.133583
0.190374
0.622792
0.279848
0.106925
0.128083
0.32253
0.224905
0.155885
0.123723
0.062724
0.158799
0.0926796
0.156648
2.74696
0.214692
0.293134
0.0551172
0.146455
0.257712
0.296913
0.0540838
0.068297
0.33586
0.213579
1.37422
0.12274
0.258368
0.0582249
0.185088
0.124294
0.120939
0.120462
0.0838227
0.233951
0.139141
0.127688
0.0662962
0.286529
0.15337
1.08934
0.226571
0.981747
0.119019
0.0467518
0.124992
0.058482
0.0948408
0.266611
0.0387232
0.097163
0.265992
0.111412
0.145892
0.0796772
0.303708
0.836801
0.0470884
0.0936877
0.212325
0.258944
0.041141
0.151238
0.175275
0.118483
0.185082
0.138241
0.104304
0.123995
0.0531253
0.136646
0.129672
0.196364
0.0750772
0.609418
0.280337
0.180911
0.115094
0.63161
0.183041
0.124025
0.104858
1.19311
0.148885
0.137044
0.094889
0.103469
0.158673
0.419793
0.247759
0.137378
0.809308
0.185943
0.570275
0.0944535
0.116876
0.158628
0.227446
0.155973
0.196279
0.238778
3.9385
0.119993
0.216296
0.547594
0.222354
0.233439
0.45285
0.269379
0.204708
0.162285
2.37011
0.149471
0.323458
0.297787
0.220631
0.0489658
0.137024
0.237037
0.121837
1.7511
0.101216
0.215589
0.278221
0.211871
0.0615123
1.06834
0.130301
0.726335
0.125662
0.211502
0.343295
0.813667
0.109394
0.166874
0.22571
0.112326
1.88881
0.161114
0.234763
0.261559
0.113805
0.210266
1.61489
1.48632
0.173566
0.14002
1.41982
1.44383
0.185081
0.380389
0.152807
0.134688
0.342701
0.205648
0.370232
0.260191
0.215871
0.114298
0.139455
1.2851
0.336752
0.238158
0.626423
0.373746
1.52262
0.172721
0.0866089
0.117059
0.634026
0.119033
0.141028
0.273191
0.081782
0.123309
2.15756
0.401812
0.16927
0.250648
0.786265
0.151285
0.095255
0.24909
2.1471
0.0999724
3.75564
1.52801
0.0783244
0.146705
0.191191
0.143035
0.199011
0.69349
0.137591
0.704053
1.43161
0.210203
0.184136
0.220012
0.07723
0.175229
0.135981
0.105709
0.190843
0.0849843
0.290224
0.595855
0.213366
0.0389153
0.0839879
0.242554
0.152794
1.11559
0.124428
0.673692
0.243423
0.182506
0.225251
0.216703
0.0517944
0.138021
0.188604
1.06936
0.127891
0.244128
0.19204
0.0841411
0.149066
0.409831
0.101174
0.176227
1.59259
0.087806
0.342171
0.221212
0.109049
0.0698721
8.75598
0.28282
0.336591
0.0613235
0.152135
0.168903
0.0485675
0.0517224
0.0832871
3.93922
0.135465
0.298857
0.0700962
0.0848118
0.715431
0.111268
0.210419
0.0790431
0.297168
0.153442
0.739616
0.056692
0.222221
0.444594
0.110251
0.0919545
0.403338
0.184785
0.620876
0.357021
0.152495
0.171261
0.102709
0.203103
0.222402
0.122576
0.0955767
0.835475
0.62071
0.609702
0.093545
0.710427
0.195566
0.259226
0.134975
0.0637516
0.622696
0.0923164
5.40956
0.114013
0.430428
1.73178
0.136066
0.312561
0.157078
0.103007
3.62239
0.284314
0.125728
0.275288
4.63106
0.143171
0.122091
0.163844
0.120008
8.30446
0.0936337
0.186397
0.101896
0.173432
0.119606
0.120321
0.255813
0.265466
0.132085
0.479511
0.227235
0.134777
0.122395
0.0929326
0.109089
0.238445
0.0978259
0.398707
0.0794974
0.144958
0.148824
0.105654
0.11063
0.101718
0.157935
0.295656
0.19668
0.166112
0.262384
0.100478
0.0856438
0.149811
0.0887103
0.123128
0.174713
0.214124
0.22245
0.120591
0.168991
0.184663
0.152116
0.0934542
0.51882
0.101947
1.3554
0.110527
0.0935394
0.0877412
0.088871
0.0865524
0.0950688
0.103414
0.0935721
0.106989
0.09587
0.150837
0.812907
0.119862
0.0958688
0.084899
0.0789417
0.076106
0.0714029
0.20952
0.419806
0.29877
0.149897
0.230169
0.107364
0.268662
0.197122
0.607902
2.26659
0.10689
0.106128
0.516149
0.145882
2.10003
0.241216
0.131193
0.141215
0.0904588
1.97151
0.148753
1.87049
0.216861
0.218184
0.0632407
0.79202
0.859623
0.72947
0.15683
0.0914808
0.0732414
0.177685
0.931359
0.0775406
0.888119
0.124346
0.0708851
0.748011
0.0609783
0.070102
0.0638005
0.0696915
1.01403
0.151098
0.0642216
0.0729658
0.64815
0.0658919
0.0728324
1.09755
0.159308
0.149108
0.262383
0.105657
0.102273
0.106819
1.0631
0.749114
0.108786
0.13691
0.157286
0.123939
0.074143
0.745445
0.0839588
0.079988
0.125978
0.195511
0.261987
0.0763674
0.67547
0.817485
0.201489
0.147786
0.131816
0.134654
0.103691
0.152203
1.03279
0.131504
0.137523
0.112365
0.24084
0.140535
0.185633
1.03044
0.0939334
0.166505
0.193854
0.205013
0.100283
0.136502
0.17792
0.116489
0.130582
0.144109
0.141273
0.21269
0.189166
0.222618
0.154441
0.0802187
0.155917
0.0981307
0.0940437
0.199062
0.146716
0.891302
0.146463
0.267328
0.206051
4.60109
0.0814796
0.90175
0.441284
0.105195
6.57441
0.0817781
0.131581
0.109223
0.280224
0.076579
0.196437
0.63295
0.113068
0.130885
0.0624703
0.189776
0.160031
0.148093
0.140477
0.0995392
0.19486
0.452834
0.153144
0.196172
0.205208
0.176287
0.29426
0.143188
0.0643936
0.1199
0.218017
0.154973
0.14032
0.112325
0.197592
0.122321
0.600891
0.194135
0.233216
0.917131
0.291027
0.158533
0.155497
0.131817
0.277935
0.14081
1.2835
0.29994
0.188021
0.0808163
0.157371
0.0906168
0.260211
0.146465
0.120327
0.0825185
0.573959
0.112125
0.274038
0.239802
0.132868
0.266572
0.0840735
0.222836
0.119787
0.207194
0.100096
0.110811
0.361943
0.170178
0.183411
0.141922
0.127258
0.121131
0.201653
0.237874
2.10336
0.127627
0.132801
0.235732
0.0931252
0.448587
0.144101
0.170983
0.144012
0.134025
0.224032
0.174806
1.04622
0.240748
0.280262
0.0750111
0.145637
0.259624
0.0848211
0.150786
0.0996032
0.274401
0.273405
0.393422
0.542687
0.105518
0.217358
0.14387
0.269721
0.518533
0.148597
0.206316
0.156267
0.100509
0.198289
0.0995431
0.532382
0.0997002
0.278186
0.358905
0.557572
0.72892
0.125953
0.179823
0.181586
0.0932962
0.171353
0.513522
0.114449
0.0713675
0.218284
0.11944
0.143268
0.0975091
1.4924
0.243283
0.125051
0.0966469
0.096303
0.0817379
0.112392
0.175886
0.0967215
0.584042
0.103897
0.199011
0.192928
0.0962398
0.13512
0.590805
0.143651
0.107559
0.225435
0.103445
0.120968
0.103607
1.02032
0.144723
0.0702349
0.134635
0.274997
0.163918
0.195182
0.110463
0.136332
0.280892
0.623947
0.197459
0.0572639
0.0937897
1.24025
0.253604
1.15219
2.56461
0.100663
0.12798
0.223072
0.1537
1.2125
0.248584
0.117943
0.118992
0.493835
0.14084
0.115931
0.107983
0.163419
0.146431
0.139927
0.152067
0.503714
0.0807361
0.117631
0.295188
0.0977057
0.22594
0.0920109
0.256409
2.77647
0.114923
0.0848186
0.122534
0.101322
0.0835369
2.93195
0.80753
0.292086
0.282677
0.0982478
0.215353
0.180516
0.175449
0.14337
0.193092
0.267123
0.357903
0.115239
0.106819
0.0939775
0.121315
0.0987479
0.170719
0.0903825
0.106632
0.150025
0.0635555
0.185921
0.161828
0.0989047
0.864544
0.129737
0.139158
0.137132
0.119037
0.847818
0.134616
0.194656
0.0954327
0.214989
0.0975078
0.202448
0.654289
0.213401
0.216068
0.13431
0.712669
0.10076
0.122357
0.136572
7.7613
0.26732
0.0963625
0.120904
0.124327
6.69797
0.0980402
0.248621
0.718125
0.0725265
2.55223
0.21622
0.146624
0.0773438
0.107031
0.0602931
1.92604
0.20249
0.116301
0.101088
0.11471
0.0777911
0.23323
0.129608
0.181802
0.0863633
0.127374
0.473556
0.138905
0.194661
3.16712
0.243934
0.0802412
0.187922
0.12887
0.209218
0.0710581
0.0801717
0.314106
0.225543
0.390076
0.0637748
4.07595
0.183192
0.593238
0.11699
0.306018
0.144521
0.265606
0.0862125
0.12404
0.0933049
0.236944
0.0590191
0.0898583
0.19434
0.135344
0.177697
0.127062
0.184199
0.104147
0.184387
0.124129
0.603592
0.118271
0.111445
7.46685
0.0852644
0.147505
0.308981
0.099209
0.168803
0.127251
0.0986265
0.140898
1.73506
0.262512
0.11164
1.41584
6.92525
2.60093
2.01985
0.745125
0.10991
0.108575
0.102302
0.104912
0.85329
0.110125
0.123697
0.11759
0.119833
0.134172
0.57436
0.923422
0.143163
0.363329
0.436428
0.147886
0.109959
0.10946
0.151185
0.108738
0.108723
0.154134
0.109105
0.218378
0.732179
0.14091
0.235788
0.140931
0.464061
0.300067
1.18685
0.112745
0.587792
0.331252
0.116734
0.102468
3.47185
0.704632
0.0676746
0.706893
0.162331
0.151451
0.208255
0.104296
2.9771
0.0992966
0.108771
0.179787
0.121233
0.114218
0.138889
0.573273
0.262868
0.414309
0.22982
0.0897733
0.115606
0.171447
0.93428
0.141439
0.24163
0.120765
0.303528
0.182615
0.1003
0.191294
0.256671
0.149796
0.0764056
0.31688
0.10416
0.0745945
0.0659831
0.650641
0.167173
0.199157
0.172072
0.0666375
0.534544
0.132989
0.108868
0.140573
0.103091
0.230906
0.420087
0.442966
0.0668514
0.38232
0.0577609
0.212011
0.275515
9.14971
0.13339
0.33723
0.154639
2.69428
0.118729
0.247112
0.210355
0.114269
0.13597
0.130919
0.0608819
0.205913
0.39287
5.58316
1.01201
0.108354
0.124247
0.292445
0.69874
0.632057
0.150718
0.700134
0.124964
0.2112
1.56019
0.134496
1.0068
0.078854
0.193469
0.156138
0.412349
0.183024
0.667431
0.0679487
0.216842
0.259652
0.143198
0.141882
0.249521
0.128835
0.74971
4.6697
0.168772
0.0999801
0.245798
0.100872
0.111094
3.08187
0.17771
0.100015
0.182279
0.689498
0.622724
0.197586
0.27104
0.137505
0.23905
0.137651
0.461455
0.073506
0.138773
0.104784
0.461678
0.10854
0.0777013
0.248346
0.747714
0.0778436
2.18025
0.854325
0.0809343
0.172735
0.139198
0.0975007
0.0648873
0.114428
0.132192
0.118297
0.256723
0.0755653
0.101137
0.206682
0.0739941
0.732104
0.10274
0.0604492
0.143421
0.246702
0.110604
0.269931
0.0827163
0.148216
0.232456
0.112334
0.168574
0.178448
0.191201
0.281549
0.294447
0.307214
0.21446
0.323477
0.109428
0.11269
0.114992
0.109272
0.108224
0.113165
0.209715
0.28399
0.0826111
0.332875
0.0748087
0.171442
0.135055
0.142561
0.142905
0.183361
0.258797
0.184678
0.165516
0.0938075
0.101531
0.113516
0.111284
0.100179
0.104905
0.138046
0.121611
1.46958
0.179959
0.129522
8.12935
0.167248
0.0921903
0.130033
0.107291
0.0739975
0.106454
0.666313
0.0741513
0.0876079
0.118977
0.133474
0.210115
0.159083
0.396548
0.105583
0.124866
0.493718
0.0606516
0.0588423
0.115643
0.0766612
0.0607575
0.408144
0.142016
2.19072
0.122594
0.608102
1.27285
0.0923477
0.450265
0.254412
0.104482
0.21879
0.765571
0.111925
0.176234
0.27125
0.706092
0.0728909
0.165624
0.358866
0.123472
0.145715
0.0720334
0.118655
0.200069
0.714786
0.74049
0.937004
0.151083
0.221821
0.253991
0.194224
0.156073
0.107736
0.0750058
0.315465
0.0549579
1.58836
0.203151
0.162861
0.673511
0.217578
0.452428
0.0772552
0.121811
0.272606
2.3202
1.55295
0.142034
0.115453
0.117838
0.128038
0.586172
0.0753113
0.333202
0.272827
0.0713039
0.482873
1.81306
0.157525
0.151215
0.0755516
0.0860725
0.159814
3.74685
0.0995339
0.17928
0.796972
0.355882
0.0600847
0.0726356
0.198223
0.281585
0.438915
0.316995
0.284153
0.147553
0.225958
0.66742
0.16089
0.116523
0.100143
0.117234
0.395275
0.0848777
0.512634
0.161464
0.204381
0.188534
0.139126
0.297642
0.318135
0.0625706
0.110565
0.148654
0.204561
6.90205
0.230426
0.0968072
0.15761
0.931993
0.205622
0.294532
0.0974753
0.175663
0.147706
0.0728285
0.149352
0.169751
0.214836
0.328798
0.261559
0.404118
0.211101
0.190348
2.32218
0.0737287
3.85726
0.092236
0.125204
0.200189
0.247217
0.241464
0.103576
0.172647
0.449599
0.204572
0.163507
3.02724
0.239538
0.248358
0.14352
0.110585
0.499048
0.207652
0.21517
0.158727
0.0808448
0.0833331
0.589117
0.331019
0.250563
0.128123
0.188198
1.75335
0.27703
0.100239
0.282627
0.510579
0.126406
0.490397
0.284964
0.186203
3.30148
0.176244
0.0614675
0.631804
0.130208
1.46111
0.409516
0.412723
0.146607
3.41497
0.182058
0.0749879
0.121292
5.97807
0.121975
0.0903071
0.127453
0.128636
0.547708
0.0950905
2.49468
0.184194
0.246281
0.0995278
5.38399
0.110555
2.46996
0.204411
0.0700775
0.298462
1.47361
2.71896
0.0773636
0.648819
0.0984817
0.126069
0.0933045
0.227059
0.10698
0.854455
0.109419
0.0962757
0.394361
5.11618
0.0453617
0.250936
0.106595
0.458375
0.183599
0.23783
0.107284
3.56408
0.178638
0.0982751
0.0925383
0.10685
0.293549
0.270936
0.111915
0.177423
0.226383
0.241772
4.53823
0.234274
0.123572
0.121177
0.121271
0.24799
0.134098
0.272193
0.0954525
0.224195
0.142087
0.175279
0.130694
0.235019
0.13124
0.118653
0.122887
1.03336
0.160968
0.186783
0.0944015
0.430268
0.293703
0.209001
0.209437
0.161087
0.116936
0.117216
0.238881
0.329866
0.151514
0.113488
0.290767
0.0665658
0.106572
0.131304
0.132244
0.127475
0.115035
0.113584
0.0925627
0.231783
0.413289
0.114771
0.647687
0.185835
0.201827
0.462111
0.237081
0.191769
0.339708
0.247107
0.114773
1.38525
0.0502663
0.125124
0.0705165
0.0594659
0.0640901
0.0694021
0.0914568
0.093011
0.119213
0.461706
1.63092
0.322348
0.203475
0.129108
0.177601
0.154486
0.161453
0.133057
0.0780564
0.0896689
0.179157
0.133925
0.0521809
0.0999666
0.241255
0.168641
0.0917179
0.0886766
)
;

boundaryField
{
    frontAndBack
    {
        type            empty;
    }
    wallOuter
    {
        type            kqRWallFunction;
        value           nonuniform List<scalar> 
96
(
0.100081
0.215316
0.156648
0.532382
0.557572
0.513522
0.0975091
0.0966469
0.096303
0.112392
0.0967215
0.103897
0.0962398
0.590805
0.107559
0.118992
0.493835
0.115931
0.0987479
0.0989047
0.0975078
0.101088
0.11471
0.127374
0.473556
0.745125
0.10991
0.108575
0.102302
0.104912
0.85329
0.110125
0.123697
0.11759
0.119833
0.134172
0.57436
0.923422
0.143163
0.363329
0.436428
0.147886
0.109959
0.10946
0.151185
0.108738
0.108723
0.154134
0.109105
0.108771
0.1003
0.191294
0.108868
0.103091
0.442966
0.108354
1.0068
0.0999801
0.245798
0.17771
0.137651
0.104784
0.10854
0.747714
0.246702
0.269931
0.232456
0.112334
0.168574
0.178448
0.191201
0.281549
0.294447
0.307214
0.21446
0.323477
0.109428
0.11269
0.114992
0.109272
0.108224
0.113165
0.171442
0.101531
0.159083
0.165624
0.333202
0.100143
0.148654
0.158727
0.100239
0.282627
0.110555
0.648819
0.394361
0.106595
)
;
    }
    inlet
    {
        type            fixedValue;
        value           nonuniform 0();
    }
    outlet
    {
        type            zeroGradient;
    }
    wallInner
    {
        type            kqRWallFunction;
        value           nonuniform List<scalar> 
126
(
0.244184
0.0671549
0.131172
0.207732
0.0855973
0.0596754
0.116753
0.16666
0.0939924
0.125185
0.0453044
0.238064
1.49184
0.192879
0.103848
0.156613
0.242646
0.0709227
0.0452834
0.0777391
0.138544
0.0421663
0.264708
0.0696432
0.0551172
0.0838227
0.233951
0.139141
0.127688
0.0662962
0.286529
0.15337
1.08934
0.226571
0.981747
0.119019
0.0467518
0.266611
0.0387232
0.0470884
0.0936877
0.258944
0.041141
0.118483
0.104304
0.0531253
0.129672
1.19311
0.155973
0.216296
0.547594
0.149471
0.726335
0.0783244
0.210203
0.184136
0.0389153
0.673692
0.243423
0.225251
0.0517944
0.101174
0.176227
1.59259
0.0485675
0.0517224
0.298857
0.739616
0.056692
0.62071
0.195566
0.259226
0.11063
0.0887103
0.106819
0.125978
0.112365
0.205013
0.116489
0.222618
0.0981307
0.206051
0.0624703
0.148093
0.0643936
0.154973
0.291027
0.0840735
0.127258
0.144012
0.145637
0.13512
0.143651
0.0835369
0.147505
0.127251
0.0659831
0.74049
0.0453617
0.250936
0.247107
0.114773
0.0502663
0.0705165
0.0594659
0.0640901
0.0914568
0.119213
0.461706
1.63092
0.322348
0.203475
0.129108
0.154486
0.161453
0.133057
0.0780564
0.0896689
0.179157
0.133925
0.0521809
0.0999666
0.241255
0.168641
0.0917179
0.0886766
)
;
    }
    procBoundary3to1
    {
        type            processor;
        value           nonuniform List<scalar> 
48
(
0.0869517
0.124561
0.110162
0.0930685
0.208024
0.148042
0.124561
0.290939
0.0925042
0.100536
0.100536
0.0964168
0.0964168
0.0976704
0.139929
0.0783047
0.061496
0.0649465
0.061496
0.0627776
0.0646389
0.0670944
0.0627776
0.120181
0.0933664
0.0787427
0.108606
0.0670944
0.167952
0.148156
0.148156
0.250355
0.250355
0.0925042
0.0656898
0.259269
0.222994
0.0933664
0.0876689
0.121561
0.0976704
0.146183
0.110119
0.0627776
0.139555
0.100655
0.157471
0.0726149
)
;
    }
    procBoundary3to2
    {
        type            processor;
        value           nonuniform List<scalar> 
29
(
0.148729
0.148729
0.15599
0.175681
0.109545
0.132528
0.122266
0.119424
0.182048
0.176266
0.130249
0.113089
0.123895
0.236879
0.14629
0.261071
0.254213
0.195229
0.126717
0.166276
0.165016
0.254213
0.109431
0.195229
0.129652
0.321931
0.195229
0.123874
0.123874
)
;
    }
}


// ************************************************************************* //
