/*--------------------------------*- C++ -*----------------------------------*\
| =========                 |                                                 |
| \\      /  F ield         | OpenFOAM: The Open Source CFD Toolbox           |
|  \\    /   O peration     | Version:  v1912                                 |
|   \\  /    A nd           | Website:  www.openfoam.com                      |
|    \\/     M anipulation  |                                                 |
\*---------------------------------------------------------------------------*/
FoamFile
{
    version     2.0;
    format      ascii;
    class       volScalarField;
    location    "0.65";
    object      nut;
}
// * * * * * * * * * * * * * * * * * * * * * * * * * * * * * * * * * * * * * //

dimensions      [0 2 -1 0 0 0 0];


internalField   nonuniform List<scalar> 
1466
(
0.000829695
0.000855576
0.000445367
0.000541373
0.001386
0.00119757
0.000865739
0.00167614
0.00524053
0.00155329
0.000569272
0.00214497
0.000116985
0.000565666
0.00076471
0.000726064
0.00019543
0.00061734
0.00247107
0.000497438
0.00153506
0.00279664
0.000242825
0.000755453
0.000628947
0.00158651
0.00189275
0.0018576
0.000535576
0.000557093
0.00183002
0.002733
0.00263981
0.00135553
0.000783522
0.000791245
0.000547032
0.000599225
0.00249669
0.00209409
0.00210385
0.00265641
0.00439297
0.00169188
0.00179496
0.00278878
0.000927589
0.000417349
0.00270582
0.00145187
0.00056387
0.000618118
0.000561857
0.000814328
0.000568862
0.00287383
0.000555323
0.00125351
0.00146083
0.0031486
0.000682373
0.000550598
0.00129404
0.00169848
0.00112379
0.000570196
0.00259072
0.00148267
0.000736724
0.00221573
0.00119801
0.000633686
0.000423048
0.000648129
0.00017162
0.00270535
0.000682963
0.000709955
0.000953003
0.0028259
0.000613512
0.000541603
0.000926441
0.00266634
0.000471385
0.00114905
0.00051319
0.00139326
0.000540121
0.000756645
0.000502509
0.000316332
0.00250934
0.000574979
0.000630353
0.00118605
0.000883536
0.00141493
0.000835583
0.000466148
0.000708304
0.00219759
0.000566018
0.000283482
0.0010231
0.00368489
0.00123173
0.000994159
0.00101858
0.000693348
0.00139144
0.000758037
0.000811385
0.000588488
0.000136664
0.00545148
0.000288458
0.000426448
0.000787979
0.0014519
0.00111669
0.000915506
0.000258764
0.00123227
0.000576451
0.00286919
0.000666659
0.000400454
0.00290348
0.00309658
0.00221473
0.000687003
0.00065056
0.00234389
0.000728475
0.00240981
0.00257341
0.000580728
0.0015253
0.000313782
0.000586334
0.000305464
0.00305917
0.00178792
0.0016817
0.000294542
0.000233835
0.000607715
0.00172523
0.000433192
0.00305004
0.000790379
0.000735345
0.000856488
0.000553656
0.00130124
0.000691212
0.00580827
0.00127306
0.000617253
0.00198621
0.000486203
0.000790585
0.00119839
0.00242243
0.00204469
0.00363225
0.000226254
0.000659996
0.00200925
0.00108755
0.00102372
0.000655922
0.00129294
0.00172638
0.00100563
0.00262723
0.00314173
0.000730846
0.00283218
0.000789562
0.0011565
0.00229576
0.000573854
0.00125609
0.000433121
0.00109004
0.00448126
0.000895989
0.000255335
0.000202216
0.000250275
0.000544192
0.00104484
0.0011021
0.000690452
0.00143395
0.000748766
0.000647471
0.000599741
0.00264969
0.00106024
0.00102818
0.000634417
0.000778836
0.00295201
0.00114871
0.00105814
0.000702427
0.000767854
0.000858148
0.0034377
0.000941819
0.000602501
0.000813482
0.000999843
0.000603939
0.000203556
0.000481144
0.000633531
0.00368078
0.000897296
0.000645008
0.000869808
0.00117011
0.000861419
0.000503802
0.000753688
0.00053585
0.00500696
0.000644796
0.001365
0.000541597
0.00190216
0.000840005
0.000814283
0.00179738
0.00113958
0.00175858
0.000713561
0.00534117
0.00174844
0.000332506
0.00242901
0.00280683
0.000239329
0.000325598
0.000292985
0.000179473
0.000263462
0.000541098
0.00281578
0.00287146
0.00134115
0.000557469
0.00289036
0.000574067
0.00298078
0.00475528
0.0024542
0.000638662
0.000588946
0.00317572
0.000614703
0.000917357
0.000741848
0.00488633
0.00169192
0.00112216
0.000636099
0.00267685
0.000840304
0.000675443
0.000519214
0.000575964
0.00205864
0.00100482
0.000635895
0.000573116
0.00291367
0.000786893
0.000198588
0.000281037
0.000516364
0.0015205
0.000743593
0.00135217
0.000383156
0.00329925
0.000434853
0.000810009
0.00459223
0.0015762
0.00246107
0.00283124
0.00121722
0.00385889
0.00724849
0.00103175
0.000327735
0.000476084
0.00470157
0.000501055
0.00160883
0.000806334
0.000700761
0.000922854
0.00217863
0.00015476
0.00581966
0.00541593
0.000644338
0.001209
0.00131019
0.00262698
0.000923212
0.00140536
0.00143597
0.00171544
0.000672754
0.00103056
0.00198046
0.00222611
0.000266983
0.00022109
0.000246512
0.000180256
0.000319474
0.000309012
0.000210224
0.000253436
0.000258498
0.00018838
0.000222935
0.000225606
0.000257651
0.000192475
0.000398257
0.000175394
0.000213333
0.000338684
0.000336273
0.000168894
0.000207335
0.000329638
0.000284737
0.000272338
0.000281974
0.000836253
0.00403398
0.00310228
0.000672976
0.00315876
0.00221044
0.00218831
0.000890365
0.0019264
0.000255544
0.00428502
0.0013377
0.00273709
0.00244218
0.00166559
0.000241721
0.000264313
0.000364345
0.000190487
0.000222614
0.00034992
0.000344038
0.000243263
0.000270627
0.000258645
0.000251718
0.000165124
0.000234559
0.000204041
0.00802474
0.000583666
0.000258496
0.00059505
0.000888117
0.00226254
0.000638397
0.000854812
0.0014332
0.000834542
0.00127749
0.00136939
0.00180608
0.00252034
0.00274383
0.00101037
0.00756142
0.000170245
0.000652438
0.00125356
0.00126929
0.000990317
0.000196204
0.000283731
0.000638012
0.000856152
0.000711368
0.00219717
0.00161931
0.00233427
0.00415264
0.00133519
0.00131285
0.00138791
0.000651734
0.000225615
0.000325098
0.00684488
0.00308021
0.00257081
0.0018093
0.00235163
0.00281386
0.00189587
0.000395091
0.00315301
0.0026164
0.00302552
0.00285759
0.00247993
0.00289305
0.00232178
0.00207808
0.00117898
0.00123133
0.00292249
0.00651725
0.00116241
0.00744549
0.00657479
0.00170234
0.00171786
0.00206551
0.000689904
0.00162572
0.00474435
0.00123577
0.00174292
0.00595653
0.00302121
0.00369034
0.00841627
0.00156237
0.00842636
0.00615559
0.000855689
0.00237183
0.00617275
0.00149132
0.00428152
0.0054013
0.000326868
0.00137982
0.00556055
0.0028857
0.00256462
0.00161447
0.00459679
0.000635168
0.00728218
0.00135888
0.0012909
0.000212154
0.00641003
0.00145431
0.001405
0.00107302
0.00278449
0.00186068
0.000283256
0.000242572
0.00255689
0.0021763
0.00145727
0.00148597
0.00241816
0.00156396
0.00224927
0.00146506
0.00141004
0.000626852
0.00191092
0.00183333
0.00228748
0.00129725
0.00144949
0.00080181
0.000502144
0.00284248
0.00190651
0.00565456
0.000644534
0.000673802
0.00111892
0.00128726
0.000318419
0.000710119
0.000977367
0.00142371
0.00207158
0.00134943
0.00176271
0.00150487
0.0026292
0.00259448
0.00213399
0.00126707
0.000780136
0.00177565
0.00109633
0.00127572
0.00203953
0.00170965
0.00216781
0.00711571
0.0040198
0.00108008
0.00082342
0.00191941
0.00435619
0.00371035
0.000355113
0.000864977
0.00156049
0.00147585
0.00142012
0.00155268
0.00111724
0.00496321
0.00229259
0.006044
0.00130275
0.00124239
0.00545748
0.00667686
0.00368994
0.00619157
0.00154028
0.00079846
0.000223646
0.00706822
0.00699127
0.000985822
0.00121755
0.000877893
0.0067858
0.00276404
0.00179684
0.00460983
0.000979429
0.00100005
0.00276088
0.0026847
0.00116905
0.000911247
0.002279
0.00661417
0.00216869
0.00332094
0.00114613
0.000785496
0.00164695
0.00707735
0.000556715
0.0023701
0.00184047
0.00191922
0.000518267
0.00203929
0.000653706
0.00111336
0.00186361
0.00211921
0.00141335
0.000759679
0.00234994
0.00120138
0.000946214
0.00862993
0.00322882
0.000968598
0.00762916
0.00252658
0.000226571
0.000297451
0.00178875
0.000573084
0.00094644
0.00116788
0.00207088
0.00307065
0.00737317
0.00139828
0.00816094
0.000914315
0.00111582
0.000647595
0.00145446
0.00301556
0.00259274
0.00133667
0.00663419
0.00647066
0.00310239
0.00263329
0.00291184
0.00421777
0.000436427
0.0012064
0.00696606
0.000592027
0.00297657
0.00099414
0.000783856
0.00124379
0.000503055
0.00307665
0.000913296
0.0019381
0.00189611
0.000875101
0.00132927
0.00774147
0.00308544
0.00653649
0.00058904
0.000209865
0.00162064
0.00324805
0.00140439
0.0070978
0.00087805
0.00109754
0.00129452
0.00459734
0.000579237
0.0021157
0.000727392
0.00252059
0.000631312
0.00357885
0.00526101
0.00117866
0.000773661
0.00808193
0.00324642
0.00516789
0.00124567
0.00284579
0.00480953
0.00154281
0.00104472
0.000597091
0.000724624
0.00732473
0.00209112
0.000593954
0.00463313
0.00732377
0.00273797
0.00107847
0.00781944
0.0026736
0.000939649
0.000648094
0.00119655
0.000629457
0.000221438
0.000280471
0.00204137
0.00750904
0.000891571
0.00182485
0.00107938
0.000835179
0.000177013
0.000671544
0.00244417
0.000600962
0.00187888
0.00130788
0.000232289
0.00101052
0.000536156
0.000854498
0.00200128
0.00185314
0.00608084
0.00063432
0.00307951
0.000804708
0.0020844
0.00308972
0.00214568
0.000666445
0.00328746
0.00517143
0.00304185
0.000905995
0.00285911
0.00801561
0.00204089
0.000929547
0.00100021
0.000170848
0.00104881
0.000921948
0.000963654
0.000634318
0.00325517
0.00700642
0.000747422
0.00201935
0.00177
0.00269132
0.00112873
0.00277278
0.00686548
0.000769835
0.00191072
0.000771493
0.00375077
0.00146637
0.00275883
0.000744897
0.00250101
0.000218818
0.000209043
0.00599835
0.000226339
0.000204464
0.000418707
0.00863534
0.000207895
0.000232997
0.000137754
0.000153956
0.000150636
0.00141679
0.000164608
0.000655109
0.00223736
0.00273944
0.00054433
0.000219284
0.000553576
0.00268399
0.00220004
0.000856938
0.00498196
0.00440408
0.000556237
0.000472309
0.000230218
0.000644344
0.00218854
0.000819468
0.000630456
0.00381756
0.00185123
0.000225882
0.000583321
0.000615104
0.00243879
0.00139172
0.000515999
0.000190611
0.00285855
0.00106147
0.000672186
0.00293091
0.000757962
0.00340923
0.00246764
0.00455571
0.00013855
0.000178611
0.00301727
0.00248253
0.00071547
0.00113949
0.00195811
0.000252314
0.000610709
0.00061718
0.000957394
0.00052743
0.000465697
0.00264114
0.0039438
0.00116694
0.00309359
0.000221162
0.000207302
0.00157425
0.000841802
0.000636848
0.000574245
0.000223921
0.00334694
0.000843712
0.000672326
0.00314676
0.00351757
0.000191602
0.000888021
0.00314076
0.000667714
0.00356103
0.000775469
0.000236002
0.000578238
0.00434904
0.00266289
0.00081521
0.00263368
0.00309387
0.000182312
0.000185166
0.000839084
0.000760257
0.000884063
0.000474395
0.000645617
0.00286504
0.000702335
0.000498216
0.000632616
0.000532109
0.00312831
0.00244264
0.000402779
0.000682647
0.000214801
0.000835581
0.00190432
0.0030083
0.00103395
0.00281809
0.0030911
0.00287414
0.00243438
0.00299021
0.004829
0.00164614
0.00169872
0.00434393
0.000177813
0.000769419
0.00175231
0.000304747
0.000437613
0.00023581
0.00442314
0.000864409
0.00714412
0.000881615
0.000827102
0.000930555
0.000787393
0.000667363
0.00212903
0.000542211
0.00115808
0.000276771
0.00294452
0.00164755
0.000538176
0.000960167
0.000548195
0.00132438
0.00322433
0.00211478
0.000577481
0.000614982
0.00171667
0.00148145
0.000808626
0.000456387
0.000807815
0.00301127
0.00242708
0.00206249
0.00148958
0.00109687
0.00044035
0.000542417
0.00103794
0.00402633
0.00145874
0.00157694
0.00215456
0.00115361
0.000934213
0.00157282
0.00140378
0.00111294
0.00228528
0.000256159
0.00126937
0.000830171
0.00264559
0.000677601
0.000797883
0.00105413
0.00259591
0.000175739
0.00206625
0.000133049
0.00213718
0.000533006
0.00123844
0.000853474
0.00128609
0.000566404
0.00250272
0.00539444
0.00458347
0.000640499
0.00125258
0.00103367
0.00234993
0.00164494
0.000557411
0.00135144
0.00244694
0.00218942
0.000185787
0.00557601
0.0014206
0.0029405
0.00072748
0.000153472
0.000144
0.000114094
0.000127359
0.000174247
0.000144708
0.000183893
0.000171976
0.000164198
0.000164087
0.000173666
0.000168282
0.000164099
0.000153297
0.00096702
0.00014353
0.000137036
0.00205077
0.000200113
0.0022265
0.000182671
0.000189034
0.00793507
0.00216084
0.000769757
0.000793689
0.00021561
0.00395291
0.000652461
0.000509366
0.000881641
0.000231746
0.00167761
0.000220305
0.000768894
0.0018451
0.000235982
0.000951331
0.000964387
0.000203262
0.000736435
0.00382078
0.00380141
0.00378713
0.00552525
0.0014557
0.000553572
0.00166036
0.00110702
0.000822138
0.00147989
0.000928919
0.000743697
0.000230613
0.0002137
0.00255242
0.000993683
0.000215577
0.00801199
0.00329385
0.00434005
0.000227035
0.000221668
0.00308266
0.00102371
0.00243087
0.000583121
0.000705967
0.00232867
0.000772106
0.000265757
0.000922687
0.000234038
0.000275151
0.0028291
0.0013764
0.00115035
0.00103143
0.00103214
0.00178789
0.00215618
0.000862008
0.000531557
0.000639625
0.000535492
0.00167984
0.00175375
0.00170429
0.00216045
0.00119437
0.00180832
0.00151166
0.000626299
0.00606414
0.000248304
0.000204309
0.0028438
0.00284095
0.000120257
0.00134728
0.00289474
0.00305962
0.000100685
0.00107151
0.00120066
0.00216759
0.00191654
0.000955271
0.00013167
0.00266521
0.00109283
0.00113123
0.000473621
0.000911612
0.00498631
0.000240106
0.00257345
0.00764285
0.000774373
0.000711031
0.00139236
0.00420048
0.000541702
0.000479399
0.000129841
0.00114828
0.00136247
0.000579029
0.0059861
0.00137778
0.00209508
0.00158422
0.000264041
0.000999756
0.0012286
0.00496667
0.000611377
0.00158568
0.00143786
0.000654215
0.000294969
0.00183153
0.000226725
0.000236726
0.00247605
0.000636168
0.00199116
0.0047682
0.00192876
0.000604107
0.000802161
0.00241236
0.00245516
0.000919827
0.00593885
0.00022721
0.000236066
0.000835689
0.00167508
0.00179026
0.00116198
0.000282617
0.000229311
0.00104495
0.00233611
0.00133953
0.000465447
0.000122949
0.000216027
0.00118287
0.000241154
0.00174967
0.00204143
0.000803679
0.00091506
0.00219605
0.000249902
0.000408879
0.000513405
0.000469453
0.00109446
0.000184615
0.000233964
0.00246019
0.000694271
0.000181044
0.000331863
0.00030901
0.000607089
0.000275846
0.00206824
0.000352636
0.000866621
0.000807461
0.00266393
0.000334545
0.000435033
0.00271862
0.000234404
0.0083926
0.00136574
0.000239245
0.0014684
0.000819386
0.000995271
0.000847339
0.0019265
0.000118204
0.000770778
0.00257367
0.000287482
0.000847142
0.000221972
0.000520578
0.000604053
0.000186469
0.00178204
0.000174881
0.00042695
0.00127281
0.000513491
0.000621913
0.00242609
0.00587886
0.000272621
0.00266562
0.000616495
0.000310741
0.000709488
0.000440711
0.000828835
0.000200661
0.00115831
0.00594053
0.000458049
0.000233649
0.00206511
0.002202
0.00102795
0.000641069
0.00127152
0.000299377
0.00203907
0.000892913
0.000604065
0.000148188
0.000418215
0.00146398
0.000753896
0.00284398
0.00088517
0.00141875
0.000809982
0.00070356
0.000251027
0.000634858
0.00566613
0.00360507
0.00233257
0.000396923
0.00280277
0.00107821
0.00139906
0.00221409
0.000905763
0.000588698
0.00129528
0.000432472
0.00678575
0.0012809
0.00501492
0.00203228
0.00140021
0.000808128
0.000864629
0.00571826
0.000866915
0.0022463
0.0025594
0.0024189
0.000269253
0.000941741
0.000526859
0.000884714
0.00091785
0.000908585
0.000538584
0.000215425
0.00788693
0.00408785
0.000664118
0.000885475
0.0010459
0.000320219
0.000697257
0.000386584
0.00268839
0.000580657
0.00113398
0.000508286
0.000259182
0.00205034
0.000592405
0.00663377
0.00752558
0.00261979
0.00627659
0.000692369
0.00121321
0.000508161
0.000894838
0.00318962
0.00360633
0.00192373
0.0068561
0.00220251
0.000767895
0.000801405
0.00346873
0.002556
0.000943012
0.00163081
0.00131815
0.00115391
0.00211906
0.00265057
0.000727487
0.000691726
0.00283502
0.000104297
9.50815e-05
0.000473417
0.00268574
0.00215654
0.000363145
0.0077744
0.00477763
0.00581904
0.00144846
0.000875096
0.000828526
0.000650927
0.00220115
0.00107901
0.00321091
0.000626331
0.000787271
0.00261709
0.00170521
0.000872279
0.000664487
0.00117197
0.00638459
0.00475117
0.000324011
0.00646466
0.00539548
0.0024399
0.000125268
0.00289159
0.00050953
0.00260202
0.00706758
0.000123447
0.000622235
0.0010303
0.00299153
0.00138174
0.00634472
6.82455e-05
0.00149848
0.00224144
0.000814717
0.000769148
0.00023952
0.00104668
0.00272059
0.00057837
0.00168434
0.000704904
0.00655515
0.000698533
0.0012033
0.00289003
0.000780786
0.00187847
0.00226861
0.000594514
0.00138
0.00117884
0.00331416
0.000869642
0.00640634
0.000675259
0.000793934
0.00276594
0.000238317
0.00168922
0.000686147
0.000909581
0.000580224
0.00100605
0.00214007
0.000199065
0.000799161
0.000989093
0.000183652
0.0014397
0.000624398
0.000652797
0.000850713
0.0023572
0.000546909
0.00280553
0.000709636
0.000937584
0.00179155
0.00195136
0.00239959
0.000913543
0.00241104
0.000673096
0.000854875
0.000420518
0.000367717
0.000461653
0.000803807
0.000673152
0.00298864
0.00819841
0.000120517
0.000756429
0.000806032
0.00118847
0.00137998
0.000180275
0.000523295
0.000196163
0.00219816
0.000619379
0.000747775
0.000483533
0.000727443
0.00131962
0.000972956
0.00158934
0.000651842
0.000607554
0.00171942
0.00104001
0.00121628
0.000511649
0.00114806
0.000620221
0.00171399
0.000885209
0.000270099
0.000581737
0.00107493
0.0028327
0.000663915
0.00222664
0.00144206
0.00611262
0.000956601
0.00114524
0.00258964
0.000540114
0.0005409
0.000468739
0.00136348
0.000686023
0.000546198
0.000996232
0.000891967
0.000809393
0.000724103
0.00112627
0.00116663
0.00683853
0.00392917
0.00316498
0.000585812
0.00120612
0.000566746
0.000430473
0.00289176
0.00295469
0.000630708
0.000657252
0.00110622
0.000754864
0.000862306
0.000761954
0.000481743
0.000684674
0.000875993
0.000825481
0.000306248
0.00103746
0.000481171
0.000879989
0.000989121
0.000560855
0.00293581
0.00276069
0.000410523
0.000721873
0.0011026
0.000740029
0.00075974
0.00338597
0.000334776
0.00237191
0.00626183
0.00623197
0.000477224
0.00207807
0.00594345
0.000409945
0.00084985
0.000560052
0.000636497
0.000578943
0.000538304
0.000670932
0.000496406
)
;

boundaryField
{
    frontAndBack
    {
        type            empty;
    }
    wallOuter
    {
        type            nutkWallFunction;
        Cmu             0.09;
        kappa           0.41;
        E               9.8;
        value           nonuniform List<scalar> 
102
(
1.09326e-05
1.09326e-05
2.83035e-05
1.82736e-05
1.38122e-05
1.63696e-05
1.8522e-05
1.88277e-05
2.51938e-05
2.40176e-05
2.60735e-05
2.35812e-05
2.6857e-05
1.40866e-05
1.57794e-05
1.61382e-05
1.7656e-05
2.48178e-05
2.62476e-05
2.56422e-05
2.07161e-05
1.40686e-05
1.9648e-05
2.49316e-05
2.39911e-05
2.01681e-05
2.05365e-05
1.92956e-05
2.70397e-05
1.91479e-05
1.30664e-05
1.60095e-05
1.47065e-05
1.02832e-05
1.2261e-05
1.93333e-05
1.52203e-05
2.06776e-05
1.90257e-05
1.74511e-05
1.79389e-05
1.93356e-05
1.79475e-05
1.72637e-05
1.57809e-05
1.44525e-05
1.35858e-05
2.01362e-05
2.1501e-05
2.68496e-05
2.48651e-05
2.73928e-05
2.34437e-05
2.67453e-05
2.47963e-05
2.43953e-05
2.63497e-05
2.57504e-05
2.70951e-05
3.22506e-05
2.88871e-05
1.08239e-05
8.27149e-06
1.31134e-05
2.76592e-05
1.26285e-05
3.14164e-05
2.60361e-05
2.72448e-05
2.70277e-05
3.31711e-05
2.64711e-05
1.16625e-05
2.44265e-05
2.80711e-05
2.91385e-05
2.03357e-05
1.99752e-05
3.35215e-05
2.7036e-05
2.78056e-05
1.1068e-05
2.06225e-05
1.90601e-05
3.27978e-05
2.24487e-05
2.70248e-05
1.53273e-05
2.92642e-05
2.44708e-05
9.44965e-06
7.37481e-06
1.21712e-05
1.1357e-05
3.44753e-06
2.77867e-05
2.74853e-05
2.22003e-05
2.0354e-05
1.1463e-05
1.9847e-05
2.19226e-05
)
;
    }
    inlet
    {
        type            calculated;
        value           nonuniform 0();
    }
    outlet
    {
        type            calculated;
        value           nonuniform 0();
    }
    wallInner
    {
        type            nutkWallFunction;
        Cmu             0.09;
        kappa           0.41;
        E               9.8;
        value           nonuniform List<scalar> 
138
(
6.51709e-05
2.1624e-05
6.47985e-05
6.75543e-05
7.59169e-05
6.57321e-05
9.91586e-05
6.79226e-05
6.6415e-05
3.80865e-05
8.56438e-05
3.33371e-05
3.02938e-05
7.19791e-05
3.67387e-05
3.51842e-05
2.76529e-05
2.63275e-05
2.99239e-05
2.38101e-05
2.92926e-05
2.28836e-05
4.00793e-05
2.82441e-05
3.81097e-05
3.51265e-05
1.96075e-05
3.13642e-05
0.000111173
2.27881e-05
3.36102e-05
4.62346e-05
3.15102e-05
2.55581e-05
2.84682e-05
1.99262e-05
3.78865e-05
3.4078e-05
2.37712e-05
2.9765e-05
3.02928e-05
2.04978e-05
2.62482e-05
2.61177e-05
3.02336e-05
2.14732e-05
4.74241e-05
1.91964e-05
2.34803e-05
4.09813e-05
4.03441e-05
1.80458e-05
2.38929e-05
3.91846e-05
3.26664e-05
3.23989e-05
3.34017e-05
3.0377e-05
2.86675e-05
3.16928e-05
4.35272e-05
2.15914e-05
2.42766e-05
4.21019e-05
4.16721e-05
2.72187e-05
3.19363e-05
3.06199e-05
2.94137e-05
1.79162e-05
2.72113e-05
2.2819e-05
3.01521e-05
2.18811e-05
3.46043e-05
2.61149e-05
3.98638e-05
4.81191e-05
0.000138398
8.10593e-05
3.82964e-05
7.40129e-05
2.38272e-05
3.27032e-05
2.75591e-05
6.16485e-05
7.55282e-05
7.90817e-05
3.89946e-05
0.000129456
0.00010045
4.26839e-05
2.59563e-05
8.01308e-05
2.6482e-05
3.55893e-05
5.76157e-05
2.40997e-05
7.15038e-05
2.56754e-05
3.33332e-05
2.67719e-05
1.87378e-05
5.02391e-05
2.40226e-05
5.94619e-05
2.94678e-05
2.55214e-05
2.16572e-05
2.73342e-05
5.65426e-05
8.08555e-05
2.44678e-05
3.60271e-05
3.28609e-05
2.96794e-05
2.0268e-05
2.26784e-05
2.42613e-05
3.16309e-05
7.90808e-05
6.58872e-05
2.29201e-05
3.47236e-05
2.66663e-05
2.71816e-05
3.38055e-05
2.53724e-05
3.75834e-05
3.53504e-05
3.2363e-05
6.54706e-05
0.000103514
6.8588e-05
6.63344e-05
6.58289e-05
8.08361e-05
6.16988e-05
)
;
    }
    procBoundary2to0
    {
        type            processor;
        value           nonuniform List<scalar> 
42
(
0.0073348
0.0073348
0.000921129
0.00065245
0.0028997
0.00518585
0.00116655
0.00116655
0.00188344
0.0014404
0.00583798
0.00583798
0.00446185
0.00682996
0.00781745
0.00376377
0.00870164
0.00152702
0.00142459
0.00273585
0.00188238
0.0015362
0.0015362
0.00156801
0.00188238
0.0012917
0.00182948
0.0010201
0.00182948
0.0084128
0.0090046
0.000872799
0.000822771
0.00091468
0.00111159
0.00065245
0.00870164
0.000189379
0.00292438
0.00129236
0.00129236
0.00122335
)
;
    }
    procBoundary2to1
    {
        type            processor;
        value           uniform 0.00344169;
    }
    procBoundary2to3
    {
        type            processor;
        value           nonuniform List<scalar> 
29
(
0.00158162
0.00158653
0.000500676
0.00040969
0.000983632
0.000548715
0.000709523
0.0016843
0.00249666
0.00217193
0.00124875
0.00197155
0.000573733
0.00276863
0.00157283
0.00280951
0.00195554
0.00195554
0.00158653
0.00276863
0.00205656
0.00175546
0.000287017
0.00234376
0.000968607
0.000956303
0.00249666
0.00324464
0.00197155
)
;
    }
}


// ************************************************************************* //
