/*--------------------------------*- C++ -*----------------------------------*\
| =========                 |                                                 |
| \\      /  F ield         | OpenFOAM: The Open Source CFD Toolbox           |
|  \\    /   O peration     | Version:  v1912                                 |
|   \\  /    A nd           | Website:  www.openfoam.com                      |
|    \\/     M anipulation  |                                                 |
\*---------------------------------------------------------------------------*/
FoamFile
{
    version     2.0;
    format      ascii;
    class       volScalarField;
    location    "0.93";
    object      k;
}
// * * * * * * * * * * * * * * * * * * * * * * * * * * * * * * * * * * * * * //

dimensions      [0 2 -2 0 0 0 0];


internalField   nonuniform List<scalar> 
1431
(
2.48286
2.85105
0.164031
0.0383425
0.278555
1.84411
0.0757863
6.54672
2.02316
0.0630148
2.15617
6.53042
2.34721
0.518851
0.714479
0.0742843
0.709879
0.341406
0.641147
0.502415
3.5735
0.882713
1.8692
7.54247
1.92043
1.48189
1.64998
0.507509
0.830394
0.529541
0.75761
1.02222
0.699969
0.312196
2.42291
0.540938
3.53159
0.0623789
0.0456367
0.866939
2.38894
2.86519
1.97753
0.0606892
1.55947
0.300518
0.972472
1.45701
0.0795138
0.0578886
2.12038
0.0722698
2.29852
6.68389
2.19469
1.31442
0.233304
7.00887
0.906898
0.506452
0.552744
0.0336431
0.0423984
0.044643
0.0282257
0.0293889
0.329964
0.0671844
0.140431
0.50661
3.663
0.346881
0.0229942
0.244735
0.470118
0.261003
0.216312
0.0636446
0.0401832
0.251951
0.735074
0.168999
5.03758
1.1959
3.59942
0.0529199
0.0299344
0.947168
4.91615
5.90053
0.808965
0.313027
0.118647
0.0761764
1.95231
0.537419
6.69077
5.71104
0.0560772
0.432131
1.799
0.0457763
0.912256
0.319036
0.140805
1.06443
1.30158
2.01852
1.55289
0.906656
0.433088
2.66599
0.28255
2.17072
2.72307
0.27036
0.431873
0.0286495
0.0306541
0.0406768
0.600972
0.879726
3.3212
0.468476
2.78623
0.0564174
0.17475
0.65762
0.197996
0.373921
0.624009
0.40459
0.399431
0.576828
0.7101
0.0697946
0.182474
0.064996
5.28601
0.0637159
0.0531882
0.680951
0.804475
0.189778
2.0164
0.681682
0.0534154
2.06164
0.0681843
0.321701
0.0674635
0.178229
0.931951
0.0355643
1.2702
0.150011
4.40445
3.96403
5.75495
0.0425379
6.71426
2.67694
0.0448071
0.0360402
2.83339
2.23137
2.05669
2.46511
0.0627852
4.5764
6.58233
2.36519
0.792778
5.3373
3.43817
4.25347
0.148506
1.68238
2.3031
2.51038
0.0363275
0.0969731
1.91419
10.0463
1.675
1.18962
1.5289
4.11348
0.872592
4.13155
0.758548
0.928102
0.947726
2.40194
0.0281998
4.40023
5.67526
2.18876
0.127859
1.25076
2.34373
0.0452351
1.8153
0.0413981
2.48308
0.812494
1.08489
0.121807
5.96882
1.09179
2.0922
0.0413444
1.25994
1.08406
5.19785
0.62577
1.02702
2.23724
1.92351
1.66094
1.23335
1.88438
1.41184
0.0406776
1.34404
7.08092
2.15301
5.14411
1.15371
1.15213
4.78276
0.740464
1.05342
0.90138
1.06697
6.85616
1.21017
1.11656
0.729914
1.76906
0.222172
2.63171
6.44533
0.964055
0.913658
1.22723
1.05735
1.80422
1.30538
0.0876357
0.508294
5.28792
0.0441949
0.0574641
0.786774
2.58923
0.0475989
7.90318
6.71822
0.994164
0.868777
5.19131
1.92665
0.0565907
1.4647
2.06642
2.58274
3.23156
1.40265
0.194189
1.67484
1.14505
2.36505
1.30184
6.33419
0.762218
5.9819
1.17829
0.800475
1.01574
2.59439
3.38034
0.680704
1.75151
1.25307
5.9693
2.62457
6.26858
3.51928
2.86494
0.103612
2.46642
5.22407
2.32394
0.912968
1.12573
1.86036
1.35429
0.705968
0.87556
2.29748
0.303587
1.92219
2.03886
1.29382
0.0515562
3.38792
0.957282
3.05959
3.96545
4.5187
0.160217
0.0292537
1.1864
2.16848
5.42645
2.24749
1.71352
0.126516
10.39
3.228
4.9757
0.266756
2.00035
2.03044
0.113619
0.317814
2.27008
6.45518
0.0566309
1.09772
0.180906
2.2475
1.02783
0.0793146
2.02186
2.33027
6.73997
1.96203
1.21708
0.181393
2.017
3.55165
2.23289
2.01699
0.897593
2.4742
5.78522
3.84386
2.27191
1.70229
0.18596
2.03737
3.27932
0.319667
1.61877
4.12735
1.73599
4.75317
2.5249
0.990556
1.07478
0.973169
1.46637
0.151755
2.91379
2.04825
10.8797
1.15646
0.685403
2.02374
0.371386
5.41916
2.45881
2.21973
8.76091
3.60645
1.02301
1.22469
9.64734
2.93424
1.83993
1.25925
0.387571
11.8827
1.98181
2.52174
1.97453
1.92115
2.43569
0.54123
2.58075
2.58141
0.0549468
6.95438
2.17344
2.88762
2.92954
2.06183
2.04661
3.36051
2.17505
6.14886
2.54177
0.930473
2.77342
1.80446
0.504937
0.807788
2.76506
3.84357
2.17793
2.76062
2.12173
1.91558
0.23267
2.76612
0.603003
2.02423
2.76133
1.51009
2.36466
1.81758
2.99319
2.76829
0.443285
0.346006
0.949559
0.223752
6.53001
3.07794
3.21546
3.35006
3.37496
3.3917
3.26367
3.16566
3.28937
3.15991
3.26385
0.406304
5.32368
0.265377
0.158196
0.180095
0.134922
0.11462
0.116992
1.19778
0.873786
0.835255
0.0614808
0.0813256
0.364975
0.082577
0.0797936
1.06196
7.19614
0.397089
0.261465
0.952392
0.0592715
6.92591
0.075977
0.282351
0.0662488
0.34772
6.72007
0.0667102
6.48018
0.0688225
0.0687469
0.237529
1.2955
5.32952
5.13529
0.0765257
0.139931
0.125283
0.0811371
1.22563
0.133034
5.4272
0.374012
0.227966
1.20823
0.232513
0.186574
0.182015
0.33945
5.61409
0.194591
0.165078
0.446502
1.11618
0.239481
0.151973
5.59246
0.370136
0.914198
1.28878
0.831703
0.668443
0.545552
5.45361
5.30168
0.269195
0.687439
0.588314
0.505921
0.479411
1.18241
0.165145
0.15948
0.519391
0.059515
1.19053
0.652443
1.36919
5.37815
1.41907
0.909111
1.0812
0.0565866
1.04187
0.0572271
5.20743
0.854782
0.441035
0.446958
2.68041
1.62229
1.61312
2.18207
3.16684
0.373419
1.19663
1.77593
1.13488
0.586316
2.77641
0.754853
2.28974
1.34603
1.51988
1.13092
2.21596
1.58344
2.83732
3.25912
2.50383
0.604842
2.12754
2.70512
0.0689544
1.77472
0.0539641
1.38831
1.63059
4.48218
3.30735
5.10548
5.22008
1.97609
7.05476
1.59928
1.61332
0.0379175
1.83786
2.50253
2.70807
3.32798
3.09096
1.0895
0.800502
1.92386
0.0609481
1.78546
2.77676
3.03824
2.71115
2.48966
1.63633
2.66917
2.96092
1.15475
0.887507
1.61981
1.0088
0.796215
2.27878
2.20401
2.03753
2.22028
1.41079
2.99889
1.04769
2.52548
4.76209
5.60888
1.74847
1.6002
2.70087
1.41436
2.35845
1.76263
1.37977
3.2395
0.399572
0.150975
0.0597263
1.67343
2.56692
2.75297
1.93551
2.29622
3.56477
0.0463897
1.4717
2.5112
3.3245
2.85353
0.693493
2.63431
1.95632
1.73734
3.05656
0.401912
2.90772
1.49558
2.12292
1.91774
0.0308948
3.02173
2.70753
2.41213
6.33779
0.988298
1.87624
2.17324
2.05177
5.78287
0.312419
2.71604
1.95087
1.81909
2.05104
1.98667
3.35934
3.06747
1.73943
3.12153
1.56172
2.74096
0.23552
1.83169
1.95409
1.91843
0.87279
5.95163
6.99497
2.94621
1.86211
2.29693
1.52732
1.32687
0.63292
0.560156
2.13647
0.210859
2.7678
3.03264
2.37622
3.22502
1.62648
0.96917
2.43346
1.11334
1.58818
1.67589
2.12212
1.52643
2.89322
2.39163
0.050274
0.258484
2.33581
1.79883
0.38701
0.996129
2.27882
1.15455
2.19468
0.772757
0.373187
3.41915
2.34289
1.52519
0.225737
4.20277
1.75325
2.49021
2.7198
0.569224
1.77392
2.5462
1.387
2.04444
2.48906
2.24952
2.02023
1.34698
1.03129
1.32643
0.139059
2.25044
1.95701
1.60574
0.792412
1.9571
2.3856
0.834744
5.13635
2.53513
0.558572
2.48989
1.65792
2.03517
2.00379
2.6962
0.0897092
4.79452
1.72428
0.689185
2.9058
1.1478
2.12824
2.65704
2.41716
0.0507705
0.595189
2.02366
1.16809
1.66416
2.72589
1.71956
1.23916
0.367605
1.86349
0.0665504
1.24905
1.83385
1.48213
0.0676872
8.52137
1.79185
2.16602
0.212922
1.81995
0.778245
8.85599
2.88909
1.26268
0.0785287
0.279568
1.33691
0.0742964
0.0781228
2.68741
1.40277
1.74405
1.06106
1.66567
2.07704
2.09865
2.20171
0.0656873
1.51134
2.66125
0.826895
2.61263
0.213538
2.54234
0.0694382
1.23657
5.27877
1.65805
2.41471
0.828695
2.43667
1.96957
0.420438
1.09406
2.83615
1.0291
0.126175
0.0543009
1.00195
0.0579636
2.4347
0.900034
1.15545
0.442217
2.8395
2.78204
9.18396
1.02843
1.9729
1.55133
1.65293
9.72371
0.080874
2.19658
4.8355
2.96593
7.55778
2.2251
0.39554
3.50429
1.94927
0.136335
2.0069
2.48096
3.07283
1.48374
0.608451
2.50843
0.6726
0.379026
0.196671
3.32812
2.91221
2.46828
0.860373
2.71801
6.63229
1.20117
3.55834
2.74032
1.45528
2.5277
0.269264
0.195126
1.0759
2.65455
6.78803
0.322549
8.05256
1.47145
6.46662
1.22208
0.679012
1.6372
1.56114
0.29172
0.058858
0.676128
1.78582
0.204991
0.114087
1.59594
2.73848
1.89532
2.21595
2.66484
2.43651
2.59882
0.0913511
5.55495
2.47753
3.12174
7.84369
2.70899
1.24814
1.16897
0.494856
0.0743489
1.67118
2.25719
1.88478
6.38001
0.0536012
1.91741
3.026
7.78242
7.26746
5.80085
0.761458
0.746814
0.761213
0.750595
0.754134
0.852888
0.724059
0.555506
0.581406
0.566685
0.57009
0.649992
0.931697
0.576758
0.557383
0.581731
0.569534
0.701739
0.680107
0.558895
0.660285
0.653101
0.548396
0.64738
2.41248
5.24702
0.0553775
0.810463
1.72079
0.800558
0.560768
4.89636
1.10976
0.689511
0.697649
0.808665
0.993854
7.74143
1.07515
0.153029
5.9427
1.62708
2.73888
0.925526
0.0326802
8.06084
0.240057
0.632906
2.31075
2.56336
0.442304
0.722887
4.45765
0.771678
1.15488
2.36266
2.11961
1.98388
2.22469
4.93298
0.0767724
0.0547119
0.392554
0.0538824
2.55025
0.865416
0.528866
1.04411
2.35409
0.737062
1.11103
0.459256
0.85639
0.60942
4.57274
2.82005
2.48867
1.479
0.262909
1.26833
0.115188
0.60515
0.477245
0.015921
2.41857
0.993244
2.48344
0.129995
0.953877
0.287723
2.1471
0.0770642
11.5234
2.68008
1.09546
0.184656
6.58094
2.6805
6.44447
0.0751773
0.234947
0.0495115
0.368128
0.147719
2.71811
1.04214
4.93157
5.76507
0.617224
2.67856
0.0520878
1.08952
0.961217
1.39937
0.944182
0.804347
1.47474
1.60406
2.59273
1.04022
3.17664
0.0552748
0.0682284
0.962187
1.4244
1.17503
0.241788
2.55638
2.8036
2.46768
0.376351
2.55151
2.52092
4.19594
5.31746
0.0679082
0.793593
0.528648
0.0359642
2.761
7.49322
0.528942
1.86143
0.721849
6.53133
4.88741
0.377053
0.654181
1.11206
2.48295
3.12346
3.78731
3.0451
2.54936
0.0149441
2.35957
0.0179808
2.56486
2.21142
3.13255
3.52726
6.53917
5.74968
2.50958
0.464115
2.54691
0.0388695
0.240855
0.0304411
0.0580636
0.0436114
2.58938
3.38075
1.98818
2.02231
3.21774
6.51641
0.0585994
0.226296
2.88633
3.1553
2.45558
3.26279
3.62938
2.90338
3.24127
0.613601
3.23992
3.13153
3.13929
3.11573
2.93992
2.77041
3.26208
2.63487
0.031208
0.0245161
0.0283765
0.0296079
0.0273162
0.0297335
2.4883
1.10819
3.33178
1.23709
2.60413
0.532616
0.0568533
2.35899
0.0624416
0.082607
2.50525
0.111867
1.05812
1.58581
0.0188935
0.684575
0.284617
3.48452
2.85872
1.25277
2.34308
1.12773
0.879759
2.62335
10.4191
1.10274
0.318781
1.06576
3.62498
0.29794
1.89674
3.8259
0.253989
2.4163
0.045214
0.554615
0.0560153
0.527656
1.1242
0.42831
0.0489133
1.02137
0.28286
0.175895
4.21021
3.24806
0.413917
0.838732
1.90553
2.42954
0.0648505
3.53686
5.61899
1.05464
4.3728
1.09374
0.561329
1.50005
3.75731
0.029215
2.56769
1.53897
2.1082
3.12483
0.532608
1.12796
0.396994
0.103271
2.90792
1.37112
2.63517
3.5498
2.1604
4.84811
5.395
0.826391
2.51748
1.01844
0.0542952
0.221596
0.223284
0.899552
0.272596
6.24965
2.6798
0.376577
3.21076
2.47194
0.758676
3.13275
0.425612
1.49309
3.04922
1.32776
2.46196
0.0699606
1.62852
2.06517
3.55261
3.29837
2.48008
0.0467726
0.308411
0.875019
5.80404
5.47235
2.42021
2.87303
2.21696
0.0607279
7.88093
0.269571
1.42545
1.13148
0.786667
0.350646
2.92778
0.0611433
0.858057
1.22014
5.1702
0.505678
2.90166
1.60253
0.974176
0.0612761
0.203229
0.0298809
4.53118
0.932607
3.02336
4.02048
2.64172
2.5648
2.50783
0.742664
0.0471345
0.678553
0.432481
2.27333
3.25481
2.49125
11.7275
1.06143
0.826679
2.52249
4.8855
2.40467
0.0631932
1.35874
1.17176
1.67883
1.34405
2.03518
2.54466
2.02461
0.490688
2.51163
0.627205
0.0596714
2.29202
4.06517
2.67546
3.57904
1.99739
1.48683
2.27885
2.58577
1.11492
0.477164
0.596979
0.690501
0.0609001
2.49204
6.61147
2.43413
2.52319
0.0650643
0.287404
0.87157
2.41293
0.655523
3.27637
2.78534
3.47784
4.58399
0.420673
2.57058
2.50774
2.56842
3.04739
1.40672
0.7603
0.533651
1.01384
0.757955
1.36266
0.857799
1.21193
7.68536
2.38046
0.252835
1.25424
2.77689
1.81636
0.855595
1.25688
0.505013
6.72679
1.1114
0.229421
0.0589954
10.6133
2.04732
2.91612
0.0736069
0.287895
3.48213
1.18631
5.89138
0.137287
0.0591223
0.296449
8.95523
0.0210528
6.01375
5.89862
0.488301
1.52514
3.50253
6.19538
3.50055
2.78751
0.524627
0.24906
2.02151
0.969242
0.282363
4.69176
0.0288459
2.9906
2.45747
7.0387
0.525101
0.516458
0.0157286
3.94474
0.151311
1.10737
0.652021
6.48565
0.0814491
0.176547
0.561442
4.00229
1.30895
1.06466
0.318838
0.0617903
0.224675
5.3349
8.34859
0.0945044
2.15337
0.344217
0.0823479
0.693502
0.949588
0.555193
2.28615
0.0581568
0.750179
0.770236
0.986247
5.77066
0.963129
0.0342847
1.13616
0.872704
0.0609304
0.0726639
2.34859
0.785776
0.0517521
0.695784
0.792828
1.06611
0.0322728
0.0327857
5.55152
4.72285
1.40845
0.918785
0.0526399
0.197641
0.0956929
1.18929
0.0742599
0.0817711
0.291944
0.315542
0.238487
0.0594934
6.29623
1.10666
0.70167
2.74416
1.61575
4.81971
2.41851
0.0612244
0.48528
1.15406
0.921993
3.19604
0.159669
0.613233
0.200974
0.544631
0.136161
0.584387
0.430394
1.02161
0.0839565
2.0588
2.72474
1.04269
1.47578
0.288635
1.14876
0.556362
0.805228
1.44797
0.2869
0.381412
0.914178
1.65634
0.255143
0.0356391
0.987923
1.11651
0.692873
0.237627
)
;

boundaryField
{
    frontAndBack
    {
        type            empty;
    }
    wallOuter
    {
        type            kqRWallFunction;
        value           nonuniform List<scalar> 
96
(
0.830394
0.529541
0.537419
2.37622
2.43346
2.39163
0.996129
0.772757
0.373187
2.34289
0.225737
1.75325
0.569224
2.5462
2.04444
2.65704
2.41716
0.595189
0.0656873
1.23657
0.126175
1.48374
0.608451
2.91221
2.46828
0.761458
0.746814
0.761213
0.750595
0.754134
0.852888
0.724059
0.555506
0.581406
0.566685
0.57009
0.649992
0.931697
0.576758
0.557383
0.581731
0.569534
0.701739
0.680107
0.558895
0.660285
0.653101
0.548396
0.64738
0.632906
0.865416
0.528866
0.60515
0.015921
2.48344
0.617224
1.04022
0.793593
0.528648
0.528942
3.12346
0.0149441
0.0179808
3.13255
3.1553
3.26279
3.24127
0.613601
3.23992
3.13153
3.13929
3.11573
2.93992
2.77041
3.26208
2.63487
0.031208
0.0245161
0.0283765
0.0296079
0.0273162
0.0297335
0.532616
0.0188935
0.527656
0.532608
2.48008
0.0298809
3.25481
3.27637
0.7603
0.533651
0.0210528
2.78751
2.45747
0.0157286
)
;
    }
    inlet
    {
        type            fixedValue;
        value           nonuniform 0();
    }
    outlet
    {
        type            zeroGradient;
    }
    wallInner
    {
        type            kqRWallFunction;
        value           nonuniform List<scalar> 
126
(
0.906898
0.506452
0.552744
0.0336431
0.0423984
0.044643
0.0282257
0.0293889
0.329964
0.0671844
0.140431
0.50661
3.663
0.346881
0.0229942
0.244735
0.470118
0.261003
0.216312
0.0636446
0.0401832
0.251951
0.735074
0.168999
0.432131
0.27036
0.431873
0.0286495
0.0306541
0.0406768
0.600972
0.879726
3.3212
0.468476
2.78623
0.0564174
0.17475
0.624009
0.40459
0.0637159
0.0531882
0.804475
0.189778
0.0534154
0.321701
0.178229
0.0355643
2.83339
0.0363275
1.18962
1.5289
0.0281998
2.0922
0.194189
0.800475
1.01574
0.103612
1.86036
1.35429
0.87556
0.303587
0.160217
0.0292537
1.1864
0.113619
0.317814
1.09772
1.21708
0.181393
1.73599
1.07478
0.973169
0.504937
0.603003
0.545552
0.519391
0.446958
1.77593
0.754853
1.58344
0.604842
1.63059
0.800502
1.78546
1.0088
2.20401
1.74847
0.693493
0.0308948
1.95087
1.56172
1.77392
1.387
0.778245
1.24814
1.67118
0.60942
2.1604
0.525101
0.516458
1.15406
0.921993
0.159669
0.200974
0.544631
0.136161
0.430394
0.0839565
2.0588
2.72474
1.04269
1.47578
0.288635
0.556362
0.805228
1.44797
0.2869
0.381412
0.914178
1.65634
0.255143
0.0356391
0.987923
1.11651
0.692873
0.237627
)
;
    }
    procBoundary3to1
    {
        type            processor;
        value           nonuniform List<scalar> 
48
(
3.52054
2.20274
2.45878
3.27097
1.52583
1.98746
2.20274
0.988915
3.23251
0.299567
0.299567
0.3212
0.3212
0.252008
0.24184
0.294505
0.21708
0.223179
0.21708
0.191115
0.166563
0.15374
0.191115
1.09546
0.252683
0.153263
0.185969
0.15374
0.313233
0.420965
0.420965
0.627213
0.627213
3.23251
0.148922
1.3719
1.50065
0.252683
3.62744
1.30439
0.252008
2.16439
2.68858
0.191115
0.247315
0.897599
1.47786
0.193419
)
;
    }
    procBoundary3to2
    {
        type            processor;
        value           nonuniform List<scalar> 
29
(
0.07437
0.07437
0.0380904
0.0364888
0.383381
0.0867163
0.0208085
0.0895751
0.080292
0.0667376
0.0933364
0.359139
0.0604174
0.0559778
0.0577588
0.0423721
0.0822887
0.0848943
0.081731
0.0610109
0.060586
0.0822887
0.0324002
0.0848943
0.0506119
0.0627361
0.0848943
0.294929
0.294929
)
;
    }
}


// ************************************************************************* //
