/*--------------------------------*- C++ -*----------------------------------*\
| =========                 |                                                 |
| \\      /  F ield         | OpenFOAM: The Open Source CFD Toolbox           |
|  \\    /   O peration     | Version:  v1912                                 |
|   \\  /    A nd           | Website:  www.openfoam.com                      |
|    \\/     M anipulation  |                                                 |
\*---------------------------------------------------------------------------*/
FoamFile
{
    version     2.0;
    format      ascii;
    class       surfaceScalarField;
    location    "0.93";
    object      phi;
}
// * * * * * * * * * * * * * * * * * * * * * * * * * * * * * * * * * * * * * //

dimensions      [0 3 -1 0 0 0 0];
oriented        oriented;


internalField   nonuniform List<scalar> 
2708
(
-0.000522782
1.76581e-05
0.000206215
0.000298909
0.000166428
0.000221727
-0.000172849
-0.000215306
-0.000227501
1.95835e-06
0.000126447
9.90953e-05
1.25159e-05
-1.17398e-05
-7.84051e-07
7.91302e-09
-0.000370665
-0.000211236
0.000287031
0.00029487
0.000793298
-0.00101974
0.000490587
-0.000264143
2.25776e-05
-2.75183e-05
2.53289e-05
-2.03883e-05
-0.0001341
0.000205447
-1.68711e-05
-5.44757e-05
-0.000668173
0.00069139
0.000716731
-0.000739948
1.90375e-05
1.75266e-05
-1.39864e-05
0.000942839
-0.000975052
0.000294461
-0.000262248
0.000280379
-0.000348671
0.00073675
-0.000668459
-0.000202464
0.000261589
-0.00026148
0.000202355
-0.000112254
-0.000373594
0.0003499
0.000135948
0.000350715
-0.000520084
-0.000107981
0.00027735
3.12092e-05
2.46319e-05
-3.68037e-05
-0.000722847
0.000552256
-0.000160227
0.000330818
0.000171588
-0.000276214
0.000177508
-7.28821e-05
0.000302176
0.000138288
-0.000402728
-3.77364e-05
-0.000141269
-6.41878e-05
0.000194293
1.11643e-05
-0.000407663
0.000797136
0.000553366
7.08566e-05
-4.2683e-05
-0.000140428
-0.000713596
-0.000393424
0.000572077
0.000534942
-0.000277975
-0.00124351
0.00128679
0.000234691
-0.000773452
-0.000608317
-0.000103773
3.12868e-05
0.000199254
-0.000126768
-0.000949433
-0.000164248
0.000138629
-0.00023144
8.12811e-05
0.000264583
-0.000114424
5.63044e-05
-0.000498922
0.000442617
-1.66988e-05
-0.00055742
0.000574119
0.000679942
5.28865e-05
-5.28349e-05
-0.000679994
-0.0006326
5.27876e-05
-2.52475e-05
0.00060506
0.000648634
4.97904e-05
-2.75545e-05
-0.00067087
-0.000247468
0.000181928
7.59714e-05
-1.0431e-05
0.000730908
0.000340669
-0.000751695
-0.000319882
-1.89923e-05
2.03133e-05
-1.18588e-05
1.05378e-05
0.000251835
0.000766879
-0.000159902
-9.50654e-05
6.00536e-05
8.86056e-05
-5.35939e-05
-4.12185e-05
7.03359e-05
1.62816e-05
-4.53991e-05
9.90012e-05
0.000555754
-0.000633213
-2.15424e-05
-0.000539866
0.000502169
0.000893083
0.000971028
-0.000157444
-0.000148792
-3.22206e-05
-2.27654e-05
1.60308e-05
3.89552e-05
-0.000468928
0.000700309
-0.000536749
0.000305368
0.000107713
3.73991e-05
-0.000150618
5.50555e-06
0.000153753
-9.29179e-05
-7.033e-05
9.49493e-06
-0.000901333
0.000108496
-0.000156596
2.63083e-05
-2.61628e-05
-2.76638e-05
5.86662e-05
2.69584e-06
-6.16307e-05
2.68697e-07
7.12978e-05
-0.000332176
0.000365277
-0.000104399
5.84697e-05
-4.77325e-05
-2.2868e-05
1.21308e-05
0.000438259
-0.000217389
-0.000223315
2.44432e-06
4.58157e-06
0.000311932
-0.000155349
-0.000161164
9.73333e-05
0.000172224
-0.000132642
-0.000136915
-0.000104887
0.000229074
7.08896e-06
-0.000131277
0.000124839
-0.000204816
-8.90751e-05
0.000169052
-0.000427418
-0.000384066
0.000489183
0.000322301
0.000767724
-0.000170961
-0.000596762
0.000199204
6.74137e-05
-0.000266617
0.000119275
4.27481e-05
-1.39673e-05
-2.87809e-05
2.21799e-05
4.35544e-07
-2.26155e-05
-5.02219e-05
-4.48435e-05
-2.13986e-05
-1.98198e-05
5.55032e-06
6.49296e-06
0.000464559
-8.14963e-05
9.04095e-05
1.12993e-05
-0.000105799
0.000154046
-4.82474e-05
-0.000143781
0.00021867
-7.48891e-05
-0.000167037
0.000136718
3.03188e-05
-0.000257304
9.83612e-06
-1.41593e-05
3.96857e-06
4.73562e-05
0.000134571
-0.000284633
-8.89613e-05
0.000199231
-9.1518e-05
0.000257254
4.56718e-05
-0.000302926
-6.28812e-06
2.52179e-05
-1.89298e-05
1.14133e-06
1.63853e-05
3.16218e-05
0.000139967
-0.000620782
-0.000102065
-4.77206e-06
-6.55661e-05
7.03381e-05
-0.000160897
8.14491e-05
0.000503128
-0.00042368
-0.000192695
0.000158482
0.000187966
-7.99303e-05
5.46441e-05
0.00119778
-0.00117249
9.19775e-06
1.65779e-05
-1.26042e-05
-1.31714e-05
3.35414e-05
1.11852e-05
-4.36925e-06
-4.03573e-05
0.000185588
-0.000205742
2.49307e-05
-4.77664e-06
2.79024e-05
2.45981e-05
-0.000999958
0.000947457
-0.000118398
4.54083e-05
-0.000744364
0.000817354
-5.86753e-06
0.00023733
-0.000106623
0.00021438
-0.000212338
-7.90905e-06
5.46602e-06
-3.19092e-05
8.64967e-05
-2.28332e-05
3.70405e-05
-4.25605e-05
2.83532e-05
0.00014323
-0.000106707
6.08109e-05
3.7092e-05
-0.000488658
0.000451566
-0.000314075
-0.000280504
-0.000391086
0.000456934
0.000214655
-3.30941e-05
-3.26933e-05
3.35667e-05
-0.000186971
0.000183927
3.0441e-06
0.000304173
-0.000208969
-0.000200091
3.69636e-05
-2.73096e-05
-0.000472588
2.03844e-05
-3.57672e-05
0.000487971
-8.14245e-05
-6.13394e-05
0.000136039
6.72492e-06
-3.30062e-05
-7.68515e-06
3.44033e-05
-0.000615911
-1.73879e-07
0.000626961
-1.08765e-05
3.92395e-06
0.000628366
-0.000610223
-2.20669e-05
-0.000114596
0.000689407
-0.00074223
0.000167419
0.000513784
-0.000327832
-0.000579376
0.000600397
-0.000305262
2.97176e-05
8.80616e-05
-0.000370942
0.000191509
0.000441022
6.75401e-06
5.08591e-05
-8.43119e-05
2.66987e-05
-0.000681703
0.000611457
0.000572415
0.000116987
0.000221665
-0.000171434
9.25957e-05
-1.64345e-06
-5.84041e-07
9.78179e-06
-2.80419e-05
-5.56295e-05
-8.81514e-05
-7.55629e-05
-0.000444521
0.000140629
-0.000136048
-6.59628e-05
-6.60969e-05
0.000202815
-1.88733e-05
2.00146e-05
2.97534e-05
-7.32124e-05
-0.000201582
0.000166814
0.000112533
-0.000260089
0.000149514
-2.22706e-05
3.39419e-05
3.13979e-06
-1.48111e-05
0.000215218
0.000337039
-4.3676e-05
-0.000232538
-5.16009e-05
-2.56166e-05
5.49469e-05
6.50555e-05
-0.000299302
0.000536423
-0.000142349
0.000221374
-0.000220294
2.81134e-05
-8.3128e-07
-4.21299e-05
3.5051e-05
-3.43192e-05
-1.32935e-05
1.25617e-05
4.75478e-05
-1.83554e-05
-4.31597e-05
0.00115481
0.000120941
-0.00111727
-0.000158481
9.40717e-05
9.45832e-06
6.08776e-05
0.00064246
3.08849e-05
7.80955e-05
-0.00075144
-0.000183887
0.000384927
0.000371037
0.00011261
0.000573117
-3.66187e-05
-0.00025504
0.000264187
0.000295026
2.47613e-05
0.000114503
-3.70144e-05
-6.83996e-05
-8.17367e-05
0.000625568
2.10967e-05
-0.000564928
-1.49273e-05
1.43433e-05
-0.000554512
-1.25476e-05
-6.59626e-05
0.000633022
-6.77115e-05
6.84408e-05
-3.26385e-05
-0.00116317
-0.000121603
0.00112423
0.000160545
0.000461385
0.000322843
-0.000280767
-0.000503461
-0.000154919
8.19522e-05
-0.000600067
0.000673033
-5.57646e-05
5.21444e-05
2.16691e-05
-1.80488e-05
0.00102993
-0.00089378
0.000207114
-0.000343262
-0.000305015
-0.000223652
0.000267187
6.44663e-05
-6.2471e-05
-2.73898e-05
2.53945e-05
1.74923e-05
-5.92927e-05
5.51856e-05
-1.33852e-05
-6.0644e-05
0.000201273
-0.000840084
0.000362441
-4.51391e-05
0.000184814
7.54019e-05
4.11726e-05
-2.735e-05
0.000381964
-0.000358926
-0.000169993
0.000146955
-0.000130171
-0.000917837
5.74402e-05
0.000990567
-0.000274495
-0.000317871
0.000337326
3.87547e-05
0.000653292
-2.69032e-05
-0.000665144
0.000254937
-0.00144781
3.29609e-05
0.00115991
0.000325398
-0.000309898
0.000206227
0.000304455
-0.00121269
1.36936e-07
-4.1298e-05
-1.04398e-05
0.000999343
-0.000674973
0.000100684
0.000391954
-5.4379e-05
0.000575239
-0.00012652
-0.000426564
-2.21551e-05
-8.43613e-06
1.24259e-05
6.23254e-05
0.00021337
-0.000232817
7.90741e-05
-5.96273e-05
0.00114794
-0.00112213
-0.000303786
0.000561211
-6.86548e-05
0.000506787
-0.000460804
0.000464728
-0.000358641
0.000244045
0.000218883
0.0005679
-0.000816321
0.000364407
-0.000110663
0.000562577
-2.2016e-05
-5.5589e-05
-0.00106598
0.00114359
0.000651118
-0.000705508
0.000167
0.000680555
-0.000578632
-1.75082e-05
-8.44151e-05
0.000588637
-0.000828411
0.000338775
0.000615403
-6.95481e-05
0.000143551
-1.95797e-06
0.000168096
0.000796409
-0.000641662
-0.000295542
-0.000348049
0.000363087
0.000676351
-0.000636847
-0.000168342
0.000128838
0.000112374
-1.71942e-05
5.88662e-05
-0.00019774
0.000156464
0.000299069
-0.000257794
0.000193378
-0.000206833
0.000126537
-0.000113082
-1.103e-05
6.30692e-05
1.24271e-05
-0.000661868
-0.00038737
0.000798696
0.000250541
9.05747e-06
2.20098e-05
-2.70634e-05
-4.00384e-06
-1.43365e-05
0.000286815
-0.000336167
6.36886e-05
1.1461e-05
0.000697524
-0.000695044
-1.39414e-05
0.000167281
-0.000642317
0.000642615
-0.000167579
-0.000124123
-1.12204e-06
9.51759e-05
3.00692e-05
0.00105552
-0.00107675
-6.31056e-05
8.43322e-05
-0.000194645
1.4563e-05
0.000136526
5.27961e-06
-0.000141805
-1.42501e-05
1.99169e-05
-6.81377e-05
0.000647318
4.90732e-05
-6.8025e-05
-0.000543732
-4.15438e-05
-3.06352e-05
-0.000100517
-0.00113209
0.00115268
-9.23546e-05
-1.69002e-05
-7.77167e-05
0.00067325
-0.000194644
-0.000560342
-8.33257e-06
0.000677871
6.81276e-06
0.000255857
-1.84046e-05
3.27172e-05
-0.00027017
0.000226702
-0.000596816
-0.000291754
0.000460896
0.000332443
-0.000645206
-0.000148134
-6.89871e-05
0.000196104
8.62536e-05
0.00027998
-0.000261407
0.000453914
-0.000472487
9.07512e-06
6.2703e-05
-8.5775e-06
-6.32007e-05
-0.000648892
0.000555276
-0.00104498
0.0010739
-0.000129438
-0.000642702
0.000747916
-0.000492584
-0.000176537
0.000167416
-0.000443455
3.98984e-05
0.000736
-0.000503823
5.77427e-05
0.000672782
-3.70875e-05
-0.000175271
0.000292827
-8.04681e-05
-1.32554e-05
1.32228e-05
0.000679975
6.4134e-07
-0.00062503
0.00063585
0.000393929
-0.000135683
0.000330391
-1.32402e-05
-0.000653974
3.46139e-05
-0.000750546
-0.000221814
0.00082912
0.00014324
0.000651873
0.000138259
-0.000142814
-1.47274e-05
-0.000384352
-0.000144652
-0.000132937
0.0004317
0.000352355
-8.39904e-05
6.92926e-05
0.000201334
-0.000186636
-4.73826e-05
5.36378e-05
-6.11825e-06
-0.000130392
0.000345221
0.000142673
-0.000357502
0.000103709
-9.31645e-05
-0.000360623
0.00054097
-0.000195074
-9.7011e-05
-0.000140806
-7.66812e-05
9.29204e-05
0.000124567
-0.000380569
0.000200439
-0.000263496
0.000861754
0.000310169
-0.000553477
-0.000401897
-8.01327e-05
-5.89196e-05
3.41082e-05
-4.8401e-05
-0.000351431
0.0011905
-0.000811166
-5.85628e-05
2.02905e-05
5.69471e-05
3.32457e-06
-8.45612e-06
4.18062e-05
-0.00113451
4.24146e-05
0.000900338
0.000191753
-5.90259e-05
1.5411e-05
-1.49479e-05
-0.000193892
0.00110377
0.000164022
-0.000597573
0.000757218
-0.000441718
0.000282073
1.21195e-05
0.000279978
0.000156514
-8.7907e-05
-0.000348585
9.08559e-05
-0.000383858
-4.56326e-05
6.86727e-05
1.07529e-05
-4.29935e-05
3.05877e-05
-0.000369311
-0.000668148
-0.00057137
0.000421887
-0.000483508
-0.000585303
0.000646925
-6.29302e-05
0.000176783
0.000501551
0.00010965
-0.000810544
-7.10339e-05
-0.000133782
0.000226657
0.00010324
0.000629406
0.000194246
-0.000171778
-0.000152731
-0.00015276
-6.3052e-05
0.00011401
-0.000134948
0.00120352
-0.000303759
-4.74439e-05
0.000590073
0.00146496
-0.00017818
-8.32618e-05
-0.000729233
-8.23561e-05
-1.97155e-05
0.000831304
-0.000432778
0.000433419
-0.000513801
0.00065206
-0.000325046
0.000380811
-0.00033026
-0.0002698
0.000290072
-0.000528772
0.000508501
-7.05496e-07
0.000440885
0.000289801
-0.000160644
-9.10844e-05
-3.8073e-05
0.000104823
-8.44552e-05
-7.59242e-05
5.55564e-05
-0.000263028
0.000555361
-0.00045323
-0.00096277
0.000149941
-0.000321677
-0.000403666
6.78088e-05
-8.6603e-05
0.00114731
-0.00112852
0.00016989
-0.000118394
-0.000266803
-1.17489e-05
-0.000616343
0.000551082
-0.000642151
0.000707411
-1.09188e-05
-0.000461161
2.60842e-05
-0.00027642
-3.53343e-05
0.00028567
1.90803e-05
-0.000814657
3.72469e-05
-0.000628836
0.000257809
-0.000616451
6.7495e-05
-0.000528299
1.76955e-05
-0.000158489
4.84388e-05
-0.000426877
-5.90138e-06
0.000273123
0.000274881
-0.000283817
6.15204e-05
-5.47599e-05
-6.76048e-06
0.000108763
-0.00012996
-0.000131534
-0.000239207
0.000278945
-2.66223e-05
-1.31157e-05
-0.000273924
-0.000572566
0.000138397
0.000708093
-5.81586e-05
8.20781e-06
-0.000420775
-0.000653302
0.000468599
0.000379918
0.000842944
-0.000291812
0.000151769
-0.0007171
0.000782493
0.000102702
5.22417e-06
-2.40974e-05
-2.0834e-06
-0.000174497
0.000111567
0.000713512
-0.000680152
0.00065803
-0.000577365
0.000218397
-0.000405147
-0.00050062
0.00026892
7.66714e-05
1.70259e-05
-8.0398e-05
0.000121607
-5.82349e-05
-0.000641273
0.000589933
0.000767697
-0.000716357
0.000247532
-0.000290489
-0.000377818
0.00015579
6.32543e-05
-9.47005e-05
5.24147e-05
-2.32803e-05
0.000256001
-3.64767e-07
-0.000229552
-0.000605229
0.000320066
0.000453503
-0.00016834
7.31619e-05
5.32853e-05
8.92268e-05
0.00075468
-0.000686855
-0.000694811
0.000626985
0.000342798
-0.000357952
9.41957e-05
-7.90413e-05
7.2204e-05
-3.73681e-06
-1.15201e-05
0.000427051
-0.000468594
9.48569e-05
-7.18152e-05
-7.12891e-05
0.000754364
-0.000675106
-0.000695601
-3.07765e-05
2.33733e-05
5.61775e-05
-4.87743e-05
-4.81769e-05
1.15472e-05
-0.000244391
-9.15158e-06
-0.000721949
0.000530756
0.000624318
-0.000433124
-0.000243924
-0.000661541
-0.000743349
0.000417977
-0.000279858
2.85141e-05
-1.78477e-05
-0.00023021
3.66613e-06
-0.000172159
0.000303072
-0.000739408
0.000608496
-0.000310231
0.00105871
-0.000137023
-0.000626924
0.000462052
0.000878384
-0.000844755
0.000551203
0.000725251
-9.69465e-05
-0.000174207
0.000749938
-0.000521033
0.00123605
-0.000197703
-0.000691557
2.40977e-05
0.00026744
-3.89052e-05
-0.000252632
7.37974e-05
-3.02678e-05
0.00079529
-0.00083882
2.50021e-05
0.000166489
-5.7478e-05
-0.000134013
0.000346971
-1.303e-05
-7.79396e-05
0.000492172
0.000212563
-0.000489374
-0.000215362
-0.000201478
0.000221596
4.88333e-06
0.000184824
-0.000137161
-1.41801e-05
-3.34835e-05
0.000340375
-2.1044e-05
0.000971983
-0.00129131
4.77343e-05
-8.48218e-05
0.000112325
-0.00130053
0.00116619
-5.21326e-07
-2.95218e-06
7.43301e-05
-9.45825e-05
-0.000119833
9.46886e-05
-0.000738719
0.00112299
0.000128967
-0.000513243
-0.000693596
0.000674508
-0.000574391
0.000443789
0.000118282
-0.000662943
0.000600965
-3.91454e-05
-0.000682058
0.000704505
0.00085188
-0.000872577
-0.00014814
-9.48454e-05
3.17485e-05
-0.000572261
9.47037e-05
0.00110181
-0.00062425
-0.000323813
-0.000104752
0.000298172
0.000930057
0.000278596
0.000895741
-0.000879149
-0.00014603
0.000236244
-9.81934e-05
5.71191e-05
-4.15453e-05
8.26196e-05
0.000121389
-9.41755e-05
-2.80257e-05
8.12163e-07
-0.000232171
0.000934019
0.000309922
-0.000235418
-0.000379519
-0.000676616
0.000494478
-1.58201e-05
0.000132861
2.16871e-05
-0.000138728
-5.69388e-06
-0.000957129
-0.000730984
6.45024e-05
0.000729102
-6.66992e-05
-0.000726905
0.000432703
0.00019868
-0.000200425
-0.000430957
0.00066256
-8.78846e-06
-0.000451138
-0.000202633
0.000818461
-0.000945686
-4.11169e-05
-0.00036064
-0.000112963
0.000149791
6.73778e-05
-3.93566e-05
-0.00040181
8.301e-05
1.50592e-05
0.000303741
-0.000525948
9.84563e-05
2.56815e-05
-5.80837e-05
-9.27685e-08
1.78238e-08
0.000841648
-0.000328354
-0.000179869
-0.000644766
0.000470158
-0.00014833
0.000322938
-0.000377883
-8.7576e-05
-0.000179307
-0.000693906
0.000773481
0.00021944
-0.000770611
-0.000231639
0.000782809
0.00060312
-0.000601528
0.000210971
7.03114e-05
0.00090216
-0.000591867
0.000551288
-1.30329e-06
0.000805055
9.65866e-05
-4.75963e-06
8.59377e-05
7.94971e-06
-8.91278e-05
0.000479458
-8.13939e-05
-4.82082e-05
-0.000349856
-0.000834142
3.38386e-05
-6.79094e-05
5.02126e-05
1.76967e-05
-5.65004e-05
3.55231e-05
0.000500087
-8.88718e-06
-1.1741e-05
0.000702536
-0.000439917
5.74465e-05
0.000476914
9.6375e-06
1.35345e-05
-0.00015892
6.28923e-05
-6.53336e-05
0.000161361
2.28228e-07
0.000726834
7.22976e-05
6.93686e-05
-8.92515e-05
0.000492869
0.000120388
-0.000477186
-0.000136071
-8.37294e-05
0.00027354
-0.00101881
0.00045808
-1.99604e-06
2.08305e-05
-0.000111082
0.000605764
0.000207286
-0.000177113
-0.000203983
9.84345e-05
0.000262665
0.000179091
-0.000175596
-2.46461e-05
3.58126e-05
0.000446913
7.77926e-05
-7.18766e-05
-0.000154056
-9.67385e-05
-8.49128e-05
0.000117463
0.000193383
0.000249969
-0.000305064
-0.000101102
6.52161e-06
0.000101334
-0.000222547
-0.00117889
0.000157926
-0.000153352
0.000314098
3.53548e-05
-0.0001961
0.000323243
-0.000292271
0.000166705
-0.000197677
0.000437157
-0.000267266
0.000149125
-4.84277e-05
0.000264999
0.000169847
0.000261997
5.31346e-06
-0.000365532
0.000395341
-0.000269281
0.000239472
0.000118412
-0.000118385
0.000396984
-0.000267858
-1.07408e-05
0.000357836
-8.08808e-05
-1.44253e-05
-5.98027e-05
0.000471212
-2.79419e-06
-0.000293673
0.000164722
0.000131746
0.00102993
0.000519625
-0.000287639
-0.00126192
-1.3778e-05
0.00023258
-1.30969e-05
0.000165808
8.44946e-05
-6.9675e-05
-9.00032e-06
-7.10104e-05
-1.7231e-06
3.30241e-05
3.97094e-05
8.07706e-05
-3.0174e-05
0.000199893
-0.000181527
-0.000244171
0.000225804
-5.21866e-05
4.18963e-05
5.67328e-05
-4.64425e-05
-7.36924e-05
-7.36107e-05
9.51166e-05
-6.44348e-05
-2.20941e-05
3.70517e-05
4.94772e-05
-3.75297e-05
3.78423e-05
2.17279e-05
-2.20404e-05
-7.71627e-05
-0.000148586
1.46825e-05
2.63903e-05
3.77602e-05
-4.13705e-05
4.25944e-05
-1.74525e-06
-0.000957902
3.84384e-05
0.000896711
2.27526e-05
3.19348e-05
-3.91207e-05
-6.99767e-05
-9.17686e-05
-0.000138126
0.000138931
2.41092e-05
-2.35834e-05
-2.7655e-05
7.80417e-05
-5.95864e-05
9.19963e-06
-0.00102922
0.00010428
2.63553e-05
-4.52904e-05
4.53254e-05
8.96163e-06
-0.000102603
6.01919e-05
-2.7374e-05
-6.04728e-05
-0.000279922
-0.000174122
-0.001141
0.000202637
4.71133e-05
-5.13563e-05
-0.000318018
-0.000702044
4.48171e-05
-4.22124e-05
-2.53701e-05
1.31154e-05
-0.000209419
-0.000132812
5.16714e-05
-1.18742e-05
-7.37114e-05
3.39141e-05
-0.0012775
0.000272551
0.000813095
-0.000637933
0.000854771
2.32408e-05
-4.53081e-05
2.27498e-05
4.88e-05
-3.64988e-05
-1.56061e-06
-9.1628e-06
4.99037e-05
2.52227e-07
-1.89407e-06
2.27889e-05
3.06927e-05
7.70859e-07
-0.000901772
0.00043737
-1.97805e-05
1.28597e-05
-1.20716e-05
0.000102143
-6.84059e-05
2.77087e-05
0.00010425
-0.000133853
-0.000128517
-4.15075e-05
2.33049e-05
0.000151436
-0.000231491
-6.79809e-06
3.98416e-06
-7.38995e-06
1.02039e-05
-0.000730817
4.19825e-05
-7.0879e-06
-5.46751e-05
7.81787e-05
-0.000131471
-1.33464e-05
2.57124e-05
-3.59232e-05
2.35572e-05
0.00013226
-0.00019289
4.14005e-05
1.92296e-05
-4.26192e-06
2.57323e-05
-5.70532e-05
9.7775e-05
-0.000120698
-0.00119326
0.000174804
4.73184e-05
1.75655e-05
-2.29013e-05
0.000109509
0.000314046
-0.000209176
2.98739e-06
-9.6587e-05
0.000103463
-9.86361e-06
-8.56418e-06
0.000148894
-0.000109043
0.000351035
9.12081e-05
-4.03977e-05
4.33851e-05
-0.000333469
-0.000858439
-1.35133e-06
-0.00115113
-0.000462223
0.000103931
-2.19688e-05
-3.10638e-05
9.12419e-05
5.60034e-05
-4.31975e-05
0.000196512
6.52158e-05
-0.000152218
5.5448e-05
-7.73586e-05
0.000178033
3.93899e-05
-2.40398e-05
1.63868e-07
-1.86606e-05
-1.57961e-08
-4.03819e-05
3.86637e-05
2.42104e-05
-1.08916e-05
-8.57112e-05
1.43259e-05
6.68344e-05
-0.000107823
0.00014505
-0.000734658
-0.000231482
0.00033916
-0.000200596
0.000110877
-0.000321456
0.000190136
-9.18017e-06
-5.99335e-05
3.25715e-05
0.000130648
4.78999e-05
-4.67076e-05
7.01551e-06
-0.00139687
-0.000196223
0.000417961
2.1104e-06
-2.42069e-05
2.42105e-05
2.60021e-05
-0.000170371
0.000134029
-0.000180264
-0.000140909
0.000187144
0.000186123
-0.000171399
-4.38638e-05
1.81075e-05
-8.20663e-05
0.00046356
-0.000417789
-0.000554206
0.000508435
2.2233e-05
0.000118337
3.22212e-05
0.000697173
-0.000623376
5.27061e-06
0.000133783
-8.40551e-06
-4.62509e-05
0.000209177
-0.000412697
0.000498931
-0.000167627
-5.28175e-05
-2.24954e-05
7.53129e-05
2.14289e-05
0.000786804
-0.000737922
9.92563e-05
0.00014565
-0.00048859
0.00048118
4.4354e-05
-0.000284572
0.000258894
-0.000763805
0.000887939
-0.000124134
0.000190888
-0.000133427
-0.000562361
1.75177e-05
-0.000219596
0.000764439
-0.000335155
0.000327244
-0.000294082
0.000301994
-9.43236e-06
5.5932e-05
0.000844925
0.000415044
-0.000431693
0.000491239
-0.00047459
-2.82615e-05
-1.54833e-05
2.11293e-05
0.000117805
-0.00023835
4.86886e-05
1.46222e-05
-1.80533e-05
0.000112084
-6.66324e-05
-0.000766415
0.000615134
-0.000256382
-0.000128886
-0.0004479
-0.0012847
-0.000290357
0.000753302
0.00018498
-3.54638e-07
-0.000190672
0.000215124
-0.000535857
0.00069172
-1.18032e-05
-0.000159947
0.000171396
0.000188107
-1.15376e-05
-1.91561e-05
-0.000158428
0.000159531
0.000206417
-0.00066782
2.35744e-05
0.000437829
-0.000387034
0.000353863
8.52573e-06
-0.000857024
0.000388242
0.000771854
-4.50861e-05
0.00034312
9.18125e-05
9.86857e-05
-0.000119126
0.000114632
4.49416e-06
0.000779861
4.67598e-05
-4.88288e-05
-7.11117e-06
6.29121e-05
0.000515866
-0.000578778
7.61128e-06
0.000290158
-0.00037865
0.000131727
-0.000274873
-0.000406066
1.70359e-05
0.000259344
-0.000259158
-0.000857211
-0.000477459
0.000699647
-0.00045367
0.000597121
9.94224e-05
-0.000576156
0.000174684
0.000630332
-0.000645569
0.000775981
-0.000265646
0.000116185
-0.000131179
-0.00013093
-6.72986e-05
0.000142407
0.000115028
0.000220799
-0.000232343
0.000607267
-0.000585838
-0.000322577
-0.000457092
0.000160947
0.000328863
-0.000581294
-0.000229049
0.000256865
-0.000444187
0.000290058
-0.000286957
0.000441087
-0.000137417
8.81142e-05
0.000194353
0.000278692
0.000399055
-0.000245043
0.00114728
0.000182242
0.000497892
-0.00052709
6.50107e-05
5.67596e-05
0.000777672
-0.000773759
-0.000163564
0.00015965
0.000702382
0.0002024
-0.000486804
-0.00115379
0.0010717
0.000220894
-0.000701479
-1.66848e-05
5.63493e-05
-2.76017e-05
-1.20628e-05
3.57576e-05
-4.05606e-08
2.81173e-06
-0.000117263
-4.54964e-05
-0.000363222
0.000219712
-0.000382438
2.57246e-06
0.000242499
-0.000621327
0.000684467
0.00074733
-0.000724714
0.000634698
-0.000657314
0.000142564
0.00107934
-0.000917444
-1.54766e-05
1.9444e-05
0.000144128
1.18251e-05
-3.45641e-05
0.000681575
-0.000125864
1.95282e-05
0.00013608
-0.000275414
-0.000185446
1.0012e-05
0.00010462
-0.000466926
0.000543096
-0.000439392
-0.000128321
-5.95394e-05
-9.30372e-05
0.000821695
-0.00038277
-0.000496908
0.000435491
-6.10024e-05
0.000147554
-0.000159422
0.000123946
0.000235299
-8.03007e-05
0.000210877
1.5565e-05
0.00010881
-7.97852e-05
0.000314095
0.000108028
0.000242171
3.66391e-06
8.69348e-05
0.000690359
0.000668381
-0.000803832
-8.37051e-05
-0.000440367
-0.000674852
0.000626629
-0.000211079
7.35381e-05
0.000768148
-0.000707672
0.000379833
5.04681e-05
-4.28837e-05
-1.37026e-05
-3.99566e-05
4.56667e-05
0.000492182
-3.62764e-05
0.000643544
-0.000121637
-0.000648297
5.43798e-05
-0.000181917
-0.00039311
-0.00020007
-0.000153458
-1.48333e-05
0.000854073
-9.66686e-05
-0.000565652
0.00051208
3.78563e-06
0.000507588
0.00062475
-2.4911e-05
-0.00013782
-0.000955474
-0.000273946
0.000342185
-0.000430011
-2.57531e-05
1.67728e-05
-3.55965e-05
0.000125185
0.000218142
9.68825e-05
-7.44705e-05
-0.000152791
4.81812e-05
0.000266612
0.000514985
8.33031e-05
0.000237592
0.000980002
-0.000925358
0.00059754
-2.02218e-05
-1.74874e-05
3.09714e-05
7.94364e-05
0.00106747
-8.74704e-05
-3.11839e-05
0.000729637
0.000179204
-9.77026e-05
0.000132011
-0.000170737
-0.000161311
-0.000407394
-0.000856971
-6.83871e-05
-4.36606e-05
4.13416e-05
1.72255e-05
-1.49066e-05
-0.000242796
0.000356287
-9.34849e-05
-2.00053e-05
3.49854e-05
0.000188386
-0.000706514
-3.18826e-05
0.000174636
-5.09853e-05
8.66345e-05
-3.56493e-05
-0.00029518
8.55966e-05
0.00022769
0.00021924
0.00027342
0.00080646
-2.28416e-05
-2.81437e-05
1.00662e-05
2.02152e-06
-1.20877e-05
-0.000277084
-0.000288612
0.00035719
-6.85781e-05
-0.000117836
0.0002643
1.3323e-05
-3.25679e-06
0.00109944
0.000226981
-0.000173584
-5.33971e-05
-4.00301e-05
-0.000529313
3.37832e-05
-0.000430212
-2.08201e-05
-6.46259e-05
0.00070817
-9.92607e-05
0.00116673
6.35206e-06
0.000505728
-6.16304e-05
0.000136834
-0.000108676
0.000270014
7.90212e-05
-6.84857e-05
-0.000686019
0.000675484
-0.000433238
-0.000196877
-2.08976e-05
-0.000700987
-6.73907e-05
-0.000670718
0.000171785
0.000617215
-4.97259e-05
3.85759e-05
0.000797834
-0.000412214
5.62867e-05
-4.26194e-05
-7.67193e-05
-0.00060061
-0.000501556
4.22302e-05
3.97059e-06
-0.00071227
-2.55741e-05
0.00057814
0.000333843
-0.000338965
-4.79585e-05
2.64071e-05
-3.32086e-05
4.20054e-05
-0.000145776
0.000187074
-0.000451299
-0.000143491
-0.000122054
8.84312e-05
-5.46871e-05
-0.000333832
0.000378952
0.000122295
0.000185064
-4.30022e-05
6.73981e-05
9.35155e-05
-5.42061e-05
4.62873e-05
0.000269521
-8.71946e-06
-4.15617e-05
0.000860518
-0.000118685
0.000438639
-0.000789162
2.0746e-05
4.82331e-05
-0.000517351
0.000490447
-0.000422324
3.94443e-05
0.000542368
-0.000238427
0.000282707
-8.92517e-06
-0.00106161
0.000181674
-8.45842e-06
-0.000260819
0.00023351
-0.000168062
2.41791e-05
0.000713685
-2.54327e-05
4.65935e-05
-1.09655e-05
2.21418e-05
0.000122607
-7.48557e-05
8.43233e-05
-7.75153e-05
4.74793e-05
-2.83121e-05
0.00031893
-4.20459e-05
0.000762083
0.000283338
-0.00079887
6.51813e-05
9.17785e-05
-7.61892e-05
-0.000769326
-0.000106862
-0.000104627
-0.000240903
0.00017408
0.000137578
-9.11682e-05
0.000286219
4.19179e-05
7.24825e-06
3.84537e-05
-4.32987e-05
2.62855e-05
3.99953e-05
-0.000546255
-6.22496e-05
4.4587e-05
-8.25501e-05
0.000878472
0.00102885
0.000115004
0.000834893
-0.000132804
4.09886e-05
-1.03921e-05
4.53725e-06
5.85483e-06
-0.000178234
0.000187882
-0.000684579
0.000612177
0.000623484
0.000111251
-0.000104118
-0.000413098
-1.34902e-05
0.000325126
2.82242e-05
0.00012864
-0.00124808
-0.00073731
0.000979154
-0.000415398
0.000481274
2.18648e-05
-0.000704517
-0.00042481
0.000225117
-0.000207555
-0.00042997
-0.000406585
9.20571e-05
2.93091e-06
1.97714e-05
3.44396e-05
-3.3465e-05
-0.000405283
0.000158469
-0.000325751
3.1447e-05
-2.95428e-05
5.11128e-06
0.000215314
4.48789e-05
4.47407e-06
4.07939e-05
8.8868e-05
-0.000267822
2.24693e-05
0.000114324
-0.000687924
-0.000233577
0.000617761
6.79241e-05
0.000740199
-2.34448e-06
-0.000278169
0.000652555
-0.000606557
-5.85071e-06
1.74207e-05
-0.000236472
0.000109716
-0.00112195
9.35695e-05
-6.46047e-05
-0.000706256
0.000164433
0.000606428
-4.54126e-05
0.000879018
-0.000224707
0.000177656
0.000237271
-0.000509041
0.000141806
-0.000590178
0.000536331
-2.8509e-05
-0.000206214
-0.000298701
0.000390712
-4.49444e-05
-0.000495486
7.263e-05
0.000645624
1.29122e-05
-1.6076e-05
-8.86232e-05
-5.49466e-05
4.44712e-05
0.000261685
0.000517593
-7.89541e-05
-0.000677798
-0.000111364
4.38353e-05
0.000320744
-0.000104719
0.000356007
0.000442149
3.77241e-05
-0.000135702
-0.000441982
0.000310418
5.98315e-05
0.000169925
7.68729e-05
-0.000356007
-4.2962e-06
-4.62161e-06
3.65606e-05
-2.03992e-05
0.000432617
-0.000581239
-8.49538e-05
0.000328929
1.52275e-05
-3.55158e-05
-0.00061205
-3.94208e-05
0.000606058
-2.94896e-05
0.000204341
-0.000908761
0.00101833
-5.96375e-05
0.000112561
2.09628e-05
-5.73974e-05
0.00015816
-0.000174695
-0.000101169
0.000322932
1.29126e-05
3.38363e-05
5.32001e-05
1.62648e-05
-0.000275458
0.000179347
-0.000169747
0.000265858
-0.000306549
7.6214e-05
-1.76602e-05
3.877e-05
-0.000400793
-0.000425132
-0.000498656
0.00064833
-0.000184675
-0.000254726
-8.45809e-05
0.000642783
4.46844e-05
-0.000602887
-0.000130603
-0.000155163
0.000145368
0.000140398
1.87062e-05
2.60697e-05
-3.73367e-05
-0.000622937
0.000594446
-0.000199768
-0.000401288
0.000480565
-0.000552364
-0.000519757
0.000423178
0.000134439
-6.48877e-05
-0.000374813
0.000156313
-0.000236313
2.23314e-05
-1.70017e-05
0.000823174
-5.71214e-05
-0.000695597
-0.000663014
-0.000349809
0.000790054
2.14219e-05
-0.000535793
-2.51481e-05
7.68521e-05
-0.000361719
-0.000317738
0.000531726
-0.000360561
0.000246635
0.00079701
-0.000684231
-0.00011278
-0.00047816
0.000494224
-1.6064e-05
-0.000438262
0.000401015
-0.000379563
-2.14526e-05
0.000906661
0.000480984
-0.000393837
0.000396994
-3.15668e-06
0.000443003
4.9166e-05
0.00045494
-5.79455e-05
-0.000626488
0.00101516
0.000507826
0.000607408
-0.000580462
-2.69454e-05
0.000521049
0.000455737
0.000435532
2.02048e-05
0.000516212
4.83668e-06
0.000427659
7.87324e-06
0.000445512
-1.7853e-05
0.000466608
-7.55102e-06
0.000917039
0.000367382
-5.6831e-06
6.84373e-05
-1.9444e-05
-0.000173212
3.49765e-05
-5.95931e-06
-9.93472e-05
0.000810309
-0.000128683
-5.22095e-05
0.000143026
0.000510149
-8.20478e-07
0.00068561
8.79429e-05
0.000122336
-0.000166608
0.000311506
1.15668e-05
4.73962e-05
7.16028e-05
0.000633983
-0.000634423
-2.91967e-05
0.00038811
0.000308012
-9.67373e-05
-3.67011e-06
1.01481e-05
-9.32954e-05
-6.97825e-05
-0.000231631
0.000471082
0.000877929
-0.000354769
0.000147058
-3.2228e-05
-2.36027e-05
-5.84362e-05
-0.00012133
0.000857617
-0.00112015
9.66384e-05
0.000248521
-0.000128125
0.000879486
2.24942e-05
0.00024043
-0.00114241
-2.33629e-05
-7.33015e-05
-2.93119e-05
-1.21987e-05
2.13689e-06
9.27775e-06
0.000298318
-0.000536457
-5.44877e-06
-0.000127842
7.6321e-05
-1.7892e-05
0.000168904
9.23731e-05
-0.000204544
0.000166395
-0.000106825
-9.86907e-05
5.05043e-05
7.51305e-05
-0.000453289
-0.000108521
0.00041348
-0.000372179
0.00040081
-0.000341468
-0.000114964
-0.000189878
4.63777e-06
1.7937e-05
0.000141862
-4.26193e-05
1.12828e-05
-0.00044954
0.00045165
8.1423e-05
-0.000122385
-3.09141e-05
-8.98741e-06
5.3173e-06
0.000271278
-0.000670231
-7.52336e-06
-0.000535234
0.00011051
0.000285538
-0.000403843
-4.19225e-05
-3.53603e-05
4.31861e-05
0.000169682
-0.000253854
-7.51089e-05
-0.000569995
3.72749e-05
-0.000161759
0.000682509
2.23291e-05
4.94547e-05
-0.000174726
0.000666317
-0.000292639
0.000175892
2.44785e-05
4.54237e-05
-2.07705e-05
0.000133942
-0.000117139
-0.000246968
7.42493e-06
-0.00011655
0.000137813
-9.0424e-06
-4.79974e-06
-0.000305378
9.334e-05
-9.42832e-05
8.90573e-05
-0.000619988
-9.15575e-05
0.000196255
5.05244e-05
0.000103355
-0.000239449
-0.000208676
0.000729944
2.53462e-05
3.35719e-05
0.000157651
-1.89279e-05
-3.9905e-05
-0.000182735
0.000449298
-0.000399642
-0.000144087
0.0004572
-0.00015474
5.35863e-05
0.000123657
-8.20678e-05
-0.000170065
0.000465313
-0.000495673
0.000197591
-0.00124812