/*--------------------------------*- C++ -*----------------------------------*\
| =========                 |                                                 |
| \\      /  F ield         | OpenFOAM: The Open Source CFD Toolbox           |
|  \\    /   O peration     | Version:  v1912                                 |
|   \\  /    A nd           | Website:  www.openfoam.com                      |
|    \\/     M anipulation  |                                                 |
\*---------------------------------------------------------------------------*/
FoamFile
{
    version     2.0;
    format      ascii;
    class       volScalarField;
    location    "0.88";
    object      epsilon;
}
// * * * * * * * * * * * * * * * * * * * * * * * * * * * * * * * * * * * * * //

dimensions      [0 2 -3 0 0 0 0];


internalField   nonuniform List<scalar> 
1431
(
115.007
41.2025
1.69246
0.276377
4.97072
38.8531
0.466632
364.664
53.1503
0.437377
108.921
270.758
41.4082
12.0756
24.5508
0.417145
23.7674
10.7247
20.6323
15.9781
229.282
14.7957
56.9191
310.576
57.4273
24.9358
71.4675
12.629
69.9471
32.6147
24.7311
36.6514
22.3782
7.54658
45.0055
7.49101
88.5268
0.54652
0.26896
29.5945
81.5935
84.5012
34.8321
0.302861
60.8655
4.77009
26.6788
58.8937
0.469891
0.402709
33.4691
0.341775
38.5002
302.89
28.085
24.5725
5.79585
298.186
41.9159
15.9912
15.6224
0.335941
0.531993
0.485742
0.286466
0.509658
8.31858
0.937506
2.87125
20.8736
311.442
10.1214
0.254972
6.70083
15.1182
6.7004
4.00372
1.44306
0.46061
6.97803
28.9528
4.34384
156.013
33.6581
162.466
0.310642
0.291158
25.8503
191.329
213.776
36.7274
6.57989
1.18222
0.383151
25.1659
35.7952
309.641
121.116
0.306803
15.3708
32.579
0.297992
29.3717
6.75189
3.60386
38.651
49.8777
116.902
49.6737
33.4905
10.2846
48.6779
4.42884
83.1589
38.5611
5.50348
13.4583
0.315822
0.462443
0.512208
27.2948
37.4397
385.532
17.9006
253.806
0.458747
2.1948
14.3579
2.77569
2.41271
27.609
15.7659
2.35195
21.5588
27.4921
0.57629
3.02544
0.388144
165.179
1.28477
0.728935
20.33
39.565
4.36116
65.896
22.4526
0.815732
35.357
0.404544
7.26243
0.535085
3.54976
32.1103
0.526511
42.1471
1.45005
157.276
68.9925
195.395
0.250947
191.142
48.9235
0.311742
0.248944
252.938
99.0872
90.3301
35.7985
0.408677
84.6014
192.381
40.9006
25.5933
169.064
54.3424
156.463
0.777057
46.2413
37.9738
45.2515
0.610245
0.627373
28.9544
473.076
42.8349
97.0606
137.76
71.068
26.4126
190.332
20.754
29.5671
29.847
151.654
0.405637
83.0862
118.499
37.7726
2.308
76.2431
33.5957
0.284108
77.0122
0.421563
43.4568
22.629
42.5064
2.65283
196.407
39.4698
189.494
0.369004
46.7161
40.159
181.284
26.597
32.9931
38.2657
29.1078
67.029
42.1109
28.1129
71.6926
0.250342
45.3846
252.793
100.975
101.866
42.3711
41.286
308.93
23.67
36.7272
28.1109
37.8958
191.051
42.9661
38.7845
20.175
23.792
1.0485
41.8579
219.078
30.2724
28.2302
37.8464
34.6241
80.4345
44.6574
0.688736
9.55445
158.985
0.234814
0.253896
21.5241
70.6589
0.23217
303.986
167.095
32.1229
42.1702
163.484
29.1614
0.394889
50.6436
88.84
55.2909
230.477
55.3908
5.83875
53.8772
38.7731
31.524
15.9173
183.588
25.6538
174.167
38.9058
54.9288
61.3444
45.8644
78.1717
22.4373
26.9992
12.4114
143.576
74.5004
143.319
179.101
42.419
2.25709
57.5947
102.403
40.1512
28.8024
44.2082
170.916
112.002
23.4744
62.9261
39.2607
14.9312
23.568
33.0392
49.035
0.23815
54.4527
31.5668
84.9359
67.8542
93.937
2.42879
0.315562
96.1358
51.1003
111.844
39.1267
19.5927
1.56723
733.658
52.1906
98.6031
8.76079
35.9921
38.6407
1.50422
12.2656
60.0481
291.951
0.260217
88.983
2.37633
58.1473
17.8321
0.403285
32.8271
58.9885
181.162
38.9414
100.174
7.0406
33.3156
76.0818
77.7156
49.9158
27.4392
34.5513
169.369
75.2573
38.88
41.2605
3.46617
36.3153
55.5808
5.35536
25.6773
177.182
137.021
150.159
77.6226
17.2581
79.2206
74.4176
16.0833
1.86688
144.127
57.8943
577.768
45.6621
19.8776
99.9409
6.45774
204.965
38.193
72.2051
354.402
61.9523
16.932
15.6014
430.925
55.7719
39.3545
26.7741
7.53815
749.037
44.6641
42.4648
50.8429
34.973
38.282
3.59679
44.898
45.1914
0.246902
183.863
37.6749
56.8766
59.0385
62.24
40.7368
59.4465
67.2188
140.107
67.1133
14.8051
54.5501
40.0538
27.9158
6.47536
53.6665
70.2493
39.3537
52.926
35.9857
48.1856
6.44081
45.8281
38.0345
38.9395
52.3803
54.6973
41.799
27.6789
50.068
52.0109
9.11622
7.62118
27.478
2.80349
247.54
60.5336
65.7087
71.0965
72.0012
72.5207
67.7064
63.4122
69.7052
63.4601
67.9631
7.73512
163.187
3.8865
2.44151
3.71169
2.05585
1.35092
1.38274
31.4701
15.5602
16.0992
0.450125
0.44374
8.28169
0.454519
0.435476
19.1
261.702
10.4719
3.45844
16.7114
0.471458
251.11
0.403493
3.28249
0.572775
6.97716
244.793
0.548754
237.583
0.341537
0.32407
4.77319
26.3779
166.221
154.33
0.665551
1.77067
1.50366
0.380347
23.6974
1.89681
171.212
3.74697
5.14727
24.4595
4.25804
3.75534
2.19993
4.67745
186.502
1.3897
1.81282
5.64632
26.9919
3.85573
1.78211
193.444
3.98638
33.6317
24.2315
12.4712
24.084
37.5806
188.369
159.647
3.87984
8.95839
8.08069
13.1508
6.1505
31.9844
2.41653
1.77909
42.6155
0.251066
20.6709
8.66677
39.9445
168
47.5583
13.326
34.3957
0.254731
15.0615
0.243289
183.032
29.2198
9.34574
22.4378
39.6849
26.6348
25.6369
83.934
66.394
4.14064
24.6993
162.492
16.3304
16.6078
52.0549
46.3057
87.0718
20.9342
56.4742
22.5632
33.5954
142.739
54.5582
71.9333
41.289
38.9494
63.2008
50.1374
0.493381
83.5574
0.239744
26.7157
145.655
313.097
73.3776
169.693
114.798
35.1515
530.908
37.2317
25.9552
0.24359
29.748
63.0196
49.0244
90.5192
60.6395
15.778
62.8357
34.7162
0.252955
163.989
50.4826
59.175
49.3875
65.0242
58.5714
45.0729
50.9102
36.7193
26.9937
25.253
87.3317
20.6548
37.6032
254.799
32.5415
34.2865
48.7253
59.7542
24.0124
42.4798
88.6042
180.442
165.201
24.5235
52.344
24.4085
44.0007
39.4531
97.2672
59.9433
3.4651
2.07184
0.248604
31.8616
45.1967
49.7456
69.8784
59.5287
216.269
0.286449
20.3222
44.5941
51.9569
44.1951
50.8641
47.771
33.5494
42.6274
63.2616
7.37754
57.9107
23.0388
35.0451
32.4381
0.331213
58.0221
48.8661
41.4583
311.665
8.98259
73.7971
31.124
64.8719
131.144
1.61512
51.9834
195.663
30.2583
37.1614
36.7345
231.66
49.9027
27.1134
78.542
137.925
48.3484
3.23246
37.1938
53.8323
47.4298
10.0292
187.335
191.898
60.6088
31.0336
39.5824
29.8414
44.9675
17.6898
6.77185
35.6884
4.69752
51.383
49.1831
284.013
65.8776
23.9901
28.3007
293.349
19.3693
50.7509
20.6708
28.2867
23.6981
47.0372
288.511
0.470987
4.87246
39.1594
61.021
6.80344
70.5519
97.7572
43.606
82.4808
45.981
14.78
75.7253
287.733
49.865
6.61505
102.992
184.314
41.8324
49.9061
27.8488
154.979
309.286
116.117
234.571
38.2527
45.9015
63.3205
28.3776
32.9051
46.2803
3.08081
89.8495
32.585
72.5378
7.76334
72.5745
90.3604
23.8579
156.1
44.5185
16.7751
50.8438
71.3041
35.8926
110.262
156.621
0.873727
100.842
24.2996
5.51039
129.641
40.3727
77.1211
343.744
297.797
0.242469
39.2725
54.836
12.3664
56.6311
49.5186
39.183
27.8441
7.69271
66.1768
0.369254
18.9501
26.3243
16.6717
0.352251
386.451
61.9464
58.4248
4.99972
42.6556
57.2898
375.321
136.996
42.8811
0.441602
5.44395
52.3444
0.377613
0.429212
52.8505
19.5174
32.0991
37.8249
59.6249
69.5028
62.2302
34.4673
1.25926
34.7566
57.8144
28.1904
43.1679
4.54125
44.6089
0.560333
101.344
169.087
42.1345
39.3763
26.4805
38.9363
70.0655
11.5389
41.1121
60.202
36.4708
2.8746
0.268841
35.0858
0.256821
42.0839
30.3928
21.0735
11.4701
52.669
50.9699
688.407
35.2287
42.6258
36.2584
43.5583
506.939
0.641381
32.3289
167.869
72.1859
279.132
36.0749
7.12608
81.647
64.7583
1.86998
81.4579
43.2102
61.4543
138.678
40.5631
64.4443
19.8442
6.46608
1.70717
72.7202
388.954
323.434
28.116
42.9644
285.714
46.4064
81.4761
50.7153
21.9911
44.3782
3.02523
2.29615
41.3065
47.7337
194.526
6.00998
326.307
33.075
166.878
46.2382
19.875
25.1105
25.1739
6.42895
0.660928
5.28055
55.1783
3.10875
2.10678
25.785
44.4716
55.084
33.8618
48.1181
51.5712
45.8847
0.488998
164.987
49.8361
61.8027
558.49
60.0927
109.172
32.6852
13.2028
0.499085
120.508
47.2969
88.7028
242.95
0.326272
79.2855
192.554
484.018
296.433
381.703
62.4173
56.6133
61.5071
69.1831
65.5252
68.3356
53.8107
44.0556
40.4761
42.9406
42.8777
52.6465
74.7186
38.9742
40.8613
44.681
36.1394
53.4631
53.0746
34.9859
52.3819
50.8268
34.9038
48.2916
41.2232
141.373
0.415233
10.7374
39.8694
13.6787
11.7372
227.251
46.1749
19.8595
12.7874
35.4316
14.6941
313.372
23.6963
1.82743
159.548
52.6519
49.4286
21.502
0.335878
307.439
4.40036
45.5101
42.5366
41.1011
7.5693
12.2339
147.866
33.898
26.7894
40.9593
60.2611
35.7484
37.5503
168.801
0.693814
0.272356
6.96837
0.257775
44.6799
68.612
32.3693
14.9124
38.5246
10.4883
25.0071
13.1746
15.3976
45.6783
160.238
53.0467
42.2975
92.4103
5.46424
28.0363
0.50374
45.2419
8.97693
0.291896
41.521
32.4351
367.828
1.77666
25.1107
7.38706
33.7318
0.421617
806.639
53.5323
37.5701
2.06855
331.364
55.0416
164.798
0.389693
1.88118
0.257444
5.80589
1.82604
49.3739
35.3956
359.796
206.759
45.0746
54.3756
0.255296
42.9732
18.2038
49.4294
29.7912
19.9086
51.9255
61.8505
45.3074
85.4696
84.215
0.288228
0.505273
21.5186
64.2888
61.5854
7.32454
46.3149
44.0003
40.2661
14.5418
44.0076
40.8873
175.349
400.765
0.51269
71.4939
33.9987
0.269684
57.2526
321.449
32.441
45.4285
22.7907
184.083
156.175
2.20948
12.3351
39.7609
43.5597
429.069
174.024
75.2436
41.7865
0.239789
124.213
0.241747
60.6348
33.1705
394.268
87.0447
297.629
178.113
59.486
8.37722
49.5509
0.309007
3.06908
0.299344
0.301574
0.263872
45.8661
81.8177
41.1746
30.9297
74.8924
187.445
0.815429
3.85175
53.8618
416.886
50.5801
395.757
85.9421
55.5402
447.307
44.0439
471.116
470.727
486.649
364.434
368.031
344.085
486.622
309.395
0.576334
0.405723
0.577729
0.575501
0.657187
0.631202
43.4463
37.6759
74.2821
50.5607
61.9973
33.3933
0.259197
39.0264
0.424201
0.47179
43.7874
0.61661
33.3107
24.813
0.391022
20.7265
4.16702
87.5667
53.489
43.948
45.6307
36.5855
10.9236
42.7029
640.805
34.6305
8.30101
29.1715
64.8031
3.52403
28.796
164.268
3.84279
54.7605
0.316262
10.7752
0.260246
36.3584
24.4141
10.6867
0.300979
25.0048
5.86243
2.07456
82.0193
81.9774
8.78733
16.5568
30.8496
164.503
0.436388
168.538
244.625
10.0752
196.553
32.5362
18.3778
44.2977
163.763
0.27831
47.7712
58.8166
109.714
72.5106
35.5822
42.7656
6.22966
0.523364
70.11
29.8838
46.7766
149.415
206.487
204.011
121.619
25.1902
37.6539
57.1417
0.468494
4.65455
2.573
26.0377
6.59775
226.721
48.6864
4.84044
154.857
42.3447
13.2107
69.3718
7.51632
51.881
146.884
50.7329
46.9643
0.737905
62.3791
61.957
194.158
77.1501
371.363
0.277787
6.2245
23.9614
292.526
177.799
100.262
64.8557
55.0068
0.248811
316.801
4.48205
42.049
22.6627
22.7234
8.59105
68.2685
0.255906
53.1085
43.29
196.95
9.25957
55.9708
30.6327
17.2268
0.25456
4.38835
0.602495
132.368
24.5103
65.1464
157.282
50.37
45.8046
42.4188
26.5967
0.243902
22.369
12.4897
45.2334
453.786
42.0069
644.608
42.3522
9.25167
41.8226
173.841
40.5398
0.402986
20.7839
30.1983
114.563
30.2386
82.4462
120.378
62.4077
11.8516
38.104
10.1104
0.256187
41.6769
213.878
65.0507
222.301
47.0769
23.8961
41.0092
46.2996
26.8105
14.533
14.4868
11.3266
0.25722
41.3362
433.733
41.8627
43.3218
0.595202
4.64462
26.6161
40.8231
23.0551
464.209
61.984
77.4844
148.094
7.60496
44.6303
49.4253
45.0829
144.084
51.392
71.5212
36.9139
58.3831
17.9214
75.2344
25.2512
39.275
318.381
41.2219
5.73311
26.9037
55.6521
83.436
25.5069
48.7513
12.3794
281.882
19.9253
3.09488
0.628555
541.755
39.7288
62.1599
0.704804
3.56809
255.316
15.8521
284.156
0.809159
0.346027
2.4457
404.421
0.30154
386.378
207.467
6.86175
54.543
174.945
285.198
82.8406
344.796
4.86243
6.97274
36.3765
51.1198
4.25759
170.999
0.273319
68.1776
471.452
352.075
28.6868
26.4071
0.221987
181.862
0.650383
36.8764
24.874
275.728
0.498574
1.23178
8.83282
109.161
62.0673
41.7282
4.35048
0.258212
1.09311
219.291
349.257
0.455416
41.5813
5.09012
0.777538
27.2826
33.6024
11.1925
49.1691
0.255104
27.1824
25.9045
35.6808
215.998
34.8227
0.378061
44.9865
26.9598
0.252536
0.351335
51.4888
14.2002
0.286696
21.162
24.3641
33.2063
0.33369
0.455785
216.792
189.446
75.5376
22.1171
0.264719
2.52048
1.37291
42.3791
0.812715
0.975687
5.27115
6.61352
5.08335
0.260405
188.66
47.0291
20.3814
50.5738
67.5764
171.573
42.1901
0.25769
8.21261
91.4271
63.9938
199.53
4.69952
12.6732
11.6116
37.0531
4.27123
23.9412
18.7331
19.8276
1.46582
161.374
228.85
58.6802
102.037
10.2682
88.1211
31.009
51.5795
114.169
11.017
16.8333
45.6909
142.639
6.41054
0.407555
60.3787
59.9253
33.8807
6.95941
)
;

boundaryField
{
    frontAndBack
    {
        type            empty;
    }
    wallOuter
    {
        lowReCorrection 0;
        type            epsilonWallFunction;
        value           nonuniform List<scalar> 
96
(
69.9471
32.6147
35.7952
284.013
293.349
288.511
70.5519
45.981
14.78
287.733
6.61505
184.314
27.8488
309.286
234.571
343.744
297.797
39.2725
1.25926
101.344
2.8746
138.678
40.5631
388.954
323.434
62.4173
56.6133
61.5071
69.1831
65.5252
68.3356
53.8107
44.0556
40.4761
42.9406
42.8777
52.6465
74.7186
38.9742
40.8613
44.681
36.1394
53.4631
53.0746
34.9859
52.3819
50.8268
34.9038
48.2916
45.5101
68.612
32.3693
45.2419
0.291896
367.828
45.0746
85.4696
71.4939
33.9987
32.441
429.069
0.239789
0.241747
394.268
416.886
395.757
447.307
44.0439
471.116
470.727
486.649
364.434
368.031
344.085
486.622
309.395
0.576334
0.405723
0.577729
0.575501
0.657187
0.631202
33.3933
0.391022
36.3584
35.5822
371.363
0.602495
453.786
464.209
71.5212
36.9139
0.30154
344.796
471.452
0.221987
)
;
    }
    inlet
    {
        type            fixedValue;
        value           nonuniform 0();
    }
    outlet
    {
        type            zeroGradient;
    }
    wallInner
    {
        lowReCorrection 0;
        type            epsilonWallFunction;
        value           nonuniform List<scalar> 
126
(
41.9159
15.9912
15.6224
0.335941
0.531993
0.485742
0.286466
0.509658
8.31858
0.937506
2.87125
20.8736
311.442
10.1214
0.254972
6.70083
15.1182
6.7004
4.00372
1.44306
0.46061
6.97803
28.9528
4.34384
15.3708
5.50348
13.4583
0.315822
0.462443
0.512208
27.2948
37.4397
385.532
17.9006
253.806
0.458747
2.1948
27.609
15.7659
1.28477
0.728935
39.565
4.36116
0.815732
7.26243
3.54976
0.526511
252.938
0.610245
97.0606
137.76
0.405637
189.494
5.83875
54.9288
61.3444
2.25709
170.916
112.002
62.9261
14.9312
2.42879
0.315562
96.1358
1.50422
12.2656
88.983
100.174
7.0406
137.021
79.2206
74.4176
27.9158
38.0345
37.5806
42.6155
22.4378
162.492
46.3057
142.739
38.9494
145.655
62.8357
163.989
87.3317
254.799
165.201
50.8641
0.331213
195.663
137.925
154.979
116.117
57.2898
109.172
120.508
45.6783
206.487
28.6868
26.4071
91.4271
63.9938
4.69952
11.6116
37.0531
4.27123
18.7331
1.46582
161.374
228.85
58.6802
102.037
10.2682
31.009
51.5795
114.169
11.017
16.8333
45.6909
142.639
6.41054
0.407555
60.3787
59.9253
33.8807
6.95941
)
;
    }
    procBoundary3to1
    {
        type            processor;
        value           nonuniform List<scalar> 
48
(
90.9469
88.7534
83.481
90.9686
57.1323
97.7483
88.7534
11.3519
67.1382
5.76826
5.76826
6.10096
6.10096
3.05595
2.31985
5.28964
3.86617
4.08451
3.86617
2.72153
1.77794
1.56177
2.72153
49.4917
4.23141
2.29977
1.92488
1.56177
2.93754
14.068
14.068
6.57439
6.57439
67.1382
1.90174
55.9313
19.9578
4.23141
87.4575
47.6461
3.05595
34.2878
48.3833
2.72153
2.33728
68.9716
53.5134
2.04797
)
;
    }
    procBoundary3to2
    {
        type            processor;
        value           nonuniform List<scalar> 
29
(
0.618837
0.618837
0.524697
0.565273
13.2332
1.71269
0.269699
0.805678
0.519657
0.526999
1.20708
8.99335
0.654481
0.253914
0.250879
0.236614
0.46415
0.475242
0.624176
0.251234
0.246949
0.46415
0.595492
0.475242
0.293016
0.436879
0.475242
4.13653
4.13653
)
;
    }
}


// ************************************************************************* //
