/*--------------------------------*- C++ -*----------------------------------*\
| =========                 |                                                 |
| \\      /  F ield         | OpenFOAM: The Open Source CFD Toolbox           |
|  \\    /   O peration     | Version:  v1912                                 |
|   \\  /    A nd           | Website:  www.openfoam.com                      |
|    \\/     M anipulation  |                                                 |
\*---------------------------------------------------------------------------*/
FoamFile
{
    version     2.0;
    format      ascii;
    class       volVectorField;
    location    "0.1";
    object      U;
}
// * * * * * * * * * * * * * * * * * * * * * * * * * * * * * * * * * * * * * //

dimensions      [0 1 -1 0 0 0 0];


internalField   nonuniform List<vector> 
1466
(
(-1.0557 -0.0233327 -2.4525e-16)
(1.34061 0.0603271 1.70779e-18)
(-0.421474 -0.136293 7.28455e-16)
(0.182623 2.74403 -7.15876e-17)
(-0.0904531 -0.0843319 -7.53756e-16)
(-0.257627 -0.0961186 -1.15405e-15)
(-1.30458 -0.563154 2.06618e-16)
(0.197085 -0.169369 2.09293e-16)
(7.35241 -0.100752 -9.91963e-19)
(0.0907371 0.0155 2.36502e-16)
(-0.8911 -0.112842 -3.43343e-16)
(0.230164 0.139961 0)
(9.13546 -0.509704 0)
(0.00967455 -0.133571 -2.01895e-16)
(-0.12123 -0.144516 0)
(-0.659664 -0.103052 2.76099e-16)
(0.0102223 -0.144926 -1.39874e-16)
(0.0258773 2.15242 -3.52345e-17)
(0.240358 3.39005 -1.09464e-16)
(0.0820761 3.09261 2.33463e-16)
(0.0566656 3.34224 1.08169e-16)
(-0.293617 -0.271875 8.53446e-18)
(-0.138992 3.5041 -7.54565e-17)
(0.0751065 3.09343 -2.50758e-17)
(8.18367 -0.261471 6.46885e-17)
(1.01499 0.183374 -2.65736e-16)
(-1.20971 -0.927799 -1.5051e-16)
(-0.136588 3.37654 0)
(-0.702615 0.054556 0)
(4.06343 1.64132 5.50415e-17)
(-1.18265 -0.312931 2.47193e-16)
(1.41537 -0.0249407 1.61446e-16)
(-0.169275 -0.0604052 2.65784e-16)
(0.0549934 3.0236 2.51975e-16)
(1.77382 -0.478777 9.59475e-17)
(-0.537992 0.449452 2.89455e-16)
(0.134356 3.03476 0)
(0.0563946 -0.0895734 -3.53914e-16)
(0.378874 -0.0358368 -3.93786e-16)
(-0.160293 0.0185706 -4.49224e-16)
(-1.05126 0.124525 -1.54894e-16)
(-0.740002 -0.0909194 -4.22272e-16)
(-0.15932 -0.152979 2.30686e-16)
(-0.860424 -0.189417 1.43305e-18)
(0.0637589 -0.0399885 -4.84367e-18)
(-0.541944 -0.0720189 0)
(-0.400429 -0.332368 1.14338e-17)
(0.11573 -0.0232625 0)
(-0.108267 -0.022636 1.46119e-16)
(-0.0453637 -0.029232 0)
(-0.627474 -0.106098 -1.04736e-16)
(1.02147 0.0386744 -4.43407e-16)
(-0.143726 0.0418171 7.23117e-16)
(-0.0191422 -0.00472353 7.10749e-16)
(-0.201073 -0.0572993 -1.21378e-16)
(5.84057 -0.192506 1.10874e-16)
(-0.874475 0.0589311 -2.3348e-17)
(-0.764193 0.0412027 0)
(-0.0926341 0.0127544 1.27783e-17)
(0.127048 0.0223481 0)
(0.540683 0.714593 2.16748e-22)
(-0.945591 -0.202578 -1.25671e-16)
(0.0220783 -0.221938 2.1854e-16)
(1.46967 0.0685939 1.80032e-16)
(-0.241091 5.84234 -1.79765e-16)
(0.59373 -0.198137 2.96718e-16)
(-0.352652 2.24681 0)
(0.103446 2.34738 4.35342e-17)
(6.74896 -0.234743 2.54769e-17)
(-0.861084 0.0378927 -1.97569e-16)
(0.611543 1.39782 1.25004e-15)
(-0.165079 2.91592 0)
(0.0269596 2.66987 0)
(7.37546 -0.140218 -1.41875e-16)
(0.353563 0.603426 2.99885e-16)
(3.5154 -0.502599 -1.18048e-16)
(-0.864384 -0.12822 1.08672e-16)
(0.136649 -0.145772 -1.23313e-16)
(-0.0603922 -0.00851814 0)
(4.85667 0.500147 0)
(0.19052 -0.078523 -1.97174e-16)
(-0.764195 -0.256794 -3.79308e-16)
(-0.58291 0.0134787 -3.29698e-16)
(0.306103 3.16125 2.95157e-16)
(0.0330974 2.68007 1.79059e-16)
(0.282161 3.17616 6.81716e-17)
(-0.0250302 3.09514 0)
(4.26948 -0.0473389 1.45016e-18)
(0.218182 -0.0738507 4.49382e-16)
(-0.46645 0.249431 -3.12389e-16)
(1.11552 0.209293 -9.81028e-17)
(-1.19233 -0.638871 -2.93703e-16)
(0.214988 2.00671 -7.27338e-17)
(-1.19518 0.0351509 -2.17335e-16)
(0.218414 -0.372827 0)
(-0.292485 -0.00769331 -4.4047e-16)
(1.24074 0.0500681 3.73069e-16)
(-0.742313 0.0455629 -1.1588e-17)
(6.25799 -0.306325 2.71683e-16)
(-0.196523 -0.044696 1.07359e-16)
(-0.343977 -0.12852 5.64506e-16)
(-0.790941 0.0643619 0)
(0.166512 -0.0114878 4.48774e-16)
(-0.0734087 -0.0507612 3.84231e-16)
(0.304764 -0.0790231 -1.73292e-16)
(0.351147 -0.120189 9.25432e-17)
(-0.137593 0.0165102 -2.7002e-17)
(0.0436564 -0.0181498 0)
(-0.978744 -0.0220527 2.77531e-16)
(-0.834862 0.146617 8.30178e-17)
(0.676468 0.552077 -3.04513e-16)
(2.77788 -0.521167 3.56181e-17)
(-1.04485 -0.149117 -4.33901e-17)
(-0.444597 -0.144643 -5.30415e-17)
(0.138544 -0.00500948 0)
(1.22728 0.263731 8.99505e-17)
(-0.947814 -0.330871 2.07262e-16)
(0.285478 0.271372 0)
(-1.26875 -0.282438 1.56428e-16)
(-0.380306 -0.470554 -7.57103e-16)
(0.0459376 3.24081 -5.65624e-17)
(-0.795204 -0.211112 3.24249e-16)
(0.235136 -0.0636509 -1.31077e-15)
(-0.612877 -0.22467 0)
(0.144697 -0.0679813 -9.04352e-16)
(-0.763627 0.295791 -7.54971e-20)
(6.23241 0.330848 4.50574e-17)
(-0.228329 3.14891 -8.45283e-17)
(0.0511063 3.28112 3.76243e-17)
(3.02627 0.562065 1.49026e-16)
(0.156148 -0.0544764 3.07729e-17)
(-1.24894 -0.254224 0)
(-0.215808 3.48943 5.32995e-17)
(0.0566546 3.15622 5.31261e-17)
(1.34196 0.0927261 -1.50558e-17)
(-1.34113 -0.0908961 0)
(-0.616002 -0.191301 0)
(-0.0539231 -0.0348623 -1.22144e-17)
(-1.27741 -0.0234554 -1.04209e-16)
(-0.320927 -0.249348 2.59071e-16)
(-0.102462 -0.000386644 0)
(-0.0643543 3.4215 -1.05259e-16)
(0.0760036 3.03289 -4.51761e-17)
(-0.092576 3.48785 -2.92833e-18)
(0.646911 -1.32053 -2.91031e-16)
(0.371672 3.22234 1.60501e-16)
(1.42415 -0.0558304 -2.75421e-16)
(1.80335 0.056053 -4.10737e-16)
(3.6066 0.813431 -5.94889e-17)
(-0.88968 -0.202846 1.12161e-15)
(1.1886 0.188146 1.82297e-16)
(1.44433 0.0851341 5.64474e-19)
(6.49968 0.161309 -1.83795e-19)
(0.138877 -0.528034 0)
(2.92524 0.803612 0)
(-0.457175 -0.370112 3.4468e-16)
(-0.113578 3.14512 -2.51618e-17)
(-0.0828085 3.10429 -2.55245e-16)
(1.55164 -0.105544 9.94707e-16)
(4.34395 4.91577 6.37061e-17)
(1.43967 -0.0926413 1.17679e-16)
(5.55586 0.762672 0)
(0.272878 1.86831 9.65119e-17)
(-0.0724617 3.04769 -2.33367e-20)
(1.02682 2.1596 0)
(0.700173 -0.696779 1.97126e-16)
(0.119216 3.06356 0)
(-0.319189 3.28763 2.35027e-16)
(-0.201913 3.08844 -4.92699e-17)
(-0.127846 5.31087 7.09159e-17)
(-0.171171 3.27262 3.25713e-16)
(1.45143 -0.112292 -1.06425e-16)
(0.0100893 -0.070595 6.37877e-17)
(6.70167 -0.0346403 -1.43254e-17)
(1.59784 -0.00135311 -2.77137e-16)
(6.51329 -0.0676595 -2.81484e-16)
(3.3968 2.07953 1.97829e-16)
(4.19959 1.29698 -7.20492e-17)
(0.780208 0.434517 -4.21687e-16)
(0.392208 1.81014 -2.5578e-16)
(8.76183 -0.661159 3.1499e-16)
(1.48918 0.0865846 -3.42295e-17)
(-0.153786 2.67045 -2.6501e-16)
(0.196301 -0.0945819 3.39383e-16)
(4.08972 -0.194853 -3.55726e-17)
(0.119858 3.07393 -5.21759e-18)
(0.0705318 2.63427 -1.80491e-16)
(0.841746 3.40313 -1.73722e-16)
(6.52695 -0.44644 6.31267e-17)
(-0.407704 -0.0106695 5.08206e-16)
(-0.0699568 3.38495 -2.26329e-16)
(0.423566 0.917834 -6.26846e-19)
(0.381397 1.12591 1.0041e-17)
(0.224852 3.04372 4.09986e-16)
(4.71032 4.16956 -3.94162e-17)
(0.918876 0.455107 0)
(-0.651461 -0.075757 4.13711e-18)
(0.886 0.0947982 -5.03909e-16)
(0.499689 2.3027 -3.28233e-16)
(0.602562 3.05085 -8.11347e-16)
(0.247612 0.810268 0)
(3.32456 0.660446 0)
(4.92459 1.44314 -2.5116e-19)
(-1.09938 3.40938 0)
(0.830305 1.0982 2.41128e-16)
(0.677617 1.97547 -2.10639e-16)
(0.212399 3.09953 -1.97172e-16)
(4.28442 2.49529 0)
(1.80111 -0.0793283 1.21095e-16)
(0.0878652 3.09985 -3.24279e-20)
(0.0820279 3.50785 1.0477e-16)
(0.0997355 2.64237 -1.63646e-16)
(-0.23523 2.81576 0)
(-0.17966 3.31515 2.62022e-16)
(0.104037 3.2601 -6.61596e-17)
(0.0482645 3.01157 2.55985e-19)
(0.0411282 3.06416 4.65843e-18)
(0.0814748 2.5057 -1.6291e-16)
(1.52986 2.99341 1.77597e-16)
(0.0936294 3.18356 3.7495e-16)
(-0.312099 3.2955 -1.97298e-16)
(1.29209 0.190153 -1.27004e-16)
(-0.00456234 2.9708 -3.95296e-16)
(0.836128 0.613396 2.90835e-16)
(-0.113076 3.0082 1.50014e-16)
(1.35345 2.63664 -1.98703e-16)
(-0.186307 -0.070573 6.86977e-16)
(0.276791 -0.0602963 -3.13377e-16)
(0.974884 0.322294 -3.08073e-16)
(1.34851 0.159864 3.64714e-20)
(0.36302 1.23735 -6.33132e-16)
(3.86318 -0.366971 2.0998e-16)
(0.305317 2.77111 1.7824e-16)
(-0.897353 5.6865 1.88635e-16)
(-0.44971 -0.373464 6.02785e-17)
(0.981595 1.51418 -8.63208e-16)
(0.0993205 3.03319 6.6246e-17)
(-0.218103 3.39752 2.21845e-17)
(2.45191 0.338889 2.12419e-16)
(-0.125417 3.25435 4.02559e-17)
(-0.125801 0.981596 0)
(5.02969 0.380691 4.27808e-17)
(3.87822 2.12598 1.0491e-16)
(0.754906 2.59245 3.49187e-16)
(2.35033 0.152417 0)
(5.81458 0.626186 0)
(1.41228 0.0162797 0)
(7.70751 -0.0923307 0)
(4.47917 0.668045 -1.11449e-16)
(3.5093 2.49323 -1.02808e-16)
(0.000378153 3.26086 -9.47584e-17)
(-0.446068 5.49473 -2.7043e-16)
(3.84114 2.94953 2.98206e-18)
(-2.45402 -0.189578 -1.24421e-16)
(1.36126 -0.16837 2.82866e-16)
(1.67555 0.0292472 -2.49746e-16)
(-0.0805005 3.08752 0)
(5.96818 3.61935 -2.21675e-16)
(0.158891 1.54899 -1.03384e-16)
(-0.0577418 1.5664 1.443e-16)
(-0.259474 0.922324 0)
(-0.219252 3.40954 -3.6308e-17)
(0.0309363 3.19207 -7.13045e-17)
(1.35763 0.097503 2.91969e-20)
(3.49351 5.43526 9.81328e-18)
(0.0449427 -0.0380068 -3.66967e-16)
(1.29694 0.116426 2.83567e-16)
(3.29966 0.828117 -1.07865e-16)
(0.193046 3.0102 -3.47931e-17)
(6.39686 3.0613 -1.02426e-16)
(0.654768 2.27354 -1.69689e-16)
(0.132783 1.76753 0)
(-0.0570233 0.647675 7.00551e-18)
(1.95733 -0.0275512 -1.5118e-16)
(1.27816 0.148702 -3.68396e-16)
(0.727493 0.800216 5.62003e-16)
(1.10372 0.312151 -2.64957e-16)
(1.04065 6.3644 -1.49733e-16)
(-0.237514 3.03348 -2.22787e-16)
(3.90826 0.846308 1.56527e-16)
(1.4088 0.0382242 2.27357e-16)
(-2.15732 2.32333 2.33922e-17)
(1.76451 6.38026 0)
(5.48053 0.00765198 -3.95471e-17)
(-0.918682 1.6624 5.04372e-16)
(-0.0271149 -0.177456 -2.08188e-16)
(3.54256 1.1752 0)
(3.06497 1.25693 -3.41505e-16)
(-0.161147 -0.0092145 0)
(4.76404 3.00544 -3.69117e-16)
(6.9082 0.499967 1.49941e-16)
(-1.03286 -0.0721333 -1.59642e-18)
(8.92005 -0.595977 -3.19591e-16)
(-0.202808 0.0119583 0)
(1.65733 6.14177 1.34892e-16)
(0.927754 2.40929 -3.77084e-16)
(0.12587 1.86642 1.85939e-16)
(-0.0207677 -0.0743131 5.68616e-17)
(3.86041 1.07134 7.68388e-17)
(1.38678 0.0857453 -2.67422e-16)
(0.0500214 -0.119456 0)
(-0.0510843 -0.0824797 2.77789e-16)
(0.177427 0.0637176 0)
(8.31037 -0.281665 -2.08879e-16)
(0.0651223 3.21664 0)
(0.226193 0.940333 1.39027e-16)
(-0.697802 1.98373 1.50008e-16)
(-0.109005 -0.0940923 -3.20169e-17)
(0.596446 5.04248 -3.86364e-17)
(-0.256632 3.54965 1.21054e-16)
(6.18017 1.16967 1.66676e-16)
(-0.390008 3.02393 0)
(0.0803126 3.12786 -1.78122e-19)
(1.52919 0.845102 -1.8916e-16)
(2.52625 1.71762 -2.35086e-16)
(2.92051 2.13547 -3.45349e-16)
(1.33852 3.99383 0)
(2.36108 2.78324 2.48741e-16)
(-0.127127 -0.0836806 0)
(-0.0598438 -0.27301 4.02005e-16)
(0.251252 1.17301 0)
(0.0999048 1.94275 -1.94326e-16)
(0.0583969 1.36889 -9.22586e-17)
(1.39902 0.0234424 3.27919e-16)
(-0.0611326 2.96062 -4.05865e-17)
(3.83405 3.99825 -1.22593e-16)
(0.0212868 -0.132895 -1.11261e-16)
(1.72824 3.06052 -3.02816e-16)
(1.4492 0.0121302 -2.76946e-16)
(1.49081 0.304591 2.24483e-16)
(-0.019366 2.82056 1.46913e-16)
(4.32299 3.50593 7.30485e-16)
(-0.263127 -0.231172 -5.38743e-16)
(0.999518 5.83726 3.2886e-17)
(2.62802 5.6028 -1.4187e-16)
(5.68234 1.79309 7.05165e-17)
(3.00452 2.74545 -3.97036e-16)
(2.1716 0.235609 3.89449e-16)
(-0.858743 2.16771 -2.26551e-16)
(-0.584623 -0.24987 -2.42155e-16)
(0.244289 -0.019995 4.67687e-19)
(4.66007 2.15381 8.60805e-17)
(-0.0454589 -0.0859223 5.92119e-17)
(0.866187 3.45594 -3.5947e-17)
(-0.265958 5.02607 -8.46338e-17)
(0.296801 0.067679 -9.61821e-17)
(5.55459 -0.134047 -1.79105e-17)
(1.07462 4.26114 -1.0318e-16)
(6.09581 -0.586328 2.37112e-17)
(3.26228 4.26267 1.50059e-16)
(4.27504 5.1975 -2.55282e-18)
(6.48014 2.63251 -5.37438e-17)
(-0.440626 3.64828 -1.20051e-16)
(2.26166 3.88075 1.01662e-17)
(1.02383 1.71178 0)
(1.68643 5.76122 1.83479e-16)
(-0.321798 1.19241 -3.70118e-16)
(3.02817 0.620033 4.91849e-18)
(7.14815 2.19816 0)
(0.828974 4.72171 3.3476e-17)
(1.57943 1.26676 0)
(0.933098 6.57264 1.02408e-16)
(0.471511 6.37465 1.11841e-16)
(-0.736378 3.33214 0)
(-0.118289 -0.0922152 -3.7955e-16)
(-0.214619 2.20642 2.77145e-19)
(5.29159 2.03337 6.6105e-17)
(5.84579 1.67523 5.41426e-17)
(-0.784679 -1.42645 1.7214e-16)
(0.616974 5.92723 5.11397e-18)
(0.39315 5.2384 0)
(0.184256 6.61418 9.22635e-17)
(0.118104 3.91609 -2.88607e-17)
(0.463967 5.54495 -4.73861e-18)
(-0.127473 -0.216355 8.17729e-16)
(0.0412109 2.89729 7.1076e-17)
(0.050398 0.194218 -4.18877e-17)
(0.132905 4.37703 7.41754e-17)
(-1.10833 -0.248301 6.55318e-16)
(2.58039 6.06645 -9.73898e-17)
(-0.470701 3.01424 1.26205e-16)
(-0.433891 2.87693 -4.13896e-16)
(-0.390332 2.96013 -2.64462e-16)
(-0.305256 2.90132 3.92721e-16)
(-0.219815 2.77822 0)
(-0.329232 2.82404 2.12004e-16)
(-0.0766173 -0.111902 -2.88776e-17)
(-0.096824 -0.145569 -3.13482e-16)
(-0.10978 -0.120008 2.22503e-16)
(-0.102269 -0.114924 -5.56941e-17)
(0.216637 1.40383 2.39419e-17)
(0.322297 2.57348 6.52354e-17)
(-0.645943 3.15884 -7.52167e-17)
(0.235914 2.49357 -7.65897e-17)
(-0.592922 2.83974 -1.67545e-19)
(-0.378875 1.86197 1.57583e-16)
(-0.114844 -0.180081 -6.88764e-17)
(0.134158 4.57602 -3.45145e-17)
(-0.672551 2.69467 7.8915e-17)
(-0.171994 1.39337 0)
(-0.166414 -0.203007 -2.33439e-16)
(-0.000875359 -0.20813 2.75709e-16)
(0.108287 3.7354 0)
(-0.183481 -0.512724 3.18405e-16)
(-0.193346 4.4671 -3.15923e-17)
(-0.325755 -0.277171 -2.44207e-19)
(0.120997 3.26453 -5.23166e-16)
(-0.246811 -0.0888431 -1.33634e-16)
(-0.596205 -0.395991 0)
(-0.19814 -0.537684 1.83004e-16)
(-0.0190761 -0.479826 -1.63947e-16)
(0.213405 2.67558 -2.29261e-16)
(0.25681 1.28972 3.41147e-16)
(-0.271795 -0.305364 9.81501e-16)
(0.915735 -0.0309742 -1.60921e-16)
(-0.0829832 -0.375732 0)
(-0.272176 -0.381094 0)
(0.425501 0.00625066 1.60757e-16)
(0.0147963 -0.29448 0)
(-0.903345 -0.164748 0)
(-0.179233 -0.902463 -2.44854e-16)
(-0.262743 -0.507048 5.96461e-16)
(-0.840054 -0.377894 0)
(0.0174977 1.76292 1.4262e-16)
(-0.952069 -0.362242 1.50462e-16)
(0.143785 -0.589354 -2.55388e-19)
(-0.516006 -1.56289 5.28409e-16)
(0.107263 3.26908 2.05092e-17)
(-1.06803 -0.531133 -8.0723e-16)
(-0.0617511 -0.786422 4.32661e-16)
(0.0446688 -0.109739 0)
(-0.660457 2.28787 3.2744e-19)
(0.524164 -0.867315 5.76159e-16)
(-0.95359 3.19276 3.7665e-17)
(1.41364 0.0787603 -5.81749e-16)
(-0.198918 1.01528 -4.42099e-16)
(-0.16779 -0.150782 9.27499e-17)
(-0.527868 0.231676 -8.3826e-17)
(0.0767822 -0.131952 4.56764e-16)
(0.0249333 -0.066794 -5.11814e-16)
(-0.270482 -0.148356 5.37365e-17)
(-0.0180503 0.390168 -1.15926e-16)
(0.00941037 -0.0250057 3.85816e-16)
(-0.189166 -0.0738544 0)
(1.39921 0.0602538 -3.26847e-16)
(-0.898458 -0.173803 1.90911e-16)
(7.21971 -0.675567 7.47134e-17)
(1.40022 0.0507255 0)
(-0.937664 -0.188641 -1.23145e-16)
(0.0524736 0.0646337 2.4502e-16)
(1.41893 0.0879612 -6.24666e-19)
(-1.01777 -0.267835 -1.66925e-16)
(-0.113619 0.409567 -5.43536e-17)
(8.91456 -0.632022 3.07101e-17)
(0.22227 2.06146 -2.61147e-18)
(-0.00805135 0.551129 6.88918e-18)
(0.0202901 -0.315396 0)
(-0.36948 0.345916 0)
(0.109794 0.660169 0)
(1.39167 0.0737385 2.8836e-16)
(-0.0950949 -0.0948213 -6.19409e-16)
(0.176652 1.48601 -2.93602e-17)
(-0.179309 -0.112068 -3.062e-16)
(-0.183921 0.949988 7.67873e-16)
(-0.062911 0.108869 2.86956e-16)
(-0.891196 -0.394965 -1.85169e-16)
(-0.211674 2.62046 -1.56755e-16)
(0.0154919 1.37466 -4.40903e-17)
(-0.570291 1.24663 -7.95041e-17)
(-0.354784 2.64787 7.90441e-17)
(-0.249725 1.21187 1.75745e-16)
(0.144329 0.0805506 2.53053e-19)
(-0.132598 -0.0126449 -8.02911e-16)
(0.230467 -0.169549 -1.11276e-19)
(1.35045 0.119014 1.66549e-16)
(-0.736534 -0.254339 6.564e-19)
(0.259215 -0.0558175 -3.09029e-16)
(-1.25047 3.77854 0)
(-1.45083 4.8221 0)
(-2.08555 4.21847 -8.03082e-18)
(0.312904 5.80504 -1.11419e-16)
(-0.0711922 1.68831 3.18613e-16)
(0.149492 3.04076 -2.42322e-16)
(-1.38647 4.46588 9.2973e-17)
(-1.78932 4.60157 -3.13513e-17)
(3.26096 3.35715 -2.36843e-16)
(-0.747872 -0.0221189 -2.03121e-16)
(0.269687 -0.050701 2.94035e-16)
(-0.357995 6.44909 -8.3378e-17)
(0.0585509 6.17874 1.02938e-16)
(-1.87342 4.95282 1.22481e-16)
(-0.131855 3.30762 6.99261e-17)
(-0.0648991 -0.188359 -2.76534e-16)
(-0.0769437 2.61442 1.58548e-16)
(-1.344 3.51267 0)
(0.205256 2.76042 3.8028e-17)
(0.128361 2.92357 0)
(-0.109347 2.75524 9.1193e-18)
(2.21421 2.24659 0)
(-0.567046 3.20209 9.07237e-17)
(-0.213371 2.85069 0)
(-0.20418 2.92279 0)
(-0.111826 0.693688 1.19804e-19)
(-0.347576 0.351745 3.45681e-16)
(0.145868 0.132551 -3.36316e-16)
(-0.721583 3.47553 0)
(0.440752 4.88262 0)
(1.3796 0.148165 2.45991e-16)
(-0.931838 0.222461 1.44285e-16)
(0.179984 2.89833 0)
(1.51002 0.109174 3.21727e-16)
(-1.64428 4.2659 -1.57588e-17)
(-0.897904 3.35803 5.9601e-17)
(-0.217993 1.63273 -1.37379e-16)
(0.156416 2.97017 -1.42041e-16)
(-0.630477 3.28128 -1.26284e-16)
(-0.122228 1.857 -3.01564e-17)
(8.96466 -0.739926 -2.7764e-16)
(7.38181 -0.73721 7.72172e-18)
(0.0774799 -0.243946 9.73721e-16)
(-0.126145 2.81783 -7.94961e-18)
(-0.719384 1.57827 2.92046e-16)
(-1.08708 4.282 7.96732e-18)
(2.0952 3.46722 0)
(-1.45656 3.98575 0)
(-0.368249 2.30492 4.64011e-17)
(-0.540607 1.79127 0)
(0.333156 -0.947178 -4.83542e-16)
(-0.190158 2.30985 -6.51169e-17)
(-1.27983 4.17625 -1.26575e-16)
(-1.43399 0.679498 1.91967e-16)
(-0.655885 2.74709 -4.52616e-17)
(0.729258 5.98709 -1.97386e-16)
(0.133075 2.68502 0)
(0.0746964 2.78767 0)
(-0.333529 1.8008 -5.59314e-17)
(2.27218 5.72734 0)
(0.567834 4.54771 0)
(0.0659985 1.97239 0)
(0.057768 2.64753 -2.56636e-16)
(2.79265 3.83252 1.01064e-16)
(-0.413699 0.495687 -3.26825e-16)
(0.195467 0.271823 -3.1741e-16)
(-0.747618 3.16198 1.96263e-16)
(-0.0348389 2.3406 8.45475e-17)
(1.45299 5.5646 -4.4739e-17)
(0.108124 2.40823 2.49192e-18)
(2.83098 5.1573 -5.23297e-17)
(-0.889011 4.16751 -6.55247e-17)
(1.34251 0.211096 1.33848e-16)
(-1.18639 -1.43421 2.42834e-16)
(-0.87394 1.01232 1.04469e-16)
(0.264858 0.284292 -6.24771e-17)
(-0.00852812 2.75873 -1.4331e-17)
(-0.393662 2.01803 5.37827e-17)
(0.189796 2.99862 2.41764e-16)
(0.205298 2.95362 -5.35581e-20)
(-0.585753 3.1468 3.55031e-17)
(1.76372 0.345966 1.31294e-16)
(3.33588 4.54223 -2.24066e-16)
(-1.14006 3.9612 1.6391e-17)
(0.42996 4.28927 1.63368e-16)
(1.36978 0.0723901 2.90672e-16)
(1.35308 3.66353 3.37203e-17)
(7.60295 -0.574952 -2.61455e-16)
(-0.716506 3.0042 7.10562e-17)
(0.037933 2.63475 9.77508e-18)
(-1.01495 4.08821 -1.62974e-17)
(0.720841 4.07997 6.38506e-17)
(-0.0317185 2.89566 1.5825e-16)
(-0.042355 2.97058 3.59683e-17)
(-0.9022 3.94651 0)
(2.748 0.508555 0)
(3.04639 1.66709 5.32442e-16)
(-1.7591 3.32734 -5.86409e-18)
(-0.362551 3.67645 8.73695e-17)
(6.26057 3.52746 -4.43408e-17)
(-0.0052646 2.86435 3.89855e-17)
(0.138347 2.83809 -1.88124e-17)
(-1.91288 -0.659984 4.28699e-16)
(-1.86803 3.93034 -5.27187e-17)
(0.00335421 2.92323 -7.31807e-17)
(0.0896659 2.87147 1.46342e-16)
(-0.872303 3.54628 -1.85665e-16)
(-0.515877 3.09515 2.39766e-16)
(-1.60789 3.6891 6.16175e-17)
(-0.0448815 3.38135 5.69428e-20)
(7.29448 1.36014 1.12339e-17)
(0.242405 2.84826 -2.35793e-16)
(-0.636537 3.06436 -1.16826e-16)
(0.023946 3.16215 -1.47824e-16)
(1.90878 5.10439 0)
(1.25699 -1.2708 0)
(0.0313578 2.83113 -1.53604e-16)
(0.11354 3.31018 1.17324e-19)
(0.0735892 3.06712 5.09849e-17)
(0.415702 3.47857 9.77774e-17)
(-0.78032 4.19985 8.19387e-18)
(-2.06449 3.53773 1.99816e-18)
(-0.782478 4.22981 2.44362e-17)
(1.1573 2.73613 0)
(4.95608 3.98026 -5.66763e-18)
(5.48718 4.27517 -9.43475e-17)
(0.835267 5.37003 4.36552e-18)
(0.208738 2.47979 -9.831e-17)
(1.39642 -0.442321 -2.23067e-16)
(1.45636 0.0565932 -2.34569e-16)
(0.181777 -0.122438 -1.52072e-16)
(-0.0679096 -0.00661497 -1.32921e-16)
(-0.280667 2.9751 0)
(-1.39677 3.15638 6.82595e-18)
(0.0833376 1.81218 0)
(2.34574 4.4956 0)
(3.31529 5.61337 4.93561e-17)
(-0.0303661 2.02418 0)
(2.90555 2.74578 1.34257e-16)
(3.56245 1.61733 -1.40358e-16)
(1.77215 4.04156 6.46395e-17)
(6.66419 0.685177 0)
(-0.20511 3.52819 -1.18891e-17)
(1.14598 5.0518 1.60427e-17)
(-0.0470926 -0.130379 4.40051e-16)
(1.55112 0.0514385 -1.5345e-16)
(3.92911 5.06708 2.88568e-16)
(5.74587 -0.701055 -5.00657e-18)
(-0.0402199 2.81059 1.59196e-16)
(-0.276907 2.03501 1.73653e-16)
(1.07931 0.00761956 1.352e-16)
(0.321113 2.30163 -1.91047e-16)
(0.0874178 2.94318 0)
(-2.21883 4.48995 -4.24571e-17)
(5.10155 2.51841 1.27954e-16)
(6.50656 1.00543 -1.08493e-16)
(4.91631 4.79502 7.3495e-17)
(-0.0584833 2.85052 -8.46327e-17)
(6.61958 2.32459 6.48323e-17)
(-0.497339 3.86215 5.43301e-20)
(-0.692754 4.19821 -3.42052e-17)
(2.5844 1.30749 4.27636e-16)
(0.0793142 2.73636 6.90719e-17)
(-0.807062 4.07166 6.97907e-17)
(-0.146633 3.27939 4.26277e-17)
(-0.488509 3.84581 9.05696e-18)
(1.06606 0.442464 2.35447e-16)
(-0.182068 3.03398 -1.41852e-16)
(4.4383 4.52953 -1.25283e-16)
(0.3106 0.618175 1.344e-16)
(-0.710865 3.63455 0)
(-0.611833 4.13424 4.24272e-18)
(1.46258 4.60031 -3.28593e-17)
(-0.112974 2.86047 -8.28867e-17)
(8.22565 -0.493086 3.76841e-16)
(0.918589 0.9034 -9.26991e-20)
(-0.0883554 -0.0827107 3.19778e-16)
(-0.896244 6.13879 1.39196e-16)
(-0.24101 3.08559 2.58136e-16)
(-0.878061 1.49571 1.64233e-16)
(-0.21326 1.7727 2.05998e-16)
(1.49674 -0.00821369 3.44572e-16)
(7.64048 0.931987 6.79728e-17)
(-1.10587 4.55139 -9.14665e-17)
(3.75818 -0.527032 4.46885e-18)
(-0.507516 0.909264 4.56747e-16)
(5.39504 3.39034 0)
(-1.89793 5.25719 0)
(2.82419 0.361514 1.31475e-16)
(-0.505091 0.898093 6.86193e-19)
(2.4426 0.918939 0)
(-0.0142118 0.451359 0)
(-1.06931 0.700328 0)
(-0.0862147 -0.0862625 -5.76934e-17)
(1.98112 0.149113 5.09348e-17)
(-2.19042 0.75999 0)
(0.217201 0.026116 1.02768e-15)
(-0.00354369 -0.213529 -1.12214e-15)
(0.0431015 -0.15057 1.82247e-16)
(-0.0410705 -0.129019 -3.48118e-16)
(0.492446 0.183522 2.63545e-17)
(-0.736719 -0.0935803 1.4711e-16)
(5.88549 2.23224 3.02426e-16)
(-0.022617 2.84381 8.04597e-18)
(-0.109075 -0.103852 -2.73906e-17)
(1.21431 0.0931809 8.32608e-16)
(-0.355419 1.10889 0)
(1.00877 0.208379 -3.08364e-16)
(1.94571 1.01751 2.43083e-16)
(2.09395 0.276984 0)
(0.323466 0.0206115 2.10332e-16)
(-2.30499 3.83105 8.2035e-18)
(0.338453 0.0800752 0)
(-0.307902 6.03135 8.04579e-17)
(6.44193 1.70626 -4.07339e-17)
(5.72807 2.83053 -2.12235e-16)
(0.072087 4.38239 -1.72121e-16)
(1.40882 0.256387 2.76118e-16)
(0.406083 -0.00373731 -7.2048e-16)
(-0.0350889 4.68406 -1.0143e-16)
(-1.04689 -0.957288 -1.07646e-16)
(2.37425 0.242229 -4.01408e-18)
(-1.04993 3.63811 9.67861e-17)
(-0.125452 3.14296 2.33318e-16)
(1.79786 0.27569 0)
(0.294581 0.0453933 1.94153e-16)
(1.42537 0.0284578 0)
(-0.357628 3.02841 0)
(-0.502357 3.18388 1.49722e-16)
(2.26013 0.460146 -1.68066e-16)
(-0.493456 1.52967 9.61714e-17)
(0.5144 -0.0271395 3.44897e-16)
(-0.438155 3.07145 -1.26316e-16)
(-1.12784 3.12498 0)
(-0.00404914 2.69484 3.77734e-19)
(-1.40695 -0.283293 3.67895e-16)
(-0.333588 3.35073 3.94321e-17)
(-0.728279 3.9846 7.66507e-17)
(-0.0386504 2.90598 2.26751e-16)
(3.65032 1.89889 -4.84918e-17)
(-0.550123 3.3706 -1.20506e-19)
(-0.587853 3.03459 -1.45827e-16)
(3.8645 0.715272 -9.22474e-17)
(3.96398 -0.559317 6.18653e-17)
(-0.614704 -0.229831 -3.26395e-16)
(-0.434536 1.51433 0)
(0.112891 1.28613 0)
(-0.265403 1.93509 0)
(-0.0734697 2.94439 4.54011e-16)
(0.032776 2.77945 -4.10727e-17)
(-0.543963 2.28519 0)
(-0.645964 2.82447 0)
(0.42192 0.0693636 5.68124e-17)
(-0.910366 0.111795 9.61798e-17)
(-0.089274 1.16311 2.84351e-16)
(0.211947 -1.46453 4.0461e-16)
(-0.0934614 -0.218528 0)
(-0.161781 0.869796 -6.13436e-17)
(1.35122 1.70432 8.1261e-16)
(-0.0578676 2.37145 4.71287e-21)
(-0.628001 4.10462 0)
(-0.244971 -0.16802 -2.97468e-16)
(-0.909539 4.30794 5.63525e-17)
(0.101476 2.98918 1.31455e-16)
(0.109532 -0.187457 1.48829e-16)
(-0.15737 2.90922 0)
(-0.618907 -0.159892 1.86439e-16)
(0.265873 -0.933876 6.63128e-16)
(-0.932787 -0.742585 3.19161e-16)
(2.90404 0.078439 0)
(0.0824275 0.512993 2.74383e-17)
(-0.903186 3.14608 -1.23145e-16)
(6.00885 0.474161 -9.66643e-18)
(0.00253088 2.79638 -2.39169e-17)
(-1.95325 -1.11671 -4.32466e-16)
(1.18044 0.132827 -1.84213e-20)
(-0.0883245 0.0677532 1.78593e-16)
(-0.2201 1.48859 4.09884e-16)
(0.185207 0.914263 -1.40154e-16)
(0.520956 3.2408 1.98244e-16)
(0.12154 2.69271 0)
(7.55776 0.210374 -1.14832e-16)
(-0.0101147 2.91514 -9.43373e-17)
(0.0530778 2.66098 8.79091e-17)
(-1.21185 1.28686 1.8132e-16)
(1.01379 0.612919 5.45583e-19)
(2.15376 1.5252 -4.8196e-17)
(-1.01223 5.27519 -5.28434e-17)
(4.4536 1.79791 0)
(-0.133458 3.21298 -3.3342e-17)
(0.892552 0.779093 0)
(-0.215751 0.350163 0)
(-0.0819403 2.94513 2.77406e-16)
(1.6109 0.15835 -8.67312e-17)
(-1.25534 2.53894 1.19031e-21)
(0.229281 -0.108658 2.99932e-16)
(-0.817258 -0.16913 2.01724e-16)
(-0.623093 -0.898808 1.58377e-18)
(-0.235942 2.73504 -4.68882e-16)
(1.7061 2.06508 3.38702e-17)
(0.689963 0.153258 3.4428e-16)
(-0.49527 2.66887 -2.94189e-19)
(-0.00707668 2.75701 2.19732e-16)
(0.315718 2.04365 0)
(-0.528997 2.47312 4.02115e-17)
(-0.107417 3.38951 4.33023e-17)
(-1.81056 0.142462 -2.23168e-17)
(-0.453588 4.89065 -5.65654e-17)
(0.0235297 -0.192791 -2.88999e-16)
(0.008581 -0.206355 4.24207e-16)
(0.144311 2.99731 0)
(-0.50768 3.29024 8.24841e-17)
(0.0502583 5.52627 -1.67646e-16)
(-0.531512 2.9136 1.2961e-16)
(-1.83143 5.43355 -2.97048e-16)
(-0.228761 2.71887 0)
(-0.994516 1.81165 -4.60371e-16)
(1.4619 0.117449 -1.3094e-17)
(7.14153 0.84832 -6.06399e-17)
(-0.607342 3.89643 1.47972e-16)
(-0.259188 -0.950413 1.45136e-17)
(-0.287681 -0.369838 -3.08064e-16)
(0.264101 0.755186 -6.71064e-17)
(-0.559661 1.69118 -2.86855e-16)
(0.815717 -0.832487 -1.9324e-16)
(-0.0279261 2.95683 1.53977e-16)
(-0.151545 -0.14498 -3.70431e-16)
(4.77275 3.22823 1.90015e-16)
(0.0825321 -0.082884 -4.67343e-16)
(0.0586733 0.313094 1.82624e-16)
(7.78457 -0.33535 7.16086e-17)
(-0.530444 -0.628477 3.80176e-19)
(0.155635 2.68608 1.45744e-16)
(-0.0658515 2.49063 7.82914e-17)
(-0.794208 4.27028 -8.03814e-17)
(-0.19207 3.03019 5.06984e-18)
(0.0106048 3.33797 1.47809e-16)
(0.9367 0.832998 7.65284e-20)
(-0.207278 -0.129174 2.83967e-16)
(1.2568 -0.0118352 -7.83348e-17)
(-0.134431 3.23237 0)
(1.32529 0.14325 -1.72299e-16)
(-0.608137 3.97992 -8.96278e-17)
(1.06377 -0.173122 -1.02146e-16)
(-0.605543 3.47152 -5.88834e-21)
(-0.476471 0.128233 -3.41305e-16)
(4.21541 0.982726 -8.64777e-17)
(0.27549 -0.326389 2.25923e-16)
(-0.791382 -0.32039 2.05003e-16)
(-0.268449 1.86266 0)
(7.45959 0.835706 0)
(7.28821 0.382125 4.33446e-17)
(-0.112613 2.89278 0)
(4.67361 0.609276 0)
(2.47314 1.46488 -1.86593e-16)
(-1.047 2.79252 0)
(-0.455939 -0.232419 1.63996e-16)
(-0.738231 -0.167968 2.37467e-16)
(0.170867 -0.512183 -9.28411e-20)
(-0.352797 -0.531758 -1.15982e-16)
(0.464034 0.114245 -3.69007e-16)
(-0.940109 2.25967 4.60762e-19)
(-0.800309 2.53197 0)
(-0.849201 2.92152 -6.94956e-17)
(-0.325465 3.37435 1.42e-16)
(-0.983416 3.80744 3.36232e-17)
(-0.970913 -0.147509 -4.02153e-19)
(-0.335319 -1.7193 0)
(0.301476 4.34425 2.44776e-18)
(2.91884 0.0122043 -1.16629e-16)
(-0.0133121 2.995 2.78583e-16)
(1.38326 0.164282 0)
(1.02455 -1.40796 -5.93183e-16)
(-1.26674 -1.38177 2.21612e-16)
(5.4866 -0.273464 3.54468e-17)
(0.0934823 2.74988 -9.40646e-17)
(0.30662 2.77466 0)
(-0.576531 3.02795 1.39507e-16)
(1.82701 0.198516 6.33555e-16)
(4.13725 0.248396 -7.63082e-19)
(1.6096 0.212048 6.25014e-16)
(0.321948 -0.24813 9.26979e-17)
(-0.270666 3.22251 -1.92623e-16)
(-0.698757 6.10625 -2.65106e-16)
(0.0331064 2.9637 -5.28314e-16)
(8.47371 -0.632417 5.60117e-19)
(-0.766437 2.5075 -5.31495e-16)
(0.688521 0.319899 -1.42714e-17)
(-1.05746 -0.775556 1.86393e-16)
(-0.0995132 2.57161 9.88822e-17)
(-0.222033 2.01349 -3.27578e-16)
(1.51195 0.213325 2.95671e-16)
(0.242494 2.93706 7.77152e-17)
(-0.601495 3.09026 -9.03669e-17)
(1.00007 0.0993609 5.06533e-16)
(1.27935 -1.97242 -9.88797e-17)
(1.66984 -0.0974883 -5.9756e-17)
(-1.46545 5.21691 -1.10706e-16)
(-0.710815 2.14104 -7.32421e-19)
(-0.834798 3.69662 0)
(0.0832693 2.53374 0)
(0.0796253 2.41596 0)
(0.0750231 2.59648 -5.95091e-17)
(-0.00588874 2.12816 4.00444e-17)
(0.0669023 2.2612 0)
(-0.0385506 2.22985 0)
(0.0346103 2.14811 0)
(0.0424163 3.04919 -1.31403e-16)
(-0.0798684 3.28612 0)
(-0.0274559 3.3085 0)
(0.0630657 2.92115 1.32576e-16)
(0.00744994 3.07377 0)
(-0.0278034 3.05741 -6.22897e-17)
(0.0793824 2.774 3.18048e-17)
(-0.13283 3.15088 0)
(0.0253093 3.19355 -1.25486e-16)
(0.115404 2.42024 -5.85484e-17)
(0.0990317 2.60498 3.5655e-17)
(0.0719878 2.96003 1.35693e-16)
(0.107221 2.63084 3.86254e-17)
(0.188053 2.10444 1.77153e-17)
(0.140103 2.34517 -2.12083e-17)
(-0.048728 3.0223 6.4947e-17)
(-0.0566941 2.99996 0)
(-0.0634086 2.97402 0)
(0.0536352 2.65877 5.93963e-17)
(3.2014 -0.576895 4.09043e-17)
(9.26623 -0.508765 -1.86424e-18)
(0.573717 0.0737164 -2.91409e-16)
(0.311646 -0.887896 -9.93081e-17)
(-1.86205 2.73468 -1.54222e-16)
(-0.66415 -0.42351 -2.14064e-16)
(-1.04694 1.26982 2.93794e-16)
(0.0410787 -0.09754 3.08612e-16)
(-0.077339 -0.0777644 0)
(-0.367985 3.61418 -2.45703e-16)
(0.0736117 2.80959 -1.03356e-16)
(-0.100648 2.96564 -8.37168e-17)
(-0.247346 -0.270421 -5.62982e-16)
(2.80104 0.1463 0)
(6.97333 1.59371 -1.09237e-17)
(-0.0500532 0.0895787 -2.04757e-16)
(-0.89198 1.8047 1.58482e-16)
(1.49211 -1.62474 9.7279e-17)
(1.44216 0.061216 9.22951e-16)
(-0.279087 2.05217 1.94184e-16)
(1.41061 0.0417916 0)
(0.0785307 5.13375 4.10534e-16)
(-0.788558 3.83836 0)
(0.0254789 -0.394477 0)
(-0.0802726 2.91323 0)
(-0.807344 -0.108268 9.41498e-17)
(0.218994 -0.0472319 2.17445e-16)
(7.10103 0.847991 -2.65238e-16)
(0.756762 -0.0540771 -1.97892e-16)
(8.16437 -0.0922703 -7.12157e-17)
(-0.226065 0.847293 0)
(0.167791 -0.251389 0)
(1.78125 -1.82191 -1.12901e-16)
(-0.0512061 2.98338 3.35176e-16)
(-0.407116 0.259081 0)
(0.206452 -0.820263 -3.56802e-16)
(-0.941623 -0.563578 0)
(-0.137112 -0.0777171 0)
(2.14569 0.0458102 3.11373e-17)
(1.87662 0.326525 7.98067e-19)
(-0.0653235 2.99565 -7.58577e-17)
(-1.05005 -0.281333 -4.18292e-16)
(-0.0840763 -0.395641 3.29126e-16)
(1.61153 0.486274 -1.78626e-16)
(-0.0219039 2.22847 0)
(5.92177 -0.651057 2.86439e-17)
(7.02456 1.24451 0)
(1.1199 1.13055 -4.35458e-16)
(0.387615 -0.509038 -3.35668e-16)
(4.57315 0.826951 -2.70338e-16)
(-0.0850071 -1.53072 -2.22986e-16)