/*--------------------------------*- C++ -*----------------------------------*\
| =========                 |                                                 |
| \\      /  F ield         | OpenFOAM: The Open Source CFD Toolbox           |
|  \\    /   O peration     | Version:  v1912                                 |
|   \\  /    A nd           | Website:  www.openfoam.com                      |
|    \\/     M anipulation  |                                                 |
\*---------------------------------------------------------------------------*/
FoamFile
{
    version     2.0;
    format      ascii;
    class       volVectorField;
    location    "0.02";
    object      U;
}
// * * * * * * * * * * * * * * * * * * * * * * * * * * * * * * * * * * * * * //

dimensions      [0 1 -1 0 0 0 0];


internalField   nonuniform List<vector> 
5794
(
(-0.0776276 2.97177 -2.44908e-17)
(-0.018432 1.58422 0)
(-0.804966 2.99735 -1.29982e-16)
(-0.483679 1.06141 1.6645e-16)
(3.17084 1.22751 3.32613e-17)
(-0.183986 2.57426 -1.07536e-16)
(1.14863 0.103003 -2.56108e-16)
(1.0745 0.10476 0)
(1.24366 0.163703 1.98121e-16)
(2.08762 -0.0185051 1.86447e-16)
(0.488767 0.0072283 2.62071e-19)
(0.457251 -0.0499846 0)
(0.369339 0.0473839 7.68171e-16)
(1.33485 3.3262 2.85553e-16)
(1.71687 0.023795 4.55696e-16)
(0.322003 0.0874716 -1.75667e-16)
(4.91568 -0.716588 5.90003e-17)
(0.335479 2.47557 2.3988e-16)
(1.67118 6.14709e-05 4.23192e-16)
(0.129916 1.6029 1.48601e-16)
(-2.08978 2.81491 -2.6912e-17)
(0.232515 3.31178 -1.18415e-16)
(0.694658 0.255259 4.28549e-16)
(0.891578 0.134388 -6.59577e-16)
(0.705852 0.0860008 -5.43626e-16)
(3.79642 11.9745 2.43511e-17)
(7.0993 -0.575399 0)
(0.418285 2.28874 -2.03151e-16)
(0.0866454 1.51156 -8.80447e-17)
(0.955544 -0.680701 2.67791e-16)
(0.304105 0.0314752 -7.55478e-16)
(1.3547 -0.105043 -6.11243e-16)
(0.431574 0.0386925 -1.14705e-15)
(1.09217 -0.108477 4.44565e-16)
(0.871695 -0.0988865 -2.38726e-16)
(0.977907 -0.140539 2.47854e-16)
(6.83932 1.66676 -3.12878e-16)
(0.51475 0.0297336 0)
(0.210309 0.0750447 2.20079e-16)
(0.730522 2.65524 0)
(0.667603 2.36002 -1.32335e-16)
(0.774879 2.10177 1.45078e-16)
(2.41134 0.0279604 3.22695e-20)
(-0.375778 4.31294 0)
(1.65606 0.0902011 -4.03759e-16)
(0.485624 0.0391614 2.27331e-16)
(1.8092 0.115986 -3.46332e-16)
(0.418339 0.0577888 0)
(1.85856 -0.175599 6.57399e-16)
(0.123459 0.284258 8.01282e-17)
(-0.125057 0.268085 -1.81881e-16)
(1.52765 0.00877317 -3.60759e-16)
(-0.658381 7.50584 0)
(2.27657 0.835253 1.41707e-16)
(0.0295283 0.0271603 1.07024e-17)
(0.676042 0.226321 0)
(2.51393 0.584074 -2.71024e-16)
(0.722789 0.311337 2.03542e-16)
(2.34748 0.042539 0)
(5.3637 11.4426 -7.60094e-19)
(6.53109 0.35616 2.67523e-18)
(0.485132 0.473381 -1.4096e-16)
(0.308407 0.0418409 -2.04013e-16)
(1.55246 -0.026077 2.40892e-16)
(0.408617 0.0565516 0)
(0.437438 0.0346078 -2.90914e-18)
(0.580053 2.96143 -2.45374e-16)
(-0.121277 2.13082 0)
(0.124115 1.91808 -2.55745e-16)
(0.065345 0.902538 1.24994e-21)
(1.47531 0.089808 2.83506e-16)
(0.578931 2.78025 -3.76112e-16)
(9.93202 2.79083 -4.90768e-18)
(0.737985 -0.0313963 0)
(0.446654 2.20205 2.43913e-16)
(0.203601 1.77992 5.74326e-19)
(0.13716 -0.137852 1.48908e-16)
(2.26287 11.3817 -2.55277e-17)
(-0.299897 4.37908 3.42914e-17)
(-0.0713657 -0.118605 7.63868e-17)
(-0.335307 3.71543 -1.27883e-17)
(-0.0245102 2.02369 -1.37171e-16)
(0.471536 2.20418 -1.30759e-19)
(0.282456 0.0651647 -1.43525e-16)
(0.589376 0.0524582 -4.77334e-16)
(0.0806882 2.06149 -7.2253e-17)
(0.252517 5.21104 3.90414e-17)
(0.0694835 1.10943 -4.32129e-17)
(0.73463 0.440647 -1.86317e-16)
(0.619083 0.610798 -6.2424e-17)
(0.036536 1.04584 -1.59661e-16)
(0.332516 4.97039 -1.14065e-16)
(0.112872 2.69143 2.61793e-16)
(-0.0516804 1.95544 1.3921e-16)
(-0.0687711 3.57916 5.4201e-17)
(1.45192 0.010306 8.62674e-18)
(-0.0107319 0.995748 -1.10282e-16)
(-0.148436 2.57271 -2.80044e-17)
(-0.0625345 5.30947 0)
(6.10177 0.362617 -4.38073e-17)
(2.23264 9.9654 -5.08256e-17)
(0.691916 -0.851575 -4.65386e-16)
(2.41631 0.0389632 1.20333e-16)
(1.25562 2.92873 -4.15438e-16)
(2.18336 0.574458 0)
(0.394588 2.25781 0)
(0.0606284 0.942191 0)
(0.33194 0.0688576 -2.84968e-16)
(1.40032 -0.193599 -1.79168e-16)
(-0.149161 4.45163 -9.32683e-17)
(0.766559 0.0963886 -1.75753e-19)
(1.28575 0.1203 0)
(-0.48877 10.7132 4.8359e-17)
(0.448256 0.0285561 1.60386e-16)
(0.00780114 3.15167 0)
(0.0282865 1.60551 0)
(1.50631 0.113371 -3.2802e-16)
(0.315881 2.05512 2.58117e-19)
(6.93902 0.366141 -1.71356e-20)
(10.581 2.38559 3.83616e-18)
(0.378946 2.15086 2.38038e-16)
(1.93202 -0.0715687 0)
(-0.174919 -0.519134 0)
(0.160838 2.23257 -2.55818e-16)
(1.45031 0.135479 2.06315e-16)
(1.04654 0.54819 8.19798e-17)
(2.30677 3.43808 0)
(0.0630641 2.61017 6.71123e-17)
(1.90476 0.197919 2.58441e-16)
(0.525812 0.0361965 1.72578e-16)
(0.430325 0.0103594 3.81606e-16)
(0.258567 0.0375822 2.71667e-16)
(2.68919 1.1017 2.36482e-17)
(1.65167 10.555 -8.25304e-17)
(0.420285 2.26624 3.00711e-16)
(1.5986 0.015852 0)
(2.62572 -0.00777408 1.18113e-16)
(0.444101 0.354684 -2.00014e-16)
(0.50005 0.367859 1.9481e-16)
(0.96608 0.111526 0)
(0.692288 0.775151 -5.80734e-16)
(1.7266 2.50189 0)
(1.46134 0.221836 0)
(1.3518 2.38247 3.95823e-16)
(0.483943 0.696019 2.12996e-16)
(5.739 0.126218 1.75012e-17)
(1.11039 1.01927 2.78201e-16)
(2.76115 0.228736 4.17955e-16)
(3.08586 0.829439 -2.17953e-18)
(0.543631 1.31133 4.90957e-16)
(1.91218 0.0536846 -2.9076e-16)
(1.79361 0.188554 2.91298e-16)
(0.410442 2.25566 0)
(-0.455746 -0.820757 2.39764e-16)
(6.52989 -0.572187 0)
(1.51093 0.0763934 0)
(0.229082 0.0399858 -3.63219e-16)
(0.217871 0.0190669 4.98088e-16)
(0.297805 -0.00495293 -4.03531e-16)
(0.491912 0.0110546 -1.6329e-16)
(1.36541 -0.0687125 3.79806e-16)
(0.646732 0.0380092 -4.32206e-16)
(0.820318 0.0360632 0)
(0.716074 0.0516603 -1.74685e-16)
(1.12619 0.0619485 -4.59306e-16)
(1.17521 -0.043063 2.45691e-16)
(0.676221 -0.00908496 1.57577e-18)
(0.593115 0.0131884 -4.67487e-18)
(0.733614 0.00956705 0)
(0.994896 0.0216165 9.14496e-19)
(1.30547 -0.0491533 0)
(0.878544 -0.362202 -1.51749e-16)
(0.285481 -0.3674 0)
(0.344512 -0.272612 1.18156e-16)
(0.420074 -0.231196 4.58835e-16)
(0.837627 0.0423533 0)
(1.38363 0.11211 -2.25139e-16)
(0.748141 0.0485744 -2.87981e-16)
(0.939565 0.0495649 -9.16877e-17)
(1.26893 0.100082 1.231e-17)
(0.307545 0.00953697 -6.53787e-18)
(1.02946 -0.0432784 0)
(0.160597 0.0272963 0)
(0.2866 0.0233533 1.45471e-16)
(0.128851 0.0265338 0)
(4.57429 -0.249577 6.82936e-17)
(0.26411 -0.400994 -1.65271e-16)
(0.498032 -0.0252713 -1.09714e-16)
(1.95349 -0.0913201 1.20279e-16)
(-0.935381 -1.14061 3.7805e-16)
(0.397925 -0.00311582 -4.40777e-16)
(1.17381 0.111276 4.46831e-16)
(0.346697 0.00407911 7.20744e-16)
(0.244388 0.0235136 7.14676e-16)
(0.236733 -0.00146056 -1.25757e-16)
(0.350775 -0.0326933 -6.12099e-16)
(0.898254 0.0621494 -2.49675e-17)
(1.04502 0.0633993 -1.8272e-16)
(1.5865 0.00622884 -2.80375e-16)
(2.21973 0.00555227 1.6875e-16)
(0.978442 0.0635796 -2.51511e-17)
(1.36988 0.0263935 0)
(0.354157 0.0237972 0)
(0.352518 0.020705 1.29501e-17)
(1.63758 0.0486484 -7.85061e-17)
(0.403981 0.00818169 0)
(0.605006 0.0775715 1.29602e-17)
(0.186591 0.254119 -2.38824e-21)
(5.44916 0.472624 -7.5778e-18)
(2.23956 3.37627 2.39312e-16)
(0.329696 4.39993 8.49479e-17)
(7.38695 0.405355 0)
(0.925751 0.0356084 -1.39255e-16)
(0.823889 0.0414725 2.07747e-16)
(1.018 0.101102 0)
(0.835239 0.130132 9.0095e-16)
(0.92894 0.125414 -2.11724e-16)
(2.08111 0.988429 1.14892e-16)
(0.494414 0.042852 1.98091e-16)
(0.604418 1.33499 -3.53387e-16)
(7.14848 0.427205 0)
(0.0746314 0.278826 3.46479e-16)
(0.199916 0.841636 0)
(-0.023287 1.80455 5.20146e-17)
(3.45087 0.082139 1.73111e-16)
(8.9269 0.897664 2.97635e-18)
(0.205035 -0.0210795 -8.25344e-17)
(2.15382 0.110441 -1.05784e-16)
(2.21233 0.0373348 0)
(1.60215 0.0404787 -2.95145e-16)
(1.17879 -0.205774 0)
(0.96416 -0.215497 -7.57623e-17)
(1.29699 -0.18765 -1.06735e-16)
(1.64616 -0.367797 1.93121e-16)
(0.211737 0.298674 2.43471e-16)
(7.25729 -0.0704557 1.01733e-17)
(6.72525 0.269542 2.97451e-18)
(2.22595 0.148371 4.52008e-17)
(0.0441808 -0.41877 -2.21605e-16)
(-0.206593 2.66985 -3.37514e-16)
(-0.314371 1.38389 0)
(0.21463 0.500518 1.47e-15)
(1.29594 4.00955 2.96602e-16)
(1.29937 1.44389 -2.80297e-16)
(1.50736 0.573963 2.91658e-16)
(0.732645 0.215542 3.21062e-16)
(1.61528 0.204894 -1.4054e-16)
(3.18382 0.568688 9.68816e-18)
(-0.0254222 0.912038 0)
(-0.139156 2.11643 0)
(-0.129826 4.54276 0)
(0.448545 0.0366037 3.02954e-17)
(6.17221 -0.74888 -8.81854e-17)
(0.496605 -0.00412987 -1.04958e-20)
(2.16194 1.33712 -8.45532e-17)
(5.09312 1.18821 -1.56974e-17)
(2.5167 0.0598636 -2.71795e-16)
(2.56067 0.386333 2.90667e-16)
(0.108892 0.21989 3.11556e-16)
(1.5098 0.0972654 0)
(2.39878 0.0293599 -1.76818e-16)
(0.865717 0.0711987 1.19688e-16)
(0.764357 0.0765001 -1.1901e-16)
(0.48538 0.0222651 0)
(0.708072 -0.0216982 0)
(1.26592 0.0479101 -6.82899e-19)
(0.424993 2.06329 1.78939e-16)
(1.72177 0.234304 0)
(1.52184 0.0277578 -6.46058e-16)
(0.380142 0.0247842 -1.98466e-16)
(1.71708 0.0580331 0)
(0.320913 0.0433537 -3.61071e-16)
(0.445675 0.886211 -6.24275e-16)
(1.54621 0.101225 -3.81981e-16)
(5.97026 0.717876 5.46797e-17)
(1.59738 -0.0483996 2.98018e-16)
(2.43137 0.518931 -1.46766e-16)
(0.696652 0.319304 -1.01197e-16)
(1.24797 0.393514 -1.81547e-16)
(0.836108 0.228934 -3.41281e-16)
(1.19051 0.0950441 3.5564e-16)
(-0.130587 1.08628 3.9562e-16)
(0.903031 2.1829 1.38186e-16)
(1.0052 1.90008 -4.01771e-16)
(0.982307 2.45877 7.81059e-17)
(-0.0873493 2.68702 1.91593e-16)
(1.02242 4.69864 1.56295e-17)
(0.300881 3.49163 0)
(-0.091564 2.03118 8.4316e-17)
(0.524428 2.28581 0)
(1.28271 -0.163303 -1.9158e-17)
(1.11196 -0.114298 -1.51002e-16)
(1.30573 -0.0800005 2.42126e-18)
(2.10361 0.154683 0)
(2.84503 1.87319 0)
(2.32202 7.29569 8.93743e-18)
(1.37816 2.31997 7.16019e-17)
(1.43701 2.04377 4.42036e-19)
(1.44612 2.59983 -2.72465e-16)
(0.471046 0.0297058 -1.87344e-16)
(0.151961 1.51891 9.97335e-17)
(0.136323 11.7498 0)
(0.0584233 2.59505 -5.692e-16)
(1.23096 3.9723 0)
(0.320182 4.01169 -1.18984e-16)
(2.12402 0.115535 2.02719e-18)
(1.1509 0.436517 -2.58588e-16)
(0.472086 1.47441 4.42202e-16)
(0.381542 0.0222212 4.49989e-16)
(1.64386 0.0558935 0)
(0.286787 0.0268728 -7.74317e-16)
(0.632026 0.103994 -3.23532e-16)
(1.68502 3.82067 -2.43316e-16)
(0.440767 0.034442 -9.05243e-17)
(9.54471 0.228555 0)
(8.20209 0.369858 -2.54528e-17)
(0.376689 0.0789181 -1.10667e-16)
(0.546169 2.40916 -4.04144e-16)
(1.53643 -0.0509676 -3.36548e-16)
(-0.259045 1.42604 -8.58494e-17)
(1.22411 0.841686 5.05454e-16)
(1.18636 0.860724 -2.3153e-16)
(0.198116 1.86678 -1.92285e-16)
(3.33793 0.928652 -1.0314e-18)
(0.358618 0.0560476 0)
(0.258939 0.152397 0)
(0.559115 -0.121279 0)
(0.439286 0.0623422 8.27863e-17)
(0.297695 0.0287751 -4.58177e-16)
(0.443561 0.0343291 3.73855e-16)
(1.39822 0.0803034 -1.24484e-17)
(2.2825 -5.6495e-05 4.19598e-16)
(0.281675 0.0295313 1.08831e-16)
(0.418505 0.00621458 5.76121e-16)
(0.89906 -0.257616 0)
(1.93097 -0.110996 -2.15236e-16)
(1.85319 -0.0635501 0)
(0.808831 -0.00784296 0)
(1.80809 -0.0635366 -2.87848e-16)
(0.476345 -0.0149585 0)
(0.885219 0.050203 4.45337e-16)
(0.695575 0.050605 5.05619e-16)
(1.20881 0.0760992 0)
(0.727956 0.0669584 0)
(1.39363 0.0827712 3.95133e-16)
(0.0275369 0.0185839 4.66309e-16)
(0.169191 0.0321452 3.83115e-16)
(0.914644 -0.103192 -2.72216e-17)
(1.0492 0.000276317 -1.84028e-16)
(0.369689 0.0294315 9.7261e-17)
(0.123365 0.0662587 1.00157e-16)
(5.1099 0.0791221 2.12487e-16)
(0.310173 -0.0136025 -2.68764e-17)
(1.00077 0.0485146 1.82012e-16)
(0.1973 0.00405699 0)
(4.02124 -0.117762 0)
(1.64247 0.125015 1.67018e-16)
(1.46058 -0.0287931 3.00504e-16)
(1.00302 0.0312567 8.83959e-17)
(0.925639 0.0208871 0)
(0.225872 0.19122 -3.17122e-16)
(0.58169 0.147957 6.43442e-16)
(2.41142 0.0737712 4.73548e-17)
(1.02936 0.207031 -4.61318e-17)
(0.945359 0.217418 -3.2279e-16)
(2.5819 0.228605 4.12972e-16)
(1.10997 -0.0493348 -5.74466e-17)
(0.515284 0.0448283 0)
(1.88046 0.0912677 4.3197e-16)
(0.519798 0.0502558 -1.15855e-16)
(1.08554 0.960417 -1.29164e-16)
(0.469236 0.0165409 0)
(2.44076 0.355881 -9.63381e-17)
(0.106537 1.516 2.96947e-16)
(0.430383 0.0985556 9.76994e-17)
(1.2346 0.0513321 2.29322e-16)
(0.782244 0.219213 0)
(2.64268 0.658761 1.03807e-16)
(0.873875 0.400059 0)
(1.20718 0.141438 1.35669e-17)
(-0.226621 2.50081 1.54927e-16)
(0.964073 0.902857 0)
(8.54132 0.181678 0)
(0.998857 -0.0523419 1.86779e-16)
(0.888645 -0.0292508 -7.38049e-16)
(1.10911 -0.0497836 -3.49773e-16)
(0.18744 1.73362 -7.14898e-17)
(0.769363 0.217508 3.5009e-16)
(0.67248 0.221509 -1.22557e-15)
(0.530134 0.0187667 0)
(0.431006 0.0419315 -8.82131e-16)
(1.04854 0.698559 1.12392e-18)
(0.0233043 0.928033 -2.50035e-18)
(1.11675 0.230252 1.62187e-16)
(-0.739828 -0.0197482 1.0516e-16)
(-0.573261 -0.0288396 -1.11892e-16)
(-0.212797 -0.0668522 1.15355e-16)
(-0.143821 5.14152 0)
(1.51259 0.0834059 0)
(0.846062 0.0724065 -3.85856e-16)
(0.979689 0.0500958 1.46858e-16)
(0.814606 0.0440351 -5.26001e-16)
(6.89267 -0.0190339 5.61749e-17)
(0.614176 0.0995006 2.10299e-16)
(0.917588 0.137388 0)
(2.03538 0.283712 7.80673e-17)
(0.360956 6.02374 -3.64449e-19)
(-0.170563 2.30313 1.83788e-16)
(0.000379752 0.872204 -3.93488e-17)
(0.0390453 0.962785 -1.17269e-16)
(-0.0681404 2.27236 4.72143e-17)
(0.135819 5.37303 0)
(0.866995 0.229473 2.04789e-16)
(0.105383 -0.350446 3.63428e-16)
(0.385924 0.0232519 3.06396e-17)
(1.59084 -0.0470073 9.94097e-17)
(0.314754 0.0161409 0)
(-0.47593 1.51887 2.76921e-16)
(1.02966 -0.0298407 0)
(-0.00890522 0.991829 8.06718e-17)
(-0.0965271 5.36011 -8.93422e-17)
(-0.166968 2.53328 6.11161e-17)
(0.45515 0.0261436 -1.61001e-17)
(1.24757 1.03422 -3.81185e-17)
(0.618104 -0.0273182 0)
(0.58886 -0.000324431 0)
(0.77874 0.00186733 -2.03813e-16)
(0.45444 0.0259475 -2.09238e-16)
(-0.000849054 1.83764 -1.27269e-17)
(-0.0440574 3.4676 4.17396e-17)
(1.52263 0.186148 5.51509e-16)
(7.5624 0.605388 1.79366e-17)
(0.798423 2.29475 -3.8414e-16)
(1.30686 -0.758127 -1.47097e-17)
(1.80856 0.12357 2.96669e-16)
(1.34341 0.143134 0)
(0.546599 0.0561305 1.9082e-16)
(0.306611 0.0347457 -1.23961e-17)
(0.764538 0.0329092 -1.23763e-16)
(0.69463 0.0369184 2.46461e-16)
(0.913141 0.0328778 2.43315e-16)
(8.83517 0.391354 -3.44691e-16)
(0.203031 0.0313658 0)
(0.398467 0.0530564 8.93828e-17)
(0.640669 0.115509 -2.6131e-18)
(-0.0480871 1.73991 -1.43445e-16)
(-0.111841 3.37097 7.37419e-20)
(0.387324 0.118503 0)
(0.763886 4.1741 1.48628e-16)
(2.3423 5.02686 -6.99151e-17)
(1.77735 -0.124266 -1.9893e-16)
(0.178088 1.73314 -6.17134e-17)
(-1.7378 4.44314 2.44612e-17)
(0.279788 3.60465 -3.76996e-16)
(-0.186499 2.66982 -4.95847e-17)
(0.500262 0.0240706 -5.77075e-16)
(-0.0572289 1.00839 -4.11655e-18)
(1.06461 0.364103 -3.71406e-16)
(0.577418 3.51172 -5.2364e-17)
(0.231508 2.06668 2.04003e-16)
(0.704779 2.93675 -8.39225e-17)
(0.420868 1.29152 -2.13325e-16)
(-1.86588 10.4896 5.84916e-17)
(0.854751 0.300737 -4.08774e-16)
(5.66083 0.379234 1.32896e-16)
(0.533913 0.0369459 -2.95056e-16)
(7.36231 0.59502 -3.29343e-18)
(3.60884 2.02965 7.65429e-17)
(0.555863 0.0800777 -4.68834e-16)
(0.000525702 4.77996 -4.14687e-17)
(0.481908 -0.0188075 4.01897e-17)
(6.161 0.431212 -6.64045e-18)
(0.994733 0.264407 -8.55651e-17)
(2.15269 0.132764 2.55705e-17)
(2.14217 -0.139555 -1.76699e-16)
(0.582217 -0.0854163 1.19015e-15)
(7.02858 0.721092 -4.76085e-18)
(0.358894 2.4703 2.42087e-16)
(1.28775 0.953222 2.07002e-16)
(0.499429 1.54385 4.89516e-17)
(-2.16723 9.91177 1.11815e-16)
(0.764629 3.23047 0)
(2.32446 0.0219909 -1.57572e-16)
(2.16463 0.0792127 1.09952e-17)
(0.403628 0.0513823 2.01601e-16)
(0.497616 0.0328541 9.26738e-20)
(7.6276 0.45698 0)
(0.648683 -0.00487444 2.61146e-18)
(4.89418 0.0437545 -4.17846e-17)
(0.0210853 3.58909 3.42853e-19)
(0.118558 1.88387 1.77897e-16)
(0.0725973 1.24678 -2.39325e-16)
(0.488977 1.58417 8.5153e-16)
(3.43292 0.640042 9.22642e-18)
(0.667343 6.71037 -2.01173e-19)
(0.955902 0.0839037 2.49958e-16)
(1.33146 -0.222679 0)
(0.870193 0.992407 0)
(0.381917 0.0397542 -3.80428e-17)
(2.12283 0.24737 6.83241e-20)
(4.34735 1.14606 3.23353e-17)
(7.0367 0.381826 -1.00996e-17)
(6.78135 0.94158 4.69774e-18)
(0.320191 0.197811 0)
(0.767831 2.57849 0)
(0.470222 1.04069 2.21524e-16)
(0.789579 2.4178 1.76733e-16)
(2.71778 0.328648 -8.22943e-16)
(0.706411 0.317392 0)
(0.448185 0.0200851 0)
(1.51998 -0.000435473 3.48125e-16)
(1.05946 0.448438 1.58281e-18)
(-0.0137493 2.38585 -1.76689e-16)
(0.5231 0.0434904 2.04362e-16)
(0.426008 0.0663486 -1.031e-16)
(0.395889 3.29999 -4.90378e-17)
(0.216111 1.83655 -3.22759e-17)
(0.548498 0.0491911 -2.73132e-16)
(7.60961 0.643324 -8.57277e-17)
(6.91398 0.402841 5.46358e-18)
(-0.0702125 2.02272 1.4051e-16)
(0.0435505 0.816532 -4.07012e-17)
(3.46959 1.39796 -1.33296e-17)
(0.579468 2.36908 -2.97734e-16)
(0.549293 0.0368153 1.09213e-15)
(0.309789 1.4524 6.59064e-18)
(1.01143 3.55012 0)
(0.814455 1.41439 1.57567e-16)
(0.227862 1.31724 1.10977e-16)
(0.319523 2.91873 1.2522e-19)
(-1.90587 6.75997 9.49199e-17)
(0.406771 0.0338105 0)
(7.42018 0.366427 0)
(0.707849 1.05745 -6.55289e-17)
(2.36561 0.255749 0)
(0.0939547 -0.0458749 8.89814e-17)
(7.96479 0.446491 -1.43521e-16)
(2.73533 0.157321 9.92037e-17)
(0.554458 0.0256322 1.27075e-16)
(2.4874 0.0252648 1.40492e-16)
(0.169091 3.58858 5.96686e-17)
(0.151875 0.289084 1.14066e-16)
(0.103834 1.82577 1.92123e-16)
(1.73774 3.30117 -1.55011e-16)
(0.505022 -0.141845 -8.72172e-17)
(0.372605 0.0381667 0)
(6.38365 2.16842 0)
(1.46967 2.41758 -3.5419e-16)
(0.436827 0.00645958 -2.1702e-16)
(0.288938 2.6195 5.81187e-16)
(1.33982 2.8205 -4.6716e-17)
(1.39756 0.161233 0)
(1.32677 0.0143567 -4.3092e-16)
(0.685528 4.64259 -1.12128e-16)
(0.684663 2.15267 1.38089e-16)
(1.37978 0.297732 0)
(-0.944246 5.85589 0)
(0.252604 2.73473 0)
(0.166343 1.21217 -1.76814e-16)
(1.02795 2.44693 8.68716e-18)
(9.12973 3.81128 -3.28653e-18)
(0.634327 -0.343648 0)
(1.71013 0.370933 0)
(1.80824 0.357231 -9.15701e-17)
(1.6199 2.86334 1.18255e-16)
(0.766237 0.0967013 0)
(0.264749 0.12781 4.73375e-16)
(0.554931 3.50037 1.3115e-18)
(0.0356438 1.80787 -1.48327e-16)
(0.46156 0.0178754 0)
(5.23278 0.384099 -9.19387e-17)
(1.77371 -0.446509 -1.86872e-16)
(0.101073 1.25479 1.08338e-16)
(0.379555 1.63538 0)
(0.621581 1.36126 -1.48376e-17)
(8.19276 1.02362 -2.48384e-17)
(3.84758 1.6504 -5.16121e-18)
(1.11861 2.707 -1.9168e-16)
(1.11793 2.12943 -2.54134e-16)
(1.03984 2.40951 -5.6756e-16)
(0.431589 2.02222 -8.06651e-19)
(0.784511 3.53722 8.20319e-17)
(0.33805 0.791808 0)
(7.58399 -0.139678 3.48542e-17)
(1.02949 0.187567 2.26338e-16)
(4.05807 0.52973 -1.94781e-16)
(0.460287 0.0243605 1.89804e-16)
(-0.248029 2.39726 0)
(-0.123275 5.23191 -7.24859e-17)
(-0.0356325 0.952372 3.32937e-16)
(0.454238 0.0173053 -8.22984e-18)
(0.407528 2.13533 4.96748e-17)
(0.389188 0.156645 7.46644e-18)
(0.272492 1.62274 -6.18244e-17)
(0.332384 2.9669 -5.02681e-17)
(0.597317 1.25767 1.21266e-16)
(1.04036 0.123714 1.86387e-17)
(9.60522 0.471113 0)
(0.555584 0.127787 5.03857e-16)
(0.506121 0.0781759 -1.08526e-16)
(0.570359 0.199344 -3.82833e-16)
(4.83361 0.369386 2.42206e-17)
(-0.168796 3.01368 -7.98635e-17)
(-0.0808733 1.52955 4.52152e-16)
(0.485644 0.0219413 3.54435e-20)
(0.764266 0.104537 -1.16227e-16)
(1.69502 5.50379 0)
(1.87852 0.0337242 0)
(0.032688 0.0760783 -2.14431e-17)
(0.31996 2.27153 0)
(3.96208 2.49967 -7.40946e-17)
(5.06664 1.60109 0)
(1.44528 3.23812 -2.60489e-16)
(1.18765 6.35376 3.03988e-17)
(0.352476 0.0114167 4.66401e-16)
(0.0951498 0.0656669 6.53592e-17)
(2.18454 0.200246 -2.37605e-17)
(0.570678 -0.0135591 -2.96157e-16)
(2.54104 0.0553515 -5.01689e-16)
(-0.310433 0.385395 0)
(0.394634 1.06667 -8.31508e-17)
(0.866559 0.636788 2.90036e-16)
(1.07386 0.435574 -1.07088e-16)
(0.256516 0.153724 -4.51495e-16)
(0.457868 0.79444 6.23131e-16)
(0.467629 1.60586 3.18967e-17)
(0.298239 1.55838 -4.22206e-16)
(2.27251 1.52501 -1.58002e-18)
(0.138741 0.614564 -3.03161e-16)
(0.448884 -0.00628206 2.03122e-16)
(-0.196427 3.08407 7.28054e-17)
(-0.128341 1.60887 0)
(0.570309 0.516044 -7.69403e-17)
(-0.382064 2.01128 -7.25853e-17)
(-0.0706651 0.784228 3.21888e-16)
(2.24658 0.0496986 -9.10168e-17)
(2.01061 8.34732 -4.80114e-17)
(9.62163 0.522068 -9.52557e-17)
(2.32938 0.0711894 8.72412e-17)
(0.82943 2.34528 -7.42745e-17)
(0.396921 -0.373425 -1.53653e-16)
(2.35505 0.0537054 5.91634e-16)
(0.509415 0.0292094 -3.87063e-17)
(-0.0443312 5.36179 4.61103e-18)
(2.76853 0.0103109 3.09869e-16)
(-0.27519 1.5113 -3.2817e-16)
(-0.345223 2.87202 1.36752e-16)
(-0.431632 0.98457 0)
(0.583596 1.2103 -1.16807e-16)
(0.161921 0.13499 2.94946e-17)
(0.691322 2.24663 0)
(1.23133 3.89077 -1.25189e-16)
(0.663352 1.05097 6.30937e-17)
(0.121184 -0.10474 3.57851e-16)
(0.598141 -0.308594 3.31949e-16)
(2.28462 0.062272 -5.18982e-17)
(7.08235 0.980648 -1.66248e-18)
(-0.0693227 0.723223 -2.18734e-16)
(1.83821 -0.150419 3.56852e-16)
(0.532775 1.7681 -3.07622e-16)
(0.86042 0.462011 1.15467e-16)
(2.2826 -0.0281916 0)
(0.541572 3.38616 -8.79291e-18)
(-1.88845 8.80943 -1.15423e-16)
(0.428027 1.77073 -4.19514e-20)
(-0.11261 3.32991 4.18029e-17)
(-0.239285 1.87564 -6.37698e-18)
(0.463848 2.76122 -1.89405e-16)
(1.61015 4.76341 3.87254e-17)
(0.0212991 1.1697 -2.47451e-16)
(2.26281 0.0847337 1.12483e-16)
(-0.28321 5.11892 0)
(8.08586 1.38766 0)
(0.81184 0.361104 4.67086e-16)
(1.19731 0.625587 5.56674e-16)
(-0.253079 3.31119 2.44888e-16)
(-0.189311 1.72865 -3.09756e-16)
(0.487877 -0.0206458 1.47919e-16)
(1.58313 3.48881 -6.1186e-17)
(0.593523 2.06999 4.56875e-17)
(-0.0243443 0.984394 2.35052e-17)
(0.146241 0.331322 -9.92461e-20)
(1.44032 1.14753 -5.92359e-17)
(0.330897 0.0477335 -1.16935e-17)
(1.88319 3.10261 -5.83463e-17)
(2.76255 0.0722394 -5.12539e-16)
(-0.33154 0.758693 1.17025e-17)
(0.788914 1.04706 1.581e-16)
(1.35933 0.372682 0)
(0.567101 0.0869386 0)
(0.229492 2.57817 0)
(0.244099 1.78938 5.28218e-16)
(1.49932 7.82487 3.39599e-16)
(0.420509 3.05667 4.24883e-16)
(2.12111 0.0277551 3.34432e-17)
(0.907636 1.60242 -8.71807e-17)
(0.314045 0.160014 0)
(0.565161 1.77725 8.12805e-17)
(0.563851 2.69627 2.77418e-17)
(9.10508 0.208887 -1.04587e-17)
(1.2674 -0.138842 -9.41056e-17)
(0.18489 -0.0687924 4.51965e-18)
(0.425673 0.0276538 -1.7198e-16)
(2.49418 0.262411 -3.30982e-17)
(1.06361 1.77497 0)
(-0.00414577 0.20248 -5.88954e-16)
(1.06442 0.153935 3.47775e-16)
(2.14926 0.0465853 0)
(0.641269 1.11748 7.18263e-17)
(0.15354 0.79368 -4.38978e-16)
(2.40871 0.0989709 0)
(0.593106 1.97819 -1.05779e-15)
(1.08363 3.26187 -2.24152e-16)
(0.113065 0.785089 0)
(0.944806 0.233663 0)
(10.5879 0.416728 5.97646e-17)
(7.22208 0.76816 5.04541e-17)
(7.5713 1.88945 2.66714e-18)
(1.31434 0.529001 7.35582e-20)
(0.401157 1.98549 0)
(0.295262 0.38836 2.74707e-16)
(3.31401 7.02916 -3.80657e-17)
(2.71499 0.159471 0)
(0.781202 1.11297 -4.55431e-16)
(4.71854 1.1413 3.44564e-17)
(-0.171316 5.06964 -8.86531e-17)
(2.98088 0.679567 -9.58913e-17)
(9.56361 -0.0652577 1.05168e-16)
(0.22741 0.694299 -2.65928e-16)
(8.09809 0.453883 -2.1213e-17)
(0.31933 3.16159 2.88752e-16)
(1.03108 8.23584 5.74473e-17)
(0.169493 1.82389 -2.63643e-16)
(1.0806 0.783665 0)
(2.12005 0.064461 1.29951e-16)
(0.382793 1.70544 -1.84705e-16)
(4.92906 0.212787 3.47912e-17)
(0.622808 0.0877342 1.35205e-16)
(0.187729 5.18145 2.44749e-20)
(-0.0106968 2.70744 -2.35179e-20)
(-0.000833943 1.03028 1.52652e-16)
(-0.281575 0.274282 0)
(-1.14376 0.726728 0)
(1.64893 1.14408 8.53221e-17)
(-0.378312 0.935902 1.48421e-16)
(-0.385291 2.41513 -1.73322e-16)
(0.0375541 4.35001 -4.57421e-18)
(-0.0482001 0.989979 0)
(1.65702 7.01084 -2.28229e-17)
(9.25685 0.332624 1.16485e-16)
(0.916949 1.79381 0)
(1.14125 3.96634 -2.82633e-16)
(1.28198 1.32236 6.60557e-17)
(0.512466 0.0314996 2.70199e-16)
(0.0272444 2.99449 1.17957e-16)
(0.0495619 1.54211 3.76126e-16)
(5.94724 2.27865 0)
(-0.00362138 1.94151 -8.37183e-17)
(0.0482826 3.48306 -5.31901e-17)
(3.76774 1.14958 -1.64313e-16)
(0.708388 -0.0546054 -8.50271e-20)
(6.57996 0.647254 1.10228e-17)
(0.538816 2.50567 6.40575e-19)
(-0.315367 3.30554 0)
(-0.239833 1.8065 5.76435e-18)
(1.09227 2.33761 -1.67539e-16)
(2.03979 3.97455 -4.92109e-17)
(0.369797 1.09346 2.53522e-16)
(-0.238147 4.88573 3.02823e-17)
(-0.194635 2.37413 4.66117e-16)
(-0.000274471 5.27689 0)
(-0.0143037 0.951863 -3.13546e-16)
(1.90518 1.19416 3.26931e-17)
(0.606552 1.06815 -1.46114e-16)
(2.27417 0.329515 7.20312e-17)
(0.226077 0.121406 4.7189e-18)
(0.135465 1.35775 1.28169e-16)
(0.683283 3.18075 0)
(1.89749 2.76572 1.72908e-17)
(0.0679964 2.76943 -1.9332e-17)
(0.454756 0.0538939 -1.36464e-16)
(7.26979 1.37338 -1.13603e-18)
(-0.513213 8.81856 -1.55599e-17)
(0.379218 2.60463 -1.85395e-16)
(0.242959 1.1246 -1.90864e-16)
(0.602442 2.18769 -4.6152e-16)
(1.24296 4.30381 0)
(0.286745 0.215521 3.08629e-16)
(0.467893 1.80559 1.7366e-16)
(0.753772 3.13499 3.60891e-17)
(-0.182395 0.332274 -9.11909e-17)
(0.408645 0.947227 -2.78695e-16)
(0.128618 0.266124 6.85768e-16)
(0.844878 0.202625 7.39144e-16)
(-0.195405 0.0916056 -3.34634e-16)
(1.23877 3.8098 3.78129e-16)
(0.121818 1.85574 -3.44371e-16)
(-0.399769 4.49403 -6.88157e-17)
(0.101261 3.70232 -9.05055e-17)
(2.073 9.23143 0)
(7.85358 0.615089 0)
(0.328763 0.121428 -3.32648e-16)
(0.663063 1.61483 1.98957e-16)
(0.747524 0.877068 -7.07032e-17)
(0.765609 1.48252 0)
(1.91709 0.274762 1.05696e-16)
(0.481908 0.0657972 8.93702e-21)
(0.126909 0.426598 -7.31467e-16)
(2.40724 0.104674 3.10911e-16)
(0.441677 1.56147 2.30556e-16)
(0.668361 2.6106 -5.68656e-16)
(0.753205 0.522845 4.52201e-16)
(0.817751 4.27961 -1.13185e-16)
(4.76891 0.694229 -2.24028e-17)
(0.570653 1.38439 3.63178e-16)
(0.908211 0.145763 1.92554e-16)
(0.67835 0.236507 0)
(0.487346 0.152709 6.36359e-17)
(0.350952 0.55533 -1.03454e-15)
(0.104971 1.00418 -2.56003e-17)
(0.122691 2.43683 2.59422e-16)
(-0.113479 5.09546 1.94565e-17)
(3.08179 0.344203 -2.2154e-16)
(7.23673 -0.0791069 -2.55537e-19)
(0.443704 -0.00175511 1.98064e-16)
(8.84425 0.0809657 0)
(1.67351 0.412514 -4.78295e-18)
(2.12691 0.0975726 2.4968e-18)
(2.10888 -0.00048341 -1.65845e-17)
(-0.131334 5.27987 5.44682e-17)
(-0.218092 2.50956 7.30558e-17)
(-0.0531066 0.983426 3.15061e-17)
(8.84151 0.205375 2.01338e-17)
(0.739566 1.07463 2.25699e-19)
(0.104189 2.57526 -9.1128e-17)
(2.11116 0.0679276 2.04169e-20)
(0.522442 1.72545 0)
(8.02815 2.5413 -6.26458e-18)
(-1.18286 0.744618 0)
(-0.847369 0.409889 9.25691e-17)
(-2.4574 0.845404 5.65084e-17)
(-0.0189863 0.955569 5.05439e-18)
(0.7125 0.198502 2.64186e-16)
(0.629912 0.897387 3.50759e-16)
(5.89068 3.47071 -2.40893e-17)
(0.41544 0.0440695 2.76472e-16)
(0.801983 1.15227 3.18971e-16)
(4.47131 1.42329 1.62414e-16)
(8.61446 1.36687 5.20627e-17)
(5.94816 1.29287 4.16824e-17)
(-0.260415 3.11687 -7.72098e-17)
(-0.164588 1.60106 5.2943e-17)
(-0.381231 1.87774 1.68535e-16)
(-0.364958 1.09962 0)
(1.82478 0.222793 6.5996e-17)
(0.994298 0.685175 1.69042e-16)
(6.90325 0.145755 -3.34882e-17)
(0.929132 3.7412 1.06583e-16)
(0.411567 0.104246 2.7002e-16)
(0.171222 0.1959 0)
(3.61686 2.25673 0)
(1.39352 2.97765 0)
(0.329692 4.95136 2.24513e-16)
(2.29174 0.200734 8.12187e-17)
(0.844594 1.64211 4.25652e-16)
(1.38397 2.69643 4.28312e-17)
(1.8424 6.8048 -7.77627e-17)
(0.791766 0.141267 0)
(0.862322 1.40698 8.35476e-17)
(0.600882 2.72817 -2.31691e-16)
(0.647937 0.454034 -8.06767e-16)
(10.4973 0.239281 1.27245e-16)
(1.82949 0.352239 0)
(-0.296157 2.51872 1.59051e-16)
(1.1455 3.62587 0)
(1.5296 0.439218 1.53798e-16)
(0.790433 0.944082 -2.32511e-17)
(1.39902 9.71373 8.01267e-17)
(4.0639 0.89053 -2.34404e-17)
(6.79502 2.10014 1.56315e-16)
(-0.358286 -0.113764 0)
(0.128253 1.15828 -7.64471e-17)
(0.511525 0.027778 0)
(2.53703 0.115459 0)
(0.428565 0.0292095 -1.48994e-16)
(0.733763 1.00752 2.27464e-17)
(-2.46491 11.8398 -5.93064e-17)
(1.50189 0.241009 -1.70674e-16)
(0.0329006 4.5318 1.25524e-16)
(9.68821 0.288821 -6.59676e-21)
(0.891016 0.7644 -1.62173e-16)
(-0.110209 2.42086 -3.05295e-19)
(-0.314732 3.36596 9.90343e-17)
(-0.182899 1.79426 -1.31698e-16)
(1.01494 3.24784 -1.41207e-16)
(0.560101 1.32905 -4.82605e-16)
(2.91496 1.07633 -1.55443e-17)
(-0.1698 3.72106 -2.59189e-16)
(-0.00272589 1.98414 -1.85034e-16)
(1.91624 0.876565 6.309e-17)
(0.463761 0.0178251 2.33069e-16)
(0.790565 0.565325 -2.92618e-16)
(-0.0441603 0.863709 -5.54823e-16)
(-0.384464 2.2899 -3.38743e-16)
(0.962113 0.865533 2.49779e-19)
(0.641176 0.612862 5.89413e-16)
(8.41337 0.394918 -8.91013e-17)
(0.456292 0.0140388 0)
(0.456697 3.00511 -8.23591e-20)
(1.52977 1.49754 -1.47275e-16)
(0.176268 2.28391 0)
(8.15152 1.74587 4.51767e-17)
(0.657286 0.0795851 3.0257e-16)
(0.551021 0.0694179 -2.75346e-16)
(7.2579 0.471698 0)
(0.436208 3.58228 -7.15083e-20)
(0.195497 2.01221 0)
(7.79915 0.473837 0)
(0.451132 0.025226 -5.63672e-17)
(7.38115 0.211377 -9.54991e-17)
(1.37683 1.2889 -4.97406e-16)
(1.36273 5.57547 3.03229e-17)
(2.13889 2.02046 -1.5501e-16)
(-0.221656 1.60971 -1.02897e-16)
(-0.376212 0.557508 2.4413e-19)
(-0.282607 1.64069 -1.04734e-16)
(0.256932 2.03556 0)
(-0.210644 1.43609 1.52323e-16)
(-0.105969 0.915165 0)
(-0.030437 3.32377 0)
(-0.222987 3.63137 0)
(-0.0297949 3.70283 -1.38873e-16)
(-0.550742 2.29598 0)
(-0.186943 0.775991 1.31046e-16)
(0.384762 7.42481 -1.79676e-16)
(0.846307 2.73735 0)
(0.377267 2.62329 3.35289e-16)
(-0.0076444 0.982898 -5.88123e-17)
(-0.0590823 5.32624 1.18869e-16)
(-0.120368 2.46499 -8.61721e-17)
(1.93938 2.07562 2.69957e-16)
(3.19245 0.849578 -4.79276e-17)
(0.0315397 0.916603 2.1923e-17)
(-0.0820212 2.34051 -7.20436e-17)
(2.68272 0.588823 0)
(0.45392 0.0249847 -3.41137e-20)
(5.46754 0.846278 0)
(0.479173 0.0268047 6.89338e-21)
(3.40152 0.115925 -5.81704e-16)
(8.14525 0.415733 4.8315e-17)
(0.133856 2.36654 2.23068e-16)
(-1.51992 8.0091 -1.20603e-16)
(0.209387 1.79525 0)
(0.251245 3.63313 6.80775e-16)
(5.49257 1.26125 -5.04149e-17)
(8.33432 0.607096 0)
(8.77315 0.91587 3.19025e-17)
(-0.110333 5.19292 1.02456e-17)
(5.19778 2.03196 0)
(0.726317 1.33999 2.73024e-17)
(2.11304 0.0212975 -4.40109e-17)
(2.94888 1.5457 -3.4019e-17)
(0.390861 0.0885231 -1.53154e-17)
(-0.0821654 -0.00602758 -3.83101e-16)
(0.0425424 -0.0572648 -2.76796e-16)
(0.41998 0.109017 -1.46751e-17)
(0.438352 0.187764 -6.8551e-18)
(0.210509 0.647472 -1.08491e-16)