/*--------------------------------*- C++ -*----------------------------------*\
| =========                 |                                                 |
| \\      /  F ield         | OpenFOAM: The Open Source CFD Toolbox           |
|  \\    /   O peration     | Version:  v1912                                 |
|   \\  /    A nd           | Website:  www.openfoam.com                      |
|    \\/     M anipulation  |                                                 |
\*---------------------------------------------------------------------------*/
FoamFile
{
    version     2.0;
    format      ascii;
    class       volScalarField;
    location    "0.22";
    object      epsilon;
}
// * * * * * * * * * * * * * * * * * * * * * * * * * * * * * * * * * * * * * //

dimensions      [0 2 -3 0 0 0 0];


internalField   nonuniform List<scalar> 
1431
(
24.1957
4.38344
154.157
68.2456
4.87347
19.9212
20.6396
4.44778
15.4989
1.30276
6.37895
33.5335
14.4853
57.7435
7.72699
11.6781
8.92719
9.18633
1.62374
6.70912
8.23864
1.89385
12.338
63.7914
52.9975
7.43946
58.8502
52.35
22.3378
4.51526
45.0008
12.998
12.1554
4.08915
3.1255
105.139
12.095
10.5677
25.5943
10.0864
139.923
2.02651
10.9689
4.07253
66.4157
11.705
61.8165
4.97415
16.7307
16.7581
4.68228
1.32219
15.4845
32.8704
13.2501
4.89103
1.51199
18.0556
56.3708
6.6064
69.8127
9.30824
116.351
9.81368
34.9119
12.8961
149.067
19.0582
5.33903
12.4819
3.68669
1.90855
5.46552
27.94
12.0194
14.9578
10.1266
97.8401
5.75386
84.8094
8.10849
6.05215
5.71255
95.8199
100.122
6.28082
4.41007
20.1386
70.8709
8.02773
9.19651
30.897
5.19697
10.4877
6.67613
7.4003
20.0928
8.58884
3.07538
28.0496
5.23677
5.6285
10.7469
3.50571
23.8235
12.6065
6.60154
154.401
60.2466
7.57589
102.312
9.6173
5.61814
8.0916
20.8689
3.09999
8.4672
8.63734
79.5813
42.498
9.24525
17.9188
1.25502
49.7182
9.32895
6.8896
90.7479
10.086
17.9226
26.3576
4.89013
125.977
50.5432
9.13617
5.9818
47.8606
6.19177
13.756
9.91012
137.361
6.6329
1.93405
9.80979
17.2079
19.8049
16.1915
8.7126
154.645
7.16536
13.2758
28.1617
38.1758
3.84147
7.33771
12.8373
15.3158
8.97792
7.84867
5.19255
7.90339
9.40665
6.39106
12.1058
17.311
3.25749
146.347
7.41486
9.94641
4.5374
11.7104
31.2021
20.7981
44.3228
17.3981
9.31314
15.5131
2.94993
26.1515
4.26366
5.77422
10.7393
26.4352
5.27922
8.86295
14.1173
15.3186
6.54117
49.9762
8.48656
10.0745
10.1926
64.1742
8.1229
7.35371
8.80468
8.3822
6.28918
7.79525
12.5312
9.41243
6.79587
75.7886
11.1801
157.312
6.94254
72.8269
7.21443
10.0421
6.05789
23.5638
7.95559
5.34471
69.6446
9.71811
1.93151
11.3787
4.84011
13.2813
26.4432
9.99142
9.22874
69.7396
21.4506
200.958
11.052
29.8151
23.8622
9.19052
18.1408
45.5216
5.1197
35.9415
11.0059
4.60286
4.41788
4.81473
10.0343
18.2838
8.19695
5.76514
10.3572
9.32873
9.75236
130.508
22.9025
19.6072
10.3612
10.5893
10.0681
25.4671
8.48825
13.197
1.41489
25.9724
92.3032
37.6529
8.07943
5.05171
31.8698
35.2087
39.6532
16.9512
3.05104
7.63435
4.50236
17.7055
29.7253
8.00578
20.2981
5.82932
7.32697
20.834
8.46476
8.46434
42.0544
8.96699
9.10174
28.447
18.8522
1.32195
14.1044
6.24684
11.0784
8.39213
32.8105
47.654
5.65431
4.36132
21.7298
9.24772
17.7601
11.7922
4.43492
7.52093
9.78963
5.78818
10.3907
8.17727
4.90345
6.83989
11.1032
23.9918
5.98895
6.1122
7.32152
4.51122
8.6113
36.1841
33.4988
1.28667
9.98315
13.0663
84.3598
2.32461
5.01474
4.64636
3.03114
6.57807
4.44533
7.22478
4.59177
7.39838
5.70008
4.83043
4.8159
6.59863
7.38805
6.21979
71.6444
9.35728
20.1479
11.0137
5.31269
9.2762
8.83348
10.4986
4.56913
4.84037
4.5537
14.496
7.32903
7.60282
5.09687
18.4119
68.6066
7.32312
11.3784
5.38007
0.334237
0.414917
2.15464
5.6139
21.4215
12.5317
13.6526
1.40448
8.54302
10.1874
14.3434
10.3443
7.88122
12.3266
11.3255
0.375802
0.337637
4.05166
8.85591
8.20791
38.8593
39.713
4.19478
5.01273
7.16535
12.2687
8.98153
96.8565
12.0993
11.4913
13.9054
14.5866
4.89021
2.89195
0.349325
13.9686
7.89464
10.0385
8.34625
12.5947
13.4892
0.355889
6.50318
129.08
19.3492
13.9162
7.19551
4.63634
1.22428
10.7378
4.22081
9.10132
7.91036
12.1067
10.2496
4.83318
18.9746
13.5262
7.98534
7.98225
1.52956
23.7294
41.3167
30.2781
21.9348
91.5959
18.4145
57.4662
6.1429
7.01227
7.32276
0.994984
5.44083
3.85517
6.7573
6.43213
6.07699
5.73982
6.10166
10.7853
103.441
3.8577
76.8014
8.14673
15.1647
10.8232
7.1262
4.36279
3.49253
10.8335
13.7836
37.5161
19.272
4.97495
11.2787
11.0489
20.5455
4.69065
5.28164
26.112
72.2101
11.3939
10.8102
4.9932
8.31577
5.14904
5.20074
3.98943
5.22661
3.96805
4.92368
8.39623
104.067
8.11925
27.4116
15.2174
9.87638
11.0692
1.3725
78.3541
20.9186
7.89939
82.4798
11.9255
5.81296
62.3125
19.9034
9.31445
136.97
149.448
94.1539
11.8784
8.97122
11.4675
67.9844
4.87974
9.92162
4.11683
13.9421
4.42486
3.61677
53
35.8692
7.43517
7.52656
128.552
8.26975
10.5611
31.1956
12.2777
11.3709
13.976
16.6224
49.3351
10.9813
4.10688
4.07459
25.5832
9.52725
5.04348
4.20095
5.68504
5.05117
26.6423
6.59863
30.4775
11.3039
4.60268
115.238
37.8813
5.28149
8.96399
23.0113
23.6058
14.1357
0.849325
14.9086
4.45766
7.80147
3.50416
20.4938
11.5632
10.1417
6.44628
18.5699
16.9776
3.86552
4.29617
10.3237
12.6561
7.73042
64.5627
6.56913
87.4854
7.56892
2.73692
2.1343
4.72563
11.2346
5.34071
4.10099
8.04618
16.9575
5.27309
32.6423
4.35333
5.81305
14.6771
9.22615
9.86777
33.4206
4.48643
9.8292
10.9277
8.44591
27.2205
18.979
0.409979
4.88321
4.86165
70.7354
7.41434
4.89725
4.43162
77.161
4.65029
153.588
7.68339
3.48249
7.55287
7.68234
22.2312
9.27272
5.6262
12.3397
4.36432
2.30266
14.4409
7.86688
12.5743
5.18093
17.7364
1.93697
14.1206
13.7236
11.1479
9.7936
13.9901
0.327567
11.4486
5.00713
3.77108
8.64276
5.43831
9.99077
11.8066
11.0554
4.51228
5.76547
8.73593
4.94707
110.266
73.0289
3.73014
0.66138
11.3179
92.6157
5.03146
13.1542
3.22398
10.4364
4.42346
15.6318
3.4943
10.273
10.4346
12.8786
9.54702
15.859
0.390469
3.59597
5.91355
4.68666
11.7067
14.122
6.34939
4.65512
4.45539
10.5756
4.73342
29.4467
11.4412
12.5787
8.36445
6.81387
3.81238
19.1529
10.1267
11.8827
12.4921
1.41007
11.9135
25.5583
3.67617
8.84104
36.0173
9.30658
4.28302
7.23302
11.8058
10.6945
3.87278
4.38372
0.872375
10.0097
9.4402
8.69304
4.8912
13.6822
7.30492
4.35131
44.071
0.429305
7.65029
10.5553
5.03176
10.574
10.6475
16.6681
3.03675
15.241
25.6412
19.9946
3.95716
19.4849
17.165
10.6341
4.43498
3.6433
9.18226
21.2632
2.19227
60.4511
4.90523
10.219
17.1634
3.49315
11.4911
0.371159
6.45549
8.10859
4.96403
11.1799
9.60968
4.14532
12.8834
6.96402
37.2
33.1407
4.13297
13.9261
157.569
5.37461
0.296074
15.5027
7.63917
10.7937
25.1565
4.81492
9.82177
5.24452
12.3689
23.8948
9.61529
5.35062
12.5661
18.5707
26.2789
2.13396
12.5208
30.0201
8.42326
6.7155
16.2022
28.755
28.687
11.0448
4.22154
8.18057
35.9417
4.20572
8.93176
6.61476
7.22497
13.6267
10.0003
40.2882
22.2193
5.55073
19.4427
38.704
8.0388
6.5848
4.3674
29.225
31.8487
8.9705
6.83279
13.0551
29.0469
18.7307
105.333
14.9202
49.2029
48.7291
49.7326
10.1123
9.94961
2.21779
51.3005
42.7799
30.2955
18.6184
84.7026
0.33091
18.3546
6.6054
37.962
1.90381
64.6962
10.1244
9.64747
6.23975
2.08725
33.5685
7.80125
0.644712
133.496
0.294699
16.7768
4.33459
124.558
8.81569
4.30018
83.2337
47.071
13.9625
10.3409
0.38123
19.2874
25.795
5.96263
7.971
6.56573
5.6772
16.3155
0.374841
3.1906
68.5807
9.19053
12.8157
13.3595
8.55497
6.18534
9.95173
0.533448
83.5976
31.2081
37.1832
40.5575
46.6117
35.1141
27.8175
31.8634
35.6117
5.05114
1.58698
17.1608
5.50751
8.29898
17.3177
0.482494
28.5459
0.314136
7.58623
0.753399
7.85249
29.4802
9.47292
31.6548
6.26794
8.35099
4.37224
7.63774
8.48216
34.6904
80.1993
6.38848
15.1038
4.34925
3.21903
6.19157
5.71711
3.76331
4.21907
0.447304
51.9789
6.89903
1.55595
12.444
11.045
12.6319
5.66421
8.52916
12.3794
14.6769
6.50219
17.7479
5.27882
5.0374
0.39531
12.5129
10.5917
54.7245
9.49767
4.11197
0.456005
7.71113
24.4711
7.79288
13.7791
6.78282
2.30739
15.2698
9.04816
0.753789
10.347
24.0849
7.27684
98.9358
79.1489
11.2332
21.0038
13.2074
18.8599
7.9338
10.3545
133.112
0.377445
14.6888
5.02079
11.061
5.72342
6.53067
4.56309
3.84082
62.5602
53.6581
25.4801
14.8067
0.770798
0.710164
9.5076
5.57498
9.50964
5.3383
5.4007
9.49386
28.7175
13.577
25.5146
17.9062
7.8945
5.53385
7.93578
6.01582
5.07423
44.8208
18.0564
34.6685
6.53994
35.4818
10.0402
4.28905
8.15985
7.25978
9.4683
8.35463
6.01154
10.8016
12.7072
6.58581
0.564321
3.23249
6.90224
15.1668
22.0499
8.46429
101.968
8.83858
8.00489
36.3359
5.76947
3.3567
19.0659
10.073
119.959
13.0841
17.4348
12.0161
9.16412
12.2428
7.59283
11.0316
10.5453
7.059
3.64193
27.3881
18.8433
68.3264
7.42511
53.7456
4.86874
5.05342
3.87733
36.9882
6.16853
2.86847
6.35272
24.4934
21.3249
5.79797
4.59621
18.6668
9.33554
15.2017
1.87432
50.926
2.64018
151.516
30.1126
34.5413
5.12688
6.98622
5.34908
4.14753
11.6652
13.181
9.00595
43.6062
126.622
6.77076
2.41708
28.5248
23.0472
19.1743
4.71911
4.55854
15.5621
19.6681
13.064
8.90758
11.6356
3.7597
5.77647
8.50957
56.6193
12.8393
62.3873
4.0984
7.24686
5.65106
5.40002
9.29056
6.48893
67.9801
43.67
11.6926
3.32507
13.0015
5.98135
148.199
9.47722
2.07
3.6026
131.546
7.29334
5.55803
100.657
10.7613
4.91593
15.828
37.4267
4.18334
0.339113
14.7645
5.30132
7.76209
93.1649
5.46159
4.30023
5.7301
11.0381
30.6466
6.19923
26.5931
18.7071
6.95769
9.12313
17.9861
9.55973
4.7242
3.48172
8.64398
12.9867
41.0324
5.17949
9.32793
12.9318
11.0716
11.4792
6.53589
10.0907
4.63038
24.7434
54.0426
6.54732
10.7999
4.17103
72.7732
14.1753
14.135
4.07356
8.68714
8.62987
0.410151
6.76402
4.20905
26.1257
55.3182
22.701
7.51121
6.25138
17.9328
5.41772
4.78506
43.4107
30.5107
3.00454
12.0792
19.3435
90.5384
109.393
19.0572
18.6872
82.0708
2.95539
14.9759
5.2486
0.40293
19.5582
45.0393
7.13414
6.82394
3.52687
60.6888
13.1724
80.7518
3.7832
6.22472
24.4273
7.5156
5.3619
7.8162
15.2887
13.7267
108.187
31.4036
16.2291
6.24379
29.1104
10.2493
14.454
0.509291
22.5973
9.73103
1.46168
8.40136
2.16592
32.8559
4.56452
0.285722
9.72248
9.56053
11.745
2.1273
9.63452
4.84866
61.9756
2.27839
80.9328
7.37429
79.2028
0.333969
13.7846
6.09938
8.01359
5.98933
11.2023
47.5974
45.2879
8.90617
118.22
11.1877
0.460096
6.20093
8.01783
55.504
112.577
0.307589
11.9867
27.927
12.1211
22.6114
8.24825
99.7017
38.9736
14.3821
4.80979
0.470943
1.36217
3.66339
106.829
97.0043
4.33609
14.2994
6.17387
43.6875
166.956
9.63058
28.4503
0.515933
13.5726
92.4571
30.6501
15.4079
8.91321
5.58711
65.5003
4.70657
6.82023
10.9673
5.25731
1.34527
18.3152
9.6746
7.60749
46.6469
12.655
16.3782
4.70338
13.213
14.2263
63.9144
6.55872
7.22937
11.2764
0.615991
86.2919
1.95387
4.74826
91.8993
18.1958
5.82875
35.3001
7.49068
9.15369
4.45253
5.53043
7.93328
19.7603
12.6205
36.9512
99.0094
5.81358
95.3628
12.4741
6.27578
56.9129
6.41195
6.67185
10.3947
8.73283
127.087
69.5883
8.43423
2.65547
2.62918
2.77933
10.4866
50.4904
9.32723
3.7361
19.0292
4.64035
7.63365
169.367
4.25114
92.4641
30.9148
4.92022
11.8336
15.0896
4.30486
35.6505
8.76858
18.2834
12.3838
9.90014
86.0868
4.69634
9.15065
4.67295
27.6093
0.449588
7.64131
6.50112
5.66401
16.3447
8.94628
34.3993
40.6758
4.81294
2.57845
6.08641
16.2347
3.77527
128.475
8.09619
13.3127
1.56235
13.8977
31.9487
62.6578
7.95403
18.2494
17.8869
13.0982
7.78725
6.51813
16.2511
0.949456
7.66783
6.00693
15.4222
11.3348
5.05027
10.7637
2.90001
12.5175
4.14276
10.2634
11.856
20.1641
12.9109
6.72822
4.20629
8.20992
5.69782
10.7184
12.0255
18.0408
12.0963
23.6735
5.02483
7.08815
4.52835
107.236
54.0692
13.3231
3.62538
9.01582
5.18971
3.93125
13.8173
8.56188
5.35991
23.6108
73.805
5.90968
31.1417
4.16084
7.29991
3.08669
7.91424
128.846
9.42658
18.5626
4.01987
5.09681
6.732
24.1952
22.0705
35.9085
4.81578
4.1853
14.3925
9.50453
7.94888
30.1059
11.087
3.99265
11.3419
5.77078
7.50956
7.38393
137.607
6.7414
9.75985
4.96519
11.2652
20.1612
37.1622
14.5459
7.81003
4.80618
4.43493
10.1923
6.37335
9.43298
7.03164
10.6214
7.29194
70.0726
7.34587
151.587
6.16885
44.1301
107.429
12.0919
2.48478
2.68586
20.0311
12.6809
56.0079
3.43472
5.84979
14.2758
46.9477
11.8007
22.8368
9.2391
16.884
12.6069
8.25213
59.0315
5.89173
61.8768
41.3803
34.0162
41.396
4.83875
4.08132
3.95706
12.1747
2.75865
11.8351
12.3292
10.8564
4.56102
13.6426
1.59821
8.38014
23.7395
5.02186
59.4101
19.4094
4.27238
18.2635
123.907
1.64645
1.51906
10.0825
)
;

boundaryField
{
    frontAndBack
    {
        type            empty;
    }
    wallOuter
    {
        lowReCorrection 0;
        type            epsilonWallFunction;
        value           nonuniform List<scalar> 
90
(
11.6781
25.1565
23.8948
26.2789
30.0201
28.755
28.687
40.2882
22.2193
29.225
31.8487
42.7799
30.2955
37.962
33.5685
83.2337
31.2081
37.1832
40.5575
46.6117
35.1141
27.8175
31.8634
35.6117
34.6904
62.5602
53.6581
34.6685
35.4818
7.25978
9.4683
8.35463
6.01154
10.8016
12.7072
15.1668
36.3359
3.3567
19.0659
17.4348
27.3881
18.8433
68.3264
7.42511
24.4934
21.3249
30.1126
34.5413
5.12688
43.6062
56.6193
5.98135
30.6466
41.0324
24.7434
4.07356
4.20905
26.1257
55.3182
17.9328
43.4107
30.5107
19.0572
82.0708
45.0393
60.6888
80.7518
13.7267
108.187
31.4036
45.2879
11.1877
112.577
27.927
99.7017
106.829
28.4503
30.6501
15.4079
65.5003
35.3001
95.3628
12.4741
30.9148
4.81294
23.6735
128.846
9.42658
35.9085
20.1612
)
;
    }
    inlet
    {
        type            fixedValue;
        value           uniform 14.855;
    }
    outlet
    {
        type            zeroGradient;
    }
    wallInner
    {
        lowReCorrection 0;
        type            epsilonWallFunction;
        value           nonuniform List<scalar> 
138
(
33.5335
1.62374
12.1554
4.08915
3.1255
2.02651
149.067
19.0582
3.68669
1.90855
14.9578
50.5432
7.33771
12.8373
15.5131
2.94993
12.5312
9.41243
6.79587
75.7886
200.958
37.6529
8.07943
31.8698
35.2087
39.6532
29.7253
42.0544
32.8105
36.1841
33.4988
7.32903
7.32312
5.38007
0.334237
0.414917
2.15464
5.6139
21.4215
12.5317
13.6526
1.40448
8.54302
10.1874
14.3434
10.3443
7.88122
12.3266
11.3255
0.375802
0.337637
4.05166
8.85591
8.20791
14.5866
4.89021
2.89195
0.349325
13.9686
7.89464
10.0385
8.34625
12.5947
13.4892
0.355889
6.50318
7.91036
30.2781
57.4662
15.1647
4.97495
20.5455
72.2101
8.11925
62.3125
11.8784
67.9844
53
35.8692
7.43517
8.26975
31.1956
49.3351
5.68504
5.05117
37.8813
2.1343
5.27309
32.6423
33.4206
4.89725
3.77108
14.122
4.8912
3.95716
0.371159
6.45549
8.42326
16.2022
13.6267
14.9202
2.21779
6.6054
2.08725
47.071
0.374841
28.5459
31.6548
6.26794
0.447304
0.710164
44.8208
0.564321
3.23249
8.46429
36.9882
50.926
2.64018
2.41708
28.5248
9.55973
4.17103
72.7732
2.95539
0.509291
1.46168
61.9756
2.27839
0.470943
1.36217
7.49068
12.3292
59.4101
19.4094
4.27238
123.907
1.64645
10.0825
)
;
    }
    procBoundary0to1
    {
        type            processor;
        value           nonuniform List<scalar> 
29
(
23.4661
30.7379
46.0491
46.0491
49.5297
49.5297
124.079
27.7382
145.474
30.1034
29.7789
21.7
9.57533
4.44743
64.234
24.4876
105.067
73.9237
38.3777
28.259
10.5506
6.05159
83.108
10.7649
10.8291
73.9237
8.46502
67.7944
10.7649
)
;
    }
    procBoundary0to2
    {
        type            processor;
        value           nonuniform List<scalar> 
42
(
1.88355
2.35411
2.83624
2.22232
5.0358
1.88355
2.83624
2.58354
1.54351
1.94986
7.59347
7.02855
7.59347
5.74288
3.91196
1.83176
3.91196
2.23672
1.34287
15.5113
15.5113
2.23672
1.76725
6.55933
6.55933
0.843253
4.17461
0.338682
1.91152
2.24839
2.24839
0.325065
0.386437
0.411871
0.515268
2.83624
2.36694
2.50336
1.91152
2.58354
1.72955
0.92915
)
;
    }
}


// ************************************************************************* //
