/*--------------------------------*- C++ -*----------------------------------*\
| =========                 |                                                 |
| \\      /  F ield         | OpenFOAM: The Open Source CFD Toolbox           |
|  \\    /   O peration     | Version:  v1912                                 |
|   \\  /    A nd           | Website:  www.openfoam.com                      |
|    \\/     M anipulation  |                                                 |
\*---------------------------------------------------------------------------*/
FoamFile
{
    version     2.0;
    format      ascii;
    class       volScalarField;
    location    "0.22";
    object      p;
}
// * * * * * * * * * * * * * * * * * * * * * * * * * * * * * * * * * * * * * //

dimensions      [0 2 -2 0 0 0 0];


internalField   nonuniform List<scalar> 
1431
(
98.6364
90.2266
88.0205
90.071
93.2387
86.0115
91.9273
95.6761
91.7886
92.4837
92.1632
92.4434
88.1045
100.93
92.567
94.6177
92.6688
91.2604
95.4565
91.8235
91.5323
92.1275
88.8293
101.79
78.6241
91.869
71.6295
100.124
89.8849
90.8821
110.871
117.11
71.72
87.7923
94.7638
88.056
93.9144
94.7863
85.9214
94.853
107.811
89.4478
89.4482
94.0763
70.4717
94.605
92.7565
115.655
111.797
96.1178
91.0361
92.3738
92.516
88.0749
94.4358
109.032
92.3438
92.3445
78.2508
91.7094
92.496
89.9426
92.0377
95.5407
97.4406
91.2419
87.3879
84.4928
95.1207
95.9312
89.4874
94.0861
90.3472
84.9501
93.7899
71.8865
92.8446
79.0377
95.9487
73.5
95.5672
91.4235
87.1339
90.564
79.7579
92.9041
93.2173
87.7285
102.679
91.8178
91.7817
87.9585
93.2446
94.5488
91.5632
92.0418
94.0551
97.6107
93.4461
110.844
94.9002
94.702
94.6682
93.1551
90.8387
89.2956
95.6806
111.101
112.448
92.7463
74.4531
91.2459
96.2161
91.2642
92.1367
93.354
91.3823
92.4035
103.536
72.7321
93.2803
92.157
92.4862
106.229
95.2752
89.8733
104.326
91.8494
96.1731
95.4312
90.8952
111.692
101.972
93.2251
93.2062
89.1655
90.2824
91.7922
94.2399
111.336
90.894
93.2845
94.6811
111.789
112.833
93.5506
97.1418
111.403
90.2237
110.388
96.2482
98.5341
89.3061
82.6775
91.0691
91.6961
95.5739
91.8657
96.9765
105.572
91.2648
91.2347
95.6775
90.5907
93.4424
71.1874
92.5788
93.9937
90.821
94.3314
104.223
94.6534
109.817
96.4319
95.1839
92.2885
87.6927
97.1451
90.8538
102.438
95.6472
92.7156
102.702
91.9205
94.9664
105.231
94.7237
84.8701
92.2125
95.5436
87.6203
93.4041
92.1442
95.3704
89.7671
93.052
95.6881
114.355
88.6231
88.9644
88.6183
115.251
108.915
106.55
95.6012
74.5026
92.6926
96.0287
92.2539
99.4201
95.3686
96.2237
106.861
95.9249
92.684
91.5911
97.8548
87.7962
88.852
95.6243
95.6111
68.9766
94.8406
94.5868
96.306
90.645
107.892
92.6104
100.218
111.13
93.2799
89.4018
95.8227
94.1425
95.3638
95.9658
96.923
97.3714
95.5184
89.3938
97.377
107.312
91.4796
93.2477
91.6738
90.5965
94.872
93.261
85.5797
103.172
101.176
91.6475
92.217
114.708
92.242
96.4521
91.0763
89.38
95.3504
95.8225
96.3054
88.8602
93.5658
90.8658
95.568
99.3694
91.0335
94.6242
101.529
91.1503
95.8281
110.797
100.217
99.2756
95.8734
92.8223
93.3861
91.9751
91.9593
92.6296
91.4338
89.5115
89.2412
92.2347
92.8765
87.1279
93.2566
101.199
102.056
96.6886
93.4739
95.5407
101.044
90.4684
102.599
98.1699
92.7387
100.843
89.381
103.927
95.7733
109.463
85.5711
113.252
91.1154
89.3807
95.6855
96.16
95.5574
94.7099
96.5145
95.0337
89.6495
93.3514
87.4893
89.5353
92.3982
89.5069
94.9922
95.4788
89.2694
95.6121
91.0671
89.4825
91.3004
95.1136
95.4671
95.0658
108.374
96.2162
90.5962
84.1862
89.6069
89.2197
95.3013
91.0861
90.5632
95.4253
91.0997
87.8107
89.3131
95.5579
94.5886
88.4715
100.545
83.8761
96.2731
89.0656
94.5731
94.95
89.3767
91.8832
92.1638
91.7607
86.7945
89.4403
92.0474
84.4973
91.8177
90.4859
90.4268
88.2034
91.6351
94.1937
94.7402
89.189
91.2198
89.9121
89.2169
90.9105
89.8608
89.5389
95.664
103.911
90.2147
88.8105
90.8806
95.0669
94.3521
91.6838
91.8107
89.2799
94.8663
92.1741
89.2159
91.4119
90.0855
85.5193
91.7877
94.3923
88.8675
90.8221
106.63
95.0762
95.4168
91.5359
95.1013
95.9869
92.5707
95.6152
89.9786
90.2111
95.8945
91.2718
89.705
92.6401
89.3427
112.983
94.7963
91.1909
92.7519
89.1759
92.0905
84.6902
112.297
127.292
90.764
91.388
88.0606
94.8034
89.5446
93.274
94.3056
89.1966
93.2083
91.1699
88.7806
85.8667
70.0432
90.5241
72.4511
89.6396
89.3546
86.8471
89.597
91.1878
93.2518
85.3367
88.6346
86.3017
93.1875
91.2541
85.9324
85.2308
88.9366
91.0779
90.9131
89.0644
87.9003
87.2086
88.1217
94.3705
90.2551
94.0736
94.4249
93.8657
94.478
94.5189
94.4471
89.5123
81.8008
95.4579
87.077
88.7256
89.2408
89.355
94.821
82.3842
89.0303
88.9985
82.8143
91.4691
112.963
110.481
90.3539
88.6198
90.8256
91.3984
93.2079
94.7915
94.7465
91.5903
96.3409
94.0499
112.96
93.0707
90.0307
93.3907
94.6136
87.5513
88.3787
95.4505
87.3415
93.5609
95.2957
91.6526
91.534
85.1978
96.0766
85.4054
91.2172
93.0185
85.5697
90.1996
89.7966
87.0953
88.2251
93.9412
95.1262
90.757
90.6192
88.181
96.8416
88.9148
95.6263
95.1961
92.9257
92.1205
95.0107
89.3272
87.1884
88.1988
85.9605
94.901
91.7612
94.1313
89.3875
94.8509
87.1982
84.8221
112.987
113.812
87.5491
86.1267
94.3608
94.7306
86.7446
85.1211
90.4459
95.1863
89.2652
92.7507
90.44
92.7204
91.5633
93.132
84.9637
95.4961
94.0932
86.4858
86.4358
90.42
94.9476
94.4807
89.7072
89.4746
88.4835
91.2542
93.985
99.1496
89.5903
88.2089
89.3817
93.0332
70.9524
95.1177
91.2355
100.369
91.2641
88.7786
88.3085
91.9106
92.1901
92.3639
92.4506
91.193
92.1271
90.7129
88.6585
97.6864
91.6564
95.5554
89.2835
91.2301
89.4997
86.1818
89.5734
94.0972
91.2749
98.5537
92.5396
92.3812
93.3896
94.6623
95.6558
87.4584
94.4354
85.737
99.3925
84.2026
89.8151
89.5024
87.7772
85.3012
85.8927
92.8908
91.3538
85.8835
91.9134
89.9461
94.1199
91.7743
95.1215
86.8594
91.9663
98.4731
90.9919
90.5674
86.4002
93.7586
88.3911
89.5024
90.9888
86.0474
86.5116
119.757
88.158
94.2423
93.0194
95.4125
91.4599
90.8942
92.1476
95.401
89.4298
94.1589
87.4029
102.588
92.5477
90.6604
86.3281
92.473
95.4431
92.2402
88.2518
87.6134
87.5906
91.9056
92.1275
90.7404
92.0603
89.4079
97.914
93.0926
91.6276
93.7779
95.7038
95.4655
86.4717
92.9001
91.0154
93.6633
90.6083
91.1025
95.9763
83.7339
92.0215
93.9271
93.3695
91.449
94.0393
95.6167
90.7556
91.7538
112.934
112.44
91.6741
92.8493
87.7101
94.8742
92.8149
90.6264
92.2793
92.0434
89.4768
89.4001
92.2675
88.7078
91.6453
95.3426
111.355
90.6464
88.0471
97.1742
92.115
87.1666
93.9808
88.6078
95.7195
104.035
86.8526
85.6711
99.505
87.1889
92.2922
125.865
92.1746
92.0742
90.3839
106.677
90.9037
94.6056
88.6078
94.3395
86.5426
96.3765
90.3013
89.7408
105.982
95.9472
96.2159
97.0961
95.3446
92.9834
87.9321
96.8036
93.0507
89.9979
105.049
88.7093
95.6209
92.301
104.537
103.946
92.8181
98.5839
90.7264
90.0104
91.68
90.5445
89.7911
91.3031
114.298
92.096
97.7055
96.8834
100.277
101.089
105.214
84.262
91.2609
101.739
103.306
101.8
91.2232
90.4871
95.5471
95.7165
96.1064
105.046
88.3557
103.869
108.001
100.528
95.2464
90.6563
89.4855
106.34
97.3043
102.58
90.5817
94.061
94.4222
88.7726
89.3523
99.0993
93.6111
91.6427
87.5
84.7486
88.3691
91.2537
101.014
91.1584
95.2809
94.8204
94.5902
88.9441
91.2544
105.713
92.4981
97.7003
107.863
137.607
94.8783
95.8683
94.2338
88.6118
93.1435
95.0562
90.5746
90.2491
108.06
87.9052
93.7574
89.4942
92.2173
91.4031
91.5653
93.9654
96.2143
95.1391
91.7613
93.8754
78.5464
96.901
96.6532
94.0426
94.2568
94.3998
97.6721
95.819
100.205
89.3712
89.4803
96.4594
90.3359
89.4338
87.932
93.8374
92.0052
94.7376
89.2026
93.6143
87.8554
90.2875
88.5305
95.2779
89.7608
90.3375
96.9208
111.659
97.3016
94.1502
75.7264
110.012
88.8356
89.6555
89.4481
95.4903
90.0009
89.8077
89.391
95.0062
118.184
90.7025
92.3935
92.282
95.6899
95.7457
95.4042
91.5658
84.1917
91.674
89.4976
95.6093
94.2698
105.665
93.8041
88.0999
112.913
96.62
91.4625
90.7337
94.821
104.432
89.698
94.1337
91.5982
95.6411
93.6003
88.0304
90.9213
94.8976
95.9279
98.2246
90.3092
74.2044
73.5888
111.514
97.3243
92.4532
87.0415
95.8566
93.3373
87.4416
94.7293
89.1051
90.8769
88.2691
91.2592
91.4118
94.6405
94.9452
109.055
111.16
97.4924
96.1522
94.8632
95.3511
91.0834
95.3328
90.5504
91.342
94.5681
92.1615
89.9905
96.0289
93.7056
89.4138
90.1321
96.0823
90.2691
95.4748
95.5164
97.1163
89.1771
95.8281
93.2543
105.838
87.4692
106.047
90.2631
94.04
92.9748
93.5286
94.4158
92.4866
92.2727
89.285
93.5621
88.1539
95.8121
92.4966
97.2323
90.773
72.1899
92.7488
91.529
98.0978
92.9776
93.3903
94.2082
88.6402
96.1249
84.7376
93.0353
91.2891
89.965
90.9933
91.2116
90.4949
88.6521
91.4995
89.5515
96.9939
93.7061
94.6694
93.2125
89.4901
91.2807
94.5829
89.441
85.2127
91.9186
93.2439
95.5858
95.7049
94.5829
91.7117
90.6436
98.3501
89.3772
91.1334
91.0005
85.6286
92.6377
93.3499
99.1632
94.4967
93.4147
95.9112
91.2179
90.0901
96.4242
85.5505
88.7809
101.598
78.5494
92.9721
89.3194
91.2091
96.3073
90.5507
93.2513
96.0935
87.7374
92.9589
94.0344
92.0792
88.7294
93.6675
95.4071
98.3788
110.021
91.582
92.6161
90.8506
91.6052
90.8794
91.8353
90.0844
89.6047
71.5843
98.2807
86.7652
89.4359
91.7959
94.6925
108.984
90.0213
92.648
89.3061
90.362
89.5116
91.2342
91.2656
95.564
90.909
91.8584
91.6213
93.4146
94.0095
88.3446
91.0174
88.8188
78.3966
90.8831
103.616
91.9888
87.6556
94.6196
90.8483
92.1399
87.8001
94.2302
91.2425
98.1801
87.521
113.674
91.8039
92.3442
92.1548
80.9997
115.826
92.7954
94.6674
95.8117
95.1971
90.7182
90.4679
94.9719
93.5701
95.4107
95.663
90.8368
91.4349
94.2182
96.6043
96.5796
93.4839
91.8011
91.3643
95.0014
114.478
93.4761
93.461
110.706
95.575
90.229
95.5242
99.8248
91.1443
115.036
93.211
99.0628
89.5198
96.6618
96.9777
93.3586
90.0239
95.044
94.8307
77.5665
90.9212
96.211
92.0224
94.03
88.4749
99.3687
90.0101
91.7998
91.319
111.006
91.9772
111.807
90.21
89.9187
106.537
108.82
89.8498
91.5774
96.497
93.5717
79.7423
99.4037
91.8651
95.5026
88.7684
93.7631
96.587
95.2136
98.4535
88.6095
89.447
90.8902
89.4393
91.3566
89.6826
94.5791
89.0819
90.6144
90.1686
93.2009
94.1923
95.1199
79.7724
92.1513
89.6364
95.8036
76.0349
94.2153
88.6734
91.0182
89.3119
91.4531
90.7547
99.1758
105.895
96.2569
81.6613
93.1191
94.8995
89.2569
92.8036
109.496
111.489
94.4065
88.9159
98.2138
96.0272
87.4885
90.2687
91.5225
94.0494
94.3248
112.589
95.0875
89.4721
94.7179
106.746
79.0431
108.678
94.3686
95.0946
91.3935
93.4848
87.7437
96.9848
94.7635
89.0309
94.6324
98.1304
94.0101
91.7552
91.066
80.3237
94.4616
90.9753
96.0602
91.0078
92.0625
91.773
91.6277
91.0371
97.0519
91.5556
88.3461
91.3907
96.0566
95.766
97.2955
91.4003
91.3883
91.728
94.95
75.349
89.4583
89.5353
89.1364
91.9558
91.5828
94.22
90.8497
92.7938
111.242
91.7254
113.777
94.617
95.0195
97.3013
85.8996
93.0534
76.9898
93.2984
90.9564
79.8793
92.8571
89.8047
93.332
91.495
89.7981
89.0392
90.4606
93.3118
93.1483
93.3868
87.5991
90.2871
112.291
93.261
88.8663
95.4915
91.5775
90.0312
91.6405
89.7057
90.7416
91.1389
91.1212
88.015
89.436
93.683
91.2602
95.5254
93.8342
91.7088
72.4733
89.5049
91.011
90.9965
92.0381
94.9488
95.9888
92.7892
95.1936
92.8051
92.4045
95.9895
98.219
94.6125
89.4111
117.69
123.447
89.3409
89.6941
90.7651
90.9758
92.5217
91.4866
93.8832
87.3628
91.0612
83.2869
97.086
94.7294
91.5402
92.2117
87.9553
93.7339
91.0966
95.9072
92.9857
88.1041
93.8807
89.2501
93.3114
95.6385
89.4386
93.888
94.486
97.8554
92.26
95.4092
89.6582
91.4807
91.5659
87.6417
91.7026
91.918
93.08
96.6689
89.7177
94.03
89.6204
91.8767
85.5612
90.3801
93.9444
93.0029
89.4859
89.4495
95.6458
89.787
96.6502
84.4532
72.3531
95.3388
89.6587
93.2598
113.975
89.4482
90.9428
85.6381
93.0817
86.9992
90.8932
95.2807
91.8837
83.5382
85.6299
93.8825
92.1497
89.7224
91.813
89.4937
91.5211
95.3779
93.0522
89.5342
91.544
89.7447
113.666
89.0847
90.2455
95.5109
92.6572
97.6328
83.6518
98.3555
96.8809
95.1188
93.039
90.0141
89.9132
91.6726
92.1028
85.8694
118.239
93.7098
93.5398
99.8556
89.3834
110.458
95.0294
98.9143
89.9825
94.8651
89.4348
93.4558
93.6528
94.9318
81.489
95.4308
91.0896
87.7015
93.6775
86.7428
98.0679
94.2307
96.0075
96.7434
95.9688
96.111
95.353
77.6893
93.9527
95.2124
96.0899
95.5066
89.4632
94.1348
89.4392
93.4644
96.4199
110.422
88.8827
93.7532
90.6869
92.8851
92.5756
95.467
97.0401
67.4932
119.947
89.7297
90.8122
97.4415
92.9246
92.0224
89.7532
)
;

boundaryField
{
    frontAndBack
    {
        type            empty;
    }
    wallOuter
    {
        type            zeroGradient;
    }
    inlet
    {
        type            zeroGradient;
    }
    outlet
    {
        type            fixedValue;
        value           nonuniform 0();
    }
    wallInner
    {
        type            zeroGradient;
    }
    procBoundary0to1
    {
        type            processor;
        value           nonuniform List<scalar> 
29
(
89.3086
89.0465
84.7298
84.7298
70.0144
70.0144
112.554
83.7014
79.4254
83.8231
83.4488
70.0644
83.0824
91.1806
112.896
113.155
68.8127
72.5428
84.1908
91.094
112.982
112.84
74.9379
113.151
113.273
72.5428
113.959
112.447
113.151
)
;
    }
    procBoundary0to2
    {
        type            processor;
        value           nonuniform List<scalar> 
42
(
91.8407
91.7043
93.5262
93.4242
95.375
91.8407
93.5262
93.6758
95.0409
94.402
95.5529
95.0621
95.5529
94.4902
93.6762
91.7352
93.6762
94.6066
94.5772
93.2068
93.2068
94.6066
94.856
93.1926
93.1926
94.7991
92.7356
94.6295
92.3104
92.2457
92.2457
94.4509
94.2368
94.0159
93.871
93.5262
92.0638
93.397
92.3104
93.6758
93.7549
93.788
)
;
    }
}


// ************************************************************************* //
