/*--------------------------------*- C++ -*----------------------------------*\
| =========                 |                                                 |
| \\      /  F ield         | OpenFOAM: The Open Source CFD Toolbox           |
|  \\    /   O peration     | Version:  v1912                                 |
|   \\  /    A nd           | Website:  www.openfoam.com                      |
|    \\/     M anipulation  |                                                 |
\*---------------------------------------------------------------------------*/
FoamFile
{
    version     2.0;
    format      ascii;
    class       volVectorField;
    location    "0.22";
    object      U;
}
// * * * * * * * * * * * * * * * * * * * * * * * * * * * * * * * * * * * * * //

dimensions      [0 1 -1 0 0 0 0];


internalField   nonuniform List<vector> 
1431
(
(-1.23814 0.0176546 -2.61122e-17)
(1.59093 -0.171564 -1.44107e-16)
(5.86854 1.38517 9.51375e-17)
(-2.79553 1.52002 -4.57156e-17)
(0.19376 2.88912 -1.14086e-16)
(-1.1396 0.0697098 3.08572e-16)
(-1.20973 -2.0219 -1.8974e-16)
(9.79861 0.557676 -2.12286e-16)
(-1.33711 1.50651 0)
(-2.36678 -0.575646 -1.28446e-16)
(0.409289 -3.21854 0)
(0.490613 -0.219729 7.30981e-17)
(1.73871 -0.273096 0)
(9.24837 0.44429 1.84856e-18)
(1.53834 0.77739 -2.49881e-16)
(0.260476 0.293842 0)
(1.38065 1.00877 -3.76328e-16)
(-3.51285 0.259024 0)
(0.122374 -0.204682 1.50079e-16)
(0.200566 -3.23665 3.58199e-17)
(-0.356086 1.01115 -1.77565e-17)
(-2.15278 0.0155341 -1.13064e-18)
(-1.44351 0.00950689 -4.84915e-17)
(8.99353 0.491255 -2.987e-17)
(1.742 3.14811 -1.22718e-16)
(0.0412345 -3.21663 -9.7557e-17)
(-1.36626 4.61496 1.12069e-16)
(9.47791 0.398817 -2.28116e-20)
(10.8358 0.58526 5.96137e-18)
(-2.94755 -0.475987 -3.67398e-16)
(8.05316 0.273205 2.23467e-16)
(7.43512 -0.189834 -1.6658e-16)
(-2.02954 0.626455 -1.01739e-16)
(1.76371 0.187552 0)
(-0.592179 -0.21155 1.0638e-16)
(3.28407 7.00657 1.33395e-16)
(-0.431574 -2.68711 8.88847e-17)
(9.77618 -0.0140084 0)
(-3.18004 -1.00823 -1.20826e-16)
(9.69704 -0.00744865 0)
(5.55392 0.109613 1.24222e-16)
(0.444814 0.0603107 -7.93634e-17)
(0.668408 -0.532243 0)
(-1.85073 -0.763988 -6.47017e-17)
(-0.0774793 0.414957 1.33859e-16)
(-3.10436 0.0665806 -3.31365e-16)
(1.24323 3.66175 2.35159e-16)
(7.48709 1.10219 -5.47634e-17)
(9.11807 0.486688 1.53415e-16)
(9.54454 0.0926378 3.55089e-17)
(-2.98136 -0.0779532 -7.20957e-17)
(-2.3621 -0.698595 1.37155e-16)
(-0.829779 1.01496 8.40734e-17)
(-0.349382 -0.850952 -1.59287e-17)
(-2.18476 -1.44159 -1.14078e-16)
(8.20929 1.5916 0)
(-2.49091 -0.797001 6.47215e-17)
(0.00903949 0.712665 -3.40173e-16)
(-0.441516 6.25729 0)
(0.0840815 0.0418265 -8.36833e-16)
(0.348541 1.01572 0)
(-0.880145 -2.0609 -1.31173e-16)
(2.04775 5.7751 -1.53143e-16)
(10.6022 0.117522 0)
(10.0596 0.288888 -1.76923e-17)
(-2.20085 0.420087 0)
(6.11691 0.659261 0)
(-0.310608 0.330253 0)
(-0.630877 0.530639 1.75663e-16)
(10.7897 0.08244 0)
(1.30354 -0.419315 8.76717e-17)
(-1.55284 -0.191673 -9.52327e-17)
(0.754164 -3.16444 0)
(-2.74327 -0.652711 -2.43928e-16)
(1.75211 -2.17628 5.15118e-19)
(-1.14788 0.721469 2.39163e-16)
(-0.155753 2.73412 4.05764e-17)
(6.99557 2.09319 2.26495e-16)
(10.0176 0.14867 1.26133e-17)
(1.00776 -3.04931 -2.06551e-17)
(9.96442 0.0954142 -2.46299e-16)
(-3.01848 0.227885 -1.72709e-18)
(1.46552 -3.10838 1.41532e-16)
(0.692126 0.237337 -8.61785e-17)
(-2.59959 1.16282 4.60542e-17)
(0.206998 2.57144 -3.94248e-16)
(0.244488 1.74995 -9.36e-17)
(-0.0969535 0.901749 1.7976e-16)
(8.67089 0.533501 8.96035e-17)
(-0.192361 -3.04431 -4.42831e-17)
(-3.23118 -0.362145 1.31208e-16)
(-1.15329 0.989983 2.58753e-16)
(0.178994 1.34622 0)
(9.83613 0.0245918 0)
(-3.10499 0.348285 1.71426e-18)
(-0.0669746 1.6176 -1.71583e-19)
(1.70065 -1.35701 -2.23002e-19)
(10.3984 0.491888 3.204e-18)
(0.204738 1.39875 1.95535e-16)
(9.1417 0.463368 -4.29688e-16)
(-0.939703 0.598914 -1.78017e-16)
(9.93958 0.150213 -6.53322e-17)
(-1.95657 -1.45198 0)
(0.308854 2.80012 -9.13895e-20)
(-0.22772 1.90562 1.78914e-16)
(1.88464 0.0196114 7.31687e-17)
(10.0448 0.0583688 -1.02904e-16)
(5.24534 -0.0155962 7.16758e-17)
(7.37525 0.0523977 9.08363e-17)
(0.150694 3.03621 5.74262e-17)
(-0.641552 -2.63816 1.77117e-16)
(-1.49862 0.356707 -6.60694e-17)
(9.75019 0.76818 0)
(-0.851062 -2.23004 -1.29334e-16)
(0.648012 1.79974 0)
(0.338593 2.77224 0)
(-3.70127 0.128173 0)
(1.12466 -0.0674457 4.91924e-19)
(8.25965 0.554242 -6.1352e-17)
(-0.254799 0.47413 -1.47568e-16)
(9.95212 0.241042 -1.9709e-17)
(-0.472786 1.50676 -2.05579e-16)
(-2.56132 -0.84116 -4.89358e-16)
(9.13111 0.764653 -1.13701e-16)
(10.1388 0.164326 0)
(2.68076 0.488342 -7.31702e-17)
(7.77286 0.548143 1.61287e-17)
(2.44634 -2.58284 4.47238e-17)
(-1.72059 1.20979 6.677e-17)
(10.6632 0.422892 -7.14014e-17)
(-0.735205 0.262448 -1.37352e-16)
(4.66537 -0.133313 2.33968e-16)
(7.2938 0.253249 0)
(-1.62571 -1.69472 -1.34643e-16)
(0.138017 1.07036 -1.09705e-17)
(-1.96679 1.28572 -2.70116e-16)
(0.324956 -3.02736 0)
(-1.61517 0.253477 1.12044e-16)
(-3.29923 -0.562722 3.39619e-17)
(3.891 -0.0639808 -3.78873e-16)
(-0.252241 -0.91633 0)
(-0.316479 0.00255633 3.70478e-17)
(10.549 0.0540772 -7.42965e-18)
(9.12135 0.360603 -1.97276e-17)
(8.86415 0.174089 0)
(11.4014 0.280767 4.31385e-17)
(10.382 0.328807 3.3288e-17)
(5.03276 -0.0402385 0)
(0.017809 -2.96696 -9.92343e-17)
(9.43442 0.844424 -5.09818e-17)
(10.8896 0.0427304 7.73806e-17)
(9.9804 0.403445 -1.53314e-17)
(3.0677 0.00176508 -1.33605e-16)
(1.36356 -1.39496 8.11617e-17)
(-0.656405 -0.767178 1.55662e-16)
(2.70024 -2.12842 -2.80228e-17)
(10.1072 0.107928 8.50541e-17)
(-1.27441 -1.64973 -3.20725e-16)
(9.64677 0.866639 0)
(9.53232 1.04678 -9.48082e-17)
(-3.34813 0.367094 -6.14332e-20)
(0.195739 -3.18515 3.24939e-17)
(-2.36003 -0.997043 0)
(1.27683 0.926983 -3.63899e-17)
(0.339651 2.43524 -1.73555e-16)
(-0.763476 -0.558067 -1.87934e-16)
(0.0795379 2.53982 -9.57641e-17)
(9.88914 0.0934339 0)
(-2.99845 -0.246891 3.20732e-16)
(-1.24789 -2.05546 -1.26134e-16)
(9.89399 0.841076 -1.31851e-17)
(0.893245 0.245748 3.26508e-17)
(8.85644 0.525618 -1.10551e-16)
(11.0815 0.0459024 0)
(10.5334 0.0345459 1.40884e-17)
(-2.78701 -0.13798 0)
(-0.13096 0.214644 8.89598e-17)
(9.39777 0.584223 -1.74945e-17)
(-2.92654 -0.604136 2.52455e-16)
(9.55289 0.992216 9.70592e-17)
(9.76412 0.288714 4.04673e-17)
(0.364085 -0.0520719 1.24521e-16)
(8.96418 1.58365 0)
(-0.587113 -2.77036 2.52346e-16)
(11.266 0.11347 9.4445e-17)
(9.97542 0.998758 -1.31997e-17)
(9.90016 0.639076 1.00518e-16)
(-2.67157 4.58897 -1.30026e-16)
(-0.0808063 -3.15721 1.31454e-16)
(10.2908 0.103346 -2.49322e-20)
(-2.45572 -0.361206 -3.12882e-18)
(0.792035 0.664378 -1.43994e-16)
(-0.357562 2.11288 -2.88457e-16)
(10.0888 0.0392305 -6.2184e-17)
(0.165581 2.37912 -2.75226e-19)
(10.0974 0.385404 3.92274e-17)
(10.0464 0.0765748 0)
(7.53045 1.97602 -1.03551e-16)
(-0.561244 -2.02227 0)
(-0.185322 -1.721 0)
(0.399754 -2.2046 -1.48043e-16)
(2.83978 2.53997 -2.76012e-16)
(9.42133 0.935131 -2.66775e-17)
(4.17215 0.121081 -4.2746e-16)
(10.0649 0.0473052 3.41937e-17)
(-2.25589 2.33613 -2.92834e-16)
(0.133963 1.97111 7.66859e-16)
(9.80726 0.206356 2.43182e-17)
(1.19502 -3.06666 1.07733e-17)
(9.30826 0.235555 0)
(10.1529 0.0638243 7.71325e-18)
(9.96336 0.303312 6.10425e-17)
(8.39603 0.630591 1.31926e-17)
(9.8814 0.191274 2.33705e-17)
(-2.49669 -0.740087 0)
(0.562076 -0.192764 4.19296e-16)
(9.5384 0.95367 0)
(-2.02188 -0.803476 0)
(-0.567202 -0.533722 0)
(10.1294 0.230733 -6.10851e-17)
(9.90461 0.163467 0)
(0.245479 1.07645 1.4362e-16)
(11.1495 0.0277992 -1.24155e-16)
(3.12137 0.79733 -7.51459e-17)
(10.7311 0.348538 0)
(9.39674 0.891098 0)
(9.61323 0.862366 -7.05809e-17)
(-1.0629 -2.23009 0)
(10.6302 0.572497 0)
(8.11558 0.230782 -6.86012e-17)
(0.229522 2.30181 0)
(-2.38315 2.08094 3.30662e-16)
(10.6488 0.0800824 7.25961e-20)
(9.93997 0.442108 -1.83552e-16)
(9.82422 0.386111 8.44148e-17)
(9.8482 0.343753 4.74957e-17)
(10.516 0.226163 -2.55971e-17)
(-2.0618 -0.219526 1.727e-16)
(9.87501 0.105066 0)
(2.24895 0.181743 1.67862e-16)
(9.57927 0.18186 -3.10438e-17)
(9.48488 1.01629 8.03236e-17)
(-2.04421 0.775036 -2.58732e-16)
(1.20919 2.20052 -3.52036e-16)
(2.5713 -1.18204 -1.10902e-19)
(2.29494 -0.270005 9.01984e-20)
(10.5459 0.269283 -1.72899e-16)
(-0.14463 -0.973148 0)
(2.05256 -0.246468 0)
(10.1677 0.81168 0)
(10.1367 0.871483 -9.10684e-17)
(-1.56448 1.02599 0)
(-2.2093 -0.398981 1.33551e-16)
(6.47024 2.96722 2.04423e-17)
(1.46925 4.13121 -1.76969e-16)
(8.20346 0.04336 -4.33803e-17)
(-1.82495 -0.0477433 1.62013e-17)
(2.54485 0.147825 -5.52156e-20)
(8.34197 -0.00134997 5.87093e-20)
(8.29477 0.0123841 8.41788e-17)
(8.16613 0.0596705 8.33702e-17)
(1.39353 0.337489 2.5917e-17)
(0.295477 1.9178 3.64861e-16)
(-1.65264 -0.163695 -5.76363e-17)
(9.80892 0.283197 -7.41875e-17)
(10.735 0.484937 6.5649e-18)
(8.18448 0.00205612 -7.84707e-17)
(9.96998 0.812312 0)
(8.47177 2.47065 2.72652e-17)
(-2.92555 0.59624 -1.57772e-17)
(9.87232 0.941908 0)
(9.30864 0.670664 2.93e-16)
(10.2746 0.757571 2.66327e-17)
(10.3177 0.66498 0)
(8.12533 0.0670784 -5.15143e-17)
(10.0566 0.580548 9.21455e-19)
(-2.28785 -1.14229 -8.28556e-17)
(-1.55659 -0.433514 -1.29196e-19)
(-2.08281 0.0554545 -3.10094e-17)
(-2.53822 -0.7424 2.11075e-16)
(-0.997284 2.09866 0)
(2.28049 0.238145 -3.43938e-17)
(-0.595774 -0.507218 0)
(-1.88474 -1.23037 2.21327e-16)
(8.2556 -0.0132306 -4.27716e-17)
(-3.23374 3.23742 5.60947e-17)
(0.187524 2.36376 9.2768e-17)
(9.25477 1.0731 4.99559e-17)
(10.3628 0.748086 1.9873e-19)
(9.69137 0.171838 6.47858e-17)
(11.176 0.433165 1.47964e-16)
(9.61352 0.010837 -5.8054e-17)
(9.47437 0.939134 0)
(-2.93224 -0.440899 0)
(10.1028 0.939366 -4.25274e-17)
(9.5259 1.25014 4.58156e-18)
(-0.801872 2.04394 0)
(9.18374 1.87901 1.46331e-18)
(2.33245 0.076172 -1.53929e-16)
(9.57098 1.03873 2.73523e-17)
(9.69106 0.33798 2.77095e-17)
(9.45726 0.755604 7.05334e-17)
(2.89908 -2.58852 0)
(8.16016 0.136435 0)
(-0.876907 -1.34666 -2.00244e-16)
(1.91208 0.0371309 1.3383e-16)
(9.94716 0.120679 7.85888e-17)
(8.25294 0.0261125 -8.50773e-17)
(8.30321 0.00423211 -8.19221e-17)
(0.50348 -0.244422 1.92357e-16)
(9.69701 0.233414 -1.29568e-17)
(10.821 0.205544 5.22832e-17)
(0.127673 -0.101385 -1.64255e-17)
(-0.200069 0.379152 -1.89863e-17)
(-0.0938563 0.18963 -2.98395e-19)
(1.67583 -0.0396361 -1.54384e-16)
(-1.84262 -0.959475 -5.71172e-17)
(1.86909 0.215423 -7.16113e-17)
(9.84962 0.290976 -4.4518e-17)
(-0.972395 1.77777 -1.3481e-16)
(1.66464 0.119377 -2.46176e-16)
(-0.394032 1.44403 2.28242e-16)
(0.0812189 -1.01833 1.01305e-19)
(1.67343 0.198642 1.5266e-20)
(-3.0339 0.816671 -1.35573e-16)
(-1.37118 1.56311 -7.15497e-17)
(9.87483 0.0711808 1.68357e-16)
(-1.45871 1.069 -6.90282e-17)
(8.17526 0.449843 0)
(9.799 0.168264 -6.51574e-17)
(-0.586906 -0.583431 -8.9528e-17)
(3.24286 -0.898694 0)
(2.81444 0.325511 0)
(-2.84918 -0.382591 1.52866e-16)
(10.3133 0.111427 0)
(-2.0951 0.904805 -1.31555e-16)
(-2.98166 -0.104154 -4.78339e-17)
(-0.0112989 0.888231 0)
(-2.81353 0.118987 -1.42506e-17)
(0.988207 -0.357815 1.49835e-16)
(0.180292 -1.74432 0)
(9.8566 0.0870951 -7.59113e-17)
(-1.83504 1.50764 7.27336e-17)
(10.0677 0.210939 3.2074e-17)
(6.37958 3.17058 -2.53599e-16)
(-1.13213 0.191126 1.55025e-16)
(10.5282 0.236602 1.39449e-17)
(0.215933 -0.171964 1.7094e-16)
(-0.127873 -0.0423264 -8.99282e-17)
(0.286088 -0.0614034 -8.11814e-17)
(0.639121 0.0120821 -1.21046e-16)
(-0.623583 0.0248246 -4.14768e-16)
(-0.665502 -0.157113 0)
(-2.80411 0.171362 -1.19092e-16)
(-0.528005 0.524921 0)
(0.619239 0.0285488 0)
(-0.78527 -0.00760421 0)
(-1.09041 0.31837 -3.13551e-16)
(-3.33936 0.118057 0)
(1.92953 0.114857 3.81503e-16)
(-1.82665 -0.195387 -1.60402e-17)
(0.140073 0.546536 1.28222e-16)
(-2.53323 0.16004 1.90062e-18)
(-0.333887 -0.0317878 -9.21349e-17)
(-0.0224521 -0.06404 2.8738e-16)
(0.398339 -0.116674 -1.64491e-16)
(-2.03569 0.045374 0)
(1.14152 0.487126 0)
(-0.490285 -0.259585 -2.28545e-17)
(-0.21089 -0.241542 0)
(1.85769 -0.11967 4.68278e-16)
(2.77093 0.219146 9.66206e-17)
(-0.752785 1.50178 -1.28679e-16)
(10.0651 0.986101 4.94285e-17)
(-2.74324 -0.611085 0)
(-0.709968 -1.63426 1.76564e-16)
(-0.388265 -0.65342 9.2402e-17)
(9.83198 0.276768 3.00886e-17)
(10.0043 0.0312359 7.88238e-17)
(-3.35511 0.10556 4.28287e-16)
(-0.592828 0.0475034 2.65292e-17)
(0.532813 -0.0621185 3.84104e-17)
(0.139271 -0.0877807 -2.65128e-16)
(-0.707625 -0.0504711 0)
(0.676372 0.620946 1.25407e-16)
(-2.27803 0.117303 0)
(1.51965 0.361314 0)
(-0.893472 0.451739 1.58305e-16)
(-3.06918 0.167592 1.0994e-16)
(-0.226741 -0.0379352 1.72138e-16)
(0.0105263 -0.214486 0)
(5.28421 4.86162 1.66193e-16)
(9.85579 0.965189 -2.67105e-17)
(9.98769 0.000363562 0)
(-1.04504 1.15195 4.34079e-19)
(-0.923743 0.250958 -1.56961e-16)
(0.354743 0.419191 -1.74565e-16)
(9.96516 0.186682 0)
(-2.03785 0.838396 0)
(10.4677 0.0716731 0)
(2.20015 0.0720946 -4.6683e-17)
(-0.625518 -0.609136 1.59869e-16)
(10.027 0.204058 2.64712e-17)
(-2.7849 0.195453 2.5392e-17)
(-0.790571 -0.533573 1.0331e-17)
(10.0537 0.783629 0)
(2.03974 0.208586 9.44204e-17)
(8.98995 0.014131 1.56007e-16)
(0.307504 -0.568812 -3.04839e-17)
(-0.351066 -0.495242 -1.27638e-16)
(9.7454 0.077625 6.18878e-17)
(-0.22045 -0.893795 0)
(-1.44747 -0.0492879 -7.69159e-21)
(4.29215 7.09172 -3.6753e-16)
(9.01436 0.229867 -2.08267e-17)
(1.8171 4.51991 6.27205e-17)
(0.345484 -0.50329 -1.58746e-16)
(-2.84348 0.656553 2.43768e-16)
(3.54724 0.742389 -1.59169e-17)
(0.537128 0.148415 3.72331e-19)
(1.73675 0.202595 4.14111e-17)
(-2.2124 -0.367999 1.29017e-16)
(-1.04508 0.497204 6.02638e-17)
(2.66401 -0.0107195 -2.11137e-16)
(-2.10294 -0.719249 0)
(0.800396 -0.410258 1.58087e-16)
(2.96911 0.0295184 3.88681e-17)
(-1.17643 1.14476 9.55442e-18)
(1.82208 0.401063 -9.54029e-17)
(2.68633 0.227751 -2.92864e-16)
(5.1391 1.79354 0)
(2.13695 0.020243 -1.69044e-16)
(-0.331327 -0.349822 0)
(-2.38588 0.672313 2.01795e-16)
(2.34914 0.285837 -7.76365e-18)
(1.99768 -0.0601148 0)
(-2.31552 -0.0284368 -2.02917e-16)
(-1.07274 0.80365 2.25238e-18)
(2.06602 -0.0992388 5.27546e-16)
(-1.14692 -1.17867 1.59737e-16)
(-2.66161 -2.01437 -4.05513e-18)
(0.362256 -0.966425 -5.35691e-17)
(-1.73181 0.416789 0)
(-1.02805 0.250803 4.62034e-17)
(0.273548 -0.141725 0)
(-2.67891 0.329644 8.27097e-18)
(-2.70339 0.54104 -4.33181e-18)
(1.05889 -0.401393 -1.10763e-16)
(0.222731 -1.98538 0)
(-2.18601 1.05825 1.1746e-16)
(-2.67849 0.69956 -7.96351e-17)
(-0.690461 0.527362 4.54144e-16)
(-2.70004 0.539189 -1.30606e-16)
(-1.88745 0.715551 -1.43879e-16)
(-1.51584 -0.132801 8.10225e-17)
(-2.2932 0.952322 -2.13804e-16)
(-1.18718 0.664909 -3.29301e-16)
(-0.487463 0.462458 -8.36208e-18)
(-1.84001 0.864942 0)
(2.50946 0.351394 0)
(6.07433 3.59721 1.81704e-16)
(-0.244304 0.722957 0)
(-2.59328 -0.924544 0)
(-2.41216 -0.000787793 -1.86685e-16)
(2.74177 0.405101 1.60056e-16)
(2.86117 0.365584 -3.38065e-16)
(0.0507527 -0.695856 -1.68215e-16)
(5.85643 5.4987 7.43336e-17)
(-2.56005 -0.492871 -1.8534e-16)
(3.43227 0.664785 -3.87122e-16)
(4.78571 6.29958 1.43548e-16)
(-2.84452 0.48531 0)
(8.19401 0.0914841 -1.45962e-17)
(1.11918 7.04049 -5.50259e-17)
(-2.1026 -0.281991 2.54228e-16)
(3.62795 0.465117 -1.28269e-16)
(4.28106 4.95618 -2.90604e-16)
(3.39479 4.65971 2.92143e-16)
(1.32733 1.38952 2.232e-16)
(-0.445846 -1.30733 0)
(-1.26423 -0.506498 -4.6371e-17)
(-2.87136 0.471189 0)
(0.742917 8.50394 -4.37947e-17)
(9.98943 0.326936 -1.75363e-17)
(8.86375 0.148041 -3.0457e-17)
(-2.82746 -0.673096 -1.47302e-16)
(-2.38808 0.115145 -1.17326e-16)
(-0.54515 0.550981 1.58156e-16)
(-0.564084 0.373426 -1.23524e-16)
(0.462856 -1.89454 0)
(0.492654 -1.17141 -1.04052e-17)
(-0.330008 0.423089 0)
(3.73943 0.520518 1.58876e-17)
(2.81048 2.67898 7.57369e-17)
(-0.493206 -0.0717466 0)
(-2.90744 0.417409 0)
(0.0871349 2.47644 0)
(-0.236053 -0.467604 4.03536e-17)
(9.93269 0.150097 -1.30645e-17)
(0.684455 -0.532407 0)
(-1.86876 0.0406497 -1.18504e-18)
(0.160517 1.85683 2.02332e-17)
(-0.109602 1.22295 6.43921e-20)
(2.58888 0.574259 0)
(2.8075 0.338369 1.78373e-16)
(0.445347 -1.78763 0)
(3.84875 0.367116 -1.78676e-19)
(-0.339699 0.380349 -8.88627e-17)
(-0.472918 0.339205 -4.77775e-17)
(0.584859 -0.485523 -1.01384e-16)
(0.478039 0.444278 0)
(0.888302 -1.49624 2.84508e-17)
(9.74071 1.10159 0)
(-0.568094 -0.353251 3.80647e-17)
(10.5311 0.116246 -9.06218e-17)
(-0.349684 0.498318 0)
(1.94791 2.02009 -5.06859e-16)
(0.177428 2.22338 9.98618e-18)
(-0.828888 0.0598802 4.75102e-17)
(1.96192 0.111946 0)
(-0.182298 -1.56062 2.39566e-19)
(1.44301 -0.551135 -1.04039e-16)
(-0.156224 -1.05729 5.70048e-17)
(0.315206 -0.395818 -1.74597e-16)
(-2.41517 0.329497 8.54276e-19)
(-1.70939 0.203317 0)
(-0.386755 -0.305336 1.6236e-16)
(-0.56879 0.303029 0)
(1.22039 -1.10391 3.42472e-17)
(-0.124894 0.127895 -1.09954e-16)
(8.82211 0.17511 4.19809e-17)
(8.127 0.148541 -1.21215e-16)
(1.83126 -0.261843 4.60855e-17)
(0.583165 -1.1564 -1.40569e-17)
(-0.494331 0.483652 2.46985e-17)
(-0.982839 0.173451 -4.42798e-17)
(0.65956 1.64136 3.53147e-17)
(0.806538 0.0886885 0)
(-2.72448 0.3379 3.04852e-16)
(2.62669 3.40979 0)
(2.42695 0.818584 -1.12248e-16)
(0.635584 1.17744 1.98748e-16)
(-0.150597 -0.55937 1.6488e-16)
(-2.79739 -0.565859 0)
(-0.463312 0.0671944 4.46504e-17)
(-0.25893 0.233136 7.60509e-17)
(-0.0847253 0.698599 2.63474e-17)
(9.81927 0.0903434 0)
(-0.398798 0.523305 0)
(3.92186 0.257449 -1.59739e-19)
(1.47047 -0.542562 -4.05034e-17)
(0.146844 -0.139014 2.24808e-16)
(8.20029 -0.053213 4.12603e-17)
(-1.04733 0.356385 8.47907e-17)
(2.92842 0.434167 2.56988e-17)
(-0.804573 -0.516138 -5.14422e-17)
(1.13228 1.86162 -6.77055e-17)
(-0.0305655 -0.612541 -1.72296e-16)
(8.10495 -0.0493794 -4.71707e-19)
(9.35952 1.09157 4.46194e-17)
(-2.90867 0.542257 -2.73482e-16)
(2.46725 0.165632 0)
(0.883114 2.1085 0)
(1.28777 1.09953 9.3834e-16)
(-2.09057 0.676734 -1.04996e-16)
(0.470828 0.0385131 -5.30103e-16)
(-2.63048 0.0880141 0)
(9.72748 0.85666 1.26e-16)
(0.561955 0.538038 0)
(2.5988 0.482032 1.19402e-16)
(-0.38464 -0.148239 -5.84136e-16)
(-1.82838 0.775856 1.9159e-16)
(1.46673 1.83715 0)
(-0.928445 0.524915 1.1687e-17)
(2.27917 3.68808 0)
(-1.38508 -1.06799 1.97347e-16)
(-2.55084 -0.158219 1.07378e-16)
(-2.86851 -0.522535 8.77823e-17)
(2.78367 0.182518 -1.0734e-16)
(8.80957 2.16623 -2.83547e-17)
(-2.9267 0.323788 -3.4236e-18)
(9.81983 0.0721524 2.13495e-16)
(-0.743072 -0.516244 0)
(2.30116 0.289607 -2.044e-18)
(0.836017 0.0426438 -2.38431e-17)
(1.65848 0.0242415 0)
(-0.357973 -0.365756 3.14605e-16)
(9.95051 0.902797 0)
(-2.97583 0.0706943 3.55801e-18)
(10.8251 0.398868 -3.16521e-18)
(-2.61023 -0.731419 0)
(-0.701954 0.256932 -1.24415e-16)
(10.0003 0.0674367 -1.07385e-16)
(9.89259 1.12933 0)
(9.76424 1.4012 -5.01505e-18)
(2.15633 0.111227 0)
(-0.25991 -0.305254 -9.30608e-17)
(-1.27077 -0.265338 -1.55105e-17)
(9.77698 0.77308 6.86829e-18)
(-0.629825 0.232642 -1.86716e-16)
(-0.442986 -0.499467 -2.03366e-16)
(0.220248 -0.220822 -4.17638e-16)
(4.06956 0.126726 -2.90952e-17)
(0.856121 0.666033 -5.27259e-18)
(0.804033 1.18478 5.64445e-19)
(-1.27534 0.732675 -9.72611e-17)
(0.453003 -3.1982 0)
(4.09409 -0.142584 6.21696e-20)
(-0.612007 0.17373 7.03626e-17)
(5.57472 1.14439 -4.39583e-17)
(6.82426 2.14443 6.17421e-18)
(-2.77467 0.518072 -1.36126e-16)
(0.472118 0.137921 0)
(-1.6347 1.22428 -1.40013e-16)
(6.19858 1.59555 0)
(9.82626 0.671462 -1.27301e-17)
(0.0428628 2.54888 0)
(-0.408931 -0.89753 6.07779e-17)
(-0.17694 1.65907 -9.99092e-17)
(-0.818008 0.650826 1.7361e-19)
(3.38047 -0.218263 7.45653e-17)
(1.17252 0.119787 0)
(-3.27726 0.194765 2.08678e-16)
(4.41221 -1.11699 -4.09766e-17)
(-1.00175 -0.854736 -1.84614e-20)
(6.92791 1.53544 -5.88351e-17)
(3.37081 -0.466073 6.19125e-17)
(-0.370768 -0.291479 9.22423e-17)
(-2.40511 0.388635 -1.27786e-17)
(9.8243 0.0489267 0)
(-1.80699 0.562454 5.1751e-17)
(-2.82614 0.28862 -6.77143e-17)
(-3.35 -0.195688 -9.24629e-17)
(9.82886 0.0425345 -4.46226e-17)
(1.76811 0.17987 6.09397e-17)
(-0.991223 0.545996 4.13832e-17)
(4.23454 -0.212507 -5.50768e-17)
(9.1847 1.10621 3.56462e-17)
(8.93758 1.52411 2.01043e-17)
(-2.51032 0.187786 1.67316e-16)
(1.69735 0.563688 -1.66832e-17)
(0.0767165 -1.09294 0)
(9.83915 0.0547343 1.76525e-16)
(-2.76293 0.651774 3.15652e-16)
(-0.921667 -1.13741 -1.64945e-17)
(1.38645 1.5108 0)
(2.22051 0.527848 2.738e-17)
(-1.39611 0.728391 -9.15498e-17)
(-2.29581 -0.538255 7.01995e-17)
(-2.23297 0.28926 2.30076e-16)
(-1.52057 -0.169733 0)
(1.17004 0.10952 2.48667e-17)
(9.52161 1.65558 4.19947e-17)
(8.6737 0.923514 0)
(-2.2272 0.643922 1.03653e-16)
(-1.74053 0.508392 -6.77314e-17)
(9.81645 0.0657683 7.93455e-17)
(9.92164 0.154254 -2.18542e-17)
(-2.10048 -0.101928 -2.25536e-16)
(-2.35241 0.692314 -3.52221e-16)
(2.38205 0.574225 1.56864e-17)
(-0.223387 0.0461138 1.04059e-16)
(-2.48724 -0.0744952 -2.43954e-16)
(-2.96017 -0.22971 -6.18409e-19)
(9.82018 0.126496 0)
(-0.826112 0.126525 1.59906e-16)
(10.0117 0.0685285 3.78523e-17)
(-0.340544 0.0459979 -7.60409e-17)
(-1.59108 0.720897 1.47474e-16)
(0.0142606 0.0458021 -5.29001e-17)
(-0.421286 -0.135467 -9.14489e-17)
(9.84142 0.0823332 -2.48411e-17)
(-2.92919 0.07505 -1.20337e-16)
(2.03273 0.805302 -2.10382e-17)
(8.76102 0.257411 0)
(8.88011 0.666152 7.6517e-17)
(-0.645474 -0.124538 7.26632e-17)
(-2.60685 -0.722269 1.62896e-16)
(3.56653 -1.03917 0)
(8.93541 1.83868 -3.04185e-17)
(0.689528 -0.0152533 -1.65939e-16)
(0.109881 0.0669183 1.83822e-18)
(1.71971 0.521516 -2.75102e-17)
(-1.35079 0.0265084 1.80864e-17)
(-2.41501 -0.707693 -1.58864e-16)
(3.14134 -0.0586065 -3.04185e-20)
(-2.49937 -0.614451 3.33177e-16)
(1.86352 1.33071 -3.35566e-17)
(-0.211007 -0.498972 0)
(0.254159 0.238262 1.68969e-16)
(7.5613 0.132759 2.09533e-17)
(2.20927 1.00665 0)
(2.10317 0.961333 -1.51805e-17)
(-1.67184 -0.962189 -5.5737e-17)
(-2.63686 0.232534 1.01379e-16)
(4.28779 -0.591519 -2.63965e-17)
(-0.405446 -0.0288248 -7.7384e-17)
(-0.257431 -0.211608 3.27947e-16)
(9.83339 0.107575 0)
(9.0809 1.13477 -5.77032e-17)
(1.5916 1.07124 0)
(4.26339 -0.614241 1.0137e-16)
(9.46405 0.934782 -6.35797e-17)
(4.12489 -0.921578 4.90382e-17)
(0.0625307 0.908888 2.76992e-16)
(4.94564 2.716 9.26258e-17)
(8.84741 1.20755 -3.16678e-19)
(-2.61894 0.864145 -1.75263e-16)
(10.0072 0.0768493 -1.10233e-17)
(5.91912 0.321912 2.28422e-16)
(-2.86915 -0.477584 1.91909e-16)
(-0.178215 -0.295604 4.45238e-18)
(3.2591 0.00421915 -7.53071e-17)
(-1.24663 0.272953 -4.42338e-17)
(-0.939993 1.59521 -8.2242e-17)
(8.12856 0.29818 4.87447e-21)
(0.71189 -0.361338 2.97245e-16)
(-0.479183 2.33638 -1.21329e-16)
(8.9482 1.12883 -8.65022e-19)
(-2.80001 -0.362454 6.3872e-17)
(8.50488 0.330428 0)
(9.59886 0.10538 2.16136e-17)
(9.8302 0.0940154 1.2123e-17)
(0.667701 1.59565 2.14329e-16)
(1.6266 -0.52568 -3.73243e-16)
(7.70534 0.294888 -2.25755e-17)
(-2.45736 0.276868 0)
(-2.36636 1.29826 1.02633e-16)
(2.30979 0.151824 -2.46049e-16)
(-2.24773 -0.531896 0)
(-0.500164 1.25118 0)
(-3.38606 -0.109731 1.04842e-16)
(2.80344 0.161565 2.29825e-16)
(3.19415 0.189174 0)
(1.00649 1.37573 -2.80604e-16)
(9.55735 0.836121 -6.88529e-18)
(-1.5777 -0.598257 1.36144e-16)
(-0.423784 -1.35155 1.09473e-16)
(-2.83798 0.697368 0)
(-1.97392 -0.277987 -2.4879e-16)
(2.12939 1.14115 1.28465e-16)
(-2.69287 0.756594 1.21809e-16)
(6.18261 -0.286429 0)
(-3.91427 -0.36448 0)
(5.35764 0.0945288 0)
(8.93 0.352456 7.57257e-18)
(9.26847 1.44549 1.04302e-17)
(10.5096 0.659435 -1.29894e-17)
(9.54077 0.83399 6.97359e-17)
(2.10773 -1.48774 1.56829e-16)
(-2.63987 0.363703 5.00285e-17)
(9.10586 1.22158 -1.2744e-16)
(3.61328 0.192493 0)
(4.33242 0.158706 4.63066e-17)
(-2.49511 -0.469432 0)
(-0.808678 0.174977 -1.07165e-16)
(9.94603 0.0342495 5.74053e-18)
(10.9659 0.0475432 0)
(9.52593 0.111129 5.19464e-18)
(7.21716 0.509163 -1.54299e-16)
(-0.693434 -0.274662 -3.7133e-16)
(7.00088 0.707935 1.19045e-16)
(4.42862 4.13802 0)
(2.85597 4.86072 1.72032e-18)
(9.63577 0.00918406 9.87916e-17)
(-2.39001 0.284989 -1.78083e-16)
(0.477995 0.0482055 -6.62264e-18)
(2.21058 6.22895 -3.55797e-17)
(5.51549 0.156176 6.5593e-19)
(4.00531 0.181651 7.48696e-19)
(-1.92663 -0.76026 -9.67722e-19)
(1.44944 1.60446 0)
(-0.240917 -0.20984 1.74071e-16)
(2.16135 -0.22591 1.31894e-16)
(-0.0239598 0.0294218 -1.76834e-16)
(5.1099 0.0853345 0)
(-0.0779662 0.363512 8.85377e-17)
(0.510232 1.14826 3.35516e-17)
(-2.69186 0.243979 -1.23872e-16)
(3.59688 -1.49342 -1.23977e-17)
(2.46171 -3.14538 -7.49466e-17)
(-0.262082 0.102604 6.25253e-17)
(4.61535 0.130212 -4.805e-17)
(-1.0319 -0.414372 0)
(0.377948 0.0432237 1.8582e-16)
(2.61312 1.05546 -4.1207e-16)
(-0.148236 -0.217394 -1.00678e-16)
(2.08788 -0.112689 -1.15018e-16)
(-0.805264 0.273915 5.87711e-20)
(6.52207 0.437318 -1.0859e-18)
(-2.50983 -0.820802 1.17724e-16)
(9.62769 0.748698 0)
(1.90515 0.0303505 0)
(3.4576 1.60574 -9.31295e-17)
(9.99384 -0.0120512 2.73264e-18)
(9.87483 0.204203 0)
(-0.351291 -0.191627 -8.909e-17)
(2.16491 -0.358734 0)
(1.10915 1.13598 -1.52549e-16)
(9.90205 0.100937 2.42858e-17)
(-2.75405 0.167294 1.84373e-16)
(1.80383 1.44352 0)
(8.81729 1.07645 2.72727e-17)
(3.19801 -0.66703 -8.25896e-17)
(-0.497128 -0.0281801 8.51986e-17)
(1.11156 0.132091 -1.90666e-16)
(2.14306 7.0256 9.83737e-17)
(-3.29501 0.436649 -2.64745e-17)
(-1.99282 0.318547 4.59844e-16)
(-0.476958 2.56709 0)
(9.73159 0.137392 -8.14489e-17)
(9.87278 0.0685741 -2.63356e-18)
(-2.2573 0.517559 -9.80633e-17)
(-0.391155 0.0714733 9.78111e-17)
(2.40812 -1.78681 -1.18581e-16)
(6.18077 0.0464632 3.17218e-17)
(5.69297 0.217713 -4.38589e-17)
(4.65491 -0.293893 -1.97813e-16)
(5.25493 0.172456 0)
(5.62617 0.0567805 -1.45895e-16)
(7.26812 -0.0465999 0)
(6.12695 -0.0794156 3.63911e-17)
(4.87006 0.103316 5.5335e-18)
(0.1232 -0.143921 -8.15843e-16)
(0.617964 0.0194501 -4.11309e-16)
(11.1168 0.435741 5.02717e-17)
(1.42021 -3.22536 -1.97521e-17)
(1.57408 1.64579 1.79755e-17)
(2.55283 -0.729575 4.33454e-16)
(-0.41161 0.0077835 1.81377e-19)
(-0.566037 -0.284608 0)
(-0.00616842 -0.167176 -2.16422e-16)
(1.02814 -0.138536 -3.65129e-17)
(-0.370414 0.0148177 0)
(-0.18258 -0.0158166 3.17249e-16)
(9.02391 0.525307 2.93151e-16)
(-2.93929 -0.049739 -1.74586e-16)
(8.34386 -0.0261344 3.99048e-17)
(2.59169 0.0101727 -5.4112e-17)
(-2.86323 -0.0527468 -1.04526e-16)
(9.7004 0.65591 0)
(8.67825 0.811335 -3.92423e-17)
(10.3899 0.414999 0)
(5.94288 0.116973 0)
(3.09842 5.59862 7.83577e-18)
(8.72175 0.971686 9.91713e-20)
(3.0777 0.168192 3.07751e-17)
(2.2044 -0.0349737 -3.33489e-16)
(0.927227 0.0544068 3.09747e-16)
(9.75811 0.0193584 1.04666e-17)
(0.191732 -0.364002 1.33651e-16)
(2.73517 -0.0781598 2.10272e-16)
(2.81022 0.0539146 1.19009e-16)
(0.384957 -0.0301559 -3.52354e-16)
(3.23769 4.66323 3.47896e-17)
(-0.743761 -0.71684 1.94736e-16)
(-2.45326 -0.643355 -5.05793e-17)
(-1.11759 0.457774 0)
(9.895 0.193633 0)
(9.59155 0.0223061 5.69422e-17)
(9.81014 0.0515796 -8.34201e-17)
(-2.13655 -0.80726 -1.6397e-16)
(2.88915 -0.337717 -2.94741e-17)
(-2.30367 0.386657 2.76312e-17)
(1.49409 0.0968786 0)
(-0.813188 2.12249 0)
(9.97459 0.227814 6.23338e-17)
(8.60754 1.63141 0)
(-0.417669 -0.0465465 -8.66065e-17)
(0.432952 -0.171882 -2.63961e-16)
(8.65555 0.37504 1.5425e-17)
(1.85534 6.87414 0)
(-3.64687 -0.204447 1.81454e-16)
(2.18804 -0.0763148 0)
(0.0619321 -0.24673 2.01874e-16)
(8.74434 2.05 -9.73414e-17)
(-0.595057 -0.504688 0)
(-2.41448 -0.983238 -1.0674e-16)
(-2.33394 -0.395423 -6.40484e-17)
(9.8094 0.0556987 -7.49211e-17)
(0.125883 0.776097 1.68503e-16)
(2.29332 -0.69553 0)
(-1.49909 0.337895 7.01471e-17)
(0.499418 -0.225823 -8.79612e-17)
(10.5511 0.0843397 0)
(-1.15985 0.789164 0)
(-0.827334 -0.273188 2.12601e-16)
(3.02656 2.30245 -8.71565e-17)
(4.82155 2.60747 0)
(7.10118 0.0750816 1.71908e-16)
(9.43092 0.123716 0)
(0.499659 1.9428 -2.00308e-17)
(-2.13326 -0.124718 -1.18941e-16)
(9.76275 0.116263 6.13247e-17)
(-0.672343 -2.60692 -1.37125e-16)
(6.39251 2.70554 -2.14742e-16)
(-0.0578875 -0.253104 -1.31587e-16)
(1.95787 -0.0326131 0)
(-2.83174 -0.529703 -1.87925e-16)
(3.58511 -2.30717 2.04857e-17)
(-2.90528 -0.204365 0)
(-2.91849 -0.00056124 -1.51262e-17)
(-0.708854 0.472472 2.28941e-16)
(-0.436579 0.358004 8.26273e-17)
(1.9023 0.0589314 0)
(2.16179 -0.00790507 2.9236e-19)
(11.2335 0.170389 -4.68801e-17)
(-1.386 -1.60095 2.87349e-17)
(0.0830232 -0.438537 5.97719e-16)
(0.405926 -0.0215056 1.07728e-16)
(-3.3714 -0.0618015 2.21361e-16)
(9.82338 0.0745387 5.83469e-17)
(0.110161 2.438 0)
(-2.84853 0.253516 1.78998e-18)
(-1.48706 0.835253 -2.09714e-16)
(0.719547 -0.296012 -3.08806e-16)
(-0.67485 -0.512879 -9.03093e-17)
(9.56858 0.0380485 9.18999e-20)
(1.68335 -0.394169 0)
(3.42399 -1.63576 3.50259e-18)
(-2.9164 -0.33715 -8.72042e-17)
(9.98711 0.207574 2.75501e-17)
(-1.30201 -0.0370166 2.01565e-16)
(9.81268 0.0319863 6.52276e-22)
(9.81773 0.121008 0)
(7.90241 0.0941685 4.71842e-17)
(2.87993 -0.869592 0)
(5.85441 -0.0454414 -1.94659e-16)
(-1.40769 -0.802561 -2.19142e-16)
(2.27846 0.0662933 0)
(-0.314965 1.98386 -7.52392e-17)
(8.63066 1.28827 -1.92525e-17)
(-0.283392 -2.92149 7.5584e-17)
(0.401592 -1.70624 -8.26378e-18)
(0.200533 -2.7748 0)
(0.320128 -2.31883 7.45323e-18)
(0.385454 -1.0027 2.09773e-17)
(0.0821628 -3.04876 2.73471e-17)
(-0.00413231 -3.13205 -5.61663e-17)
(-0.230854 -0.185005 2.00508e-16)
(-0.578369 0.0114493 0)
(-0.870325 -0.125427 3.16131e-16)
(9.786 0.0677125 1.0731e-17)
(-0.0577164 -3.08944 1.02704e-20)
(-1.05557 1.50199 0)
(0.0669174 -0.321029 7.43571e-17)
(0.259593 -2.69296 1.38273e-18)
(0.0170866 2.99039 -1.47939e-16)
(-3.15487 0.436591 -3.31714e-18)
(-0.409189 -1.22256 -1.70142e-16)
(0.00146033 -0.211504 -1.33224e-16)
(0.142282 1.7283 -1.05705e-16)
(0.384584 1.03717 6.95757e-17)
(-2.92399 0.384639 2.61007e-16)
(2.31856 1.69296 0)
(2.69677 0.118491 -1.39226e-16)
(-0.107542 -3.00528 -8.18878e-18)
(-2.83442 0.459425 2.74721e-17)
(-2.89382 0.297611 -9.32124e-17)
(-2.20918 0.376034 -3.20031e-17)
(-2.4496 0.310106 1.49764e-16)
(-2.36012 0.990318 6.70014e-17)
(2.24474 0.723854 1.02019e-16)
(-3.08629 0.357659 1.69201e-18)
(0.678858 -0.0353739 -2.3994e-17)
(-0.320812 -1.72839 1.53707e-16)
(-0.171505 -2.85251 -1.66256e-17)
(-1.57063 0.36321 -6.46272e-17)
(0.0735353 2.59354 0)
(-0.19598 -0.232063 3.83779e-17)
(-2.85322 0.641628 1.56725e-16)
(-1.7989 1.08151 9.44752e-17)
(1.0629 -0.0497695 3.52678e-19)