/*--------------------------------*- C++ -*----------------------------------*\
| =========                 |                                                 |
| \\      /  F ield         | OpenFOAM: The Open Source CFD Toolbox           |
|  \\    /   O peration     | Version:  v1912                                 |
|   \\  /    A nd           | Website:  www.openfoam.com                      |
|    \\/     M anipulation  |                                                 |
\*---------------------------------------------------------------------------*/
FoamFile
{
    version     2.0;
    format      ascii;
    class       volScalarField;
    location    "0.49";
    object      k;
}
// * * * * * * * * * * * * * * * * * * * * * * * * * * * * * * * * * * * * * //

dimensions      [0 2 -2 0 0 0 0];


internalField   nonuniform List<scalar> 
5794
(
0.119255
0.0610347
0.224207
2.79362
2.87491
0.0977985
0.571559
0.177954
1.51258
0.390657
0.887626
0.226953
0.538183
1.69695
0.106584
0.0562501
5.45548
1.94262
0.100604
0.0851971
1.10086
0.0852574
0.70888
0.115745
0.813535
1.72301
6.25809
1.27317
2.00145
0.0771399
0.40369
0.20239
0.753397
0.185586
0.860215
0.904072
0.196679
0.888839
1.04785
1.93168
1.57118
0.170785
0.276721
0.183046
0.129964
1.0405
0.431205
0.271858
0.276892
0.282828
0.0218754
1.37622
0.213481
0.354428
0.0211493
0.99606
0.278312
0.390222
0.221268
2.6701
0.953015
0.0596932
0.397879
0.33007
1.25954
0.0777032
1.49849
0.448686
1.92068
0.0874225
2.30503
1.65821
7.46546
0.2562
1.91222
0.628923
0.201522
1.39471
0.118728
0.0666153
0.117933
0.107781
1.12376
0.818685
0.483346
0.873542
0.67552
1.02416
0.111423
0.925002
2.41781
0.913061
1.53009
2.39465
1.09476
2.36318
1.85249
1.36063
0.84381
1.045
0.931739
0.134549
0.250092
1.89134
0.523508
3.39076
0.0591158
0.668516
1.55319
0.0853428
0.271764
0.199001
0.980505
0.12602
0.956348
1.8347
0.101622
2.59841
0.870668
0.494856
3.14034
0.0707917
0.318584
1.01649
0.188921
1.41041
1.56725
0.080897
1.57789
0.684158
0.25661
0.667695
0.917544
1.2777
3.62455
0.112907
2.02514
0.059745
0.0664212
0.326652
0.243629
1.44029
0.234627
1.50696
0.0994932
6.84
1.29335
0.958578
2.8478
0.720982
0.311584
0.23897
3.50638
0.188875
7.16473
0.791404
0.905835
0.84321
1.30957
0.599422
0.111463
0.308004
0.215557
0.623401
1.12663
1.22175
0.672335
0.220757
0.26247
0.144356
0.0549667
0.810421
0.458761
0.400973
0.132423
0.619304
0.0753624
0.488477
0.115673
1.27454
0.171952
0.178512
0.173894
0.903013
0.319271
3.89753
0.146218
0.447955
0.257333
0.110216
0.900412
0.180302
0.724729
0.227389
0.591899
0.164274
0.249809
0.210227
0.153589
0.274769
0.56043
1.20265
0.242617
0.358587
0.500597
1.05124
0.242654
1.13616
5.56214
0.982374
0.0764478
0.311575
1.18424
0.569115
0.164507
0.936638
0.840697
1.2011
1.06458
2.0852
0.305006
1.02545
3.6357
1.56815
2.02778
3.10869
0.124948
0.499389
1.09105
0.112939
0.425218
0.776701
0.202198
1.1406
1.22342
4.58985
5.95782
0.891659
0.467317
0.159054
0.0938086
2.19304
0.994404
1.02242
0.330519
0.268934
0.238877
2.98986
1.33137
0.94115
0.68029
0.0863981
6.55475
0.0627346
0.212209
5.54064
0.265232
0.447086
0.821423
0.17307
1.54516
1.13511
0.450815
0.0826207
0.326327
0.430538
1.13098
1.68067
0.162425
1.29553
0.634757
0.605428
1.43412
1.99435
0.397464
0.10667
0.341474
0.225561
0.275421
0.548873
0.275864
1.67007
1.57187
0.167608
1.48772
2.28835
1.3442
1.45761
2.74119
3.22949
0.611251
0.802302
0.174314
0.279091
0.203136
1.88836
1.10972
0.202499
1.18569
0.0773022
0.0912965
0.792694
0.0924876
1.33136
0.100311
1.58068
0.282966
1.75719
1.26923
0.717994
0.777463
1.10983
1.08017
0.115483
0.292736
0.596703
0.851959
1.54234
1.51272
2.29642
0.210208
0.576284
2.30469
3.225
0.0476139
0.785046
0.2269
0.175303
0.565432
0.820778
1.17963
0.279005
0.330067
0.607518
0.173707
0.289835
0.264975
0.238
0.2411
0.331318
0.10577
0.608304
1.39368
0.644843
0.0838191
0.156892
1.18461
0.209015
1.40632
1.08386
1.26232
2.43864
0.768975
0.174131
0.196418
2.83732
0.249362
1.25132
0.553857
0.190665
1.00923
0.901093
1.81058
0.881959
0.268568
1.93428
1.1074
0.927637
0.338534
0.292502
0.388682
0.0650878
1.81425
0.12543
1.2682
1.27476
0.828449
0.270369
0.589034
0.15091
0.330953
0.426663
0.323482
0.84357
0.81765
0.205542
2.6327
1.2689
0.325284
0.762952
0.216707
1.17431
0.0728434
0.34255
0.331524
0.330686
0.137645
0.364642
0.116382
0.741945
0.149927
0.784105
4.71154
0.25347
0.174717
1.12919
0.272747
0.123731
0.0790055
1.84104
1.39216
0.854943
1.21287
0.602286
1.13255
0.60532
0.471073
2.18156
1.07176
1.72605
0.823064
1.29285
0.939802
0.359963
0.612681
0.454237
0.16774
0.134607
0.0570135
0.128004
1.39383
0.224551
1.29086
1.48845
0.231463
0.0890994
0.28405
0.683708
0.691972
0.607354
0.203676
0.269834
0.453193
0.199359
0.270417
2.03743
1.01944
0.0409252
0.413943
1.46887
0.249939
0.0702093
1.58778
0.0954951
1.93397
0.0776171
1.8971
2.42312
1.43369
3.36725
0.093075
0.0760258
0.330055
0.32864
1.15005
0.683562
3.84035
3.12924
0.983781
0.100614
0.0239602
6.00153
1.53164
1.08019
0.298742
1.73253
5.37467
1.48379
0.146704
0.0750896
0.446033
0.0907762
0.510275
1.06728
0.943749
1.10511
0.310169
0.260993
2.94135
0.112165
0.0886919
2.38216
2.15125
3.38793
0.258712
0.325901
0.0595001
0.342958
0.050413
1.02007
4.69935
6.02483
0.267153
0.637695
1.39347
0.0747564
0.11543
0.655455
1.40589
0.0845018
2.33601
0.278375
0.364538
0.0594402
0.0887923
0.918248
1.67249
0.0372621
0.222401
4.86588
0.16602
0.0692575
3.22563
2.71227
0.738931
0.0951569
0.118065
1.01031
0.084074
0.0766034
0.452075
0.0870412
3.69848
0.290946
1.63547
0.252567
0.240586
2.35233
0.6579
1.28773
0.106527
1.75266
0.0623815
1.59741
0.206292
0.0477846
0.213926
1.54293
0.134847
0.0902166
1.87093
0.170772
0.0770404
0.0990407
0.0934031
0.236861
0.406893
0.0729304
0.0870886
1.54934
10.7114
0.0562111
1.45296
0.30672
1.56765
0.272979
0.0578248
0.652808
0.0528012
0.0741128
1.27375
0.897871
1.36929
1.20726
1.55208
0.289911
3.64311
1.37317
0.196315
1.40264
2.02318
1.1095
2.96694
3.66913
1.69127
0.968193
0.135878
1.75258
1.00062
2.14484
0.0830363
0.0823389
0.0612689
2.22386
1.16482
1.13005
0.114979
0.293763
0.0597595
0.320374
0.120923
1.42451
1.16167
2.35235
0.0897028
0.486293
2.14322
0.271875
0.0244732
0.251005
3.24285
4.97815
1.7045
0.234418
0.160564
0.290652
0.934118
0.581743
0.268418
1.66313
0.0458358
1.23459
1.64122
0.923687
0.0537029
0.095836
0.12275
1.99818
2.24007
0.12961
0.156977
0.0834946
0.0337122
0.152654
0.0662068
0.623624
1.58997
0.488284
1.38371
1.32663
0.173892
0.292986
1.1079
1.06376
2.01377
2.55712
1.31372
0.739953
0.195138
0.0661177
0.0490908
0.111682
0.295922
0.184469
0.160268
1.5928
5.65597
1.51694
1.90527
0.118914
0.236648
0.41068
0.0905354
0.63934
0.0768462
1.44352
2.81171
2.37039
1.35195
1.1842
0.914518
0.288726
4.69901
0.605869
0.610962
1.22831
2.53035
0.266444
1.71422
0.137156
0.0589923
1.20661
0.342736
0.0517128
1.44035
2.09179
2.21342
0.29523
0.271952
0.0484474
1.28652
3.67221
1.47372
1.36821
0.220194
0.921354
1.13711
0.0749323
0.0581235
0.290353
0.2533
0.392543
0.0844442
0.467882
1.57052
2.32459
1.40421
0.82739
0.231913
2.9196
0.535438
3.72174
1.50868
1.54107
1.37064
0.37432
0.267999
7.12037
1.26007
1.53934
1.91484
1.92179
2.37887
0.2272
5.18853
0.213863
0.382868
0.508138
2.87396
0.643622
1.22656
1.11944
2.80808
0.826611
0.24765
0.499837
4.53856
0.726569
0.892379
1.47839
2.16484
0.0535834
0.048756
0.361597
0.0722166
2.11894
1.38938
2.48657
0.209556
0.283516
0.0610383
0.105286
0.260147
0.0755706
1.09128
2.17525
0.206178
2.55637
1.14092
0.268764
0.258093
6.48912
2.02102
1.42323
2.85273
2.45411
1.38756
1.40429
0.185787
1.61524
0.953133
2.03325
1.62726
0.27208
1.43171
0.0878045
0.0930981
0.127059
1.96498
0.104956
1.30071
6.27943
0.267133
0.0974105
0.0792571
2.10123
1.22443
1.29236
2.16165
1.16153
0.0608668
2.22687
2.06812
0.507524
0.204584
1.3221
0.0690144
2.31103
0.107649
1.59701
0.301846
0.92943
0.278229
0.109053
0.0630266
0.290386
1.27083
1.64665
1.66649
3.97836
1.44767
0.226951
0.101881
0.666922
3.75212
0.329441
0.760823
0.678292
2.52702
0.0856776
0.0921974
0.354484
0.916254
4.38032
0.133117
0.386771
0.316147
0.990518
0.360857
1.0366
1.86938
2.04524
0.283221
0.264023
2.7535
0.902727
0.110459
8.17197
0.11649
0.0595523
0.189166
0.0686911
0.981813
0.0994263
0.498581
0.116834
0.248277
0.223112
0.316712
5.90681
1.21381
2.47771
0.832253
1.15825
1.63982
1.1219
4.64759
1.29096
0.080254
0.0738048
0.205443
1.50686
0.100003
1.46397
3.84068
1.63749
1.7936
0.816149
0.227799
2.09556
0.0790784
0.348964
1.34191
0.123239
2.6753
0.330678
0.39434
1.25328
0.408764
0.229501
0.14728
1.9638
0.674498
0.263832
0.070847
0.338354
0.816756
1.72382
0.0719056
0.299666
1.00339
0.549821
1.35582
2.74303
1.92718
2.24554
2.58134
0.124687
0.0887205
1.35981
0.0818852
0.294798
0.0693494
0.147398
0.755283
0.0546926
0.254622
0.0957214
2.08158
1.22303
0.378924
0.273614
0.499001
0.967906
4.92556
0.885747
1.56352
0.234752
0.093075
4.65135
0.369827
1.28403
0.259647
1.24431
0.946787
1.08296
0.0447014
1.5083
1.09345
0.119251
0.152686
0.251271
0.0815006
0.0585815
0.738356
1.55895
2.83292
1.64201
0.823236
1.25961
1.09643
0.337346
0.0818513
0.120067
2.23183
0.0732923
6.10077
1.24241
2.09096
0.246749
2.81253
1.2283
0.0719641
0.101806
5.78906
3.09164
0.305212
0.311153
0.474791
1.52622
0.238257
2.54946
0.0661496
0.206027
0.140273
0.0601002
0.0566344
0.147221
0.0589365
0.0792686
0.0700823
0.0906248
0.264686
2.21779
0.216309
0.353023
0.0904715
1.24442
0.299726
0.613584
0.210611
0.738841
0.0765029
0.627346
0.199666
0.466128
0.0996815
0.461354
1.47193
0.0861635
0.304434
0.168908
0.0734606
0.291918
1.34638
0.43185
4.75775
1.82303
0.0827967
0.318658
0.532089
1.09946
0.569568
0.981759
1.16353
2.28448
0.0953641
0.101137
0.0965697
0.0364344
0.427213
0.395906
1.80714
1.62194
1.36756
0.0241098
0.637262
1.40374
1.03176
0.80743
1.00577
0.0590358
0.0889717
0.0730005
0.601168
0.303084
1.46184
0.200636
0.0402308
0.196852
0.205196
0.28816
0.321438
0.0858922
0.138024
2.26448
0.848188
0.724715
0.0708515
0.274719
1.53295
0.0836608
0.812769
0.18573
0.352755
0.89112
0.0857024
1.43447
0.0550825
0.311941
1.11151
0.096778
2.81638
0.299182
0.086377
0.130957
1.81103
0.0701485
1.59296
0.203083
0.169001
0.070085
0.21064
0.13413
0.0826573
0.309405
0.0839494
0.139195
0.164715
0.523508
0.591155
1.58975
0.568627
0.274574
2.31446
1.18554
0.172236
0.0659344
1.90291
0.149775
1.52217
3.22097
0.214465
0.473658
0.0876654
4.14042
0.273975
1.5906
0.345202
3.07464
1.1204
0.0593905
0.661845
0.136729
0.0200062
0.409869
0.33381
0.617951
0.642281
0.0799422
0.675833
0.0365899
0.0674555
0.230324
0.0746596
0.126131
1.3362
0.193334
1.13148
0.0733247
1.22464
0.336533
0.163
0.0664436
0.198936
1.99235
0.412273
0.192772
0.569481
0.247024
0.399761
4.39614
1.74545
0.0617654
0.114986
1.5566
0.649174
2.51557
0.23659
1.82747
2.00286
1.48597
0.51931
2.42386
0.270551
0.26797
0.352826
0.13916
0.345556
0.0856632
9.73571
0.692901
0.0894758
0.190844
1.65966
1.61664
0.269052
0.0606897
0.122747
0.800044
0.379663
0.0842185
2.47548
0.278401
1.50495
0.203871
1.89994
0.126536
0.0632214
0.335743
0.232089
0.12017
0.597714
0.0702902
0.819031
0.0910161
3.84586
0.201367
0.314558
0.191512
0.501161
0.29274
0.39225
0.332465
0.195062
0.168879
0.399145
0.846059
0.300747
0.212534
0.0876617
0.14236
0.612445
1.70124
0.672314
0.149574
0.520227
0.24839
0.360054
0.260299
0.245701
0.354025
0.167642
0.323262
0.589577
0.0594802
2.24904
0.0629723
7.63287
0.0875384
0.185031
0.248551
0.102533
0.0666604
1.25163
0.440216
0.235989
0.0554612
0.0924819
0.642522
1.9085
1.2868
0.353279
0.0723903
0.178969
0.528038
1.63798
1.14513
0.266758
0.281843
0.0490136
2.16689
0.281413
0.375088
1.54093
0.196666
0.284707
0.650728
1.30253
0.0738738
0.871738
2.73475
0.628708
0.321035
1.25088
0.670112
0.0603505
2.43282
6.48852
1.68429
1.30825
0.130253
0.0670427
1.0672
0.30481
0.259228
0.0457993
0.33785
1.31604
0.106481
0.0868854
0.153608
0.0781481
0.0772271
0.239504
0.231564
0.906031
0.0836681
0.24439
1.40271
3.47786
2.25706
0.295924
0.880423
0.19778
2.38851
0.112452
1.90292
2.51695
1.22474
1.66163
0.277872
2.35417
1.29062
4.7137
0.248056
0.301844
0.367932
2.58113
0.0870975
0.21134
1.1475
0.368299
0.272815
1.16583
0.318396
0.304163
1.01453
0.0993937
0.0435515
0.257697
0.30618
0.101566
0.221555
1.31995
0.294043
1.50751
1.28116
1.52136
0.0621317
3.25719
0.113275
0.987529
0.547169
0.523595
0.209899
0.0812428
0.994108
0.0699447
0.214447
0.0591354
2.37041
0.197059
0.242053
1.222
3.0566
0.379416
1.53646
4.06512
0.520666
0.278298
0.0412565
1.32087
0.14678
1.53584
2.75143
0.198299
0.0498241
0.395078
1.33141
0.613114
1.60968
1.10733
1.30069
1.14294
1.96983
0.0580058
0.165369
1.04456
0.267323
2.71565
0.295244
0.0597018
0.117862
0.526317
0.0586699
0.190877
0.225479
0.159448
0.384084
0.195156
0.255445
0.0810025
0.263767
0.307143
0.997894
0.919501
0.0774572
1.8058
1.36404
2.00925
0.436074
0.253831
0.922759
0.30198
0.0510657
0.0471569
0.218565
11.4166
0.323359
1.1847
0.855079
1.72597
1.75993
0.563405
0.215185
0.0205971
0.0450336
0.0997997
0.0324235
0.197904
0.197052
0.0507571
0.234427
0.0194168
0.0494664
0.180875
0.088819
0.0618768
0.0531156
0.0250446
0.186697
0.209499
0.0548342
0.124174
0.188906
0.0515387
0.0525469
0.0239451
0.0313276
0.201733
0.118343
0.07959
0.0403092
0.0709543
0.135426
0.17192
0.0543322
0.0268289
0.0322252
0.037738
0.0370267
0.20119
0.0491149
0.0138281
0.0909266
0.0471042
0.150792
0.191215
0.341368
0.669113
5.17402
0.0930167
0.138247
1.04514
2.2812
1.8682
0.411537
0.0854422
0.382406
0.427337
0.674991
2.38362
9.55684
2.66725
2.4329
0.963585
0.180316
0.17856
0.0581502
0.130438
0.0648583
1.46303
0.111206
0.236795
0.412116
0.155266
0.968284
0.997686
0.259388
0.352124
0.915881
10.602
0.293394
1.07796
0.257839
0.349072
1.71208
0.36704
1.07048
1.64958
0.897731
1.09664
0.430368
0.775713
0.298995
0.32808
0.362156
12.0625
0.232262
0.198532
0.0552928
1.84571
1.79213
0.0860088
1.6261
1.89566
0.0517824
0.0363791
0.19633
0.195435
0.0757686
0.222602
0.0200785
0.0518099
0.093408
0.0239267
0.165954
0.161967
0.0397453
0.221653
0.0900775
0.075011
0.18648
0.053016
0.0520242
0.0561343
0.0234094
0.225618
0.0396492
1.18635
1.39708
0.200764
0.486032
0.309201
0.362257
1.57659
0.0665731
1.42816
1.81968
1.57472
1.12415
1.77328
0.291141
0.065798
1.74409
0.980241
0.720603
5.95974
2.17981
1.18554
0.0411545
1.95719
0.745027
0.208787
2.04609
0.357168
1.45938
0.136917
0.1889
0.0547811
2.06954
0.148761
1.82996
2.36304
0.111412
2.9869
0.104986
2.94621
0.142629
0.0649839
0.117366
2.34878
0.105465
0.1278
0.147735
0.175935
2.87936
0.315624
1.84735
0.367764
0.258334
0.957016
5.09295
0.0514267
0.280126
0.302893
2.68908
1.1137
0.215182
0.0651847
0.397923
0.330384
1.90411
0.308062
0.202795
0.0370151
0.203017
0.387039
0.0708484
1.68915
0.48562
0.0170319
0.0687031
2.96921
2.54961
0.322366
2.00619
1.89075
0.030234
1.87069
2.71572
1.75592
1.84791
0.830302
0.185835
2.24264
0.0788645
0.297676
0.282805
1.83268
0.252289
0.256146
0.481455
2.02512
0.541925
0.127464
0.0729156
0.214349
0.689879
1.77545
1.82836
4.209
1.58449
0.618936
1.19276
0.265679
0.80153
0.773966
0.899356
1.21799
2.16848
1.14599
1.81435
1.01811
3.0421
1.2685
0.302638
1.2201
0.943878
0.497759
0.673984
0.456605
3.58556
0.680068
0.263514
1.42131
0.341622
1.28339
0.233159
0.937183
6.27169
0.272923
1.61101
1.097
0.0821145
0.0949069
0.243415
1.45997
0.134447
0.0674978
0.286056
2.06296
2.46686
3.2718
2.43127
2.59909
3.35999
2.80926
0.161234
2.60872
2.31975
3.36745
2.32036
2.14794
2.40293
2.33433
2.03733
2.23462
0.706933
0.71601
0.28545
4.43731
0.661636
0.200262
0.176322
0.511781
0.0782236
0.0879422
0.562918
1.37194
0.168743
0.170006
0.207339
2.43375
1.48103
1.98452
1.11505
0.190413
0.335653
0.138157
0.43
0.882977
0.400565
1.28871
0.325439
0.295389
0.157614
0.373647
0.118065
1.58268
0.139896
0.779614
0.158595
0.0556139
0.580015
0.271468
0.137294
0.274843
0.137433
0.114149
1.42895
0.103726
1.10008
0.44365
0.438452
1.18629
3.46763
0.114353
1.56146
0.953971
0.511221
3.46373
0.296903
0.103415
3.3601
1.13382
1.78846
0.116182
0.554228
1.99723
3.51294
1.57531
0.0931565
0.102851
0.113179
0.484777
0.524745
7.31815
0.111219
0.576492
0.589131
0.0995518
0.437776
0.294435
0.452494
1.23559
1.39987
1.32198
6.9103
2.8907
0.120593
3.03056
0.105115
0.685331
1.35694
0.268289
1.98543
0.599592
6.64979
1.45815
0.676295
0.265597
2.18624
6.36161
0.160238
1.25012
1.6825
0.260278
1.24252
0.75798
0.213545
0.366857
1.92744
0.517661
1.75849
4.69432
4.30182
0.356398
1.22665
0.138218
1.24549
0.658495
0.200748
0.332693
2.00952
0.123055
0.33694
0.0640874
1.30836
0.541756
0.260107
0.565036
0.326034
0.569548
0.194533
0.290163
0.337786
0.385003
0.136776
0.29901
0.145527
0.177183
0.850433
0.799833
0.268552
1.09984
0.594888
0.552461
0.136556
0.121091
0.202994
0.399508
0.11179
0.83781
0.113227
0.272539
0.445237
1.86823
0.233184
0.297687
0.150834
0.938071
0.128501
0.116252
0.31738
0.13834
0.136092
0.139365
0.34334
0.697452
0.271694
4.72265
0.129383
0.342139
0.169334
0.138088
0.713635
0.695564
0.215236
0.181771
0.117884
0.144308
0.162786
0.187456
0.871014
0.834208
0.054056
0.426661
0.117563
0.101949
0.190891
0.181085
0.675999
0.542423
0.570002
0.41508
0.134067
0.214773
0.0440043
0.634469
0.213889
0.263404
0.0640515
0.335686
0.121696
0.108152
0.438183
0.244747
1.892
0.298394
0.185432
0.250216
0.133376
0.120991
1.31437
1.26416
1.44237
0.338308
0.150395
0.229249
0.913652
0.159843
0.812178
0.0528159
0.349119
0.0823972
4.86806
0.639259
0.119831
1.38197
0.59109
0.335736
0.32556
0.119772
0.0684958
1.4001
1.21489
0.276151
1.10913
0.324848
0.277241
0.116616
0.0790817
1.81025
0.396813
0.216289
1.44836
1.59302
0.957514
0.232152
0.178907
4.73965
0.339097
0.13555
0.557619
1.0156
0.245181
0.317337
1.24302
0.344066
0.633733
0.813208
0.317707
0.28763
0.108493
0.081647
0.904025
0.2095
0.180451
1.40542
1.51667
0.0498785
4.42745
4.28248
0.276621
0.229325
0.702722
0.214576
0.553961
0.98592
0.406525
0.306225
0.706048
0.62781
0.311235
1.32155
0.383966
1.67693
0.180082
0.72416
1.14588
0.245289
0.193392
0.312988
0.303048
1.37281
0.460133
0.340855
1.30137
0.137645
0.502934
0.384086
0.305393
0.788422
0.315733
0.255201
0.0876625
0.0928913
0.437494
1.87149
0.17915
1.44587
1.3495
1.25707
1.85671
1.14195
0.254019
0.195407
0.334069
0.0500387
4.3058
0.308102
0.748556
2.35213
0.206661
0.323657
3.81731
0.103616
0.121189
0.866232
1.40004
0.595082
0.947214
1.46194
1.96906
0.403204
1.42861
1.07937
0.630856
0.0969078
0.482762
0.287453
0.238931
0.206576
0.070899
0.0914076
0.334132
0.232867
0.0688895
0.0808725
2.10881
2.33005
0.721598
0.0964203
3.62124
2.93153
0.702204
0.147427
1.45084
1.07934
0.253831
0.197552
0.0485566
3.90812
0.31609
0.196051
0.269744
3.37608
2.01791
1.15921
0.497825
3.20686
1.77034
0.943427
0.347892
0.724041
0.450854
0.325252
0.117041
0.136083
0.116204
0.119246
1.50889
1.41055
0.458228
0.137354
0.695405
1.98492
2.26375
3.11894
2.26928
0.955832
0.114274
1.30272
0.119061
0.130743
1.45677
2.91215
3.33017
3.91471
1.16448
0.615761
0.498657
0.273285
0.283026
0.367768
0.110916
0.227847
0.0596544
0.0861821
0.158688
0.134287
0.157176
1.35851
2.58312
0.384055
2.28258
0.202804
0.930547
0.130451
0.331127
0.973025
0.155149
0.871673
0.102101
0.334948
0.225234
2.86087
0.559341
0.316004
0.107122
1.52943
0.177128
0.0704884
0.32806
1.56529
1.5932
1.00154
0.246876
1.08539
1.31218
0.332784
0.273757
0.0620576
0.0470519
0.406279
0.380813
2.55241
0.4517
0.130794
0.0732211
1.2722
0.30083
0.544135
2.6459
0.224619
1.7943
0.11416
0.123664
0.210151
1.82574
1.72844
0.351509
0.125452
0.0827629
3.0764
2.57213
0.365882
0.387638
0.395691
0.200978
0.672332
0.507391
0.101611
0.326403
0.243118
0.0947526
0.393999
0.141957
0.424347
0.317887
0.15931
0.612986
0.156632
0.408692
0.554509
0.496031
0.147606
0.899
0.699539
0.458179
0.807081
1.73932
0.111609
3.19953
0.261604
0.382043
1.02814
0.293185
3.92859
0.819173
1.5332
0.13123
2.39139
0.276646
1.34662
0.173267
0.0354621
2.43235
0.251406
1.08063
0.502158
0.666546
0.38994
0.217598
1.75124
0.6966
1.76438
1.05276
0.179928
0.763046
0.261455
0.0562324
0.0798324
1.72243
1.53997
0.85219
0.419328
0.0725545
3.45871
0.445125
1.90976
3.33138
1.84972
2.56267
1.83423
0.0491528
0.611087
0.513919
0.19903
1.90697
2.39534
0.220346
0.481582
0.936509
0.182719
1.66787
0.360061
0.878126
2.30596
1.85136
0.317853
0.293538
0.71469
2.17282
0.43237
0.657798
1.5659
2.78515
0.537684
0.243682
0.186709
1.96678
1.11086
0.777068
0.898072
1.38091
0.607159
0.193183
0.673814
0.422512
3.31519
0.781853
0.361823
0.116185
0.0605938
1.55184
1.64174
1.33347
2.55858
1.72819
3.5186
0.200603
1.05879
0.272932
2.3008
0.135418
1.81265
1.02768
0.170222
0.0684493
0.730626
0.16075
0.254363
2.73224
2.58605
2.58587
2.84109
3.61698
1.08033
0.259299
0.530606
3.37669
3.69207
0.723011
5.6149
0.204056
0.260063
0.55319
3.31329
1.28889
1.2492
1.267
0.304416
0.458309
1.07292
0.946111
0.214861
0.566518
0.0743965
1.06598
0.0936511
2.61296
0.118266
1.23278
0.260514
1.06612
0.456751
1.99288
1.71403
1.37485
0.0711841
3.9197
0.143687
0.126158
0.31157
0.0418837
0.114271
1.73184
1.63266
3.89555
0.588075
2.78692
3.91697
0.321507
1.11021
0.140133
0.337906
0.107547
0.0419505
2.03975
1.50891
0.116658
0.129987
1.88744
0.605074
0.423506
0.358344
0.293948
0.801251
0.223612
2.69136
0.276984
1.55175
0.248222
0.590565
0.358283
3.59168
0.275508
2.49427
1.68818
0.1945
0.409936
1.64275
0.225024
0.0970686
3.84615
0.209694
0.208806
1.88534
0.309748
3.08016
0.245216
1.47961
2.58741
0.0726441
0.593162
0.405454
2.30039
3.34303
0.161438
1.25116
1.13416
1.64424
0.359656
0.289688
0.270196
0.371136
0.0442525
0.0744763
1.69949
1.44136
0.260626
0.133016
2.64168
0.317371
1.99517
2.43365
0.538607
0.206958
1.67271
3.21069
0.327746
0.0387432
0.0501974
1.95416
0.765545
2.11827
0.24651
0.189116
2.28163
3.04321
0.242296
1.32241
2.9001
1.99848
1.12954
1.88057
0.0510595
0.941685
0.416488
0.244691
0.0475804
0.0798944
1.08354
0.266014
0.440157
1.30707
0.335279
0.902418
0.430906
0.239107
0.948496
2.42889
0.244599
0.958472
0.221044
1.32972
1.89099
1.62018
0.263087
0.263034
0.0522794
0.077481
1.25447
0.444979
1.17139
1.33564
0.43442
0.900024
4.37937
1.54836
2.00986
0.0397564
2.53526
0.0491925
0.161289
0.945851
1.33347
0.858584
0.204242
0.178964
0.290582
1.58594
0.0663733
0.161948
1.83113
3.86268
0.173359
0.644658
0.255932
4.27452
5.19928
1.52305
0.354362
0.826845
1.15533
2.13914
0.57053
1.94049
0.207057
0.771072
0.672651
1.35452
0.199946
1.03963
0.115218
0.674168
0.051794
0.559881
0.799105
0.239152
0.937523
0.0364582
0.221335
2.12275
0.960196
0.0713971
0.225387
1.69828
1.56836
1.49453
0.807469
0.100197
0.217042
0.0573289
0.0683267
0.193631
0.470235
1.18439
0.0777019
0.7202
2.21333
0.0966695
0.440649
0.543457
0.305476
2.64578
0.21197
0.0484284
0.0653065
0.156904
0.862012
0.163505
0.501863
0.14592
0.658836
0.0916854
0.0926014
0.265942
0.71763
0.230143
1.22846
0.547781
0.188234
0.579538
0.254332
1.16938
0.197026
0.0487178
0.0555725
0.127065
0.232855
1.70037
0.41314
1.42803
1.91216
0.926733
2.33251
0.208456
0.23864
0.265248
3.19171
0.65026
0.19687
0.248951
0.0472115
0.0726321
0.200492
0.104959
3.06493
2.07931
1.18334
0.0500508
0.0652636
0.126528
0.0311887
0.518435
0.388162
2.53428
0.408019
1.871
2.90912
0.0410439
0.181381
0.384237
3.5939
0.181177
2.373
0.251315
1.35157
0.111399
0.247418
0.0993658
0.26812
0.892488
0.687361
0.744762
0.441757
0.456115
0.157223
0.106348
0.175592
0.440139
3.65328
2.2524
0.323686
1.8265
0.464759
0.710225
0.337572
1.61767
0.144649
1.62769
0.175124
1.49196
2.20838
3.62883
0.407212
0.109758
0.189245
0.0450913
0.0936009
0.319413
0.524949
0.191517
0.214376
2.43424
0.340571
0.106333
1.94052
0.256807
0.603738
1.32912
0.920856
1.64047
0.124472
0.23542
0.682866
0.256943
0.332196
0.166697
0.581001
1.20117
0.130452
0.258997
0.845922
0.399724
0.318481
0.102229
0.0913849
0.0767996
0.073348
0.111091
0.0378821
0.161067
0.153529
0.282841
0.284693
0.0425016
0.0496341
1.76215
1.63068
0.359129
1.08882
0.137576
0.820559
0.230605
2.12609
1.56497
1.78959
5.65535
1.74818
1.95479
2.00783
3.47728
1.08644
0.0572555
0.0617839
0.133309
0.0639814
0.0654085
0.264409
1.84043
1.71172
0.0225348
0.0431839
0.180318
0.532509
0.333316
2.11011
0.223993
0.0393001
1.3409
0.328665
0.689486
0.746778
0.169089
0.186725
1.3478
0.468039
4.02449
0.0588713
0.443237
4.37704
1.18525
1.34844
1.92982
0.0255559
0.0587269
0.247499
0.112862
0.0788162
0.288418
0.0924581
0.424754
0.453203
0.390911
0.122692
0.111907
0.300337
2.17509
2.48929
0.0695922
0.425484
0.101907
0.393589
0.721508
0.184435
0.653544
1.58126
0.329542
1.23857
0.424196
1.63317
3.52766
3.10722
1.33082
0.832039
0.204158
0.326195
2.2772
0.495038
0.118459
0.0429192
3.71625
0.476072
3.00519
0.0722577
0.188226
0.35524
1.68575
1.94772
0.0855756
0.121186
1.19162
0.202818
0.68518
0.203156
0.281393
0.730174
3.78244
0.121782
1.57504
0.211688
0.0517897
0.0680114
0.0316042
0.224198
0.022758
1.9079
0.180369
1.51233
3.98609
0.884313
0.294138
5.49513
0.272644
0.206443
1.7845
0.3726
0.930544
5.86722
0.248836
3.96051
0.221245
0.0526879
0.0740904
2.15144
0.189093
0.188731
0.101907
0.0882119
0.474484
0.868132
1.81012
0.638211
0.554026
0.458043
3.33424
1.09575
0.567341
0.993386
0.258075
0.36285
1.82894
1.04221
2.18554
0.535235
0.0819254
0.118238
0.219049
1.36092
0.270766
1.48477
0.677039
0.477223
0.250156
0.656042
1.37981
0.198561
0.0554591
0.22888
0.0861826
0.25067
1.08755
0.18847
0.630447
0.251064
0.69117
1.79281
3.84959
0.421314
2.13667
0.942551
0.0837944
0.219655
0.0745771
2.13436
0.0884932
0.448114
0.214549
0.208369
0.130746
2.08043
1.76436
0.213927
0.286459
0.490279
1.81799
0.141437
0.0912838
0.14737
0.413577
2.17436
0.336625
0.410711
1.60656
1.5492
1.74056
0.29996
0.218132
2.06865
1.65274
1.08642
0.221681
0.436081
0.0486789
2.13116
0.0383545
0.427374
2.16532
1.18125
0.175383
1.13666
0.222299
0.43365
0.788608
0.0595246
0.478019
0.0998192
0.0290479
0.0353054
0.588757
1.96163
0.96444
0.325851
0.255977
0.0550145
0.163589
0.0690752
0.0213107
0.0326485
0.0547487
0.467471
1.88733
0.469724
0.761157
0.260284
1.64421
1.64501
0.595417
0.121462
0.0612047
0.19076
3.78747
1.91161
1.08653
0.121417
0.0467403
2.27945
0.40301
0.344672
0.967227
1.4925
0.0341504
3.11607
1.20772
0.43805
0.195793
2.71436
2.78987
0.404733
1.28418
0.037485
0.135258
1.60815
1.08494
0.0844932
0.0522963
0.289289
0.229625
0.0904568
2.54052
0.365367
0.238168
2.28631
1.11421
0.12043
1.67691
1.85596
0.312958
3.63528
0.0407775
0.574008
0.0601228
0.511281
1.28191
0.0886437
0.370879
1.66829
0.191657
1.34614
0.0584279
0.163287
0.59086
1.99168
1.20327
2.41596
0.404704
2.26854
0.351526
0.454805
2.4188
0.209176
3.8383
0.456278
1.52142
0.412667
0.211306
2.53818
0.792688
1.92147
0.238269
0.0613625
0.0608962
1.40448
0.10911
0.190858
0.116
0.480303
0.510911
0.0877866
0.0369621
0.13025
0.929092
3.7644
0.151929
0.0384898
0.350122
1.94756
0.52328
0.421439
0.163157
1.6092
1.04391
0.0654499
0.72594
3.23278
0.0204462
0.800665
1.18776
1.99377
0.793031
0.857063
0.877315
0.418114
0.152011
0.0842468
0.416533
0.0968323
0.197223
0.305373
3.58187
1.09148
1.05471
3.10033
1.2511
1.42417
0.171106
0.560788
0.973356
0.114959
1.5792
0.146136
1.48228
3.5489
2.3443
0.672311
1.81374
0.0821803
0.902119
0.613625
1.08417
0.0319943
0.0599597
2.23762
0.494583
0.392935
1.99725
2.50073
0.389663
0.969063
1.08261
3.12551
4.28884
2.8553
0.246848
1.52406
0.0427901
0.251222
0.0628549
1.56807
1.37014
1.37424
0.131943
0.0530638
2.90252
0.0925419
0.0508038
0.486724
3.51265
0.568848
1.79135
3.81654
1.34612
0.115322
0.0841428
1.208
0.931589
1.91033
1.85527
2.20126
0.648715
0.335181
3.91561
1.97534
0.0598815
0.062156
0.200066
0.0670313
0.0988528
0.267106
5.32279
0.564366
0.144886
1.8102
0.609829
0.216011
2.25181
1.85986
2.44264
0.479076
0.528914
0.121247
1.21812
0.642118
1.31056
3.31216
2.01274
1.01534
2.19403
3.04462
2.20658
0.194226
0.0597722
2.42949
2.51284
0.117445
0.827689
0.0388165
0.0564931
0.727458
1.13062
1.96874
1.50134
0.223973
2.3203
0.0460984
0.234172
0.0720594
0.18013
0.043819
1.73882
1.83735
1.51242
0.379828
3.12607
0.0388658
0.123247
3.56308
1.55493
1.71809
0.646565
0.664361
3.92123
1.83224
0.137998
0.313174
0.763679
1.12892
0.192644
0.408777
0.885314
0.510153
0.584792
1.58647
2.65438
0.359198
1.47199
0.020089
0.140005
1.2372
0.1562
0.362672
8.61457
0.309688
1.95711
1.75575
0.0686088
0.049038
0.0572283
0.238122
2.32609
1.69718
1.71671
0.181143
1.45585
0.229228
0.730498
0.66191
0.623977
0.225047
0.358557
0.20576
0.208533
0.0360533
0.0229447
0.121711
2.02662
1.7216
0.21266
0.638676
9.2903
2.64638
2.2292
1.2166
0.0932428
0.947746
0.410918
0.170173
1.48256
2.93758
0.149776
0.113898
0.0687612
1.95585
1.32119
2.04264
0.269125
0.131685
1.07164
0.454446
0.0584988
0.139236
0.0297982
0.0893369
0.280901
2.09928
0.70759
0.234082
2.2067
1.36829
1.63552
2.138
0.554108
2.1812
0.126012
1.65982
1.26484
1.55763
1.52228
0.0718395
0.0629638
1.45496
0.196664
0.983035
0.185945
1.34106
0.537518
0.526955
0.0592346
0.517838
0.0615956
0.528275
0.503109
0.508874
0.509338
0.662936
2.18934
1.08082
0.0699507
1.93015
0.548221
0.0844584
0.334777
0.0862724
0.161816
0.167471
0.385513
1.36821
0.235448
0.328198
1.82916
0.0534245
0.65774
0.0703372
0.160732
3.91904
3.47946
0.210596
0.0719433
0.0599423
0.249167
0.022809
0.0498614
0.256026
0.0615332
0.0731326
0.249991
0.0763749
1.25979
0.191913
0.334164
0.569119
1.55546
0.622531
0.614747
0.222549
0.639488
1.70969
1.78445
0.955173
0.0519591
1.78774
2.16664
2.10137
0.975677
0.352734
0.0651162
0.017867
0.101898
1.31695
2.65685
1.24012
0.194549
0.809086
0.270054
0.26511
0.363276
1.47616
2.21145
0.115753
2.31983
0.053029
0.264822
2.47901
1.27084
1.01368
0.505973
0.647873
1.52777
1.29211
1.30279
0.606629
0.171868
0.459032
0.440327
0.241976
0.310941
0.174071
1.27755
1.24128
1.76193
0.906082
1.52141
0.17357
0.117272
0.22145
1.94366
0.9901
0.700339
0.278653
3.28263
0.507514
0.477791
1.61696
0.239329
0.232625
0.686933
3.36042
3.25926
1.12476
1.81816
2.32826
1.52644
0.163883
0.177637
0.0273769
0.237468
0.211306
7.82112
3.33402
0.305101
2.39417
1.25098
0.467404
0.0492265
0.779503
0.116012
0.116411
0.0484687
1.82501
0.579588
0.870865
1.54626
1.2261
0.038306
0.0936124
0.0880184
0.152978
1.66014
1.31844
10.6541
0.507955
0.32067
0.0435574
0.316305
3.02375
1.44877
0.662198
1.54417
0.111355
0.343917
0.225338
0.12235
1.79623
4.28988
0.0766271
0.238681
0.0605731
0.291709
1.40799
0.291306
2.84916
0.26716
7.84431
0.862111
2.17379
3.75194
0.0591814